FOO
138240
    1MOL0     O    1   7.024   4.388  10.958  0.3664 -0.1210 -0.3213
    1MOL0     C    2   7.136   4.389  11.010 -0.8755  0.5469 -0.2248
    1MOL0     O    3   7.178   4.480  11.097  0.1351  0.2460 -0.6909
    1MOL0     C    4   7.070   4.556  11.143 -0.1535 -0.6482 -0.2133
    1MOL0     C    5   7.073   4.690  11.093  0.9488 -0.6781  0.3473
    1MOL0     C    6   6.965   4.772  11.112 -0.1588 -0.8227 -0.7076
    1MOL0     C    7   6.853   4.731  11.198 -0.7458 -0.9172 -0.7091
    1MOL0     O    8   6.731   4.798  11.215 -0.4871  0.1200 -0.1999
    1MOL0     C    9   6.714   4.927  11.161  0.3953 -0.8175  0.4675
    1MOL0     C   10   6.726   5.027  11.275 -0.5800 -0.6932 -0.9204
    1MOL0     C   11   6.701   5.166  11.225 -0.4499  0.4193 -0.1713
    1MOL0     C   12   6.566   5.217  11.221  1.5897 -0.8143 -0.1145
    1MOL0     C   13   6.561   5.372  11.190  0.4516 -0.5154  0.1158
    1MOL0     C   14   6.416   5.427  11.211  0.2919 -1.0658  1.0788
    1MOL0     C   15   6.389   5.574  11.184  0.2215 -0.1940  0.0080
    1MOL0     C   16   6.471   5.679  11.267 -0.0634  0.2581 -0.1623
    1MOL0     N   17   6.410   5.818  11.273 -0.5377  0.2089 -0.1711
    1MOL0     C   18   6.339   5.855  11.386  0.5067 -0.4678 -0.6443
    1MOL0     C   19   6.281   5.968  11.341  1.0820 -0.2015 -0.9718
    1MOL0     C   20   6.183   6.057  11.424 -0.1123  0.4279 -0.1631
    1MOL0     C   21   6.080   6.131  11.346 -0.2452  0.4711  1.2943
    1MOL0     C   22   5.997   6.037  11.249 -0.6432  0.4203 -0.2455
    1MOL0     C   23   5.909   5.946  11.334 -0.1004  0.3785  0.8734
    1MOL0     O   24   5.812   5.891  11.248  0.5697  0.1310  0.3135
    1MOL0     C   25   5.828   5.766  11.200 -0.2161 -0.4969 -0.1549
    1MOL0     C   26   5.713   5.719  11.151 -0.8407 -0.6860  0.4662
    1MOL0     C   27   5.724   5.605  11.079 -0.1052  0.6869  0.2024
    1MOL0     C   28   5.847   5.528  11.066  0.5232  0.7750  0.5640
    1MOL0     C   29   5.845   5.408  10.989 -0.2146  0.0881 -0.2287
    1MOL0     O   30   5.954   5.385  10.910 -0.2686  0.1756  0.4471
    1MOL0     C   31   5.974   5.260  10.855 -0.0272  0.4804 -0.8254
    1MOL0     C   32   5.973   5.136  10.942  0.1416  0.4595  1.3050
    1MOL0     C   33   6.023   5.010  10.879  0.1087 -0.1479  0.4819
    1MOL0     C   34   6.062   5.017  10.745 -0.6237  0.3729 -0.7511
    1MOL0     O   35   6.121   4.895  10.698 -0.4730 -0.3831 -0.5760
    1MOL0     C   36   6.133   4.880  10.549  0.3276  1.4505 -0.9707
    1MOL0     C   37   6.184   4.729  10.520 -0.1811  0.1806 -0.4222
    1MOL0     C   38   6.271   4.735  10.396  0.0176 -0.8936  0.4289
    1MOL0     C   39   6.259   4.591  10.318  0.9788 -0.7706  0.1504
    1MOL0     C   40   6.342   4.586  10.190  0.3143 -0.3902 -0.9698
    1MOL0     C   41   6.361   4.443  10.144  0.8269  0.6362  0.3352
    1MOL0     C   42   6.238   4.349  10.155  0.6251 -0.2009  0.5609
    1MOL0     C   43   6.256   4.210  10.092  0.6236  0.1321  0.3166
    1MOL0    Cl   44   6.253   4.228   9.908 -0.2587  0.1588 -0.1679
    1MOL0     C   45   6.043   5.133  10.666 -0.1921  0.6918  0.2124
    1MOL0     C   46   6.018   5.255  10.721 -0.6289  0.4168  0.0126
    1MOL0     O   47   5.750   5.333  10.997 -0.4647 -0.0970 -0.4183
    1MOL0     C   48   5.959   5.585  11.124 -0.6086 -0.1073  0.5862
    1MOL0     C   49   5.953   5.710  11.181  0.0812 -0.0650 -0.7686
    1MOL0     N   50   6.313   5.990  11.208 -0.0025  0.0273  0.8933
    1MOL0     N   51   6.385   5.891  11.165  0.6246 -0.4253 -1.5205
    1MOL0     C   52   6.855   4.599  11.239 -0.6119 -0.6137 -0.2018
    1MOL0     C   53   6.960   4.510  11.217 -0.9002 -0.6395 -0.0383
    1MOL0     C   54   7.242   4.297  10.953 -0.3222 -0.0840  0.6178
    1MOL0     C   55   7.379   4.314  10.992  0.1603 -0.5601  0.6966
    1MOL0     C   56   7.488   4.235  10.947  0.0289 -0.2807  0.2131
    1MOL0     C   57   7.459   4.135  10.854  0.8252 -0.5359  0.1838
    1MOL0     O   58   7.577   4.076  10.808  0.4072  0.5487 -0.0833
    1MOL0     C   59   7.562   3.951  10.751 -0.3583 -0.1853 -0.3118
    1MOL0     C   60   7.715   3.898  10.749 -0.5635  0.3887  0.2968
    1MOL0     C   61   7.799   3.948  10.864 -0.2017  0.1014  0.0862
    1MOL0     C   62   7.946   3.882  10.866  0.5550 -0.4629  0.0321
    1MOL0     C   63   8.021   3.916  10.984 -0.3550  0.4254 -0.0490
    1MOL0     C   64   8.094   3.927  11.078 -0.0308 -0.5891 -0.2456
    1MOL0     C   65   7.328   4.115  10.815  0.5951 -0.0446 -0.1425
    1MOL0     C   66   7.220   4.193  10.859  0.2480 -0.0442  0.0603
    1MOL0     C   67   7.087   4.166  10.779  0.0261  0.3096  1.3408
    1MOL0     H   68   7.155   4.725  11.031  0.1483 -0.1203 -0.4139
    1MOL0     H   69   6.989   4.867  11.066 -2.5453 -0.9404 -2.3848
    1MOL0     H   70   6.785   4.963  11.087  3.0764  2.0019  4.1055
    1MOL0     H   71   6.615   4.927  11.113  1.8652  0.3678 -2.8888
    1MOL0     H   72   6.823   5.036  11.326 -0.8321  1.6990 -0.7565
    1MOL0     H   73   6.659   5.004  11.359  1.9988  0.7277  1.7191
    1MOL0     H   74   6.748   5.165  11.126 -0.2609 -0.1518 -0.0851
    1MOL0     H   75   6.764   5.237  11.280 -0.4119  0.4631 -0.2716
    1MOL0     H   76   6.510   5.166  11.142  1.0063 -0.5235  0.1061
    1MOL0     H   77   6.517   5.194  11.316  0.8135  1.2364  0.0277
    1MOL0     H   78   6.630   5.428  11.254 -0.0765 -0.8326  0.9906
    1MOL0     H   79   6.587   5.387  11.085  0.7814 -5.8912 -0.8729
    1MOL0     H   80   6.341   5.372  11.154 -0.9740  1.5446  0.0665
    1MOL0     H   81   6.408   5.405  11.318  1.9383 -1.0309  1.2352
    1MOL0     H   82   6.283   5.590  11.203  0.7682  2.2616  1.4781
    1MOL0     H   83   6.410   5.600  11.080 -4.4017 -1.2521 -1.4191
    1MOL0     H   84   6.488   5.631  11.364 -2.2949  0.5723  0.4441
    1MOL0     H   85   6.570   5.691  11.223 -0.8604  0.6800 -1.9133
    1MOL0     H   86   6.356   5.823  11.488  1.8710  1.5514 -0.1915
    1MOL0     H   87   6.133   5.983  11.487 -1.6288  0.8334 -0.8518
    1MOL0     H   88   6.239   6.127  11.485 -2.8626  1.7899  0.9564
    1MOL0     H   89   6.014   6.190  11.411 -0.5755  1.8686 -0.2403
    1MOL0     H   90   6.139   6.191  11.277 -0.9015  2.1257  2.0929
    1MOL0     H   91   6.060   5.981  11.180 -1.7713  0.9941 -1.7956
    1MOL0     H   92   5.943   6.102  11.179  3.2646  0.2259 -3.8123
    1MOL0     H   93   5.856   6.012  11.403  1.1934  1.3588  0.9742
    1MOL0     H   94   5.967   5.869  11.385 -2.1502 -1.8177  0.0660
    1MOL0     H   95   5.622   5.777  11.164  0.0802  0.5855  1.4843
    1MOL0     H   96   5.642   5.554  11.030 -1.0957  1.8321  0.6049
    1MOL0     H   97   5.946   5.146  11.047 -1.2457  2.2771  0.8179
    1MOL0     H   98   6.022   4.915  10.931 -0.9112  0.8516  2.4090
    1MOL0     H   99   6.033   4.893  10.505  0.0902 -2.1066 -1.8077
    1MOL0     H  100   6.200   4.954  10.504 -0.0405  2.1571 -0.3747
    1MOL0     H  101   6.248   4.697  10.603 -1.1174 -0.0395  0.2303
    1MOL0     H  102   6.099   4.661  10.504 -1.4332  1.2607  1.3379
    1MOL0     H  103   6.244   4.810  10.321 -0.4473 -2.1296 -0.6841
    1MOL0     H  104   6.374   4.764  10.421 -0.4198  0.1527  1.0615
    1MOL0     H  105   6.156   4.580  10.284  1.1373  1.3701 -1.2114
    1MOL0     H  106   6.290   4.512  10.387  0.1373 -0.4577  0.9160
    1MOL0     H  107   6.441   4.632  10.202 -0.7067  2.0976 -1.4227
    1MOL0     H  108   6.294   4.636  10.105  1.1563 -0.3338 -1.4201
    1MOL0     H  109   6.412   4.447  10.048 -1.0961  2.1204 -0.6889
    1MOL0     H  110   6.427   4.398  10.219  0.8438 -0.4359 -0.3072
    1MOL0     H  111   6.152   4.400  10.110  1.3483  2.6193  2.1140
    1MOL0     H  112   6.207   4.337  10.259 -2.2558  0.3192 -0.1686
    1MOL0     H  113   6.352   4.166  10.122 -0.1699 -3.1233 -1.4453
    1MOL0     H  114   6.185   4.133  10.125  2.7815 -1.4456  1.5722
    1MOL0     H  115   6.067   5.128  10.560  0.6850  1.7127  0.3444
    1MOL0     H  116   6.037   5.349  10.672 -1.6147  1.1524  0.9883
    1MOL0     H  117   6.060   5.546  11.109  1.6479  4.3213  2.2274
    1MOL0     H  118   6.049   5.746  11.216 -1.3664  1.6511  1.7440
    1MOL0     H  119   6.772   4.555  11.294 -2.6206  0.0481 -2.5237
    1MOL0     H  120   6.959   4.407  11.248 -4.4832 -0.4592  0.8616
    1MOL0     H  121   7.406   4.390  11.064 -2.3997 -0.8434  2.0840
    1MOL0     H  122   7.590   4.246  10.981  0.2263 -2.5709  0.5509
    1MOL0     H  123   7.508   3.967  10.657  0.0519 -1.3120 -0.7618
    1MOL0     H  124   7.506   3.881  10.813 -1.9285  2.3660  1.3408
    1MOL0     H  125   7.766   3.931  10.658 -2.1080  2.8784  0.2509
    1MOL0     H  126   7.722   3.789  10.753  0.2451  0.4509  0.8474
    1MOL0     H  127   7.728   3.929  10.945  0.0050  3.3915  1.1909
    1MOL0     H  128   7.798   4.057  10.865 -4.4693  0.2690 -1.1548
    1MOL0     H  129   7.926   3.775  10.870  0.1813 -0.4413 -0.9667
    1MOL0     H  130   7.981   3.907  10.765  0.4124  0.6815  0.2539
    1MOL0     H  131   8.153   3.953  11.163 -0.9895  1.3422 -0.1048
    1MOL0     H  132   7.300   4.030  10.753 -0.7151  1.4828 -1.7203
    1MOL0     H  133   7.012   4.133  10.851 -1.2322  1.3800  0.5529
    1MOL0     H  134   7.054   4.258  10.731  0.1634 -0.6685 -0.7462
    1MOL0     H  135   7.106   4.091  10.702 -2.7974 -0.6956  1.4981
    2MOL0     O  136   9.174   6.326   5.648 -0.0517 -0.3374  0.1894
    2MOL0     C  137   9.218   6.429   5.606  0.1108 -0.6740  0.2926
    2MOL0     O  138   9.143   6.529   5.559 -0.5000 -0.0789  0.2393
    2MOL0     C  139   9.015   6.501   5.525  0.6267 -0.0338 -0.0967
    2MOL0     C  140   8.967   6.508   5.389 -0.4950  0.6589 -0.6038
    2MOL0     C  141   8.828   6.518   5.357 -0.4209 -0.3874 -0.9018
    2MOL0     C  142   8.739   6.503   5.460 -0.0756  0.2667 -0.5722
    2MOL0     O  143   8.608   6.500   5.425  0.1332 -0.5411  0.5407
    2MOL0     C  144   8.508   6.522   5.520 -0.0039  0.1040  0.0123
    2MOL0     C  145   8.365   6.506   5.450 -0.6491  0.3130 -0.1411
    2MOL0     C  146   8.353   6.564   5.309  0.6152 -0.9278 -0.7442
    2MOL0     C  147   8.208   6.579   5.247 -0.1646  1.0404 -0.5256
    2MOL0     C  148   8.129   6.448   5.238 -0.2028 -0.8760 -0.2070
    2MOL0     C  149   7.981   6.481   5.238 -0.0341 -0.4067 -0.0681
    2MOL0     C  150   7.899   6.362   5.263  0.1619 -0.4187 -0.7615
    2MOL0     C  151   7.750   6.396   5.284  0.0408 -0.5103  0.1252
    2MOL0     N  152   7.725   6.405   5.426 -0.0294  1.4037  0.9967
    2MOL0     C  153   7.742   6.507   5.511 -0.1202 -0.6720  0.1835
    2MOL0     C  154   7.696   6.469   5.632  0.9552  0.9385 -0.3187
    2MOL0     C  155   7.672   6.551   5.755 -1.7730 -0.3829  0.2522
    2MOL0     C  156   7.799   6.644   5.765  0.6424 -0.5534 -0.2952
    2MOL0     C  157   7.795   6.721   5.897  0.2724  0.5882  0.5937
    2MOL0     C  158   7.941   6.766   5.928 -0.3283  0.1707  0.7890
    2MOL0     O  159   8.005   6.844   5.832 -0.4979  0.1235  0.1649
    2MOL0     C  160   8.140   6.865   5.848  0.6138  0.1145  0.7425
    2MOL0     C  161   8.203   6.881   5.977  0.0242 -0.0806 -0.4956
    2MOL0     C  162   8.341   6.885   5.984  0.9137 -0.3017 -0.1412
    2MOL0     C  163   8.413   6.884   5.867  0.5500  0.4542 -0.1640
    2MOL0     C  164   8.555   6.891   5.869 -1.1682 -0.5157 -0.6750
    2MOL0     O  165   8.624   6.841   5.978  0.2638 -1.3457  0.0378
    2MOL0     C  166   8.756   6.848   5.966 -0.0444  0.6922  0.2565
    2MOL0     C  167   8.833   6.924   6.048 -0.1998 -0.1031 -0.3095
    2MOL0     C  168   8.966   6.931   6.015  0.5941 -1.4490 -0.1140
    2MOL0     C  169   9.039   6.857   5.924  0.0485 -0.4337 -0.1051
    2MOL0     O  170   9.165   6.894   5.901 -0.6053 -0.5482  0.1767
    2MOL0     C  171   9.209   6.883   5.768  0.1232  0.2896 -0.5370
    2MOL0     C  172   9.315   6.994   5.737  0.3885  1.0113 -0.0616
    2MOL0     C  173   9.439   7.002   5.834  0.1755  0.4977  0.0322
    2MOL0     C  174   9.506   6.857   5.832 -0.1604  0.1314  0.6123
    2MOL0     C  175   9.656   6.849   5.886  0.9353  0.0530 -0.8172
    2MOL0     C  176   9.663   6.879   6.035 -0.3690 -0.4951 -0.0427
    2MOL0     C  177   9.802   6.852   6.100  0.5749 -0.5051  0.5170
    2MOL0     C  178   9.857   6.712   6.059  0.4191  0.4680 -1.0657
    2MOL0    Cl  179  10.015   6.683   6.126  0.2097  0.0255 -0.3111
    2MOL0     C  180   8.955   6.774   5.845  0.4639 -1.1639 -0.3874
    2MOL0     C  181   8.813   6.768   5.863 -0.6602 -1.1722 -0.0011
    2MOL0     O  182   8.607   6.939   5.770  0.6293  0.1467 -0.6267
    2MOL0     C  183   8.357   6.873   5.736  0.6103  0.2679  0.0554
    2MOL0     C  184   8.213   6.869   5.724 -0.1538  0.6847 -0.6367
    2MOL0     N  185   7.632   6.354   5.609 -0.7124  0.6526  0.1228
    2MOL0     N  186   7.652   6.312   5.488 -0.5887 -0.2115 -0.2853
    2MOL0     C  187   8.784   6.469   5.590  0.0319  0.0530 -0.5491
    2MOL0     C  188   8.921   6.479   5.624  0.9274  0.0491  0.7859
    2MOL0     C  189   9.363   6.453   5.618  0.1508  0.3087 -0.1537
    2MOL0     C  190   9.414   6.571   5.557  0.6136 -0.3372  0.1206
    2MOL0     C  191   9.538   6.617   5.578  0.1335  0.7657 -0.1487
    2MOL0     C  192   9.633   6.534   5.641 -0.1164  0.1008  0.6783
    2MOL0     O  193   9.761   6.589   5.644  0.2402 -0.3757  0.2669
    2MOL0     C  194   9.864   6.504   5.708 -0.5730 -0.6595  0.8717
    2MOL0     C  195   9.998   6.580   5.699 -0.7684  0.3708 -0.1629
    2MOL0     C  196  10.107   6.495   5.624 -0.3204  1.0216  0.7638
    2MOL0     C  197  10.068   6.459   5.477 -0.1197 -0.1399 -0.8098
    2MOL0     C  198  10.050   6.575   5.385  0.0977  1.0344  0.3568
    2MOL0     C  199  10.012   6.658   5.307 -0.2463 -0.4702 -1.1112
    2MOL0     C  200   9.589   6.415   5.702  0.7121 -0.0657  0.2617
    2MOL0     C  201   9.449   6.375   5.693  0.0961 -0.1250 -1.2328
    2MOL0     C  202   9.409   6.252   5.765 -0.1371  0.2839  0.4949
    2MOL0     H  203   9.043   6.523   5.314  2.3272  2.7664  2.4137
    2MOL0     H  204   8.795   6.519   5.254  0.9021 -3.9613 -1.5031
    2MOL0     H  205   8.510   6.456   5.607  1.8612  2.5785  1.9859
    2MOL0     H  206   8.510   6.622   5.564 -1.4913  1.8262 -3.4052
    2MOL0     H  207   8.289   6.541   5.520  1.4798 -0.1835  2.5994
    2MOL0     H  208   8.357   6.397   5.446 -1.0465  0.3720 -1.5268
    2MOL0     H  209   8.410   6.502   5.239 -0.0434  0.6477 -2.7609
    2MOL0     H  210   8.394   6.665   5.304  0.7115 -1.0186 -2.0957
    2MOL0     H  211   8.152   6.660   5.296 -1.5062 -1.5398  2.5262
    2MOL0     H  212   8.219   6.611   5.143 -0.8138  2.0358 -0.3039
    2MOL0     H  213   8.150   6.399   5.143 -0.2418 -3.4316  1.0095
    2MOL0     H  214   8.165   6.379   5.315  2.8432  0.9819  0.2139
    2MOL0     H  215   7.966   6.544   5.326 -1.5826 -0.1849 -0.4628
    2MOL0     H  216   7.952   6.543   5.154  0.9127  3.1361  2.0115
    2MOL0     H  217   7.931   6.311   5.355 -0.7497 -1.3250 -0.9331
    2MOL0     H  218   7.917   6.300   5.175  1.8901 -0.3861 -0.4745
    2MOL0     H  219   7.720   6.487   5.231  2.1343 -1.0235 -2.1519
    2MOL0     H  220   7.690   6.317   5.238 -2.2657  0.8851  0.5872
    2MOL0     H  221   7.789   6.602   5.487  0.4588 -1.1218 -0.4574
    2MOL0     H  222   7.591   6.623   5.744 -0.2748  1.8848  2.7181
    2MOL0     H  223   7.648   6.496   5.847  0.0617  1.1581  1.7558
    2MOL0     H  224   7.879   6.570   5.763  1.6312  0.2917  2.7106
    2MOL0     H  225   7.807   6.706   5.676  0.9742  1.0574  0.8137
    2MOL0     H  226   7.771   6.646   5.973  0.8986 -1.5331 -1.1821
    2MOL0     H  227   7.718   6.798   5.892  0.7387  1.0532  0.4907
    2MOL0     H  228   8.005   6.677   5.922  2.5500  2.0730  1.2089
    2MOL0     H  229   7.947   6.801   6.032 -1.7635  1.7400  0.3845
    2MOL0     H  230   8.150   6.881   6.072 -1.9328 -0.5332 -1.5349
    2MOL0     H  231   8.385   6.887   6.084  1.0168  1.1783 -0.1841
    2MOL0     H  232   8.785   6.987   6.122  1.5761  1.6265 -0.5090
    2MOL0     H  233   9.010   7.021   6.058 -1.5201 -1.5576  2.5754
    2MOL0     H  234   9.258   6.785   5.759 -0.3790  0.0399 -0.6068
    2MOL0     H  235   9.128   6.898   5.696  0.3964 -0.1395 -0.9429
    2MOL0     H  236   9.361   6.970   5.641 -0.5274 -1.5479  0.0645
    2MOL0     H  237   9.273   7.094   5.744 -0.5495  0.8239 -2.2811
    2MOL0     H  238   9.512   7.069   5.788 -0.4191  0.2864 -1.2765
    2MOL0     H  239   9.419   7.031   5.938  3.4919 -1.5720  1.4069
    2MOL0     H  240   9.509   6.834   5.725  1.7816  0.7916  0.4911
    2MOL0     H  241   9.432   6.800   5.889 -0.4722  1.8247  1.9828
    2MOL0     H  242   9.722   6.915   5.828  0.5131  1.2630  0.0228
    2MOL0     H  243   9.687   6.745   5.876 -2.2952 -1.3850  1.9923
    2MOL0     H  244   9.642   6.985   6.056  0.6701  0.2928 -2.5899
    2MOL0     H  245   9.600   6.807   6.088 -0.3598 -0.8075 -0.4505
    2MOL0     H  246   9.789   6.864   6.208 -0.0929  3.0275  0.1423
    2MOL0     H  247   9.871   6.932   6.073 -0.6594  0.3665 -0.1475
    2MOL0     H  248   9.784   6.633   6.079 -1.3260  1.6914 -2.2785
    2MOL0     H  249   9.871   6.716   5.950 -0.4658 -0.4085 -1.2253
    2MOL0     H  250   8.982   6.711   5.761 -3.0427  0.5239 -3.0313
    2MOL0     H  251   8.744   6.709   5.804 -1.3890  1.0652 -1.5120
    2MOL0     H  252   8.414   6.873   5.643 -2.5533  1.1578 -2.0537
    2MOL0     H  253   8.171   6.870   5.624 -0.3405  1.8044 -0.5534
    2MOL0     H  254   8.713   6.450   5.671 -1.0529 -1.9753 -1.8981
    2MOL0     H  255   8.958   6.481   5.726  0.4092  0.4432  0.9735
    2MOL0     H  256   9.344   6.630   5.498  1.1549  3.4416  2.9054
    2MOL0     H  257   9.582   6.702   5.528  2.2727 -0.7246 -0.9645
    2MOL0     H  258   9.869   6.407   5.659  0.3094  1.5061 -3.8093
    2MOL0     H  259   9.837   6.488   5.813 -1.3101 -0.1672  0.7651
    2MOL0     H  260  10.046   6.594   5.797  0.7447 -1.1739 -0.6219
    2MOL0     H  261   9.986   6.679   5.655 -1.6331  0.0657 -0.6265
    2MOL0     H  262  10.135   6.405   5.679 -0.5323  1.2889  1.3264
    2MOL0     H  263  10.203   6.546   5.617 -0.5183  1.2569 -0.3474
    2MOL0     H  264  10.154   6.401   5.442  1.4625  1.5081  0.1452
    2MOL0     H  265   9.984   6.391   5.464  0.5799 -0.9822 -1.0546
    2MOL0     H  266   9.982   6.723   5.228  0.9989 -2.4894 -3.3661
    2MOL0     H  267   9.660   6.356   5.759  0.6273  2.7091  3.6043
    2MOL0     H  268   9.489   6.195   5.813  1.4652  1.8564 -0.2097
    2MOL0     H  269   9.337   6.283   5.841 -2.3535 -1.7108 -0.6542
    2MOL0     H  270   9.354   6.182   5.700 -0.6285  0.8063  0.3444
    3MOL0     O  271   1.799   0.056   9.845 -0.0345  0.3655 -0.4545
    3MOL0     C  272   1.843   0.046   9.729  0.7708 -0.5232 -0.1981
    3MOL0     O  273   1.878  -0.073   9.663 -0.4712 -0.0386 -0.3705
    3MOL0     C  274   1.857  -0.190   9.745  0.0623  0.4008 -0.0348
    3MOL0     C  275   1.925  -0.230   9.856  1.1465  0.0457  0.7646
    3MOL0     C  276   1.901  -0.347   9.923 -0.0796  0.2192 -0.0546
    3MOL0     C  277   1.807  -0.431   9.884 -0.4204 -0.1648  0.0393
    3MOL0     O  278   1.768  -0.528   9.977  0.5433  0.7146  0.3470
    3MOL0     C  279   1.640  -0.594   9.961 -0.2200  0.1307  0.8975
    3MOL0     C  280   1.620  -0.697  10.069 -0.1767 -0.4963  0.7414
    3MOL0     C  281   1.491  -0.682  10.145  0.0985 -0.8416  0.0759
    3MOL0     C  282   1.475  -0.811  10.236 -1.2463 -0.3107  0.1778
    3MOL0     C  283   1.443  -0.774  10.382  0.5727  0.4966  0.3173
    3MOL0     C  284   1.417  -0.915  10.440  0.6017  0.0088 -0.4240
    3MOL0     C  285   1.350  -0.910  10.582 -0.6619  1.2432  0.0380
    3MOL0     C  286   1.428  -0.813  10.665 -0.5168 -0.2813 -0.8866
    3MOL0     N  287   1.373  -0.793  10.802  0.0485 -0.5956  0.2178
    3MOL0     C  288   1.264  -0.714  10.832 -0.7021 -0.5166 -1.0157
    3MOL0     C  289   1.265  -0.711  10.971 -0.3254  0.3760  0.6280
    3MOL0     C  290   1.178  -0.634  11.061 -0.0816 -0.0843 -1.0547
    3MOL0     C  291   1.077  -0.708  11.149 -0.7417 -0.3517 -0.0391
    3MOL0     C  292   1.047  -0.608  11.264  0.2461 -0.3093 -0.4248
    3MOL0     C  293   0.935  -0.665  11.354 -0.6983 -0.5629  0.8991
    3MOL0     O  294   0.870  -0.558  11.426  0.0516  0.3340 -0.5514
    3MOL0     C  295   0.918  -0.520  11.544 -0.1497 -0.4644 -0.9473
    3MOL0     C  296   0.908  -0.616  11.645  0.8887  0.3659 -0.4381
    3MOL0     C  297   0.940  -0.579  11.775  0.7807 -0.6353  0.1505
    3MOL0     C  298   0.978  -0.440  11.791  1.1883 -0.5852 -0.0275
    3MOL0     C  299   1.008  -0.379  11.926 -0.5674 -0.8870 -0.0301
    3MOL0     O  300   1.052  -0.459  12.027 -0.7726 -0.3328 -0.2183
    3MOL0     C  301   1.088  -0.401  12.153  0.3455  0.2912  0.5279
    3MOL0     C  302   1.220  -0.364  12.187  0.7522 -0.3010  0.5134
    3MOL0     C  303   1.247  -0.294  12.303  0.0463  0.3249 -1.2368
    3MOL0     C  304   1.136  -0.259  12.386 -0.3917 -0.3967  0.0661
    3MOL0     O  305   1.161  -0.197  12.509 -0.2767 -0.0647  0.0280
    3MOL0     C  306   1.120  -0.284  12.614  0.4598 -0.8102 -0.5175
    3MOL0     C  307   1.061  -0.207  12.733 -0.5754 -0.0246 -0.9365
    3MOL0     C  308   1.097  -0.051  12.737  0.1600  0.7645  0.4297
    3MOL0     C  309   1.044   0.003  12.873 -0.5093 -0.9101 -0.1592
    3MOL0     C  310   1.050   0.154  12.871  0.3145  0.1730  0.0683
    3MOL0     C  311   0.969   0.232  12.769  0.5851 -0.3797  0.0217
    3MOL0     C  312   0.815   0.202  12.790  0.3250 -0.8245 -0.3097
    3MOL0     C  313   0.732   0.274  12.684 -0.9582  0.0153  0.4027
    3MOL0    Cl  314   0.755   0.446  12.685  0.0009 -0.3237  0.1222
    3MOL0     C  315   1.003  -0.295  12.347 -0.0748 -1.2526  0.5238
    3MOL0     C  316   0.978  -0.360  12.226  0.4936 -0.5426 -0.7774
    3MOL0     O  317   1.017  -0.256  11.934  0.5301 -0.6429 -0.1150
    3MOL0     C  318   1.002  -0.355  11.685  0.6248 -1.0032  0.3270
    3MOL0     C  319   0.972  -0.395  11.558  0.1135  0.0853  0.5564
    3MOL0     N  320   1.376  -0.784  11.006 -0.0307 -0.2143 -0.2193
    3MOL0     N  321   1.439  -0.826  10.910 -0.7089 -0.0268 -0.3696
    3MOL0     C  322   1.733  -0.402   9.763 -0.0146  0.6155 -0.0997
    3MOL0     C  323   1.758  -0.285   9.695 -0.4189 -0.0827 -0.3193
    3MOL0     C  324   1.838   0.174   9.648  0.5062  0.4837  0.3126
    3MOL0     C  325   1.758   0.286   9.700  0.2978 -0.1722 -1.0186
    3MOL0     C  326   1.753   0.408   9.631  0.3039 -0.3008 -0.5213
    3MOL0     C  327   1.845   0.437   9.530 -0.0235 -0.4351  0.3158
    3MOL0     O  328   1.862   0.557   9.459 -0.3828 -0.0546  0.0564
    3MOL0     C  329   1.811   0.666   9.522  0.1437 -0.1753  0.2141
    3MOL0     C  330   1.826   0.801   9.443  0.2008  0.2403  0.3656
    3MOL0     C  331   1.756   0.821   9.304  0.0998  1.0733  0.0666
    3MOL0     C  332   1.658   0.704   9.269  0.2453 -0.1340  0.3832
    3MOL0     C  333   1.606   0.722   9.135 -0.0912 -0.3314  0.5779
    3MOL0     C  334   1.567   0.721   9.023  0.2650 -0.0512 -0.6849
    3MOL0     C  335   1.929   0.334   9.489 -0.9303 -0.3890  0.6625
    3MOL0     C  336   1.931   0.201   9.535 -0.4260  0.4902  1.6519
    3MOL0     C  337   2.027   0.104   9.480  0.6165 -0.0077  0.7614
    3MOL0     H  338   2.005  -0.164   9.889  1.4310 -0.2597  0.6846
    3MOL0     H  339   1.940  -0.371  10.022  0.8414 -3.8151 -1.2261
    3MOL0     H  340   1.563  -0.516   9.953  0.5028  0.7349 -5.6005
    3MOL0     H  341   1.640  -0.646   9.865 -1.2298  0.2459  0.8257
    3MOL0     H  342   1.704  -0.708  10.139 -0.8318 -0.5331  1.5404
    3MOL0     H  343   1.603  -0.792  10.017 -2.8052 -0.1722  0.8895
    3MOL0     H  344   1.405  -0.676  10.077 -0.3932  1.6264  0.7806
    3MOL0     H  345   1.486  -0.589  10.203 -1.2010 -2.6017  2.9989
    3MOL0     H  346   1.396  -0.869  10.187 -0.2510 -0.0014 -1.8825
    3MOL0     H  347   1.566  -0.872  10.238  1.1718  3.0124 -0.0762
    3MOL0     H  348   1.526  -0.734  10.441 -0.1732  2.0985  0.3337
    3MOL0     H  349   1.357  -0.706  10.388  0.4444  0.4413 -0.6614
    3MOL0     H  350   1.357  -0.970  10.368  0.3320 -2.3310  1.4829
    3MOL0     H  351   1.513  -0.967  10.441  0.4382 -0.3154 -1.0761
    3MOL0     H  352   1.357  -1.005  10.635 -1.6242  0.5632 -1.0029
    3MOL0     H  353   1.247  -0.876  10.569 -1.4983 -0.9018  0.6305
    3MOL0     H  354   1.530  -0.850  10.677  0.4685  1.9777 -1.7295
    3MOL0     H  355   1.419  -0.712  10.622 -3.5978 -0.1757 -0.2216
    3MOL0     H  356   1.203  -0.655  10.765 -2.2385 -1.5185 -0.5323
    3MOL0     H  357   1.241  -0.567  11.120  1.7070 -0.3119 -2.6246
    3MOL0     H  358   1.133  -0.559  10.994  2.1015 -0.4277 -3.0256
    3MOL0     H  359   0.991  -0.712  11.081 -1.2165 -0.6222  0.5619
    3MOL0     H  360   1.104  -0.811  11.174 -2.9151 -1.4862 -1.9540
    3MOL0     H  361   1.007  -0.518  11.218 -0.1919  0.7750  1.9054
    3MOL0     H  362   1.132  -0.576  11.326  1.2026 -1.8343 -0.8961
    3MOL0     H  363   0.983  -0.741  11.417  2.5970 -1.3372 -2.1795
    3MOL0     H  364   0.863  -0.725  11.298  0.2636 -0.4931 -0.4809
    3MOL0     H  365   0.869  -0.717  11.632  0.9263  0.1978  0.6143
    3MOL0     H  366   0.930  -0.648  11.858 -2.2456 -0.6212 -0.1132
    3MOL0     H  367   1.306  -0.403  12.133  0.5938 -0.6095  0.4776
    3MOL0     H  368   1.346  -0.282  12.347 -0.4618  0.7577 -0.1798
    3MOL0     H  369   1.045  -0.355  12.579 -0.1621 -0.9713  1.0494
    3MOL0     H  370   1.199  -0.351  12.648  1.9637  0.7244 -0.8817
    3MOL0     H  371   0.952  -0.209  12.730 -0.8223 -1.2255  3.1748
    3MOL0     H  372   1.097  -0.238  12.832 -2.3736  1.3669  0.2244
    3MOL0     H  373   1.206  -0.042  12.725  0.4332 -0.4324  1.7566
    3MOL0     H  374   1.033  -0.020  12.654 -3.2981 -1.1896  2.1486
    3MOL0     H  375   1.099  -0.046  12.953  0.0718 -2.2041 -1.2996
    3MOL0     H  376   0.942  -0.024  12.902  0.1032 -2.1469  0.9515
    3MOL0     H  377   1.146   0.194  12.838 -1.4207  1.2878 -4.2333
    3MOL0     H  378   1.021   0.206  12.963 -0.5488 -0.8903  0.4242
    3MOL0     H  379   1.001   0.334  12.792 -0.6424 -0.0341  0.2598
    3MOL0     H  380   0.998   0.205  12.667 -1.0988 -3.4807  0.2280
    3MOL0     H  381   0.789   0.242  12.889  0.3687  0.3590 -0.7557
    3MOL0     H  382   0.802   0.094  12.797  1.0540 -1.0947 -2.4770
    3MOL0     H  383   0.760   0.227  12.590  1.3421 -0.2062  1.1257
    3MOL0     H  384   0.627   0.256  12.711 -0.6404 -2.0273  0.4364
    3MOL0     H  385   0.912  -0.262  12.398 -0.4283 -1.2485 -0.1060
    3MOL0     H  386   0.874  -0.375  12.201  1.1898 -2.3021 -2.9052
    3MOL0     H  387   1.048  -0.257  11.692  1.8846 -1.3336 -2.2303
    3MOL0     H  388   0.989  -0.326  11.476 -2.6902  2.3891  1.6899
    3MOL0     H  389   1.657  -0.469   9.725  1.7428 -1.8161  0.4232
    3MOL0     H  390   1.695  -0.299   9.607 -2.1052 -2.8650  1.1870
    3MOL0     H  391   1.686   0.261   9.778  0.1909 -1.3450 -1.4656
    3MOL0     H  392   1.698   0.492   9.671  0.5544 -0.2394 -0.3014
    3MOL0     H  393   1.870   0.693   9.609  1.6307  0.9762 -1.0821
    3MOL0     H  394   1.709   0.659   9.559  0.4600  0.6489  1.2790
    3MOL0     H  395   1.931   0.828   9.437 -0.3131  2.3176 -0.0395
    3MOL0     H  396   1.790   0.882   9.507  1.5946 -1.2317  3.1858
    3MOL0     H  397   1.829   0.827   9.222 -1.1496 -2.9848 -1.6327
    3MOL0     H  398   1.706   0.918   9.302 -0.0256  1.0352  0.9600
    3MOL0     H  399   1.710   0.607   9.273  1.3437  0.4541  0.5531
    3MOL0     H  400   1.567   0.704   9.330 -1.2286  0.4272 -1.6904
    3MOL0     H  401   1.533   0.708   8.922 -0.6219 -3.0390 -0.1160
    3MOL0     H  402   1.996   0.361   9.408 -3.3055  1.4283 -0.8275
    3MOL0     H  403   2.081   0.056   9.563 -0.8403 -1.3685  0.9837
    3MOL0     H  404   1.983   0.018   9.429  1.4903  0.2688 -0.4999
    3MOL0     H  405   2.091   0.162   9.413  1.0209  0.7957  1.8217
    4MOL0     O  406   9.175   2.240   9.866  0.4681 -0.0541  0.0710
    4MOL0     C  407   9.190   2.119   9.879  0.5845  0.0076 -0.1590
    4MOL0     O  408   9.286   2.064   9.951  0.1485  0.5062  0.3621
    4MOL0     C  409   9.327   2.122  10.062 -0.4138 -0.3137  0.0596
    4MOL0     C  410   9.452   2.177  10.047 -0.8253  0.2571 -0.3552
    4MOL0     C  411   9.523   2.234  10.158 -0.5784 -0.2105  1.0225
    4MOL0     C  412   9.451   2.263  10.272  0.8581  1.1755  0.8268
    4MOL0     O  413   9.499   2.338  10.366  0.4969  0.8276  0.7762
    4MOL0     C  414   9.597   2.273  10.458 -0.2125  0.0493  0.8435
    4MOL0     C  415   9.737   2.302  10.402  0.8656 -0.0462 -0.6172
    4MOL0     C  416   9.837   2.278  10.511 -0.3390  0.2023 -0.1451
    4MOL0     C  417   9.972   2.333  10.471 -0.0440 -0.7567  0.1966
    4MOL0     C  418  10.085   2.304  10.569 -1.0762  0.2944  0.2194
    4MOL0     C  419  10.122   2.153  10.588 -0.5207  0.6971 -0.5750
    4MOL0     C  420  10.230   2.133  10.695  0.4173  0.3897 -0.5821
    4MOL0     C  421  10.254   1.980  10.718  0.6708  0.0422  0.2344
    4MOL0     N  422  10.326   1.945  10.837 -0.2677 -0.4493 -0.5064
    4MOL0     C  423  10.313   2.007  10.960 -0.3323  0.1116 -0.0996
    4MOL0     C  424  10.425   1.975  11.027 -0.3365  0.3319  0.6403
    4MOL0     C  425  10.457   1.990  11.170  0.6143 -0.5950  0.2026
    4MOL0     C  426  10.455   1.864  11.261 -0.2236 -0.2936  0.5681
    4MOL0     C  427  10.497   1.928  11.397 -0.4833  0.1223  0.0468
    4MOL0     C  428  10.461   1.820  11.495 -0.0405  0.5549  0.2088
    4MOL0     O  429  10.315   1.795  11.499  0.2479  0.1388  0.0201
    4MOL0     C  430  10.268   1.707  11.595 -0.3622  0.0618  0.1365
    4MOL0     C  431  10.130   1.675  11.575  0.6701 -1.0783  0.1436
    4MOL0     C  432  10.071   1.589  11.661  0.3244 -0.3219 -0.0791
    4MOL0     C  433  10.126   1.532  11.773 -1.4509 -0.0718  0.1894
    4MOL0     C  434  10.059   1.444  11.875 -0.3164 -0.5513 -0.9181
    4MOL0     O  435  10.135   1.365  11.943  0.1462  0.3867 -0.1710
    4MOL0     C  436  10.098   1.235  11.980 -0.4378 -0.6032 -0.4966
    4MOL0     C  437   9.995   1.163  11.920  0.2507 -1.1129 -0.3948
    4MOL0     C  438   9.971   1.034  11.956 -0.7263 -0.7784  0.3674
    4MOL0     C  439  10.052   0.968  12.044 -0.1284 -0.5047 -0.3736
    4MOL0     O  440  10.061   0.831  12.081  0.1825  0.2047  0.0839
    4MOL0     C  441   9.975   0.740  12.012  0.7345  0.3304 -0.2201
    4MOL0     C  442  10.027   0.706  11.873 -0.6357 -0.3378 -0.6074
    4MOL0     C  443   9.939   0.591  11.818 -0.1310 -1.3750  0.3133
    4MOL0     C  444   9.935   0.597  11.658 -0.1914 -0.0240 -0.2719
    4MOL0     C  445   9.850   0.479  11.607  0.5621 -0.4507 -0.1354
    4MOL0     C  446   9.859   0.459  11.456  0.0985  0.1571 -0.2222
    4MOL0     C  447   9.835   0.313  11.423  0.1197 -0.3741  0.2081
    4MOL0     C  448   9.919   0.265  11.309 -0.2127  1.2192 -0.4374
    4MOL0    Cl  449   9.887   0.093  11.301 -0.1857 -0.7396 -0.3567
    4MOL0     C  450  10.143   1.041  12.115 -1.7003  0.5533 -0.4923
    4MOL0     C  451  10.163   1.172  12.083 -0.1902  0.0328 -0.3480
    4MOL0     O  452   9.934   1.443  11.870  0.4603 -0.1521 -0.0010
    4MOL0     C  453  10.267   1.562  11.791  0.8805 -0.5203 -0.5061
    4MOL0     C  454  10.334   1.649  11.701 -0.0449 -0.4594  0.2673
    4MOL0     N  455  10.519   1.921  10.929  0.2683 -0.5365 -0.4120
    4MOL0     N  456  10.451   1.890  10.828  0.4227 -0.4676  0.3555
    4MOL0     C  457   9.325   2.208  10.294  0.8161  0.5613 -0.3393
    4MOL0     C  458   9.262   2.130  10.188 -0.5978 -0.7485 -0.0495
    4MOL0     C  459   9.090   2.034   9.816  0.4945  1.0810  0.4824
    4MOL0     C  460   8.994   2.097   9.731 -0.2240  0.3648  0.1242
    4MOL0     C  461   8.887   2.033   9.659 -0.5957 -0.5684  0.0619
    4MOL0     C  462   8.887   1.892   9.659 -0.5112  0.1139 -0.8149
    4MOL0     O  463   8.809   1.811   9.585  0.9589 -0.0334 -0.0284
    4MOL0     C  464   8.720   1.855   9.474 -0.3657 -0.2666 -0.6193
    4MOL0     C  465   8.674   1.725   9.406 -0.5182 -0.5046 -0.2901
    4MOL0     C  466   8.584   1.656   9.495 -0.2990  0.1752  0.3767
    4MOL0     C  467   8.524   1.535   9.424 -0.4191 -0.8315 -0.9463
    4MOL0     C  468   8.615   1.431   9.366  0.0321  0.5603  0.3031
    4MOL0     C  469   8.676   1.333   9.323  0.1600  0.3227 -0.6639
    4MOL0     C  470   8.981   1.823   9.742 -0.9675 -0.4844  0.0112
    4MOL0     C  471   9.083   1.889   9.812 -0.6482 -0.1035  0.0981
    4MOL0     C  472   9.176   1.810   9.893  0.1173  0.1114 -0.1368
    4MOL0     H  473   9.502   2.182   9.950  4.4839 -3.6463  1.6963
    4MOL0     H  474   9.615   2.286  10.133  0.5251 -2.8116 -0.7414
    4MOL0     H  475   9.582   2.309  10.560 -2.2207 -2.3924  1.5197
    4MOL0     H  476   9.582   2.165  10.466  0.8176 -0.2459 -0.7679
    4MOL0     H  477   9.733   2.405  10.365  0.4786 -1.1355 -3.9817
    4MOL0     H  478   9.755   2.241  10.313 -0.9909 -3.0798  0.9321
    4MOL0     H  479   9.838   2.170  10.531 -1.8615  0.1242 -0.3579
    4MOL0     H  480   9.799   2.312  10.608 -0.4373 -1.1225  0.3079
    4MOL0     H  481   9.989   2.306  10.366  2.3821 -0.8003  0.5645
    4MOL0     H  482   9.959   2.441  10.459  0.9834 -0.6695 -0.2104
    4MOL0     H  483  10.182   2.347  10.542 -1.7837  2.8477  1.4664
    4MOL0     H  484  10.056   2.337  10.669 -0.9661  1.4731 -0.1302
    4MOL0     H  485  10.034   2.091  10.611  0.4007 -0.1512  0.8278
    4MOL0     H  486  10.166   2.111  10.497 -0.0475 -0.6969  0.2627
    4MOL0     H  487  10.191   2.176  10.787  0.5540 -2.4491  0.9156
    4MOL0     H  488  10.319   2.186  10.660  1.4106 -0.8538  0.0100
    4MOL0     H  489  10.159   1.935  10.748 -0.3139  2.3211  0.7540
    4MOL0     H  490  10.298   1.933  10.629 -1.6723 -1.0289 -0.4433
    4MOL0     H  491  10.229   2.055  11.009 -1.2783 -0.2915 -1.2617
    4MOL0     H  492  10.545   2.056  11.175 -0.2638  1.2850 -4.2427
    4MOL0     H  493  10.372   2.044  11.213 -0.1563  0.3202 -2.2936
    4MOL0     H  494  10.367   1.800  11.264  0.5824 -1.7923 -2.9921
    4MOL0     H  495  10.530   1.793  11.225 -1.2094 -2.1726  2.0233
    4MOL0     H  496  10.439   2.019  11.419  0.6117  1.4989 -2.3449
    4MOL0     H  497  10.603   1.953  11.404 -0.6601  1.5877 -1.7317
    4MOL0     H  498  10.470   1.853  11.599 -0.1305 -1.2601  0.8401
    4MOL0     H  499  10.519   1.727  11.490 -1.9776 -0.7877  1.1007
    4MOL0     H  500  10.085   1.727  11.491  1.4555  1.3943  1.1731
    4MOL0     H  501   9.965   1.574  11.643  0.4059 -0.7428 -0.2317
    4MOL0     H  502   9.947   1.198  11.829 -0.8978 -2.2453 -0.2451
    4MOL0     H  503   9.888   0.982  11.907 -0.5093  0.9051 -1.9975
    4MOL0     H  504   9.965   0.649  12.072  1.7260  0.0458 -0.4727
    4MOL0     H  505   9.875   0.782  12.000  2.1479  3.8858 -0.8210
    4MOL0     H  506  10.034   0.792  11.805  0.6656  0.0944  0.0372
    4MOL0     H  507  10.130   0.672  11.887 -1.2100 -0.9589  3.1285
    4MOL0     H  508   9.966   0.489  11.846  2.0058 -1.3541 -1.4016
    4MOL0     H  509   9.838   0.607  11.856  0.1510  3.3455 -0.2964
    4MOL0     H  510  10.040   0.583  11.628  0.2467  2.2029  0.0401
    4MOL0     H  511   9.912   0.698  11.624 -1.3746  0.1031  0.8180
    4MOL0     H  512   9.746   0.492  11.641  0.8167  0.0695  0.4734
    4MOL0     H  513   9.884   0.390  11.661  2.7368  1.4121  1.7680
    4MOL0     H  514   9.799   0.534  11.404 -0.5057  0.9315  1.5178
    4MOL0     H  515   9.965   0.465  11.431 -0.2288  1.3029 -1.3925
    4MOL0     H  516   9.728   0.290  11.412  0.4476 -1.5612 -0.8509
    4MOL0     H  517   9.859   0.254  11.512 -1.2348  0.0100  0.8412
    4MOL0     H  518   9.899   0.304  11.209  1.7868 -0.2240 -1.4635
    4MOL0     H  519  10.027   0.265  11.329 -0.1057 -0.1725 -0.8728
    4MOL0     H  520  10.198   0.985  12.189 -0.3411  3.2629  0.6931
    4MOL0     H  521  10.247   1.221  12.132  0.0470  1.8926 -2.4298
    4MOL0     H  522  10.334   1.529  11.870  0.1794 -2.1773 -0.5594
    4MOL0     H  523  10.440   1.667  11.718 -0.4306  1.0939  1.1143
    4MOL0     H  524   9.286   2.230  10.393  1.5243 -0.7306  0.2495
    4MOL0     H  525   9.164   2.084  10.197 -1.4277  0.7166 -1.1892
    4MOL0     H  526   9.004   2.203   9.710 -0.2547  0.1535 -1.0487
    4MOL0     H  527   8.816   2.096   9.607  1.2964 -0.0599 -2.0428
    4MOL0     H  528   8.788   1.909   9.407  1.1620 -3.6345 -1.9960
    4MOL0     H  529   8.633   1.916   9.501  0.0096  0.1850 -0.4106
    4MOL0     H  530   8.763   1.663   9.390 -2.0162 -2.3844 -1.9200
    4MOL0     H  531   8.629   1.747   9.308 -4.3696 -0.5438  1.3058
    4MOL0     H  532   8.511   1.725   9.539  1.7539  1.5395  1.8099
    4MOL0     H  533   8.636   1.612   9.579 -0.2416 -1.7863 -0.6400
    4MOL0     H  534   8.456   1.487   9.495 -2.3876 -0.0006 -2.1954
    4MOL0     H  535   8.468   1.573   9.339  1.8107 -0.6025 -2.3898
    4MOL0     H  536   8.698   1.229   9.305  0.8398  0.6177 -1.6503
    4MOL0     H  537   8.970   1.715   9.735 -0.7584 -0.3955 -2.2688
    4MOL0     H  538   9.152   1.703   9.884 -2.1972  0.6969 -2.2049
    4MOL0     H  539   9.270   1.823   9.839  1.5325  1.8095  2.5340
    4MOL0     H  540   9.187   1.847   9.995  1.3199  1.9517 -0.8918
    5MOL0     O  541   7.042   2.156   4.241 -0.1779  0.7164  0.0801
    5MOL0     C  542   7.060   2.169   4.124 -0.9482  0.3275 -0.2147
    5MOL0     O  543   7.042   2.064   4.035 -0.1225 -0.2025 -0.1576
    5MOL0     C  544   7.012   1.937   4.064  0.3163  0.1295 -0.7696
    5MOL0     C  545   6.930   1.869   3.979 -0.3996  0.0907 -0.0258
    5MOL0     C  546   6.912   1.730   3.996 -0.2301  0.1870  0.1647
    5MOL0     C  547   6.988   1.652   4.086 -0.2777  0.2935 -0.5637
    5MOL0     O  548   6.978   1.520   4.101  0.4682  0.2416  0.5327
    5MOL0     C  549   6.853   1.450   4.084  0.2171 -0.1663 -1.0851
    5MOL0     C  550   6.897   1.316   4.013 -0.1778 -0.2261  0.3302
    5MOL0     C  551   6.794   1.214   4.050 -0.5326  1.2620  0.3657
    5MOL0     C  552   6.798   1.098   3.940  0.9512  0.0365 -0.4940
    5MOL0     C  553   6.660   1.029   3.933  0.2606 -0.3075  0.3839
    5MOL0     C  554   6.654   0.900   3.838 -0.2699 -0.2794 -0.2377
    5MOL0     C  555   6.517   0.824   3.848 -0.6699  0.3191  0.2502
    5MOL0     C  556   6.430   0.843   3.718  0.3488  0.2970 -0.3710
    5MOL0     N  557   6.504   0.775   3.607  0.3240  0.1031  0.2790
    5MOL0     C  558   6.504   0.645   3.566 -0.1041 -0.5775  0.6768
    5MOL0     C  559   6.586   0.635   3.455  0.6006 -0.4748  0.2556
    5MOL0     C  560   6.632   0.510   3.379  0.0151 -0.2669 -0.5386
    5MOL0     C  561   6.697   0.530   3.238  0.7318  0.3393  0.1859
    5MOL0     C  562   6.584   0.551   3.133 -0.0040  0.2006 -0.6598
    5MOL0     C  563   6.651   0.599   3.009 -1.2524  0.2096  0.3374
    5MOL0     O  564   6.554   0.659   2.918 -0.4084 -0.4152 -0.6495
    5MOL0     C  565   6.584   0.689   2.794 -0.9345 -0.3376  0.2041
    5MOL0     C  566   6.707   0.668   2.735  0.1007 -0.8815  0.5155
    5MOL0     C  567   6.738   0.711   2.608  0.2088  0.0999 -0.2995
    5MOL0     C  568   6.642   0.782   2.533 -0.0900  0.3145  0.3158
    5MOL0     C  569   6.670   0.836   2.392 -0.2025 -0.5168 -0.4770
    5MOL0     O  570   6.787   0.799   2.336 -0.1240 -0.1084  0.8896
    5MOL0     C  571   6.845   0.880   2.242 -0.2329 -0.4873  1.4717
    5MOL0     C  572   6.791   0.988   2.158 -0.1180  0.0897 -0.4556
    5MOL0     C  573   6.873   1.042   2.058 -0.1967 -0.0255  0.3153
    5MOL0     C  574   7.006   0.997   2.027 -0.2204 -0.0560  0.0363
    5MOL0     O  575   7.083   1.061   1.936  0.0357 -0.1976  0.5662
    5MOL0     C  576   7.219   1.023   1.925  0.0262 -0.2736  0.2614
    5MOL0     C  577   7.282   1.097   1.815  0.0251 -1.3971  1.5204
    5MOL0     C  578   7.229   1.044   1.674 -0.9327  0.4606  0.5719
    5MOL0     C  579   7.114   1.136   1.622 -0.3632  0.0648 -0.4610
    5MOL0     C  580   7.147   1.261   1.529  0.1122  0.3303 -0.4608
    5MOL0     C  581   7.266   1.355   1.569 -0.7644 -0.6202  0.0248
    5MOL0     C  582   7.309   1.465   1.467  0.1198 -0.6432 -0.0843
    5MOL0     C  583   7.458   1.491   1.478 -0.3680 -0.3144 -0.5071
    5MOL0    Cl  584   7.547   1.348   1.418  0.2390  0.0711 -0.0395
    5MOL0     C  585   7.047   0.889   2.107 -0.2442  0.6694  0.4444
    5MOL0     C  586   6.970   0.834   2.206  0.0584 -0.4070  0.8319
    5MOL0     O  587   6.586   0.904   2.325  0.6635 -0.4756  0.3600
    5MOL0     C  588   6.521   0.814   2.592 -0.3072  0.8719  0.0317
    5MOL0     C  589   6.490   0.756   2.720 -0.3600 -0.2217 -0.0314
    5MOL0     N  590   6.632   0.761   3.421  0.4808 -1.0435  0.1416
    5MOL0     N  591   6.588   0.842   3.513  1.4127  0.8188  0.7486
    5MOL0     C  592   7.079   1.721   4.169  0.0827 -0.1613 -0.2434
    5MOL0     C  593   7.083   1.858   4.161 -0.0205 -0.6497  0.0739
    5MOL0     C  594   7.094   2.297   4.069  0.8372 -0.5073 -0.2991
    5MOL0     C  595   7.144   2.298   3.936  0.4204  0.1507 -0.4012
    5MOL0     C  596   7.182   2.413   3.876 -0.8262  0.6590  0.1801
    5MOL0     C  597   7.197   2.537   3.939 -0.4736 -0.4213 -0.6538
    5MOL0     O  598   7.255   2.647   3.883  0.3945 -0.4978 -0.3918
    5MOL0     C  599   7.291   2.764   3.967  0.3852 -0.4255  0.6275
    5MOL0     C  600   7.415   2.732   4.054 -0.1099  0.5505 -0.2739
    5MOL0     C  601   7.552   2.752   3.980 -0.3263 -0.4327  0.5047
    5MOL0     C  602   7.597   2.619   3.920  0.2734 -0.5887  0.6189
    5MOL0     C  603   7.717   2.639   3.830 -0.0339 -0.9360  0.8517
    5MOL0     C  604   7.805   2.666   3.751 -0.0787 -0.3753  0.3983
    5MOL0     C  605   7.153   2.537   4.075 -0.5352 -0.7046 -0.9552
    5MOL0     C  606   7.106   2.417   4.145  0.1608  0.1528 -0.6496
    5MOL0     C  607   7.079   2.428   4.293 -0.1477 -0.0642  0.2082
    5MOL0     H  608   6.903   1.925   3.891  0.5844  1.9404  0.7936
    5MOL0     H  609   6.852   1.682   3.920  2.2842 -0.7319 -1.3579
    5MOL0     H  610   6.799   1.438   4.178 -2.6192  2.5734 -2.2171
    5MOL0     H  611   6.784   1.494   4.011 -2.1139  1.6402  1.9466
    5MOL0     H  612   6.992   1.286   4.058 -1.4552 -1.5945  2.2820
    5MOL0     H  613   6.911   1.339   3.907  0.1675 -1.0195  0.1939
    5MOL0     H  614   6.694   1.258   4.053 -1.4958 -0.7610  0.0117
    5MOL0     H  615   6.824   1.173   4.147 -0.5035  3.8028  1.5117
    5MOL0     H  616   6.840   1.136   3.846  0.7768  0.7910 -0.2749
    5MOL0     H  617   6.879   1.035   3.978 -0.6688 -1.1162  1.2403
    5MOL0     H  618   6.634   1.000   4.035 -0.2577 -2.0681 -0.2122
    5MOL0     H  619   6.594   1.105   3.890  1.0904 -0.0621 -0.4723
    5MOL0     H  620   6.688   0.928   3.738  0.1515 -0.8056 -0.2474
    5MOL0     H  621   6.727   0.826   3.872 -1.4526 -0.7407  1.4305
    5MOL0     H  622   6.470   0.859   3.941  1.1498  1.3953  0.8085
    5MOL0     H  623   6.536   0.717   3.859  0.9017  0.6001  0.5074
    5MOL0     H  624   6.333   0.797   3.741  0.6709 -1.3824 -2.1338
    5MOL0     H  625   6.407   0.949   3.700  1.0158  0.5147  0.0234
    5MOL0     H  626   6.438   0.567   3.602 -0.6687 -0.8958 -0.9422
    5MOL0     H  627   6.697   0.450   3.444  0.0077 -0.4201 -0.6729
    5MOL0     H  628   6.545   0.444   3.379  0.1221 -0.4205 -1.4917
    5MOL0     H  629   6.761   0.618   3.243 -2.0914  2.4831  1.8643
    5MOL0     H  630   6.751   0.438   3.214 -1.1802 -0.7542 -0.1870
    5MOL0     H  631   6.514   0.629   3.165  0.8617  0.4876  0.6123
    5MOL0     H  632   6.520   0.465   3.110 -1.6670  0.7427  1.5159
    5MOL0     H  633   6.683   0.508   2.957  0.5975 -1.7405  4.4774
    5MOL0     H  634   6.744   0.657   3.015  0.9606 -3.0591 -0.0424
    5MOL0     H  635   6.779   0.610   2.793  1.4494 -0.8396 -1.0555
    5MOL0     H  636   6.838   0.694   2.569  0.5222 -3.1746  1.5833
    5MOL0     H  637   6.689   1.020   2.175 -0.1540 -1.3548  2.5987
    5MOL0     H  638   6.851   1.121   1.987  0.2135 -2.0013 -2.1327
    5MOL0     H  639   7.278   1.046   2.015  0.1464  0.7046 -0.0555
    5MOL0     H  640   7.222   0.914   1.919  2.3130 -0.2650  0.1868
    5MOL0     H  641   7.246   1.200   1.827 -0.1983 -1.5455  2.1789
    5MOL0     H  642   7.390   1.097   1.829  0.0385  1.1663  1.9420
    5MOL0     H  643   7.305   1.050   1.596  1.1224 -4.4103  1.8752
    5MOL0     H  644   7.199   0.939   1.674 -1.2056  0.5348 -0.2669
    5MOL0     H  645   7.053   1.178   1.702 -0.7489 -0.4508 -0.4784
    5MOL0     H  646   7.049   1.068   1.567  0.3623 -1.6426  0.7228
    5MOL0     H  647   7.057   1.322   1.526  0.3837  0.8417  0.9345
    5MOL0     H  648   7.170   1.211   1.435 -2.0290 -3.8229  0.9758
    5MOL0     H  649   7.235   1.411   1.658  2.6923  0.3933  0.7155
    5MOL0     H  650   7.344   1.283   1.592 -1.8414 -1.6306  0.6370
    5MOL0     H  651   7.240   1.549   1.475 -1.8964 -2.0046 -1.9293
    5MOL0     H  652   7.308   1.424   1.366  2.1831  1.3277 -0.9929
    5MOL0     H  653   7.490   1.584   1.429 -1.6153  1.4917  1.9059
    5MOL0     H  654   7.478   1.518   1.582  0.5415 -1.4179 -0.3702
    5MOL0     H  655   7.139   0.831   2.099 -0.9801 -0.3638 -0.9218
    5MOL0     H  656   7.003   0.752   2.270 -3.1468 -1.8884  0.7819
    5MOL0     H  657   6.439   0.869   2.546 -1.7228 -1.0427  0.1181
    5MOL0     H  658   6.396   0.780   2.769 -1.3846 -1.0587 -1.4829
    5MOL0     H  659   7.134   1.657   4.237 -2.3276 -1.0833  0.9627
    5MOL0     H  660   7.152   1.911   4.227  0.0625  1.2001 -1.4160
    5MOL0     H  661   7.138   2.204   3.883  0.5188 -1.5377  2.3598
    5MOL0     H  662   7.208   2.404   3.771 -1.2580  1.7053 -0.0336
    5MOL0     H  663   7.215   2.809   4.031  2.2982  0.2070  2.5694
    5MOL0     H  664   7.320   2.843   3.897  1.6433 -2.2401 -0.9923
    5MOL0     H  665   7.411   2.637   4.109  1.2141  0.2015 -0.7327
    5MOL0     H  666   7.415   2.812   4.128 -0.8683  1.9367 -1.7330
    5MOL0     H  667   7.626   2.782   4.055  0.8802 -0.6108 -0.5840
    5MOL0     H  668   7.529   2.829   3.906 -1.7723 -0.1475  1.2036
    5MOL0     H  669   7.626   2.544   3.995 -1.3135 -3.0321 -1.0551
    5MOL0     H  670   7.519   2.573   3.860  1.0040 -0.2573 -0.6304
    5MOL0     H  671   7.889   2.683   3.687  1.7942 -2.6384  2.1019
    5MOL0     H  672   7.152   2.626   4.137  0.5886 -1.6968  0.5614
    5MOL0     H  673   7.148   2.365   4.352  1.3280  1.2634 -0.0318
    5MOL0     H  674   7.105   2.531   4.318  3.0851  0.5110 -4.2273
    5MOL0     H  675   6.974   2.413   4.316 -0.6168  0.6552 -1.3259
    6MOL0     O  676   1.808   7.088  10.029 -0.6993  0.2528 -0.4908
    6MOL0     C  677   1.816   7.121  10.152 -0.1057 -0.3247  0.8244
    6MOL0     O  678   1.785   7.244  10.211 -0.8044  0.4925 -0.0362
    6MOL0     C  679   1.794   7.361  10.145 -0.2259  0.1457  0.6385
    6MOL0     C  680   1.692   7.446  10.152  0.1216  0.2768 -0.7880
    6MOL0     C  681   1.694   7.574  10.090  0.5761  0.6433 -0.4453
    6MOL0     C  682   1.814   7.617  10.034 -0.0099 -0.0875 -0.2587
    6MOL0     O  683   1.835   7.743   9.981  0.8601  0.2625 -0.3986
    6MOL0     C  684   1.718   7.801   9.928  0.6485 -0.2844 -0.8281
    6MOL0     C  685   1.738   7.950   9.881  0.2019  0.0321  0.1849
    6MOL0     C  686   1.801   7.962   9.740  0.5609 -0.4058  0.0101
    6MOL0     C  687   1.802   8.108   9.695 -0.0185  0.5795  0.6909
    6MOL0     C  688   1.675   8.160   9.635  0.0127 -0.3033  0.0986
    6MOL0     C  689   1.635   8.114   9.488  0.5308 -0.1744 -0.0381
    6MOL0     C  690   1.495   8.151   9.459 -0.5032  1.3515 -0.0064
    6MOL0     C  691   1.463   8.125   9.315 -0.4471 -0.7336  0.2257
    6MOL0     N  692   1.490   7.985   9.271 -0.2894 -0.1260  0.7070
    6MOL0     C  693   1.445   7.865   9.319 -0.5640  0.5960  0.3042
    6MOL0     C  694   1.469   7.782   9.215 -0.8724  1.0527  0.1924
    6MOL0     C  695   1.455   7.633   9.205 -0.2149 -0.0201 -0.5258
    6MOL0     C  696   1.313   7.573   9.259 -0.6334  0.1181 -0.0877
    6MOL0     C  697   1.278   7.435   9.212  0.1270  0.1724 -0.4992
    6MOL0     C  698   1.293   7.408   9.062 -0.2403  0.3888  0.4803
    6MOL0     O  699   1.235   7.283   9.016 -0.3483 -0.7262  0.0840
    6MOL0     C  700   1.100   7.280   8.995 -0.3434 -0.8809 -0.3126
    6MOL0     C  701   1.045   7.161   8.946 -0.0024 -0.1282 -0.0232
    6MOL0     C  702   0.910   7.141   8.921  0.6447 -0.2949 -0.5584
    6MOL0     C  703   0.825   7.247   8.945  0.6871 -0.1597  0.3908
    6MOL0     C  704   0.679   7.226   8.926  0.3510 -0.5409  0.2355
    6MOL0     O  705   0.639   7.114   8.859  0.1351  0.0970 -0.3968
    6MOL0     C  706   0.506   7.103   8.848 -0.2367  0.8845 -1.5293
    6MOL0     C  707   0.429   7.154   8.739  0.0781  0.0682 -0.0460
    6MOL0     C  708   0.292   7.109   8.737  1.0130  0.9598 -0.3304
    6MOL0     C  709   0.234   7.021   8.835 -0.3269  0.4558  0.4960
    6MOL0     O  710   0.098   6.986   8.836 -0.0410 -0.0465 -0.8836
    6MOL0     C  711   0.043   6.950   8.965  0.5445  0.7575  0.0666
    6MOL0     C  712  -0.109   6.918   8.948 -0.1799  1.0153 -1.1095
    6MOL0     C  713  -0.157   6.863   9.085 -0.2216 -0.8011 -0.2049
    6MOL0     C  714  -0.285   6.789   9.078 -0.2532  0.7342 -0.2484
    6MOL0     C  715  -0.332   6.722   9.211  0.1567  0.4526 -0.4322
    6MOL0     C  716  -0.478   6.702   9.208 -0.8046 -0.2573 -0.6300
    6MOL0     C  717  -0.513   6.624   9.333  0.1834 -0.0510 -0.1008
    6MOL0     C  718  -0.661   6.580   9.328  0.1746 -0.6999 -0.1528
    6MOL0    Cl  719  -0.690   6.471   9.186  0.1238  0.0997 -0.2334
    6MOL0     C  720   0.325   6.983   8.940  0.3549  0.1758  1.0738
    6MOL0     C  721   0.454   7.023   8.953 -0.3544  0.9155  0.0551
    6MOL0     O  722   0.598   7.309   8.974  0.2951  0.2057  0.2943
    6MOL0     C  723   0.865   7.363   9.006  1.0033 -0.2302 -0.6156
    6MOL0     C  724   1.009   7.382   9.030  0.5578  0.5817  0.1027
    6MOL0     N  725   1.529   7.848   9.108  0.2012 -0.2713 -0.3228
    6MOL0     N  726   1.548   7.967   9.153  1.0033 -0.1940 -0.0313
    6MOL0     C  727   1.930   7.530  10.042  0.9669  0.2788  0.9968
    6MOL0     C  728   1.914   7.407  10.093 -0.2383  0.6059  0.2054
    6MOL0     C  729   1.856   7.014  10.245  0.3004 -0.6130 -0.2885
    6MOL0     C  730   1.970   6.945  10.211 -0.4224  0.0262  0.0566
    6MOL0     C  731   2.003   6.828  10.281 -0.2253  0.5103 -0.0107
    6MOL0     C  732   1.924   6.794  10.401  0.3812 -0.5668 -0.7159
    6MOL0     O  733   1.968   6.683  10.466  0.1600  0.5785  0.4215
    6MOL0     C  734   2.056   6.716  10.576  0.7468  0.1658 -0.8001
    6MOL0     C  735   2.008   6.649  10.708  0.3408  1.0934 -0.1094
    6MOL0     C  736   2.055   6.509  10.728 -0.8225 -0.4422 -0.1915
    6MOL0     C  737   2.080   6.484  10.875 -0.4824 -0.0435  0.4005
    6MOL0     C  738   2.092   6.332  10.912  0.7517 -0.5807 -0.0170
    6MOL0     C  739   2.123   6.219  10.945  0.0220  0.3186  0.0702
    6MOL0     C  740   1.808   6.858  10.434  0.7462 -0.4709  0.4381
    6MOL0     C  741   1.774   6.978  10.360  0.2360  0.2018 -0.1908
    6MOL0     C  742   1.646   7.047  10.388  0.0560  0.8037  0.1000
    6MOL0     H  743   1.600   7.404  10.192  0.8567 -1.4216 -0.7877
    6MOL0     H  744   1.599   7.626  10.102  0.5721  1.1098 -2.1809
    6MOL0     H  745   1.686   7.748   9.839  0.1805  1.5589 -1.8182
    6MOL0     H  746   1.639   7.807  10.003 -0.2866  1.6626 -1.8949
    6MOL0     H  747   1.807   7.994   9.953  3.4106 -0.2633 -2.4870
    6MOL0     H  748   1.643   8.003   9.890  0.8707  0.9965  2.1085
    6MOL0     H  749   1.737   7.912   9.667 -1.2211 -0.2434  1.3976
    6MOL0     H  750   1.897   7.910   9.743  0.8533  0.0115 -1.3966
    6MOL0     H  751   1.829   8.169   9.781  1.4251 -2.0469  2.2505
    6MOL0     H  752   1.888   8.102   9.627 -0.0673  1.1117  0.5778
    6MOL0     H  753   1.586   8.144   9.696  0.6171 -4.8022  0.1697
    6MOL0     H  754   1.693   8.267   9.632  0.6107 -0.2960  2.3387
    6MOL0     H  755   1.709   8.155   9.418  2.4449 -1.0200  1.4116
    6MOL0     H  756   1.642   8.006   9.474 -1.5189 -0.3830  0.2440
    6MOL0     H  757   1.482   8.258   9.475 -1.3002  1.5033 -1.4519
    6MOL0     H  758   1.426   8.088   9.517  0.2444 -2.7212 -3.0695
    6MOL0     H  759   1.360   8.144   9.282  0.0765  0.3669 -0.8566
    6MOL0     H  760   1.511   8.195   9.245 -1.2103 -0.9345 -0.5254
    6MOL0     H  761   1.400   7.847   9.416 -0.8111  1.2936  0.3215
    6MOL0     H  762   1.481   7.609   9.102 -0.2097 -0.6176 -0.3904
    6MOL0     H  763   1.541   7.583   9.252  0.8400  2.8535  0.8672
    6MOL0     H  764   1.309   7.570   9.368 -1.2894 -0.7596 -0.1263
    6MOL0     H  765   1.235   7.643   9.227 -1.2185 -0.5766 -0.2035
    6MOL0     H  766   1.182   7.389   9.233  2.3648 -4.7080  0.4608
    6MOL0     H  767   1.347   7.362   9.255 -0.6210 -1.0880 -1.3620
    6MOL0     H  768   1.398   7.409   9.032 -0.8542  0.0250 -1.8407
    6MOL0     H  769   1.253   7.494   9.008  0.1763  1.6060  2.0230
    6MOL0     H  770   1.113   7.080   8.922 -1.7393 -2.1999  1.5615
    6MOL0     H  771   0.874   7.045   8.885 -0.6191  0.7914 -2.3300
    6MOL0     H  772   0.482   7.213   8.665  2.0423  0.1059  1.3028
    6MOL0     H  773   0.233   7.154   8.658 -1.2765 -0.3118  0.5776
    6MOL0     H  774   0.093   6.863   9.008 -0.8598  0.3754  0.9885
    6MOL0     H  775   0.065   7.017   9.048 -3.6490 -1.7857  3.6943
    6MOL0     H  776  -0.172   7.004   8.923 -1.0371  0.2029 -1.8320
    6MOL0     H  777  -0.123   6.840   8.872 -0.9835 -0.3938  0.4252
    6MOL0     H  778  -0.078   6.809   9.139 -0.5675  0.3431  1.5322
    6MOL0     H  779  -0.149   6.951   9.150 -2.5439 -0.7733  0.1258
    6MOL0     H  780  -0.284   6.712   9.001 -2.5340 -1.2372  1.5342
    6MOL0     H  781  -0.363   6.860   9.052 -1.2334 -0.9502 -2.2200
    6MOL0     H  782  -0.299   6.791   9.289 -0.8285  3.0246 -2.1701
    6MOL0     H  783  -0.281   6.626   9.227 -0.4426  0.0979 -0.6237
    6MOL0     H  784  -0.516   6.805   9.215  0.7345  0.3140 -0.3536
    6MOL0     H  785  -0.494   6.656   9.110  0.6583  0.7329 -1.3860
    6MOL0     H  786  -0.485   6.683   9.420  4.9732 -1.2277 -0.5485
    6MOL0     H  787  -0.462   6.528   9.340  0.7534  0.3140  0.8659
    6MOL0     H  788  -0.683   6.542   9.428 -3.8178 -0.6109 -0.8618
    6MOL0     H  789  -0.722   6.670   9.318  2.2356  1.0966  2.1851
    6MOL0     H  790   0.301   6.908   9.015 -2.8282 -2.6548 -2.4104
    6MOL0     H  791   0.516   6.962   9.018  0.8708  1.9497 -0.1085
    6MOL0     H  792   0.797   7.444   9.031  2.6933  1.6373 -1.7876
    6MOL0     H  793   1.039   7.477   9.074 -2.5965  1.1604  1.2704
    6MOL0     H  794   2.030   7.552  10.008  1.5735  0.6215  2.8611
    6MOL0     H  795   2.002   7.347  10.073 -1.0772 -1.2676  1.7712
    6MOL0     H  796   2.028   6.975  10.124 -0.3657  1.8620  0.6929
    6MOL0     H  797   2.080   6.759  10.250 -2.3831 -0.5350 -3.6903
    6MOL0     H  798   2.048   6.815  10.622 -2.2349 -1.5671  3.0160
    6MOL0     H  799   2.157   6.680  10.552  0.3172 -1.9388  0.2551
    6MOL0     H  800   1.899   6.657  10.710  0.3646  1.3359  0.5075
    6MOL0     H  801   2.055   6.715  10.782  1.3088  2.2318 -1.6742
    6MOL0     H  802   2.147   6.487  10.673 -0.2793  1.1743  0.0365
    6MOL0     H  803   1.980   6.434  10.700 -0.2429 -1.2438  0.3626
    6MOL0     H  804   2.170   6.535  10.911  0.1774 -0.5460 -0.5050
    6MOL0     H  805   2.000   6.514  10.943 -1.6725 -1.7057 -0.1866
    6MOL0     H  806   2.142   6.118  10.975 -2.9840 -0.4176 -0.1842
    6MOL0     H  807   1.745   6.828  10.518  0.9941  1.6819  1.4668
    6MOL0     H  808   1.568   6.972  10.395 -0.5495  1.5063  1.3794
    6MOL0     H  809   1.642   7.111  10.478  0.4446  0.7502  0.1583
    6MOL0     H  810   1.614   7.105  10.301 -1.6345 -0.3121 -0.0658
    7MOL0     O  811   2.061   4.425   0.746  0.5347  0.2543 -0.3130
    7MOL0     C  812   2.168   4.476   0.728  0.6652  0.5559  0.4927
    7MOL0     O  813   2.287   4.415   0.757  0.6875  0.3498 -0.2257
    7MOL0     C  814   2.294   4.317   0.858 -0.9732 -0.0867 -0.0944
    7MOL0     C  815   2.208   4.289   0.967  0.1884  0.6560  0.2466
    7MOL0     C  816   2.237   4.189   1.066  0.2054 -1.1155 -0.0294
    7MOL0     C  817   2.357   4.117   1.053  0.8315 -0.0021 -0.2836
    7MOL0     O  818   2.391   4.024   1.153 -0.3825 -1.0568  0.2901
    7MOL0     C  819   2.517   3.953   1.162  0.2177 -0.0697  0.1178
    7MOL0     C  820   2.615   4.020   1.271 -0.2212  0.2313  0.7954
    7MOL0     C  821   2.741   3.934   1.315 -0.3741  0.7419 -0.5258
    7MOL0     C  822   2.820   3.990   1.432  0.5162 -0.5361  0.4540
    7MOL0     C  823   2.759   3.960   1.571  0.4277 -0.2892 -0.2525
    7MOL0     C  824   2.781   3.823   1.635  0.4517  0.5247 -0.7065
    7MOL0     C  825   2.702   3.810   1.769 -0.2622 -0.3855  0.0984
    7MOL0     C  826   2.547   3.805   1.755  0.0429 -1.1508  0.1719
    7MOL0     N  827   2.478   3.813   1.883 -0.0952 -0.6176 -0.6723
    7MOL0     C  828   2.508   3.735   1.992  0.0542  0.1658  0.3486
    7MOL0     C  829   2.455   3.798   2.098 -0.1951 -0.5848 -0.0154
    7MOL0     C  830   2.443   3.752   2.244 -0.0939  0.4861  0.2385
    7MOL0     C  831   2.576   3.744   2.326 -0.5784  0.1331 -0.8403
    7MOL0     C  832   2.546   3.692   2.465  0.6912  0.1863 -0.0387
    7MOL0     C  833   2.662   3.685   2.562 -1.1140  0.3972 -0.2172
    7MOL0     O  834   2.713   3.548   2.559 -0.8251 -0.1758 -0.8127
    7MOL0     C  835   2.827   3.525   2.641  0.2700  0.0929 -0.4945
    7MOL0     C  836   2.898   3.626   2.715  0.8104 -0.3915 -0.1136
    7MOL0     C  837   3.025   3.589   2.768  0.4212 -0.1343 -0.4564
    7MOL0     C  838   3.072   3.460   2.768 -0.3835 -0.2213  0.7533
    7MOL0     C  839   3.188   3.421   2.839  0.1618 -0.2776  0.2956
    7MOL0     O  840   3.283   3.519   2.870 -0.0869  0.1753  1.0617
    7MOL0     C  841   3.389   3.480   2.936  0.5994  1.6317  0.9962
    7MOL0     C  842   3.375   3.399   3.054 -0.3210 -0.2686 -0.2968
    7MOL0     C  843   3.482   3.374   3.139 -0.2686 -0.6694  0.4202
    7MOL0     C  844   3.616   3.431   3.113 -0.2717  0.0383 -0.4592
    7MOL0     O  845   3.724   3.421   3.197  0.2852 -0.1118 -0.8735
    7MOL0     C  846   3.718   3.299   3.271  1.1008  0.1273 -0.2220
    7MOL0     C  847   3.859   3.256   3.328 -0.9052  0.5214  0.3765
    7MOL0     C  848   3.942   3.173   3.229 -0.4794  0.4780 -1.3391
    7MOL0     C  849   4.075   3.120   3.289  0.9649  0.6068 -0.4987
    7MOL0     C  850   4.041   3.011   3.400 -0.2032 -0.4829  0.9460
    7MOL0     C  851   4.146   2.906   3.437  0.6843  1.1739 -0.6105
    7MOL0     C  852   4.245   2.968   3.536  0.1542 -0.6185 -0.2339
    7MOL0     C  853   4.341   2.874   3.602  0.1721  0.4318  0.6840
    7MOL0    Cl  854   4.403   2.745   3.490  0.5455 -0.1292  0.1518
    7MOL0     C  855   3.629   3.520   3.007  0.2134  0.0830  0.2724
    7MOL0     C  856   3.513   3.544   2.920 -0.3247 -0.0824  0.1399
    7MOL0     O  857   3.189   3.302   2.865  0.3059 -0.4967  0.3030
    7MOL0     C  858   2.994   3.363   2.698 -0.1131 -0.4248  0.9030
    7MOL0     C  859   2.879   3.400   2.627 -0.0005 -0.1973  0.2927
    7MOL0     N  860   2.408   3.920   2.055  1.2029 -0.1398  0.3305
    7MOL0     N  861   2.423   3.926   1.928  0.3745 -0.2344  0.0942
    7MOL0     C  862   2.444   4.146   0.947  0.4865 -0.6852  0.0082
    7MOL0     C  863   2.416   4.249   0.859  0.6066  0.2022  0.5589
    7MOL0     C  864   2.185   4.608   0.649 -0.9090  0.1062 -0.2760
    7MOL0     C  865   2.323   4.653   0.633  0.2319 -1.4467  0.3114
    7MOL0     C  866   2.348   4.755   0.543 -0.0932  0.3986  0.7502
    7MOL0     C  867   2.245   4.834   0.491  0.4618  0.3395 -0.4959
    7MOL0     O  868   2.284   4.942   0.416  0.3795 -0.4943  0.0810
    7MOL0     C  869   2.409   5.008   0.417 -0.7051 -0.8886 -0.1466
    7MOL0     C  870   2.467   5.062   0.544 -0.2075  0.1198 -0.2228
    7MOL0     C  871   2.604   5.132   0.530  0.3653 -0.0791  0.5949
    7MOL0     C  872   2.623   5.251   0.631 -0.1292  0.2236  0.1563
    7MOL0     C  873   2.612   5.212   0.776  0.4344 -0.0761  1.2227
    7MOL0     C  874   2.622   5.176   0.886  0.5194  0.5685  0.2273
    7MOL0     C  875   2.114   4.795   0.509  0.1376 -0.4656 -0.5408
    7MOL0     C  876   2.084   4.676   0.582  1.2135 -0.5074 -0.1952
    7MOL0     C  877   1.939   4.627   0.589 -0.7114 -0.6003 -0.9015
    7MOL0     H  878   2.118   4.348   0.988 -0.6082 -1.2219  2.5946
    7MOL0     H  879   2.174   4.184   1.154 -1.6031  0.6033 -1.1378
    7MOL0     H  880   2.478   3.856   1.193 -2.7914  0.7063 -0.9238
    7MOL0     H  881   2.563   3.920   1.069 -2.3535 -0.2064 -1.1729
    7MOL0     H  882   2.560   4.047   1.361  1.0056  3.4145  0.7082
    7MOL0     H  883   2.651   4.114   1.228 -2.5908  1.9187  2.2398
    7MOL0     H  884   2.810   3.934   1.229 -1.2932 -0.1909 -1.2861
    7MOL0     H  885   2.715   3.829   1.330 -1.0703  0.9750 -0.0374
    7MOL0     H  886   2.912   3.934   1.412  1.0805 -0.0709  1.6518
    7MOL0     H  887   2.821   4.099   1.424  0.5084 -0.4231  1.7826
    7MOL0     H  888   2.789   4.027   1.652  0.8178 -2.5019  1.5255
    7MOL0     H  889   2.655   3.976   1.543  0.6679 -1.0772 -1.7129
    7MOL0     H  890   2.749   3.751   1.560 -1.7289  0.6276  0.0698
    7MOL0     H  891   2.887   3.811   1.658  0.2105  3.1472  2.5057
    7MOL0     H  892   2.739   3.889   1.834 -0.4803 -0.2813  0.0975
    7MOL0     H  893   2.737   3.710   1.797  1.4568 -0.2912 -1.5512
    7MOL0     H  894   2.516   3.896   1.703 -0.3786  0.1706  2.5872
    7MOL0     H  895   2.526   3.715   1.696 -0.9708 -2.6871  2.6897
    7MOL0     H  896   2.549   3.636   1.975 -2.7058 -1.3937  2.0537
    7MOL0     H  897   2.369   3.817   2.291 -0.2388  0.3092  0.2542
    7MOL0     H  898   2.411   3.648   2.235 -1.9659  0.7681  2.7139
    7MOL0     H  899   2.647   3.671   2.287 -0.8166  0.4406 -1.8934
    7MOL0     H  900   2.635   3.836   2.335  1.5704 -1.2784  0.3533
    7MOL0     H  901   2.489   3.599   2.457 -0.9731  1.2656 -1.5181
    7MOL0     H  902   2.471   3.757   2.511 -0.6374 -0.7633 -0.7964
    7MOL0     H  903   2.635   3.707   2.666  0.9216 -2.3552  0.9963
    7MOL0     H  904   2.742   3.757   2.542  1.4328 -1.8914  1.1070
    7MOL0     H  905   2.854   3.725   2.725 -2.3579 -1.7401  0.7402
    7MOL0     H  906   3.082   3.673   2.807  0.9082 -0.2235 -0.9731
    7MOL0     H  907   3.280   3.350   3.073 -1.6963  2.1671 -0.3971
    7MOL0     H  908   3.480   3.328   3.238  0.4247  1.0438  1.2622
    7MOL0     H  909   3.655   3.301   3.360  0.2007  0.6925 -0.8458
    7MOL0     H  910   3.686   3.217   3.205 -1.1696 -0.8677  1.9391
    7MOL0     H  911   3.914   3.347   3.353  1.4790  0.0795 -2.5757
    7MOL0     H  912   3.845   3.195   3.417 -0.1162 -2.1973 -1.2406
    7MOL0     H  913   3.888   3.096   3.173  2.3572 -2.7864  0.0390
    7MOL0     H  914   3.977   3.237   3.148  0.4627 -0.6893 -1.8991
    7MOL0     H  915   4.133   3.200   3.335 -0.1638  2.3938 -2.0585
    7MOL0     H  916   4.131   3.067   3.211  0.4375 -0.6267 -0.0746
    7MOL0     H  917   3.956   2.950   3.370  0.9411 -1.3929 -0.5516
    7MOL0     H  918   4.012   3.064   3.491 -0.5277 -0.7109  0.9726
    7MOL0     H  919   4.101   2.820   3.488  3.3211 -0.3981 -0.7308
    7MOL0     H  920   4.187   2.860   3.346  1.0286 -0.5538  0.3849
    7MOL0     H  921   4.190   3.023   3.613 -1.4787  0.3884 -2.0333
    7MOL0     H  922   4.311   3.040   3.486 -1.6458 -0.4230 -2.5131
    7MOL0     H  923   4.423   2.933   3.645  1.3358 -1.2801  0.9229
    7MOL0     H  924   4.290   2.838   3.692  2.0453 -1.1598  1.1853
    7MOL0     H  925   3.728   3.557   2.981 -0.1885  0.6641 -0.4510
    7MOL0     H  926   3.535   3.608   2.835 -1.6395 -0.5771 -0.6046
    7MOL0     H  927   3.036   3.265   2.677  2.0740  0.7309 -0.5546
    7MOL0     H  928   2.822   3.341   2.556 -0.2250  0.5251 -0.1286
    7MOL0     H  929   2.533   4.085   0.936  0.8884 -0.4142  1.5541
    7MOL0     H  930   2.474   4.266   0.769 -2.3470 -2.0353 -1.9810
    7MOL0     H  931   2.398   4.599   0.690  0.8673  1.3894  2.3327
    7MOL0     H  932   2.447   4.789   0.515  0.7526 -1.2402  1.6534
    7MOL0     H  933   2.401   5.095   0.351 -3.3098  2.4773  4.0169
    7MOL0     H  934   2.487   4.945   0.375 -0.3546  0.6182 -1.9164
    7MOL0     H  935   2.491   4.978   0.610  1.7604  0.1364 -0.8471
    7MOL0     H  936   2.392   5.129   0.587 -1.0199  0.0701 -1.5248
    7MOL0     H  937   2.603   5.180   0.431  1.6415 -0.6963  0.2689
    7MOL0     H  938   2.686   5.062   0.546  0.4979 -0.0086  0.2357
    7MOL0     H  939   2.720   5.298   0.614 -1.0752  1.1923 -3.3896
    7MOL0     H  940   2.544   5.322   0.604  1.2956  1.8103 -0.0038
    7MOL0     H  941   2.632   5.139   0.986  0.3109  1.0942  0.4494
    7MOL0     H  942   2.045   4.848   0.444 -1.5710 -4.6281 -2.5484
    7MOL0     H  943   1.938   4.532   0.535  0.7888 -3.4403  3.4958
    7MOL0     H  944   1.912   4.597   0.691  2.6564 -0.4539  0.1689
    7MOL0     H  945   1.858   4.694   0.559  0.0360 -0.4721 -2.7502
    8MOL0     O  946   9.541   6.820   3.470 -0.1592 -0.0311 -0.4951
    8MOL0     C  947   9.510   6.766   3.361 -0.2656 -0.1767 -0.2638
    8MOL0     O  948   9.599   6.731   3.261 -0.7162  0.2844 -0.9948
    8MOL0     C  949   9.731   6.777   3.267  0.3552 -0.1221 -0.0366
    8MOL0     C  950   9.774   6.866   3.172 -0.9247  0.4327 -0.1448
    8MOL0     C  951   9.915   6.885   3.170 -0.1563  0.8451  0.3082
    8MOL0     C  952  10.009   6.841   3.260  0.6802 -0.8046 -0.0108
    8MOL0     O  953  10.136   6.892   3.237 -0.1655  0.1542  0.0482
    8MOL0     C  954  10.240   6.823   3.307 -1.6721 -0.0202 -0.0235
    8MOL0     C  955  10.362   6.840   3.208 -0.1670  1.2014  0.2245
    8MOL0     C  956  10.475   6.762   3.266  0.2946  0.5744  0.9378
    8MOL0     C  957  10.590   6.757   3.169 -0.1827 -0.5381 -0.5429
    8MOL0     C  958  10.712   6.681   3.224 -0.0467  0.4837 -0.6451
    8MOL0     C  959  10.843   6.737   3.152  0.7005 -0.3504 -0.0880
    8MOL0     C  960  10.960   6.648   3.185 -0.1922 -0.0474  0.4205
    8MOL0     C  961  11.087   6.700   3.124 -0.9734 -0.0311 -0.3733
    8MOL0     N  962  11.206   6.625   3.171  0.1556  0.3370  0.1333
    8MOL0     C  963  11.322   6.680   3.216 -0.3298  0.3855  0.1056
    8MOL0     C  964  11.405   6.570   3.222 -0.5028  0.3145 -0.1419
    8MOL0     C  965  11.548   6.590   3.252  0.7212 -0.8717  0.3927
    8MOL0     C  966  11.636   6.457   3.273 -0.5394  1.3586 -0.3743
    8MOL0     C  967  11.628   6.346   3.174 -1.0403  0.1262  0.5224
    8MOL0     C  968  11.660   6.376   3.024 -0.7176 -0.6931 -0.2386
    8MOL0     O  969  11.598   6.275   2.942  0.8200  0.3504 -0.3146
    8MOL0     C  970  11.667   6.225   2.832 -0.3497 -0.3685  0.0967
    8MOL0     C  971  11.606   6.109   2.771 -0.0434  0.6629 -0.5624
    8MOL0     C  972  11.669   6.057   2.663  0.3645  0.2837  0.7415
    8MOL0     C  973  11.788   6.106   2.601  0.1557 -0.0909 -0.4099
    8MOL0     C  974  11.836   6.031   2.485  0.3317 -0.1888  0.6542
    8MOL0     O  975  11.951   6.082   2.428 -0.5666  0.2147  0.0209
    8MOL0     C  976  11.986   6.053   2.301 -0.2951  0.5111 -0.5446
    8MOL0     C  977  11.898   6.016   2.198  0.2037 -0.0057 -0.2896
    8MOL0     C  978  11.945   5.960   2.083  0.6002  0.3105 -0.5054
    8MOL0     C  979  12.079   5.952   2.058 -0.2371  0.6514 -0.4457
    8MOL0     O  980  12.119   5.873   1.952 -0.6406  0.0501 -0.4029
    8MOL0     C  981  12.076   5.912   1.814  0.3306  0.0398  0.6181
    8MOL0     C  982  12.024   5.779   1.751  0.6268  0.0999 -0.1605
    8MOL0     C  983  11.985   5.791   1.606  0.0737  0.1013  0.1865
    8MOL0     C  984  11.853   5.734   1.574 -0.0083 -0.0311  0.2335
    8MOL0     C  985  11.743   5.794   1.661  0.9991 -0.5998 -0.2143
    8MOL0     C  986  11.600   5.747   1.639  0.5790  0.7729 -0.5583
    8MOL0     C  987  11.563   5.772   1.497 -0.2503 -0.9255 -0.0717
    8MOL0     C  988  11.420   5.706   1.486 -0.9492 -0.2338 -0.3026
    8MOL0    Cl  989  11.295   5.812   1.572 -0.1331 -0.4771 -0.0253
    8MOL0     C  990  12.175   5.998   2.157  0.8085  1.6969  0.9823
    8MOL0     C  991  12.124   6.050   2.279  0.8111 -0.1058  0.8124
    8MOL0     O  992  11.786   5.924   2.453 -0.2382 -0.7245 -0.6132
    8MOL0     C  993  11.830   6.227   2.648  0.2926 -0.0198 -0.2149
    8MOL0     C  994  11.773   6.283   2.763  1.1057  0.2439 -0.6508
    8MOL0     N  995  11.331   6.458   3.188 -0.2286 -0.3488 -0.3756
    8MOL0     N  996  11.215   6.492   3.161 -0.2537 -0.2379 -0.0912
    8MOL0     C  997   9.960   6.739   3.358  0.1564 -0.8472  0.1232
    8MOL0     C  998   9.824   6.716   3.355  0.5957  0.3777 -0.4799
    8MOL0     C  999   9.369   6.714   3.350  0.1558  0.5034 -0.7611
    8MOL0     C 1000   9.335   6.665   3.221 -0.3734  0.4549 -0.0157
    8MOL0     C 1001   9.211   6.621   3.178  0.4268 -0.6354 -0.6173
    8MOL0     C 1002   9.113   6.604   3.271  1.0395 -0.4548 -0.2238
    8MOL0     O 1003   8.989   6.549   3.247 -0.1053 -0.4525 -0.9202
    8MOL0     C 1004   8.943   6.506   3.123  0.2376  0.3184 -0.6328
    8MOL0     C 1005   8.852   6.378   3.148 -0.4525 -1.1425 -0.1541
    8MOL0     C 1006   8.938   6.258   3.199  0.1637  0.7964 -0.3472
    8MOL0     C 1007   8.857   6.146   3.276  0.2319 -0.6472 -0.2536
    8MOL0     C 1008   8.921   6.016   3.311  0.5941  0.1492 -0.8206
    8MOL0     C 1009   8.963   5.900   3.348  0.1146 -0.0087 -0.5407
    8MOL0     C 1010   9.130   6.662   3.399 -0.8928 -0.0424 -0.2458
    8MOL0     C 1011   9.252   6.715   3.433 -0.4926 -0.0934  0.3605
    8MOL0     C 1012   9.256   6.786   3.557 -0.4173  0.5380  0.3965
    8MOL0     H 1013   9.701   6.895   3.098  0.1432  0.5864 -1.1688
    8MOL0     H 1014   9.955   6.943   3.087  0.5376  0.3248  0.2699
    8MOL0     H 1015  10.261   6.868   3.405  2.5225 -2.4003  0.4120
    8MOL0     H 1016  10.223   6.715   3.308 -2.4029  0.0824 -0.7220
    8MOL0     H 1017  10.407   6.939   3.197  1.1536  0.5187 -0.8048
    8MOL0     H 1018  10.335   6.803   3.109  1.5922  0.0195  0.1449
    8MOL0     H 1019  10.448   6.658   3.287  0.4782  0.1577 -0.6927
    8MOL0     H 1020  10.514   6.805   3.359 -0.9145  2.8301  0.4616
    8MOL0     H 1021  10.557   6.729   3.069 -3.5815  0.5340  0.1372
    8MOL0     H 1022  10.631   6.858   3.162  1.8870 -1.4316 -3.9015
    8MOL0     H 1023  10.710   6.686   3.333 -2.1657 -1.6623 -0.5116
    8MOL0     H 1024  10.703   6.574   3.204  1.1028 -0.3997  2.8596
    8MOL0     H 1025  10.830   6.736   3.044  1.6324  0.7086 -0.2249
    8MOL0     H 1026  10.859   6.838   3.192  1.1627  0.0449 -1.2457
    8MOL0     H 1027  10.946   6.548   3.141  1.4833 -0.2200  0.1907
    8MOL0     H 1028  10.973   6.648   3.293 -3.4661 -1.0779  0.9015
    8MOL0     H 1029  11.073   6.711   3.016  1.4554  0.2582 -0.7060
    8MOL0     H 1030  11.103   6.801   3.164 -3.0028 -0.3607  1.4809
    8MOL0     H 1031  11.351   6.783   3.233 -0.8480  0.8591 -1.6002
    8MOL0     H 1032  11.583   6.662   3.178 -0.5128  1.5618  2.0408
    8MOL0     H 1033  11.550   6.648   3.345 -0.6981 -1.7044  0.9785
    8MOL0     H 1034  11.739   6.489   3.257 -0.3332 -0.1288 -2.4019
    8MOL0     H 1035  11.643   6.416   3.375 -0.9882 -1.5441 -1.4168
    8MOL0     H 1036  11.529   6.303   3.158 -0.8955 -0.2358  0.5738
    8MOL0     H 1037  11.696   6.269   3.212  2.1619  3.9883  3.5325
    8MOL0     H 1038  11.768   6.383   3.015 -0.5452  0.3704  2.1241
    8MOL0     H 1039  11.628   6.478   3.003 -0.0495 -0.2350  0.9042
    8MOL0     H 1040  11.517   6.063   2.814 -0.6530  0.4904 -1.9592
    8MOL0     H 1041  11.620   5.964   2.633  0.2263  0.1582  1.3409
    8MOL0     H 1042  11.789   6.010   2.200  0.0346  1.9414 -1.3702
    8MOL0     H 1043  11.875   5.931   2.005 -0.1125 -0.1910  0.3055
    8MOL0     H 1044  11.997   5.986   1.802  0.7944  0.2202 -1.6516
    8MOL0     H 1045  12.161   5.950   1.756  1.9242  1.6228  3.7298
    8MOL0     H 1046  12.094   5.695   1.753  0.3652 -0.2411 -2.3235
    8MOL0     H 1047  11.948   5.745   1.821  0.3696  1.2793  0.1597
    8MOL0     H 1048  11.970   5.897   1.583  0.3107 -0.3247 -2.1890
    8MOL0     H 1049  12.049   5.735   1.537 -0.3476 -2.1220  1.5260
    8MOL0     H 1050  11.856   5.624   1.580  0.9171  0.0434  1.9886
    8MOL0     H 1051  11.839   5.761   1.470  2.8833 -0.6899 -0.4185
    8MOL0     H 1052  11.732   5.900   1.633 -3.2161 -0.6769  0.4428
    8MOL0     H 1053  11.766   5.798   1.768 -0.9030  0.8673  0.1973
    8MOL0     H 1054  11.598   5.644   1.675 -0.7851  1.0947  0.3790
    8MOL0     H 1055  11.541   5.803   1.713 -0.0016 -2.5927  1.7734
    8MOL0     H 1056  11.623   5.725   1.418  0.7523  3.6097 -2.3701
    8MOL0     H 1057  11.555   5.879   1.474 -2.2452 -0.9494  0.2957
    8MOL0     H 1058  11.398   5.708   1.379  2.1418  4.6044 -1.1543
    8MOL0     H 1059  11.418   5.600   1.515 -2.3615 -0.4424 -1.0553
    8MOL0     H 1060  12.274   5.965   2.128  0.0451  1.4224 -1.6184
    8MOL0     H 1061  12.194   6.074   2.358 -0.2268  1.9285  1.1707
    8MOL0     H 1062  11.919   6.260   2.594  0.4490  0.0077  0.0598
    8MOL0     H 1063  11.825   6.376   2.783  1.5574  0.0329 -0.8537
    8MOL0     H 1064  10.020   6.701   3.440  0.4636  1.2970  0.9631
    8MOL0     H 1065   9.774   6.650   3.426 -2.0512  1.8493 -0.8289
    8MOL0     H 1066   9.414   6.649   3.148 -1.1495  1.3550 -1.0861
    8MOL0     H 1067   9.204   6.580   3.078  0.3464 -0.0795 -0.8427
    8MOL0     H 1068   9.011   6.466   3.047 -3.4413 -0.5249 -3.8248
    8MOL0     H 1069   8.877   6.589   3.095 -0.4115  1.0242  2.6100
    8MOL0     H 1070   8.810   6.352   3.050  2.8086 -1.5779 -1.5611
    8MOL0     H 1071   8.770   6.413   3.211  0.1524  2.8180 -1.3051
    8MOL0     H 1072   9.018   6.290   3.266 -1.4191 -1.0110  2.6230
    8MOL0     H 1073   8.986   6.205   3.116  1.5618 -3.1564  2.6769
    8MOL0     H 1074   8.822   6.183   3.372  0.4448  2.7177 -1.3609
    8MOL0     H 1075   8.773   6.118   3.212  0.7172  1.2577 -1.8186
    8MOL0     H 1076   8.989   5.799   3.372 -1.2327 -0.1846  0.2670
    8MOL0     H 1077   9.041   6.651   3.459 -0.8179 -3.2245 -0.5190
    8MOL0     H 1078   9.294   6.887   3.535 -0.7887  0.5349 -0.2828
    8MOL0     H 1079   9.153   6.783   3.594 -0.9383 -1.0999 -1.0372
    8MOL0     H 1080   9.324   6.743   3.631  1.1494 -0.7712 -1.6991
    9MOL0     O 1081   3.574   7.327   7.949 -0.3030  0.0849 -0.1753
    9MOL0     C 1082   3.651   7.232   7.935  0.6206 -1.0408 -0.9483
    9MOL0     O 1083   3.778   7.238   7.885 -0.7117 -0.0476 -0.1291
    9MOL0     C 1084   3.841   7.363   7.860 -0.4953  0.2069 -0.7694
    9MOL0     C 1085   3.962   7.392   7.927  0.3488  0.5894  1.2756
    9MOL0     C 1086   4.045   7.497   7.896  0.9649  0.6608 -0.8904
    9MOL0     C 1087   4.005   7.587   7.794 -0.8252  0.0327 -0.1955
    9MOL0     O 1088   4.067   7.700   7.763  0.2513 -0.5602  0.1309
    9MOL0     C 1089   4.170   7.740   7.850  0.2351 -0.4665  0.0459
    9MOL0     C 1090   4.221   7.876   7.814  0.5047  0.0352 -0.2159
    9MOL0     C 1091   4.326   7.876   7.704 -0.0838 -0.0129  1.2092
    9MOL0     C 1092   4.330   8.022   7.672  0.1355 -0.5478  1.6378
    9MOL0     C 1093   4.430   8.044   7.557  0.0837 -0.3670  0.4662
    9MOL0     C 1094   4.449   8.189   7.518  0.4356 -0.3429  0.2768
    9MOL0     C 1095   4.336   8.248   7.427  0.8036  0.6453  0.4903
    9MOL0     C 1096   4.365   8.385   7.355  0.6814  1.3732  0.1161
    9MOL0     N 1097   4.485   8.375   7.259  0.1551 -0.2357 -0.0342
    9MOL0     C 1098   4.532   8.264   7.200 -0.5216 -1.0454  0.9528
    9MOL0     C 1099   4.654   8.301   7.144  0.3107  0.4958  0.1839
    9MOL0     C 1100   4.757   8.218   7.067  0.6165  0.2847 -0.7824
    9MOL0     C 1101   4.762   8.065   7.079  0.0827  0.7201 -0.6216
    9MOL0     C 1102   4.888   8.013   7.010  0.2966 -0.7012  0.1644
    9MOL0     C 1103   4.923   7.872   7.044  0.4393 -0.0988  1.3432
    9MOL0     O 1104   5.045   7.840   6.967  0.4051  0.3701 -0.0900
    9MOL0     C 1105   5.080   7.708   6.969  1.1266  0.4852  0.2246
    9MOL0     C 1106   5.141   7.656   6.859  0.0490 -0.3221  0.2180
    9MOL0     C 1107   5.184   7.523   6.847  0.9638  0.5087  0.8120
    9MOL0     C 1108   5.141   7.431   6.946 -0.2486 -0.0867  0.1420
    9MOL0     C 1109   5.171   7.289   6.931  0.0201 -0.5519  0.4111
    9MOL0     O 1110   5.210   7.238   6.806  0.5920 -0.5531  0.3191
    9MOL0     C 1111   5.263   7.115   6.810 -0.1304  0.2396 -0.2933
    9MOL0     C 1112   5.197   6.996   6.763  0.1542 -0.4286 -0.2088
    9MOL0     C 1113   5.269   6.865   6.755 -0.4479 -0.6772  0.1088
    9MOL0     C 1114   5.407   6.868   6.793 -0.6254  0.4712 -0.7475
    9MOL0     O 1115   5.492   6.758   6.780  0.3062 -0.5056  0.6783
    9MOL0     C 1116   5.446   6.627   6.784  0.1044  0.9705  0.3925
    9MOL0     C 1117   5.555   6.528   6.780 -0.7421 -0.3476  0.6609
    9MOL0     C 1118   5.620   6.520   6.637 -0.2814  0.3624 -0.3645
    9MOL0     C 1119   5.729   6.407   6.616 -0.3175  0.3352  0.7968
    9MOL0     C 1120   5.821   6.448   6.492  0.1861  0.7223 -0.2730
    9MOL0     C 1121   5.941   6.356   6.475 -0.0643 -0.0977  0.8306
    9MOL0     C 1122   6.017   6.399   6.341 -0.5080 -0.6653 -0.3382
    9MOL0     C 1123   5.946   6.334   6.226 -0.3283  1.5944  0.7118
    9MOL0    Cl 1124   5.967   6.151   6.222  0.5359 -0.1859  0.2883
    9MOL0     C 1125   5.462   6.985   6.831 -0.0949  0.3520 -0.7343
    9MOL0     C 1126   5.398   7.106   6.839 -0.4301 -0.8789  0.7305
    9MOL0     O 1127   5.150   7.218   7.031 -0.1232 -0.7105  0.1913
    9MOL0     C 1128   5.092   7.478   7.067 -0.3403 -0.2100 -0.3293
    9MOL0     C 1129   5.065   7.620   7.080  0.1192 -0.1809 -0.3146
    9MOL0     N 1130   4.666   8.439   7.168 -0.2171 -0.5031  0.2652
    9MOL0     N 1131   4.569   8.474   7.244 -0.7251 -0.8154  0.7305
    9MOL0     C 1132   3.891   7.558   7.723 -1.1104  0.2325  0.2147
    9MOL0     C 1133   3.806   7.452   7.756  0.1600 -0.4124  0.3668
    9MOL0     C 1134   3.599   7.099   7.974 -0.3410  0.1488 -0.3687
    9MOL0     C 1135   3.672   6.978   7.946  0.0401 -0.2892 -0.6955
    9MOL0     C 1136   3.626   6.843   7.966 -0.7064 -0.5220  0.5868
    9MOL0     C 1137   3.498   6.828   8.020 -0.1207  0.2213 -1.2247
    9MOL0     O 1138   3.437   6.708   8.046 -0.2750  0.0129  0.9013
    9MOL0     C 1139   3.489   6.585   7.978 -1.4918 -0.5427 -0.4488
    9MOL0     C 1140   3.397   6.466   7.975  0.0757 -0.2484  0.2931
    9MOL0     C 1141   3.358   6.400   8.115 -0.5646 -0.5519  0.2156
    9MOL0     C 1142   3.206   6.355   8.137 -0.4704 -0.2266 -0.2306
    9MOL0     C 1143   3.176   6.349   8.285  0.6858  0.5237  0.0050
    9MOL0     C 1144   3.141   6.359   8.400  0.8750 -0.0513 -0.1056
    9MOL0     C 1145   3.424   6.940   8.065 -0.6013  0.1230 -0.0575
    9MOL0     C 1146   3.466   7.074   8.041  0.1186  0.1519  0.3539
    9MOL0     C 1147   3.376   7.182   8.095 -0.5939  0.5489 -0.4627
    9MOL0     H 1148   3.984   7.316   8.002  1.5263 -0.8829 -0.4711
    9MOL0     H 1149   4.132   7.518   7.958  0.1302  3.4833 -0.5302
    9MOL0     H 1150   4.133   7.743   7.953 -0.5613  2.3427 -0.2382
    9MOL0     H 1151   4.253   7.669   7.848  1.2486  0.7173 -1.3832
    9MOL0     H 1152   4.268   7.928   7.898 -0.3867 -0.3979  0.5607
    9MOL0     H 1153   4.140   7.938   7.775  2.9368  1.7966 -2.9460
    9MOL0     H 1154   4.299   7.815   7.617  2.8740  0.0645  0.1038
    9MOL0     H 1155   4.424   7.841   7.739  0.4818  1.8105  1.5587
    9MOL0     H 1156   4.235   8.059   7.632  0.7521 -0.2025  0.4497
    9MOL0     H 1157   4.350   8.079   7.763 -3.8635 -0.9556  2.9938
    9MOL0     H 1158   4.518   7.998   7.601 -1.3402 -1.6306  2.1365
    9MOL0     H 1159   4.394   7.991   7.468  3.0147  0.8716 -1.5875
    9MOL0     H 1160   4.453   8.243   7.613  0.9575 -1.0438  0.6590
    9MOL0     H 1161   4.547   8.197   7.469  1.2455  2.4430  2.0987
    9MOL0     H 1162   4.247   8.253   7.491  0.6773 -1.4653  0.5633
    9MOL0     H 1163   4.312   8.178   7.346 -2.4764  0.0886  1.7633
    9MOL0     H 1164   4.281   8.411   7.291  2.0429  0.8429 -1.9872
    9MOL0     H 1165   4.366   8.475   7.417  1.7074  1.2311  0.3287
    9MOL0     H 1166   4.483   8.167   7.195  0.6738 -1.6494  0.5261
    9MOL0     H 1167   4.727   8.239   6.964 -2.7707  0.3811  0.0884
    9MOL0     H 1168   4.852   8.262   7.097  1.4333 -0.3366 -2.3345
    9MOL0     H 1169   4.773   8.037   7.185  0.8208 -0.9775 -1.1101
    9MOL0     H 1170   4.672   8.024   7.031 -0.3916 -1.2724  1.7366
    9MOL0     H 1171   4.975   8.073   7.038  0.6815 -2.1245  2.3305
    9MOL0     H 1172   4.878   8.026   6.902  1.9878 -1.0595 -0.0615
    9MOL0     H 1173   4.850   7.794   7.022  1.6577 -0.9262  0.0838
    9MOL0     H 1174   4.953   7.865   7.149  0.3522 -2.0837  1.2595
    9MOL0     H 1175   5.152   7.723   6.774  1.4762  1.5338  1.7770
    9MOL0     H 1176   5.222   7.485   6.753 -2.2232 -0.0158 -0.4043
    9MOL0     H 1177   5.093   6.986   6.734 -1.0115  0.6261  3.1940
    9MOL0     H 1178   5.205   6.780   6.735 -3.7823  1.2837  1.6458
    9MOL0     H 1179   5.392   6.603   6.876  2.4429 -1.2406  1.3147
    9MOL0     H 1180   5.379   6.610   6.698 -0.8091 -0.5867  1.3574
    9MOL0     H 1181   5.626   6.550   6.860 -0.8932 -2.7025  1.5296
    9MOL0     H 1182   5.514   6.429   6.803 -2.2872  0.4939  1.6355
    9MOL0     H 1183   5.536   6.492   6.573 -0.4268 -0.8099  0.3232
    9MOL0     H 1184   5.671   6.615   6.615  2.4616 -0.7970  0.5749
    9MOL0     H 1185   5.692   6.305   6.605  0.9177  0.0247 -0.7192
    9MOL0     H 1186   5.802   6.415   6.697  2.0259 -1.6315 -1.0114
    9MOL0     H 1187   5.858   6.549   6.508 -1.4525  1.1048  1.3614
    9MOL0     H 1188   5.757   6.441   6.403  0.3436  1.3083 -0.4327
    9MOL0     H 1189   6.009   6.368   6.560 -2.4242 -0.5894  2.8954
    9MOL0     H 1190   5.912   6.251   6.485  0.0845 -0.1862  0.3274
    9MOL0     H 1191   6.123   6.375   6.347  0.0682  1.8586  1.1642
    9MOL0     H 1192   6.015   6.509   6.343  0.7595 -0.6016  2.6098
    9MOL0     H 1193   5.841   6.360   6.240 -0.6716 -0.6904  3.4977
    9MOL0     H 1194   5.984   6.375   6.132 -0.9743 -1.6979 -1.1500
    9MOL0     H 1195   5.567   6.978   6.855 -0.5742 -0.4825  1.3556
    9MOL0     H 1196   5.444   7.199   6.871  0.2507 -1.2807  0.9285
    9MOL0     H 1197   5.069   7.416   7.153 -1.1783  2.0212  1.1610
    9MOL0     H 1198   5.025   7.658   7.174  1.8615  2.8203 -0.6259
    9MOL0     H 1199   3.873   7.605   7.627  0.1916 -0.0627 -0.1930
    9MOL0     H 1200   3.717   7.434   7.696 -0.4609  0.4970  1.0075
    9MOL0     H 1201   3.772   6.994   7.907 -0.3109  1.1422 -1.0598
    9MOL0     H 1202   3.684   6.759   7.928 -0.3716  0.0585 -0.1960
    9MOL0     H 1203   3.584   6.556   8.023  1.3467  1.5010 -4.4784
    9MOL0     H 1204   3.520   6.614   7.877  0.3189 -2.7610 -0.6051
    9MOL0     H 1205   3.460   6.400   7.914  1.9868  1.6241  0.1216
    9MOL0     H 1206   3.307   6.502   7.924  1.0997  1.3421 -0.4658
    9MOL0     H 1207   3.377   6.479   8.188 -3.3051  0.2576  0.1872
    9MOL0     H 1208   3.409   6.306   8.140 -4.9962 -3.7840 -1.4877
    9MOL0     H 1209   3.136   6.434   8.110 -2.4245 -2.2492 -1.3711
    9MOL0     H 1210   3.183   6.256   8.098  0.6523 -1.7863  2.7056
    9MOL0     H 1211   3.114   6.362   8.504  3.4393 -2.2646  0.7664
    9MOL0     H 1212   3.330   6.925   8.117 -0.8504 -3.4271 -1.2224
    9MOL0     H 1213   3.309   7.140   8.171  1.5333  0.5730  1.5639
    9MOL0     H 1214   3.434   7.253   8.155 -1.1413 -1.8803  3.2926
    9MOL0     H 1215   3.311   7.224   8.018 -1.7045 -1.2996 -0.6055
   10MOL0     O 1216   5.753   6.385   7.717 -0.0058 -0.0296 -0.1316
   10MOL0     C 1217   5.663   6.310   7.687 -0.6228  1.3126 -0.2487
   10MOL0     O 1218   5.538   6.331   7.715  0.2179 -0.2935 -0.1317
   10MOL0     C 1219   5.499   6.418   7.813  0.1240 -0.5238 -0.2858
   10MOL0     C 1220   5.564   6.484   7.924  0.4100  0.1742  0.9486
   10MOL0     C 1221   5.488   6.537   8.024  0.6114 -0.1144 -0.2354
   10MOL0     C 1222   5.348   6.528   8.038 -0.4694 -0.8661 -0.2333
   10MOL0     O 1223   5.268   6.582   8.137 -0.4527 -0.5598  0.7354
   10MOL0     C 1224   5.287   6.590   8.272  0.4837 -0.6610 -0.6202
   10MOL0     C 1225   5.223   6.477   8.352  0.7085  0.2068 -0.2709
   10MOL0     C 1226   5.079   6.464   8.310 -0.1082 -0.2855 -0.2945
   10MOL0     C 1227   5.028   6.347   8.386  0.5566 -0.4249  0.2572
   10MOL0     C 1228   4.890   6.297   8.347  0.5582 -0.1347  0.3557
   10MOL0     C 1229   4.859   6.174   8.439 -0.1842 -0.2028 -0.8578
   10MOL0     C 1230   4.721   6.122   8.398  0.7245 -0.1141 -0.1696
   10MOL0     C 1231   4.692   5.982   8.432 -0.4464  0.8408 -0.1924
   10MOL0     N 1232   4.562   5.931   8.397 -0.5190 -0.2021  0.4222
   10MOL0     C 1233   4.538   5.798   8.354  0.7056  0.3801 -0.3938
   10MOL0     C 1234   4.405   5.779   8.385  0.7846  0.4947 -0.1359
   10MOL0     C 1235   4.315   5.665   8.341  0.3441 -0.4489 -0.6044
   10MOL0     C 1236   4.389   5.556   8.250  0.9433 -0.3089 -0.7658
   10MOL0     C 1237   4.300   5.451   8.201  0.7442  0.2396 -0.9868
   10MOL0     C 1238   4.219   5.496   8.076 -0.1836  0.8944 -0.8175
   10MOL0     O 1239   4.184   5.381   7.997  0.6013  0.4011  0.8947
   10MOL0     C 1240   4.231   5.364   7.868 -0.4370  0.5323  1.1083
   10MOL0     C 1241   4.174   5.252   7.790  0.0492 -0.4648  0.3742
   10MOL0     C 1242   4.224   5.209   7.664 -0.1191  0.4587 -0.1255
   10MOL0     C 1243   4.328   5.291   7.609  0.2204  0.2027  0.6789
   10MOL0     C 1244   4.349   5.273   7.466 -0.2573 -0.3882 -1.2043
   10MOL0     O 1245   4.314   5.162   7.393  0.5531  0.5770 -0.3815
   10MOL0     C 1246   4.355   5.161   7.264  0.1368 -0.0001  0.1383
   10MOL0     C 1247   4.479   5.100   7.247  0.8466 -0.1494 -0.3106
   10MOL0     C 1248   4.526   5.068   7.118  0.9032  0.4330  0.5470
   10MOL0     C 1249   4.447   5.094   7.007 -0.1001  0.0294 -0.5425
   10MOL0     O 1250   4.479   5.035   6.881  0.9625 -1.0656  0.7872
   10MOL0     C 1251   4.486   5.120   6.763  0.8448  1.0028 -0.3553
   10MOL0     C 1252   4.558   5.036   6.648 -0.1423 -0.1414 -0.4733
   10MOL0     C 1253   4.495   4.896   6.625  0.0781 -0.8294 -0.7963
   10MOL0     C 1254   4.370   4.885   6.543  0.7300  0.4535  0.3759
   10MOL0     C 1255   4.269   5.001   6.575 -0.5378  0.4012 -0.0644
   10MOL0     C 1256   4.138   4.992   6.502  0.4124 -0.8293  0.5226
   10MOL0     C 1257   4.045   5.125   6.506  0.2686  0.0582  0.3595
   10MOL0     C 1258   3.896   5.087   6.462 -0.7061 -0.6359  0.3999
   10MOL0    Cl 1259   3.760   5.215   6.501  0.0644 -0.2716 -0.5874
   10MOL0     C 1260   4.327   5.159   7.025 -0.1285  0.3079  1.0125
   10MOL0     C 1261   4.283   5.205   7.153  0.2250  1.0568  0.7147
   10MOL0     O 1262   4.408   5.367   7.426  0.2174 -0.3002 -0.6148
   10MOL0     C 1263   4.385   5.399   7.692  0.4768  1.0410  0.4365
   10MOL0     C 1264   4.335   5.439   7.813  0.3933 -0.4301 -0.6116
   10MOL0     N 1265   4.358   5.897   8.453  0.2218  1.0020  0.4564
   10MOL0     N 1266   4.453   5.988   8.452  0.3710 -0.0225 -0.3074
   10MOL0     C 1267   5.288   6.464   7.931  0.0337 -0.2859  0.4562
   10MOL0     C 1268   5.362   6.402   7.825 -0.2184  0.7267  0.1756
   10MOL0     C 1269   5.700   6.199   7.591  0.1063  0.3395 -1.4689
   10MOL0     C 1270   5.613   6.088   7.596  0.5469 -0.0343 -0.0828
   10MOL0     C 1271   5.649   5.966   7.537 -0.4167 -0.1144  0.7769
   10MOL0     C 1272   5.770   5.952   7.456  0.0725 -0.3861 -0.4047
   10MOL0     O 1273   5.802   5.839   7.386 -0.1631  0.1787  0.0337
   10MOL0     C 1274   5.713   5.722   7.387  0.7115 -0.1231  0.8799
   10MOL0     C 1275   5.757   5.643   7.256  0.5783 -0.8702  0.3215
   10MOL0     C 1276   5.838   5.518   7.282 -0.9247 -0.0370  0.0668
   10MOL0     C 1277   5.886   5.446   7.151  0.4943  0.7199  1.0466
   10MOL0     C 1278   5.983   5.341   7.167 -0.2930 -0.2666  0.8922
   10MOL0     C 1279   6.058   5.244   7.188 -0.1038 -0.2607  0.9627
   10MOL0     C 1280   5.848   6.071   7.440  1.2825  0.5946  0.5729
   10MOL0     C 1281   5.815   6.191   7.506  0.2745  0.4270  0.1459
   10MOL0     C 1282   5.909   6.304   7.485 -0.2240  0.2089 -0.7459
   10MOL0     H 1283   5.672   6.501   7.921  0.4286 -0.0946 -0.4543
   10MOL0     H 1284   5.539   6.599   8.097  0.9754 -0.4252 -0.2212
   10MOL0     H 1285   5.395   6.604   8.283  0.4851 -0.3095 -1.0655
   10MOL0     H 1286   5.247   6.687   8.303  2.4046 -0.3564  1.1663
   10MOL0     H 1287   5.211   6.489   8.460  0.2446 -0.6728 -0.2174
   10MOL0     H 1288   5.275   6.386   8.322 -3.4390 -2.1905 -0.8938
   10MOL0     H 1289   5.065   6.445   8.203  0.5314 -2.9094  0.0382
   10MOL0     H 1290   5.037   6.563   8.330  1.9131  0.2002  2.1502
   10MOL0     H 1291   5.102   6.271   8.362  3.9495  2.0524  1.9440
   10MOL0     H 1292   5.031   6.365   8.494  2.7532  0.2610  0.1262
   10MOL0     H 1293   4.808   6.368   8.364  2.1303  1.6494  0.8328
   10MOL0     H 1294   4.888   6.261   8.244  1.1695 -1.0460  0.6524
   10MOL0     H 1295   4.931   6.092   8.437 -1.3374 -1.2910  0.1271
   10MOL0     H 1296   4.862   6.210   8.542  4.0629  2.2179 -1.5963
   10MOL0     H 1297   4.722   6.140   8.290  0.5075  2.5031  0.1957
   10MOL0     H 1298   4.636   6.179   8.437 -0.7829 -0.9612 -2.0634
   10MOL0     H 1299   4.760   5.916   8.377 -1.9635 -1.5495  0.6321
   10MOL0     H 1300   4.705   5.959   8.538  0.3769  1.0847 -0.2409
   10MOL0     H 1301   4.600   5.721   8.308  0.3316 -0.0275 -0.2209
   10MOL0     H 1302   4.271   5.621   8.431  1.8527  1.0322  0.9418
   10MOL0     H 1303   4.243   5.711   8.273 -1.4778 -0.9849  0.8955
   10MOL0     H 1304   4.442   5.608   8.169  5.3426 -0.1046  1.9041
   10MOL0     H 1305   4.468   5.510   8.310 -1.5321 -1.7667  1.5790
   10MOL0     H 1306   4.224   5.441   8.279  0.5924  1.3997 -0.9683
   10MOL0     H 1307   4.359   5.359   8.199 -1.8025 -1.4719 -2.0024
   10MOL0     H 1308   4.253   5.581   8.018 -1.5491  3.5673  2.0149
   10MOL0     H 1309   4.125   5.529   8.121 -0.1682  0.2707 -0.3050
   10MOL0     H 1310   4.104   5.184   7.836  0.6267 -0.8514  0.7018
   10MOL0     H 1311   4.191   5.124   7.604  2.2860  0.0512 -0.9780
   10MOL0     H 1312   4.541   5.071   7.331  1.3875 -0.1003 -0.6867
   10MOL0     H 1313   4.618   5.014   7.100 -0.1808 -1.7973  1.3213
   10MOL0     H 1314   4.386   5.155   6.736  0.7640  1.4396  0.4915
   10MOL0     H 1315   4.539   5.210   6.795 -2.2179  2.4351  1.1079
   10MOL0     H 1316   4.554   5.089   6.552  1.9480  0.7889 -0.1116
   10MOL0     H 1317   4.660   5.016   6.681 -1.7627 -4.5112  2.8049
   10MOL0     H 1318   4.570   4.827   6.585  1.1145 -0.3694  0.2752
   10MOL0     H 1319   4.464   4.849   6.718 -3.8502  2.0796 -0.3858
   10MOL0     H 1320   4.313   4.793   6.558 -0.7323  1.6315  2.8340
   10MOL0     H 1321   4.395   4.899   6.438  0.5544  1.9323  0.5066
   10MOL0     H 1322   4.316   5.094   6.542  0.5327 -0.6947 -1.7532
   10MOL0     H 1323   4.251   5.005   6.683  2.0595 -1.7580  0.5431
   10MOL0     H 1324   4.156   4.954   6.402 -1.0240  1.5611 -0.7326
   10MOL0     H 1325   4.077   4.918   6.556 -0.8641  0.7995  1.4332
   10MOL0     H 1326   4.085   5.198   6.435 -0.2579  1.2747  1.2891
   10MOL0     H 1327   4.045   5.165   6.608 -2.8410  1.8901 -0.2443
   10MOL0     H 1328   3.899   5.075   6.354 -1.9141 -4.6581  0.6562
   10MOL0     H 1329   3.862   4.991   6.501 -1.3771 -0.6528 -0.2059
   10MOL0     H 1330   4.270   5.198   6.941 -1.5009  0.5566  2.0179
   10MOL0     H 1331   4.195   5.268   7.161  0.2515  1.3986 -1.1281
   10MOL0     H 1332   4.468   5.452   7.648 -1.3959  4.5748  0.7619
   10MOL0     H 1333   4.386   5.513   7.875  1.9063 -2.2055  0.3665
   10MOL0     H 1334   5.181   6.469   7.950 -0.1071  2.4585 -0.6719
   10MOL0     H 1335   5.307   6.353   7.746  0.5483  2.0380 -1.2197
   10MOL0     H 1336   5.528   6.088   7.664  1.5027 -0.5277  1.1509
   10MOL0     H 1337   5.588   5.877   7.549  1.6734 -2.2234 -2.5356
   10MOL0     H 1338   5.609   5.751   7.404  1.6919  1.4463  5.7639
   10MOL0     H 1339   5.728   5.656   7.472 -1.1015 -0.3196  1.0741
   10MOL0     H 1340   5.828   5.700   7.195 -0.0483  0.6621  0.9796
   10MOL0     H 1341   5.666   5.615   7.202 -0.0032 -1.3466  1.5164
   10MOL0     H 1342   5.779   5.445   7.338  1.6662  0.4030  3.7282
   10MOL0     H 1343   5.919   5.542   7.351  0.8695 -1.5692 -1.3812
   10MOL0     H 1344   5.795   5.405   7.107  0.2772  0.4626  1.7258
   10MOL0     H 1345   5.926   5.526   7.088  2.2073  0.4679  1.7565
   10MOL0     H 1346   6.135   5.171   7.202  0.2795  0.0716  0.6151
   10MOL0     H 1347   5.932   6.078   7.371  0.4634  2.3967 -0.3003
   10MOL0     H 1348   5.951   6.336   7.581 -1.1399  0.9408 -0.5706
   10MOL0     H 1349   5.996   6.267   7.431  2.2014  1.7418  1.8072
   10MOL0     H 1350   5.864   6.390   7.436 -1.5892  0.7206  1.2953
   11MOL0     O 1351   9.353   1.042  11.035  0.1875 -0.3725 -0.3982
   11MOL0     C 1352   9.426   0.992  11.118  1.2498 -0.1987 -0.1194
   11MOL0     O 1353   9.550   1.046  11.149  0.4781  0.9085 -0.2717
   11MOL0     C 1354   9.598   1.136  11.060 -0.5041  0.1001 -1.2517
   11MOL0     C 1355   9.660   1.098  10.950 -0.6629  0.9902  0.4139
   11MOL0     C 1356   9.701   1.187  10.851  1.4523  0.5750  1.0338
   11MOL0     C 1357   9.688   1.324  10.856  0.7565  0.4969  0.1815
   11MOL0     O 1358   9.728   1.414  10.760 -0.7033 -0.3914 -1.1638
   11MOL0     C 1359   9.839   1.384  10.669  0.4347 -0.1137 -0.4589
   11MOL0     C 1360   9.781   1.373  10.535  0.4586  0.5423  0.4454
   11MOL0     C 1361   9.740   1.498  10.463 -0.3508  0.0619 -0.5488
   11MOL0     C 1362   9.651   1.491  10.341 -0.6108  0.7995 -0.1015
   11MOL0     C 1363   9.602   1.632  10.298  0.0612  0.1215  0.0833
   11MOL0     C 1364   9.574   1.647  10.147 -0.5146 -0.2651 -1.0737
   11MOL0     C 1365   9.479   1.540  10.086  1.2627  1.0448 -0.2778
   11MOL0     C 1366   9.343   1.513  10.153 -0.4841  0.3289 -0.1943
   11MOL0     N 1367   9.269   1.396  10.094 -0.0796 -0.9894  1.2493
   11MOL0     C 1368   9.145   1.362  10.146 -0.7166 -0.4128  0.8450
   11MOL0     C 1369   9.107   1.255  10.066  0.1999 -0.3454 -0.3962
   11MOL0     C 1370   8.986   1.158  10.083  0.8304  0.0110 -0.3501
   11MOL0     C 1371   9.012   1.021  10.012  0.8676 -0.0525  0.6460
   11MOL0     C 1372   8.880   0.936  10.031  1.1212  0.1764  0.6991
   11MOL0     C 1373   8.890   0.807   9.963 -0.2074 -0.3426 -0.5383
   11MOL0     O 1374   8.798   0.706  10.007 -0.2368 -0.5554 -0.7931
   11MOL0     C 1375   8.668   0.742   9.977 -0.1950  0.5124  0.2162
   11MOL0     C 1376   8.584   0.799  10.075 -1.2309  0.5437 -0.1950
   11MOL0     C 1377   8.448   0.829  10.043  0.1414  0.4239 -0.0983
   11MOL0     C 1378   8.399   0.784   9.918 -0.0480 -0.1857 -1.2725
   11MOL0     C 1379   8.252   0.797   9.901  0.6368 -0.2878  0.4244
   11MOL0     O 1380   8.200   0.803   9.783 -0.0331  0.2143  0.0496
   11MOL0     C 1381   8.062   0.800   9.766  0.0549 -0.5093 -0.2527
   11MOL0     C 1382   7.960   0.725   9.830 -0.4087 -0.8115 -0.0261
   11MOL0     C 1383   7.821   0.746   9.798 -0.4322  0.0547 -0.4155
   11MOL0     C 1384   7.784   0.847   9.705 -0.1618  0.0535  0.2991
   11MOL0     O 1385   7.656   0.875   9.658  0.3768 -0.1385  1.1315
   11MOL0     C 1386   7.554   0.804   9.719  0.0827 -0.1808 -0.0337
   11MOL0     C 1387   7.478   0.894   9.815  0.5646 -0.1297 -1.5308
   11MOL0     C 1388   7.536   0.884   9.963  0.4061  1.1341  0.8511
   11MOL0     C 1389   7.492   0.991  10.060 -0.1395  1.0174 -0.0555
   11MOL0     C 1390   7.556   1.117  10.014  0.0695 -0.6741  0.1724
   11MOL0     C 1391   7.504   1.224  10.113  0.0517  0.0869  0.4962
   11MOL0     C 1392   7.574   1.355  10.082 -0.8264  0.4781 -0.7528
   11MOL0     C 1393   7.526   1.417   9.947  0.7022  0.1328 -0.2896
   11MOL0    Cl 1394   7.613   1.571   9.914  0.3815  0.3924  0.6865
   11MOL0     C 1395   7.884   0.921   9.635 -0.3235 -0.9958  0.1503
   11MOL0     C 1396   8.026   0.894   9.670  0.0224 -1.0501  0.7201
   11MOL0     O 1397   8.187   0.802  10.008  0.3283 -0.7536  0.3434
   11MOL0     C 1398   8.489   0.743   9.819  0.6562  0.0165 -0.6566
   11MOL0     C 1399   8.620   0.726   9.849 -0.0105  0.2639  0.0922
   11MOL0     N 1400   9.201   1.236   9.966  1.0901  0.2000  0.2388
   11MOL0     N 1401   9.299   1.318   9.985 -0.0528 -0.0901  0.6182
   11MOL0     C 1402   9.620   1.362  10.976 -0.6431 -0.1833  0.5308
   11MOL0     C 1403   9.572   1.274  11.080 -0.2419  0.6632  0.5196
   11MOL0     C 1404   9.397   0.859  11.175  0.3328 -0.8478  1.0932
   11MOL0     C 1405   9.401   0.844  11.314  0.0344 -0.4210 -0.0528
   11MOL0     C 1406   9.401   0.719  11.373  0.9734 -0.1039 -0.0367
   11MOL0     C 1407   9.372   0.608  11.293  0.2435 -0.6952 -1.1128
   11MOL0     O 1408   9.386   0.480  11.344 -0.0140 -0.0189 -0.4403
   11MOL0     C 1409   9.456   0.455  11.464  0.7418  0.2131  0.5886
   11MOL0     C 1410   9.353   0.452  11.587  0.3041 -0.6757 -0.0392
   11MOL0     C 1411   9.317   0.313  11.634  0.4255  0.4200  0.1222
   11MOL0     C 1412   9.216   0.249  11.543  0.2802  0.1507  0.6131
   11MOL0     C 1413   9.126   0.155  11.601  0.8552 -0.1343 -0.7901
   11MOL0     C 1414   9.037   0.092  11.657  0.3946 -0.5000 -0.6130
   11MOL0     C 1415   9.344   0.630  11.158  0.0313 -0.4382  0.1167
   11MOL0     C 1416   9.365   0.751  11.087 -1.0242 -0.0137 -0.9445
   11MOL0     C 1417   9.362   0.753  10.934 -0.1090  0.6524  0.7970
   11MOL0     H 1418   9.682   0.998  10.914  3.0638  0.2927  3.8262
   11MOL0     H 1419   9.736   1.132  10.764 -3.1044 -3.4864  1.3890
   11MOL0     H 1420   9.907   1.470  10.671  1.0482 -0.4914 -2.4105
   11MOL0     H 1421   9.892   1.292  10.694  0.8895  0.6020  1.3429
   11MOL0     H 1422   9.694   1.309  10.554 -0.6715  1.8843 -0.0048
   11MOL0     H 1423   9.852   1.316  10.475  0.8187  0.5488  0.8612
   11MOL0     H 1424   9.827   1.560  10.441 -0.0363 -0.3479 -0.4744
   11MOL0     H 1425   9.678   1.557  10.531 -0.0073 -0.8836  0.6087
   11MOL0     H 1426   9.705   1.429  10.269 -0.6294 -2.5822  2.5809
   11MOL0     H 1427   9.560   1.436  10.367 -0.9603  0.8867 -1.0657
   11MOL0     H 1428   9.509   1.660  10.348  1.4136  2.5782  1.4056
   11MOL0     H 1429   9.670   1.711  10.331 -1.0962  1.6149 -0.9987
   11MOL0     H 1430   9.521   1.743  10.144  0.5819  0.5312  1.5851
   11MOL0     H 1431   9.655   1.670  10.078  1.5089 -0.3048  1.1726
   11MOL0     H 1432   9.525   1.442  10.075  1.2471  1.0570 -0.4660
   11MOL0     H 1433   9.454   1.559   9.981 -3.2587 -0.8553  0.2368
   11MOL0     H 1434   9.358   1.499  10.261  2.9976  1.3190 -0.4286
   11MOL0     H 1435   9.272   1.594  10.135 -1.7384 -0.2732  1.6924
   11MOL0     H 1436   9.102   1.407  10.234  0.7635  1.4964  0.6556
   11MOL0     H 1437   8.960   1.135  10.187 -1.5735 -1.1599 -1.1255
   11MOL0     H 1438   8.896   1.207  10.045  0.3755  1.2226  2.1179
   11MOL0     H 1439   9.012   1.051   9.906  0.3540 -0.0164  0.6535
   11MOL0     H 1440   9.104   0.966  10.034 -0.4415 -1.6192  2.5299
   11MOL0     H 1441   8.800   1.001   9.994 -0.4122 -1.5664  0.8495
   11MOL0     H 1442   8.859   0.913  10.136 -0.9875  0.7236  0.4328
   11MOL0     H 1443   8.991   0.767   9.979  0.6221  2.1500  1.0407
   11MOL0     H 1444   8.881   0.820   9.855 -1.4095  0.1612 -0.3856
   11MOL0     H 1445   8.625   0.799  10.175 -2.5007 -2.6575  0.4497
   11MOL0     H 1446   8.374   0.865  10.114 -0.8149  0.4779 -1.1101
   11MOL0     H 1447   8.001   0.659   9.906  0.6881 -2.1390 -1.7051
   11MOL0     H 1448   7.749   0.683   9.851  1.6570 -1.1666  1.1027
   11MOL0     H 1449   7.479   0.790   9.640  0.5814  1.1440 -0.7688
   11MOL0     H 1450   7.580   0.706   9.760  1.3023 -0.1493 -0.6746
   11MOL0     H 1451   7.464   0.997   9.780  0.4454  0.8411  1.1929
   11MOL0     H 1452   7.374   0.860   9.820 -0.3305  2.6176  1.0366
   11MOL0     H 1453   7.497   0.786   9.995  0.1201  0.7075 -0.7130
   11MOL0     H 1454   7.643   0.873   9.944 -0.1216  0.1324 -2.0604
   11MOL0     H 1455   7.534   0.959  10.156  1.7442  0.6662 -0.9732
   11MOL0     H 1456   7.383   0.991  10.077 -0.1565 -3.4304  1.1044
   11MOL0     H 1457   7.536   1.144   9.911 -1.4276 -1.1547  0.3231
   11MOL0     H 1458   7.662   1.119  10.042 -0.3619  1.0870  1.9097
   11MOL0     H 1459   7.398   1.250  10.106  0.0354 -0.1074  0.0423
   11MOL0     H 1460   7.523   1.195  10.217 -3.1994 -2.0789  0.6449
   11MOL0     H 1461   7.683   1.344  10.089 -0.7808  1.7517  2.0973
   11MOL0     H 1462   7.547   1.424  10.163 -1.8213 -2.2474  1.3866
   11MOL0     H 1463   7.544   1.352   9.861  1.3750  0.8292 -0.6855
   11MOL0     H 1464   7.419   1.432   9.958  0.7459  0.9726 -0.9722
   11MOL0     H 1465   7.855   0.999   9.565 -0.3102  0.1243  1.3587
   11MOL0     H 1466   8.100   0.956   9.620  0.6718 -0.2690  2.5472
   11MOL0     H 1467   8.441   0.708   9.728 -0.5147 -0.2055  0.0359
   11MOL0     H 1468   8.691   0.692   9.774  0.1345  3.0091 -1.1337
   11MOL0     H 1469   9.620   1.470  10.987  2.8526  0.1384 -1.2352
   11MOL0     H 1470   9.515   1.322  11.159 -0.4333  0.4421  0.5170
   11MOL0     H 1471   9.421   0.931  11.376 -2.1804  0.9213 -1.0657
   11MOL0     H 1472   9.419   0.714  11.480 -1.2118  0.6715  0.4265
   11MOL0     H 1473   9.529   0.537  11.468  1.1969 -0.1391 -0.2433
   11MOL0     H 1474   9.509   0.360  11.450 -2.3014 -1.5392  0.0846
   11MOL0     H 1475   9.266   0.518  11.576  0.9967  1.0217  3.4496
   11MOL0     H 1476   9.403   0.490  11.676  3.6758 -0.7688 -1.7516
   11MOL0     H 1477   9.277   0.333  11.734 -2.1900 -0.0061 -0.7582
   11MOL0     H 1478   9.404   0.250  11.654  1.3437  1.6752  0.2405
   11MOL0     H 1479   9.161   0.327  11.491  0.4361 -0.4589 -0.4844
   11MOL0     H 1480   9.276   0.194  11.470 -0.7606  4.3318 -3.9242
   11MOL0     H 1481   8.951   0.043  11.698 -1.3912  0.8377 -2.5103
   11MOL0     H 1482   9.327   0.549  11.088 -0.4228  1.7728 -2.4556
   11MOL0     H 1483   9.264   0.792  10.904 -0.3614  0.6428  1.5907
   11MOL0     H 1484   9.438   0.821  10.894 -1.5237  0.1448 -3.3035
   11MOL0     H 1485   9.379   0.652  10.896 -0.2982 -0.1710  2.8148
   12MOL0     O 1486   9.249   0.214   2.574 -0.4504 -0.1949  0.0821
   12MOL0     C 1487   9.357   0.254   2.530  0.0621  0.4696  0.8602
   12MOL0     O 1488   9.484   0.197   2.536  0.9657 -0.3307 -0.0681
   12MOL0     C 1489   9.518   0.108   2.629  0.6864  0.6249 -0.7819
   12MOL0     C 1490   9.649   0.057   2.618  0.2815  0.2360  0.7542
   12MOL0     C 1491   9.695  -0.039   2.703  0.7233 -0.2305 -0.3972
   12MOL0     C 1492   9.613  -0.090   2.806 -0.9914  0.9958  0.3025
   12MOL0     O 1493   9.666  -0.181   2.889  0.5017 -0.0768  0.4234
   12MOL0     C 1494   9.638  -0.165   3.027  0.2941 -0.4248  0.9789
   12MOL0     C 1495   9.741  -0.252   3.097  0.9474 -0.2888 -0.4877
   12MOL0     C 1496   9.879  -0.188   3.078 -0.3798 -0.3016  0.3308
   12MOL0     C 1497   9.949  -0.258   2.972 -0.5596  0.4059  0.6157
   12MOL0     C 1498  10.075  -0.178   2.930  1.0980  0.5187  0.1260
   12MOL0     C 1499  10.104  -0.203   2.783 -0.7362  0.4954 -0.6632
   12MOL0     C 1500  10.249  -0.160   2.753 -0.1730 -0.0632  0.0496
   12MOL0     C 1501  10.288  -0.006   2.757 -0.8588 -0.2254  0.6564
   12MOL0     N 1502  10.437   0.001   2.725 -0.5774 -0.6293 -1.1303
   12MOL0     C 1503  10.503  -0.075   2.637  0.0839 -1.4292 -0.5447
   12MOL0     C 1504  10.626  -0.031   2.632  0.9541 -0.3168  0.4015
   12MOL0     C 1505  10.736  -0.075   2.551 -0.3387  0.4398 -0.0087
   12MOL0     C 1506  10.857  -0.124   2.640  1.1699  0.3290  0.6253
   12MOL0     C 1507  10.815  -0.245   2.736 -0.2999 -0.0206  0.0862
   12MOL0     C 1508  10.939  -0.326   2.764 -0.0746 -0.6455  0.6537
   12MOL0     O 1509  10.912  -0.418   2.872  0.3317 -0.2763 -0.2285
   12MOL0     C 1510  11.000  -0.448   2.972  0.0046  1.2156 -0.2317
   12MOL0     C 1511  10.964  -0.560   3.058  1.2396 -0.1011  0.2896
   12MOL0     C 1512  11.034  -0.579   3.174 -0.2893  0.4374 -0.4078
   12MOL0     C 1513  11.151  -0.516   3.200 -0.9002  0.5592 -0.1639
   12MOL0     C 1514  11.222  -0.543   3.325  0.1980 -1.5994 -1.3447
   12MOL0     O 1515  11.178  -0.650   3.392  0.2676 -0.3835  0.1577
   12MOL0     C 1516  11.223  -0.668   3.520 -0.8266  0.3283 -0.2182
   12MOL0     C 1517  11.245  -0.803   3.558 -0.0858  0.0040 -1.1499
   12MOL0     C 1518  11.292  -0.840   3.689 -0.7059 -0.4712  0.7069
   12MOL0     C 1519  11.308  -0.737   3.784  0.3096  0.6089 -0.1604
   12MOL0     O 1520  11.363  -0.783   3.906 -0.3263 -0.1840 -0.1618
   12MOL0     C 1521  11.289  -0.895   3.973 -0.3456  0.4126  0.3697
   12MOL0     C 1522  11.341  -0.911   4.118 -0.3226  1.2339  0.0987
   12MOL0     C 1523  11.480  -0.987   4.124  1.0657  0.7520 -0.2516
   12MOL0     C 1524  11.498  -1.110   4.029 -0.6841 -0.2591  0.2329
   12MOL0     C 1525  11.595  -1.212   4.080 -0.9352  0.6416  0.5037
   12MOL0     C 1526  11.614  -1.320   3.970  0.6186  0.2257  0.1974
   12MOL0     C 1527  11.694  -1.437   4.042  0.1990 -0.7394  0.6319
   12MOL0     C 1528  11.746  -1.543   3.943  1.2591  0.2316 -0.7437
   12MOL0    Cl 1529  11.608  -1.640   3.892 -0.8421  0.6582  0.3816
   12MOL0     C 1530  11.286  -0.603   3.757 -0.3412 -0.4401 -0.3654
   12MOL0     C 1531  11.243  -0.567   3.629 -0.0753 -0.5686  0.5151
   12MOL0     O 1532  11.308  -0.460   3.361 -0.4520 -0.0256 -0.4765
   12MOL0     C 1533  11.193  -0.417   3.112 -0.0280  0.1394 -0.6115
   12MOL0     C 1534  11.116  -0.380   3.001  0.1845 -0.7929  0.2009
   12MOL0     N 1535  10.633   0.075   2.724 -0.2693  0.0696 -0.3788
   12MOL0     N 1536  10.515   0.098   2.770 -0.1291 -0.1405 -0.3376
   12MOL0     C 1537   9.482  -0.063   2.809  0.1547  0.0912  1.4314
   12MOL0     C 1538   9.436   0.040   2.721 -0.6563 -0.9905 -0.4480
   12MOL0     C 1539   9.351   0.377   2.454 -0.9884  0.0170  0.2384
   12MOL0     C 1540   9.231   0.413   2.382 -0.8464  0.2485 -0.0634
   12MOL0     C 1541   9.241   0.517   2.292  0.9523  1.3218 -0.4758
   12MOL0     C 1542   9.346   0.600   2.278  0.3684  1.2119  0.0209
   12MOL0     O 1543   9.350   0.711   2.190 -0.6066  0.9597  0.0604
   12MOL0     C 1544   9.228   0.782   2.183 -0.2224  0.8985  0.0789
   12MOL0     C 1545   9.150   0.739   2.055  0.4439 -0.1656  0.5876
   12MOL0     C 1546   9.206   0.794   1.920 -0.1848 -0.4249  0.0605
   12MOL0     C 1547   9.147   0.698   1.799 -0.0171 -0.6474 -0.1760
   12MOL0     C 1548   9.180   0.553   1.823 -0.0137 -0.1265  1.0509
   12MOL0     C 1549   9.208   0.436   1.845  0.2557 -0.7562 -0.7684
   12MOL0     C 1550   9.455   0.575   2.358  0.4046  0.3200 -0.5052
   12MOL0     C 1551   9.459   0.471   2.449  0.2223 -0.3895 -0.6652
   12MOL0     C 1552   9.588   0.447   2.528 -0.0904 -0.2683  0.0605
   12MOL0     H 1553   9.711   0.105   2.543 -0.3299 -1.8106 -1.2026
   12MOL0     H 1554   9.800  -0.068   2.695  0.1564 -2.3208 -0.8688
   12MOL0     H 1555   9.649  -0.060   3.056 -0.0133 -0.4254  1.1041
   12MOL0     H 1556   9.533  -0.189   3.045 -0.4706 -0.4870 -2.6351
   12MOL0     H 1557   9.732  -0.358   3.071 -4.3043  0.1379 -1.5098
   12MOL0     H 1558   9.732  -0.251   3.206  3.6450 -1.2226 -0.1856
   12MOL0     H 1559   9.936  -0.179   3.171 -3.3320 -1.2416  2.3829
   12MOL0     H 1560   9.862  -0.090   3.032 -0.0224 -1.3634 -2.2196
   12MOL0     H 1561   9.970  -0.360   3.005  2.0271  0.9596  0.8940
   12MOL0     H 1562   9.886  -0.265   2.883 -0.5599 -2.2062  0.7211
   12MOL0     H 1563  10.075  -0.073   2.959 -0.6050  0.5318  0.1562
   12MOL0     H 1564  10.149  -0.225   2.995  1.1340  0.6349  0.1693
   12MOL0     H 1565  10.103  -0.310   2.762  2.1329  0.2662  0.0141
   12MOL0     H 1566  10.031  -0.156   2.716 -2.1271  0.1059  0.5226
   12MOL0     H 1567  10.274  -0.204   2.655  0.8353  0.7697 -0.0888
   12MOL0     H 1568  10.314  -0.216   2.821  0.9288  1.6145  0.4264
   12MOL0     H 1569  10.221   0.056   2.695  1.8663 -0.0886 -2.4727
   12MOL0     H 1570  10.282   0.025   2.861 -1.7688  0.7692  0.3355
   12MOL0     H 1571  10.455  -0.162   2.594 -0.5124 -1.2218 -0.3098
   12MOL0     H 1572  10.710  -0.155   2.481 -1.9615 -2.3066  3.3849
   12MOL0     H 1573  10.767   0.015   2.497  1.7699 -0.9690 -1.2847
   12MOL0     H 1574  10.935  -0.145   2.566 -0.7854  1.4954 -1.9449
   12MOL0     H 1575  10.900  -0.042   2.699  0.4353 -0.9680  3.1155
   12MOL0     H 1576  10.738  -0.308   2.690 -0.4867  0.4281 -0.2258
   12MOL0     H 1577  10.780  -0.212   2.835 -1.0963 -1.9092  0.4773
   12MOL0     H 1578  11.011  -0.251   2.798 -2.2042  2.9043 -1.9993
   12MOL0     H 1579  10.980  -0.386   2.682 -1.8448 -0.5207 -0.3754
   12MOL0     H 1580  10.873  -0.613   3.031  0.7969  0.0931  1.3466
   12MOL0     H 1581  10.999  -0.662   3.235  1.6596 -0.6656 -0.7151
   12MOL0     H 1582  11.221  -0.888   3.494 -1.4532  1.0203 -2.0422
   12MOL0     H 1583  11.300  -0.944   3.721 -0.4811 -0.6660  0.0176
   12MOL0     H 1584  11.183  -0.871   3.983 -1.0150 -1.6165 -1.0999
   12MOL0     H 1585  11.292  -0.985   3.911 -1.2330  2.4823 -2.9615
   12MOL0     H 1586  11.345  -0.815   4.170 -3.0675  0.3150  2.2230
   12MOL0     H 1587  11.262  -0.968   4.166 -1.4046  2.4425 -0.2141
   12MOL0     H 1588  11.570  -0.925   4.112  1.6429  0.0491  0.2896
   12MOL0     H 1589  11.493  -1.032   4.223  0.3204  0.4852 -0.2734
   12MOL0     H 1590  11.515  -1.099   3.921  2.0954 -1.9555  0.3897
   12MOL0     H 1591  11.402  -1.161   4.044  0.1413 -1.6354  1.0213
   12MOL0     H 1592  11.556  -1.267   4.166 -1.9045  0.1232 -0.2414
   12MOL0     H 1593  11.689  -1.174   4.120 -0.7623 -0.7359  1.4824
   12MOL0     H 1594  11.520  -1.353   3.924  0.5697  1.0542 -0.3101
   12MOL0     H 1595  11.663  -1.276   3.883 -0.7996  0.4138 -0.5306
   12MOL0     H 1596  11.641  -1.475   4.130 -1.6988  4.2727  1.9993
   12MOL0     H 1597  11.781  -1.393   4.091  2.7668  0.1195 -4.1492
   12MOL0     H 1598  11.794  -1.499   3.855 -0.3635  2.1487 -0.7560
   12MOL0     H 1599  11.818  -1.606   3.995  0.0632 -0.5359  0.0463
   12MOL0     H 1600  11.307  -0.526   3.831  4.1531 -1.8019  0.0437
   12MOL0     H 1601  11.220  -0.469   3.590 -3.4693 -1.8753 -1.1349
   12MOL0     H 1602  11.288  -0.372   3.138 -0.2061 -1.3724  3.3974
   12MOL0     H 1603  11.160  -0.294   2.951  0.2345 -1.6908 -1.3438
   12MOL0     H 1604   9.405  -0.093   2.880 -1.4278 -0.3226 -0.3751
   12MOL0     H 1605   9.333   0.065   2.744 -0.3906 -0.2200 -0.0631
   12MOL0     H 1606   9.151   0.340   2.379 -0.4306 -0.2662  0.7699
   12MOL0     H 1607   9.146   0.518   2.239  0.6883 -3.4390 -0.5579
   12MOL0     H 1608   9.258   0.887   2.185  1.3370  0.5282  3.5832
   12MOL0     H 1609   9.168   0.764   2.272  0.9983 -2.8996  0.3235
   12MOL0     H 1610   9.050   0.783   2.060  0.4119 -0.3129  1.2876
   12MOL0     H 1611   9.144   0.630   2.060 -0.7338 -0.1399  0.0158
   12MOL0     H 1612   9.314   0.783   1.918  0.5006  4.2477  0.0663
   12MOL0     H 1613   9.187   0.901   1.905  0.4454 -0.4798 -1.2874
   12MOL0     H 1614   9.040   0.719   1.813  0.2203  1.0881 -0.7649
   12MOL0     H 1615   9.150   0.737   1.697 -0.8058  1.7263  0.6535
   12MOL0     H 1616   9.231   0.331   1.848 -1.0259 -1.0335  1.1727
   12MOL0     H 1617   9.543   0.637   2.345  1.1181 -1.2679 -4.4887
   12MOL0     H 1618   9.570   0.413   2.630  0.2046 -1.1659 -0.1731
   12MOL0     H 1619   9.666   0.386   2.481  1.4671  3.8988 -3.4312
   12MOL0     H 1620   9.632   0.547   2.534  0.4398 -0.4524 -0.5629
   13MOL0     O 1621   9.500   8.353   4.253 -0.5831 -0.7292  1.1357
   13MOL0     C 1622   9.404   8.295   4.280  0.4272  0.2577 -0.4987
   13MOL0     O 1623   9.285   8.308   4.223  0.5584 -0.2633  0.5734
   13MOL0     C 1624   9.271   8.345   4.093 -0.4802 -0.4127  1.0108
   13MOL0     C 1625   9.143   8.328   4.041  0.1822  0.0381  0.1806
   13MOL0     C 1626   9.117   8.358   3.899  0.1648  0.3782 -0.7549
   13MOL0     C 1627   9.215   8.413   3.814  0.0139  0.2683  0.3650
   13MOL0     O 1628   9.169   8.446   3.693 -1.0768  0.0318  0.1328
   13MOL0     C 1629   9.223   8.549   3.619  0.0086  0.7832  0.6430
   13MOL0     C 1630   9.113   8.602   3.536  0.0861 -0.0154  0.1210
   13MOL0     C 1631   9.154   8.703   3.439 -0.0109 -0.2458  0.2108
   13MOL0     C 1632   9.030   8.753   3.371 -0.8390 -0.2153 -0.1402
   13MOL0     C 1633   9.058   8.887   3.294  0.3017 -1.2244  0.3564
   13MOL0     C 1634   9.128   8.848   3.159 -0.0019  0.0536 -0.1580
   13MOL0     C 1635   9.032   8.811   3.049 -0.6877 -0.2262 -0.2366
   13MOL0     C 1636   9.097   8.792   2.912 -0.3032  0.8893  0.8506
   13MOL0     N 1637   9.201   8.880   2.854 -0.1666 -0.9138  0.3709
   13MOL0     C 1638   9.324   8.924   2.896 -0.9880  0.2338  0.7349
   13MOL0     C 1639   9.374   8.991   2.787  0.0428 -0.3451 -0.4047
   13MOL0     C 1640   9.516   9.039   2.781  0.4105 -0.4553 -0.2416
   13MOL0     C 1641   9.534   9.178   2.838  0.3144 -0.0143  0.1156
   13MOL0     C 1642   9.676   9.224   2.851 -0.4392  0.0692 -1.2003
   13MOL0     C 1643   9.755   9.153   2.958  0.1939 -0.2775 -0.6454
   13MOL0     O 1644   9.687   9.148   3.082  0.9321 -0.3036 -0.2659
   13MOL0     C 1645   9.712   9.024   3.142 -0.2053  0.5374  0.5557
   13MOL0     C 1646   9.832   8.954   3.138 -0.0209  0.8972 -0.0253
   13MOL0     C 1647   9.838   8.831   3.210 -0.9232  0.1321  0.4573
   13MOL0     C 1648   9.735   8.786   3.280  0.0236 -0.3215 -0.2570
   13MOL0     C 1649   9.750   8.664   3.363  0.0400  0.4276  0.4332
   13MOL0     O 1650   9.640   8.642   3.452  0.1636  0.3605  1.4581
   13MOL0     C 1651   9.666   8.544   3.544 -0.1106  0.5011  0.5870
   13MOL0     C 1652   9.630   8.409   3.510 -0.2125  0.2251 -0.9451
   13MOL0     C 1653   9.643   8.310   3.612 -0.3250  0.7864 -0.2412
   13MOL0     C 1654   9.682   8.345   3.743  0.0740  0.0413 -0.7638
   13MOL0     O 1655   9.696   8.254   3.844 -0.7043  1.1694  0.4440
   13MOL0     C 1656   9.624   8.127   3.851 -0.2217 -0.0066  0.8147
   13MOL0     C 1657   9.602   8.076   3.989 -0.4135 -0.7477  0.7098
   13MOL0     C 1658   9.495   7.963   3.993 -0.6209  0.5668 -0.5701
   13MOL0     C 1659   9.352   8.005   3.960 -0.4249 -0.7372  0.8551
   13MOL0     C 1660   9.248   7.904   3.981  0.2741  0.3623  0.1062
   13MOL0     C 1661   9.132   7.969   4.046  1.1519 -0.6055  1.1060
   13MOL0     C 1662   9.144   7.998   4.203  0.7287 -0.1794 -0.1438
   13MOL0     C 1663   9.136   7.879   4.293 -0.0445 -0.0556 -0.1729
   13MOL0    Cl 1664   8.971   7.815   4.309  0.0955  0.0149 -0.0142
   13MOL0     C 1665   9.718   8.478   3.768  0.4794  0.6626 -1.1882
   13MOL0     C 1666   9.694   8.581   3.673 -0.6667 -0.2083 -0.2433
   13MOL0     O 1667   9.852   8.595   3.366  0.3893  0.1608  0.4391
   13MOL0     C 1668   9.609   8.842   3.265 -0.7764 -0.2278 -0.5464
   13MOL0     C 1669   9.602   8.966   3.204  0.0721 -0.0381 -0.3707
   13MOL0     N 1670   9.277   9.002   2.688 -0.2876  0.7324  0.2203
   13MOL0     N 1671   9.182   8.927   2.726 -0.4321  0.0066 -0.2923
   13MOL0     C 1672   9.349   8.420   3.863  0.1533 -0.5203 -0.1153
   13MOL0     C 1673   9.372   8.386   3.992 -0.3414 -0.4918 -0.3552
   13MOL0     C 1674   9.400   8.228   4.414 -0.7603 -0.8210 -0.3183
   13MOL0     C 1675   9.289   8.249   4.491  0.4676  0.8518  0.2690
   13MOL0     C 1676   9.281   8.185   4.621  0.6762  0.1415 -0.7948
   13MOL0     C 1677   9.371   8.089   4.666  0.3199 -1.1218 -0.2960
   13MOL0     O 1678   9.363   8.012   4.780  0.3641 -1.0839  0.9889
   13MOL0     C 1679   9.249   7.931   4.790  0.1703  0.1430  0.7349
   13MOL0     C 1680   9.258   7.817   4.682  0.2293  0.1644 -0.3107
   13MOL0     C 1681   9.379   7.719   4.705 -0.1346  0.1598  0.2552
   13MOL0     C 1682   9.386   7.613   4.585 -0.6251 -0.0175 -0.5112
   13MOL0     C 1683   9.435   7.665   4.455  0.3183 -0.0425  0.4477
   13MOL0     C 1684   9.474   7.711   4.348  0.6064  0.5007 -0.5947
   13MOL0     C 1685   9.468   8.058   4.570 -0.0581  0.1537 -0.0750
   13MOL0     C 1686   9.489   8.131   4.451 -0.0525  0.3402 -0.1009
   13MOL0     C 1687   9.610   8.091   4.365 -0.2718  0.4672 -0.4209
   13MOL0     H 1688   9.066   8.292   4.108  0.7145 -1.0459  0.2305
   13MOL0     H 1689   9.012   8.352   3.873  0.2922 -2.6736 -0.9326
   13MOL0     H 1690   9.262   8.626   3.686 -1.4655  0.1441  2.2978
   13MOL0     H 1691   9.298   8.505   3.552 -3.3591 -0.8607 -2.4378
   13MOL0     H 1692   9.041   8.647   3.605  0.6207  0.5082  0.3461
   13MOL0     H 1693   9.075   8.521   3.473  0.7948 -0.1835 -0.0977
   13MOL0     H 1694   9.227   8.658   3.372  3.0876  1.7009  2.0059
   13MOL0     H 1695   9.201   8.791   3.484  1.9335 -0.3699 -1.4684
   13MOL0     H 1696   8.996   8.672   3.306  3.7848 -0.5180 -2.5941
   13MOL0     H 1697   8.955   8.775   3.448 -1.6197 -1.9696 -0.3435
   13MOL0     H 1698   8.961   8.931   3.267  1.5319  0.6781 -1.3309
   13MOL0     H 1699   9.125   8.950   3.353  0.5454 -2.6808  1.6684
   13MOL0     H 1700   9.191   8.933   3.131  1.8618 -0.8068  1.2033
   13MOL0     H 1701   9.201   8.767   3.168 -0.0216 -0.1023 -1.2308
   13MOL0     H 1702   8.960   8.893   3.044  0.7904  1.0590 -1.4723
   13MOL0     H 1703   8.985   8.717   3.077  0.3058 -0.6825 -0.0544
   13MOL0     H 1704   9.134   8.689   2.903 -1.9740  0.4300 -2.3758
   13MOL0     H 1705   9.019   8.782   2.836  1.0130 -2.8328 -0.2280
   13MOL0     H 1706   9.371   8.875   2.981  1.7074 -0.5862 -1.1165
   13MOL0     H 1707   9.570   8.966   2.841 -0.3636  0.1897  1.2788
   13MOL0     H 1708   9.550   9.047   2.677  1.5283  0.5876  0.1841
   13MOL0     H 1709   9.488   9.257   2.777  1.7291  1.4159  0.8252
   13MOL0     H 1710   9.494   9.195   2.938  0.7948  2.2860 -0.0296
   13MOL0     H 1711   9.682   9.329   2.881 -0.6358 -0.6770  1.8187
   13MOL0     H 1712   9.740   9.207   2.764  3.3205 -0.4677  1.4123
   13MOL0     H 1713   9.851   9.203   2.977 -0.1420 -0.5126  2.1205
   13MOL0     H 1714   9.768   9.051   2.923  2.8504 -0.9781  1.9554
   13MOL0     H 1715   9.921   8.995   3.091 -0.9105 -0.6297 -3.2627
   13MOL0     H 1716   9.935   8.788   3.234  0.6329  3.4288  0.7268
   13MOL0     H 1717   9.582   8.378   3.418  1.9208 -0.5838 -1.8600
   13MOL0     H 1718   9.610   8.212   3.577  1.9456  0.6709 -2.3649
   13MOL0     H 1719   9.530   8.145   3.796  0.5543  2.7922  0.2307
   13MOL0     H 1720   9.673   8.046   3.796 -1.9990  1.8426 -4.1013
   13MOL0     H 1721   9.701   8.043   4.021  1.6866  0.1591 -3.8926
   13MOL0     H 1722   9.578   8.163   4.050  1.2455 -0.2564  0.7167
   13MOL0     H 1723   9.517   7.880   3.925  0.9539  1.5069 -1.2784
   13MOL0     H 1724   9.494   7.922   4.094  0.3099 -1.8423 -1.4693
   13MOL0     H 1725   9.352   8.034   3.854  1.5713 -0.4645  0.8869
   13MOL0     H 1726   9.325   8.094   4.017 -1.3334 -1.3195  1.3587
   13MOL0     H 1727   9.280   7.830   4.055  0.1130  0.2788  0.0946
   13MOL0     H 1728   9.223   7.852   3.888 -1.1025  0.2353  0.5124
   13MOL0     H 1729   9.117   8.061   3.988  1.5253 -1.0356  0.3048
   13MOL0     H 1730   9.040   7.917   4.019 -0.4443  3.0978 -1.3529
   13MOL0     H 1731   9.055   8.057   4.224  0.1273 -0.7843 -0.9151
   13MOL0     H 1732   9.238   8.049   4.226  1.6060 -0.6633 -2.3642
   13MOL0     H 1733   9.196   7.797   4.253 -0.2273 -0.5208  0.4785
   13MOL0     H 1734   9.165   7.916   4.392 -0.8364 -0.2853  0.1584
   13MOL0     H 1735   9.754   8.500   3.868  1.1661  0.7774 -1.4602
   13MOL0     H 1736   9.700   8.688   3.693  0.9229 -0.3606  0.2174
   13MOL0     H 1737   9.528   8.774   3.292 -0.5051 -0.1982  0.3814
   13MOL0     H 1738   9.499   9.000   3.199 -0.4169 -1.0971  1.5315
   13MOL0     H 1739   9.424   8.456   3.792 -0.9844 -0.6171 -1.4104
   13MOL0     H 1740   9.477   8.383   4.018  0.7346 -0.0753 -4.0718
   13MOL0     H 1741   9.205   8.312   4.462 -0.0566 -0.4703 -1.2118
   13MOL0     H 1742   9.212   8.221   4.697  1.7922  0.3595  0.1446
   13MOL0     H 1743   9.163   7.997   4.778 -0.8107 -1.4591 -2.0609
   13MOL0     H 1744   9.236   7.886   4.889  0.9669 -2.4052 -0.2336
   13MOL0     H 1745   9.253   7.848   4.577  1.0472 -2.7030 -1.2834
   13MOL0     H 1746   9.167   7.758   4.695  1.1674 -0.8275  2.5792
   13MOL0     H 1747   9.356   7.655   4.791  1.4298 -0.1387  0.4883
   13MOL0     H 1748   9.477   7.768   4.706  0.1318 -0.3161 -0.6570
   13MOL0     H 1749   9.456   7.535   4.619  0.6256  0.9088 -0.8669
   13MOL0     H 1750   9.292   7.560   4.565  0.1289 -1.7030  0.1650
   13MOL0     H 1751   9.498   7.734   4.246 -1.2055 -1.3141 -1.4962
   13MOL0     H 1752   9.532   7.974   4.593  3.2163  2.6230  0.6175
   13MOL0     H 1753   9.688   8.034   4.417 -0.8421  0.5471  0.5530
   13MOL0     H 1754   9.568   8.030   4.285 -1.2047  2.0135 -1.1497
   13MOL0     H 1755   9.655   8.179   4.317 -0.6637  0.4268 -0.8613
   14MOL0     O 1756   5.554   8.413  10.327 -0.4082 -0.2773 -0.0632
   14MOL0     C 1757   5.678   8.435  10.335 -0.0573  0.5445 -0.0238
   14MOL0     O 1758   5.777   8.341  10.371  0.4042 -0.0051 -0.7817
   14MOL0     C 1759   5.762   8.207  10.385 -0.4678  0.3782  0.9129
   14MOL0     C 1760   5.648   8.123  10.345 -1.5158  0.4770  0.0300
   14MOL0     C 1761   5.662   7.983  10.359  1.1311 -0.4520 -0.4703
   14MOL0     C 1762   5.786   7.914  10.391  0.3834 -1.3775  0.4623
   14MOL0     O 1763   5.814   7.783  10.378 -0.7530 -0.0959  0.3172
   14MOL0     C 1764   5.908   7.704  10.456  0.8314 -0.8886 -0.1228
   14MOL0     C 1765   5.926   7.564  10.393 -0.4408  0.2195 -0.3810
   14MOL0     C 1766   5.972   7.562  10.237 -0.7199 -0.4884  0.0832
   14MOL0     C 1767   5.986   7.426  10.165  0.3521  0.6867 -0.5443
   14MOL0     C 1768   6.005   7.455  10.009  0.5473 -0.2475 -0.2190
   14MOL0     C 1769   6.152   7.488   9.981 -0.2375 -0.1763  0.3299
   14MOL0     C 1770   6.164   7.505   9.827 -0.0751  0.1105 -0.1203
   14MOL0     C 1771   6.304   7.544   9.780 -0.9026  0.1282 -0.7000
   14MOL0     N 1772   6.400   7.443   9.792 -0.9541  0.1826 -0.7201
   14MOL0     C 1773   6.513   7.461   9.867 -0.1502  0.2779 -0.5477
   14MOL0     C 1774   6.567   7.342   9.868  0.0349 -0.3262  0.3869
   14MOL0     C 1775   6.690   7.296   9.945 -0.8686  1.0472 -0.3363
   14MOL0     C 1776   6.654   7.177  10.033 -0.0400  0.6638 -0.0474
   14MOL0     C 1777   6.766   7.126  10.114 -0.3101 -0.7702 -1.5654
   14MOL0     C 1778   6.711   7.028  10.221  0.1734 -0.5533 -0.0054
   14MOL0     O 1779   6.822   6.956  10.263 -0.6179 -0.4300  0.8739
   14MOL0     C 1780   6.812   6.910  10.387  0.1611 -0.4461 -0.8520
   14MOL0     C 1781   6.791   6.992  10.498 -0.7068 -1.0096  0.4869
   14MOL0     C 1782   6.808   6.946  10.627 -0.1159  0.2749 -0.5187
   14MOL0     C 1783   6.841   6.814  10.647 -0.5511  0.6243 -0.3872
   14MOL0     C 1784   6.841   6.741  10.775 -0.8846 -0.7424 -1.1488
   14MOL0     O 1785   6.773   6.809  10.875 -0.1243 -0.1664  0.5934
   14MOL0     C 1786   6.753   6.739  10.987  0.3452 -0.7070  0.5820
   14MOL0     C 1787   6.849   6.729  11.079 -0.2074  0.2780  0.3644
   14MOL0     C 1788   6.818   6.674  11.209  0.1785  0.4966 -0.3509
   14MOL0     C 1789   6.689   6.627  11.240  0.0912  0.2134 -0.2883
   14MOL0     O 1790   6.641   6.573  11.360 -0.4213  1.0197  0.8719
   14MOL0     C 1791   6.678   6.642  11.480 -0.3010  0.2947 -0.4663
   14MOL0     C 1792   6.637   6.568  11.608 -0.3860 -0.8765  0.2441
   14MOL0     C 1793   6.755   6.504  11.693 -0.3215 -0.1838 -0.3323
   14MOL0     C 1794   6.828   6.619  11.783 -0.5463 -0.8590 -0.0257
   14MOL0     C 1795   6.915   6.564  11.898 -0.8463 -0.7416  0.5004
   14MOL0     C 1796   6.968   6.675  11.975 -0.5671 -0.0493  0.0342
   14MOL0     C 1797   7.090   6.621  12.058  0.7517  0.7090  0.0312
   14MOL0     C 1798   7.141   6.726  12.152  1.0081 -0.2603 -0.2400
   14MOL0    Cl 1799   7.240   6.636  12.260 -0.6978 -0.3466 -0.3039
   14MOL0     C 1800   6.598   6.638  11.136  0.1105  0.3503  0.3419
   14MOL0     C 1801   6.629   6.686  11.009 -0.7466  1.0112  0.2846
   14MOL0     O 1802   6.898   6.629  10.790  0.4772  0.4780  0.7286
   14MOL0     C 1803   6.860   6.728  10.536 -0.1521  0.3136  0.1470
   14MOL0     C 1804   6.852   6.781  10.404 -0.0808 -0.6043 -0.1611
   14MOL0     N 1805   6.490   7.260   9.783 -0.4770 -0.3693 -0.5183
   14MOL0     N 1806   6.394   7.323   9.725 -0.7453 -0.2453  0.8974
   14MOL0     C 1807   5.897   8.006  10.411  0.2532  0.2064 -0.6073
   14MOL0     C 1808   5.880   8.146  10.415  1.0511 -0.4005 -0.1758
   14MOL0     C 1809   5.719   8.579  10.337 -0.4528 -0.1483 -0.4807
   14MOL0     C 1810   5.847   8.612  10.396  0.4068 -0.1084  0.0045
   14MOL0     C 1811   5.896   8.738  10.414 -0.0982  0.6555  0.1988
   14MOL0     C 1812   5.817   8.840  10.374  0.2343 -0.3154  0.4511
   14MOL0     O 1813   5.867   8.959  10.405 -0.5928 -0.2901 -0.8009
   14MOL0     C 1814   5.798   9.080  10.359  0.2731  0.3453 -0.1931
   14MOL0     C 1815   5.877   9.201  10.362 -0.9489  0.4113  0.3115
   14MOL0     C 1816   6.024   9.182  10.313  0.4299 -0.5412  0.2733
   14MOL0     C 1817   6.103   9.308  10.317  0.8682 -0.5927 -0.3726
   14MOL0     C 1818   6.153   9.354  10.450  0.1797 -0.8300  0.6817
   14MOL0     C 1819   6.218   9.381  10.543  0.2686  0.4362 -0.7776
   14MOL0     C 1820   5.678   8.817  10.320 -0.4845 -0.1847 -0.2544
   14MOL0     C 1821   5.631   8.691  10.301  0.4328  0.2470 -0.1600
   14MOL0     C 1822   5.498   8.680  10.239  0.9654 -0.6419 -0.7408
   14MOL0     H 1823   5.568   8.167  10.288  0.3357 -1.3241 -4.3926
   14MOL0     H 1824   5.575   7.924  10.333 -0.5328  1.9410 -0.6280
   14MOL0     H 1825   6.003   7.759  10.453  0.2354  0.1371 -1.1702
   14MOL0     H 1826   5.874   7.696  10.560  2.7539 -0.7088  0.5702
   14MOL0     H 1827   5.830   7.514  10.405  0.9194 -2.7007 -0.7496
   14MOL0     H 1828   6.001   7.511  10.452  1.3465  3.0506  0.0978
   14MOL0     H 1829   6.067   7.616  10.230 -1.4588  0.8967  0.4837
   14MOL0     H 1830   5.900   7.625  10.184  0.9610  3.9660  2.5367
   14MOL0     H 1831   6.062   7.358  10.206 -2.3467 -1.6308  0.9509
   14MOL0     H 1832   5.889   7.376  10.166 -0.4289  2.1576  0.7728
   14MOL0     H 1833   5.968   7.364   9.960 -1.9921 -0.7101  2.2778
   14MOL0     H 1834   5.934   7.529   9.972 -0.6990 -1.7048 -0.8476
   14MOL0     H 1835   6.179   7.580  10.034  0.7898  1.4316 -2.6957
   14MOL0     H 1836   6.213   7.406  10.020 -0.9026 -0.5300  0.6483
   14MOL0     H 1837   6.102   7.593   9.805  2.2619  2.2921  1.4364
   14MOL0     H 1838   6.116   7.423   9.773  0.9232  0.3862 -1.4533
   14MOL0     H 1839   6.311   7.571   9.674 -2.3227 -0.0877 -0.8597
   14MOL0     H 1840   6.334   7.633   9.836 -1.6955 -0.2923  0.4354
   14MOL0     H 1841   6.539   7.548   9.926  0.3259  0.3086 -0.7890
   14MOL0     H 1842   6.775   7.278   9.878  0.7951  0.5809  1.7797
   14MOL0     H 1843   6.721   7.374  10.015  0.2592 -0.9520  1.5115
   14MOL0     H 1844   6.570   7.210  10.095  0.6627  2.3850  0.0614
   14MOL0     H 1845   6.627   7.099   9.961 -0.3093  2.7410 -2.3132
   14MOL0     H 1846   6.832   7.201  10.158  1.0174 -0.9065 -3.2003
   14MOL0     H 1847   6.842   7.085  10.046  2.8208 -0.1365  1.3043
   14MOL0     H 1848   6.640   6.965  10.167 -1.1033  1.3319 -0.6591
   14MOL0     H 1849   6.652   7.075  10.300  3.1797 -1.6922  3.1559
   14MOL0     H 1850   6.771   7.099  10.489  1.6537 -0.5677 -0.2819
   14MOL0     H 1851   6.792   7.003  10.719  2.3329 -1.6308  1.2046
   14MOL0     H 1852   6.951   6.758  11.056 -1.4496  1.2069 -5.3903
   14MOL0     H 1853   6.892   6.674  11.288 -1.1272  2.9615  0.9654
   14MOL0     H 1854   6.784   6.660  11.494 -0.5645  1.1638  0.4772
   14MOL0     H 1855   6.623   6.736  11.487  0.3397  0.5401  1.8572
   14MOL0     H 1856   6.583   6.638  11.672  2.2612 -0.8283  2.5889
   14MOL0     H 1857   6.571   6.483  11.589  0.3509 -1.1988 -1.0140
   14MOL0     H 1858   6.707   6.438  11.765 -0.5043  1.0003  0.6594
   14MOL0     H 1859   6.833   6.458  11.632 -0.4275 -0.5333 -0.2075
   14MOL0     H 1860   6.746   6.673  11.831 -3.1723 -4.2993 -0.2841
   14MOL0     H 1861   6.882   6.694  11.725 -1.8909  0.3026  0.1965
   14MOL0     H 1862   6.998   6.506  11.856  0.1529  2.5247 -2.4754
   14MOL0     H 1863   6.851   6.500  11.959 -1.8530  3.1201  3.9077
   14MOL0     H 1864   7.002   6.750  11.904  0.8764  0.3140  1.0570
   14MOL0     H 1865   6.896   6.729  12.038  1.7281  2.1341  0.9276
   14MOL0     H 1866   7.168   6.575  11.997  0.6000  1.0324 -0.4066
   14MOL0     H 1867   7.053   6.541  12.123  0.1366  1.9539  1.2583
   14MOL0     H 1868   7.193   6.809  12.103  2.1949 -2.2898 -2.6740
   14MOL0     H 1869   7.052   6.775  12.194 -0.3949 -0.4142 -2.8024
   14MOL0     H 1870   6.496   6.611  11.164 -0.1200  1.7577  0.9686
   14MOL0     H 1871   6.554   6.692  10.931 -1.0133  0.1962  0.4696
   14MOL0     H 1872   6.875   6.620  10.540 -2.2311 -0.1076 -1.6450
   14MOL0     H 1873   6.876   6.717  10.319  3.7019  0.9158 -0.3996
   14MOL0     H 1874   5.991   7.966  10.447 -1.4293 -1.0496  2.8823
   14MOL0     H 1875   5.967   8.206  10.441  0.0754  0.3480  1.5224
   14MOL0     H 1876   5.909   8.527  10.423 -2.4461 -1.2869  3.7932
   14MOL0     H 1877   5.997   8.746  10.453 -0.2892  0.9321  0.6462
   14MOL0     H 1878   5.701   9.084  10.410  0.4770 -3.4175  0.7592
   14MOL0     H 1879   5.780   9.057  10.253 -1.3185  1.5189 -0.2307
   14MOL0     H 1880   5.869   9.236  10.466 -3.8567 -1.5350  0.8643
   14MOL0     H 1881   5.829   9.271  10.293 -0.8529 -0.7022 -0.9095
   14MOL0     H 1882   6.016   9.154  10.207  1.3319  1.0235 -0.2439
   14MOL0     H 1883   6.074   9.099  10.363 -0.2361 -0.2610  1.4522
   14MOL0     H 1884   6.181   9.316  10.242  2.8045  4.3557  1.7304
   14MOL0     H 1885   6.040   9.391  10.282  0.9225  0.7013  2.3174
   14MOL0     H 1886   6.264   9.410  10.635 -1.2361 -2.6466  1.1277
   14MOL0     H 1887   5.619   8.903  10.292 -1.0383 -0.4672  0.0209
   14MOL0     H 1888   5.452   8.771  10.198 -0.2678 -1.5003 -1.3008
   14MOL0     H 1889   5.509   8.616  10.151  2.1164  0.4714 -1.4619
   14MOL0     H 1890   5.425   8.645  10.312  2.9290  0.2423  1.8180
   15MOL0     O 1891   2.150  10.490   6.914 -0.1483 -0.3454  0.1532
   15MOL0     C 1892   2.039  10.450   6.957 -0.4378  0.0888  0.2182
   15MOL0     O 1893   1.920  10.511   6.935  0.4382  0.5247  0.3115
   15MOL0     C 1894   1.928  10.627   6.867  0.3350 -0.4329  0.5967
   15MOL0     C 1895   1.890  10.739   6.943 -0.7328  0.3761  0.0553
   15MOL0     C 1896   1.881  10.869   6.883  0.6261 -0.0639 -0.2345
   15MOL0     C 1897   1.926  10.893   6.753  0.7253  0.4077 -1.7580
   15MOL0     O 1898   1.943  11.018   6.690  0.9334 -0.8777  0.3381
   15MOL0     C 1899   1.866  11.133   6.740 -0.3154  0.0701  0.2137
   15MOL0     C 1900   1.957  11.219   6.828 -0.0027  0.2022  0.1593
   15MOL0     C 1901   1.889  11.336   6.896  0.1123  0.5972 -0.1366
   15MOL0     C 1902   1.816  11.299   7.025  0.0040 -0.0954 -0.3825
   15MOL0     C 1903   1.926  11.287   7.143  0.1466  0.3029 -0.1689
   15MOL0     C 1904   1.860  11.250   7.275 -0.3259 -0.3842 -0.7506
   15MOL0     C 1905   1.964  11.210   7.387  0.5851 -0.4843 -0.3868
   15MOL0     C 1906   1.895  11.192   7.524  0.3139 -0.3329  0.3225
   15MOL0     N 1907   1.799  11.088   7.523  0.2450  0.6039  0.2106
   15MOL0     C 1908   1.716  11.055   7.630 -0.3057  0.5169 -0.2726
   15MOL0     C 1909   1.688  10.922   7.610 -0.8153 -0.7284 -0.0450
   15MOL0     C 1910   1.599  10.828   7.682  1.6540  0.5482  0.4619
   15MOL0     C 1911   1.459  10.892   7.693 -0.4069 -0.1478 -0.6122
   15MOL0     C 1912   1.364  10.854   7.578 -1.3678  0.0921 -0.0344
   15MOL0     C 1913   1.378  10.960   7.468  0.1378  0.3331  0.0997
   15MOL0     O 1914   1.273  10.916   7.380  1.0671  0.3315  0.5192
   15MOL0     C 1915   1.215  10.997   7.284 -0.6306 -0.4222 -0.0812
   15MOL0     C 1916   1.104  10.942   7.216 -1.0139  0.1209 -1.2844
   15MOL0     C 1917   1.048  11.014   7.113  0.3087 -1.1257  0.8156
   15MOL0     C 1918   1.090  11.145   7.076  0.7170  0.7807 -0.0676
   15MOL0     C 1919   1.030  11.220   6.964  0.5710  0.1161  0.3825
   15MOL0     O 1920   1.053  11.350   6.967 -0.2963 -0.6277  0.0519
   15MOL0     C 1921   1.024  11.429   6.853 -0.6067 -0.3037 -0.0592
   15MOL0     C 1922   1.025  11.568   6.876 -0.5597 -0.2091  0.6344
   15MOL0     C 1923   1.020  11.656   6.762  0.8187  0.9031  0.5185
   15MOL0     C 1924   0.990  11.605   6.633  0.4539  0.8685 -0.2122
   15MOL0     O 1925   0.977  11.689   6.525  0.2579  0.1239  0.0806
   15MOL0     C 1926   0.839  11.736   6.493  0.0351 -0.0961 -0.3910
   15MOL0     C 1927   0.848  11.791   6.354 -0.2590  0.2400  0.3161
   15MOL0     C 1928   0.961  11.899   6.311  0.6280  0.4322  0.7243
   15MOL0     C 1929   0.942  12.038   6.371  0.4617  0.1036  0.3422
   15MOL0     C 1930   1.020  12.146   6.300  0.3635 -0.6487  0.1956
   15MOL0     C 1931   0.995  12.297   6.337  0.3155  0.0654  0.7459
   15MOL0     C 1932   0.863  12.339   6.280 -0.2066 -0.1959  0.2086
   15MOL0     C 1933   0.804  12.459   6.352 -0.0970  0.4453  0.6159
   15MOL0    Cl 1934   0.881  12.616   6.323  0.4931 -0.0606 -0.1259
   15MOL0     C 1935   1.001  11.463   6.616  0.2001 -1.1063 -0.8096
   15MOL0     C 1936   1.013  11.386   6.722 -0.9734  0.6414  0.2303
   15MOL0     O 1937   0.969  11.159   6.884  0.0174  0.0449  0.0775
   15MOL0     C 1938   1.189  11.201   7.162 -0.0413 -1.0636 -0.5948
   15MOL0     C 1939   1.257  11.132   7.256 -0.0388  0.0273  0.6276
   15MOL0     N 1940   1.748  10.878   7.490  0.6873  0.0786 -0.1511
   15MOL0     N 1941   1.813  10.978   7.438  0.2083  0.0241  0.0750
   15MOL0     C 1942   1.959  10.778   6.688  0.0128  0.5777  0.4477
   15MOL0     C 1943   1.959  10.640   6.739  0.5819 -0.4688  0.4851
   15MOL0     C 1944   2.039  10.322   7.039  0.3835 -0.1931 -0.2477
   15MOL0     C 1945   1.910  10.282   7.085 -0.3034  0.9644 -0.1998
   15MOL0     C 1946   1.889  10.168   7.164 -0.0556 -0.4982 -0.0616
   15MOL0     C 1947   2.000  10.095   7.202 -0.1511 -0.3919  0.4201
   15MOL0     O 1948   1.971   9.999   7.299 -0.0404  0.8157 -1.0030
   15MOL0     C 1949   2.079   9.912   7.350  1.3170 -0.4510 -0.0743
   15MOL0     C 1950   2.026   9.824   7.467  0.9085 -0.0104  1.1541
   15MOL0     C 1951   2.145   9.731   7.508 -0.3582  0.0981 -0.4177
   15MOL0     C 1952   2.110   9.640   7.633 -0.5709 -0.8908 -0.6373
   15MOL0     C 1953   2.157   9.701   7.758  0.2922 -0.6364 -0.4897
   15MOL0     C 1954   2.163   9.747   7.872 -0.4633 -0.2805 -0.1022
   15MOL0     C 1955   2.125  10.131   7.161 -0.9587 -0.3950  0.0174
   15MOL0     C 1956   2.153  10.240   7.070  0.1195  0.0200  0.5513
   15MOL0     C 1957   2.301  10.269   7.048  0.2058 -0.0560  0.2219
   15MOL0     H 1958   1.880  10.743   7.051  2.4299  2.2619  0.4044
   15MOL0     H 1959   1.842  10.935   6.959 -1.9506  0.0714 -1.5400
   15MOL0     H 1960   1.825  11.191   6.656 -4.0524 -2.2293  0.2469
   15MOL0     H 1961   1.774  11.106   6.792  0.5405  0.7752  2.2182
   15MOL0     H 1962   2.035  11.259   6.764  0.3425  0.7825  0.9255
   15MOL0     H 1963   2.002  11.148   6.899 -6.3461 -0.7907  4.0953
   15MOL0     H 1964   1.806  11.378   6.838 -0.4674 -1.1223 -0.6164
   15MOL0     H 1965   1.966  11.414   6.899 -0.5449  1.3276 -1.4385
   15MOL0     H 1966   1.743  11.377   7.048  1.1559  0.7072  0.6620
   15MOL0     H 1967   1.773  11.199   7.012  0.4042 -0.3343  0.0897
   15MOL0     H 1968   2.006  11.216   7.125  0.9257  1.4894 -1.6810
   15MOL0     H 1969   1.980  11.382   7.145 -0.5884  0.7444 -0.7070
   15MOL0     H 1970   1.802  11.334   7.313 -1.4701 -0.8955 -1.3330
   15MOL0     H 1971   1.797  11.161   7.271  0.3739 -1.1363  2.5338
   15MOL0     H 1972   2.034  11.294   7.391 -0.9561  0.8948  4.6079
   15MOL0     H 1973   2.023  11.125   7.351  3.3900  2.6639 -4.1667
   15MOL0     H 1974   1.967  11.164   7.603  0.1860  1.1491  0.9938
   15MOL0     H 1975   1.850  11.289   7.547 -2.6201 -1.5693  0.1723
   15MOL0     H 1976   1.674  11.105   7.717 -1.0579  1.7881 -1.3269
   15MOL0     H 1977   1.600  10.734   7.625  1.8673 -0.2806  1.7914
   15MOL0     H 1978   1.623  10.806   7.787 -2.7828  2.5458  2.1608
   15MOL0     H 1979   1.413  10.857   7.786  0.1570 -1.5237 -0.8280
   15MOL0     H 1980   1.465  11.001   7.704 -1.8374  0.0586 -1.5843
   15MOL0     H 1981   1.261  10.866   7.613 -0.9000  3.8074  0.5469
   15MOL0     H 1982   1.389  10.757   7.535  1.5771  2.3996 -4.2352
   15MOL0     H 1983   1.474  10.971   7.418  1.4739 -2.5283  1.7188
   15MOL0     H 1984   1.345  11.050   7.521 -2.1732 -0.4526  0.1408
   15MOL0     H 1985   1.070  10.848   7.259 -2.2862  2.0114  2.2881
   15MOL0     H 1986   0.975  10.966   7.049 -0.1319 -0.5321  0.8680
   15MOL0     H 1987   1.042  11.609   6.975  0.0659  0.8249  0.1221
   15MOL0     H 1988   1.024  11.765   6.762 -0.6842  0.9798 -0.3037
   15MOL0     H 1989   0.786  11.641   6.487  3.3560 -2.1177 -0.0560
   15MOL0     H 1990   0.802  11.815   6.559  0.9650 -0.5495  0.7173
   15MOL0     H 1991   0.854  11.700   6.294 -2.3890 -0.3175  0.8747
   15MOL0     H 1992   0.752  11.832   6.322  0.6536  0.5335 -2.3678
   15MOL0     H 1993   1.060  11.852   6.321  1.1969  1.3312 -0.5463
   15MOL0     H 1994   0.960  11.909   6.202  3.2803  1.2415  0.6840
   15MOL0     H 1995   0.983  12.014   6.470  1.8363 -1.8491 -0.6428
   15MOL0     H 1996   0.836  12.060   6.387  0.8325  1.8015  0.6192
   15MOL0     H 1997   0.988  12.134   6.196 -1.6135 -0.3282  0.7210
   15MOL0     H 1998   1.127  12.125   6.302  1.0532  2.4431  2.2713
   15MOL0     H 1999   0.978  12.310   6.444  0.1673  6.6018  0.3162
   15MOL0     H 2000   1.083  12.356   6.309  0.8926 -0.9608  0.3273
   15MOL0     H 2001   0.789  12.259   6.289  0.8942 -1.0264  3.0646
   15MOL0     H 2002   0.876  12.362   6.174  1.1244 -0.5827  0.2689
   15MOL0     H 2003   0.703  12.464   6.309  1.3828  0.0927 -3.3049
   15MOL0     H 2004   0.799  12.438   6.460  2.2255  0.2792  0.7434
   15MOL0     H 2005   0.988  11.431   6.513 -2.6309 -0.4026 -0.7412
   15MOL0     H 2006   0.998  11.283   6.694  2.3427 -0.0663  0.6016
   15MOL0     H 2007   1.230  11.300   7.142  1.2868 -1.3069  0.7158
   15MOL0     H 2008   1.343  11.177   7.306  2.0780 -1.3678 -1.5231
   15MOL0     H 2009   2.007  10.799   6.592  1.0369  0.8973  1.0177
   15MOL0     H 2010   1.977  10.546   6.688 -2.6591 -0.7298 -0.4113
   15MOL0     H 2011   1.818  10.338   7.072 -1.0345  0.3963  2.1367
   15MOL0     H 2012   1.791  10.145   7.206 -0.3638  1.0878  0.1665
   15MOL0     H 2013   2.160   9.968   7.398  0.8762 -2.8998  4.0023
   15MOL0     H 2014   2.111   9.851   7.265 -0.5348  0.9661 -1.8935
   15MOL0     H 2015   1.940   9.761   7.440 -0.2334  1.8277  0.3050
   15MOL0     H 2016   1.996   9.900   7.540 -3.4205  0.0737 -0.4176
   15MOL0     H 2017   2.225   9.802   7.530  1.3089 -0.8889 -2.9001
   15MOL0     H 2018   2.180   9.667   7.427  2.3610 -1.7413  2.0110
   15MOL0     H 2019   2.002   9.626   7.647 -0.0529 -2.0480  3.3437
   15MOL0     H 2020   2.157   9.543   7.616 -0.6405 -0.6771 -2.1780
   15MOL0     H 2021   2.164   9.785   7.972 -2.7697 -1.1712  0.3163
   15MOL0     H 2022   2.205  10.068   7.198 -0.5893 -0.3178 -0.6384
   15MOL0     H 2023   2.357  10.175   7.052 -1.1887 -0.8755  1.1302
   15MOL0     H 2024   2.307  10.315   6.949 -1.0321 -0.3514 -0.0122
   15MOL0     H 2025   2.338  10.342   7.121 -1.3467  1.8678 -0.8267
   16MOL0     O 2026   8.206  10.646  11.418  0.4814 -0.4538 -0.1136
   16MOL0     C 2027   8.288  10.688  11.339  0.8547  1.0586  0.7780
   16MOL0     O 2028   8.410  10.736  11.363  0.0381  0.7902  0.1433
   16MOL0     C 2029   8.439  10.759  11.498 -0.2400  0.1096  1.3605
   16MOL0     C 2030   8.416  10.875  11.568  0.1078  0.0908 -0.2463
   16MOL0     C 2031   8.472  10.911  11.691 -0.1090 -0.4390  0.5951
   16MOL0     C 2032   8.558  10.810  11.754 -0.2883  0.4125  0.3147
   16MOL0     O 2033   8.610  10.806  11.879  0.7871  0.3043 -0.2625
   16MOL0     C 2034   8.645  10.943  11.928  0.6849  0.2167  0.9688
   16MOL0     C 2035   8.748  10.943  12.051 -0.1473  0.2822 -0.2685
   16MOL0     C 2036   8.795  11.092  12.075 -1.0044  0.7546  0.0450
   16MOL0     C 2037   8.903  11.089  12.187  0.2737 -0.4216 -0.1416
   16MOL0     C 2038   8.960  11.229  12.195 -0.0773  0.3770  0.3840
   16MOL0     C 2039   9.087  11.243  12.112 -0.1385  0.3427  0.2058
   16MOL0     C 2040   9.165  11.371  12.128  0.0125 -0.3828  0.2854
   16MOL0     C 2041   9.082  11.499  12.096 -0.4349 -0.5785 -0.2867
   16MOL0     N 2042   9.173  11.617  12.084  0.7630 -0.7534  0.0418
   16MOL0     C 2043   9.279  11.617  12.002  0.4452  0.2177 -0.1322
   16MOL0     C 2044   9.358  11.719  12.036 -0.4087  1.0748  0.0041
   16MOL0     C 2045   9.484  11.777  11.970  1.1383  0.3457 -0.0391
   16MOL0     C 2046   9.610  11.700  12.021 -0.0581 -0.0263  0.1144
   16MOL0     C 2047   9.737  11.753  11.955  0.9041 -0.5195 -0.8343
   16MOL0     C 2048   9.789  11.642  11.864 -0.0384  0.0987 -0.1777
   16MOL0     O 2049   9.695  11.627  11.757 -0.1842  0.1836  0.5241
   16MOL0     C 2050   9.709  11.515  11.674  0.2249  0.5283  0.7596
   16MOL0     C 2051   9.592  11.485  11.591 -0.4644  0.4824  0.0678
   16MOL0     C 2052   9.591  11.372  11.502  0.0559 -0.3245  0.9240
   16MOL0     C 2053   9.709  11.287  11.498  0.3127  0.3847  0.8508
   16MOL0     C 2054   9.713  11.166  11.409  0.3581 -0.5164  0.2627
   16MOL0     O 2055   9.599  11.085  11.402  0.7404 -0.3148  0.1266
   16MOL0     C 2056   9.584  10.965  11.340 -0.5078  0.3817  0.0729
   16MOL0     C 2057   9.486  10.881  11.386  0.0621  0.0735  0.4038
   16MOL0     C 2058   9.478  10.749  11.326 -0.6511 -0.2633  0.0333
   16MOL0     C 2059   9.561  10.705  11.220  0.9788  0.4275 -0.0975
   16MOL0     O 2060   9.548  10.585  11.156  0.1935  0.0238 -0.2036
   16MOL0     C 2061   9.476  10.474  11.199  0.2060  0.8124 -0.8039
   16MOL0     C 2062   9.544  10.338  11.164  0.6670  0.1559 -0.7269
   16MOL0     C 2063   9.566  10.332  11.015  0.3117 -0.1835 -0.4725
   16MOL0     C 2064   9.635  10.208  10.974 -0.1875 -0.3884  0.0059
   16MOL0     C 2065   9.662  10.183  10.822 -0.2743 -1.0214  0.1339
   16MOL0     C 2066   9.726  10.047  10.787 -0.0472  1.2935 -0.2960
   16MOL0     C 2067   9.866  10.056  10.833  0.3986 -0.1138  0.8360
   16MOL0     C 2068   9.928   9.929  10.789 -0.7292  1.4489  0.5996
   16MOL0    Cl 2069  10.108   9.943  10.780 -0.3747 -0.0731 -0.0424
   16MOL0     C 2070   9.649  10.800  11.172 -0.5824  0.2893 -0.3898
   16MOL0     C 2071   9.659  10.927  11.230  0.2852  0.8617 -0.5507
   16MOL0     O 2072   9.818  11.139  11.353 -1.0723 -0.2604 -0.4719
   16MOL0     C 2073   9.817  11.324  11.576  0.8644 -1.1791  0.0986
   16MOL0     C 2074   9.819  11.442  11.657  0.0935  1.1448 -0.0988
   16MOL0     N 2075   9.295  11.775  12.145 -0.5293 -0.1356  0.1133
   16MOL0     N 2076   9.182  11.720  12.173  0.3463 -0.2982 -0.5692
   16MOL0     C 2077   8.597  10.701  11.676  0.7439 -0.5357  0.0357
   16MOL0     C 2078   8.528  10.666  11.562 -0.4973  0.5065  1.0303
   16MOL0     C 2079   8.251  10.664  11.198 -0.3674  0.7434 -0.1479
   16MOL0     C 2080   8.124  10.690  11.160  0.0521  0.5552 -0.2095
   16MOL0     C 2081   8.070  10.652  11.038 -0.0102  0.8870  0.2063
   16MOL0     C 2082   8.158  10.581  10.946  0.3651 -0.5284  0.0684
   16MOL0     O 2083   8.102  10.576  10.820  0.1961 -0.0260  0.1794
   16MOL0     C 2084   8.176  10.486  10.730  0.5524 -0.9595 -0.0968
   16MOL0     C 2085   8.071  10.471  10.616 -1.0765 -0.4340 -0.5139
   16MOL0     C 2086   8.091  10.593  10.524 -0.6863 -0.2069 -0.6241
   16MOL0     C 2087   8.059  10.556  10.375 -0.0077 -0.1720 -0.5969
   16MOL0     C 2088   7.915  10.521  10.360 -0.9497 -0.1439 -0.7500
   16MOL0     C 2089   7.801  10.488  10.361  0.4645 -0.0235  0.0286
   16MOL0     C 2090   8.292  10.549  10.979  0.6575 -0.3681 -0.1100
   16MOL0     C 2091   8.338  10.596  11.103 -0.2995  0.2618  0.3419
   16MOL0     C 2092   8.492  10.584  11.136 -0.3498  0.7968  0.8896
   16MOL0     H 2093   8.341  10.937  11.520 -0.3938 -0.4437 -0.1669
   16MOL0     H 2094   8.453  11.003  11.744 -1.5408 -1.0252  1.1555
   16MOL0     H 2095   8.679  11.007  11.846  2.6640 -2.6495 -0.6043
   16MOL0     H 2096   8.559  11.000  11.965  1.1227  0.9215  0.9195
   16MOL0     H 2097   8.827  10.875  12.017  0.3056  0.7599 -0.1717
   16MOL0     H 2098   8.702  10.900  12.140 -0.1268  1.8672  0.5378
   16MOL0     H 2099   8.712  11.160  12.095  0.0474  1.8990  0.6867
   16MOL0     H 2100   8.848  11.125  11.986  4.9594  1.2351  3.2888
   16MOL0     H 2101   8.849  11.066  12.279 -0.0843  0.3664 -0.1462
   16MOL0     H 2102   8.988  11.024  12.166  0.3344 -0.7645  1.0931
   16MOL0     H 2103   8.889  11.307  12.165  1.5473  1.7125 -0.1406
   16MOL0     H 2104   8.984  11.250  12.300 -3.3775 -1.9901  1.7979
   16MOL0     H 2105   9.154  11.164  12.148 -2.1295 -1.4997  0.1169
   16MOL0     H 2106   9.071  11.223  12.006 -3.5504 -0.3238  0.7232
   16MOL0     H 2107   9.246  11.360  12.056 -0.6892  0.9650 -0.7411
   16MOL0     H 2108   9.204  11.400  12.226 -0.7179  1.5038  0.0536
   16MOL0     H 2109   9.023  11.491  12.005 -0.5543  1.6236 -0.4530
   16MOL0     H 2110   9.010  11.509  12.177  1.3267 -2.5801  1.6744
   16MOL0     H 2111   9.296  11.549  11.920 -0.5167  1.8153 -1.7340
   16MOL0     H 2112   9.480  11.771  11.861 -1.6816  2.2128 -0.1475
   16MOL0     H 2113   9.492  11.879  12.011  0.8224  1.3739 -2.3819
   16MOL0     H 2114   9.624  11.712  12.129  0.1912 -1.3129  0.2410
   16MOL0     H 2115   9.589  11.594  12.006  1.9513 -0.4039 -0.2758
   16MOL0     H 2116   9.802  11.779  12.039 -2.5848  0.4936  1.8004
   16MOL0     H 2117   9.714  11.844  11.901 -0.7642  0.4958  1.4428
   16MOL0     H 2118   9.798  11.551  11.924  1.3113 -0.2785 -0.9112
   16MOL0     H 2119   9.892  11.663  11.832  0.7105  0.4135  2.2467
   16MOL0     H 2120   9.498  11.538  11.608 -0.1511  2.1093 -2.6562
   16MOL0     H 2121   9.504  11.348  11.442 -0.5616  3.0433  0.3224
   16MOL0     H 2122   9.435  10.915  11.476  1.5162  2.9163  0.2631
   16MOL0     H 2123   9.403  10.678  11.363  2.4011 -2.5308  2.4517
   16MOL0     H 2124   9.463  10.481  11.308  2.0985  1.2800 -0.5720
   16MOL0     H 2125   9.383  10.458  11.143  2.2133 -4.0772 -3.3260
   16MOL0     H 2126   9.641  10.337  11.215 -0.1657  0.4830  0.9372
   16MOL0     H 2127   9.481  10.252  11.189 -0.6911  1.3747  0.2406
   16MOL0     H 2128   9.464  10.340  10.976 -1.2683  3.0507  3.5444
   16MOL0     H 2129   9.619  10.423  10.984 -0.7491  0.1984 -1.2328
   16MOL0     H 2130   9.595  10.116  11.018  1.2831 -1.2681 -0.4283
   16MOL0     H 2131   9.733  10.220  11.022 -0.0171  0.8610 -0.6127
   16MOL0     H 2132   9.716  10.263  10.771 -1.4262 -1.0522 -1.1866
   16MOL0     H 2133   9.562  10.177  10.777 -0.7214  1.2563  0.6861
   16MOL0     H 2134   9.675   9.970  10.847 -1.6508  1.5800 -1.2323
   16MOL0     H 2135   9.704  10.030  10.681 -0.7754  2.3727 -0.3252
   16MOL0     H 2136   9.862  10.048  10.942  0.4934  0.0890  0.8529
   16MOL0     H 2137   9.928  10.131  10.784  2.0178 -1.7959  0.1635
   16MOL0     H 2138   9.900   9.852  10.862 -2.0343  2.0254  0.7491
   16MOL0     H 2139   9.882   9.893  10.697 -1.2941 -2.0808  2.0981
   16MOL0     H 2140   9.704  10.769  11.083 -0.9017  1.9461 -1.2111
   16MOL0     H 2141   9.730  10.996  11.186  0.1197  0.7739 -0.9628
   16MOL0     H 2142   9.896  11.252  11.595  1.6940  0.2159  2.3352
   16MOL0     H 2143   9.914  11.461  11.706  0.4977 -0.5169 -0.2030
   16MOL0     H 2144   8.683  10.658  11.727  0.7020  0.3875  0.9195
   16MOL0     H 2145   8.561  10.577  11.508 -0.1525  0.6137  1.0594
   16MOL0     H 2146   8.070  10.752  11.230  1.6888  2.9504 -0.9563
   16MOL0     H 2147   7.966  10.676  11.023 -0.1422  0.4398  0.3964
   16MOL0     H 2148   8.188  10.390  10.781  2.2148  0.1585  1.7496
   16MOL0     H 2149   8.274  10.520  10.696  1.0502 -2.5876 -0.3912
   16MOL0     H 2150   7.970  10.472  10.658  0.1690  0.2481  2.7425
   16MOL0     H 2151   8.089  10.378  10.561  2.6716  0.4653 -1.1168
   16MOL0     H 2152   8.191  10.637  10.530 -1.0111  0.3156  2.8899
   16MOL0     H 2153   8.022  10.669  10.561  2.5374  2.7089 -0.0904
   16MOL0     H 2154   8.094  10.632  10.304 -1.6817 -0.0695 -1.3610
   16MOL0     H 2155   8.096  10.458  10.348 -2.2666 -1.9034  2.0027
   16MOL0     H 2156   7.706  10.442  10.342  0.1921  0.2145  0.7800
   16MOL0     H 2157   8.358  10.517  10.900 -1.2419  0.1129 -1.9723
   16MOL0     H 2158   8.512  10.691  11.141  0.2038  0.9753 -2.3875
   16MOL0     H 2159   8.502  10.532  11.231 -1.9677  0.8309  1.1174
   16MOL0     H 2160   8.544  10.537  11.051 -0.4515 -0.8208  1.6825
   17MOL0     O 2161   7.732   9.331   8.117  0.3574 -0.5642  0.1989
   17MOL0     C 2162   7.763   9.437   8.172 -0.1607  1.3713  1.2538
   17MOL0     O 2163   7.813   9.544   8.104 -0.3876 -1.2341 -0.0614
   17MOL0     C 2164   7.847   9.518   7.969  0.7062  0.6054 -0.2767
   17MOL0     C 2165   7.743   9.535   7.878 -0.3135  0.7600  0.4984
   17MOL0     C 2166   7.761   9.531   7.741  0.1298 -0.0599  0.6864
   17MOL0     C 2167   7.887   9.502   7.688 -0.9961 -0.5271 -0.7415
   17MOL0     O 2168   7.915   9.486   7.562 -0.2138 -0.6682  0.7259
   17MOL0     C 2169   7.888   9.357   7.511  1.0237  0.5151 -1.3442
   17MOL0     C 2170   7.930   9.339   7.367  0.1036  0.6593  0.7949
   17MOL0     C 2171   8.062   9.250   7.371 -0.1610  0.4547  0.4622
   17MOL0     C 2172   8.104   9.232   7.230  0.3324  0.1066 -0.9826
   17MOL0     C 2173   8.255   9.189   7.230  0.2056 -0.2586  0.1088
   17MOL0     C 2174   8.311   9.196   7.094 -0.4558  0.1610  0.1153
   17MOL0     C 2175   8.449   9.134   7.092 -0.3560  0.2358  0.0689
   17MOL0     C 2176   8.555   9.206   7.171  0.4004 -0.2880  0.0195
   17MOL0     N 2177   8.694   9.178   7.129 -0.7624  0.3592 -0.4334
   17MOL0     C 2178   8.737   9.146   7.000  0.1274 -0.4028 -0.8430
   17MOL0     C 2179   8.869   9.109   7.022 -0.6418  0.3043  0.5097
   17MOL0     C 2180   8.964   9.080   6.911 -1.0366  0.2274  0.9798
   17MOL0     C 2181   8.970   8.934   6.888 -0.2211 -0.2271 -0.6493
   17MOL0     C 2182   9.077   8.885   6.788 -0.8423  0.7030  0.0020
   17MOL0     C 2183   9.188   8.968   6.733  0.3494  0.3994 -0.2797
   17MOL0     O 2184   9.282   8.954   6.835  0.4278  0.5279  0.0763
   17MOL0     C 2185   9.409   8.989   6.802 -0.2061  0.2637  0.0486
   17MOL0     C 2186   9.510   8.911   6.861  0.1009 -0.1216 -0.1905
   17MOL0     C 2187   9.645   8.939   6.853  0.0029  0.0670  0.4287
   17MOL0     C 2188   9.684   9.047   6.778  0.6254 -1.2342  0.3861
   17MOL0     C 2189   9.823   9.077   6.762 -0.0168  0.1293 -0.3290
   17MOL0     O 2190   9.860   9.199   6.730  0.0302 -0.5002 -0.3448
   17MOL0     C 2191   9.989   9.209   6.700  0.0558  0.4692 -0.3261
   17MOL0     C 2192  10.083   9.237   6.797  0.3520  0.9084  0.0298
   17MOL0     C 2193  10.219   9.262   6.755 -0.5626  0.5361 -0.1887
   17MOL0     C 2194  10.257   9.257   6.621 -0.5179  0.1829 -0.0126
   17MOL0     O 2195  10.391   9.277   6.588  0.0270  0.4009  0.0338
   17MOL0     C 2196  10.436   9.275   6.442 -0.0108  0.4558  0.3484
   17MOL0     C 2197  10.576   9.317   6.425 -0.1095  0.6019 -0.0071
   17MOL0     C 2198  10.614   9.374   6.285  0.4205  0.3762  0.5884
   17MOL0     C 2199  10.765   9.396   6.285 -0.3071 -0.0919 -0.5885
   17MOL0     C 2200  10.805   9.478   6.155  1.0570  1.1183 -0.8026
   17MOL0     C 2201  10.950   9.513   6.138  0.2262 -0.0900  0.6316
   17MOL0     C 2202  10.972   9.576   5.997 -0.0549  0.5309  0.1313
   17MOL0     C 2203  11.121   9.608   5.978  0.3795 -0.4072 -0.0508
   17MOL0    Cl 2204  11.158   9.640   5.803  0.2206  0.2963  0.1814
   17MOL0     C 2205  10.157   9.240   6.530 -0.2527  0.5724  0.7208
   17MOL0     C 2206  10.029   9.203   6.570  0.7460 -0.0483 -0.4625
   17MOL0     O 2207   9.899   8.981   6.780  0.4187  0.1621 -0.1707
   17MOL0     C 2208   9.592   9.122   6.703 -0.5219  0.4316  0.2926
   17MOL0     C 2209   9.454   9.098   6.727 -0.1046  0.8214  0.6162
   17MOL0     N 2210   8.902   9.132   7.152 -0.2133 -1.0180  0.1754
   17MOL0     N 2211   8.798   9.164   7.215 -0.6126 -0.6159 -0.0570
   17MOL0     C 2212   7.997   9.500   7.785 -0.3467  0.2049  1.3389
   17MOL0     C 2213   7.972   9.502   7.920 -0.6717  0.5377  1.1018
   17MOL0     C 2214   7.755   9.445   8.318  0.1393 -0.0828  0.9133
   17MOL0     C 2215   7.872   9.503   8.379  0.1463 -0.3637  0.2716
   17MOL0     C 2216   7.891   9.522   8.514  0.2255  0.1480  0.3690
   17MOL0     C 2217   7.793   9.468   8.596 -0.0129  0.4656 -0.9512
   17MOL0     O 2218   7.792   9.485   8.730 -0.4423 -0.8972 -0.5505
   17MOL0     C 2219   7.917   9.501   8.794  0.2450  1.0491 -1.1610
   17MOL0     C 2220   7.877   9.500   8.942  0.2372 -0.0699 -0.5051
   17MOL0     C 2221   7.781   9.393   8.978  0.3926  0.1320  0.2794
   17MOL0     C 2222   7.754   9.373   9.126  0.4680 -1.5250  0.5931
   17MOL0     C 2223   7.876   9.344   9.203  0.3227 -0.3306 -0.1012
   17MOL0     C 2224   7.979   9.301   9.246 -0.2419 -0.1560 -0.2413
   17MOL0     C 2225   7.679   9.409   8.544 -0.1272  0.5135  0.5068
   17MOL0     C 2226   7.657   9.399   8.407 -0.8169  0.2043  0.1301
   17MOL0     C 2227   7.526   9.364   8.349  0.7395  0.3779 -0.0194
   17MOL0     H 2228   7.647   9.559   7.922  0.3287  0.5815  2.0439
   17MOL0     H 2229   7.676   9.542   7.674 -2.0722 -1.0539  3.1384
   17MOL0     H 2230   7.926   9.279   7.579 -0.7393  1.5424  0.9757
   17MOL0     H 2231   7.778   9.352   7.507  0.8388 -0.8284  1.9163
   17MOL0     H 2232   7.950   9.436   7.321 -1.7569  0.0235 -1.6058
   17MOL0     H 2233   7.847   9.291   7.314 -1.5575  0.4550  3.4122
   17MOL0     H 2234   8.040   9.155   7.420 -2.3861  0.9534  0.5320
   17MOL0     H 2235   8.138   9.312   7.420 -1.1091  1.8477  0.2405
   17MOL0     H 2236   8.038   9.154   7.190 -0.4876  0.6691 -0.7633
   17MOL0     H 2237   8.098   9.322   7.168 -2.2464 -0.2634 -1.3914
   17MOL0     H 2238   8.309   9.256   7.296  3.4328 -2.7442  0.2710
   17MOL0     H 2239   8.272   9.090   7.274 -2.0315  0.0035  1.7279
   17MOL0     H 2240   8.245   9.134   7.032 -1.0665  2.4670 -1.6950
   17MOL0     H 2241   8.299   9.289   7.039 -0.6611  0.4210  0.5945
   17MOL0     H 2242   8.467   9.119   6.986 -1.9931  0.3551 -0.2484
   17MOL0     H 2243   8.452   9.033   7.133  4.6775  0.3803  0.6934
   17MOL0     H 2244   8.542   9.314   7.155  0.4685  0.1620  2.6528
   17MOL0     H 2245   8.543   9.197   7.279  0.2304  1.2546  0.1532
   17MOL0     H 2246   8.681   9.159   6.908 -0.8433 -0.4227 -0.2703
   17MOL0     H 2247   8.937   9.137   6.822 -1.3456  0.7627  1.4065
   17MOL0     H 2248   9.062   9.116   6.945  1.0654 -1.5985 -2.5266
   17MOL0     H 2249   8.999   8.878   6.977 -0.4347 -3.4092 -2.4248
   17MOL0     H 2250   8.878   8.885   6.854  0.1355  2.3782 -6.7513
   17MOL0     H 2251   9.030   8.836   6.703  0.1256 -1.9288  0.8843
   17MOL0     H 2252   9.127   8.798   6.831  0.0088 -1.5546 -4.9469
   17MOL0     H 2253   9.166   9.075   6.731  0.8116  0.4903 -0.7453
   17MOL0     H 2254   9.213   8.933   6.633 -0.9456  1.8623 -1.1555
   17MOL0     H 2255   9.476   8.830   6.924 -1.2528  0.1700 -0.5271
   17MOL0     H 2256   9.706   8.869   6.910 -1.8067 -3.3543 -1.5043
   17MOL0     H 2257  10.053   9.233   6.901  1.7844  0.7911  0.4490
   17MOL0     H 2258  10.301   9.277   6.825 -0.1833 -0.4262 -0.4100
   17MOL0     H 2259  10.428   9.172   6.406  2.6679  0.5847 -0.8557
   17MOL0     H 2260  10.363   9.340   6.392 -1.3364 -0.9886  0.3140
   17MOL0     H 2261  10.601   9.391   6.502 -2.8536  1.8270 -0.1770
   17MOL0     H 2262  10.634   9.229   6.452 -2.2112 -0.5556  0.9684
   17MOL0     H 2263  10.586   9.308   6.203 -1.0756  2.1514 -0.3983
   17MOL0     H 2264  10.566   9.470   6.270 -0.7852  0.1543  2.6182
   17MOL0     H 2265  10.820   9.301   6.286 -0.1861 -0.0804  2.1627
   17MOL0     H 2266  10.795   9.450   6.375  1.2324 -0.4934 -0.8253
   17MOL0     H 2267  10.741   9.566   6.145  0.8519  1.2966  1.5996
   17MOL0     H 2268  10.772   9.404   6.080 -2.5192  2.5966 -0.9104
   17MOL0     H 2269  10.972   9.590   6.213 -4.2271  1.3154  0.7850
   17MOL0     H 2270  11.014   9.426   6.151  1.7844  1.1536  1.6174
   17MOL0     H 2271  10.919   9.670   5.983 -0.4767  0.1933 -0.5599
   17MOL0     H 2272  10.936   9.502   5.925  0.3293  1.5679 -1.1655
   17MOL0     H 2273  11.160   9.687   6.043  2.5286  1.8377 -3.7206
   17MOL0     H 2274  11.184   9.524   6.009 -0.2014 -1.4146 -1.4832
   17MOL0     H 2275  10.179   9.219   6.426  2.9545  0.1058  1.4081
   17MOL0     H 2276   9.964   9.169   6.489  0.3384 -3.1013  0.9985
   17MOL0     H 2277   9.624   9.203   6.638 -0.2244  0.5478  0.5831
   17MOL0     H 2278   9.393   9.161   6.662  0.3060 -0.1335 -0.7508
   17MOL0     H 2279   8.099   9.504   7.747 -0.7906  0.2633  0.1163
   17MOL0     H 2280   8.054   9.502   7.991  0.9530  4.3282 -0.5451
   17MOL0     H 2281   7.949   9.543   8.313 -0.1238 -0.0775  0.1284
   17MOL0     H 2282   7.990   9.542   8.552  0.4468 -1.8111  0.9141
   17MOL0     H 2283   7.962   9.596   8.764  0.6289  1.4595  0.5955
   17MOL0     H 2284   7.983   9.418   8.769  1.0966  0.7072  1.8172
   17MOL0     H 2285   7.821   9.589   8.973 -0.8036 -0.9728  0.2712
   17MOL0     H 2286   7.972   9.494   8.996 -0.5890  0.2528  1.0441
   17MOL0     H 2287   7.809   9.293   8.942  1.2531  0.0075  1.2453
   17MOL0     H 2288   7.683   9.414   8.933  0.1829  0.6808  0.9723
   17MOL0     H 2289   7.705   9.464   9.162  3.9044 -0.3850  2.9303
   17MOL0     H 2290   7.684   9.290   9.138  1.3296 -3.5273 -5.0685
   17MOL0     H 2291   8.069   9.260   9.287 -2.0426 -1.8595  2.3361
   17MOL0     H 2292   7.611   9.365   8.616 -0.4479  2.2399  1.2936
   17MOL0     H 2293   7.540   9.272   8.291  1.0917  0.3910  0.0418
   17MOL0     H 2294   7.449   9.334   8.420 -1.1709 -0.0365 -2.1518
   17MOL0     H 2295   7.489   9.451   8.293  0.7957  0.1842 -0.3623
   18MOL0     O 2296   1.417   3.459   7.865  0.7436 -0.0915  0.1940
   18MOL0     C 2297   1.454   3.524   7.771  0.0846  0.8257  0.4160
   18MOL0     O 2298   1.374   3.604   7.697  0.4226 -0.8711 -0.5664
   18MOL0     C 2299   1.234   3.613   7.707 -0.5751  1.1164  0.5637
   18MOL0     C 2300   1.150   3.556   7.805  0.4917 -0.4181  0.2556
   18MOL0     C 2301   1.009   3.579   7.797 -0.0750 -0.0880  0.2177
   18MOL0     C 2302   0.957   3.657   7.698 -0.4683 -0.4297 -0.1981
   18MOL0     O 2303   0.822   3.669   7.693  0.4520 -0.3703 -0.2818
   18MOL0     C 2304   0.746   3.751   7.601 -0.7099  1.2897  0.0010
   18MOL0     C 2305   0.766   3.890   7.649  1.3227  0.7549  0.5427
   18MOL0     C 2306   0.665   3.975   7.568  0.5029 -0.4431 -0.1545
   18MOL0     C 2307   0.678   4.122   7.595  0.3348 -0.9512 -0.5727
   18MOL0     C 2308   0.586   4.171   7.709  0.6177  0.5695 -0.1776
   18MOL0     C 2309   0.543   4.320   7.698  1.1485 -0.3338  0.3715
   18MOL0     C 2310   0.442   4.364   7.809 -0.5752  0.1388 -0.5690
   18MOL0     C 2311   0.447   4.516   7.844  0.9104 -0.2700 -0.0581
   18MOL0     N 2312   0.380   4.599   7.741 -0.4132  0.5942  0.2846
   18MOL0     C 2313   0.432   4.716   7.672  0.4362 -0.1204 -1.0072
   18MOL0     C 2314   0.323   4.768   7.616  1.2363  0.3811 -1.0381
   18MOL0     C 2315   0.326   4.897   7.541  0.3370  0.4089 -0.2208
   18MOL0     C 2316   0.327   5.026   7.628  0.2246  0.3511  0.0873
   18MOL0     C 2317   0.458   5.045   7.695  0.7649 -0.4973  0.3245
   18MOL0     C 2318   0.457   5.179   7.760 -0.3750  0.5182  0.1711
   18MOL0     O 2319   0.342   5.186   7.850 -1.1145 -0.1570  0.3774
   18MOL0     C 2320   0.331   5.302   7.932 -0.3965  0.1599  0.3619
   18MOL0     C 2321   0.228   5.299   8.023  0.5933  0.3889 -0.0075
   18MOL0     C 2322   0.199   5.404   8.108  0.8119 -0.2766 -1.3538
   18MOL0     C 2323   0.275   5.526   8.094  0.8109 -0.4312  0.3761
   18MOL0     C 2324   0.252   5.638   8.189  0.2134 -0.2951  1.5499
   18MOL0     O 2325   0.156   5.614   8.275  0.8063  0.2141 -0.0044
   18MOL0     C 2326   0.102   5.721   8.349 -0.1396  0.1427  0.5399
   18MOL0     C 2327   0.037   5.827   8.290  0.4221 -0.5461  0.3886
   18MOL0     C 2328  -0.046   5.910   8.364  0.1352  0.7135  0.4732
   18MOL0     C 2329  -0.048   5.897   8.501 -0.3738  0.8838  0.3926
   18MOL0     O 2330  -0.129   5.961   8.588 -0.3595 -0.4671 -0.2887
   18MOL0     C 2331  -0.140   6.104   8.555  0.5800  1.1442  0.3520
   18MOL0     C 2332  -0.148   6.199   8.671 -0.1123  0.0043 -0.1393
   18MOL0     C 2333  -0.170   6.341   8.630 -0.2871  0.6109  0.3150
   18MOL0     C 2334  -0.316   6.387   8.636  0.8125  0.8235  0.5596
   18MOL0     C 2335  -0.345   6.522   8.580 -0.5229 -0.5945 -0.5470
   18MOL0     C 2336  -0.484   6.546   8.567 -0.5173 -0.0725  0.7686
   18MOL0     C 2337  -0.529   6.681   8.505 -0.4286  0.2780  0.3188
   18MOL0     C 2338  -0.686   6.675   8.514 -0.4149 -0.3928  0.3364
   18MOL0    Cl 2339  -0.771   6.513   8.491  0.3108 -0.2447 -0.1117
   18MOL0     C 2340   0.020   5.784   8.557  0.2707 -0.4533  0.4130
   18MOL0     C 2341   0.095   5.692   8.485 -0.0800  0.8854 -0.6150
   18MOL0     O 2342   0.305   5.746   8.162 -0.5406  0.2640 -0.0399
   18MOL0     C 2343   0.376   5.530   7.992 -0.6742  1.1251 -0.2142
   18MOL0     C 2344   0.417   5.416   7.920  0.9823  0.3703  0.5410
   18MOL0     N 2345   0.218   4.677   7.635 -0.3593 -1.5972 -0.4794
   18MOL0     N 2346   0.251   4.584   7.717  1.0261  0.4125  0.9389
   18MOL0     C 2347   1.044   3.713   7.604 -1.1181  0.6842  0.2203
   18MOL0     C 2348   1.180   3.693   7.611  0.3641  0.5857 -0.0952
   18MOL0     C 2349   1.600   3.519   7.738  0.3930  0.1459  0.3391
   18MOL0     C 2350   1.685   3.489   7.837  0.7370  0.1089 -0.0697
   18MOL0     C 2351   1.816   3.473   7.819 -1.4168  0.5405 -0.5877
   18MOL0     C 2352   1.868   3.511   7.698 -0.1989 -0.0160 -0.3964
   18MOL0     O 2353   1.999   3.507   7.665 -0.2902 -0.1530  0.9564
   18MOL0     C 2354   2.089   3.521   7.776  0.3404  0.5279  0.2891
   18MOL0     C 2355   2.224   3.584   7.708 -0.0896  0.8516 -0.5330
   18MOL0     C 2356   2.291   3.476   7.621  0.8320 -0.4512  0.1789
   18MOL0     C 2357   2.420   3.530   7.548  0.4397  0.0815 -0.8169
   18MOL0     C 2358   2.522   3.571   7.638  0.0582  0.0671  0.3451
   18MOL0     C 2359   2.607   3.598   7.720  0.4985  0.7290 -0.1247
   18MOL0     C 2360   1.787   3.532   7.589  0.8976 -0.2015 -0.9362
   18MOL0     C 2361   1.642   3.541   7.609 -0.2909 -0.2360  0.7693
   18MOL0     C 2362   1.559   3.577   7.486 -0.6530 -0.7868 -0.1149
   18MOL0     H 2363   1.191   3.507   7.893 -0.3992 -1.0771  0.3121
   18MOL0     H 2364   0.942   3.538   7.872  0.6004  2.1163  2.1531
   18MOL0     H 2365   0.771   3.729   7.497 -2.8685 -0.9988 -0.1278
   18MOL0     H 2366   0.642   3.721   7.620  0.4405 -1.2773  3.1139
   18MOL0     H 2367   0.867   3.928   7.630  1.1596  1.6256  1.3287
   18MOL0     H 2368   0.755   3.896   7.758 -0.5934  1.7208  0.3250
   18MOL0     H 2369   0.559   3.952   7.581  0.5988 -0.3279  0.8960
   18MOL0     H 2370   0.691   3.954   7.464  1.7253 -2.8754  0.5831
   18MOL0     H 2371   0.779   4.158   7.619 -0.3930  0.6299  0.2327
   18MOL0     H 2372   0.644   4.163   7.499 -3.0382  2.9586  1.9586
   18MOL0     H 2373   0.497   4.110   7.692 -0.6160  2.4833 -0.9959
   18MOL0     H 2374   0.637   4.154   7.804  0.3142  1.9657  0.2728
   18MOL0     H 2375   0.639   4.372   7.692  1.7065 -1.3132  0.6496
   18MOL0     H 2376   0.495   4.347   7.603  1.6803  0.8448  0.4276
   18MOL0     H 2377   0.478   4.314   7.900  1.2484  0.2827 -1.1801
   18MOL0     H 2378   0.346   4.319   7.784  1.0820 -3.3558 -1.3430
   18MOL0     H 2379   0.393   4.526   7.939 -0.6292 -2.3669 -0.6509
   18MOL0     H 2380   0.547   4.560   7.858 -0.7092  4.5290 -1.5788
   18MOL0     H 2381   0.536   4.745   7.687  0.6674 -1.8761  1.3724
   18MOL0     H 2382   0.418   4.892   7.483 -1.5401  0.4616 -3.4068
   18MOL0     H 2383   0.238   4.907   7.477  0.2449  0.6563 -0.0570
   18MOL0     H 2384   0.307   5.114   7.566  1.7677  0.4144 -0.3673
   18MOL0     H 2385   0.246   5.026   7.702 -1.2180  1.0154 -1.4328
   18MOL0     H 2386   0.551   5.049   7.639 -0.9264 -1.0410 -2.7651
   18MOL0     H 2387   0.476   4.976   7.777  0.8839  1.0557  1.6587
   18MOL0     H 2388   0.447   5.252   7.680  3.0571 -0.4900 -1.3640
   18MOL0     H 2389   0.550   5.192   7.817 -1.5265  1.7123  1.8804
   18MOL0     H 2390   0.175   5.205   8.028 -0.4096  0.9991  3.6508
   18MOL0     H 2391   0.114   5.399   8.175  1.5354 -1.5778 -0.4770
   18MOL0     H 2392   0.037   5.837   8.182 -0.6574 -1.0876  0.3275
   18MOL0     H 2393  -0.098   5.988   8.309 -0.4324 -0.5863 -0.8935
   18MOL0     H 2394  -0.062   6.137   8.486 -1.1058  2.9426 -0.7790
   18MOL0     H 2395  -0.233   6.125   8.503 -1.3606 -1.3956  2.4944
   18MOL0     H 2396  -0.228   6.161   8.735  0.9556 -2.2403 -0.0507
   18MOL0     H 2397  -0.059   6.200   8.734  0.1074 -0.6531 -0.4293
   18MOL0     H 2398  -0.115   6.384   8.714 -1.6599  1.5520  0.7526
   18MOL0     H 2399  -0.120   6.379   8.541 -2.3398  0.0310 -1.1580
   18MOL0     H 2400  -0.354   6.359   8.734  0.3511 -1.0209 -0.1132
   18MOL0     H 2401  -0.368   6.316   8.571  0.2977 -0.1280  1.9587
   18MOL0     H 2402  -0.288   6.537   8.488  0.1596 -0.3226 -0.0847
   18MOL0     H 2403  -0.314   6.597   8.652 -0.5119  1.3905 -2.4977
   18MOL0     H 2404  -0.524   6.461   8.511 -0.1109  1.7281 -2.5010
   18MOL0     H 2405  -0.529   6.531   8.665 -0.7459 -2.3138  0.3799
   18MOL0     H 2406  -0.497   6.708   8.404 -0.2766 -0.2338  0.2252
   18MOL0     H 2407  -0.499   6.764   8.570 -0.3984  0.0759  0.5673
   18MOL0     H 2408  -0.717   6.701   8.616 -0.2446  2.3609 -0.2190
   18MOL0     H 2409  -0.736   6.745   8.446  0.4394 -2.4949 -2.6606
   18MOL0     H 2410   0.018   5.775   8.665  0.8665 -1.0521  0.3808
   18MOL0     H 2411   0.136   5.602   8.528  0.4581  0.7980 -1.2967
   18MOL0     H 2412   0.421   5.628   7.979 -0.9099  1.5437  1.7455
   18MOL0     H 2413   0.493   5.415   7.842 -0.8814 -0.7341 -1.3765
   18MOL0     H 2414   1.004   3.768   7.519 -0.5362 -0.4133 -0.7934
   18MOL0     H 2415   1.244   3.734   7.534 -0.7894 -0.2099 -1.5211
   18MOL0     H 2416   1.642   3.470   7.935 -1.3522 -0.3555 -1.0228
   18MOL0     H 2417   1.874   3.463   7.911  0.0228 -1.7168 -1.6726
   18MOL0     H 2418   2.123   3.428   7.822 -0.2499 -0.0278 -0.3720
   18MOL0     H 2419   2.053   3.592   7.851  2.4580 -0.8529  2.7796
   18MOL0     H 2420   2.284   3.615   7.794 -0.1011 -0.6997  0.0632
   18MOL0     H 2421   2.205   3.672   7.646 -0.1076  3.5327  2.9437
   18MOL0     H 2422   2.221   3.455   7.540 -1.2691 -0.4793  1.8981
   18MOL0     H 2423   2.316   3.380   7.668 -0.0585 -1.3757 -1.2004
   18MOL0     H 2424   2.459   3.456   7.478 -1.1653 -1.8811  0.2488
   18MOL0     H 2425   2.383   3.620   7.496 -3.2472 -1.6093 -1.4790
   18MOL0     H 2426   2.695   3.624   7.775 -1.0392 -0.0052  2.9686
   18MOL0     H 2427   1.831   3.548   7.492  1.3067  0.2890 -0.6774
   18MOL0     H 2428   1.604   3.577   7.386 -2.5954  2.5588 -1.1635
   18MOL0     H 2429   1.477   3.506   7.488  1.1330 -2.9878 -0.7309
   18MOL0     H 2430   1.513   3.676   7.498 -0.4896 -0.4393 -1.9815
   19MOL0     O 2431   9.210  10.308   2.120  0.2901  0.3774  0.8238
   19MOL0     C 2432   9.136  10.362   2.046 -0.1045 -0.5213  1.0722
   19MOL0     O 2433   9.172  10.459   1.959  0.4527  0.5288  0.8433
   19MOL0     C 2434   9.285  10.533   1.964 -1.1112  0.1746 -1.0520
   19MOL0     C 2435   9.346  10.568   1.848  0.4426  0.5245 -0.0053
   19MOL0     C 2436   9.456  10.646   1.849  0.1714 -0.1109  0.0319
   19MOL0     C 2437   9.516  10.690   1.967 -0.4462 -0.1969  0.6829
   19MOL0     O 2438   9.634  10.765   1.962  0.3278  0.0526 -0.6645
   19MOL0     C 2439   9.756  10.695   1.945  0.0299 -0.1877  0.4510
   19MOL0     C 2440   9.867  10.797   1.929  0.3415  0.2446  0.2022
   19MOL0     C 2441   9.850  10.871   1.795 -0.1257 -0.7379 -0.9990
   19MOL0     C 2442   9.949  10.820   1.679  1.2142  0.9155 -0.5262
   19MOL0     C 2443   9.920  10.873   1.541 -0.3714 -0.5101  0.2143
   19MOL0     C 2444  10.041  10.857   1.448 -0.2653 -0.6614 -0.0207
   19MOL0     C 2445  10.027  10.948   1.320  0.1102  0.4435 -0.0599
   19MOL0     C 2446  10.168  10.965   1.261 -1.3360  1.4133  0.2282
   19MOL0     N 2447  10.166  11.054   1.144 -0.1722  0.4544 -0.2287
   19MOL0     C 2448  10.283  11.113   1.098  0.2568 -0.2369  0.0561
   19MOL0     C 2449  10.247  11.182   0.988  0.0373  1.5146 -0.5377
   19MOL0     C 2450  10.343  11.261   0.899 -0.4063 -0.7996 -0.0780
   19MOL0     C 2451  10.403  11.383   0.977 -1.3502  0.4877  0.7509
   19MOL0     C 2452  10.304  11.500   0.990 -1.0100  0.2324 -0.0979
   19MOL0     C 2453  10.365  11.640   1.016 -0.1518 -0.3203  0.1765
   19MOL0     O 2454  10.455  11.620   1.134 -0.3927  0.1857  0.5111
   19MOL0     C 2455  10.554  11.719   1.141  0.0840  0.8951  0.2340
   19MOL0     C 2456  10.514  11.847   1.130 -0.2045 -0.9195 -0.0956
   19MOL0     C 2457  10.607  11.948   1.125 -0.3814 -0.0223  0.2547
   19MOL0     C 2458  10.743  11.921   1.129 -0.4513  0.2543 -0.7176
   19MOL0     C 2459  10.843  12.030   1.125 -1.1172  0.0118  0.5260
   19MOL0     O 2460  10.792  12.163   1.111  0.6952 -0.7725 -0.1772
   19MOL0     C 2461  10.875  12.263   1.083 -0.2364 -0.0308  0.2260
   19MOL0     C 2462  10.877  12.301   0.944 -0.4371 -0.1333  0.6852
   19MOL0     C 2463  10.956  12.411   0.900  0.6917  0.7384 -0.4180
   19MOL0     C 2464  11.032  12.482   0.991  1.0205 -0.1510 -0.3427
   19MOL0     O 2465  11.132  12.573   0.958 -0.1066 -0.1864  0.1750
   19MOL0     C 2466  11.122  12.639   0.830  0.0656  0.0887  0.8030
   19MOL0     C 2467  11.160  12.570   0.699 -0.1677 -0.2820  0.2129
   19MOL0     C 2468  11.252  12.645   0.605  0.6675 -0.4204  0.3215
   19MOL0     C 2469  11.193  12.770   0.538 -0.0035 -0.1737 -0.3948
   19MOL0     C 2470  11.310  12.867   0.495 -0.0545  0.2195 -1.3920
   19MOL0     C 2471  11.409  12.816   0.383  0.3878 -0.0451 -0.0089
   19MOL0     C 2472  11.531  12.898   0.372 -0.0371 -0.8424  0.0428
   19MOL0     C 2473  11.561  12.945   0.230 -0.4825 -0.4005  0.7159
   19MOL0    Cl 2474  11.595  12.812   0.115 -0.0622  0.0728  0.1697
   19MOL0     C 2475  11.013  12.448   1.127  0.1470  0.1649 -0.4339
   19MOL0     C 2476  10.945  12.335   1.172  0.3524 -0.5601  0.1975
   19MOL0     O 2477  10.961  12.002   1.144 -0.0240 -0.3071  0.0022
   19MOL0     C 2478  10.790  11.786   1.151 -0.1917 -0.5649  0.7787
   19MOL0     C 2479  10.695  11.686   1.157  0.5905 -0.5613 -0.2609
   19MOL0     N 2480  10.118  11.167   0.965 -0.1285  1.1700  1.1259
   19MOL0     N 2481  10.069  11.077   1.052  0.0283 -0.6908 -0.1393
   19MOL0     C 2482   9.445  10.668   2.083  0.1168  0.9260 -0.5222
   19MOL0     C 2483   9.343  10.578   2.085  0.6087  0.2495 -0.8427
   19MOL0     C 2484   8.996  10.323   2.030 -0.7097 -0.2090  0.7240
   19MOL0     C 2485   8.946  10.346   1.898 -0.0762 -0.1314 -0.0442
   19MOL0     C 2486   8.830  10.286   1.857  0.0937  0.3645  0.2016
   19MOL0     C 2487   8.759  10.195   1.939  0.0135 -0.4168 -0.1624
   19MOL0     O 2488   8.632  10.170   1.889 -0.6859 -0.0520  0.8589
   19MOL0     C 2489   8.569  10.066   1.963  0.4303  0.3252 -0.0734
   19MOL0     C 2490   8.440  10.054   1.876 -1.0248  0.6204  0.4479
   19MOL0     C 2491   8.360   9.931   1.921 -0.6941 -0.2531  0.7551
   19MOL0     C 2492   8.229   9.919   1.837  0.0657 -0.4895 -0.0421
   19MOL0     C 2493   8.149  10.046   1.848  0.6345  0.6409  0.1548
   19MOL0     C 2494   8.078  10.146   1.842 -0.3738  0.3782  0.3493
   19MOL0     C 2495   8.797  10.181   2.070  0.4262 -0.3820  0.9484
   19MOL0     C 2496   8.911  10.240   2.114 -0.7660  0.4644 -0.0754
   19MOL0     C 2497   8.958  10.193   2.246 -0.8562 -0.2914  0.3411
   19MOL0     H 2498   9.294  10.541   1.757 -3.6733  2.7683  1.4214
   19MOL0     H 2499   9.499  10.674   1.754 -1.1911  2.4285  0.0774
   19MOL0     H 2500   9.788  10.626   2.023  4.1038  0.5316 -0.3463
   19MOL0     H 2501   9.745  10.644   1.849  1.7614  1.3056 -0.6195
   19MOL0     H 2502   9.964  10.750   1.949  0.5067  0.5121  0.0497
   19MOL0     H 2503   9.842  10.866   2.010 -1.1111 -0.8313  0.6993
   19MOL0     H 2504   9.858  10.979   1.812  0.8459 -0.8691 -0.5654
   19MOL0     H 2505   9.748  10.851   1.760 -1.0721  1.0500  0.5678
   19MOL0     H 2506  10.054  10.846   1.700  1.4750 -1.0142  0.8197
   19MOL0     H 2507   9.937  10.712   1.669 -1.2107  0.9944  0.7335
   19MOL0     H 2508   9.823  10.842   1.500 -0.7343  1.5620 -0.6502
   19MOL0     H 2509   9.913  10.981   1.555  2.1744 -0.3398  0.4894
   19MOL0     H 2510  10.127  10.893   1.505 -2.6320  0.2740  3.2994
   19MOL0     H 2511  10.066  10.753   1.425 -0.9027 -0.9053  0.3255
   19MOL0     H 2512   9.995  11.045   1.359 -1.9286 -0.5789  1.0055
   19MOL0     H 2513   9.956  10.909   1.246  2.0358 -2.2797 -0.6364
   19MOL0     H 2514  10.222  11.006   1.347 -0.6159  1.5622 -0.2813
   19MOL0     H 2515  10.209  10.868   1.229 -0.5083  0.9243  2.5963
   19MOL0     H 2516  10.376  11.103   1.153  1.2203  1.1678 -1.1989
   19MOL0     H 2517  10.427  11.196   0.872 -0.4216 -0.0152 -2.1376
   19MOL0     H 2518  10.303  11.300   0.805  0.5862  0.7141  0.0919
   19MOL0     H 2519  10.449  11.366   1.074 -0.3726  2.8437  0.7433
   19MOL0     H 2520  10.481  11.428   0.914  2.7530 -0.5711  4.5937
   19MOL0     H 2521  10.221  11.485   1.059 -1.0704 -0.0320 -0.2248
   19MOL0     H 2522  10.267  11.500   0.887 -1.8002  0.7568  0.1827
   19MOL0     H 2523  10.282  11.707   1.037 -0.6635 -0.3168 -1.6794
   19MOL0     H 2524  10.409  11.673   0.922 -1.9052  1.3683 -0.1028
   19MOL0     H 2525  10.409  11.876   1.127 -0.7978 -2.9540 -2.0322
   19MOL0     H 2526  10.578  12.052   1.111 -0.1417 -0.4432 -5.9044
   19MOL0     H 2527  10.809  12.242   0.884  1.3867 -1.7006  0.0803
   19MOL0     H 2528  10.978  12.436   0.797 -0.3598 -1.9398 -1.4090
   19MOL0     H 2529  11.020  12.671   0.808 -0.1583 -1.6886 -0.9753
   19MOL0     H 2530  11.185  12.729   0.839  0.7784 -0.5894  3.2097
   19MOL0     H 2531  11.205  12.475   0.729  0.1896 -0.7508 -1.6482
   19MOL0     H 2532  11.062  12.552   0.655 -1.2225 -1.0278  2.6772
   19MOL0     H 2533  11.340  12.664   0.667  0.8305 -0.1735  0.0195
   19MOL0     H 2534  11.290  12.569   0.536 -1.7600  0.5363 -2.2524
   19MOL0     H 2535  11.130  12.829   0.606 -0.5175 -1.3171  0.1480
   19MOL0     H 2536  11.139  12.738   0.448  1.9243 -2.0878 -0.9402
   19MOL0     H 2537  11.374  12.888   0.582 -0.8000  0.4792 -0.8969
   19MOL0     H 2538  11.260  12.957   0.458  1.0332  0.6081 -1.9550
   19MOL0     H 2539  11.449  12.721   0.419  0.2002  0.4431  1.5288
   19MOL0     H 2540  11.345  12.796   0.296 -0.3710 -0.6746  0.6671
   19MOL0     H 2541  11.615  12.839   0.411  0.5984  2.0925  3.6758
   19MOL0     H 2542  11.527  12.985   0.438  1.8834 -2.1076  1.9958
   19MOL0     H 2543  11.483  13.011   0.192  0.3378 -0.7213 -1.7598
   19MOL0     H 2544  11.642  13.019   0.234 -0.0060 -0.4876 -3.1262
   19MOL0     H 2545  11.062  12.518   1.194 -0.1917 -0.1278  0.1302
   19MOL0     H 2546  10.950  12.298   1.274  0.5081 -0.6532  0.1565
   19MOL0     H 2547  10.895  11.759   1.158 -0.2409 -0.7028  0.9835
   19MOL0     H 2548  10.729  11.583   1.159 -0.7586 -1.0317 -0.2979
   19MOL0     H 2549   9.485  10.715   2.173  0.1074 -0.8923  0.4836
   19MOL0     H 2550   9.298  10.561   2.183  1.4435  1.7009 -0.1757
   19MOL0     H 2551   8.990  10.418   1.830  5.8307 -0.9518  2.2527
   19MOL0     H 2552   8.790  10.314   1.760  0.4205  1.2192  0.3059
   19MOL0     H 2553   8.535  10.075   2.066 -1.8550 -0.5521 -0.6953
   19MOL0     H 2554   8.625   9.974   1.945  0.0692  0.0577  0.1511
   19MOL0     H 2555   8.456  10.065   1.768 -0.5270 -0.9521  0.3417
   19MOL0     H 2556   8.386  10.143   1.911 -0.1285  1.9409 -1.3624
   19MOL0     H 2557   8.324   9.941   2.024 -1.4027  0.8921  0.4253
   19MOL0     H 2558   8.428   9.846   1.909 -1.3434 -0.5613 -1.2078
   19MOL0     H 2559   8.255   9.910   1.731  0.3810 -1.4529  0.1048
   19MOL0     H 2560   8.172   9.834   1.876  0.0807 -0.0669  0.9286
   19MOL0     H 2561   8.021  10.235   1.828 -0.8388 -0.0489 -0.6122
   19MOL0     H 2562   8.744  10.114   2.137 -0.4031 -0.5067  0.1847
   19MOL0     H 2563   8.866  10.198   2.305 -1.2330  2.0636 -0.3615
   19MOL0     H 2564   8.996  10.091   2.238  3.5582  1.1845 -0.7690
   19MOL0     H 2565   9.035  10.258   2.289  2.4103 -3.8566  0.4087
   20MOL0     O 2566   0.809   0.858   4.994  0.4690  0.0090 -0.7067
   20MOL0     C 2567   0.930   0.877   4.993  0.1032 -0.5063  0.1866
   20MOL0     O 2568   0.999   0.987   5.056 -0.3558  0.2809  0.4569
   20MOL0     C 2569   0.933   1.095   5.097 -0.4134 -0.1553  0.0292
   20MOL0     C 2570   0.939   1.133   5.232 -0.1201 -1.1650 -0.6564
   20MOL0     C 2571   0.845   1.230   5.282 -0.3939  1.0179  0.7961
   20MOL0     C 2572   0.765   1.298   5.191  0.9511  0.4578  0.3542
   20MOL0     O 2573   0.665   1.392   5.214 -0.2982 -0.1021 -0.2902
   20MOL0     C 2574   0.685   1.469   5.337  0.8630 -0.4770  1.1366
   20MOL0     C 2575   0.620   1.606   5.321  0.0270  0.4827  0.5172
   20MOL0     C 2576   0.621   1.670   5.454  0.1768 -0.3084 -0.3439
   20MOL0     C 2577   0.751   1.764   5.460 -0.2749 -0.4725  0.2746
   20MOL0     C 2578   0.715   1.878   5.546  0.5860  0.3365 -0.2683
   20MOL0     C 2579   0.818   1.987   5.570  0.3997 -0.0470 -0.2240
   20MOL0     C 2580   0.759   2.115   5.632 -0.0885  0.2393 -0.1262
   20MOL0     C 2581   0.861   2.206   5.697  0.3135  0.1601  0.2389
   20MOL0     N 2582   0.805   2.338   5.738 -0.1577 -0.8075 -0.2859
   20MOL0     C 2583   0.826   2.393   5.862 -0.6387  0.0529  0.4270
   20MOL0     C 2584   0.800   2.526   5.841  0.0232  0.0693 -0.5675
   20MOL0     C 2585   0.830   2.627   5.944 -0.1702  0.0864  0.5104
   20MOL0     C 2586   0.699   2.678   6.018  0.5131 -0.2393 -0.0686
   20MOL0     C 2587   0.627   2.775   5.925  0.3908  0.2782  0.2584
   20MOL0     C 2588   0.514   2.866   5.991 -0.5047 -0.3762 -0.3439
   20MOL0     O 2589   0.439   2.789   6.090 -0.3273 -0.0913  0.3425
   20MOL0     C 2590   0.358   2.685   6.052 -0.2616 -0.6561  0.4456
   20MOL0     C 2591   0.329   2.595   6.148  0.8250 -0.9307  0.0138
   20MOL0     C 2592   0.254   2.481   6.125  0.5991 -0.0353  0.2825
   20MOL0     C 2593   0.207   2.445   6.000  0.0273 -0.4806 -0.0391
   20MOL0     C 2594   0.140   2.317   5.960  0.6972  0.0070  0.5099
   20MOL0     O 2595   0.164   2.219   6.049  0.3381  0.4717 -1.0363
   20MOL0     C 2596   0.079   2.108   6.047 -0.5652  0.2805 -0.3999
   20MOL0     C 2597  -0.029   2.109   6.135 -0.1922  0.6390  0.6059
   20MOL0     C 2598  -0.113   2.000   6.138 -0.5482 -0.1546 -0.3737
   20MOL0     C 2599  -0.074   1.882   6.079 -0.4174  0.3153  1.3118
   20MOL0     O 2600  -0.132   1.755   6.100  0.2107 -0.3756 -0.2340
   20MOL0     C 2601  -0.218   1.746   6.216  0.5337 -0.1507  0.5703
   20MOL0     C 2602  -0.248   1.598   6.259  0.1835 -0.4154  0.5594
   20MOL0     C 2603  -0.133   1.497   6.213  0.0116 -1.0358 -0.3951
   20MOL0     C 2604  -0.177   1.359   6.241 -0.5532 -0.3910  0.4525
   20MOL0     C 2605  -0.069   1.258   6.209  0.2941  0.1067 -0.4242
   20MOL0     C 2606  -0.115   1.118   6.155 -0.1083 -0.4164  1.0164
   20MOL0     C 2607  -0.187   1.124   6.022  0.7746 -0.1125  1.4016
   20MOL0     C 2608  -0.227   0.981   5.976  0.0115 -0.1439 -0.5523
   20MOL0    Cl 2609  -0.359   0.904   6.070 -0.1558  0.3181  0.4372
   20MOL0     C 2610   0.029   1.890   5.979 -0.8442  0.0575 -0.6454
   20MOL0     C 2611   0.102   2.003   5.957 -0.8310 -0.7492 -0.1077
   20MOL0     O 2612   0.072   2.311   5.854 -0.8839  0.1366 -0.2258
   20MOL0     C 2613   0.236   2.541   5.897 -0.2316  0.2578  0.0215
   20MOL0     C 2614   0.316   2.658   5.917 -1.0500  0.5925  0.0332
   20MOL0     N 2615   0.744   2.546   5.711  0.8840 -0.4042 -0.5440
   20MOL0     N 2616   0.748   2.432   5.655 -1.0299 -0.6645 -0.2179
   20MOL0     C 2617   0.766   1.272   5.058 -0.2301  0.1056  0.6357
   20MOL0     C 2618   0.845   1.158   5.009  0.2390 -0.1865 -0.6874
   20MOL0     C 2619   1.012   0.761   4.950  0.0217 -0.5750 -0.3811
   20MOL0     C 2620   0.990   0.626   4.989 -0.5605 -0.1394 -0.0347
   20MOL0     C 2621   1.076   0.525   4.941  0.2510 -0.0776  0.7344
   20MOL0     C 2622   1.188   0.552   4.878  0.6224 -0.2440  0.5857
   20MOL0     O 2623   1.268   0.449   4.846 -0.4311  0.0124 -0.0261
   20MOL0     C 2624   1.237   0.399   4.716  0.2103 -0.0417  0.0154
   20MOL0     C 2625   1.360   0.343   4.654 -1.2385 -0.4362  0.7815
   20MOL0     C 2626   1.459   0.459   4.631 -0.0747 -0.7575  0.4918
   20MOL0     C 2627   1.599   0.422   4.565 -0.4742  0.7295  0.1594
   20MOL0     C 2628   1.596   0.378   4.424 -0.4490  0.2967  0.1674
   20MOL0     C 2629   1.604   0.350   4.305 -0.0945 -0.2050 -0.2004
   20MOL0     C 2630   1.211   0.683   4.829 -0.9831  0.3239 -0.3782
   20MOL0     C 2631   1.117   0.779   4.860 -1.0432  0.0673 -0.2551
   20MOL0     C 2632   1.148   0.907   4.789  0.5775  0.4509 -0.1153
   20MOL0     H 2633   1.002   1.086   5.308 -2.1973 -4.6917 -0.9009
   20MOL0     H 2634   0.849   1.257   5.387  1.8032  1.4421  0.6572
   20MOL0     H 2635   0.640   1.423   5.425  2.4366 -0.3683  2.0320
   20MOL0     H 2636   0.792   1.473   5.358  1.1395 -0.6778 -0.1489
   20MOL0     H 2637   0.518   1.598   5.282  1.0312 -2.9058 -1.9379
   20MOL0     H 2638   0.675   1.664   5.247  0.3740 -0.3013  0.1403
   20MOL0     H 2639   0.626   1.595   5.534 -1.5407 -0.9663 -0.8135
   20MOL0     H 2640   0.533   1.735   5.456  1.2841  1.2223  1.7994
   20MOL0     H 2641   0.830   1.704   5.506  0.1705 -0.3879 -0.3670
   20MOL0     H 2642   0.789   1.787   5.360  2.8129 -0.9918  1.2376
   20MOL0     H 2643   0.620   1.924   5.519 -0.3985 -0.7918  1.1463
   20MOL0     H 2644   0.703   1.831   5.644 -0.1837  1.0198 -0.0281
   20MOL0     H 2645   0.895   1.951   5.639  1.2907  0.7902 -0.7625
   20MOL0     H 2646   0.852   2.018   5.471 -0.8342  0.1494 -0.6012
   20MOL0     H 2647   0.699   2.100   5.722  0.6528  0.3055  0.3882
   20MOL0     H 2648   0.707   2.170   5.553  1.8821  0.8955 -1.0333
   20MOL0     H 2649   0.906   2.156   5.783 -1.2977 -1.8195  0.0052
   20MOL0     H 2650   0.937   2.241   5.626 -0.3898  0.4949 -0.3723
   20MOL0     H 2651   0.883   2.339   5.936  2.2733 -1.4453 -2.6679
   20MOL0     H 2652   0.894   2.581   6.021 -0.0534 -1.9071 -0.7063
   20MOL0     H 2653   0.873   2.717   5.898 -3.6616  0.4969 -2.3817
   20MOL0     H 2654   0.638   2.593   6.050  1.9788 -2.0857 -1.8214
   20MOL0     H 2655   0.750   2.723   6.103  2.5979 -0.4149 -1.1568
   20MOL0     H 2656   0.592   2.720   5.837  3.0713 -1.6227  0.2550
   20MOL0     H 2657   0.702   2.849   5.895  1.0331  0.8032  2.9011
   20MOL0     H 2658   0.440   2.897   5.917 -0.3418  1.7694  0.3234
   20MOL0     H 2659   0.562   2.950   6.043 -0.6179 -0.5746  0.0865
   20MOL0     H 2660   0.364   2.606   6.250  1.2022 -4.1995  0.3270
   20MOL0     H 2661   0.221   2.414   6.204 -1.5632 -0.1041 -0.6191
   20MOL0     H 2662  -0.050   2.201   6.188  1.2310  0.7769  0.9503
   20MOL0     H 2663  -0.194   1.998   6.211 -2.5472 -3.3300 -2.4359
   20MOL0     H 2664  -0.182   1.797   6.306  2.0827  2.1848 -1.2386
   20MOL0     H 2665  -0.311   1.801   6.197 -0.7522 -3.2458 -3.7254
   20MOL0     H 2666  -0.261   1.587   6.367  0.8058 -0.7352  0.6054
   20MOL0     H 2667  -0.336   1.568   6.202 -0.8863 -1.7579  2.7910
   20MOL0     H 2668  -0.103   1.504   6.108 -0.4568 -2.4061 -0.6460
   20MOL0     H 2669  -0.044   1.513   6.273  2.3977 -2.0818 -3.3936
   20MOL0     H 2670  -0.271   1.335   6.191  0.0290  0.4244 -1.1385
   20MOL0     H 2671  -0.189   1.360   6.349 -0.8298  0.3859  0.4188
   20MOL0     H 2672   0.004   1.252   6.290  0.2550 -2.6356 -0.4787
   20MOL0     H 2673  -0.012   1.299   6.124 -2.6982  2.1846 -1.5862
   20MOL0     H 2674  -0.020   1.066   6.140  0.1855 -0.0136  1.4571
   20MOL0     H 2675  -0.180   1.071   6.229 -1.4643  0.2066  0.2451
   20MOL0     H 2676  -0.126   1.165   5.941  0.3301 -1.8849  0.1064
   20MOL0     H 2677  -0.277   1.185   6.037  1.9292  1.8064  0.9246
   20MOL0     H 2678  -0.257   0.994   5.871  1.5765  1.1391 -0.8827
   20MOL0     H 2679  -0.133   0.925   5.979  0.5951  0.5443 -3.3723
   20MOL0     H 2680   0.051   1.797   5.926 -1.9102  0.5899 -2.0904
   20MOL0     H 2681   0.183   2.007   5.885 -3.6618  1.3031 -3.5614
   20MOL0     H 2682   0.209   2.525   5.793 -0.1311 -2.2445  0.3250
   20MOL0     H 2683   0.349   2.732   5.845 -1.2158  1.0556  0.4264
   20MOL0     H 2684   0.701   1.326   4.991 -1.8856 -2.1896  0.2674
   20MOL0     H 2685   0.858   1.136   4.904  1.5055 -0.8924 -0.4022
   20MOL0     H 2686   0.911   0.624   5.064  0.8680  0.2677  1.5488
   20MOL0     H 2687   1.085   0.426   4.985  2.5606 -0.4731 -0.4550
   20MOL0     H 2688   1.186   0.470   4.651 -1.8021 -3.6656 -2.7747
   20MOL0     H 2689   1.163   0.321   4.739  0.4157  0.3625  2.2758
   20MOL0     H 2690   1.353   0.288   4.560  0.2554 -1.3365  1.1580
   20MOL0     H 2691   1.414   0.282   4.727  1.2682  1.2770  0.4941
   20MOL0     H 2692   1.492   0.496   4.729  0.5262 -1.1986  0.4651
   20MOL0     H 2693   1.411   0.542   4.578  4.2278  1.0883 -1.0470
   20MOL0     H 2694   1.657   0.514   4.560  0.8574 -0.1331 -1.1148
   20MOL0     H 2695   1.659   0.344   4.613 -0.8062  0.2728 -0.1465
   20MOL0     H 2696   1.620   0.340   4.199 -0.2875 -1.2748 -0.1403
   20MOL0     H 2697   1.300   0.700   4.769 -0.4176 -4.5119 -1.3151
   20MOL0     H 2698   1.210   0.902   4.699  0.6326 -0.2669 -0.0438
   20MOL0     H 2699   1.050   0.944   4.758  0.4188 -0.6944 -1.0925
   20MOL0     H 2700   1.202   0.970   4.860 -0.9475  1.5314  0.1299
   21MOL0     O 2701  10.181   9.891   3.527 -0.7824 -0.5030  0.0549
   21MOL0     C 2702  10.066   9.934   3.527 -1.1153  0.7923  0.3362
   21MOL0     O 2703   9.957   9.854   3.552  0.0821 -0.5875 -0.2221
   21MOL0     C 2704   9.987   9.734   3.620 -0.2743 -0.0980 -0.3353
   21MOL0     C 2705  10.041   9.739   3.748  0.1382  1.3737 -0.0736
   21MOL0     C 2706  10.062   9.615   3.816 -0.1036 -0.2084 -0.5260
   21MOL0     C 2707  10.036   9.489   3.770  0.4229 -0.2121  0.7702
   21MOL0     O 2708  10.069   9.382   3.847  0.0533 -0.0240 -0.9316
   21MOL0     C 2709  10.008   9.254   3.832  0.6904  0.3230  0.0032
   21MOL0     C 2710  10.038   9.167   3.948 -0.6252  0.7907 -0.3797
   21MOL0     C 2711   9.988   9.030   3.963  0.7585 -1.3090  0.2244
   21MOL0     C 2712   9.832   9.029   3.974  0.6856 -0.7030 -0.4072
   21MOL0     C 2713   9.776   8.894   4.043  0.0238 -0.3274  0.1558
   21MOL0     C 2714   9.619   8.891   4.060  0.5568  0.1195  0.1469
   21MOL0     C 2715   9.563   8.754   4.085  0.6272 -0.1460  0.4329
   21MOL0     C 2716   9.611   8.680   4.218 -0.1018 -0.0367 -0.9257
   21MOL0     N 2717   9.751   8.622   4.220  0.8130 -0.1728 -0.3093
   21MOL0     C 2718   9.773   8.495   4.173 -0.5118 -0.3399  0.6091
   21MOL0     C 2719   9.907   8.475   4.186  0.4245 -0.2234  0.3534
   21MOL0     C 2720   9.973   8.341   4.142  0.7107 -0.6189 -0.0134
   21MOL0     C 2721  10.063   8.384   4.028  0.3338  0.4823  0.1904
   21MOL0     C 2722  10.143   8.271   3.960 -0.5354 -0.4996  0.3695
   21MOL0     C 2723  10.069   8.211   3.836  0.0882 -0.8459 -0.4573
   21MOL0     O 2724  10.068   8.291   3.722 -0.2478  0.0889  0.0161
   21MOL0     C 2725  10.013   8.243   3.609 -0.4135 -0.4927 -0.2407
   21MOL0     C 2726  10.001   8.324   3.497  0.7477 -0.0439 -0.1378
   21MOL0     C 2727   9.947   8.278   3.378 -0.3025 -0.0841  0.2723
   21MOL0     C 2728   9.919   8.142   3.353 -0.0840 -0.6311 -0.4291
   21MOL0     C 2729   9.888   8.078   3.227  0.0400 -0.5412 -0.3050
   21MOL0     O 2730   9.804   8.136   3.137  0.0142  0.4914 -0.3855
   21MOL0     C 2731   9.815   8.105   3.000  0.3730 -0.2789 -0.6386
   21MOL0     C 2732   9.774   7.979   2.950 -0.0465 -0.2825 -0.4455
   21MOL0     C 2733   9.778   7.961   2.812 -0.1117  0.1656  0.0523
   21MOL0     C 2734   9.799   8.074   2.724 -0.9640 -0.2221 -0.6467
   21MOL0     O 2735   9.788   8.066   2.587  0.7273  0.2721  0.2054
   21MOL0     C 2736   9.798   7.925   2.540 -0.3744  0.0967  0.0857
   21MOL0     C 2737   9.841   7.930   2.391  0.5571  0.5369  0.0323
   21MOL0     C 2738   9.872   7.789   2.338  0.0795  0.9298  0.3354
   21MOL0     C 2739   9.881   7.793   2.183 -0.7384  0.6011  0.5757
   21MOL0     C 2740   9.872   7.644   2.130  0.0043 -0.7197  0.1045
   21MOL0     C 2741   9.726   7.584   2.139 -0.3799  0.2484 -0.1874
   21MOL0     C 2742   9.724   7.434   2.084 -0.3123 -0.2045 -0.1369
   21MOL0     C 2743   9.761   7.434   1.938  0.3754  0.0095  0.7777
   21MOL0    Cl 2744   9.647   7.533   1.840 -0.3369 -0.5416  0.0600
   21MOL0     C 2745   9.824   8.204   2.779 -0.4540 -0.1673 -0.6033
   21MOL0     C 2746   9.831   8.216   2.918  0.0886 -0.3641 -0.5978
   21MOL0     O 2747   9.952   7.971   3.208 -0.1443 -0.4292  0.5819
   21MOL0     C 2748   9.911   8.068   3.470  0.4656 -0.1241 -0.4002
   21MOL0     C 2749   9.954   8.119   3.592  0.4704 -0.5775 -0.1543
   21MOL0     N 2750   9.956   8.597   4.239  0.0959  0.4173 -0.9210
   21MOL0     N 2751   9.871   8.679   4.260  0.4924  0.6993  0.0669
   21MOL0     C 2752   9.981   9.487   3.639  0.7827 -1.0453  0.8705
   21MOL0     C 2753   9.950   9.610   3.569 -0.2218  0.4964 -1.2886
   21MOL0     C 2754  10.038  10.061   3.456 -0.5756  0.7934 -0.5582
   21MOL0     C 2755   9.908  10.094   3.397 -0.2928  1.4329 -0.1675
   21MOL0     C 2756   9.875  10.219   3.348  0.3350 -0.5034  0.4392
   21MOL0     C 2757   9.977  10.313   3.330 -1.0621  0.1297 -0.3415
   21MOL0     O 2758   9.965  10.425   3.249 -0.1770  0.0231  0.1050
   21MOL0     C 2759   9.846  10.501   3.293  0.4002  0.7336 -0.6508
   21MOL0     C 2760   9.862  10.642   3.258 -0.3840 -0.7779 -0.2243
   21MOL0     C 2761   9.736  10.729   3.307  0.2286 -0.0329  0.2662
   21MOL0     C 2762   9.722  10.873   3.259  0.6924  0.3978  0.2550
   21MOL0     C 2763   9.852  10.940   3.237  0.1453 -0.7841  0.7104
   21MOL0     C 2764   9.946  11.014   3.223 -0.2663 -0.0945 -0.5682
   21MOL0     C 2765  10.103  10.283   3.387 -0.2692  0.6352 -0.0451
   21MOL0     C 2766  10.133  10.161   3.452 -0.5181 -0.7884 -0.3592
   21MOL0     C 2767  10.269  10.156   3.520 -0.1146 -0.5794 -0.3454
   21MOL0     H 2768  10.058   9.831   3.804 -0.8029  1.6429 -0.2259
   21MOL0     H 2769  10.110   9.624   3.913  4.4036 -0.0301 -2.5177
   21MOL0     H 2770   9.899   9.257   3.824  0.8032  1.0402 -1.6531
   21MOL0     H 2771  10.039   9.204   3.740 -2.0064 -1.3205 -0.1390
   21MOL0     H 2772  10.020   9.221   4.042  3.7052 -0.6326  1.5364
   21MOL0     H 2773  10.145   9.148   3.944 -0.8475 -3.9482  4.5143
   21MOL0     H 2774  10.042   8.975   4.041  0.8087 -0.6176  0.6832
   21MOL0     H 2775  10.022   8.986   3.869  4.2790 -0.6702  1.0510
   21MOL0     H 2776   9.791   9.112   4.033  1.9528 -0.9069  0.8429
   21MOL0     H 2777   9.786   9.034   3.875 -1.8058  0.1295  0.7028
   21MOL0     H 2778   9.805   8.808   3.982  2.7466  1.4293 -1.1964
   21MOL0     H 2779   9.822   8.873   4.140  0.6868  0.1322 -0.0556
   21MOL0     H 2780   9.591   8.971   4.130  2.0365  1.3273 -0.5774
   21MOL0     H 2781   9.561   8.933   3.977 -0.0124  2.5495  1.6479
   21MOL0     H 2782   9.585   8.682   4.005  1.0253  0.6818 -0.2208
   21MOL0     H 2783   9.454   8.756   4.095  0.8086  1.8450  2.7644
   21MOL0     H 2784   9.609   8.755   4.298  0.0250  1.6893 -2.4681
   21MOL0     H 2785   9.539   8.601   4.243  1.9277 -1.5382  0.3797
   21MOL0     H 2786   9.699   8.436   4.119 -0.0174 -0.2454 -0.2023
   21MOL0     H 2787  10.038   8.287   4.212  0.7654 -0.6329 -0.0748
   21MOL0     H 2788   9.895   8.272   4.111  0.6332 -0.8824  0.7322
   21MOL0     H 2789  10.010   8.443   3.952  1.9408 -2.5522 -3.6673
   21MOL0     H 2790  10.138   8.458   4.058  1.7136  0.6075 -3.0695
   21MOL0     H 2791  10.165   8.196   4.036  2.0507 -0.1016  0.1043
   21MOL0     H 2792  10.236   8.317   3.926 -1.6367  1.0593 -0.6661
   21MOL0     H 2793   9.963   8.201   3.863 -0.8315  0.2132 -3.2348
   21MOL0     H 2794  10.103   8.112   3.805  0.9874 -0.7013  0.0332
   21MOL0     H 2795  10.031   8.428   3.485  0.4427  0.0528 -0.0592
   21MOL0     H 2796   9.952   8.342   3.290 -2.1513  0.2282  0.3537
   21MOL0     H 2797   9.720   7.906   3.009 -2.3594  1.3616 -0.3915
   21MOL0     H 2798   9.736   7.871   2.770  0.4265  0.5674 -1.4106
   21MOL0     H 2799   9.876   7.877   2.601  0.2302 -0.2916 -0.9604
   21MOL0     H 2800   9.706   7.871   2.563 -0.0346 -0.7074 -0.4102
   21MOL0     H 2801   9.760   7.970   2.330 -0.7539 -2.8501 -0.6359
   21MOL0     H 2802   9.932   7.990   2.385  1.6460 -1.0284  0.1364
   21MOL0     H 2803   9.957   7.744   2.391  0.3794  2.8280  1.5701
   21MOL0     H 2804   9.781   7.732   2.359  0.6406  0.1230  0.6279
   21MOL0     H 2805   9.974   7.833   2.140 -0.7131 -1.3198 -1.3216
   21MOL0     H 2806   9.801   7.850   2.134 -0.4471  0.5751  0.0569
   21MOL0     H 2807   9.943   7.576   2.179 -1.4663 -0.2771  3.0384
   21MOL0     H 2808   9.911   7.653   2.028  0.0085 -1.8519 -0.0134
   21MOL0     H 2809   9.688   7.594   2.241  0.5522  1.4034  0.0743
   21MOL0     H 2810   9.661   7.649   2.081 -0.1980  0.0622 -0.6065
   21MOL0     H 2811   9.625   7.391   2.102 -0.6535  0.3752 -0.6144
   21MOL0     H 2812   9.801   7.377   2.137  1.2909  2.7610  0.9143
   21MOL0     H 2813   9.867   7.460   1.922  0.9487 -0.5810  3.2108
   21MOL0     H 2814   9.755   7.328   1.912  0.3150 -0.5865  3.0191
   21MOL0     H 2815   9.830   8.289   2.711 -1.5798  1.8896  1.7365
   21MOL0     H 2816   9.858   8.312   2.962 -0.6958 -0.4835  0.1676
   21MOL0     H 2817   9.864   7.970   3.466  0.2870 -0.2462  2.4884
   21MOL0     H 2818   9.939   8.048   3.673  0.1902  0.3043  0.5826
   21MOL0     H 2819   9.950   9.390   3.603 -1.2411 -0.7843  1.7671
   21MOL0     H 2820   9.902   9.602   3.472 -0.6135  3.1765 -1.3982
   21MOL0     H 2821   9.824  10.025   3.398  0.3553  0.6200 -0.6725
   21MOL0     H 2822   9.775  10.241   3.312  0.6767  1.7397  0.7263
   21MOL0     H 2823   9.818  10.497   3.399 -1.3974  5.0939 -0.7727
   21MOL0     H 2824   9.763  10.462   3.234  0.7617  1.0189 -1.3635
   21MOL0     H 2825   9.867  10.658   3.150  2.2388 -2.2674 -0.4087
   21MOL0     H 2826   9.953  10.683   3.301 -0.3533  1.5412 -2.2969
   21MOL0     H 2827   9.730  10.732   3.416 -1.9291  1.5225  0.1635
   21MOL0     H 2828   9.641  10.678   3.288  1.1376 -2.2150  1.1950
   21MOL0     H 2829   9.665  10.878   3.166  0.4514  0.6441  0.4123
   21MOL0     H 2830   9.663  10.941   3.321  1.4746  3.6839 -2.2875
   21MOL0     H 2831  10.036  11.070   3.205  0.0661 -0.4291  0.0397
   21MOL0     H 2832  10.178  10.361   3.390 -0.5951  0.9304  2.2628
   21MOL0     H 2833  10.349  10.103   3.469  0.9557  1.4770 -0.9350
   21MOL0     H 2834  10.301  10.260   3.536 -1.3422  0.0212 -1.5465
   21MOL0     H 2835  10.255  10.111   3.619 -1.1955 -0.1313 -0.2777
   22MOL0     O 2836   4.228   9.567   8.869 -0.8214 -0.7106  0.7423
   22MOL0     C 2837   4.318   9.632   8.922 -0.1059 -0.1073  0.0840
   22MOL0     O 2838   4.447   9.588   8.942 -0.5494  0.5030  0.3479
   22MOL0     C 2839   4.477   9.461   8.909 -0.3081 -0.2249 -0.0834
   22MOL0     C 2840   4.405   9.347   8.946 -0.0920 -0.1192 -1.2809
   22MOL0     C 2841   4.466   9.224   8.906 -0.1172  0.1429  0.4734
   22MOL0     C 2842   4.593   9.206   8.838  0.6852 -0.4570  0.0079
   22MOL0     O 2843   4.624   9.071   8.813 -0.1751 -0.6460  0.2632
   22MOL0     C 2844   4.736   9.038   8.735 -0.0314  0.6012  0.3141
   22MOL0     C 2845   4.742   8.885   8.698  0.0089  0.3061 -1.0334
   22MOL0     C 2846   4.616   8.810   8.653 -0.5871  0.1129  0.1082
   22MOL0     C 2847   4.607   8.659   8.656  0.1423 -0.4186 -0.4734
   22MOL0     C 2848   4.516   8.591   8.556 -0.3978 -0.2419  0.5965
   22MOL0     C 2849   4.374   8.664   8.556 -0.4697  0.2713 -0.6301
   22MOL0     C 2850   4.311   8.630   8.696  0.0602  0.3360 -0.3066
   22MOL0     C 2851   4.165   8.679   8.708  0.2314 -0.2017  0.2351
   22MOL0     N 2852   4.155   8.826   8.729  0.5958 -0.0345 -1.1670
   22MOL0     C 2853   4.156   8.922   8.627  0.1816  0.5332 -0.7145
   22MOL0     C 2854   4.135   9.040   8.693 -0.5777 -0.3423  0.2383
   22MOL0     C 2855   4.132   9.176   8.634 -0.1220 -0.3821  0.0934
   22MOL0     C 2856   3.993   9.234   8.674 -0.4237  0.3284 -0.3844
   22MOL0     C 2857   3.979   9.377   8.617 -0.4301  0.0781 -0.3572
   22MOL0     C 2858   3.829   9.418   8.637 -1.1357 -0.1949 -0.2440
   22MOL0     O 2859   3.806   9.549   8.589 -0.1095 -0.3554 -0.0080
   22MOL0     C 2860   3.731   9.625   8.674  0.1629  0.6134  0.3521
   22MOL0     C 2861   3.782   9.724   8.752 -0.2876  0.2680 -0.2031
   22MOL0     C 2862   3.704   9.810   8.832 -0.6394  0.3030 -0.2951
   22MOL0     C 2863   3.558   9.796   8.827 -0.0357  0.8030 -0.2739
   22MOL0     C 2864   3.469   9.876   8.909 -0.1252 -0.3192 -0.1165
   22MOL0     O 2865   3.338   9.831   8.911  0.7616 -0.0992 -0.4578
   22MOL0     C 2866   3.240   9.890   8.994 -0.9263 -0.3359 -0.2618
   22MOL0     C 2867   3.121   9.932   8.941 -0.1480 -0.2307  0.0573
   22MOL0     C 2868   3.027   9.990   9.029  0.0344  0.0143 -0.0243
   22MOL0     C 2869   3.050  10.016   9.160  0.3557 -1.2642  0.1859
   22MOL0     O 2870   2.958  10.084   9.234 -0.1918 -0.2103  0.2256
   22MOL0     C 2871   2.927  10.044   9.371 -0.5402  0.6028 -0.6220
   22MOL0     C 2872   2.784   9.995   9.388  0.2183 -0.7117  0.3590
   22MOL0     C 2873   2.694  10.113   9.346 -0.3531 -0.3616 -0.5270
   22MOL0     C 2874   2.539  10.086   9.359 -1.1895 -0.3317 -0.7509
   22MOL0     C 2875   2.506   9.974   9.263  0.0938  1.1248 -0.0899
   22MOL0     C 2876   2.358   9.946   9.244  0.2161 -0.5612  0.0640
   22MOL0     C 2877   2.303   9.883   9.375  0.4791  0.0060 -0.0758
   22MOL0     C 2878   2.182   9.792   9.339  0.0779  0.2535  0.0592
   22MOL0    Cl 2879   2.054   9.893   9.261 -0.3086  0.2261  0.1450
   22MOL0     C 2880   3.170   9.964   9.214  0.5183  0.0593 -0.1661
   22MOL0     C 2881   3.266   9.905   9.131  0.7809 -0.7837  0.1210
   22MOL0     O 2882   3.514   9.976   8.962  0.2450  0.5750 -0.3538
   22MOL0     C 2883   3.509   9.699   8.738 -0.4466  0.8485 -0.4131
   22MOL0     C 2884   3.595   9.616   8.665  0.5361 -0.7654  1.3121
   22MOL0     N 2885   4.150   9.016   8.829  1.0395  0.1554 -0.8401
   22MOL0     N 2886   4.152   8.891   8.851  0.2897 -0.6415 -0.5284
   22MOL0     C 2887   4.654   9.318   8.800 -0.3914 -0.6300  0.7319
   22MOL0     C 2888   4.598   9.447   8.837  0.5027  0.3280 -0.0301
   22MOL0     C 2889   4.282   9.777   8.928  0.7419 -0.7006 -0.4510
   22MOL0     C 2890   4.382   9.863   8.889 -0.1158 -0.6552 -0.3846
   22MOL0     C 2891   4.361  10.003   8.899 -0.3133  0.6860  0.8816
   22MOL0     C 2892   4.247  10.064   8.946  0.2073  0.4248 -0.1535
   22MOL0     O 2893   4.220  10.188   8.962  0.2478 -0.7187 -0.1845
   22MOL0     C 2894   4.326  10.289   8.962 -0.6539 -0.2778 -0.3160
   22MOL0     C 2895   4.317  10.376   8.830  0.3908 -0.9560 -0.2584
   22MOL0     C 2896   4.202  10.467   8.841  0.4559 -0.2281  0.3938
   22MOL0     C 2897   4.227  10.593   8.753 -0.9733 -0.2266  0.0004
   22MOL0     C 2898   4.327  10.686   8.808  0.1928 -0.1946  0.0206
   22MOL0     C 2899   4.418  10.747   8.843 -0.5504 -0.3319 -0.3166
   22MOL0     C 2900   4.143   9.977   8.984  0.5106  0.3424  0.4360
   22MOL0     C 2901   4.153   9.835   8.967 -0.7146  0.1580 -1.8139
   22MOL0     C 2902   4.043   9.750   9.021 -0.5264 -1.0335 -0.0852
   22MOL0     H 2903   4.305   9.350   8.989  0.9267 -2.2489  1.5789
   22MOL0     H 2904   4.408   9.134   8.924 -2.0355  0.3743 -3.4764
   22MOL0     H 2905   4.734   9.087   8.638  1.7204  2.4896  1.1569
   22MOL0     H 2906   4.824   9.057   8.798  0.7154 -0.2403 -0.4442
   22MOL0     H 2907   4.784   8.831   8.783  5.4002  4.2711 -0.7140
   22MOL0     H 2908   4.815   8.865   8.619  0.2498  1.0475 -0.9989
   22MOL0     H 2909   4.600   8.831   8.547 -0.8867 -2.3115 -0.3924
   22MOL0     H 2910   4.527   8.856   8.697 -2.4148 -2.2697 -0.8762
   22MOL0     H 2911   4.710   8.627   8.639 -0.1931 -2.0590  0.3765
   22MOL0     H 2912   4.579   8.624   8.756  0.2981 -0.0099 -0.2861
   22MOL0     H 2913   4.551   8.607   8.454 -2.5992 -3.0701 -0.7344
   22MOL0     H 2914   4.522   8.482   8.555 -1.9017 -0.3483 -1.3750
   22MOL0     H 2915   4.379   8.772   8.537 -2.2380  0.9949  2.3387
   22MOL0     H 2916   4.310   8.616   8.482  0.0987  1.2293 -1.7705
   22MOL0     H 2917   4.374   8.679   8.771 -1.8348  0.8213  1.0719
   22MOL0     H 2918   4.327   8.523   8.710  5.9977  0.9552  0.0557
   22MOL0     H 2919   4.102   8.639   8.628 -0.6088 -1.6219  1.5562
   22MOL0     H 2920   4.136   8.628   8.800  0.2467  0.7807  0.7938
   22MOL0     H 2921   4.170   8.905   8.520  2.1586 -0.0480 -0.4161
   22MOL0     H 2922   4.207   9.245   8.673  0.0595  1.3889 -3.1010
   22MOL0     H 2923   4.149   9.181   8.526  3.5783  0.6721  0.5799
   22MOL0     H 2924   3.927   9.162   8.625 -0.5052 -0.9041  1.4355
   22MOL0     H 2925   3.973   9.242   8.782  3.1796 -0.8207  0.5045
   22MOL0     H 2926   4.003   9.393   8.512  1.2382 -1.3329 -0.2309
   22MOL0     H 2927   4.036   9.440   8.686 -0.4836 -2.7863  2.5306
   22MOL0     H 2928   3.817   9.419   8.745 -0.5912  1.6877 -0.1642
   22MOL0     H 2929   3.759   9.351   8.587 -0.1757  0.0610 -2.0336
   22MOL0     H 2930   3.891   9.730   8.747  0.0565 -2.8105  1.0469
   22MOL0     H 2931   3.748   9.890   8.891  0.2300 -0.5301  0.2127
   22MOL0     H 2932   3.108   9.922   8.834  0.2525 -0.7457  0.0528
   22MOL0     H 2933   2.930  10.017   8.991  1.0969  1.4348 -1.9264
   22MOL0     H 2934   2.988   9.956   9.392  2.3876  2.7242  0.5076
   22MOL0     H 2935   2.950  10.123   9.443 -1.7155 -0.4559  0.9759
   22MOL0     H 2936   2.770   9.909   9.322 -2.1310 -1.5503  1.8572
   22MOL0     H 2937   2.757   9.958   9.487 -0.5612 -0.7350  0.1434
   22MOL0     H 2938   2.726  10.185   9.421  3.0580 -2.3151  0.0947
   22MOL0     H 2939   2.717  10.158   9.248 -3.0721 -0.4034 -1.2744
   22MOL0     H 2940   2.483  10.179   9.354 -2.9094 -1.3350 -1.0748
   22MOL0     H 2941   2.529  10.043   9.460  0.2858  0.8102 -0.0768
   22MOL0     H 2942   2.559   9.883   9.293  1.9601  2.4234  0.7310
   22MOL0     H 2943   2.544   9.998   9.163 -1.3154 -0.5792 -1.0958
   22MOL0     H 2944   2.315  10.045   9.223 -0.7464 -1.2283 -1.3149
   22MOL0     H 2945   2.339   9.884   9.156  0.5248  2.0379 -1.9549
   22MOL0     H 2946   2.265   9.953   9.450 -2.0293 -2.6464  1.3316
   22MOL0     H 2947   2.375   9.816   9.422 -2.1148 -2.1743  1.0729
   22MOL0     H 2948   2.215   9.720   9.264  0.3630  3.6386 -3.3756
   22MOL0     H 2949   2.131   9.739   9.420  2.3774  0.7418  1.9067
   22MOL0     H 2950   3.196   9.977   9.318 -0.6356 -0.4152  0.2064
   22MOL0     H 2951   3.356   9.876   9.185  2.2841  2.7174 -0.2392
   22MOL0     H 2952   3.404   9.702   8.710 -0.3137 -1.0405 -1.2486
   22MOL0     H 2953   3.555   9.547   8.591  0.4634 -0.1066  0.7273
   22MOL0     H 2954   4.740   9.310   8.734 -0.2410 -0.5566  0.9156
   22MOL0     H 2955   4.634   9.545   8.807 -3.5323  1.5916 -1.2750
   22MOL0     H 2956   4.472   9.825   8.842 -0.1464 -1.6827  0.3727
   22MOL0     H 2957   4.448  10.058   8.865 -0.3958 -0.8178 -2.0166
   22MOL0     H 2958   4.426  10.245   8.967 -0.9078 -0.7454  1.9805
   22MOL0     H 2959   4.335  10.349   9.053  0.1244 -0.0661 -0.5311
   22MOL0     H 2960   4.311  10.303   8.749 -2.2967 -1.5999  0.4164
   22MOL0     H 2961   4.414  10.426   8.818  1.3725 -2.4762  0.9258
   22MOL0     H 2962   4.172  10.510   8.937  4.2493  1.1505  1.1439
   22MOL0     H 2963   4.110  10.422   8.804  1.2480 -2.1385  0.6249
   22MOL0     H 2964   4.262  10.553   8.657 -1.3503 -1.0223  0.1783
   22MOL0     H 2965   4.136  10.643   8.722  0.8288  1.4066 -3.1456
   22MOL0     H 2966   4.507  10.803   8.860 -0.3513 -0.3715 -1.1922
   22MOL0     H 2967   4.054  10.026   9.023 -0.2634  0.8068 -1.7349
   22MOL0     H 2968   4.010   9.674   8.949 -0.5287 -1.2277  0.1229
   22MOL0     H 2969   4.065   9.696   9.113 -1.1578 -1.1703 -0.0104
   22MOL0     H 2970   3.966   9.821   9.052  1.1332  0.3099  1.0925
   23MOL0     O 2971   7.647   9.890   6.929 -0.3925  0.3761  0.7377
   23MOL0     C 2972   7.645   9.984   6.844 -0.1372 -0.0099 -0.4341
   23MOL0     O 2973   7.749  10.070   6.828 -0.4277 -0.1589  1.0104
   23MOL0     C 2974   7.880  10.038   6.845  0.3596  0.4309 -0.0721
   23MOL0     C 2975   7.926   9.906   6.845  0.7958 -1.0469 -0.3340
   23MOL0     C 2976   8.067   9.892   6.854 -0.1266  0.0690  0.4726
   23MOL0     C 2977   8.157   9.998   6.875 -0.2191 -0.7502 -0.5151
   23MOL0     O 2978   8.296   9.984   6.867  0.5761 -0.5834  0.0092
   23MOL0     C 2979   8.378  10.078   6.930 -0.1120 -0.3071 -0.3647
   23MOL0     C 2980   8.521  10.050   6.900 -0.0615 -0.3987 -0.7701
   23MOL0     C 2981   8.620  10.157   6.956  0.2228  0.1676  0.6988
   23MOL0     C 2982   8.760  10.136   6.905  0.6045  1.0286 -0.3307
   23MOL0     C 2983   8.844  10.251   6.952  0.3064 -0.0192 -1.0383
   23MOL0     C 2984   8.987  10.233   6.894  0.3331 -0.4881  0.1603
   23MOL0     C 2985   9.075  10.335   6.968  0.9237  0.6301  0.4456
   23MOL0     C 2986   9.039  10.480   6.966 -0.6910  0.4031  0.7022
   23MOL0     N 2987   9.142  10.533   7.049 -0.6297 -0.3515 -0.4772
   23MOL0     C 2988   9.133  10.535   7.189  0.2524 -0.4557  0.8408
   23MOL0     C 2989   9.257  10.553   7.231 -0.0660 -0.4551  1.1469
   23MOL0     C 2990   9.291  10.567   7.378 -0.1610 -0.5668 -0.1801
   23MOL0     C 2991   9.383  10.456   7.432 -0.2809 -0.0520 -0.4182
   23MOL0     C 2992   9.512  10.422   7.351 -0.7309 -0.0773  0.1753
   23MOL0     C 2993   9.606  10.545   7.339 -1.1168 -0.6253 -0.2720
   23MOL0     O 2994   9.729  10.515   7.265 -0.0915 -0.0132 -0.4078
   23MOL0     C 2995   9.825  10.618   7.286 -0.0379 -0.0556 -0.4529
   23MOL0     C 2996   9.802  10.754   7.273 -0.3299 -0.5923  0.7672
   23MOL0     C 2997   9.904  10.845   7.294 -1.2475 -1.0440 -0.1955
   23MOL0     C 2998  10.028  10.802   7.354  0.5628  0.1980 -0.2583
   23MOL0     C 2999  10.130  10.907   7.389  0.4252 -0.5789  0.5102
   23MOL0     O 3000  10.108  11.032   7.335  0.4032  0.1428  0.6742
   23MOL0     C 3001  10.200  11.134   7.364  0.1919 -0.5912  0.0644
   23MOL0     C 3002  10.250  11.159   7.492 -0.5204 -0.1169  0.4336
   23MOL0     C 3003  10.332  11.268   7.516  0.3728  0.4919 -0.8639
   23MOL0     C 3004  10.372  11.351   7.409  0.9549  0.0103  0.2360
   23MOL0     O 3005  10.455  11.460   7.421  0.5321 -0.0284  0.7374
   23MOL0     C 3006  10.528  11.481   7.540 -0.3386 -0.0186 -0.3817
   23MOL0     C 3007  10.657  11.559   7.498  1.7904  0.0804  0.0218
   23MOL0     C 3008  10.776  11.517   7.568 -0.0100  0.1047 -0.5929
   23MOL0     C 3009  10.905  11.570   7.496 -1.1866 -0.3385 -1.3388
   23MOL0     C 3010  11.025  11.477   7.521  0.9946  0.6022  0.1910
   23MOL0     C 3011  11.067  11.453   7.664 -0.5766 -0.5912 -0.7019
   23MOL0     C 3012  11.092  11.582   7.749  0.2318  0.2301 -0.3683
   23MOL0     C 3013  11.188  11.556   7.856  0.3767 -0.5984 -0.7152
   23MOL0    Cl 3014  11.210  11.715   7.940  0.2335 -0.2821 -0.0351
   23MOL0     C 3015  10.322  11.320   7.283  1.3127  0.3102  0.7418
   23MOL0     C 3016  10.231  11.219   7.257  0.6510 -0.1070 -0.3873
   23MOL0     O 3017  10.224  10.873   7.457  0.5622 -0.0358  1.1052
   23MOL0     C 3018  10.044  10.665   7.380 -1.1743 -0.0054  0.2054
   23MOL0     C 3019   9.944  10.583   7.350  0.6421  0.4793 -0.2065
   23MOL0     N 3020   9.337  10.583   7.122  0.2889  0.8771 -0.0014
   23MOL0     N 3021   9.265  10.565   7.014 -0.0247 -0.6427 -0.3024
   23MOL0     C 3022   8.103  10.125   6.877 -0.7134  0.9521  0.0238
   23MOL0     C 3023   7.972  10.145   6.858 -0.5084 -0.2237  0.6333
   23MOL0     C 3024   7.515  10.024   6.783  0.1927  0.3405 -0.8215
   23MOL0     C 3025   7.509  10.146   6.726 -0.2913 -0.0013  0.8308
   23MOL0     C 3026   7.397  10.193   6.659 -0.1020 -0.1453 -0.5865
   23MOL0     C 3027   7.294  10.108   6.637 -0.1889  0.6100 -0.0203
   23MOL0     O 3028   7.182  10.147   6.567 -0.2071  0.9125  0.0532
   23MOL0     C 3029   7.170  10.266   6.495 -1.3600  0.3177  0.3244
   23MOL0     C 3030   7.123  10.241   6.341  0.1299  0.0258 -0.2950
   23MOL0     C 3031   7.217  10.286   6.234 -0.4326  0.1481  0.5880
   23MOL0     C 3032   7.322  10.175   6.208 -0.2118 -0.0385 -0.6430
   23MOL0     C 3033   7.435  10.225   6.134 -0.4553 -0.9938  0.0763
   23MOL0     C 3034   7.541  10.265   6.088 -1.2736  0.7749 -0.0193
   23MOL0     C 3035   7.304   9.976   6.692  0.8465 -0.3587 -0.4036
   23MOL0     C 3036   7.408   9.935   6.765 -0.5655 -0.0836 -0.9584
   23MOL0     C 3037   7.405   9.790   6.809  0.1611  1.3770 -0.2443
   23MOL0     H 3038   7.861   9.820   6.834 -0.3919 -0.1235 -0.7958
   23MOL0     H 3039   8.122   9.800   6.837  0.1201  0.3607 -0.3502
   23MOL0     H 3040   8.362  10.180   6.894 -0.7598 -0.8159 -1.5755
   23MOL0     H 3041   8.362  10.080   7.038 -1.6698  2.9237 -0.5325
   23MOL0     H 3042   8.536  10.041   6.792  0.8934 -0.8798 -0.5992
   23MOL0     H 3043   8.551   9.947   6.924 -2.1865 -0.7858  0.5261
   23MOL0     H 3044   8.616  10.157   7.066 -1.7617  0.6662  0.6560
   23MOL0     H 3045   8.604  10.256   6.912 -0.9953  0.1651  1.1018
   23MOL0     H 3046   8.790  10.038   6.942  0.5366  0.2593 -2.1901
   23MOL0     H 3047   8.756  10.132   6.796  0.1159  3.8256 -0.5031
   23MOL0     H 3048   8.803  10.351   6.937 -1.3327 -0.1574  1.8121
   23MOL0     H 3049   8.854  10.238   7.060  0.8017  0.3651 -1.0299
   23MOL0     H 3050   9.022  10.130   6.905 -1.6667 -1.1048  1.3064
   23MOL0     H 3051   8.981  10.253   6.787 -1.7896  0.9809  0.4858
   23MOL0     H 3052   9.176  10.310   6.935  0.7803  0.4390  0.1523
   23MOL0     H 3053   9.077  10.306   7.074  0.1576  0.2452  0.3591
   23MOL0     H 3054   9.051  10.517   6.864 -0.2903  1.1274  1.0056
   23MOL0     H 3055   8.943  10.501   7.015 -0.8040  2.2419 -0.2376
   23MOL0     H 3056   9.038  10.520   7.240 -0.6887 -0.8285 -0.9426
   23MOL0     H 3057   9.327  10.669   7.392 -4.1678  1.0915 -0.4234
   23MOL0     H 3058   9.199  10.558   7.437  0.3392 -1.6811  0.4524
   23MOL0     H 3059   9.409  10.501   7.528 -1.8780  2.9294 -1.2506
   23MOL0     H 3060   9.326  10.363   7.439  2.1592 -1.6105 -0.2733
   23MOL0     H 3061   9.501  10.388   7.248  1.6773  3.1519 -1.3242
   23MOL0     H 3062   9.568  10.336   7.388  0.4955 -0.9150 -3.3030
   23MOL0     H 3063   9.630  10.569   7.443 -2.0648  2.3422 -0.6697
   23MOL0     H 3064   9.554  10.624   7.285  3.0599  3.0150  0.4509
   23MOL0     H 3065   9.703  10.781   7.238 -0.0389  0.6743  0.8841
   23MOL0     H 3066   9.901  10.949   7.262  3.5404 -0.1503  1.3489
   23MOL0     H 3067  10.222  11.099   7.578  2.3191 -1.3860  0.5762
   23MOL0     H 3068  10.353  11.282   7.622 -1.9842  0.7442 -0.3596
   23MOL0     H 3069  10.480  11.539   7.619  0.3344  2.0314 -1.4329
   23MOL0     H 3070  10.557  11.386   7.587 -0.5175  0.2269  0.2379
   23MOL0     H 3071  10.666  11.562   7.389  2.6758  3.0076  0.0895
   23MOL0     H 3072  10.634  11.662   7.527 -0.1189 -0.2905 -0.0757
   23MOL0     H 3073  10.771  11.557   7.669 -0.4796  1.6029 -1.1839
   23MOL0     H 3074  10.777  11.408   7.575 -0.7266  0.1394  0.1877
   23MOL0     H 3075  10.934  11.672   7.523  0.7409 -1.9376  3.9331
   23MOL0     H 3076  10.879  11.564   7.391  0.7473 -1.6864 -1.8018
   23MOL0     H 3077  11.111  11.511   7.463 -0.5576 -1.1375 -3.3940
   23MOL0     H 3078  10.996  11.376   7.492 -1.3450  1.5914 -1.2562
   23MOL0     H 3079  10.991  11.396   7.718 -2.0445  0.1869 -1.8715
   23MOL0     H 3080  11.155  11.388   7.655 -1.4624 -2.4868  2.8021
   23MOL0     H 3081  10.997  11.615   7.789  0.2546 -1.7012  1.4630
   23MOL0     H 3082  11.139  11.648   7.675  2.3831  1.0664  1.6075
   23MOL0     H 3083  11.139  11.484   7.922  2.0833 -0.7750  0.4050
   23MOL0     H 3084  11.281  11.509   7.824  1.5313  0.3898  0.9978
   23MOL0     H 3085  10.344  11.386   7.199 -0.3961 -1.4102 -1.1640
   23MOL0     H 3086  10.210  11.192   7.154 -1.0825 -0.8471  0.1326
   23MOL0     H 3087  10.133  10.630   7.431 -1.5726 -2.4454 -0.6552
   23MOL0     H 3088   9.954  10.478   7.375  1.0506  0.1681 -1.5816
   23MOL0     H 3089   8.171  10.209   6.891 -1.4245  1.5769 -0.2369
   23MOL0     H 3090   7.928  10.245   6.855 -0.7607 -0.1930 -4.6089
   23MOL0     H 3091   7.593  10.213   6.717 -0.4485  0.3315  1.7433
   23MOL0     H 3092   7.391  10.300   6.642 -0.8408 -0.4285 -2.2850
   23MOL0     H 3093   7.262  10.325   6.495 -2.4251  2.0322  0.2379
   23MOL0     H 3094   7.091  10.318   6.550 -1.5638  0.5714 -0.1946
   23MOL0     H 3095   7.024  10.284   6.325 -0.1078 -0.6956 -0.8131
   23MOL0     H 3096   7.112  10.134   6.320  0.1754 -0.0842  0.2250
   23MOL0     H 3097   7.265  10.382   6.255  0.6978 -0.4359  0.7649
   23MOL0     H 3098   7.161  10.309   6.143 -2.1110  0.3248  1.6252
   23MOL0     H 3099   7.359  10.138   6.304  2.1522  1.1552 -1.0216
   23MOL0     H 3100   7.268  10.103   6.145  0.2756 -0.5330 -0.5055
   23MOL0     H 3101   7.629  10.297   6.036  0.5990  1.6268  3.4369
   23MOL0     H 3102   7.212   9.920   6.680 -0.6428  1.0808  2.9745
   23MOL0     H 3103   7.306   9.749   6.787  0.1490  1.6947 -0.7958
   23MOL0     H 3104   7.486   9.746   6.750  3.0046  4.4175  1.1111
   23MOL0     H 3105   7.413   9.788   6.918  1.2690  0.6640 -0.3273
   24MOL0     O 3106   2.629  11.208   0.576 -0.6101  0.1113  0.3900
   24MOL0     C 3107   2.582  11.112   0.636  0.3773 -0.1544 -0.0407
   24MOL0     O 3108   2.497  11.117   0.751  0.3752  0.1444 -0.6051
   24MOL0     C 3109   2.447  11.235   0.806 -0.5146 -0.1839 -0.0721
   24MOL0     C 3110   2.337  11.308   0.752 -0.6651  0.6872  0.6095
   24MOL0     C 3111   2.290  11.424   0.814  0.1118  0.0003 -0.0413
   24MOL0     C 3112   2.361  11.476   0.927  0.3177  0.5267 -0.1475
   24MOL0     O 3113   2.325  11.597   0.978  0.1367 -0.3575 -1.3071
   24MOL0     C 3114   2.427  11.700   0.970 -0.5802  0.0011  0.0784
   24MOL0     C 3115   2.376  11.797   0.864 -0.3327  0.3168  0.2370
   24MOL0     C 3116   2.303  11.921   0.920  0.1788 -0.0003 -0.5396
   24MOL0     C 3117   2.413  12.028   0.957  0.0041 -0.8240  0.0458
   24MOL0     C 3118   2.354  12.161   1.007 -0.4386  0.6319  0.3095
   24MOL0     C 3119   2.466  12.265   1.030 -0.3893 -0.4423 -0.2463
   24MOL0     C 3120   2.393  12.392   1.098  0.1445 -0.7355  0.2086
   24MOL0     C 3121   2.276  12.461   1.031 -0.3879  0.6590 -0.0479
   24MOL0     N 3122   2.311  12.492   0.889 -0.3766 -0.1842 -0.4211
   24MOL0     C 3123   2.380  12.603   0.856  0.3147  0.9230  0.1907
   24MOL0     C 3124   2.369  12.623   0.720 -0.1022 -0.3302  0.6990
   24MOL0     C 3125   2.430  12.729   0.639  0.2989  0.2831  0.6510
   24MOL0     C 3126   2.570  12.700   0.590  0.5705 -0.8708 -0.4765
   24MOL0     C 3127   2.665  12.661   0.701  0.4178  0.0620  0.2686
   24MOL0     C 3128   2.814  12.649   0.651 -0.8676  0.7834  0.4152
   24MOL0     O 3129   2.898  12.594   0.758  0.8758  0.0053  0.1705
   24MOL0     C 3130   3.028  12.552   0.733 -0.1471 -0.0909  0.4264
   24MOL0     C 3131   3.097  12.566   0.616  0.5119  0.3525  0.2392
   24MOL0     C 3132   3.223  12.521   0.596 -0.1619  0.4916 -0.1434
   24MOL0     C 3133   3.280  12.435   0.699  0.7198 -0.7834 -0.0410
   24MOL0     C 3134   3.419  12.374   0.685 -0.2372 -1.0123  0.5834
   24MOL0     O 3135   3.475  12.381   0.567  0.3693 -0.0313 -0.0403
   24MOL0     C 3136   3.596  12.311   0.544  0.4760 -0.8134 -0.4277
   24MOL0     C 3137   3.621  12.179   0.574 -0.7123  1.5485 -0.4334
   24MOL0     C 3138   3.745  12.119   0.540  0.7095  0.6972 -0.6020
   24MOL0     C 3139   3.847  12.192   0.485  0.2036  0.4096 -0.1142
   24MOL0     O 3140   3.967  12.126   0.468 -0.6039  0.0048  0.5154
   24MOL0     C 3141   4.071  12.193   0.399 -0.1871  0.4608  0.2256
   24MOL0     C 3142   4.187  12.102   0.371 -0.0800  0.1411  1.0798
   24MOL0     C 3143   4.323  12.175   0.333 -0.4857  0.1700 -0.8919
   24MOL0     C 3144   4.405  12.081   0.238 -0.7324 -0.0903 -0.4837
   24MOL0     C 3145   4.556  12.134   0.230  0.0174  0.3196  0.0002
   24MOL0     C 3146   4.650  12.039   0.158  0.3704 -0.8180 -0.1600
   24MOL0     C 3147   4.649  12.034   0.006  0.0425 -0.3231  0.0893
   24MOL0     C 3148   4.765  11.969  -0.065  0.2540  0.6928  0.0128
   24MOL0    Cl 3149   4.838  11.835   0.027  0.7502  0.1257  0.2267
   24MOL0     C 3150   3.828  12.334   0.461  0.0352  0.7195 -0.3284
   24MOL0     C 3151   3.705  12.400   0.499 -0.0469  0.3450 -0.1934
   24MOL0     O 3152   3.475  12.337   0.787  0.8630 -0.5890  0.4925
   24MOL0     C 3153   3.207  12.409   0.815 -0.3319 -0.4879  0.2495
   24MOL0     C 3154   3.084  12.475   0.836 -0.4813 -0.1728  0.4751
   24MOL0     N 3155   2.284  12.521   0.674  0.6968  1.1295 -0.0194
   24MOL0     N 3156   2.251  12.449   0.774  0.4084 -0.6245 -0.4339
   24MOL0     C 3157   2.473  11.404   0.976  0.5101 -0.6062  0.5666
   24MOL0     C 3158   2.506  11.278   0.923  0.4815 -0.2243 -0.2688
   24MOL0     C 3159   2.618  10.978   0.583 -0.5531 -0.1177  1.3963
   24MOL0     C 3160   2.514  10.882   0.584 -0.2988 -0.8462 -0.9737
   24MOL0     C 3161   2.536  10.751   0.533 -0.1861  0.4871 -0.2424
   24MOL0     C 3162   2.668  10.710   0.488  0.2497 -0.7820 -1.1563
   24MOL0     O 3163   2.686  10.591   0.438  0.0670 -0.0557  0.2673
   24MOL0     C 3164   2.752  10.588   0.312  0.4957  0.0274  0.0048
   24MOL0     C 3165   2.701  10.461   0.237  0.4276  0.1183  0.1637
   24MOL0     C 3166   2.790  10.436   0.110 -0.2582  0.4658 -0.0152
   24MOL0     C 3167   2.785  10.292   0.068 -0.3500  0.4213  0.1020
   24MOL0     C 3168   2.638  10.257   0.046 -1.0094  0.2454 -0.2440
   24MOL0     C 3169   2.532  10.228   0.004 -0.2341 -0.2412 -0.2834
   24MOL0     C 3170   2.770  10.805   0.492 -0.3072 -0.0429  0.1555
   24MOL0     C 3171   2.747  10.938   0.537 -0.7603  0.1634  0.1055
   24MOL0     C 3172   2.868  11.033   0.542  0.7034  0.4689 -0.1910
   24MOL0     H 3173   2.282  11.275   0.664 -0.5177  1.7398  0.1153
   24MOL0     H 3174   2.204  11.476   0.776  0.4855 -0.0244 -0.9397
   24MOL0     H 3175   2.428  11.752   1.066  2.9818 -2.1745  1.4119
   24MOL0     H 3176   2.525  11.655   0.951  1.3209  2.7977  2.4252
   24MOL0     H 3177   2.315  11.743   0.791 -0.7169  3.1021 -1.6517
   24MOL0     H 3178   2.472  11.832   0.825 -0.1007  1.2272  1.5657
   24MOL0     H 3179   2.253  11.888   1.012  1.9585  3.0843  1.7189
   24MOL0     H 3180   2.225  11.958   0.853 -0.7430  1.2092  1.1020
   24MOL0     H 3181   2.492  11.994   1.024  2.0437  0.3080 -1.6938
   24MOL0     H 3182   2.469  12.053   0.867  2.0109 -2.5161  0.7432
   24MOL0     H 3183   2.276  12.203   0.943 -2.3176 -0.0026  2.0658
   24MOL0     H 3184   2.308  12.148   1.106  1.1396  0.0405  0.9902
   24MOL0     H 3185   2.540  12.230   1.103 -0.3672  1.6359  0.8277
   24MOL0     H 3186   2.505  12.276   0.928  2.4684  1.9663  0.9476
   24MOL0     H 3187   2.467  12.470   1.114  1.2902 -0.7817 -3.7753
   24MOL0     H 3188   2.369  12.360   1.200  1.5543 -2.3182  0.0879
   24MOL0     H 3189   2.192  12.393   1.046 -0.2040 -0.1277 -2.2678
   24MOL0     H 3190   2.235  12.547   1.085 -2.3472 -0.4132  0.2788
   24MOL0     H 3191   2.442  12.666   0.919 -0.1340  2.9993 -1.2971
   24MOL0     H 3192   2.373  12.746   0.547  2.3944 -0.9011 -0.9323
   24MOL0     H 3193   2.433  12.824   0.694  1.3994  1.0475 -0.6790
   24MOL0     H 3194   2.572  12.622   0.514  0.1929 -0.7612 -0.6035
   24MOL0     H 3195   2.605  12.782   0.526  2.0590 -0.8448  0.3379
   24MOL0     H 3196   2.637  12.568   0.751 -0.6774  0.5830  0.6475
   24MOL0     H 3197   2.668  12.745   0.770  0.4306 -0.7348  1.2698
   24MOL0     H 3198   2.853  12.747   0.624  0.2125 -0.8716 -5.2919
   24MOL0     H 3199   2.814  12.590   0.560  0.2511  1.5825 -0.1259
   24MOL0     H 3200   3.039  12.603   0.532 -2.3271  1.7945  2.6726
   24MOL0     H 3201   3.271  12.552   0.504 -0.7996  2.0896  0.0248
   24MOL0     H 3202   3.545  12.106   0.598  3.2400 -2.5647  0.8386
   24MOL0     H 3203   3.767  12.013   0.552  2.7776  0.8748 -2.2948
   24MOL0     H 3204   4.032  12.240   0.308 -2.2460  1.6468  1.6273
   24MOL0     H 3205   4.099  12.279   0.460  0.9063  0.5034 -0.3193
   24MOL0     H 3206   4.218  12.029   0.446  0.4176 -0.9947 -0.1768
   24MOL0     H 3207   4.149  12.051   0.282 -1.7274  3.5612 -0.3598
   24MOL0     H 3208   4.292  12.267   0.282 -3.0556  0.3694  0.8365
   24MOL0     H 3209   4.384  12.204   0.419  1.3977 -1.7471 -1.4805
   24MOL0     H 3210   4.374  12.092   0.134 -0.0757  2.7979 -0.4624
   24MOL0     H 3211   4.395  11.979   0.276 -4.1076  0.3103 -0.0154
   24MOL0     H 3212   4.589  12.140   0.334  2.1795 -2.2381 -0.4616
   24MOL0     H 3213   4.561  12.236   0.191  0.3489  0.8779  1.4308
   24MOL0     H 3214   4.747  12.074   0.195 -0.1108 -2.7980  3.4731
   24MOL0     H 3215   4.635  11.935   0.189 -1.8153 -0.6808 -0.5916
   24MOL0     H 3216   4.657  12.139  -0.024  0.3533 -0.2436  0.4530
   24MOL0     H 3217   4.552  11.988  -0.016  0.8512 -1.1344 -2.0716
   24MOL0     H 3218   4.720  11.949  -0.162 -1.8230  0.2405  1.0002
   24MOL0     H 3219   4.847  12.038  -0.084  2.6873 -2.7091 -3.0607
   24MOL0     H 3220   3.906  12.395   0.415 -1.8608  2.9350 -0.7937
   24MOL0     H 3221   3.699  12.506   0.473 -3.1302  0.0766 -0.9593
   24MOL0     H 3222   3.243  12.331   0.882  2.5117 -0.7322 -1.3731
   24MOL0     H 3223   3.025  12.458   0.926  0.3942  1.4147  1.3998
   24MOL0     H 3224   2.525  11.432   1.067  0.7059  2.3783 -0.3829
   24MOL0     H 3225   2.581  11.224   0.980 -0.2223  0.1871  1.1042
   24MOL0     H 3226   2.417  10.906   0.626  1.2622  2.8781  1.0283
   24MOL0     H 3227   2.459  10.675   0.527  0.5125 -0.1431 -1.7052
   24MOL0     H 3228   2.859  10.587   0.334  0.0995 -4.6111  3.0450
   24MOL0     H 3229   2.718  10.676   0.257  0.4017  1.6906  2.5224
   24MOL0     H 3230   2.594  10.465   0.212 -0.2337 -1.6024  2.4297
   24MOL0     H 3231   2.712  10.370   0.296  0.0521 -0.2935 -0.3935
   24MOL0     H 3232   2.892  10.465   0.133  0.3277  0.1557 -2.0217
   24MOL0     H 3233   2.751  10.512   0.041  2.5708  0.7104 -1.4963
   24MOL0     H 3234   2.850  10.271  -0.017  0.2928  1.1999  0.3927
   24MOL0     H 3235   2.822  10.225   0.146 -0.6406 -3.1371 -2.5503
   24MOL0     H 3236   2.439  10.228  -0.048 -1.1413  3.4993  0.9651
   24MOL0     H 3237   2.870  10.771   0.467  0.0680 -0.3288  1.9107
   24MOL0     H 3238   2.875  11.094   0.451  1.5709 -0.6602 -0.9060
   24MOL0     H 3239   2.858  11.087   0.637 -1.8688 -0.8474  0.3590
   24MOL0     H 3240   2.956  10.968   0.544 -0.4536 -1.2493 -1.6098
   25MOL0     O 3241   1.826   6.948   5.391  0.1483 -0.1736 -0.0060
   25MOL0     C 3242   1.706   6.943   5.379 -0.1838 -1.5953  0.0874
   25MOL0     O 3243   1.642   6.888   5.271  0.0181 -0.5143 -0.0607
   25MOL0     C 3244   1.727   6.841   5.173  0.7490 -0.8742 -1.0220
   25MOL0     C 3245   1.772   6.711   5.152 -0.1409 -0.2747 -0.0276
   25MOL0     C 3246   1.853   6.680   5.043 -0.1680  0.5619  0.6401
   25MOL0     C 3247   1.908   6.772   4.958  0.2100 -1.3340  0.8278
   25MOL0     O 3248   2.000   6.740   4.868  0.5045 -0.9076 -0.1485
   25MOL0     C 3249   2.127   6.807   4.873 -0.2119 -0.0686 -0.5278
   25MOL0     C 3250   2.222   6.787   4.750 -0.1984  0.3870 -1.2871
   25MOL0     C 3251   2.182   6.886   4.641  0.3785 -1.4413 -0.6123
   25MOL0     C 3252   2.250   6.839   4.511 -0.6385 -0.6025  1.1066
   25MOL0     C 3253   2.226   6.939   4.397 -0.1283  0.8488 -0.0180
   25MOL0     C 3254   2.293   6.892   4.264  0.7267  1.1520  0.6361
   25MOL0     C 3255   2.214   6.913   4.139  0.7587 -0.0121  1.1167
   25MOL0     C 3256   2.273   6.839   4.018 -0.2817 -0.5236 -0.2732
   25MOL0     N 3257   2.216   6.845   3.883  0.0346 -0.1352 -0.1237
   25MOL0     C 3258   2.104   6.905   3.830  0.1717 -0.0369 -0.0599
   25MOL0     C 3259   2.111   6.884   3.700  0.5210  0.0754 -0.3508
   25MOL0     C 3260   1.991   6.912   3.608 -0.5911 -1.0950 -0.7149
   25MOL0     C 3261   1.912   6.789   3.590  0.1916 -0.0508 -0.2934
   25MOL0     C 3262   1.781   6.804   3.525 -0.3538 -0.2478  0.2172
   25MOL0     C 3263   1.694   6.677   3.527  0.2805 -0.6295 -0.3732
   25MOL0     O 3264   1.591   6.692   3.428  0.1959  0.1085  0.1696
   25MOL0     C 3265   1.482   6.606   3.412  0.8165  0.1726 -0.5265
   25MOL0     C 3266   1.379   6.629   3.315  0.0626 -0.1099 -0.0388
   25MOL0     C 3267   1.268   6.552   3.299  0.4884  1.1941 -0.6544
   25MOL0     C 3268   1.249   6.439   3.383 -0.8771 -0.0339  1.0031
   25MOL0     C 3269   1.142   6.351   3.346  0.2745  0.1316 -0.5252
   25MOL0     O 3270   1.150   6.231   3.402 -0.1445 -0.3365 -0.3276
   25MOL0     C 3271   1.040   6.148   3.394  0.4867 -0.0136 -0.7148
   25MOL0     C 3272   1.028   6.024   3.331 -0.1661  0.4313 -0.2079
   25MOL0     C 3273   0.926   5.934   3.360 -0.2879 -0.2765  0.2875
   25MOL0     C 3274   0.818   5.969   3.440  1.3677 -0.6993 -0.6890
   25MOL0     O 3275   0.713   5.888   3.481  0.1222  0.6373 -0.7547
   25MOL0     C 3276   0.737   5.744   3.488  0.2014  1.1869 -0.3138
   25MOL0     C 3277   0.612   5.654   3.493 -0.8787 -0.3683 -0.1582
   25MOL0     C 3278   0.516   5.676   3.608 -1.4010 -0.7463 -0.7562
   25MOL0     C 3279   0.432   5.552   3.638  0.1899  0.1948 -0.1128
   25MOL0     C 3280   0.318   5.564   3.739 -0.1086  0.3730 -0.9222
   25MOL0     C 3281   0.210   5.640   3.676 -0.1447 -0.4093  0.1223
   25MOL0     C 3282   0.091   5.635   3.761  0.6097 -1.3521 -0.4280
   25MOL0     C 3283   0.001   5.759   3.725 -0.6108 -0.1502 -0.2243
   25MOL0    Cl 3284   0.037   5.893   3.835 -0.2523 -0.4558  0.3680
   25MOL0     C 3285   0.819   6.101   3.487  0.6173  0.4491 -0.5501
   25MOL0     C 3286   0.929   6.185   3.477  0.5169  0.5777  0.2989
   25MOL0     O 3287   1.051   6.400   3.281  1.1475  0.4044  0.5499
   25MOL0     C 3288   1.355   6.410   3.477 -0.2025  0.4184  0.3692
   25MOL0     C 3289   1.472   6.490   3.487  0.4440 -0.4413 -1.0556
   25MOL0     N 3290   2.230   6.827   3.670 -0.6061 -0.1104 -0.0458
   25MOL0     N 3291   2.295   6.808   3.771  0.0586 -0.1858 -0.5385
   25MOL0     C 3292   1.860   6.906   4.971 -0.8420 -0.0300 -0.1226
   25MOL0     C 3293   1.775   6.938   5.078  0.8743  0.1623 -0.0233
   25MOL0     C 3294   1.620   7.006   5.483 -0.1076 -0.3200  0.0776
   25MOL0     C 3295   1.487   7.038   5.468 -0.3516  0.7790 -0.4499
   25MOL0     C 3296   1.406   7.099   5.560  0.2882 -0.3970  0.1697
   25MOL0     C 3297   1.442   7.126   5.684 -0.7396 -0.3648 -0.2172
   25MOL0     O 3298   1.360   7.166   5.790  0.0556  0.0538  0.5278
   25MOL0     C 3299   1.413   7.287   5.860 -0.1594  0.2890  0.1090
   25MOL0     C 3300   1.297   7.351   5.950  0.0357  0.0627  0.1673
   25MOL0     C 3301   1.189   7.259   5.991 -0.7545  0.1557 -0.2994
   25MOL0     C 3302   1.090   7.340   6.080 -0.3616  0.7876 -0.6159
   25MOL0     C 3303   1.019   7.440   5.998  0.3260 -0.3089 -0.6609
   25MOL0     C 3304   0.957   7.536   5.956 -0.2047  0.1382  0.2515
   25MOL0     C 3305   1.580   7.097   5.708 -0.5387  0.6379  0.5267
   25MOL0     C 3306   1.667   7.036   5.612  0.0303  0.0907  0.0665
   25MOL0     C 3307   1.802   6.997   5.664 -0.4803  0.8231 -0.3333
   25MOL0     H 3308   1.739   6.629   5.216  1.0821 -0.8197 -0.0750
   25MOL0     H 3309   1.884   6.577   5.030  2.1145  1.3900 -1.3841
   25MOL0     H 3310   2.122   6.916   4.883  3.4246  0.2163 -0.5193
   25MOL0     H 3311   2.177   6.769   4.962  0.2504  0.5725 -0.5044
   25MOL0     H 3312   2.213   6.684   4.713  1.1348  0.2153 -1.2063
   25MOL0     H 3313   2.324   6.800   4.789 -0.1820 -0.3498 -1.0616
   25MOL0     H 3314   2.215   6.990   4.647  0.5315 -1.2744 -3.3395
   25MOL0     H 3315   2.074   6.880   4.629  0.3007 -1.3288 -0.0218
   25MOL0     H 3316   2.357   6.835   4.536 -0.3875  0.7704  0.3072
   25MOL0     H 3317   2.218   6.736   4.492  1.5573 -1.2531  0.5634
   25MOL0     H 3318   2.117   6.928   4.395  0.0983 -6.3816  1.0367
   25MOL0     H 3319   2.269   7.036   4.423 -0.5987  1.1470 -0.3311
   25MOL0     H 3320   2.390   6.943   4.258  1.4633 -0.1818  0.8217
   25MOL0     H 3321   2.322   6.787   4.267 -3.2948 -0.0909  1.6677
   25MOL0     H 3322   2.187   7.018   4.122  1.3084  0.2048  1.5294
   25MOL0     H 3323   2.120   6.864   4.166  0.6452 -1.1622 -1.1594
   25MOL0     H 3324   2.382   6.846   4.019 -0.0251 -3.3145  1.6323
   25MOL0     H 3325   2.245   6.739   4.052 -2.2610 -0.2169 -0.8717
   25MOL0     H 3326   2.011   6.940   3.874 -0.1021 -1.9199  0.9765
   25MOL0     H 3327   1.938   7.003   3.638  2.2886 -0.1616  2.0760
   25MOL0     H 3328   2.038   6.932   3.511  0.1216 -0.3640 -0.2326
   25MOL0     H 3329   1.968   6.724   3.522  2.6772  2.5469 -0.9346
   25MOL0     H 3330   1.911   6.736   3.686 -0.6774  0.0254 -0.2481
   25MOL0     H 3331   1.795   6.820   3.417 -2.4535  1.6572  0.1626
   25MOL0     H 3332   1.737   6.892   3.571 -0.0754  0.2446 -0.4395
   25MOL0     H 3333   1.649   6.674   3.627  4.2108 -0.6028  1.5563
   25MOL0     H 3334   1.753   6.587   3.512 -1.4648 -1.6237 -1.5605
   25MOL0     H 3335   1.383   6.721   3.257 -3.6698  0.2887  0.0705
   25MOL0     H 3336   1.203   6.577   3.216 -0.9536 -3.2031 -1.1407
   25MOL0     H 3337   1.104   5.990   3.262 -2.6082 -0.5470 -2.5779
   25MOL0     H 3338   0.925   5.842   3.304  0.7173  0.6268 -1.2672
   25MOL0     H 3339   0.789   5.716   3.396  0.6018 -4.5141  1.2683
   25MOL0     H 3340   0.795   5.718   3.576 -1.7074 -0.0690  0.6382
   25MOL0     H 3341   0.544   5.687   3.414 -2.2012 -1.8183  0.3204
   25MOL0     H 3342   0.628   5.546   3.486 -4.7124 -1.2332  1.6524
   25MOL0     H 3343   0.578   5.686   3.698 -1.9816  1.1312 -0.5188
   25MOL0     H 3344   0.454   5.765   3.595 -0.9139 -0.1484  0.7628
   25MOL0     H 3345   0.491   5.465   3.668 -1.9934 -2.1676 -2.1395
   25MOL0     H 3346   0.376   5.514   3.552 -4.2720 -2.5119  3.5050
   25MOL0     H 3347   0.349   5.609   3.834 -0.0128  2.0181 -1.6855
   25MOL0     H 3348   0.293   5.460   3.762 -2.3185  0.4485 -2.6462
   25MOL0     H 3349   0.239   5.745   3.661  0.9599 -0.8156 -0.6826
   25MOL0     H 3350   0.186   5.594   3.580 -1.7964 -0.2649  0.4310
   25MOL0     H 3351   0.119   5.645   3.866 -2.8327  2.7244  0.3787
   25MOL0     H 3352   0.041   5.538   3.750  1.3937 -1.6340 -1.8966
   25MOL0     H 3353   0.015   5.779   3.618  0.8647  0.0963 -0.0078
   25MOL0     H 3354  -0.102   5.721   3.733 -1.1528  1.5934  2.9305
   25MOL0     H 3355   0.738   6.123   3.556  2.1727  1.6271  0.9907
   25MOL0     H 3356   0.925   6.285   3.519  2.9561 -0.3020  2.9181
   25MOL0     H 3357   1.367   6.311   3.519 -0.1065 -0.2173 -1.1125
   25MOL0     H 3358   1.541   6.444   3.558 -0.1785  1.3422  0.7971
   25MOL0     H 3359   1.889   6.988   4.906 -1.5603 -0.4473 -0.9809
   25MOL0     H 3360   1.749   7.042   5.099 -4.0064 -1.2989  2.9897
   25MOL0     H 3361   1.442   7.005   5.374 -1.8915  0.4382  0.3838
   25MOL0     H 3362   1.310   7.129   5.520  1.1266  1.3507 -0.6704
   25MOL0     H 3363   1.444   7.363   5.787  0.3820  0.9415  1.0055
   25MOL0     H 3364   1.500   7.255   5.917 -1.6349 -3.8195  0.4471
   25MOL0     H 3365   1.250   7.430   5.889 -1.6447 -2.1818 -1.6052
   25MOL0     H 3366   1.347   7.404   6.032 -3.3571  1.2491  1.6873
   25MOL0     H 3367   1.229   7.170   6.040  0.5790  1.0034  0.2144
   25MOL0     H 3368   1.140   7.227   5.899  2.8508  0.5252 -2.5736
   25MOL0     H 3369   1.019   7.277   6.135 -0.1944  0.9781 -0.1739
   25MOL0     H 3370   1.148   7.383   6.162 -1.0284 -0.3405  0.4871
   25MOL0     H 3371   0.915   7.622   5.908 -1.5449  1.2289  3.1719
   25MOL0     H 3372   1.621   7.115   5.806  2.0644 -0.7159 -0.2257
   25MOL0     H 3373   1.884   7.065   5.638  1.7098 -1.2180  0.8074
   25MOL0     H 3374   1.803   6.980   5.772 -0.9003  1.7071 -0.1844
   25MOL0     H 3375   1.836   6.902   5.622 -0.1544  0.5311  0.5463
   26MOL0     O 3376   8.600   8.862   9.864  0.0086  0.5361  0.8939
   26MOL0     C 3377   8.595   8.975   9.835  0.3940 -0.7919  0.0467
   26MOL0     O 3378   8.525   9.072   9.906 -0.7926 -0.5470  0.2102
   26MOL0     C 3379   8.465   9.035  10.023  0.1186 -0.2695 -0.5453
   26MOL0     C 3380   8.548   9.018  10.131 -0.9634 -0.2919  0.2595
   26MOL0     C 3381   8.497   8.970  10.253 -0.8581 -0.2458 -1.3806
   26MOL0     C 3382   8.357   8.958  10.274  0.3279 -0.3036  0.4514
   26MOL0     O 3383   8.317   8.910  10.399  0.4175 -0.3102  0.2251
   26MOL0     C 3384   8.239   8.790  10.398 -0.1078  0.5843 -1.2818
   26MOL0     C 3385   8.142   8.810  10.512 -0.8410 -0.2830  0.7402
   26MOL0     C 3386   8.023   8.720  10.525 -0.3391  0.3658  0.8482
   26MOL0     C 3387   8.071   8.568  10.527 -0.0138 -0.6841 -0.6633
   26MOL0     C 3388   7.973   8.468  10.578  0.1776  0.0606 -0.2251
   26MOL0     C 3389   7.946   8.495  10.725  0.0313  0.5251 -0.6039
   26MOL0     C 3390   7.857   8.392  10.794  0.6127 -0.3605 -0.4556
   26MOL0     C 3391   7.925   8.261  10.812  0.0830 -0.0672 -0.1357
   26MOL0     N 3392   7.844   8.160  10.888 -0.6542  0.4187 -0.4050
   26MOL0     C 3393   7.789   8.183  11.008 -0.3513  0.0257 -0.2820
   26MOL0     C 3394   7.726   8.069  11.047 -1.0039  0.9853  0.7725
   26MOL0     C 3395   7.669   8.059  11.185 -0.1693  0.5807  0.0900
   26MOL0     C 3396   7.521   8.097  11.173 -0.2275 -0.2730 -0.3431
   26MOL0     C 3397   7.452   8.054  11.299 -0.6586  0.0442 -0.1524
   26MOL0     C 3398   7.313   8.117  11.295 -0.1112 -0.5341 -0.2745
   26MOL0     O 3399   7.232   8.062  11.407 -0.5168  0.0608 -0.6159
   26MOL0     C 3400   7.109   8.125  11.436  0.1838  0.1127 -0.8863
   26MOL0     C 3401   7.055   8.235  11.366  0.7763 -0.1893 -0.1996
   26MOL0     C 3402   6.930   8.288  11.404  0.6040  0.1710  0.9305
   26MOL0     C 3403   6.847   8.233  11.508 -0.4005  0.6836  0.2735
   26MOL0     C 3404   6.715   8.280  11.546  1.0223 -0.1169  1.1056
   26MOL0     O 3405   6.657   8.231  11.658 -0.5503  0.5423  0.4828
   26MOL0     C 3406   6.525   8.256  11.696  0.7005  1.0053 -0.3701
   26MOL0     C 3407   6.415   8.283  11.612  1.1520  0.1014 -1.0176
   26MOL0     C 3408   6.288   8.299  11.653  0.5978  0.4901 -0.6999
   26MOL0     C 3409   6.252   8.291  11.790  0.5977 -0.2278  0.3810
   26MOL0     O 3410   6.116   8.315  11.825 -0.1784 -0.3665  0.0385
   26MOL0     C 3411   6.091   8.335  11.962 -0.9575  0.2546 -0.6179
   26MOL0     C 3412   5.949   8.395  12.010  0.0191 -0.4220 -1.0760
   26MOL0     C 3413   5.838   8.289  11.984  0.5617 -0.3647 -0.3267
   26MOL0     C 3414   5.728   8.325  11.887  0.0151  1.4066 -0.0496
   26MOL0     C 3415   5.631   8.201  11.892  0.0557  0.0674 -0.0914
   26MOL0     C 3416   5.505   8.234  11.808 -0.7564 -0.2720  0.3421
   26MOL0     C 3417   5.402   8.121  11.787 -0.0852  0.2312 -0.4605
   26MOL0     C 3418   5.328   8.076  11.922  0.1646 -0.2616  0.0314
   26MOL0    Cl 3419   5.244   8.223  12.004 -0.2758  0.2145  0.0739
   26MOL0     C 3420   6.361   8.261  11.883  0.7253  0.1351  0.4391
   26MOL0     C 3421   6.496   8.246  11.839 -0.1448  0.1761  0.0144
   26MOL0     O 3422   6.658   8.360  11.474 -0.2580  1.2122  0.0242
   26MOL0     C 3423   6.896   8.121  11.567  0.5954 -0.6939  0.5869
   26MOL0     C 3424   7.024   8.072  11.543  0.2170  0.1230 -0.2025
   26MOL0     N 3425   7.752   7.974  10.952 -0.3437  0.1827 -0.2453
   26MOL0     N 3426   7.839   8.028  10.866  0.6747 -0.8856  0.6677
   26MOL0     C 3427   8.268   8.979  10.159  0.6509  0.1510 -0.4017
   26MOL0     C 3428   8.329   9.009  10.037  1.6247 -0.2284  0.1613
   26MOL0     C 3429   8.658   9.010   9.695  0.2963 -0.3334  0.3889
   26MOL0     C 3430   8.587   9.091   9.605  0.5109 -0.3122 -0.3100
   26MOL0     C 3431   8.641   9.114   9.478 -0.0090 -0.1040  0.0990
   26MOL0     C 3432   8.763   9.067   9.434 -0.7343 -0.1861  0.1134
   26MOL0     O 3433   8.810   9.076   9.302  0.7073 -0.0943  0.3313
   26MOL0     C 3434   8.772   9.202   9.234  0.3978  0.1617 -0.2277
   26MOL0     C 3435   8.870   9.214   9.121  0.0381 -0.3467  0.4140
   26MOL0     C 3436   8.831   9.326   9.027 -0.7943 -0.2772 -0.7425
   26MOL0     C 3437   8.890   9.299   8.886 -0.3996 -0.4573 -0.3826
   26MOL0     C 3438   8.865   9.423   8.800 -0.1001 -0.6120 -0.3507
   26MOL0     C 3439   8.824   9.519   8.734 -0.6859 -0.0419  0.3963
   26MOL0     C 3440   8.825   8.983   9.525  0.0629 -1.0094  0.0262
   26MOL0     C 3441   8.778   8.962   9.651 -0.4195  0.7358 -0.6013
   26MOL0     C 3442   8.875   8.902   9.752 -0.2286  0.5320  0.8489
   26MOL0     H 3443   8.652   9.034  10.105 -0.0189 -0.4494  3.4893
   26MOL0     H 3444   8.565   8.957  10.336 -1.6239  0.2613 -0.6609
   26MOL0     H 3445   8.165   8.789  10.317 -2.0079 -0.9171  0.3683
   26MOL0     H 3446   8.299   8.700  10.412  4.6655  3.6097  0.1852
   26MOL0     H 3447   8.096   8.909  10.508 -0.4425 -0.1174  0.2061
   26MOL0     H 3448   8.197   8.809  10.607 -0.1085  1.4968  0.3848
   26MOL0     H 3449   7.944   8.738  10.452 -0.5620 -0.3024  0.9173
   26MOL0     H 3450   7.961   8.743  10.612 -1.7422 -1.7109  0.4839
   26MOL0     H 3451   8.087   8.541  10.422  2.1011  2.6542 -1.3486
   26MOL0     H 3452   8.161   8.558  10.588 -0.6976  4.3043  1.6202
   26MOL0     H 3453   7.879   8.468  10.521  0.7752 -2.7796 -1.3807
   26MOL0     H 3454   8.011   8.366  10.570  1.4064  0.4493  0.4433
   26MOL0     H 3455   8.041   8.504  10.779 -0.4460  1.9640  0.0590
   26MOL0     H 3456   7.897   8.593  10.730  0.3782  0.8401 -2.3848
   26MOL0     H 3457   7.759   8.380  10.745 -1.8485  1.5320  3.4829
   26MOL0     H 3458   7.819   8.438  10.885  0.5984  1.7045 -1.4567
   26MOL0     H 3459   7.949   8.213  10.717 -0.7249 -0.4307 -0.1671
   26MOL0     H 3460   8.017   8.270  10.870 -1.7213 -0.9570  3.1427
   26MOL0     H 3461   7.785   8.283  11.050  2.6531 -0.1164  0.5536
   26MOL0     H 3462   7.681   7.957  11.223  1.3721  1.8584  3.3719
   26MOL0     H 3463   7.720   8.122  11.258  0.6972 -0.4874  0.4453
   26MOL0     H 3464   7.506   8.204  11.159 -2.2004  0.3555  4.4551
   26MOL0     H 3465   7.471   8.040  11.095  1.4049 -1.1227 -0.8165
   26MOL0     H 3466   7.507   8.096  11.384  0.5153  2.6278 -2.0498
   26MOL0     H 3467   7.445   7.945  11.304  0.2637 -0.0565 -0.7837
   26MOL0     H 3468   7.261   8.102  11.199 -1.3226  1.8889 -0.0668
   26MOL0     H 3469   7.327   8.225  11.306 -0.9579 -0.4925  0.4657
   26MOL0     H 3470   7.107   8.272  11.278  2.9974  0.8662  1.4622
   26MOL0     H 3471   6.894   8.383  11.366 -0.0906  0.1107  1.4108
   26MOL0     H 3472   6.424   8.290  11.504  0.1767 -0.6719 -1.1594
   26MOL0     H 3473   6.203   8.322  11.589 -1.5774  1.0320  2.1576
   26MOL0     H 3474   6.126   8.245  12.013  0.0622 -0.0996 -1.8795
   26MOL0     H 3475   6.162   8.413  11.991 -1.6961  0.7894 -0.2371
   26MOL0     H 3476   5.949   8.425  12.115 -0.4083  0.6770 -1.3689
   26MOL0     H 3477   5.926   8.488  11.956 -3.3267 -0.4940 -0.0098
   26MOL0     H 3478   5.876   8.193  11.950 -2.9960 -0.3812 -5.5135
   26MOL0     H 3479   5.788   8.269  12.079 -2.3016  0.5118 -1.5317
   26MOL0     H 3480   5.774   8.333  11.789 -2.6560 -0.0924 -1.5577
   26MOL0     H 3481   5.672   8.411  11.926 -1.4036  0.2811  0.4685
   26MOL0     H 3482   5.603   8.158  11.989 -0.2800 -0.2935 -0.3490
   26MOL0     H 3483   5.682   8.118  11.843 -1.5536 -0.3085 -1.1892
   26MOL0     H 3484   5.442   8.312  11.852  0.9217  1.5097 -0.2401
   26MOL0     H 3485   5.541   8.285  11.718 -0.6283 -1.1311 -0.1029
   26MOL0     H 3486   5.454   8.033  11.748 -0.3284 -0.1650  0.1065
   26MOL0     H 3487   5.326   8.147  11.713 -1.4942  1.0197  1.1939
   26MOL0     H 3488   5.253   8.004  11.887  1.3546 -1.5904  0.1630
   26MOL0     H 3489   5.400   8.029  11.989  1.5827  3.2082  1.1664
   26MOL0     H 3490   6.345   8.276  11.990 -0.8502 -0.0297  0.2520
   26MOL0     H 3491   6.583   8.218  11.897  1.6316  1.7319 -1.7726
   26MOL0     H 3492   6.839   8.067  11.642 -2.1567 -0.4890 -1.2043
   26MOL0     H 3493   7.051   7.992  11.611 -0.1869 -0.3753 -0.6155
   26MOL0     H 3494   8.161   8.974  10.170  0.6421  2.6605  1.7639
   26MOL0     H 3495   8.270   9.015   9.946 -0.6814 -2.0989  1.4034
   26MOL0     H 3496   8.488   9.125   9.636  0.3248 -2.2945  1.4507
   26MOL0     H 3497   8.577   9.169   9.409  1.6144 -0.6867 -1.9712
   26MOL0     H 3498   8.769   9.292   9.297  0.3181  2.2179 -2.9578
   26MOL0     H 3499   8.669   9.198   9.197 -0.0031  2.8171  0.3426
   26MOL0     H 3500   8.876   9.124   9.060 -2.4803 -0.7268  0.6576
   26MOL0     H 3501   8.964   9.230   9.176  0.6574 -0.9585 -0.4354
   26MOL0     H 3502   8.880   9.416   9.066 -0.4386  0.4408 -2.6986
   26MOL0     H 3503   8.726   9.355   9.032 -0.0439  2.7777 -0.2216
   26MOL0     H 3504   8.998   9.290   8.899 -0.3929  0.5496  0.3978
   26MOL0     H 3505   8.849   9.206   8.845 -0.3397 -0.6060 -0.1093
   26MOL0     H 3506   8.801   9.596   8.663 -5.7303 -1.7120 -0.1707
   26MOL0     H 3507   8.922   8.939   9.503 -0.2011 -1.4174 -0.3481
   26MOL0     H 3508   8.882   8.969   9.838 -1.2970  1.2154  0.4285
   26MOL0     H 3509   8.840   8.807   9.792 -1.5044  0.6325  0.0163
   26MOL0     H 3510   8.967   8.857   9.713 -0.1570 -0.4855  2.1555
   27MOL0     O 3511   0.701  10.011   5.332 -0.2543 -0.5882  0.0165
   27MOL0     C 3512   0.648  10.057   5.434  0.1814  0.0187  0.2577
   27MOL0     O 3513   0.698  10.037   5.558 -0.3114  0.3173 -0.1295
   27MOL0     C 3514   0.810   9.959   5.556  0.0737 -0.2825 -0.1099
   27MOL0     C 3515   0.790   9.823   5.569 -0.1654  0.5981 -0.5124
   27MOL0     C 3516   0.913   9.732   5.560  0.0863  0.3489  0.8688
   27MOL0     C 3517   1.040   9.790   5.534 -0.9264  0.0629 -0.0555
   27MOL0     O 3518   1.155   9.722   5.514 -0.6774 -1.0242 -0.1290
   27MOL0     C 3519   1.153   9.582   5.497  0.0777  0.6763  0.3289
   27MOL0     C 3520   1.298   9.553   5.471  0.7076 -0.7191  0.3535
   27MOL0     C 3521   1.318   9.411   5.408 -0.4188 -1.9242  0.1092
   27MOL0     C 3522   1.461   9.425   5.342  0.4979  0.4851 -0.0634
   27MOL0     C 3523   1.499   9.295   5.256 -0.1904 -0.0640 -0.2047
   27MOL0     C 3524   1.526   9.176   5.356 -0.1620 -0.3173 -0.3096
   27MOL0     C 3525   1.549   9.042   5.290 -0.2413  0.0440  0.0436
   27MOL0     C 3526   1.570   8.917   5.384 -0.4773 -0.5458 -0.0272
   27MOL0     N 3527   1.696   8.930   5.462  0.2696 -0.0407  0.3349
   27MOL0     C 3528   1.703   8.986   5.581  0.7523  1.0110 -0.3768
   27MOL0     C 3529   1.822   8.943   5.626  0.0179 -0.1518 -0.1956
   27MOL0     C 3530   1.876   8.973   5.758 -0.1303 -0.1096 -0.2769
   27MOL0     C 3531   1.869   8.864   5.860  0.6307  0.9382  0.2079
   27MOL0     C 3532   1.911   8.911   6.000  0.2486  1.0881  0.6776
   27MOL0     C 3533   1.879   8.809   6.122 -0.6932  0.6897 -0.0417
   27MOL0     O 3534   1.933   8.681   6.080  0.1524  0.3429 -0.8544
   27MOL0     C 3535   1.909   8.569   6.164 -0.2513  0.2612  0.0160
   27MOL0     C 3536   1.940   8.431   6.119  0.5385 -0.6877  0.4055
   27MOL0     C 3537   1.928   8.323   6.198  0.8651 -0.8629 -0.8125
   27MOL0     C 3538   1.881   8.333   6.336 -0.5088  0.1654  0.3930
   27MOL0     C 3539   1.858   8.216   6.427 -0.1755 -0.4950 -0.5051
   27MOL0     O 3540   1.768   8.223   6.530 -0.1196 -0.8313  1.1349
   27MOL0     C 3541   1.740   8.113   6.607 -1.0220  0.7232 -0.7845
   27MOL0     C 3542   1.607   8.070   6.630 -0.0696  1.0035  0.2235
   27MOL0     C 3543   1.580   7.960   6.715 -0.0756 -0.4574 -0.3668
   27MOL0     C 3544   1.678   7.910   6.792 -0.4705 -0.0310 -0.9576
   27MOL0     O 3545   1.645   7.814   6.885  0.3117 -0.3886  0.5033
   27MOL0     C 3546   1.633   7.870   7.020  0.5093 -0.4276  0.3990
   27MOL0     C 3547   1.770   7.867   7.079 -0.3542 -0.3573 -0.5799
   27MOL0     C 3548   1.786   7.910   7.220  0.3987  0.4108  0.5133
   27MOL0     C 3549   1.936   7.930   7.245  0.4324  0.4378  0.0876
   27MOL0     C 3550   1.941   7.984   7.388  0.2534 -0.5467  0.2667
   27MOL0     C 3551   1.952   7.873   7.494 -0.5213  0.6989 -0.4699
   27MOL0     C 3552   1.824   7.819   7.546 -0.3379 -0.0383  0.0484
   27MOL0     C 3553   1.847   7.785   7.695  0.7006  0.1186 -0.4442
   27MOL0    Cl 3554   1.723   7.670   7.748 -0.2269 -0.8621  0.2553
   27MOL0     C 3555   1.810   7.942   6.767 -0.8860  0.4341 -0.0029
   27MOL0     C 3556   1.840   8.045   6.680 -0.6207 -0.3204  0.0946
   27MOL0     O 3557   1.925   8.120   6.397 -0.0744  0.0264 -0.1162
   27MOL0     C 3558   1.840   8.459   6.372  0.4271  0.2608 -0.3260
   27MOL0     C 3559   1.853   8.574   6.298 -0.1044 -0.7415 -0.1901
   27MOL0     N 3560   1.890   8.864   5.534 -0.4433  0.2288 -0.5959
   27MOL0     N 3561   1.808   8.857   5.433 -0.8635 -0.1494  0.4814
   27MOL0     C 3562   1.044   9.932   5.519  0.2937  0.5889  0.0628
   27MOL0     C 3563   0.937  10.018   5.540 -0.0103 -0.3555  0.6816
   27MOL0     C 3564   0.533  10.145   5.406 -0.3822  0.0604 -0.6186
   27MOL0     C 3565   0.544  10.273   5.461 -0.4108  0.2854 -1.2419
   27MOL0     C 3566   0.452  10.371   5.444 -0.3383 -0.2570 -0.6573
   27MOL0     C 3567   0.336  10.339   5.371 -0.1428 -0.2847 -0.7479
   27MOL0     O 3568   0.227  10.411   5.346  1.2351  0.4395 -0.3728
   27MOL0     C 3569   0.208  10.532   5.421 -0.1500 -0.2566 -0.6399
   27MOL0     C 3570   0.240  10.650   5.338 -0.1513 -0.0588 -0.7976
   27MOL0     C 3571   0.179  10.638   5.201 -0.0387  0.9440  0.1897
   27MOL0     C 3572   0.024  10.638   5.205  0.3751 -0.4651 -0.6839
   27MOL0     C 3573  -0.031  10.651   5.061 -0.2084  0.0707  0.4702
   27MOL0     C 3574  -0.087  10.676   4.958  0.9771  0.6254  0.3907
   27MOL0     C 3575   0.325  10.213   5.317  0.2124  0.3431  0.0378
   27MOL0     C 3576   0.418  10.110   5.336 -0.8811 -0.5948 -0.5826
   27MOL0     C 3577   0.394   9.964   5.288  0.4722  0.1867  0.2393
   27MOL0     H 3578   0.693   9.782   5.596  0.0770  0.0345 -0.4806
   27MOL0     H 3579   0.894   9.626   5.554  4.7873 -0.6510 -2.6711
   27MOL0     H 3580   1.104   9.535   5.583 -1.5622 -0.1648 -0.9923
   27MOL0     H 3581   1.094   9.570   5.405  0.8954 -0.0916 -0.1096
   27MOL0     H 3582   1.353   9.556   5.565  1.5620  0.8344 -0.1629
   27MOL0     H 3583   1.333   9.629   5.401  2.0644 -0.9206  0.7659
   27MOL0     H 3584   1.234   9.397   5.340 -4.5474  0.8751  3.9941
   27MOL0     H 3585   1.319   9.328   5.480  0.1705 -0.4704  1.8740
   27MOL0     H 3586   1.464   9.517   5.283 -1.9612  0.7345  0.1278
   27MOL0     H 3587   1.542   9.441   5.414  1.9704  0.5996 -1.6724
   27MOL0     H 3588   1.416   9.264   5.192 -0.0403 -2.0674  0.5184
   27MOL0     H 3589   1.579   9.330   5.190 -0.4301  4.5703  1.5403
   27MOL0     H 3590   1.620   9.195   5.409 -0.8632 -0.6197  1.0742
   27MOL0     H 3591   1.437   9.173   5.420  0.9076 -2.2473  1.1709
   27MOL0     H 3592   1.643   9.051   5.235  1.7049 -2.6330  2.6132
   27MOL0     H 3593   1.465   9.024   5.222  0.9431  1.2451 -1.8366
   27MOL0     H 3594   1.486   8.917   5.454  1.4961  1.8202  2.5922
   27MOL0     H 3595   1.569   8.833   5.314  1.4298  0.4120 -1.3011
   27MOL0     H 3596   1.632   9.044   5.639  0.1483 -1.3386  1.3443
   27MOL0     H 3597   1.980   9.004   5.751  0.2502 -1.4548 -1.0652
   27MOL0     H 3598   1.814   9.058   5.788  0.5869  1.0995 -2.0713
   27MOL0     H 3599   1.763   8.834   5.856  1.2946 -1.7127  0.6032
   27MOL0     H 3600   1.925   8.774   5.835 -0.6943  0.3496 -0.7540
   27MOL0     H 3601   1.872   9.012   6.020  1.5794  1.6434  0.5854
   27MOL0     H 3602   2.017   8.938   6.001  0.3118  0.8589  0.2254
   27MOL0     H 3603   1.771   8.808   6.141 -1.0072  0.5484 -1.6756
   27MOL0     H 3604   1.917   8.849   6.217 -2.0992  1.9426  0.0334
   27MOL0     H 3605   1.982   8.432   6.019  1.1772  2.3333  0.6344
   27MOL0     H 3606   1.946   8.220   6.170  1.7962 -0.9588  0.0713
   27MOL0     H 3607   1.526   8.133   6.592 -1.8582 -0.8914  0.7224
   27MOL0     H 3608   1.478   7.924   6.714 -0.2687  0.0829 -0.9279
   27MOL0     H 3609   1.591   7.971   7.022  1.4221 -0.0308  0.0162
   27MOL0     H 3610   1.567   7.807   7.080 -0.0094 -2.6062 -2.2793
   27MOL0     H 3611   1.809   7.765   7.071  0.7314 -0.0618  0.6783
   27MOL0     H 3612   1.837   7.933   7.024 -2.2429  1.2984 -0.9980
   27MOL0     H 3613   1.734   8.004   7.241  0.1259  0.6617 -1.2002
   27MOL0     H 3614   1.744   7.829   7.281 -0.5736 -0.7773 -1.6137
   27MOL0     H 3615   1.984   7.997   7.174  0.9630 -1.6960 -1.6816
   27MOL0     H 3616   1.995   7.837   7.241  1.5468  0.8381  3.5657
   27MOL0     H 3617   1.852   8.044   7.407  0.3593  0.6501 -2.5055
   27MOL0     H 3618   2.037   8.038   7.395  2.0020 -3.1174 -1.7991
   27MOL0     H 3619   1.998   7.788   7.444  1.1521 -0.9929  3.5413
   27MOL0     H 3620   2.024   7.901   7.572 -1.0096  1.2069 -0.1858
   27MOL0     H 3621   1.816   7.725   7.492  4.3234  0.8309 -2.6427
   27MOL0     H 3622   1.732   7.879   7.548 -0.2748  0.2496  4.3584
   27MOL0     H 3623   1.945   7.742   7.718  0.8911 -0.9420 -2.8848
   27MOL0     H 3624   1.827   7.875   7.754  2.7961  1.1804 -1.2402
   27MOL0     H 3625   1.900   7.891   6.802 -1.4773 -1.4396 -1.0913
   27MOL0     H 3626   1.946   8.063   6.666 -0.7711 -0.0504 -0.7956
   27MOL0     H 3627   1.809   8.476   6.474 -0.5744  0.6845 -0.6893
   27MOL0     H 3628   1.833   8.661   6.359 -2.5784  0.9989 -3.1805
   27MOL0     H 3629   1.129   9.994   5.496  1.1886 -0.4747  0.4066
   27MOL0     H 3630   0.940  10.127   5.531 -2.1316 -0.1497  1.9507
   27MOL0     H 3631   0.625  10.282   5.532  0.8656 -0.1894 -2.5927
   27MOL0     H 3632   0.465  10.468   5.490 -1.0887  0.8980 -2.7302
   27MOL0     H 3633   0.251  10.533   5.522  0.2365 -1.7779 -0.7687
   27MOL0     H 3634   0.102  10.551   5.441 -0.3383  0.1318 -1.9210
   27MOL0     H 3635   0.350  10.650   5.342 -0.1244  1.3149 -0.9406
   27MOL0     H 3636   0.201  10.745   5.376  0.6843 -0.3820  0.9860
   27MOL0     H 3637   0.201  10.551   5.139  1.1671  0.5583  1.1194
   27MOL0     H 3638   0.208  10.726   5.143 -0.1870  0.3486 -0.8056
   27MOL0     H 3639  -0.017  10.546   5.248  2.3726 -0.7487  0.7644
   27MOL0     H 3640  -0.003  10.727   5.262  1.3989 -1.6406  1.7997
   27MOL0     H 3641  -0.109  10.712   4.860  0.8509  0.9489  0.5367
   27MOL0     H 3642   0.236  10.174   5.268 -0.2575  0.3477  0.8629
   27MOL0     H 3643   0.433   9.897   5.365  1.9090  1.9742  1.1476
   27MOL0     H 3644   0.288   9.942   5.278  0.2706  1.2836 -0.2298
   27MOL0     H 3645   0.448   9.937   5.197 -0.5206 -1.9462  0.2254
   28MOL0     O 3646   2.127  10.328   7.399  0.3937  0.4723 -0.7635
   28MOL0     C 3647   2.209  10.418   7.425  0.3260 -0.1317  0.0189
   28MOL0     O 3648   2.321  10.408   7.501  0.2552  0.9223 -0.0386
   28MOL0     C 3649   2.340  10.305   7.592 -0.4843 -0.1355 -0.3977
   28MOL0     C 3650   2.471  10.272   7.630 -1.5503  1.0077 -0.2222
   28MOL0     C 3651   2.517  10.156   7.699  0.5302  0.6437 -0.0939
   28MOL0     C 3652   2.416  10.073   7.750 -0.3317 -0.1548 -0.1000
   28MOL0     O 3653   2.441   9.961   7.827  0.5935 -0.7348  0.7089
   28MOL0     C 3654   2.563   9.890   7.806 -0.2417  0.1645 -0.2127
   28MOL0     C 3655   2.565   9.828   7.667  0.4169 -0.3988 -0.9009
   28MOL0     C 3656   2.682   9.723   7.662 -0.5774  0.2759  0.1069
   28MOL0     C 3657   2.644   9.579   7.727  0.0162 -0.7047 -0.6209
   28MOL0     C 3658   2.758   9.482   7.725 -0.1088 -0.5473  0.3451
   28MOL0     C 3659   2.734   9.360   7.814  0.2029 -0.0283 -0.0832
   28MOL0     C 3660   2.631   9.263   7.746  0.8611  0.5131  0.6585
   28MOL0     C 3661   2.572   9.162   7.843 -0.0432  0.2128  0.0610
   28MOL0     N 3662   2.668   9.058   7.888 -0.3174  0.5226 -0.2531
   28MOL0     C 3663   2.795   9.024   7.854  1.2062 -0.6224 -0.2078
   28MOL0     C 3664   2.846   8.946   7.945  0.8514  1.1484 -0.0648
   28MOL0     C 3665   2.996   8.903   7.942 -0.6659  0.1778  1.0469
   28MOL0     C 3666   3.065   8.900   7.798 -0.3808 -0.5298 -0.4590
   28MOL0     C 3667   3.217   8.862   7.798 -0.0219  0.4527 -0.3208
   28MOL0     C 3668   3.283   8.851   7.663 -0.1037  0.0803 -0.4580
   28MOL0     O 3669   3.330   8.981   7.613 -0.4046  0.1362  0.5290
   28MOL0     C 3670   3.409   8.988   7.496 -0.4545 -0.0187 -0.9585
   28MOL0     C 3671   3.455   9.114   7.472  0.2212 -0.3013 -0.2486
   28MOL0     C 3672   3.518   9.132   7.351 -0.3615  0.4113 -0.2459
   28MOL0     C 3673   3.541   9.039   7.261 -0.3426  0.7640 -0.0113
   28MOL0     C 3674   3.611   9.074   7.134  0.1312  0.1190  0.3158
   28MOL0     O 3675   3.664   8.972   7.067  0.6428  0.3691 -0.4104
   28MOL0     C 3676   3.754   8.984   6.965 -0.3911 -0.5349  0.2576
   28MOL0     C 3677   3.854   9.084   6.968  0.3163  1.0910 -0.2336
   28MOL0     C 3678   3.958   9.080   6.871  0.9502 -1.1470  0.2447
   28MOL0     C 3679   3.959   8.986   6.765  0.4009  0.3249  0.2535
   28MOL0     O 3680   4.059   8.992   6.676 -0.0572  0.0605 -1.0493
   28MOL0     C 3681   4.103   8.879   6.596  0.2345 -0.3185 -1.2424
   28MOL0     C 3682   4.030   8.872   6.458  0.0825 -1.2358 -0.0538
   28MOL0     C 3683   4.130   8.844   6.338 -0.0935 -0.7906 -0.1091
   28MOL0     C 3684   4.055   8.788   6.211  0.8343 -0.6379 -0.1389
   28MOL0     C 3685   4.154   8.755   6.104 -0.0590  0.8759  0.1694
   28MOL0     C 3686   4.087   8.674   5.983  0.0717 -0.6283 -0.0097
   28MOL0     C 3687   4.081   8.520   6.023  0.0817  0.2092  0.5610
   28MOL0     C 3688   4.054   8.438   5.898 -0.9523  0.6980  0.7194
   28MOL0    Cl 3689   3.921   8.319   5.906 -0.1528  0.5118  0.1505
   28MOL0     C 3690   3.859   8.890   6.764  0.8015 -0.6489  0.3579
   28MOL0     C 3691   3.751   8.896   6.858 -0.4486  0.2876 -0.0758
   28MOL0     O 3692   3.620   9.194   7.105 -0.1955 -0.1046 -0.0074
   28MOL0     C 3693   3.497   8.910   7.296  0.9597  0.9526 -0.8247
   28MOL0     C 3694   3.438   8.882   7.418 -0.5728 -0.3691 -0.0474
   28MOL0     N 3695   2.735   8.910   8.035 -0.7358 -0.3243 -0.8088
   28MOL0     N 3696   2.637   8.978   7.991  0.2410  0.1528 -0.3420
   28MOL0     C 3697   2.288  10.113   7.742  0.1772  0.6324  0.5219
   28MOL0     C 3698   2.246  10.222   7.662  0.0022  0.6507  0.6625
   28MOL0     C 3699   2.189  10.545   7.367 -0.3444 -0.2790 -0.3392
   28MOL0     C 3700   2.292  10.592   7.283 -0.3542  0.3194  0.3602
   28MOL0     C 3701   2.291  10.725   7.224  0.9768 -0.0595 -0.4222
   28MOL0     C 3702   2.169  10.809   7.250  0.2402 -0.1845  0.1290
   28MOL0     O 3703   2.153  10.937   7.199 -0.2167  0.1387  0.2245
   28MOL0     C 3704   2.238  10.984   7.099 -0.0083 -0.3448  0.4190
   28MOL0     C 3705   2.355  11.066   7.156 -0.0242  0.2713  0.1510
   28MOL0     C 3706   2.296  11.186   7.237 -0.1654  1.0728 -0.2432
   28MOL0     C 3707   2.409  11.282   7.283 -0.2338  0.7678  0.0329
   28MOL0     C 3708   2.351  11.391   7.350 -0.0400  0.6006 -0.0908
   28MOL0     C 3709   2.287  11.468   7.423 -0.4287 -0.3444  0.3728
   28MOL0     C 3710   2.061  10.758   7.327  0.2906  0.4576 -1.0569
   28MOL0     C 3711   2.067  10.627   7.385  0.2514 -0.0543 -0.5691
   28MOL0     C 3712   1.958  10.592   7.481 -0.3229 -0.1601 -0.5362
   28MOL0     H 3713   2.543  10.336   7.580 -1.0362  1.5412  1.1430
   28MOL0     H 3714   2.622  10.130   7.709  0.6636  1.6861  1.8165
   28MOL0     H 3715   2.656   9.943   7.828  0.1293  0.1242 -1.6045
   28MOL0     H 3716   2.574   9.801   7.868 -0.9927 -0.6530 -1.2176
   28MOL0     H 3717   2.578   9.898   7.584 -0.2844  1.9211  0.8284
   28MOL0     H 3718   2.471   9.775   7.651  0.5138 -0.7393 -0.3935
   28MOL0     H 3719   2.772   9.760   7.711  0.5561 -2.7280  0.4629
   28MOL0     H 3720   2.714   9.711   7.558 -0.5571 -0.1974  0.1643
   28MOL0     H 3721   2.625   9.593   7.834  0.6035 -2.0292 -0.3229
   28MOL0     H 3722   2.552   9.533   7.692 -1.4266 -0.5983  2.6483
   28MOL0     H 3723   2.765   9.449   7.621 -0.8644  2.1784 -0.6762
   28MOL0     H 3724   2.850   9.537   7.747  0.4008  0.5223 -3.6081
   28MOL0     H 3725   2.821   9.301   7.843 -0.7913 -0.4788  2.2032
   28MOL0     H 3726   2.705   9.400   7.912 -0.1892  0.3576 -0.3497
   28MOL0     H 3727   2.681   9.215   7.661  0.2384  1.4281 -0.2466
   28MOL0     H 3728   2.562   9.328   7.692  2.3297  1.2049 -0.4661
   28MOL0     H 3729   2.545   9.221   7.931  1.4828 -1.8069  1.9881
   28MOL0     H 3730   2.479   9.120   7.803  0.2336 -0.5184  0.1811
   28MOL0     H 3731   2.847   9.072   7.771 -1.4564  0.5609 -1.3201
   28MOL0     H 3732   3.061   8.969   8.001  0.5987  2.1886 -2.3206
   28MOL0     H 3733   3.006   8.802   7.983  4.2873 -0.3281 -0.7132
   28MOL0     H 3734   3.014   8.828   7.734  2.0301 -1.1032 -1.8814
   28MOL0     H 3735   3.053   8.999   7.753  1.5466 -0.7417 -1.5736
   28MOL0     H 3736   3.243   8.777   7.861  0.1227  1.6430  1.3099
   28MOL0     H 3737   3.267   8.938   7.859  2.1720 -0.3789 -0.9883
   28MOL0     H 3738   3.206   8.821   7.591 -1.8782  2.9461  0.0492
   28MOL0     H 3739   3.368   8.784   7.678 -1.5585 -1.2146  2.9003
   28MOL0     H 3740   3.428   9.196   7.538  1.2990  1.6043 -2.0478
   28MOL0     H 3741   3.541   9.230   7.312  3.5872  1.2134  3.3819
   28MOL0     H 3742   3.861   9.155   7.049  2.1246  1.4889 -0.6908
   28MOL0     H 3743   4.044   9.147   6.877  0.6728 -0.5294 -1.8404
   28MOL0     H 3744   4.210   8.897   6.584 -0.3804  3.4636 -2.5296
   28MOL0     H 3745   4.096   8.779   6.641 -3.2741 -0.7259 -2.3260
   28MOL0     H 3746   3.947   8.801   6.459 -1.1748 -0.0951 -3.7332
   28MOL0     H 3747   3.983   8.968   6.432  2.0802  0.3168  1.7380
   28MOL0     H 3748   4.203   8.924   6.320  1.8158 -2.0981  1.4349
   28MOL0     H 3749   4.201   8.765   6.362  1.5794  0.6738 -0.0614
   28MOL0     H 3750   3.997   8.872   6.171  2.9173  0.4016 -1.1150
   28MOL0     H 3751   3.985   8.715   6.252 -2.9888  1.9413 -1.4576
   28MOL0     H 3752   4.232   8.695   6.151  0.3300  0.4563 -0.9587
   28MOL0     H 3753   4.194   8.850   6.065 -0.8037  1.2930  0.3902
   28MOL0     H 3754   3.988   8.718   5.967  0.8374  1.2151  0.0838
   28MOL0     H 3755   4.147   8.688   5.893  1.8157  0.6915  1.2767
   28MOL0     H 3756   4.001   8.523   6.098 -0.9096  2.3308 -0.4834
   28MOL0     H 3757   4.177   8.508   6.072  2.3858  0.0803 -3.5087
   28MOL0     H 3758   4.023   8.493   5.809 -1.0815  0.3555  0.5520
   28MOL0     H 3759   4.154   8.399   5.875 -0.9236  0.6850  0.8605
   28MOL0     H 3760   3.863   8.812   6.689 -2.5076  1.9149 -2.8743
   28MOL0     H 3761   3.677   8.816   6.858 -2.4952  2.0740 -0.5150
   28MOL0     H 3762   3.528   8.820   7.244  4.0382  1.8126 -0.6972
   28MOL0     H 3763   3.405   8.782   7.443 -0.3017 -0.1010  1.5161
   28MOL0     H 3764   2.220  10.052   7.800  0.7015  1.0226  1.5799
   28MOL0     H 3765   2.139  10.237   7.647 -0.7842 -4.6164 -1.5150
   28MOL0     H 3766   2.378  10.527   7.267 -1.1628 -0.8964  0.7306
   28MOL0     H 3767   2.374  10.768   7.170  3.1092 -0.0011  2.6361
   28MOL0     H 3768   2.177  11.037   7.025  0.7622 -1.5341 -1.1097
   28MOL0     H 3769   2.279  10.903   7.038  0.8108  0.8191 -0.6213
   28MOL0     H 3770   2.410  11.107   7.072 -0.6892  1.8782  0.4502
   28MOL0     H 3771   2.427  11.008   7.213 -0.0119  1.3645  1.3080
   28MOL0     H 3772   2.236  11.154   7.323  0.7628 -1.3131 -0.4091
   28MOL0     H 3773   2.228  11.241   7.170 -1.0033  0.7040  0.2841
   28MOL0     H 3774   2.469  11.225   7.354 -0.8623  0.4963  0.3540
   28MOL0     H 3775   2.471  11.326   7.204  1.4474 -0.7127  0.4512
   28MOL0     H 3776   2.234  11.520   7.501  1.4242  1.6878  0.3829
   28MOL0     H 3777   1.970  10.815   7.339  0.7593  1.1624 -0.7865
   28MOL0     H 3778   2.005  10.576   7.579  1.4790  0.5926 -1.2202
   28MOL0     H 3779   1.888  10.675   7.493 -1.0235 -0.8550  0.3007
   28MOL0     H 3780   1.898  10.512   7.436  1.4091 -1.6238 -0.3577
   29MOL0     O 3781   2.855   0.693   4.989  0.8706 -0.0383  0.2247
   29MOL0     C 3782   2.955   0.732   4.924  0.1213  0.2072  0.2161
   29MOL0     O 3783   2.983   0.860   4.898  0.3292 -0.4784  0.0890
   29MOL0     C 3784   2.902   0.959   4.951 -0.2135  0.5796 -0.5528
   29MOL0     C 3785   2.955   1.056   5.037  0.1204  0.2029 -0.7982
   29MOL0     C 3786   2.876   1.171   5.086 -0.3814  0.3677 -0.4205
   29MOL0     C 3787   2.743   1.185   5.046  0.1786  0.3242 -0.3235
   29MOL0     O 3788   2.662   1.300   5.072 -1.0093  0.3053  0.3337
   29MOL0     C 3789   2.746   1.419   5.047 -0.3122 -0.4139 -0.0283
   29MOL0     C 3790   2.658   1.533   5.004  0.5057  0.4991 -0.2827
   29MOL0     C 3791   2.557   1.566   5.115  0.1012 -0.1702 -1.0560
   29MOL0     C 3792   2.482   1.704   5.099 -0.4261  0.0624 -0.5740
   29MOL0     C 3793   2.366   1.708   5.212 -0.6311 -0.7261 -0.1079
   29MOL0     C 3794   2.307   1.841   5.199 -0.3329 -0.4517  0.5896
   29MOL0     C 3795   2.203   1.862   5.306  0.4521  0.1487 -0.0677
   29MOL0     C 3796   2.163   2.011   5.298  0.1711  0.9156 -0.4166
   29MOL0     N 3797   2.063   2.022   5.190 -0.1518 -0.3591 -0.0027
   29MOL0     C 3798   2.098   2.061   5.058 -0.0423 -0.9151  0.0290
   29MOL0     C 3799   1.985   2.052   4.990  0.5924  0.0820 -0.4275
   29MOL0     C 3800   1.981   2.113   4.848  0.0261  0.0275 -0.0959
   29MOL0     C 3801   2.061   2.046   4.740 -0.0627  0.2776  0.8618
   29MOL0     C 3802   1.997   1.903   4.704 -0.6644  0.0596  0.1705
   29MOL0     C 3803   2.088   1.823   4.621 -0.1945  0.1309  0.5880
   29MOL0     O 3804   2.219   1.828   4.678 -0.4966 -0.5290 -0.9488
   29MOL0     C 3805   2.293   1.716   4.664  0.3419 -0.2116 -0.0408
   29MOL0     C 3806   2.267   1.608   4.751 -0.6116  0.0490  0.1368
   29MOL0     C 3807   2.340   1.494   4.739 -0.4338  0.4506 -0.5582
   29MOL0     C 3808   2.446   1.469   4.648 -0.0242  0.1761 -0.2419
   29MOL0     C 3809   2.532   1.353   4.655 -0.9457  0.0252 -0.4460
   29MOL0     O 3810   2.645   1.352   4.580  0.1899  0.0338 -0.0103
   29MOL0     C 3811   2.725   1.244   4.585 -1.1621  0.0329 -0.9773
   29MOL0     C 3812   2.693   1.131   4.520 -0.0680  0.8593  0.9288
   29MOL0     C 3813   2.794   1.031   4.528 -0.2029 -0.5162 -0.6203
   29MOL0     C 3814   2.916   1.050   4.589 -0.1217  0.5153  0.4528
   29MOL0     O 3815   3.017   0.947   4.591 -0.0443 -0.3967 -0.1012
   29MOL0     C 3816   3.106   0.970   4.484 -0.3623 -0.4181 -0.0386
   29MOL0     C 3817   3.157   0.844   4.423  0.0693  1.0665 -0.1530
   29MOL0     C 3818   3.053   0.729   4.388  0.5315  0.4189  0.1227
   29MOL0     C 3819   2.969   0.769   4.257 -0.5199 -0.1755  0.2463
   29MOL0     C 3820   2.871   0.648   4.223 -0.4733 -0.0221 -0.1111
   29MOL0     C 3821   2.936   0.534   4.146  0.0503  0.4717 -0.0185
   29MOL0     C 3822   2.846   0.424   4.097  0.1356 -0.6097  0.9023
   29MOL0     C 3823   2.930   0.318   4.032  0.7655 -0.4794 -0.5030
   29MOL0    Cl 3824   2.828   0.176   3.997  0.2506  0.5969 -0.0526
   29MOL0     C 3825   2.931   1.160   4.667  0.2315 -1.6843 -0.6250
   29MOL0     C 3826   2.838   1.259   4.669  0.6017 -0.8406 -0.1503
   29MOL0     O 3827   2.495   1.262   4.726 -0.0922  0.6107 -0.0531
   29MOL0     C 3828   2.473   1.572   4.567  0.0331 -0.3284  0.4853
   29MOL0     C 3829   2.400   1.695   4.574  0.0026 -0.6713  0.0661
   29MOL0     N 3830   1.885   1.991   5.072  0.4293  0.4458  0.0850
   29MOL0     N 3831   1.940   1.985   5.191  0.5608  0.7266  0.1953
   29MOL0     C 3832   2.685   1.088   4.968  0.4281  0.0428  0.5158
   29MOL0     C 3833   2.766   0.985   4.913 -0.4615  0.5090 -0.5454
   29MOL0     C 3834   3.030   0.626   4.844 -0.5211 -0.3701 -0.6064
   29MOL0     C 3835   3.128   0.677   4.764 -0.4691 -0.9477 -0.4421
   29MOL0     C 3836   3.219   0.598   4.699  0.1109  0.6878  0.2869
   29MOL0     C 3837   3.226   0.463   4.721  0.1255  0.3725  0.2688
   29MOL0     O 3838   3.340   0.384   4.681  0.0484  0.2012 -0.5354
   29MOL0     C 3839   3.417   0.323   4.784  0.2138  0.3711  0.6985
   29MOL0     C 3840   3.531   0.271   4.687 -0.0180  0.5695  0.1181
   29MOL0     C 3841   3.617   0.395   4.649  0.5677 -0.4704  0.6828
   29MOL0     C 3842   3.747   0.357   4.581 -0.0487  0.2598 -0.2215
   29MOL0     C 3843   3.826   0.478   4.542 -0.3614 -0.4408 -0.4605
   29MOL0     C 3844   3.891   0.581   4.513 -0.1488  1.3280  0.4478
   29MOL0     C 3845   3.132   0.409   4.806  0.5066  0.1756  0.6118
   29MOL0     C 3846   3.028   0.482   4.865  0.0276  0.2691  0.4828
   29MOL0     C 3847   2.929   0.405   4.944  0.6455  0.5411 -0.1140
   29MOL0     H 3848   3.061   1.047   5.060  0.1004 -1.2258 -1.1519
   29MOL0     H 3849   2.915   1.253   5.145 -0.6422  0.8827 -0.9443
   29MOL0     H 3850   2.812   1.451   5.128 -0.2418 -0.6525  0.0103
   29MOL0     H 3851   2.814   1.404   4.963 -1.3105  3.8397 -1.8281
   29MOL0     H 3852   2.597   1.493   4.922 -2.1229  2.2768  0.6837
   29MOL0     H 3853   2.723   1.618   4.979  2.6727 -0.8875  0.4021
   29MOL0     H 3854   2.613   1.567   5.209  1.2856 -0.1709 -1.7490
   29MOL0     H 3855   2.482   1.486   5.116  0.8093 -0.8526  0.4092
   29MOL0     H 3856   2.546   1.790   5.124 -1.1644  1.5418 -3.3416
   29MOL0     H 3857   2.444   1.723   4.998 -0.2482  0.7120 -0.5234
   29MOL0     H 3858   2.303   1.622   5.188  0.3477 -0.9106 -2.2552
   29MOL0     H 3859   2.413   1.700   5.311  1.6312 -2.8282 -1.2341
   29MOL0     H 3860   2.384   1.918   5.207 -1.1656  0.2689  2.2553
   29MOL0     H 3861   2.260   1.850   5.100  1.1480 -0.2029 -0.1079
   29MOL0     H 3862   2.240   1.847   5.408 -2.9783 -0.3181  1.2291
   29MOL0     H 3863   2.127   1.792   5.270  1.3535  0.1988 -2.2499
   29MOL0     H 3864   2.118   2.037   5.394  0.9028  0.9811 -0.0840
   29MOL0     H 3865   2.255   2.069   5.281  0.8141  0.0503 -0.0099
   29MOL0     H 3866   2.192   2.092   5.014  0.2876 -3.5794 -1.3239
   29MOL0     H 3867   1.879   2.127   4.812  0.2861 -3.5702 -2.8284
   29MOL0     H 3868   2.028   2.211   4.864 -1.0019  0.4191  0.6444
   29MOL0     H 3869   2.070   2.099   4.644 -2.2574 -0.6493  0.0635
   29MOL0     H 3870   2.160   2.034   4.785 -0.6583 -1.9556  1.7075
   29MOL0     H 3871   1.896   1.903   4.661 -1.0700 -2.0082  1.0003
   29MOL0     H 3872   1.989   1.848   4.799  2.7889 -2.6023 -0.8591
   29MOL0     H 3873   2.110   1.867   4.523 -0.5279  0.4632  0.6566
   29MOL0     H 3874   2.044   1.726   4.596 -1.6496  0.9577 -0.2188
   29MOL0     H 3875   2.187   1.610   4.824 -1.0002  1.1438 -0.3013
   29MOL0     H 3876   2.318   1.428   4.822 -1.1657  3.9318  2.2842
   29MOL0     H 3877   2.601   1.117   4.463 -0.0582 -0.0280  1.1162
   29MOL0     H 3878   2.772   0.939   4.475  0.0340 -0.3271 -1.0530
   29MOL0     H 3879   3.064   1.022   4.398  2.6447  1.5209 -0.5206
   29MOL0     H 3880   3.180   1.040   4.524  0.9432 -1.4978 -0.4796
   29MOL0     H 3881   3.207   0.870   4.329 -0.0738  2.7112  0.1961
   29MOL0     H 3882   3.238   0.807   4.487 -0.0389 -1.1351 -1.1752
   29MOL0     H 3883   3.107   0.635   4.374  2.5386  1.8500 -2.9259
   29MOL0     H 3884   2.991   0.724   4.478 -0.6705  1.1621 -0.6485
   29MOL0     H 3885   3.032   0.793   4.171  0.0249  0.7689  0.8982
   29MOL0     H 3886   2.902   0.854   4.273  1.2813  1.4169 -0.2943
   29MOL0     H 3887   2.788   0.679   4.158  0.1986 -0.7169 -1.3272
   29MOL0     H 3888   2.827   0.610   4.315 -1.9818  3.4113  0.7730
   29MOL0     H 3889   3.001   0.573   4.066  0.9804 -1.4755 -0.2558
   29MOL0     H 3890   3.000   0.485   4.220 -0.8560  0.0602  0.5068
   29MOL0     H 3891   2.777   0.473   4.027  2.5645  1.6596 -0.0890
   29MOL0     H 3892   2.799   0.379   4.185 -2.3804 -0.2176 -0.1757
   29MOL0     H 3893   2.963   0.348   3.933  0.7439 -0.9666 -0.6609
   29MOL0     H 3894   3.016   0.299   4.098  1.3329  1.9739 -0.4404
   29MOL0     H 3895   3.025   1.166   4.721 -0.2169 -1.6736  0.1606
   29MOL0     H 3896   2.844   1.347   4.732 -0.4456 -2.0355  1.7120
   29MOL0     H 3897   2.558   1.565   4.501 -0.4679  2.9805 -0.7093
   29MOL0     H 3898   2.425   1.783   4.516  0.5617 -0.0202  1.2654
   29MOL0     H 3899   2.580   1.092   4.940  0.4355 -0.9368  0.3057
   29MOL0     H 3900   2.717   0.914   4.846 -1.3124  2.0042 -1.5589
   29MOL0     H 3901   3.121   0.782   4.736 -0.7449 -1.4800 -2.5325
   29MOL0     H 3902   3.296   0.648   4.640  0.9765  0.4277  1.1714
   29MOL0     H 3903   3.371   0.232   4.824 -1.2077  0.9264  0.4045
   29MOL0     H 3904   3.459   0.387   4.862  1.6387 -0.8425  0.9692
   29MOL0     H 3905   3.490   0.223   4.598 -0.7958  1.0305  0.2262
   29MOL0     H 3906   3.582   0.196   4.748 -3.4315  0.3852  3.0687
   29MOL0     H 3907   3.645   0.444   4.742  4.3688 -0.0119 -0.5529
   29MOL0     H 3908   3.569   0.466   4.581  0.6695 -0.2531  0.8406
   29MOL0     H 3909   3.811   0.296   4.646  1.1879 -0.2126 -1.8160
   29MOL0     H 3910   3.726   0.290   4.497 -0.6008  1.1866 -0.8254
   29MOL0     H 3911   3.953   0.664   4.485  0.2617  0.1187 -2.6219
   29MOL0     H 3912   3.150   0.303   4.825  3.1396  0.4488 -0.0150
   29MOL0     H 3913   2.949   0.429   5.049 -0.3093  0.7587  0.0297
   29MOL0     H 3914   2.830   0.444   4.918  1.2519  0.7004 -2.3588
   29MOL0     H 3915   2.931   0.296   4.940 -0.3230  0.4812  0.6483
   30MOL0     O 3916  10.315   7.132   0.988  0.9339 -0.5484  0.8789
   30MOL0     C 3917  10.278   7.136   0.869  0.0513 -0.5044 -0.3531
   30MOL0     O 3918  10.344   7.199   0.774 -0.1121 -0.4377  0.5645
   30MOL0     C 3919  10.450   7.282   0.812 -1.0789  0.8143 -0.5276
   30MOL0     C 3920  10.573   7.234   0.859 -0.1851  0.0879  0.6607
   30MOL0     C 3921  10.667   7.323   0.901 -1.0547 -0.4366 -0.0841
   30MOL0     C 3922  10.647   7.458   0.876  0.5558  0.0486  0.7123
   30MOL0     O 3923  10.728   7.554   0.927  0.6753  1.0163  0.0642
   30MOL0     C 3924  10.869   7.511   0.933  0.4150  0.0849  0.4517
   30MOL0     C 3925  10.965   7.632   0.920 -0.7881 -0.0843 -0.7599
   30MOL0     C 3926  11.102   7.586   0.958  0.8410 -0.3613  0.5283
   30MOL0     C 3927  11.215   7.685   0.919  0.1297 -0.2240  0.0722
   30MOL0     C 3928  11.298   7.746   1.031 -0.7045  0.2123  0.4776
   30MOL0     C 3929  11.432   7.820   0.988 -0.0198  0.4523  0.4526
   30MOL0     C 3930  11.535   7.872   1.087  1.0303 -0.0004 -0.8922
   30MOL0     C 3931  11.670   7.903   1.007  0.2647 -0.2878  0.3675
   30MOL0     N 3932  11.668   7.982   0.888 -0.2097  0.5977 -0.2360
   30MOL0     C 3933  11.679   8.114   0.877 -0.1861 -0.2518  0.2562
   30MOL0     C 3934  11.712   8.141   0.747  1.1226 -0.0445  1.5132
   30MOL0     C 3935  11.718   8.281   0.693  0.0075  0.2600  0.2018
   30MOL0     C 3936  11.606   8.319   0.595  0.3465 -0.2915 -0.2455
   30MOL0     C 3937  11.471   8.276   0.650 -0.4146  0.2495 -0.0606
   30MOL0     C 3938  11.365   8.298   0.539 -1.0864 -0.1708  0.3332
   30MOL0     O 3939  11.376   8.193   0.435 -0.0421  0.3205  0.8159
   30MOL0     C 3940  11.292   8.211   0.338  0.4113 -0.0021  0.1322
   30MOL0     C 3941  11.187   8.305   0.326  0.9311 -0.6037  0.7415
   30MOL0     C 3942  11.110   8.304   0.212  0.7559 -0.0112 -0.0792
   30MOL0     C 3943  11.125   8.220   0.110 -0.5726  0.2557 -0.0417
   30MOL0     C 3944  11.039   8.230  -0.014 -0.0575 -0.0313 -0.6150
   30MOL0     O 3945  10.976   8.109  -0.039  0.7018  0.4760  0.2300
   30MOL0     C 3946  10.887   8.105  -0.137  0.2871 -0.1495 -1.1237
   30MOL0     C 3947  10.750   8.108  -0.104 -0.4545 -0.9702 -0.5544
   30MOL0     C 3948  10.661   8.085  -0.207 -0.2730  0.3145 -0.3287
   30MOL0     C 3949  10.699   8.081  -0.341 -0.8932 -0.3874 -0.8319
   30MOL0     O 3950  10.625   8.095  -0.448  0.1001 -0.9026  0.1016
   30MOL0     C 3951  10.489   8.142  -0.424 -0.1912  0.5724 -0.2130
   30MOL0     C 3952  10.400   8.119  -0.551 -0.0517 -0.3259 -0.4921
   30MOL0     C 3953  10.428   8.240  -0.641  0.3818  0.5126  0.5134
   30MOL0     C 3954  10.538   8.205  -0.732 -0.3133 -0.9295  0.4726
   30MOL0     C 3955  10.574   8.327  -0.828 -0.3232  0.1803 -0.3599
   30MOL0     C 3956  10.469   8.381  -0.921 -0.0721 -0.6435  0.4505
   30MOL0     C 3957  10.528   8.435  -1.056 -0.2659 -1.1503 -0.8657
   30MOL0     C 3958  10.409   8.486  -1.136  0.0374  0.3547  1.0930
   30MOL0    Cl 3959  10.485   8.538  -1.294 -0.0846  0.4281  0.0226
   30MOL0     C 3960  10.841   8.068  -0.367  0.0153  0.8042 -0.4241
   30MOL0     C 3961  10.934   8.073  -0.271  0.4551 -0.1032 -0.4148
   30MOL0     O 3962  11.020   8.341  -0.058 -0.0707  0.2138 -0.5273
   30MOL0     C 3963  11.226   8.128   0.116  0.2890  0.0592  0.2430
   30MOL0     C 3964  11.312   8.124   0.230  0.8554  0.4286  0.3326
   30MOL0     N 3965  11.715   8.018   0.685  0.0283  0.0117  0.4212
   30MOL0     N 3966  11.692   7.927   0.759 -0.1448 -0.3318 -1.0609
   30MOL0     C 3967  10.527   7.507   0.826 -0.0046  0.5487  0.6739
   30MOL0     C 3968  10.433   7.412   0.785  0.3028 -0.7428  0.6015
   30MOL0     C 3969  10.153   7.054   0.847 -0.0075  0.0897  0.5494
   30MOL0     C 3970  10.064   7.047   0.940 -0.4374 -0.2687 -0.0202
   30MOL0     C 3971   9.937   6.989   0.916 -0.0848  0.4481 -0.4536
   30MOL0     C 3972   9.904   6.929   0.795  0.2721 -0.6612  0.3479
   30MOL0     O 3973   9.772   6.887   0.788  0.4159 -0.4358 -0.5580
   30MOL0     C 3974   9.718   6.851   0.663  0.2154 -0.0825  0.4208
   30MOL0     C 3975   9.616   6.745   0.699 -0.3589 -0.1239 -0.5877
   30MOL0     C 3976   9.485   6.806   0.753 -0.4102  0.0616 -0.0481
   30MOL0     C 3977   9.382   6.685   0.757  0.2469  0.1033 -0.7263
   30MOL0     C 3978   9.292   6.656   0.644  0.5399  0.1274  0.1596
   30MOL0     C 3979   9.243   6.609   0.542 -1.0144  0.2447  0.6087
   30MOL0     C 3980  10.003   6.941   0.695 -0.2308 -0.0682 -1.0283
   30MOL0     C 3981  10.129   7.001   0.721  0.4414 -0.5345 -0.3426
   30MOL0     C 3982  10.216   6.999   0.611  0.1537  0.9496  0.1937
   30MOL0     H 3983  10.588   7.127   0.872 -0.0350  0.1181  0.7333
   30MOL0     H 3984  10.758   7.286   0.948  0.1089 -0.0266 -1.9184
   30MOL0     H 3985  10.889   7.458   1.027 -1.5409  1.8609  1.9788
   30MOL0     H 3986  10.892   7.456   0.841 -0.8197  1.1675 -0.5363
   30MOL0     H 3987  10.934   7.692   1.006 -2.0240  0.5126 -1.5951
   30MOL0     H 3988  10.950   7.693   0.831 -1.9928  1.1245  0.2218
   30MOL0     H 3989  11.115   7.489   0.908  3.9791  0.0522  0.2951
   30MOL0     H 3990  11.118   7.570   1.065 -1.9788 -3.8719  0.6339
   30MOL0     H 3991  11.278   7.637   0.844  0.8802  0.1696  0.4349
   30MOL0     H 3992  11.165   7.774   0.879 -3.6237 -1.3278  1.8433
   30MOL0     H 3993  11.243   7.820   1.090  3.5568  2.3129  2.2689
   30MOL0     H 3994  11.324   7.673   1.108 -0.3164 -0.8365 -0.6204
   30MOL0     H 3995  11.484   7.747   0.925 -1.3732 -0.3381  0.2090
   30MOL0     H 3996  11.396   7.906   0.930 -1.9951 -0.1214  0.7539
   30MOL0     H 3997  11.544   7.805   1.172 -2.1831  0.2409 -0.2086
   30MOL0     H 3998  11.506   7.967   1.133 -0.4439 -0.4904 -0.7564
   30MOL0     H 3999  11.741   7.947   1.077  0.8020  0.6346 -0.7170
   30MOL0     H 4000  11.697   7.802   0.974 -2.8707 -0.6055 -1.6856
   30MOL0     H 4001  11.663   8.193   0.950 -0.0670  2.6819 -2.6695
   30MOL0     H 4002  11.729   8.338   0.785 -0.7194 -0.9543  1.0659
   30MOL0     H 4003  11.813   8.291   0.639  0.6537  0.5278  1.3673
   30MOL0     H 4004  11.592   8.427   0.583 -2.2741 -0.5343  0.1379
   30MOL0     H 4005  11.630   8.278   0.497  1.3228 -0.9556  0.2466
   30MOL0     H 4006  11.444   8.354   0.722 -1.7001  0.0368 -0.2959
   30MOL0     H 4007  11.470   8.173   0.686  0.4944 -0.0186 -0.7541
   30MOL0     H 4008  11.364   8.397   0.493  2.4790 -1.0773 -2.1324
   30MOL0     H 4009  11.266   8.273   0.580 -1.9176  1.3914 -0.6534
   30MOL0     H 4010  11.162   8.384   0.396 -0.0286  0.1040 -0.3734
   30MOL0     H 4011  11.029   8.370   0.185  0.0887 -1.2461 -1.2231
   30MOL0     H 4012  10.735   8.128   0.002 -1.5729 -1.3661 -0.6164
   30MOL0     H 4013  10.557   8.087  -0.176  0.0033  1.8282  0.6200
   30MOL0     H 4014  10.443   8.072  -0.354 -0.9904  1.4174  0.1157
   30MOL0     H 4015  10.494   8.245  -0.389 -1.4813 -0.4925  3.4713
   30MOL0     H 4016  10.420   8.023  -0.600  1.4012  0.1937 -0.9745
   30MOL0     H 4017  10.300   8.124  -0.508  0.9286 -0.5562  1.9602
   30MOL0     H 4018  10.350   8.259  -0.715  2.8298 -0.2510 -2.4773
   30MOL0     H 4019  10.446   8.334  -0.588 -1.4180 -0.8243  3.8304
   30MOL0     H 4020  10.504   8.120  -0.791 -1.6295 -1.7528  2.3474
   30MOL0     H 4021  10.632   8.183  -0.681 -0.4942  0.3076  1.3882
   30MOL0     H 4022  10.661   8.296  -0.885  0.7022 -1.6834  2.0434
   30MOL0     H 4023  10.604   8.408  -0.761 -1.6034  1.1273 -0.8927
   30MOL0     H 4024  10.398   8.300  -0.940 -2.4517  1.2076  0.9378
   30MOL0     H 4025  10.405   8.453  -0.870 -0.2155 -1.4241  1.4044
   30MOL0     H 4026  10.570   8.348  -1.107 -2.6484 -2.7809 -0.2272
   30MOL0     H 4027  10.598   8.519  -1.068  0.6855 -1.8660 -0.4704
   30MOL0     H 4028  10.335   8.408  -1.158 -1.2145  1.5105  1.1095
   30MOL0     H 4029  10.356   8.569  -1.091 -1.2775 -0.4334  1.0478
   30MOL0     H 4030  10.863   8.045  -0.470 -1.1246 -1.4363 -0.2243
   30MOL0     H 4031  11.042   8.070  -0.286  0.5465  3.7646 -1.3843
   30MOL0     H 4032  11.238   8.058   0.034 -0.2213  1.4822 -1.1184
   30MOL0     H 4033  11.397   8.057   0.234  0.8969  0.4481 -0.1718
   30MOL0     H 4034  10.507   7.611   0.800 -0.0146  0.9176  2.0860
   30MOL0     H 4035  10.338   7.451   0.749  0.4162 -1.3751 -0.4134
   30MOL0     H 4036  10.077   7.095   1.037 -2.0494 -2.1145  1.1814
   30MOL0     H 4037   9.861   6.994   0.993 -1.1044  1.1499 -1.4703
   30MOL0     H 4038   9.790   6.792   0.605 -1.7442 -6.9665  3.8740
   30MOL0     H 4039   9.672   6.934   0.609 -0.1469 -1.2665 -1.1528
   30MOL0     H 4040   9.656   6.676   0.774  0.0428  0.4878 -0.2280
   30MOL0     H 4041   9.599   6.692   0.605  0.8236 -0.3276 -0.7050
   30MOL0     H 4042   9.434   6.876   0.686 -1.9672 -0.9482  0.0325
   30MOL0     H 4043   9.507   6.833   0.857 -2.0528  2.1656 -0.1924
   30MOL0     H 4044   9.429   6.592   0.788 -1.8791 -0.6733  0.3976
   30MOL0     H 4045   9.310   6.696   0.839  1.9144  2.5414  0.5363
   30MOL0     H 4046   9.196   6.561   0.459  2.1182  0.6110 -1.5401
   30MOL0     H 4047   9.980   6.906   0.595  0.0486 -0.9570 -0.7989
   30MOL0     H 4048  10.315   6.963   0.641 -0.5949 -3.0000 -1.4182
   30MOL0     H 4049  10.188   6.940   0.523  1.9089  2.1518 -1.2570
   30MOL0     H 4050  10.245   7.098   0.573  2.2256  0.4841  0.4261
   31MOL0     O 4051   0.769  10.211   1.389  0.0252 -0.2159  0.5141
   31MOL0     C 4052   0.752  10.315   1.316 -0.0356 -0.8620 -0.1425
   31MOL0     O 4053   0.634  10.393   1.319  0.0157 -0.1686  0.0044
   31MOL0     C 4054   0.525  10.328   1.366 -0.6691  1.1141  0.6545
   31MOL0     C 4055   0.511  10.337   1.504  1.2075  0.0384 -0.5800
   31MOL0     C 4056   0.411  10.263   1.578  0.2970 -1.1422  1.0384
   31MOL0     C 4057   0.313  10.202   1.502 -0.4319  0.2707 -0.8002
   31MOL0     O 4058   0.204  10.148   1.571 -0.0651 -0.2247  0.5110
   31MOL0     C 4059   0.164  10.217   1.694  0.4181 -0.8197 -1.8080
   31MOL0     C 4060   0.015  10.193   1.704 -0.1769  0.1166  0.0743
   31MOL0     C 4061  -0.036  10.268   1.826  0.6576 -0.8429 -0.4403
   31MOL0     C 4062  -0.194  10.265   1.834  0.1667  0.9430 -0.1897
   31MOL0     C 4063  -0.234  10.381   1.917 -1.0658  0.6934 -0.6872
   31MOL0     C 4064  -0.384  10.393   1.921 -0.1256 -0.4873  0.0775
   31MOL0     C 4065  -0.431  10.516   2.008  0.3608 -0.3571 -0.6672
   31MOL0     C 4066  -0.576  10.539   1.992  0.1532  0.0346 -0.0443
   31MOL0     N 4067  -0.648  10.630   2.087 -0.6988  0.6084  0.2642
   31MOL0     C 4068  -0.665  10.609   2.219 -0.4516 -0.4437 -0.2694
   31MOL0     C 4069  -0.737  10.712   2.260 -0.1871  0.0876 -0.4535
   31MOL0     C 4070  -0.782  10.731   2.405 -0.4042  0.7650 -0.0893
   31MOL0     C 4071  -0.927  10.777   2.414 -0.3668 -0.6035  0.2955
   31MOL0     C 4072  -0.989  10.728   2.551 -0.8907 -0.4981 -0.5701
   31MOL0     C 4073  -1.114  10.797   2.589  0.4473  0.5271  0.1041
   31MOL0     O 4074  -1.101  10.938   2.602  0.2456 -0.1822 -0.1253
   31MOL0     C 4075  -1.086  10.973   2.730  0.5466 -0.7739 -0.2834
   31MOL0     C 4076  -0.958  11.017   2.770 -0.3224  0.0453  0.0605
   31MOL0     C 4077  -0.919  11.041   2.895  0.2620  0.6915 -0.6450
   31MOL0     C 4078  -1.016  11.018   3.001 -0.0087  0.0433  0.2016
   31MOL0     C 4079  -0.987  11.040   3.143  0.2326  1.1401 -0.1893
   31MOL0     O 4080  -0.870  11.107   3.159 -0.7117 -0.7210 -0.5279
   31MOL0     C 4081  -0.829  11.176   3.280  0.8885  0.8025 -0.1650
   31MOL0     C 4082  -0.691  11.202   3.307  0.4239  0.3364 -0.6127
   31MOL0     C 4083  -0.652  11.278   3.413 -0.0855 -0.4454  0.2447
   31MOL0     C 4084  -0.748  11.334   3.506 -0.1052  0.3736 -0.0349
   31MOL0     O 4085  -0.713  11.396   3.616  0.0252 -0.4391 -0.3162
   31MOL0     C 4086  -0.755  11.540   3.616 -0.6750  0.1426  0.7423
   31MOL0     C 4087  -0.689  11.603   3.742 -0.8426  0.1243  0.7232
   31MOL0     C 4088  -0.740  11.732   3.804  0.5690 -0.8408 -0.6134
   31MOL0     C 4089  -0.794  11.843   3.712  0.5594  0.3006 -0.1925
   31MOL0     C 4090  -0.936  11.833   3.666  0.4475 -0.1074  0.0796
   31MOL0     C 4091  -0.969  11.912   3.546 -0.3574 -0.6372  0.0107
   31MOL0     C 4092  -0.936  12.057   3.569 -0.2297  1.1374  0.1887
   31MOL0     C 4093  -0.939  12.131   3.435 -0.4800 -0.8456  0.1169
   31MOL0    Cl 4094  -0.871  12.294   3.451  0.0471  0.0853 -0.2347
   31MOL0     C 4095  -0.883  11.309   3.479 -0.5958  0.6968  0.3088
   31MOL0     C 4096  -0.924  11.228   3.367  0.1141 -0.1684  0.2777
   31MOL0     O 4097  -1.076  11.014   3.227 -1.2579  0.3312 -0.2912
   31MOL0     C 4098  -1.151  10.987   2.967 -0.1340  0.8083  0.8549
   31MOL0     C 4099  -1.182  10.966   2.835 -0.4827  0.1063 -0.3892
   31MOL0     N 4100  -0.755  10.801   2.153  0.2202 -0.3929 -0.0752
   31MOL0     N 4101  -0.710  10.743   2.043 -0.0090 -0.6643 -0.6342
   31MOL0     C 4102   0.314  10.201   1.359 -0.7700  0.6730 -0.6527
   31MOL0     C 4103   0.426  10.266   1.293 -0.0587 -0.8371  0.1680
   31MOL0     C 4104   0.880  10.374   1.251 -0.4225 -0.3014  0.2194
   31MOL0     C 4105   0.996  10.304   1.276 -0.8685  0.3134 -0.1335
   31MOL0     C 4106   1.124  10.353   1.242  0.5031  0.6955  0.5439
   31MOL0     C 4107   1.129  10.466   1.158  0.7895  0.2313 -0.0728
   31MOL0     O 4108   1.255  10.500   1.119 -0.2522  0.0713 -0.0786
   31MOL0     C 4109   1.285  10.627   1.053  0.2535 -0.2161 -0.4425
   31MOL0     C 4110   1.361  10.723   1.144  0.2145  0.3339 -0.0121
   31MOL0     C 4111   1.284  10.749   1.279  0.8142  0.0472 -0.4567
   31MOL0     C 4112   1.385  10.817   1.369 -0.4099  1.0262  0.4489
   31MOL0     C 4113   1.350  10.943   1.413  0.8091 -0.0860  1.0791
   31MOL0     C 4114   1.321  11.058   1.441 -1.2833 -0.3295 -1.0369
   31MOL0     C 4115   1.008  10.515   1.120 -0.2481 -0.5993  0.6964
   31MOL0     C 4116   0.875  10.479   1.162 -0.4968  1.2810 -0.1528
   31MOL0     C 4117   0.762  10.554   1.111 -0.3302  0.4849 -0.6592
   31MOL0     H 4118   0.580  10.385   1.573  0.4008  0.1521  0.1613
   31MOL0     H 4119   0.414  10.265   1.687  2.0365  2.8005  1.0887
   31MOL0     H 4120   0.216  10.184   1.785  0.3472  4.0575  0.2829
   31MOL0     H 4121   0.185  10.322   1.673  0.9138 -0.2996  0.9576
   31MOL0     H 4122  -0.031  10.094   1.702  0.1151 -0.0269 -2.1917
   31MOL0     H 4123  -0.032  10.249   1.623  0.0929 -0.7813 -0.7163
   31MOL0     H 4124   0.014  10.365   1.838  2.0720 -1.7668  1.8870
   31MOL0     H 4125  -0.003  10.220   1.919  0.8994  1.6680  0.8437
   31MOL0     H 4126  -0.243  10.282   1.738  1.8695  1.1115 -1.0663
   31MOL0     H 4127  -0.229  10.171   1.878 -2.4964  0.4574 -3.0046
   31MOL0     H 4128  -0.193  10.368   2.018  1.1632 -1.8238 -1.8070
   31MOL0     H 4129  -0.181  10.463   1.867  0.2474 -0.9199 -2.0786
   31MOL0     H 4130  -0.411  10.403   1.815  0.9134 -1.2235 -0.2732
   31MOL0     H 4131  -0.433  10.300   1.952  2.8144 -1.6524  1.6378
   31MOL0     H 4132  -0.369  10.596   1.969  1.6229 -1.1628 -0.3779
   31MOL0     H 4133  -0.398  10.494   2.110  3.4892 -0.9559 -1.6877
   31MOL0     H 4134  -0.589  10.574   1.889  0.6791 -0.1851 -0.1855
   31MOL0     H 4135  -0.617  10.438   1.998  1.8646 -0.7145 -0.5622
   31MOL0     H 4136  -0.617  10.532   2.279 -0.5938 -1.1691 -1.0611
   31MOL0     H 4137  -0.777  10.645   2.472 -0.6507  0.7132 -0.1376
   31MOL0     H 4138  -0.723  10.807   2.456  0.8998 -1.5071  1.9863
   31MOL0     H 4139  -0.939  10.885   2.401  2.4397 -0.4106 -1.5194
   31MOL0     H 4140  -0.987  10.730   2.336 -0.3090  1.1542 -0.8606
   31MOL0     H 4141  -0.920  10.756   2.631  0.0692 -0.4844 -1.3793
   31MOL0     H 4142  -1.005  10.620   2.555  0.7351 -0.8630 -2.1454
   31MOL0     H 4143  -1.155  10.744   2.675  2.6151 -3.0800 -0.8907
   31MOL0     H 4144  -1.185  10.784   2.508 -1.6177 -0.6856  2.0128
   31MOL0     H 4145  -0.875  11.012   2.700  0.8603 -1.5253  1.4837
   31MOL0     H 4146  -0.813  11.063   2.906  1.6149 -1.2622 -6.3230
   31MOL0     H 4147  -0.625  11.173   3.226 -2.5889 -1.4505 -2.6419
   31MOL0     H 4148  -0.545  11.291   3.426  0.0016  0.6562 -1.3164
   31MOL0     H 4149  -0.715  11.588   3.526 -3.6264 -0.2267 -0.8872
   31MOL0     H 4150  -0.863  11.556   3.624 -0.7339  0.7816 -0.8381
   31MOL0     H 4151  -0.698  11.526   3.819  0.6244  1.4616  2.3204
   31MOL0     H 4152  -0.583  11.625   3.729 -0.8438 -0.0961  0.3354
   31MOL0     H 4153  -0.818  11.702   3.874 -0.9170  0.2842 -1.7212
   31MOL0     H 4154  -0.660  11.779   3.861 -0.4544  0.7461 -0.4271
   31MOL0     H 4155  -0.722  11.856   3.632  1.2003  2.9813  0.7251
   31MOL0     H 4156  -0.794  11.934   3.774  2.9137  1.0060 -1.1455
   31MOL0     H 4157  -1.002  11.869   3.746  0.5127 -0.6322  0.3812
   31MOL0     H 4158  -0.967  11.731   3.641  0.1494  0.0944 -0.3770
   31MOL0     H 4159  -0.912  11.868   3.464 -0.9896 -1.9061  0.2085
   31MOL0     H 4160  -1.077  11.908   3.530 -1.0237  4.9573  1.1602
   31MOL0     H 4161  -0.837  12.073   3.612 -0.8492  1.3741  1.5836
   31MOL0     H 4162  -1.022  12.093   3.627 -3.5422  0.0463 -3.5764
   31MOL0     H 4163  -0.865  12.084   3.370  1.3774 -0.1985  1.6712
   31MOL0     H 4164  -1.036  12.136   3.384  0.2926  2.5060 -1.3118
   31MOL0     H 4165  -0.963  11.336   3.547 -1.6132  2.7718 -1.5644
   31MOL0     H 4166  -1.026  11.195   3.350  1.0152 -2.1360 -1.9083
   31MOL0     H 4167  -1.222  10.967   3.046 -0.6974 -2.6340 -0.3416
   31MOL0     H 4168  -1.272  10.913   2.805  0.8096 -2.5667  0.1301
   31MOL0     H 4169   0.230  10.152   1.311 -1.0540  1.6020 -1.1228
   31MOL0     H 4170   0.435  10.282   1.186  2.6295  0.0647  0.4734
   31MOL0     H 4171   1.006  10.228   1.353  0.9977 -0.4684 -1.0689
   31MOL0     H 4172   1.211  10.299   1.280  1.5244  0.0934 -2.3880
   31MOL0     H 4173   1.187  10.665   1.023 -0.4400 -1.9129 -0.4347
   31MOL0     H 4174   1.340  10.616   0.959  1.0033  1.9979 -0.3003
   31MOL0     H 4175   1.381  10.810   1.080  1.0614 -0.2815 -0.6073
   31MOL0     H 4176   1.455  10.676   1.174 -1.3485 -1.7884  1.9076
   31MOL0     H 4177   1.242  10.659   1.325 -1.1057  0.5855 -1.0522
   31MOL0     H 4178   1.199  10.813   1.253 -0.6942 -1.4417  0.6247
   31MOL0     H 4179   1.388  10.750   1.455  1.0243  2.3918  1.5239
   31MOL0     H 4180   1.484  10.834   1.326  0.9066  0.5468  3.0653
   31MOL0     H 4181   1.293  11.159   1.461  0.9239  0.6887 -2.6642
   31MOL0     H 4182   1.007  10.590   1.042  1.6346  0.9151  2.0544
   31MOL0     H 4183   0.684  10.480   1.091  0.0702 -0.3222  0.6669
   31MOL0     H 4184   0.713  10.619   1.183 -4.0381  0.6893 -3.0831
   31MOL0     H 4185   0.783  10.609   1.018 -0.2025 -2.8490 -2.7831
   32MOL0     O 4186   7.224   4.167   5.039  0.7717  1.0523  0.4050
   32MOL0     C 4187   7.202   4.050   5.080  0.5000 -0.2053  1.2840
   32MOL0     O 4188   7.176   4.021   5.212  0.1580 -0.0086  0.2027
   32MOL0     C 4189   7.184   4.127   5.295 -0.3209  0.1269 -0.2572
   32MOL0     C 4190   7.072   4.213   5.304  0.0988 -0.1553 -0.3607
   32MOL0     C 4191   7.077   4.321   5.389  0.0303  0.1400  0.3417
   32MOL0     C 4192   7.182   4.354   5.466  0.2136 -0.3875 -0.9008
   32MOL0     O 4193   7.176   4.466   5.552  0.2768  0.3825  0.1623
   32MOL0     C 4194   7.256   4.466   5.673 -0.1717 -0.6695 -0.3051
   32MOL0     C 4195   7.264   4.611   5.713 -0.8124 -0.2707 -0.0013
   32MOL0     C 4196   7.136   4.690   5.727 -0.0021 -1.1959 -0.5707
   32MOL0     C 4197   7.026   4.629   5.815 -0.9390  0.7447 -0.2358
   32MOL0     C 4198   6.891   4.696   5.811 -0.7355 -0.4513  0.1714
   32MOL0     C 4199   6.892   4.830   5.898  0.5573 -0.1274  0.6381
   32MOL0     C 4200   6.754   4.834   5.967 -0.2580  0.0963  0.6211
   32MOL0     C 4201   6.712   4.978   5.989  0.0771 -0.2667  0.2788
   32MOL0     N 4202   6.615   4.996   6.093  0.7697  0.3814  0.2381
   32MOL0     C 4203   6.658   5.002   6.226  0.5678  0.0957  0.2079
   32MOL0     C 4204   6.548   4.956   6.290 -0.2087 -1.1119 -0.3594
   32MOL0     C 4205   6.523   4.949   6.444  0.6607 -0.0256 -0.5990
   32MOL0     C 4206   6.384   5.033   6.465  0.1413  0.3572 -0.2075
   32MOL0     C 4207   6.377   5.069   6.619  0.4929 -0.9162 -0.7157
   32MOL0     C 4208   6.280   5.168   6.673  0.0256 -0.5434 -0.5520
   32MOL0     O 4209   6.148   5.128   6.657 -0.2660  0.0607 -0.0900
   32MOL0     C 4210   6.060   5.211   6.713 -0.2192 -0.0252  0.1552
   32MOL0     C 4211   5.928   5.168   6.700  0.6114  0.8525  0.5048
   32MOL0     C 4212   5.821   5.246   6.739  0.1809 -0.5933 -0.3548
   32MOL0     C 4213   5.845   5.375   6.796  0.0244 -0.4530 -0.0592
   32MOL0     C 4214   5.725   5.450   6.834  0.2056 -1.1292 -1.0596
   32MOL0     O 4215   5.609   5.390   6.803  0.3454 -0.4984 -0.0993
   32MOL0     C 4216   5.491   5.449   6.837 -0.0233 -0.3659  0.9982
   32MOL0     C 4217   5.453   5.470   6.970  0.0591  0.4870 -0.5421
   32MOL0     C 4218   5.332   5.540   7.009 -0.2324  0.3456  0.3939
   32MOL0     C 4219   5.243   5.576   6.910 -0.7446 -0.7813 -0.0502
   32MOL0     O 4220   5.128   5.642   6.924 -0.3587 -0.8337  1.0148
   32MOL0     C 4221   5.057   5.633   7.048 -0.0450 -0.9252 -0.2789
   32MOL0     C 4222   5.076   5.753   7.149  0.2797  0.2886  0.2508
   32MOL0     C 4223   5.027   5.880   7.089 -0.7013  0.1217  0.6907
   32MOL0     C 4224   5.070   6.004   7.182 -0.3720  0.3714  1.3472
   32MOL0     C 4225   5.022   6.137   7.119  0.6724 -0.2905  0.2232
   32MOL0     C 4226   5.073   6.258   7.206 -0.4502  0.5822 -0.6883
   32MOL0     C 4227   5.196   6.315   7.166 -0.1693  0.1397  0.1931
   32MOL0     C 4228   5.228   6.433   7.254 -0.0005 -0.6806 -0.7665
   32MOL0    Cl 4229   5.294   6.374   7.408 -0.3060 -0.1139  0.4745
   32MOL0     C 4230   5.275   5.561   6.776 -0.2583 -0.6593  0.5273
   32MOL0     C 4231   5.396   5.496   6.741 -0.4268 -0.2124 -0.1909
   32MOL0     O 4232   5.734   5.558   6.889 -0.0651  0.4534  0.9517
   32MOL0     C 4233   5.974   5.427   6.823 -0.1986  1.1908  0.1820
   32MOL0     C 4234   6.072   5.336   6.783 -0.4701 -1.4650 -0.4293
   32MOL0     N 4235   6.445   4.927   6.202 -0.4578  0.1420  0.2699
   32MOL0     N 4236   6.486   4.954   6.086 -0.7838 -0.6948  0.3828
   32MOL0     C 4237   7.294   4.265   5.465  0.4807 -1.0384 -0.0024
   32MOL0     C 4238   7.292   4.159   5.375  0.4310  0.3908 -0.1133
   32MOL0     C 4239   7.214   3.933   4.990  0.0132 -0.2597  0.2549
   32MOL0     C 4240   7.226   3.810   5.034  0.5198  0.5907  0.7033
   32MOL0     C 4241   7.252   3.710   4.945 -0.6168  0.9074  0.2506
   32MOL0     C 4242   7.250   3.719   4.807  0.1589 -0.8990  0.7456
   32MOL0     O 4243   7.253   3.614   4.717 -0.5792 -0.1949 -0.2339
   32MOL0     C 4244   7.166   3.508   4.749 -0.5015 -0.2601  0.0363
   32MOL0     C 4245   7.154   3.427   4.622 -0.3081 -0.4168  1.0079
   32MOL0     C 4246   7.273   3.341   4.625 -0.2954 -0.4597  0.6624
   32MOL0     C 4247   7.319   3.275   4.488 -0.3893 -0.0351  0.5402
   32MOL0     C 4248   7.456   3.224   4.488  0.7604  0.2082 -1.0377
   32MOL0     C 4249   7.566   3.176   4.484 -0.0215 -0.1979 -0.8429
   32MOL0     C 4250   7.240   3.850   4.762  0.1840 -0.4541 -0.3962
   32MOL0     C 4251   7.215   3.960   4.848  0.1626 -0.4272  0.1671
   32MOL0     C 4252   7.191   4.089   4.774  0.1503  0.5314  0.8946
   32MOL0     H 4253   6.983   4.174   5.256  0.3843 -0.7007 -0.4555
   32MOL0     H 4254   6.989   4.384   5.399 -2.6218 -3.3903  1.7137
   32MOL0     H 4255   7.213   4.417   5.761  1.2763  0.8861  1.3386
   32MOL0     H 4256   7.359   4.430   5.663  0.5145  1.4994 -1.6012
   32MOL0     H 4257   7.323   4.654   5.633  0.2661 -1.0568  0.3524
   32MOL0     H 4258   7.325   4.622   5.803  0.7691 -1.1586 -0.9242
   32MOL0     H 4259   7.100   4.714   5.627  3.7083 -0.6217 -1.9292
   32MOL0     H 4260   7.166   4.783   5.776  2.1152 -2.9093  1.6835
   32MOL0     H 4261   7.020   4.526   5.779  2.7044  0.4193 -0.3125
   32MOL0     H 4262   7.066   4.632   5.916 -0.8860 -3.0489  0.0066
   32MOL0     H 4263   6.861   4.722   5.709  2.0657 -0.8409 -0.8469
   32MOL0     H 4264   6.830   4.613   5.847  1.7962 -2.4162  0.2516
   32MOL0     H 4265   6.981   4.837   5.961  0.6139  2.3968  0.3990
   32MOL0     H 4266   6.901   4.905   5.819  3.0830 -1.7785 -0.7565
   32MOL0     H 4267   6.750   4.786   6.066 -0.4270 -1.0669  0.0623
   32MOL0     H 4268   6.678   4.790   5.903  2.6782  0.9810 -3.9329
   32MOL0     H 4269   6.799   5.040   6.008 -0.9021  1.2912 -0.1380
   32MOL0     H 4270   6.665   5.017   5.899  0.1326 -2.3778 -0.7232
   32MOL0     H 4271   6.762   5.025   6.250  0.5424  3.2046 -2.0466
   32MOL0     H 4272   6.508   4.851   6.491 -2.6995  0.7245  0.1639
   32MOL0     H 4273   6.604   4.983   6.509 -0.0081 -2.1918  1.5182
   32MOL0     H 4274   6.375   5.124   6.404 -1.8035  0.5980  0.3726
   32MOL0     H 4275   6.294   4.983   6.429 -0.6816  0.5385  1.4691
   32MOL0     H 4276   6.473   5.112   6.647 -0.1635 -0.2653  0.6471
   32MOL0     H 4277   6.355   4.980   6.679  0.9129 -0.8387 -0.4464
   32MOL0     H 4278   6.294   5.266   6.626 -2.7581  0.5715  0.7474
   32MOL0     H 4279   6.298   5.177   6.781  1.3410 -0.1159 -0.7869
   32MOL0     H 4280   5.905   5.067   6.668  0.0144  0.6985  1.3856
   32MOL0     H 4281   5.727   5.205   6.703 -0.0427  1.9634 -3.0670
   32MOL0     H 4282   5.526   5.444   7.046 -0.5870  1.0557  0.3002
   32MOL0     H 4283   5.326   5.573   7.113 -0.1857 -0.7952  0.7742
   32MOL0     H 4284   4.952   5.630   7.018  0.3953  1.8858 -2.4850
   32MOL0     H 4285   5.083   5.541   7.102 -3.6076 -2.3160 -0.6236
   32MOL0     H 4286   5.021   5.740   7.243  0.9961  1.4624  0.8631
   32MOL0     H 4287   5.180   5.761   7.182  0.6408  1.4551 -1.1064
   32MOL0     H 4288   5.066   5.887   6.987  1.7608 -1.9997  1.3750
   32MOL0     H 4289   4.918   5.869   7.080 -0.5005 -2.8193  0.9659
   32MOL0     H 4290   5.179   6.007   7.187 -0.3764  0.2725  1.5013
   32MOL0     H 4291   5.036   5.999   7.285 -1.5972  3.9015  1.2594
   32MOL0     H 4292   4.914   6.143   7.107  0.9015  3.5851 -1.0257
   32MOL0     H 4293   5.053   6.148   7.015 -1.5398  1.8363 -0.2801
   32MOL0     H 4294   5.001   6.341   7.209 -1.4237 -0.2754  0.1416
   32MOL0     H 4295   5.089   6.225   7.308 -0.7878  1.4109 -0.3591
   32MOL0     H 4296   5.173   6.357   7.068  1.4827  1.4193  0.3057
   32MOL0     H 4297   5.269   6.235   7.167  0.7862  0.9718 -0.6954
   32MOL0     H 4298   5.299   6.497   7.200  1.9549 -1.5736  0.6301
   32MOL0     H 4299   5.140   6.495   7.272 -0.2289 -1.1997 -0.0563
   32MOL0     H 4300   5.211   5.589   6.693  1.6303  0.3194 -0.6632
   32MOL0     H 4301   5.420   5.471   6.638  0.4350  1.7152 -0.4888
   32MOL0     H 4302   6.002   5.529   6.847  0.0303  0.8693  1.3259
   32MOL0     H 4303   6.175   5.370   6.790  0.2380 -3.1155 -2.0579
   32MOL0     H 4304   7.382   4.283   5.526 -0.4256 -0.5207  1.1861
   32MOL0     H 4305   7.383   4.102   5.386 -1.8847 -3.5939  0.0862
   32MOL0     H 4306   7.246   3.789   5.139  1.2418  0.1534  0.4828
   32MOL0     H 4307   7.264   3.615   4.996 -1.8096  0.1136 -0.8889
   32MOL0     H 4308   7.068   3.542   4.785 -0.4974  3.1062 -2.6630
   32MOL0     H 4309   7.216   3.459   4.832  3.9814  2.1534 -0.9280
   32MOL0     H 4310   7.144   3.485   4.530  0.6480 -1.9474 -0.1073
   32MOL0     H 4311   7.074   3.353   4.621  1.5062 -2.4855 -0.5045
   32MOL0     H 4312   7.256   3.262   4.699 -0.2067 -0.9899  0.1253
   32MOL0     H 4313   7.358   3.397   4.662 -1.0191  0.8510  0.4034
   32MOL0     H 4314   7.250   3.194   4.462 -1.6753  1.5375 -1.2634
   32MOL0     H 4315   7.302   3.352   4.413 -1.9039 -0.1648  0.7039
   32MOL0     H 4316   7.669   3.146   4.474  1.0159  1.8106  2.2305
   32MOL0     H 4317   7.238   3.863   4.655  2.3458 -0.0889 -0.4487
   32MOL0     H 4318   7.144   4.061   4.679 -0.0327  0.9480  0.8647
   32MOL0     H 4319   7.112   4.140   4.828  0.2962 -0.5213  2.1450
   32MOL0     H 4320   7.288   4.139   4.762  0.2868  0.0451 -0.2010
   33MOL0     O 4321   5.221   2.301  10.485 -0.3005 -0.7168  0.0580
   33MOL0     C 4322   5.260   2.213  10.564 -0.2697 -0.4732 -0.3949
   33MOL0     O 4323   5.296   2.239  10.688 -0.3535 -0.3666 -0.5692
   33MOL0     C 4324   5.341   2.366  10.717  0.0900 -0.6654  0.0023
   33MOL0     C 4325   5.452   2.421  10.640 -0.0450  0.5839  0.1304
   33MOL0     C 4326   5.485   2.557  10.668 -0.4885 -0.3544 -0.3395
   33MOL0     C 4327   5.417   2.626  10.767 -0.0951  0.4479 -0.4219
   33MOL0     O 4328   5.463   2.754  10.788  0.6567 -0.3568 -0.1055
   33MOL0     C 4329   5.351   2.840  10.816 -0.2307  0.2486 -0.0850
   33MOL0     C 4330   5.406   2.983  10.809 -0.1207  0.4824  0.2633
   33MOL0     C 4331   5.485   3.028  10.929 -0.2959 -1.4285  0.7235
   33MOL0     C 4332   5.508   3.178  10.948 -0.4998  0.5319  0.4744
   33MOL0     C 4333   5.567   3.200  11.086  0.5717  0.8452 -0.2024
   33MOL0     C 4334   5.673   3.312  11.086 -0.1022  0.5092  0.3892
   33MOL0     C 4335   5.747   3.321  11.214  0.3025 -0.1536 -0.1009
   33MOL0     C 4336   5.882   3.397  11.189 -0.2363 -0.5225 -0.2861
   33MOL0     N 4337   5.875   3.539  11.145  0.5516  0.0506  0.0630
   33MOL0     C 4338   5.813   3.639  11.215  0.3076 -0.8689 -0.7884
   33MOL0     C 4339   5.843   3.753  11.143  0.0659  0.6602  0.2842
   33MOL0     C 4340   5.785   3.900  11.151 -0.7753  0.0149  0.4647
   33MOL0     C 4341   5.760   3.966  11.020 -0.0998 -0.5360  0.5534
   33MOL0     C 4342   5.677   4.094  11.032 -1.3552 -0.3007 -0.2878
   33MOL0     C 4343   5.750   4.221  11.100  0.8075  0.8734 -0.2828
   33MOL0     O 4344   5.654   4.320  11.102  0.2561 -0.0571 -0.0282
   33MOL0     C 4345   5.650   4.418  11.192  0.0974  0.6666 -0.2694
   33MOL0     C 4346   5.760   4.435  11.285  0.1405 -0.2101  0.6020
   33MOL0     C 4347   5.743   4.514  11.390 -1.1086 -0.0269 -0.4106
   33MOL0     C 4348   5.620   4.576  11.429 -0.6428  0.3126 -0.5655
   33MOL0     C 4349   5.600   4.655  11.565 -1.0081 -0.6729 -0.2330
   33MOL0     O 4350   5.555   4.784  11.554 -0.3752 -0.4421 -0.0236
   33MOL0     C 4351   5.540   4.865  11.658  0.3709  0.5154 -0.9088
   33MOL0     C 4352   5.642   4.885  11.759  0.3041  0.2428  0.3267
   33MOL0     C 4353   5.615   4.981  11.859 -0.4646 -0.1338 -0.3623
   33MOL0     C 4354   5.506   5.056  11.845 -0.2031 -0.1277  0.1172
   33MOL0     O 4355   5.486   5.152  11.938 -0.2627 -0.3767 -0.2403
   33MOL0     C 4356   5.413   5.117  12.064 -0.4993 -0.6866 -1.2945
   33MOL0     C 4357   5.423   5.230  12.167  0.2800  0.1692  0.5220
   33MOL0     C 4358   5.397   5.190  12.310  0.4413 -0.2334  0.4682
   33MOL0     C 4359   5.485   5.084  12.368  0.2980  0.0094 -0.2800
   33MOL0     C 4360   5.451   5.052  12.515 -0.1881 -0.5122  0.2292
   33MOL0     C 4361   5.336   4.963  12.516  0.4770 -0.0786  0.4749
   33MOL0     C 4362   5.314   4.920  12.663  0.7714  0.7740 -0.2693
   33MOL0     C 4363   5.174   4.855  12.693 -0.0936 -0.4215 -0.0092
   33MOL0    Cl 4364   5.055   4.987  12.664 -0.0929  0.2916  0.1388
   33MOL0     C 4365   5.408   5.034  11.753  0.1797 -0.2398  0.1766
   33MOL0     C 4366   5.427   4.934  11.654  1.2976 -0.2720 -0.0448
   33MOL0     O 4367   5.640   4.594  11.669  0.9782  0.1045  0.7654
   33MOL0     C 4368   5.522   4.567  11.330  0.2087  1.1472 -0.7244
   33MOL0     C 4369   5.529   4.489  11.217 -0.3602  0.7057  1.1834
   33MOL0     N 4370   5.920   3.714  11.035 -0.0387  0.3473 -0.5651
   33MOL0     N 4371   5.933   3.588  11.036  0.0783 -0.5370  0.4033
   33MOL0     C 4372   5.315   2.567  10.833  0.2514 -0.2513  0.4771
   33MOL0     C 4373   5.273   2.440  10.811 -0.2033  0.0881  0.3299
   33MOL0     C 4374   5.253   2.074  10.524 -1.0292  0.8375 -0.3233
   33MOL0     C 4375   5.232   1.984  10.632 -0.7488  0.7308 -0.7467
   33MOL0     C 4376   5.253   1.848  10.611 -0.3654 -0.7145  0.6648
   33MOL0     C 4377   5.301   1.796  10.484  0.0979 -0.8001 -0.6154
   33MOL0     O 4378   5.302   1.657  10.471 -0.0138 -0.6370 -0.3586
   33MOL0     C 4379   5.394   1.599  10.390 -0.8615  0.4622 -0.8376
   33MOL0     C 4380   5.509   1.543  10.484  0.7598  0.3518  0.4191
   33MOL0     C 4381   5.467   1.422  10.564 -0.1296  0.0794 -0.4087
   33MOL0     C 4382   5.593   1.368  10.627  0.6335 -0.3303 -0.1386
   33MOL0     C 4383   5.607   1.221  10.608 -0.9011 -0.1037  0.0829
   33MOL0     C 4384   5.607   1.104  10.596 -0.5458  0.1284 -0.7565
   33MOL0     C 4385   5.307   1.888  10.380  0.0541  0.6991 -1.2531
   33MOL0     C 4386   5.282   2.022  10.393 -0.3844 -1.2678  0.1848
   33MOL0     C 4387   5.330   2.109  10.274  0.1267 -0.1827 -0.2816
   33MOL0     H 4388   5.494   2.374  10.552 -0.3014  0.7115 -0.0628
   33MOL0     H 4389   5.544   2.588  10.582 -2.2300 -1.3361 -1.9908
   33MOL0     H 4390   5.277   2.840  10.736  1.7167  1.0760 -1.9805
   33MOL0     H 4391   5.302   2.828  10.913  1.3926 -4.4020  0.4013
   33MOL0     H 4392   5.313   3.040  10.806  0.0983  1.2963  3.7508
   33MOL0     H 4393   5.454   2.995  10.712 -2.7750  0.2806 -1.1579
   33MOL0     H 4394   5.580   2.973  10.928  0.8824  0.4820  1.3486
   33MOL0     H 4395   5.445   2.993  11.024 -1.0261 -0.1997  0.8885
   33MOL0     H 4396   5.565   3.228  10.869 -0.2677  2.1041  1.5838
   33MOL0     H 4397   5.410   3.227  10.947 -1.2876 -0.6568 -4.0626
   33MOL0     H 4398   5.488   3.225  11.157 -0.0826 -3.4468  0.8247
   33MOL0     H 4399   5.614   3.110  11.127 -0.7747  1.2123  2.3444
   33MOL0     H 4400   5.738   3.283  11.003 -0.8239  1.3485 -0.4982
   33MOL0     H 4401   5.634   3.412  11.066 -1.7315 -0.2184 -0.2685
   33MOL0     H 4402   5.779   3.217  11.229  0.3025 -0.3695 -1.4594
   33MOL0     H 4403   5.681   3.365  11.289 -2.0666 -0.9664 -1.5949
   33MOL0     H 4404   5.927   3.398  11.289 -0.7270  0.8306 -0.0581
   33MOL0     H 4405   5.942   3.344  11.115 -1.5869 -3.3194  0.4830
   33MOL0     H 4406   5.753   3.627  11.305 -0.7074 -2.2980 -1.6070
   33MOL0     H 4407   5.694   3.904  11.210 -0.8969 -0.0091  0.2811
   33MOL0     H 4408   5.862   3.957  11.205  2.2839 -3.5127  0.2670
   33MOL0     H 4409   5.850   3.992  10.964  0.1451 -1.6781  0.3837
   33MOL0     H 4410   5.697   3.906  10.954 -1.5532  1.6652 -0.1685
   33MOL0     H 4411   5.594   4.056  11.093 -2.7788  2.9287 -0.0437
   33MOL0     H 4412   5.643   4.133  10.936  1.2388 -0.6242 -1.4410
   33MOL0     H 4413   5.831   4.260  11.037 -0.2549  0.7331 -1.8142
   33MOL0     H 4414   5.788   4.208  11.201 -0.5121 -1.1420  0.0052
   33MOL0     H 4415   5.860   4.394  11.272  1.4773  3.3075 -1.9075
   33MOL0     H 4416   5.831   4.531  11.450 -0.4520 -0.7735 -1.1466
   33MOL0     H 4417   5.726   4.817  11.747 -0.9436 -1.4648  0.8588
   33MOL0     H 4418   5.681   4.996  11.944  2.3323 -0.6898 -2.2820
   33MOL0     H 4419   5.311   5.081  12.050  0.3427 -2.8884 -2.2563
   33MOL0     H 4420   5.466   5.033  12.109 -1.3503  0.2026  1.5823
   33MOL0     H 4421   5.522   5.277  12.161  0.0686  1.3417  3.8647
   33MOL0     H 4422   5.356   5.311  12.136  1.2494  0.3267 -1.2592
   33MOL0     H 4423   5.403   5.286  12.361  0.2609  1.3954 -2.3256
   33MOL0     H 4424   5.295   5.150  12.312 -0.2488  1.4294  3.2306
   33MOL0     H 4425   5.589   5.105  12.342  0.1230 -0.2825 -1.2990
   33MOL0     H 4426   5.472   4.989  12.315  0.3186 -0.9917  1.4280
   33MOL0     H 4427   5.446   5.142  12.578 -2.3577 -0.4278  0.0082
   33MOL0     H 4428   5.535   4.998  12.559  0.6491  2.8198  3.2851
   33MOL0     H 4429   5.256   5.017  12.466 -0.8332 -0.3665  2.1371
   33MOL0     H 4430   5.354   4.876  12.452 -1.0275 -0.8343  1.0216
   33MOL0     H 4431   5.333   5.008  12.726 -0.6726  1.3930 -0.6476
   33MOL0     H 4432   5.391   4.844  12.676 -1.3052 -1.1149  2.0686
   33MOL0     H 4433   5.157   4.776  12.619 -1.2034 -1.6087  1.4431
   33MOL0     H 4434   5.171   4.821  12.797 -1.8713  1.2607  0.5492
   33MOL0     H 4435   5.336   5.116  11.748 -1.2385 -1.4548 -0.0198
   33MOL0     H 4436   5.367   4.919  11.565  1.3950  2.5114 -0.6571
   33MOL0     H 4437   5.429   4.616  11.355  0.3631  0.4851  1.3391
   33MOL0     H 4438   5.436   4.456  11.170 -0.9894  0.5297  2.5124
   33MOL0     H 4439   5.270   2.620  10.917 -0.8157  0.5912 -0.5974
   33MOL0     H 4440   5.196   2.394  10.872 -1.9865  1.4582 -0.7882
   33MOL0     H 4441   5.193   2.014  10.729 -1.3021  0.6844 -0.9514
   33MOL0     H 4442   5.242   1.772  10.688  0.0008  0.1503  1.6039
   33MOL0     H 4443   5.426   1.668  10.311 -2.9511  0.2674 -1.9483
   33MOL0     H 4444   5.337   1.519  10.342  0.5470 -0.2619 -1.3397
   33MOL0     H 4445   5.545   1.623  10.549  3.0689  1.4942 -2.0581
   33MOL0     H 4446   5.597   1.521  10.424 -0.7829 -0.0954 -1.8172
   33MOL0     H 4447   5.420   1.350  10.497  0.8522 -1.0545  0.0807
   33MOL0     H 4448   5.390   1.444  10.638 -1.7210  1.1456 -2.3087
   33MOL0     H 4449   5.685   1.421  10.603 -0.2937  1.6827  0.5619
   33MOL0     H 4450   5.591   1.390  10.734  3.0904  0.9417 -0.2797
   33MOL0     H 4451   5.614   0.998  10.582  2.8041 -0.3001  2.6087
   33MOL0     H 4452   5.318   1.837  10.284 -1.9432 -0.9711 -0.6578
   33MOL0     H 4453   5.376   2.046  10.198  2.4964 -0.3578  1.2046
   33MOL0     H 4454   5.243   2.173  10.252 -0.3692 -0.7244  0.0598
   33MOL0     H 4455   5.406   2.172  10.321  1.7303 -2.0832 -0.2164
   34MOL0     O 4456   6.164   4.106   8.156  0.1719 -1.0578 -0.5939
   34MOL0     C 4457   6.112   4.205   8.112  0.1186  0.2074 -0.5087
   34MOL0     O 4458   6.145   4.332   8.155 -0.1861  0.0584  0.6361
   34MOL0     C 4459   6.207   4.343   8.279 -0.4106 -0.6884  0.1529
   34MOL0     C 4460   6.136   4.396   8.387 -0.1769  0.3250  0.1526
   34MOL0     C 4461   6.191   4.399   8.517  0.3065  0.6276  0.1138
   34MOL0     C 4462   6.329   4.367   8.544  0.8017  0.0916  0.9669
   34MOL0     O 4463   6.394   4.376   8.669 -0.0648 -0.0522  0.6089
   34MOL0     C 4464   6.344   4.475   8.761  0.0934 -0.2281  0.0691
   34MOL0     C 4465   6.410   4.474   8.904  0.3428 -0.2947 -1.0940
   34MOL0     C 4466   6.363   4.579   9.004  0.2761  0.1125 -0.6641
   34MOL0     C 4467   6.409   4.723   8.998  0.2979 -0.3451 -0.3006
   34MOL0     C 4468   6.382   4.800   9.122  0.5785  0.0745 -0.8471
   34MOL0     C 4469   6.400   4.953   9.109  0.4493 -0.9212 -1.3094
   34MOL0     C 4470   6.381   5.022   9.248 -0.3648  0.3882 -0.0961
   34MOL0     C 4471   6.326   5.165   9.239  0.4332 -0.8099  0.8807
   34MOL0     N 4472   6.321   5.234   9.372  0.2104 -0.4726 -0.8702
   34MOL0     C 4473   6.417   5.294   9.447 -1.9497 -0.0738  0.4245
   34MOL0     C 4474   6.357   5.301   9.570 -0.8598 -0.4588  1.0265
   34MOL0     C 4475   6.424   5.346   9.699 -0.1156  0.6091 -0.6269
   34MOL0     C 4476   6.398   5.488   9.741 -0.4418  0.3010 -0.1070
   34MOL0     C 4477   6.489   5.578   9.652  0.2474 -0.0417  0.0212
   34MOL0     C 4478   6.483   5.723   9.685  0.3413 -0.6226  0.4313
   34MOL0     O 4479   6.544   5.739   9.810  0.6988 -0.2140  0.7147
   34MOL0     C 4480   6.491   5.834   9.884 -0.1277 -0.0722 -0.2166
   34MOL0     C 4481   6.357   5.831   9.926  0.1366 -0.2688 -0.6031
   34MOL0     C 4482   6.292   5.930  10.003  0.7049 -0.6546 -0.1794
   34MOL0     C 4483   6.369   6.032  10.056 -0.5866 -0.1876 -0.4922
   34MOL0     C 4484   6.296   6.121  10.147  0.3568  0.5230  0.4484
   34MOL0     O 4485   6.175   6.078  10.208  0.3590  0.1427  0.2103
   34MOL0     C 4486   6.100   6.166  10.283 -0.8793  0.1766  0.9849
   34MOL0     C 4487   6.050   6.281  10.228 -0.0002 -0.3356 -0.4022
   34MOL0     C 4488   5.969   6.374  10.300 -0.1437 -0.9287 -0.3675
   34MOL0     C 4489   5.942   6.343  10.434  0.0964  0.5122 -0.2765
   34MOL0     O 4490   5.867   6.411  10.525  0.8943  0.5918 -0.4513
   34MOL0     C 4491   5.847   6.548  10.503 -0.3662  0.3838  0.0623
   34MOL0     C 4492   5.781   6.606  10.630 -0.2424  0.2306  0.0057
   34MOL0     C 4493   5.756   6.757  10.628 -0.0703 -0.4989 -0.1477
   34MOL0     C 4494   5.684   6.809  10.761 -0.5135 -0.0302 -0.0724
   34MOL0     C 4495   5.675   6.962  10.760  0.5971 -0.5803 -0.2554
   34MOL0     C 4496   5.605   6.999  10.890 -0.1570  1.2900  0.0895
   34MOL0     C 4497   5.599   7.150  10.896  0.0504 -0.3331  0.0867
   34MOL0     C 4498   5.482   7.200  10.993 -0.1234 -0.2795 -0.5950
   34MOL0    Cl 4499   5.499   7.103  11.152  0.9473  0.6948  0.2152
   34MOL0     C 4500   5.980   6.217  10.489 -0.5243  0.7071  0.8178
   34MOL0     C 4501   6.057   6.127  10.411 -0.2544  0.2592  0.3440
   34MOL0     O 4502   6.343   6.229  10.153  0.2452 -0.0926  0.7985
   34MOL0     C 4503   6.503   6.040  10.010 -0.0563  0.1088 -0.7276
   34MOL0     C 4504   6.569   5.943   9.926 -0.4412 -0.1684  0.0145
   34MOL0     N 4505   6.241   5.232   9.572  0.2923 -0.7671  1.3480
   34MOL0     N 4506   6.206   5.207   9.449 -0.7507 -0.1246  0.3774
   34MOL0     C 4507   6.395   4.318   8.430  0.2889  0.0689  0.8547
   34MOL0     C 4508   6.338   4.294   8.307 -0.1542  0.0132  0.7613
   34MOL0     C 4509   6.021   4.190   7.995  0.8571 -0.2279  0.4031
   34MOL0     C 4510   5.981   4.309   7.925  0.3551 -0.6148  1.6898
   34MOL0     C 4511   5.903   4.303   7.807 -0.8369 -0.6019  0.6475
   34MOL0     C 4512   5.871   4.179   7.747  0.0109  0.4135 -0.1373
   34MOL0     O 4513   5.797   4.163   7.638  0.4102 -0.0999  0.4744
   34MOL0     C 4514   5.718   4.264   7.585  0.8210  0.5973 -0.6237
   34MOL0     C 4515   5.618   4.212   7.473 -0.2230  0.1017  0.5142
   34MOL0     C 4516   5.504   4.128   7.517  0.1911  0.0889 -0.0897
   34MOL0     C 4517   5.426   4.060   7.407 -0.4936 -0.9268  0.8686
   34MOL0     C 4518   5.333   4.154   7.339  0.9834 -0.3268 -0.1186
   34MOL0     C 4519   5.263   4.242   7.282  0.6105  0.5740 -0.3279
   34MOL0     C 4520   5.903   4.060   7.818 -0.2134 -0.2905 -0.1566
   34MOL0     C 4521   5.978   4.064   7.941 -0.4380  0.1735 -0.2516
   34MOL0     C 4522   6.001   3.938   8.019 -0.1498  0.7677 -0.4346
   34MOL0     H 4523   6.038   4.441   8.371  0.9198  3.0178  0.3960
   34MOL0     H 4524   6.136   4.442   8.600 -2.2204 -0.3921 -0.9165
   34MOL0     H 4525   6.365   4.572   8.716 -3.0251 -0.0369 -1.2910
   34MOL0     H 4526   6.236   4.473   8.780  0.4354 -1.9552  2.1501
   34MOL0     H 4527   6.518   4.479   8.891  0.6749  0.0527  1.4158
   34MOL0     H 4528   6.406   4.380   8.959  3.1868  0.7890  1.2456
   34MOL0     H 4529   6.410   4.548   9.098  2.6408 -1.2985 -2.2279
   34MOL0     H 4530   6.254   4.570   9.005  0.2144  0.2876 -2.5409
   34MOL0     H 4531   6.517   4.726   8.985 -0.0095 -0.2528 -3.4975
   34MOL0     H 4532   6.359   4.777   8.917 -0.1809  1.1991  0.9592
   34MOL0     H 4533   6.279   4.787   9.158  1.4814  1.7147  2.7367
   34MOL0     H 4534   6.444   4.743   9.191 -3.4319 -4.3303 -0.3003
   34MOL0     H 4535   6.502   4.977   9.076  0.9966 -1.0620  0.1875
   34MOL0     H 4536   6.330   5.009   9.047  0.7028  1.1853  0.2026
   34MOL0     H 4537   6.481   5.045   9.285 -0.1260  0.1002 -0.5461
   34MOL0     H 4538   6.328   4.959   9.320  0.9593 -0.0394  0.5296
   34MOL0     H 4539   6.399   5.220   9.179 -0.7468 -0.1106  0.0308
   34MOL0     H 4540   6.232   5.173   9.183  1.8300  0.9346 -1.4602
   34MOL0     H 4541   6.506   5.341   9.407 -2.3090  1.1324  0.9994
   34MOL0     H 4542   6.377   5.286   9.777  0.4776  1.1263  0.1394
   34MOL0     H 4543   6.531   5.324   9.703 -0.1957  0.0439 -1.3551
   34MOL0     H 4544   6.292   5.499   9.716 -1.5142 -1.4315  3.0948
   34MOL0     H 4545   6.416   5.518   9.844  2.1451 -0.5589 -0.2360
   34MOL0     H 4546   6.476   5.556   9.546 -0.0709 -3.1617  0.6362
   34MOL0     H 4547   6.593   5.550   9.673 -0.2958 -1.8540  0.4561
   34MOL0     H 4548   6.379   5.755   9.681  0.3317 -0.8200 -2.0950
   34MOL0     H 4549   6.541   5.783   9.615  1.3885 -1.4612  0.5491
   34MOL0     H 4550   6.293   5.747   9.902 -0.1438 -0.4046  0.5611
   34MOL0     H 4551   6.188   5.914  10.029  1.3418 -2.3207  1.5960
   34MOL0     H 4552   6.065   6.303  10.123 -1.7458  0.6030 -0.5066
   34MOL0     H 4553   5.942   6.473  10.263  3.9212 -0.0917 -1.5935
   34MOL0     H 4554   5.939   6.603  10.481 -1.2032  1.3950 -1.0309
   34MOL0     H 4555   5.787   6.557  10.412  0.0248  0.5799 -0.1804
   34MOL0     H 4556   5.684   6.560  10.647 -1.1331  2.2328  0.6424
   34MOL0     H 4557   5.848   6.589  10.715  0.4651  0.9531 -0.3960
   34MOL0     H 4558   5.851   6.805  10.605 -0.7658 -0.2742 -2.9544
   34MOL0     H 4559   5.695   6.785  10.541 -0.4928 -1.4171 -0.1667
   34MOL0     H 4560   5.741   6.791  10.853  0.0544 -1.4186 -0.6620
   34MOL0     H 4561   5.581   6.771  10.753  0.0030 -1.5340  0.0284
   34MOL0     H 4562   5.633   7.017  10.675 -0.2626  0.4635  0.8139
   34MOL0     H 4563   5.778   7.001  10.764 -0.1963  1.5514  1.3998
   34MOL0     H 4564   5.504   6.958  10.896 -1.0434  2.9671 -2.0546
   34MOL0     H 4565   5.659   6.970  10.980  0.7626  1.6690 -0.3300
   34MOL0     H 4566   5.568   7.192  10.799 -1.7335 -1.8641 -0.0451
   34MOL0     H 4567   5.696   7.197  10.917 -1.0738  2.7160 -0.8596
   34MOL0     H 4568   5.485   7.309  10.999 -0.9826 -0.3070  0.5032
   34MOL0     H 4569   5.385   7.172  10.950 -0.5946  0.6939 -0.1983
   34MOL0     H 4570   5.945   6.176  10.583  1.0039  3.0483  2.5157
   34MOL0     H 4571   6.081   6.031  10.455  0.3357 -0.4946 -1.5638
   34MOL0     H 4572   6.553   6.134  10.032 -0.6798  0.0286  1.2773
   34MOL0     H 4573   6.675   5.950   9.907 -0.6488 -0.0017 -1.1848
   34MOL0     H 4574   6.495   4.287   8.460  0.6333 -0.2471 -0.5344
   34MOL0     H 4575   6.403   4.250   8.232 -0.3081 -1.0897  1.2545
   34MOL0     H 4576   6.007   4.408   7.961  0.2871  0.5669 -1.2201
   34MOL0     H 4577   5.870   4.396   7.762  0.0028 -0.6200 -0.0412
   34MOL0     H 4578   5.788   4.337   7.542 -0.2250  3.0095  1.5120
   34MOL0     H 4579   5.663   4.309   7.668  3.9496 -0.9937  2.6440
   34MOL0     H 4580   5.668   4.159   7.392  0.5830 -0.0777  1.1202
   34MOL0     H 4581   5.582   4.304   7.425 -1.4194 -0.4502  0.3081
   34MOL0     H 4582   5.440   4.191   7.581  0.3394  1.5855 -1.3735
   34MOL0     H 4583   5.546   4.056   7.588 -0.2398  0.4750  0.5743
   34MOL0     H 4584   5.492   4.032   7.324  0.5613  4.4583 -0.4676
   34MOL0     H 4585   5.358   3.984   7.447  0.8063 -2.5262  0.1230
   34MOL0     H 4586   5.189   4.304   7.236  1.1781 -0.3802 -2.6498
   34MOL0     H 4587   5.863   3.962   7.797 -0.4813 -0.4511  1.0178
   34MOL0     H 4588   6.104   3.902   8.019  0.2679  1.9318 -0.0931
   34MOL0     H 4589   5.964   3.956   8.121 -2.5334 -2.6384 -0.5382
   34MOL0     H 4590   5.941   3.861   7.970  3.2991 -1.5445 -1.3568
   35MOL0     O 4591  10.893   0.760   1.526  0.3225  0.0463  0.3363
   35MOL0     C 4592  10.788   0.820   1.531  0.1646  0.2589  0.9486
   35MOL0     O 4593  10.764   0.951   1.561  0.1965  0.1860 -0.0775
   35MOL0     C 4594  10.867   1.041   1.538 -0.1276 -0.5479  0.8786
   35MOL0     C 4595  10.842   1.125   1.427  0.6848  0.1513 -0.0929
   35MOL0     C 4596  10.934   1.228   1.391  0.3158 -0.2367 -0.3100
   35MOL0     C 4597  11.050   1.256   1.470  0.2736  0.5841  1.4196
   35MOL0     O 4598  11.139   1.350   1.436  0.0515 -0.3172  1.0916
   35MOL0     C 4599  11.271   1.297   1.417  0.4082 -0.3087  0.1760
   35MOL0     C 4600  11.359   1.403   1.348 -0.3920 -0.1441  0.5872
   35MOL0     C 4601  11.368   1.536   1.410  0.6821 -0.7122 -0.6940
   35MOL0     C 4602  11.478   1.617   1.335  0.1984  0.5346  0.4961
   35MOL0     C 4603  11.470   1.763   1.359  0.4060 -0.5534 -0.0028
   35MOL0     C 4604  11.608   1.830   1.338  0.1455  1.0086 -1.7124
   35MOL0     C 4605  11.635   1.859   1.193 -0.1550  0.5609 -0.5401
   35MOL0     C 4606  11.778   1.900   1.162 -0.7047  0.1911 -0.2313
   35MOL0     N 4607  11.822   2.024   1.231 -0.2623  0.0084  0.7717
   35MOL0     C 4608  11.758   2.152   1.242  0.2075 -0.6630 -0.6643
   35MOL0     C 4609  11.840   2.230   1.315  1.3415  0.1709  0.0052
   35MOL0     C 4610  11.820   2.378   1.337  0.0495 -0.7485 -0.5454
   35MOL0     C 4611  11.808   2.420   1.478 -0.3740 -0.5872 -0.7870
   35MOL0     C 4612  11.834   2.569   1.500  1.0194  0.4451  0.0762
   35MOL0     C 4613  11.728   2.671   1.443 -0.3323 -0.0025 -0.5614
   35MOL0     O 4614  11.598   2.650   1.502  0.0439  0.6404  0.2088
   35MOL0     C 4615  11.484   2.729   1.467 -0.6919  0.2650  0.8734
   35MOL0     C 4616  11.363   2.666   1.472  0.3958 -0.2013 -0.2020
   35MOL0     C 4617  11.261   2.731   1.426  1.1616  0.1766  0.0443
   35MOL0     C 4618  11.258   2.857   1.359 -0.3233  0.4522  0.1727
   35MOL0     C 4619  11.131   2.914   1.295  0.7836  0.1788 -0.4588
   35MOL0     O 4620  11.028   2.830   1.272 -0.0586 -0.0042 -0.3841
   35MOL0     C 4621  10.915   2.882   1.213 -0.0012  0.2563  0.3028
   35MOL0     C 4622  10.907   2.887   1.073 -0.6206  0.1280 -0.1363
   35MOL0     C 4623  10.815   2.964   1.006 -0.4269  0.4097 -0.0547
   35MOL0     C 4624  10.721   3.032   1.079 -0.1909 -0.3053 -0.1867
   35MOL0     O 4625  10.631   3.111   1.009 -0.3241  0.4184 -0.5141
   35MOL0     C 4626  10.656   3.251   1.039  0.1301  0.6005  0.1571
   35MOL0     C 4627  10.650   3.334   0.903  0.3296 -0.0339  0.5546
   35MOL0     C 4628  10.507   3.377   0.851 -0.5159  0.4369  0.0287
   35MOL0     C 4629  10.522   3.476   0.738 -0.5720  0.6091 -0.5707
   35MOL0     C 4630  10.383   3.544   0.704 -0.6328 -0.6958 -0.4225
   35MOL0     C 4631  10.409   3.662   0.612 -0.3084 -1.1631  0.1487
   35MOL0     C 4632  10.407   3.624   0.467 -0.2357  0.9729 -0.3323
   35MOL0     C 4633  10.395   3.751   0.380 -0.2307  0.4867 -0.4566
   35MOL0    Cl 4634  10.396   3.700   0.211 -0.3517  0.0553  0.0476
   35MOL0     C 4635  10.720   3.011   1.224  0.3413  1.2976 -0.5020
   35MOL0     C 4636  10.810   2.926   1.287 -0.6917 -0.7530  0.4842
   35MOL0     O 4637  11.134   3.027   1.249  0.1716  0.4134  0.2377
   35MOL0     C 4638  11.377   2.933   1.364  0.3966  0.5841 -0.6116
   35MOL0     C 4639  11.489   2.865   1.413 -0.9711  1.1160 -0.5817
   35MOL0     N 4640  11.932   2.144   1.357  0.0100 -0.1037  0.6559
   35MOL0     N 4641  11.926   2.031   1.310 -1.2335  0.4748 -0.3853
   35MOL0     C 4642  11.067   1.171   1.584  0.3072 -0.4081  0.0019
   35MOL0     C 4643  10.982   1.062   1.615 -0.4559 -0.9656  0.1917
   35MOL0     C 4644  10.666   0.749   1.484  0.8715  0.2429 -0.6852
   35MOL0     C 4645  10.558   0.829   1.449 -0.7389  0.2686  0.0582
   35MOL0     C 4646  10.449   0.774   1.379 -0.4812  0.4392  0.0900
   35MOL0     C 4647  10.432   0.636   1.370 -0.4607  0.3116 -0.4998
   35MOL0     O 4648  10.317   0.577   1.322  0.4715 -0.0824  0.2093
   35MOL0     C 4649  10.195   0.655   1.312 -0.3719  0.6434 -0.5147
   35MOL0     C 4650  10.092   0.542   1.311 -0.5998 -0.5946  0.5449
   35MOL0     C 4651  10.086   0.463   1.441  0.1215 -0.6467 -0.0162
   35MOL0     C 4652   9.956   0.380   1.430 -0.8169 -1.4993  0.2466
   35MOL0     C 4653   9.830   0.447   1.418 -0.6717 -0.4536 -0.2046
   35MOL0     C 4654   9.732   0.520   1.433  0.1374  1.2181 -0.2676
   35MOL0     C 4655  10.522   0.553   1.429 -0.2188 -0.4663 -0.5311
   35MOL0     C 4656  10.647   0.605   1.478  0.2051  0.7343 -0.2405
   35MOL0     C 4657  10.757   0.514   1.522 -0.3849 -0.0097 -0.2192
   35MOL0     H 4658  10.749   1.115   1.372  0.0862  0.1995  0.8836
   35MOL0     H 4659  10.920   1.291   1.304  0.4984  0.3376  0.0774
   35MOL0     H 4660  11.315   1.279   1.516  1.6280  3.0968  0.3862
   35MOL0     H 4661  11.265   1.205   1.358 -0.3254 -0.0686 -0.1321
   35MOL0     H 4662  11.332   1.407   1.242  1.0392 -0.8501  0.1678
   35MOL0     H 4663  11.461   1.364   1.357 -0.1087 -0.4028 -2.4977
   35MOL0     H 4664  11.397   1.535   1.515 -1.1668  2.2485 -0.0614
   35MOL0     H 4665  11.277   1.596   1.405  0.8802 -0.0767  1.9128
   35MOL0     H 4666  11.576   1.585   1.369  0.9361  1.8546 -0.2808
   35MOL0     H 4667  11.467   1.606   1.226  0.2078  2.1522  0.2996
   35MOL0     H 4668  11.403   1.806   1.284  0.9662 -2.7505 -1.9054
   35MOL0     H 4669  11.438   1.794   1.458  0.3461  4.0361 -1.2514
   35MOL0     H 4670  11.602   1.918   1.403  2.7595 -0.0371  0.1465
   35MOL0     H 4671  11.691   1.771   1.380 -0.2214  0.4415 -1.7795
   35MOL0     H 4672  11.584   1.953   1.171 -0.1071  0.0474 -3.1383
   35MOL0     H 4673  11.590   1.786   1.125 -0.8280  1.5789 -1.2123
   35MOL0     H 4674  11.858   1.827   1.180 -0.6862  0.0063 -1.0033
   35MOL0     H 4675  11.777   1.905   1.052 -1.3290 -0.0890 -0.2417
   35MOL0     H 4676  11.667   2.191   1.196  0.6116  0.4524 -0.5633
   35MOL0     H 4677  11.920   2.412   1.311 -0.8698  2.2969 -0.5078
   35MOL0     H 4678  11.744   2.418   1.269  1.0298 -0.2319 -1.3651
   35MOL0     H 4679  11.709   2.413   1.522  0.0075  2.2699  0.8321
   35MOL0     H 4680  11.874   2.359   1.541  0.1278 -0.0419 -0.7738
   35MOL0     H 4681  11.931   2.613   1.475 -0.5858  2.8607 -2.4950
   35MOL0     H 4682  11.821   2.571   1.608  0.7643 -2.0774  0.1604
   35MOL0     H 4683  11.718   2.646   1.337 -3.7172  0.0787 -0.3524
   35MOL0     H 4684  11.760   2.775   1.453  0.4271 -0.1882 -1.0134
   35MOL0     H 4685  11.379   2.563   1.503  2.1716  1.0075  3.6317
   35MOL0     H 4686  11.171   2.671   1.431 -0.4477  2.5576  1.7914
   35MOL0     H 4687  10.980   2.822   1.027  0.7070  0.8653  0.8455
   35MOL0     H 4688  10.804   2.961   0.898 -1.9981 -2.5095  0.0926
   35MOL0     H 4689  10.577   3.288   1.105  0.3759 -2.5141  2.4023
   35MOL0     H 4690  10.756   3.260   1.082  0.2545  0.3233 -0.0684
   35MOL0     H 4691  10.700   3.427   0.932 -1.6524  0.2787  3.4187
   35MOL0     H 4692  10.702   3.283   0.822 -1.8266 -0.8477 -0.3826
   35MOL0     H 4693  10.454   3.288   0.815  3.4691 -1.7933 -0.9778
   35MOL0     H 4694  10.458   3.418   0.940  2.0187  0.7916  1.3631
   35MOL0     H 4695  10.569   3.436   0.648  2.6556  0.6779  0.9526
   35MOL0     H 4696  10.579   3.559   0.781  0.2878 -0.3363  0.1734
   35MOL0     H 4697  10.337   3.595   0.788  0.6644  1.7923 -1.1401
   35MOL0     H 4698  10.312   3.475   0.657 -0.3164  0.7190 -3.2224
   35MOL0     H 4699  10.338   3.741   0.638  1.2927  0.7250 -0.9239
   35MOL0     H 4700  10.509   3.708   0.606 -1.1101  0.5056 -1.0322
   35MOL0     H 4701  10.328   3.558   0.431  1.0685  0.3192 -2.1453
   35MOL0     H 4702  10.502   3.576   0.444  0.9363  1.8031  2.4212
   35MOL0     H 4703  10.294   3.789   0.400 -0.0665  0.2421  0.9167
   35MOL0     H 4704  10.474   3.826   0.394  0.4980 -0.4070  0.3652
   35MOL0     H 4705  10.642   3.057   1.283  0.7298  1.9148 -0.4569
   35MOL0     H 4706  10.810   2.898   1.392  2.2357 -0.0437  0.7599
   35MOL0     H 4707  11.372   3.032   1.318 -1.3588  0.6616 -0.3267
   35MOL0     H 4708  11.582   2.921   1.418 -0.6477  0.5642 -0.2828
   35MOL0     H 4709  11.145   1.196   1.655  0.8141 -0.1199 -0.6576
   35MOL0     H 4710  11.011   1.010   1.706  2.4087  1.0257  0.5321
   35MOL0     H 4711  10.557   0.937   1.458 -0.8371  0.2492  0.2850
   35MOL0     H 4712  10.371   0.838   1.337 -3.1360 -2.4050  0.3557
   35MOL0     H 4713  10.184   0.715   1.221  0.7993  1.3300 -0.2180
   35MOL0     H 4714  10.184   0.712   1.404 -1.4519 -0.7163  0.2377
   35MOL0     H 4715  10.116   0.476   1.227  0.9199  0.7987 -0.1881
   35MOL0     H 4716   9.996   0.592   1.294 -1.1170 -0.5025  3.3062
   35MOL0     H 4717  10.103   0.534   1.523  1.5196  2.5423 -2.8078
   35MOL0     H 4718  10.168   0.390   1.437  0.2134 -0.5038 -1.1666
   35MOL0     H 4719   9.960   0.312   1.344  0.0885 -1.9516  0.6341
   35MOL0     H 4720   9.954   0.314   1.518 -0.9235 -1.4602  0.2740
   35MOL0     H 4721   9.646   0.583   1.440 -0.1831  0.7622 -0.0089
   35MOL0     H 4722  10.496   0.448   1.425 -0.6195 -0.3756 -0.3940
   35MOL0     H 4723  10.843   0.526   1.456 -0.9855  3.9796 -0.4919
   35MOL0     H 4724  10.793   0.534   1.623 -2.0093  0.9667  0.2034
   35MOL0     H 4725  10.716   0.412   1.517 -1.2590  0.2717  0.8657
   36MOL0     O 4726   8.128  11.465   4.466  0.1382  0.3405 -0.3762
   36MOL0     C 4727   8.190  11.359   4.472 -0.0049 -0.5121  0.3135
   36MOL0     O 4728   8.192  11.281   4.585  0.5304  0.8926  0.8246
   36MOL0     C 4729   8.134  11.327   4.701  0.0404  0.3873  0.8603
   36MOL0     C 4730   8.217  11.396   4.786  0.2498 -0.7273  0.8427
   36MOL0     C 4731   8.167  11.436   4.913  0.5876  0.4201  0.3209
   36MOL0     C 4732   8.030  11.437   4.940 -0.0776 -0.2753 -0.4987
   36MOL0     O 4733   7.976  11.507   5.042  0.6860 -0.1234  0.0033
   36MOL0     C 4734   8.056  11.551   5.150  0.0212 -0.6099  0.0737
   36MOL0     C 4735   8.000  11.668   5.232  0.3166  0.8342 -0.2233
   36MOL0     C 4736   8.074  11.675   5.366 -0.4221 -0.9084 -0.9198
   36MOL0     C 4737   8.016  11.773   5.471 -0.6848  0.5706  0.4544
   36MOL0     C 4738   8.109  11.782   5.593 -0.2164 -0.2420  0.4505
   36MOL0     C 4739   8.062  11.880   5.695 -0.2036 -0.2788 -0.3558
   36MOL0     C 4740   8.165  11.903   5.815  0.4264  0.0195 -0.5515
   36MOL0     C 4741   8.270  12.012   5.804  0.1637  0.1230 -0.3486
   36MOL0     N 4742   8.377  12.008   5.902 -0.9014  0.8877  0.4609
   36MOL0     C 4743   8.494  11.949   5.879 -0.1262  0.7510  0.4227
   36MOL0     C 4744   8.556  11.965   6.001 -0.1585  0.3183 -1.3287
   36MOL0     C 4745   8.681  11.889   6.045 -0.0473  0.5083 -0.7725
   36MOL0     C 4746   8.701  11.886   6.194 -0.5897  0.1424  0.4544
   36MOL0     C 4747   8.830  11.811   6.229 -0.5076 -0.3631  0.1441
   36MOL0     C 4748   8.858  11.787   6.373  0.2243  0.5348 -0.3309
   36MOL0     O 4749   8.957  11.679   6.384  0.1319 -0.2362 -0.1942
   36MOL0     C 4750   8.926  11.545   6.403 -0.1231 -0.7657  0.4808
   36MOL0     C 4751   8.802  11.487   6.414 -0.6714  0.0070 -0.7007
   36MOL0     C 4752   8.784  11.352   6.415 -0.2479  0.6250  0.0432
   36MOL0     C 4753   8.890  11.260   6.423  0.0397  0.0479 -1.1348
   36MOL0     C 4754   8.866  11.120   6.414 -1.4457  0.7310 -0.0257
   36MOL0     O 4755   8.975  11.043   6.366  0.2209 -0.0732 -0.0555
   36MOL0     C 4756   8.952  10.906   6.359 -0.0203 -0.6867  0.1207
   36MOL0     C 4757   8.842  10.853   6.296  0.4184  0.4626 -0.7061
   36MOL0     C 4758   8.814  10.714   6.302 -0.2407 -0.0946 -0.5047
   36MOL0     C 4759   8.886  10.629   6.382 -0.5749 -0.2773  0.1017
   36MOL0     O 4760   8.857  10.504   6.407  0.2194 -0.6091  0.2379
   36MOL0     C 4761   8.744  10.449   6.342  0.2014 -0.5193 -0.4165
   36MOL0     C 4762   8.721  10.307   6.412 -0.7240 -0.7334  0.3196
   36MOL0     C 4763   8.620  10.222   6.325 -1.7787 -0.1716  0.1194
   36MOL0     C 4764   8.584  10.101   6.405  0.7185  0.6625 -1.2421
   36MOL0     C 4765   8.490  10.009   6.321 -0.8784 -1.1392 -0.2787
   36MOL0     C 4766   8.452   9.891   6.413 -0.3478  0.6703 -0.1007
   36MOL0     C 4767   8.560   9.809   6.472  0.5514 -0.3573 -1.1018
   36MOL0     C 4768   8.664   9.752   6.372  0.8633  0.2127 -0.1058
   36MOL0    Cl 4769   8.609   9.607   6.277  0.1425 -0.1761  0.3774
   36MOL0     C 4770   9.005  10.688   6.440  0.5220  0.5822 -0.5823
   36MOL0     C 4771   9.038  10.824   6.432 -0.2947 -0.4812  0.0066
   36MOL0     O 4772   8.760  11.082   6.446  0.6818  0.4879 -0.4955
   36MOL0     C 4773   9.017  11.319   6.416 -0.7975  0.3526 -0.0533
   36MOL0     C 4774   9.041  11.461   6.407  0.5478  0.4175 -0.0565
   36MOL0     N 4775   8.476  12.042   6.083 -0.1885  1.0389 -0.5464
   36MOL0     N 4776   8.365  12.071   6.021 -0.2932  0.4174 -0.1100
   36MOL0     C 4777   7.947  11.363   4.846 -0.0254  0.2126 -0.3108
   36MOL0     C 4778   8.004  11.296   4.734  0.3685  0.4049  0.1657
   36MOL0     C 4779   8.282  11.313   4.361 -0.5085 -0.2229  0.5963
   36MOL0     C 4780   8.384  11.217   4.392  0.3336  0.1602  0.6893
   36MOL0     C 4781   8.462  11.166   4.298 -0.6447  0.8618 -0.9290
   36MOL0     C 4782   8.462  11.226   4.166 -0.0851  0.0452 -0.2224
   36MOL0     O 4783   8.553  11.164   4.082  0.6602  0.3178 -0.1320
   36MOL0     C 4784   8.562  11.218   3.951  0.3158  1.4486 -0.1703
   36MOL0     C 4785   8.650  11.130   3.864  0.0732  0.4799 -0.1495
   36MOL0     C 4786   8.777  11.088   3.929 -0.2134 -0.0773  0.0043
   36MOL0     C 4787   8.853  11.012   3.821  0.3081 -0.2124  0.0234
   36MOL0     C 4788   8.986  10.969   3.866  0.7004 -0.4386  0.4110
   36MOL0     C 4789   9.101  10.940   3.903  0.5018 -1.6232  0.7037
   36MOL0     C 4790   8.366  11.322   4.136 -0.6083 -0.1054  0.2277
   36MOL0     C 4791   8.281  11.364   4.226  0.2991 -0.4500 -0.5803
   36MOL0     C 4792   8.187  11.479   4.187  0.0544  0.1788  0.5581
   36MOL0     H 4793   8.317  11.410   4.747 -1.2505  0.7842 -3.0060
   36MOL0     H 4794   8.230  11.510   4.962  0.7111  1.8481 -1.8466
   36MOL0     H 4795   8.056  11.462   5.214 -2.0380 -1.3134 -0.8187
   36MOL0     H 4796   8.159  11.581   5.126  0.0758 -2.3336 -2.2270
   36MOL0     H 4797   7.894  11.653   5.254 -0.3553 -0.7302 -3.7518
   36MOL0     H 4798   8.011  11.763   5.178 -0.7553  2.1691  1.7803
   36MOL0     H 4799   8.180  11.697   5.348 -0.6497  0.5535 -0.6121
   36MOL0     H 4800   8.065  11.575   5.409  0.5407 -1.2071 -1.3782
   36MOL0     H 4801   8.011  11.871   5.421  4.7463 -0.3688 -2.7428
   36MOL0     H 4802   7.920  11.732   5.504 -0.6967  2.0020  2.3291
   36MOL0     H 4803   8.107  11.686   5.644 -1.4367 -0.1573  0.5986
   36MOL0     H 4804   8.210  11.803   5.558  0.7288 -1.3265  2.3888
   36MOL0     H 4805   8.029  11.979   5.660 -0.9709  0.6911  2.8325
   36MOL0     H 4806   7.968  11.840   5.734 -1.7354  2.5972 -0.7660
   36MOL0     H 4807   8.217  11.809   5.837  3.0266  0.2181 -4.8341
   36MOL0     H 4808   8.110  11.922   5.908  1.5735  1.6738 -0.1555
   36MOL0     H 4809   8.305  12.013   5.700 -1.4995  0.5695 -0.9516
   36MOL0     H 4810   8.220  12.108   5.820 -0.5536 -0.0545 -1.4372
   36MOL0     H 4811   8.537  11.891   5.798 -0.6473 -1.5792  1.7209
   36MOL0     H 4812   8.668  11.790   6.000 -3.1541  0.3411  0.2106
   36MOL0     H 4813   8.762  11.943   5.997 -1.0133  2.0641 -0.7319
   36MOL0     H 4814   8.717  11.989   6.226 -0.7856  0.5840 -0.8220
   36MOL0     H 4815   8.615  11.832   6.236 -0.6425 -0.3345 -0.2409
   36MOL0     H 4816   8.909  11.879   6.196 -2.8222  1.9755 -0.9223
   36MOL0     H 4817   8.837  11.713   6.180 -0.3241 -0.4165  0.2748
   36MOL0     H 4818   8.760  11.765   6.417 -0.5592  0.2811 -2.0804
   36MOL0     H 4819   8.893  11.880   6.417  2.1534 -0.1531 -0.3361
   36MOL0     H 4820   8.718  11.555   6.408 -0.2531  0.3982 -2.6645
   36MOL0     H 4821   8.693  11.294   6.425  1.9128 -2.5856  4.5699
   36MOL0     H 4822   8.780  10.922   6.241  2.2451  2.5023 -0.3255
   36MOL0     H 4823   8.723  10.680   6.253 -2.0950  1.4814  1.6279
   36MOL0     H 4824   8.651  10.503   6.362  1.8363  2.0641  0.6891
   36MOL0     H 4825   8.748  10.440   6.234 -1.9899  0.3754 -0.6250
   36MOL0     H 4826   8.812  10.246   6.417 -0.5000 -0.5513 -1.0532
   36MOL0     H 4827   8.688  10.325   6.515  1.0434  3.0286  0.3950
   36MOL0     H 4828   8.540  10.284   6.281  0.4596  1.6655 -1.6603
   36MOL0     H 4829   8.673  10.185   6.237 -2.2083  0.3247 -0.3631
   36MOL0     H 4830   8.534  10.145   6.491  0.0923  0.1531 -1.3377
   36MOL0     H 4831   8.678  10.052   6.432  0.5646  1.2874  0.5229
   36MOL0     H 4832   8.538   9.978   6.228 -0.5405 -0.6549 -0.2702
   36MOL0     H 4833   8.403  10.071   6.301  0.9339  1.9668  0.7017
   36MOL0     H 4834   8.405   9.925   6.505 -2.4016 -2.7757  0.2955
   36MOL0     H 4835   8.384   9.822   6.363  0.1499 -3.2026  3.9703
   36MOL0     H 4836   8.519   9.730   6.536  0.6785  2.5416  2.9020
   36MOL0     H 4837   8.619   9.861   6.548 -0.4793 -0.9198  0.1370
   36MOL0     H 4838   8.711   9.831   6.312  2.8318  1.2028  2.5771
   36MOL0     H 4839   8.744   9.710   6.433  0.3311 -0.6442  0.0140
   36MOL0     H 4840   9.062  10.622   6.506 -0.0819  1.1664  0.5603
   36MOL0     H 4841   9.133  10.858   6.473 -0.9697  0.0649  1.1411
   36MOL0     H 4842   9.097  11.246   6.412 -0.2160  0.8682  1.6755
   36MOL0     H 4843   9.141  11.501   6.400  1.3574 -1.7117 -1.8088
   36MOL0     H 4844   7.844  11.345   4.873  0.3197 -4.3980 -1.2786
   36MOL0     H 4845   7.960  11.228   4.662 -0.3980  2.4785 -1.4189
   36MOL0     H 4846   8.400  11.181   4.493  2.0191 -0.8376  0.0951
   36MOL0     H 4847   8.535  11.091   4.328 -0.3741  2.0122  1.5465
   36MOL0     H 4848   8.608  11.317   3.955 -0.9156  2.2333 -3.1680
   36MOL0     H 4849   8.463  11.218   3.905  0.3826  0.9929 -0.3115
   36MOL0     H 4850   8.676  11.190   3.776  2.2597 -1.9213 -1.2830
   36MOL0     H 4851   8.611  11.032   3.834  1.7684 -0.6672  1.2249
   36MOL0     H 4852   8.761  11.029   4.020 -3.2526  1.2599  0.4477
   36MOL0     H 4853   8.836  11.177   3.953  3.0096 -2.0507 -0.0093
   36MOL0     H 4854   8.793  10.924   3.798 -1.7722 -0.2051  4.2892
   36MOL0     H 4855   8.861  11.073   3.731  0.8896 -0.7016 -0.2581
   36MOL0     H 4856   9.200  10.918   3.937  0.0409 -5.6263 -0.0142
   36MOL0     H 4857   8.372  11.364   4.036  0.3285  0.7879  0.6430
   36MOL0     H 4858   8.177  11.491   4.079  0.1474  1.5531  0.6792
   36MOL0     H 4859   8.086  11.466   4.228  0.3807 -1.0483  1.0065
   36MOL0     H 4860   8.229  11.566   4.240  0.7016 -1.2605  2.5203
   37MOL0     O 4861  11.029   5.728   8.336  0.0978 -0.0306  0.5810
   37MOL0     C 4862  11.021   5.839   8.377  0.6851 -0.2786  0.4569
   37MOL0     O 4863  11.024   5.955   8.303 -0.2212 -0.1553 -0.5354
   37MOL0     C 4864  11.032   5.930   8.165  0.1296 -0.1403 -0.3160
   37MOL0     C 4865  11.153   5.932   8.100 -0.8368  0.2878  0.5394
   37MOL0     C 4866  11.159   5.924   7.960  0.4702  0.6466 -0.6449
   37MOL0     C 4867  11.041   5.901   7.879 -0.0902  0.0446 -0.8234
   37MOL0     O 4868  11.053   5.891   7.747 -0.7636  0.6187  0.4827
   37MOL0     C 4869  11.049   5.754   7.699  0.2054 -0.3197  0.4774
   37MOL0     C 4870  10.931   5.736   7.609  0.5904  0.7474 -0.1108
   37MOL0     C 4871  10.909   5.592   7.563 -0.4039 -0.9833  0.5493
   37MOL0     C 4872  11.008   5.555   7.449 -0.1603 -0.1758 -0.7420
   37MOL0     C 4873  11.039   5.410   7.439 -0.7643  0.3049 -0.3176
   37MOL0     C 4874  10.922   5.321   7.375 -0.9366 -0.4016 -1.3942
   37MOL0     C 4875  10.922   5.166   7.410  0.2269  0.8461  0.1257
   37MOL0     C 4876  11.047   5.112   7.353 -0.3022 -0.1970  0.5864
   37MOL0     N 4877  11.034   5.081   7.204  0.5223  0.2488 -0.7094
   37MOL0     C 4878  10.996   4.957   7.147  0.3520 -0.1485  0.1656
   37MOL0     C 4879  11.011   4.967   7.015 -0.5648  0.1178  0.2772
   37MOL0     C 4880  10.990   4.861   6.916 -0.1174 -0.0414  0.0452
   37MOL0     C 4881  10.852   4.826   6.855 -0.1162  0.1587 -0.3819
   37MOL0     C 4882  10.760   4.772   6.960 -0.1701  0.6641 -0.6246
   37MOL0     C 4883  10.805   4.639   7.031  0.2301 -0.0936 -0.6113
   37MOL0     O 4884  10.706   4.587   7.111  0.6069 -0.0936  0.4531
   37MOL0     C 4885  10.699   4.478   7.200  0.2573  0.0470  0.3735
   37MOL0     C 4886  10.810   4.394   7.218 -0.1192 -0.0892  0.4116
   37MOL0     C 4887  10.814   4.304   7.315  0.2021  0.2633 -0.4088
   37MOL0     C 4888  10.715   4.300   7.415  0.2582 -0.2727  0.1992
   37MOL0     C 4889  10.719   4.208   7.516  0.0155  0.0452 -0.6026
   37MOL0     O 4890  10.608   4.158   7.590  0.0180  0.6229 -0.0717
   37MOL0     C 4891  10.634   4.082   7.707 -0.2545  0.1299 -0.5653
   37MOL0     C 4892  10.546   3.977   7.740 -0.8247  0.2554  0.3087
   37MOL0     C 4893  10.560   3.911   7.860 -0.3570 -0.0484 -0.3846
   37MOL0     C 4894  10.661   3.931   7.947 -0.3105  0.0605 -0.1684
   37MOL0     O 4895  10.661   3.875   8.077 -0.0208  0.5377  0.0880
   37MOL0     C 4896  10.667   3.730   8.093  0.2462 -0.2528  0.3273
   37MOL0     C 4897  10.683   3.687   8.230  0.2315  0.9897 -0.9663
   37MOL0     C 4898  10.622   3.787   8.337  0.5814 -0.7147 -0.7793
   37MOL0     C 4899  10.591   3.718   8.471 -0.7597  0.0096 -0.5168
   37MOL0     C 4900  10.486   3.816   8.550 -0.6483  0.3501 -0.6040
   37MOL0     C 4901  10.421   3.729   8.661  0.0508  0.1111  0.4832
   37MOL0     C 4902  10.328   3.797   8.764 -0.0432  0.1171 -0.2624
   37MOL0     C 4903  10.330   3.949   8.763  0.3512 -0.6039 -0.3756
   37MOL0    Cl 4904  10.240   4.008   8.621  0.2410  0.3933 -0.1619
   37MOL0     C 4905  10.753   4.035   7.911  0.8794 -0.6878 -0.1666
   37MOL0     C 4906  10.738   4.112   7.801 -0.4028  1.0599  0.2968
   37MOL0     O 4907  10.838   4.174   7.542 -1.0609  0.3816 -0.2145
   37MOL0     C 4908  10.597   4.383   7.404  0.3912 -0.3556 -0.2807
   37MOL0     C 4909  10.593   4.474   7.295 -0.2454 -0.0982  0.7203
   37MOL0     N 4910  11.043   5.096   6.976  0.1429  0.0693  0.3696
   37MOL0     N 4911  11.049   5.155   7.095 -0.2618 -0.3116  1.0828
   37MOL0     C 4912  10.920   5.893   7.952 -0.5489 -0.1357  0.0668
   37MOL0     C 4913  10.924   5.913   8.088  0.5888  0.1148 -0.7489
   37MOL0     C 4914  11.013   5.856   8.531  0.9818  0.1371  0.2282
   37MOL0     C 4915  10.968   5.980   8.569  0.1642 -0.3996 -0.0928
   37MOL0     C 4916  10.946   6.002   8.709 -1.0025 -0.0972  0.0595
   37MOL0     C 4917  10.973   5.900   8.802  0.7666 -0.4344 -0.1771
   37MOL0     O 4918  10.959   5.918   8.935 -0.0842 -0.6933 -0.3340
   37MOL0     C 4919  10.838   5.984   8.973  0.4148 -0.9579  0.9920
   37MOL0     C 4920  10.818   5.940   9.112  0.3678 -0.4665  0.1415
   37MOL0     C 4921  10.682   5.992   9.163 -0.5722 -0.6908  0.8306
   37MOL0     C 4922  10.688   6.145   9.191  0.4128 -0.3299  0.7618
   37MOL0     C 4923  10.572   6.180   9.269 -0.1775  0.3127 -0.2089
   37MOL0     C 4924  10.460   6.209   9.307  0.6507 -1.2420 -0.7729
   37MOL0     C 4925  11.033   5.791   8.757 -0.9519  0.2063 -0.5044
   37MOL0     C 4926  11.052   5.763   8.622  0.2348 -0.4626 -1.0443
   37MOL0     C 4927  11.113   5.635   8.585 -0.2976 -1.0968  0.3573
   37MOL0     H 4928  11.249   5.949   8.146  0.3997 -3.6352 -0.2457
   37MOL0     H 4929  11.252   5.923   7.904 -0.0777 -0.7363 -1.5647
   37MOL0     H 4930  11.132   5.734   7.630 -0.5553 -2.5714  0.1195
   37MOL0     H 4931  11.056   5.676   7.775  2.6491  0.6774  1.3658
   37MOL0     H 4932  10.946   5.795   7.518  2.3778  3.2664  1.6962
   37MOL0     H 4933  10.839   5.767   7.659 -1.0486 -0.8301 -1.9816
   37MOL0     H 4934  10.809   5.593   7.520  0.8469  1.4812 -2.6979
   37MOL0     H 4935  10.902   5.521   7.646 -0.0968  0.6706  2.0584
   37MOL0     H 4936  10.973   5.594   7.353  0.2703 -2.6051 -1.9860
   37MOL0     H 4937  11.100   5.609   7.470  0.1243 -0.0405 -2.1830
   37MOL0     H 4938  11.132   5.398   7.382 -2.2627  1.0940 -3.1087
   37MOL0     H 4939  11.047   5.369   7.540 -2.0214 -0.1005 -0.3614
   37MOL0     H 4940  10.826   5.358   7.411 -0.2285 -1.0479  1.3868
   37MOL0     H 4941  10.922   5.346   7.268  1.6304  3.1655 -0.7531
   37MOL0     H 4942  10.844   5.119   7.351  2.4650 -0.4942 -1.9544
   37MOL0     H 4943  10.896   5.146   7.514 -2.3237 -1.4497 -0.8502
   37MOL0     H 4944  11.126   5.185   7.371  0.0146 -0.2507 -0.5043
   37MOL0     H 4945  11.064   5.014   7.399  2.5192 -2.6049 -4.6184
   37MOL0     H 4946  10.963   4.866   7.196  0.5907  0.7647  2.1264
   37MOL0     H 4947  11.057   4.897   6.837  0.6000  1.8011  1.4342
   37MOL0     H 4948  11.013   4.763   6.957 -1.4062 -0.1287  0.6140
   37MOL0     H 4949  10.810   4.919   6.815  2.1322  1.3061 -0.2830
   37MOL0     H 4950  10.860   4.745   6.782  3.5864 -0.4386  0.4685
   37MOL0     H 4951  10.660   4.763   6.917  0.1179  3.7691 -2.2331
   37MOL0     H 4952  10.737   4.840   7.043  0.9162  1.3373 -0.8566
   37MOL0     H 4953  10.884   4.651   7.106 -0.3344  1.2050 -0.2076
   37MOL0     H 4954  10.841   4.562   6.961 -0.3041 -1.4120  0.5070
   37MOL0     H 4955  10.879   4.406   7.135 -0.4620  1.3363  0.3129
   37MOL0     H 4956  10.897   4.235   7.327 -1.5839 -2.1184 -1.0083
   37MOL0     H 4957  10.465   3.954   7.672  0.7329  1.3838 -2.0371
   37MOL0     H 4958  10.483   3.836   7.872  0.5665 -0.7664  1.5153
   37MOL0     H 4959  10.571   3.688   8.063  0.6803 -2.2126  1.5353
   37MOL0     H 4960  10.741   3.695   8.020 -1.7253  0.3437 -2.1253
   37MOL0     H 4961  10.646   3.586   8.249 -3.2869  2.4759  1.1532
   37MOL0     H 4962  10.790   3.683   8.253 -0.2670  1.0695  1.6667
   37MOL0     H 4963  10.690   3.872   8.351 -1.0838  0.3732  1.3608
   37MOL0     H 4964  10.528   3.832   8.305 -0.1606 -2.6355 -1.4746
   37MOL0     H 4965  10.682   3.710   8.532 -3.3327  2.5418  4.2598
   37MOL0     H 4966  10.559   3.614   8.461  1.7540 -0.9844  0.6733
   37MOL0     H 4967  10.408   3.863   8.490 -1.4608 -3.1927 -2.5412
   37MOL0     H 4968  10.542   3.897   8.598 -0.0387 -0.8259  0.7589
   37MOL0     H 4969  10.365   3.647   8.616 -0.0616  1.4782 -2.0204
   37MOL0     H 4970  10.501   3.678   8.717 -1.0140 -0.9335  1.0889
   37MOL0     H 4971  10.352   3.749   8.859  2.4269 -0.7320 -1.2111
   37MOL0     H 4972  10.229   3.759   8.737  0.6578 -3.9099  2.0370
   37MOL0     H 4973  10.280   3.983   8.853  0.0028 -3.4052  0.5928
   37MOL0     H 4974  10.435   3.980   8.770  1.0656 -2.8865  0.0443
   37MOL0     H 4975  10.826   4.064   7.987  0.0437  1.7716 -0.2022
   37MOL0     H 4976  10.814   4.186   7.780  3.0780 -2.1152  0.6707
   37MOL0     H 4977  10.519   4.379   7.480 -0.8278  0.3877 -1.4450
   37MOL0     H 4978  10.504   4.535   7.289  1.0419  1.8366  0.6568
   37MOL0     H 4979  10.832   5.896   7.889 -0.6198  0.1035  0.1753
   37MOL0     H 4980  10.835   5.922   8.149  1.6780  2.5602  0.6110
   37MOL0     H 4981  10.955   6.066   8.504  2.6955  2.0077  2.3128
   37MOL0     H 4982  10.893   6.095   8.722  0.5428  0.8718 -0.2757
   37MOL0     H 4983  10.758   5.945   8.909 -0.0751 -1.5841  1.9579
   37MOL0     H 4984  10.832   6.093   8.961 -1.0827 -0.9398  1.6278
   37MOL0     H 4985  10.899   5.967   9.180 -1.2439  1.0597  1.5496
   37MOL0     H 4986  10.824   5.831   9.105  0.3876 -0.3698 -2.6021
   37MOL0     H 4987  10.652   5.943   9.257 -0.8502 -0.2755  0.9651
   37MOL0     H 4988  10.598   5.967   9.098 -1.7331  0.9191  1.6148
   37MOL0     H 4989  10.775   6.183   9.245  0.1262  0.8401  0.4328
   37MOL0     H 4990  10.676   6.202   9.098  0.2966 -1.6538 -0.0538
   37MOL0     H 4991  10.358   6.231   9.331  0.8428  1.5112 -2.1102
   37MOL0     H 4992  11.066   5.712   8.823 -1.1297  1.2322  0.8721
   37MOL0     H 4993  11.040   5.584   8.522  0.6222  0.6692 -2.3226
   37MOL0     H 4994  11.203   5.656   8.526 -0.4455  0.5367  0.6807
   37MOL0     H 4995  11.151   5.573   8.667  3.6107  0.4763 -0.0571
   38MOL0     O 4996   6.815   7.595   3.582  0.3970  0.7730 -1.0479
   38MOL0     C 4997   6.814   7.484   3.636 -0.0590 -0.1201 -0.7379
   38MOL0     O 4998   6.821   7.458   3.768  0.1105 -0.0455  0.8103
   38MOL0     C 4999   6.828   7.548   3.873 -0.2123  0.6385 -0.6786
   38MOL0     C 5000   6.847   7.496   4.000 -0.1157 -0.3536 -0.6357
   38MOL0     C 5001   6.866   7.575   4.113  0.1900 -0.6275 -0.5238
   38MOL0     C 5002   6.883   7.707   4.093  0.4581 -0.4234  0.2882
   38MOL0     O 5003   6.911   7.796   4.195 -0.0501  0.7929  0.0825
   38MOL0     C 5004   6.975   7.747   4.313 -0.7159  0.1826  0.2360
   38MOL0     C 5005   7.109   7.818   4.340  0.6672 -0.3446 -0.0432
   38MOL0     C 5006   7.195   7.744   4.431  0.7560  0.5899 -0.0161
   38MOL0     C 5007   7.334   7.809   4.434  0.8190 -0.6940  0.0732
   38MOL0     C 5008   7.434   7.725   4.523 -0.7804 -0.0278  0.5007
   38MOL0     C 5009   7.587   7.764   4.505  0.1802  0.0101 -0.2849
   38MOL0     C 5010   7.647   7.750   4.375  0.3990  1.9979  0.7391
   38MOL0     C 5011   7.799   7.764   4.381 -0.6366  0.3841 -0.8868
   38MOL0     N 5012   7.860   7.698   4.267  0.2506 -0.1095  0.2742
   38MOL0     C 5013   7.851   7.741   4.141 -0.2272 -1.3396 -0.0976
   38MOL0     C 5014   7.916   7.646   4.065 -0.5974 -0.3192  0.4890
   38MOL0     C 5015   7.949   7.658   3.912 -0.5193 -0.3163 -1.7206
   38MOL0     C 5016   8.096   7.708   3.888 -0.5809 -0.2193  0.6658
   38MOL0     C 5017   8.120   7.707   3.734  0.1098 -1.0468 -0.6543
   38MOL0     C 5018   8.005   7.756   3.656 -0.0389 -0.1454  0.1299
   38MOL0     O 5019   7.957   7.884   3.705  0.4936  0.1220  0.0353
   38MOL0     C 5020   7.835   7.932   3.667 -0.1563  0.3547  0.7172
   38MOL0     C 5021   7.769   7.879   3.555 -0.0070 -0.4368 -0.3088
   38MOL0     C 5022   7.633   7.919   3.524 -0.8473  0.2049 -0.1112
   38MOL0     C 5023   7.583   8.036   3.585  0.6173  0.4342  1.0141
   38MOL0     C 5024   7.451   8.077   3.553  0.0665 -0.0032  0.4294
   38MOL0     O 5025   7.389   7.995   3.473 -0.0713  0.3993 -0.1313
   38MOL0     C 5026   7.253   7.997   3.442 -0.1733  0.3651  0.7324
   38MOL0     C 5027   7.182   8.107   3.391  0.1441 -0.8572  0.0242
   38MOL0     C 5028   7.036   8.104   3.387  0.5732  0.6831  0.1626
   38MOL0     C 5029   6.965   7.986   3.419  0.3733  0.4898  1.6084
   38MOL0     O 5030   6.828   7.982   3.400 -0.4233 -0.5591  0.3653
   38MOL0     C 5031   6.746   7.897   3.473 -0.6171  0.5124  0.0293
   38MOL0     C 5032   6.598   7.946   3.492 -0.2558 -0.5640 -0.5633
   38MOL0     C 5033   6.595   8.066   3.589  0.1439 -0.7500 -1.0281
   38MOL0     C 5034   6.589   8.023   3.738 -0.1405  0.5806  0.1003
   38MOL0     C 5035   6.647   8.143   3.813  0.2481  0.1567 -0.0057
   38MOL0     C 5036   6.646   8.116   3.958 -0.0984 -0.6711  0.1910
   38MOL0     C 5037   6.684   8.242   4.038 -0.4058 -0.3507 -1.1706
   38MOL0     C 5038   6.688   8.213   4.183 -0.5464  0.2590 -0.2626
   38MOL0    Cl 5039   6.834   8.104   4.224  0.1045  0.1542  0.6028
   38MOL0     C 5040   7.036   7.883   3.469 -0.1595  0.4822  0.2949
   38MOL0     C 5041   7.171   7.886   3.478  0.1839 -0.0630 -0.0437
   38MOL0     O 5042   7.409   8.189   3.592 -0.0758  0.3068  0.1236
   38MOL0     C 5043   7.646   8.092   3.697  0.6608 -0.1439  0.3939
   38MOL0     C 5044   7.768   8.041   3.732  0.2458 -0.0073  0.3826
   38MOL0     N 5045   7.959   7.548   4.152 -0.9129  0.3417 -0.1586
   38MOL0     N 5046   7.930   7.580   4.278  0.9149 -0.8091 -0.0706
   38MOL0     C 5047   6.875   7.765   3.963 -0.4711 -0.4400 -0.2878
   38MOL0     C 5048   6.850   7.688   3.852  0.1394  0.1977 -0.5461
   38MOL0     C 5049   6.801   7.364   3.550  0.5774  0.1194 -0.8503
   38MOL0     C 5050   6.715   7.265   3.605 -0.9256  0.2409  1.5174
   38MOL0     C 5051   6.685   7.149   3.530  0.6883 -0.0740  0.0167
   38MOL0     C 5052   6.733   7.126   3.394 -0.0234  0.3599 -0.3805
   38MOL0     O 5053   6.716   7.013   3.324 -0.2144  0.2026  0.0198
   38MOL0     C 5054   6.661   6.897   3.393  1.0278  0.0937 -0.2311
   38MOL0     C 5055   6.661   6.770   3.309  0.9686  0.7923 -0.1072
   38MOL0     C 5056   6.562   6.786   3.191  0.4489  0.6787 -0.0496
   38MOL0     C 5057   6.603   6.701   3.063  0.4751  0.6000  0.9885
   38MOL0     C 5058   6.618   6.553   3.073  0.1851  0.4528  0.0340
   38MOL0     C 5059   6.639   6.438   3.095 -0.7459 -0.0892 -0.5491
   38MOL0     C 5060   6.815   7.226   3.340 -0.0542 -0.1366  0.7122
   38MOL0     C 5061   6.839   7.350   3.413  0.6334  0.0354 -0.4770
   38MOL0     C 5062   6.916   7.459   3.334  0.5631 -0.6738  0.4210
   38MOL0     H 5063   6.835   7.389   4.012  0.8259 -0.3302  0.6890
   38MOL0     H 5064   6.867   7.537   4.215 -1.8455  1.4913  0.3556
   38MOL0     H 5065   6.904   7.752   4.396 -1.1003  0.4442 -0.1022
   38MOL0     H 5066   7.005   7.642   4.313 -0.4276  0.2597 -0.5052
   38MOL0     H 5067   7.085   7.908   4.397  0.0660  0.5379 -1.6401
   38MOL0     H 5068   7.155   7.852   4.247  1.6286 -1.7633 -0.1208
   38MOL0     H 5069   7.209   7.642   4.396 -1.2414  0.8574 -1.7655
   38MOL0     H 5070   7.150   7.746   4.530 -1.6787 -2.0473 -0.9542
   38MOL0     H 5071   7.381   7.818   4.336 -3.2516  0.0577 -1.9998
   38MOL0     H 5072   7.316   7.912   4.468  3.5962 -0.9879  2.9873
   38MOL0     H 5073   7.403   7.713   4.627  0.3879 -1.9641  0.6632
   38MOL0     H 5074   7.419   7.626   4.481  3.4396 -0.0801 -1.4068
   38MOL0     H 5075   7.601   7.867   4.539 -0.1900 -0.1437  0.3432
   38MOL0     H 5076   7.640   7.707   4.582  0.2986  0.0257 -0.3531
   38MOL0     H 5077   7.599   7.817   4.303 -1.3157 -2.3625 -2.5950
   38MOL0     H 5078   7.627   7.652   4.331  1.6932  2.1198 -0.1984
   38MOL0     H 5079   7.817   7.871   4.394 -3.6426  1.3935 -3.7381
   38MOL0     H 5080   7.835   7.723   4.476 -2.8542  0.1131 -0.1041
   38MOL0     H 5081   7.800   7.835   4.119  0.3528 -0.6684  1.3232
   38MOL0     H 5082   7.944   7.553   3.881  1.0773 -1.3935  1.2872
   38MOL0     H 5083   7.866   7.712   3.865 -1.0172 -0.6851 -1.2809
   38MOL0     H 5084   8.109   7.813   3.918 -1.3220  0.0196  0.1800
   38MOL0     H 5085   8.169   7.642   3.937 -1.1818 -1.5834 -0.2115
   38MOL0     H 5086   8.124   7.601   3.710 -0.9165 -1.2319 -0.0448
   38MOL0     H 5087   8.220   7.750   3.718  1.2347 -2.0103  2.7192
   38MOL0     H 5088   7.928   7.678   3.648 -4.5684  3.9491 -0.6243
   38MOL0     H 5089   8.035   7.787   3.556  1.3030  2.4862  1.2461
   38MOL0     H 5090   7.824   7.818   3.484  3.4539 -1.9497  3.2928
   38MOL0     H 5091   7.587   7.874   3.437  0.8816  1.7125 -1.8812
   38MOL0     H 5092   7.222   8.207   3.376 -1.0821 -0.5168 -1.2069
   38MOL0     H 5093   6.981   8.179   3.331  0.3208  0.5922  0.2895
   38MOL0     H 5094   6.750   7.801   3.420 -2.2455 -0.4032  1.4819
   38MOL0     H 5095   6.778   7.862   3.572 -1.9775  1.9193  1.0076
   38MOL0     H 5096   6.562   7.992   3.399 -0.2794 -0.3048 -0.4257
   38MOL0     H 5097   6.525   7.869   3.515  1.8278 -1.9249  2.0004
   38MOL0     H 5098   6.683   8.130   3.574 -0.9290  1.1129  0.1073
   38MOL0     H 5099   6.506   8.129   3.578  0.5801  0.0433 -0.1645
   38MOL0     H 5100   6.645   7.932   3.761 -0.0918  0.3926 -0.7414
   38MOL0     H 5101   6.485   8.006   3.767 -1.4909  4.1514 -1.9871
   38MOL0     H 5102   6.587   8.231   3.787  1.2545  1.6063  2.3179
   38MOL0     H 5103   6.747   8.170   3.778 -0.2939  2.3421 -0.0087
   38MOL0     H 5104   6.548   8.083   3.992  0.3486 -2.7310 -0.4092
   38MOL0     H 5105   6.715   8.033   3.979 -0.8140 -1.3189  0.0192
   38MOL0     H 5106   6.607   8.318   4.025 -1.2263 -1.1631 -1.1478
   38MOL0     H 5107   6.779   8.287   4.008 -0.4515  2.1475  1.9074
   38MOL0     H 5108   6.686   8.306   4.241 -0.3669 -0.1170  0.3501
   38MOL0     H 5109   6.596   8.164   4.216 -1.7142  3.1931  1.2161
   38MOL0     H 5110   6.992   7.789   3.501  2.1686 -1.0368 -0.6474
   38MOL0     H 5111   7.221   7.796   3.514 -1.4948 -1.2264 -0.4725
   38MOL0     H 5112   7.591   8.167   3.752 -0.4342  0.9083 -1.9951
   38MOL0     H 5113   7.810   8.079   3.824 -1.4000 -1.4917  1.8145
   38MOL0     H 5114   6.879   7.871   3.940 -0.1358 -0.1404  1.0812
   38MOL0     H 5115   6.851   7.742   3.758 -1.2432  2.2935  0.5562
   38MOL0     H 5116   6.683   7.265   3.709  0.8149 -0.5539  2.0866
   38MOL0     H 5117   6.627   7.070   3.577  1.7080 -0.1626  1.1784
   38MOL0     H 5118   6.566   6.921   3.442  0.9698 -0.8452  0.1444
   38MOL0     H 5119   6.743   6.879   3.463  2.3646  1.8346 -1.2512
   38MOL0     H 5120   6.626   6.688   3.372 -1.6306  1.4579 -0.5284
   38MOL0     H 5121   6.754   6.732   3.266 -0.8045 -4.8879  0.2431
   38MOL0     H 5122   6.571   6.886   3.149  1.7673  0.2064 -0.9581
   38MOL0     H 5123   6.465   6.759   3.235  0.0879  2.4385  0.2808
   38MOL0     H 5124   6.532   6.718   2.982  2.7036 -1.2576 -1.5099
   38MOL0     H 5125   6.691   6.751   3.022 -0.5193  1.5038 -0.1472
   38MOL0     H 5126   6.655   6.333   3.112  1.0729  0.7346  4.2668
   38MOL0     H 5127   6.851   7.220   3.238 -2.7645 -0.7044 -0.2633
   38MOL0     H 5128   7.001   7.483   3.398  1.7075 -1.3639 -0.7876
   38MOL0     H 5129   6.959   7.427   3.239  0.5390 -0.7445  0.4334
   38MOL0     H 5130   6.856   7.548   3.314  0.0495 -1.6403 -2.9245
   39MOL0     O 5131   7.111   5.055   2.189  0.4540 -0.3155 -1.2346
   39MOL0     C 5132   7.132   5.127   2.092  0.4340  0.3446 -0.0512
   39MOL0     O 5133   7.155   5.084   1.969  0.3492  0.0822 -0.8909
   39MOL0     C 5134   7.165   4.945   1.938 -0.2634  0.1804 -0.3105
   39MOL0     C 5135   7.062   4.859   1.948  0.3152 -0.0852  0.9713
   39MOL0     C 5136   7.073   4.725   1.908  0.7657 -0.2555 -0.5728
   39MOL0     C 5137   7.193   4.681   1.846  0.8154 -0.3336  0.5631
   39MOL0     O 5138   7.210   4.550   1.803 -0.5332 -0.3639  0.3417
   39MOL0     C 5139   7.133   4.528   1.685  1.1534  0.8740 -0.2051
   39MOL0     C 5140   7.206   4.568   1.559 -0.1852  0.2109  0.5476
   39MOL0     C 5141   7.196   4.719   1.524  0.2899  0.9143  0.6276
   39MOL0     C 5142   7.059   4.783   1.545 -0.3903 -0.1327 -0.0976
   39MOL0     C 5143   7.060   4.938   1.541  1.4319 -0.6556  0.1160
   39MOL0     C 5144   6.913   4.996   1.565  0.1511 -0.2654 -0.3140
   39MOL0     C 5145   6.906   5.140   1.554 -0.0615  0.3300 -0.4104
   39MOL0     C 5146   6.957   5.212   1.670  0.8152  0.4829 -0.6253
   39MOL0     N 5147   6.960   5.355   1.637 -0.8952  0.7866  0.2544
   39MOL0     C 5148   7.077   5.422   1.610  0.9257  0.4738  0.4135
   39MOL0     C 5149   7.032   5.542   1.584 -0.1731 -0.6229  0.5536
   39MOL0     C 5150   7.111   5.677   1.543 -0.1374  0.4013 -0.0499
   39MOL0     C 5151   7.176   5.731   1.675  1.0719 -0.1794 -0.2204
   39MOL0     C 5152   7.284   5.651   1.739 -0.6724  0.3014 -0.1925
   39MOL0     C 5153   7.380   5.733   1.816  0.4147 -0.2580  1.3971
   39MOL0     O 5154   7.319   5.802   1.921  0.4281  0.8330 -0.0962
   39MOL0     C 5155   7.386   5.821   2.042 -0.4907  1.2333  0.1757
   39MOL0     C 5156   7.526   5.821   2.053 -0.4947  0.1109  1.0635
   39MOL0     C 5157   7.585   5.846   2.171 -0.0711 -0.2534 -0.2101
   39MOL0     C 5158   7.506   5.868   2.296 -0.8491  0.2233 -0.5420
   39MOL0     C 5159   7.568   5.879   2.427  0.4746  1.4781  0.1541
   39MOL0     O 5160   7.704   5.898   2.420 -0.1254  0.5457 -0.0590
   39MOL0     C 5161   7.769   5.926   2.540 -0.4593 -0.6357  1.1998
   39MOL0     C 5162   7.865   5.846   2.600 -0.7922  0.4208 -0.3508
   39MOL0     C 5163   7.928   5.886   2.722  0.5979 -0.2536 -0.7896
   39MOL0     C 5164   7.889   6.010   2.775 -0.0882 -0.0903  0.2854
   39MOL0     O 5165   7.939   6.064   2.893  0.4083  0.5189  0.1713
   39MOL0     C 5166   8.077   6.036   2.911  0.9883 -0.3477  0.3612
   39MOL0     C 5167   8.124   6.117   3.029 -0.0745 -0.2351 -0.4172
   39MOL0     C 5168   8.073   6.045   3.160  0.1016 -0.1946  0.3648
   39MOL0     C 5169   8.133   6.131   3.277  0.1855  0.1625  0.4207
   39MOL0     C 5170   8.091   6.075   3.408 -0.4073  0.3529 -1.3528
   39MOL0     C 5171   8.139   6.167   3.524  0.1294  1.1876 -0.5713
   39MOL0     C 5172   8.076   6.140   3.659  0.2813  0.0586  0.0276
   39MOL0     C 5173   8.133   6.223   3.774  1.0134  0.0100 -0.5234
   39MOL0    Cl 5174   8.031   6.220   3.922 -0.3212  0.0940 -0.1770
   39MOL0     C 5175   7.796   6.087   2.709  0.4594  0.0811  0.8623
   39MOL0     C 5176   7.730   6.048   2.589 -0.6859  0.0831 -0.5086
   39MOL0     O 5177   7.503   5.873   2.525 -0.6282  0.1860 -0.1346
   39MOL0     C 5178   7.368   5.865   2.280 -0.2274 -0.0396 -0.9381
   39MOL0     C 5179   7.312   5.839   2.159  0.1842 -0.5505 -0.0962
   39MOL0     N 5180   6.893   5.541   1.590 -0.8109  0.4512 -0.3792
   39MOL0     N 5181   6.859   5.430   1.639  0.7121 -0.6595 -0.6247
   39MOL0     C 5182   7.308   4.771   1.836  0.2455  0.3893  0.7487
   39MOL0     C 5183   7.283   4.902   1.883  0.0405 -0.1350  0.0587
   39MOL0     C 5184   7.108   5.274   2.117 -0.0313 -0.2762 -0.9107
   39MOL0     C 5185   7.073   5.352   2.004  0.6048  1.7112  0.2932
   39MOL0     C 5186   7.051   5.489   2.007  0.2802 -0.1165 -0.1345
   39MOL0     C 5187   7.063   5.556   2.127  0.7099  0.6267 -0.5344
   39MOL0     O 5188   7.023   5.689   2.161 -0.1066 -0.0840  0.4675
   39MOL0     C 5189   6.961   5.768   2.055 -0.0048  0.5152  0.3233
   39MOL0     C 5190   6.893   5.884   2.111  0.6842 -0.5010 -0.5966
   39MOL0     C 5191   6.991   5.989   2.139 -0.4859 -0.3596 -0.4833
   39MOL0     C 5192   6.943   6.121   2.194 -0.7447 -0.0937 -0.7293
   39MOL0     C 5193   6.878   6.102   2.325 -0.1419  0.6598 -0.1693
   39MOL0     C 5194   6.829   6.111   2.438 -0.0324  1.2345 -0.2710
   39MOL0     C 5195   7.110   5.484   2.245 -0.0792 -0.1415 -0.5574
   39MOL0     C 5196   7.129   5.341   2.244 -0.0552  0.2904  0.0283
   39MOL0     C 5197   7.173   5.272   2.364 -0.3192 -1.0350 -0.2471
   39MOL0     H 5198   6.963   4.893   1.977  1.0871  0.3071  3.3045
   39MOL0     H 5199   6.993   4.655   1.932  0.2993 -0.1018 -1.6262
   39MOL0     H 5200   7.119   4.419   1.682  0.9239  0.9026 -0.1432
   39MOL0     H 5201   7.036   4.576   1.697  0.9758  1.2963 -2.7903
   39MOL0     H 5202   7.153   4.511   1.482  0.1120 -0.0377  0.5222
   39MOL0     H 5203   7.308   4.530   1.554  0.8419  2.9041 -2.4994
   39MOL0     H 5204   7.217   4.730   1.417 -6.4659  1.7838 -1.0532
   39MOL0     H 5205   7.271   4.777   1.580  2.0811  0.2149 -0.9252
   39MOL0     H 5206   6.994   4.761   1.460 -1.4700 -2.6549  1.2554
   39MOL0     H 5207   7.002   4.764   1.637 -2.2361  0.8159 -0.9842
   39MOL0     H 5208   7.136   4.973   1.611  1.1513  0.5055 -0.1487
   39MOL0     H 5209   7.096   4.970   1.442  1.7195 -0.8052  0.1720
   39MOL0     H 5210   6.839   4.939   1.506 -1.4248  0.8104  0.5549
   39MOL0     H 5211   6.881   4.962   1.664 -2.5357  1.5142 -0.4800
   39MOL0     H 5212   6.802   5.158   1.527  0.1700  3.0768  0.2501
   39MOL0     H 5213   6.955   5.156   1.457 -2.7486 -1.0285 -2.1009
   39MOL0     H 5214   6.887   5.194   1.752 -1.0450 -0.2645 -2.3004
   39MOL0     H 5215   7.054   5.165   1.686  0.4389 -0.7008 -1.6840
   39MOL0     H 5216   7.183   5.399   1.601  0.9824  1.3517 -2.2982
   39MOL0     H 5217   7.185   5.652   1.467  1.5660  1.0362  1.3240
   39MOL0     H 5218   7.040   5.755   1.516 -0.0674  0.2521 -0.6774
   39MOL0     H 5219   7.212   5.825   1.634 -0.5824 -0.4201 -2.4172
   39MOL0     H 5220   7.106   5.757   1.756 -1.1469 -0.1113 -2.0573
   39MOL0     H 5221   7.339   5.603   1.658 -1.7849  2.9925 -2.7143
   39MOL0     H 5222   7.232   5.585   1.810 -0.8220  1.7125  1.0707
   39MOL0     H 5223   7.433   5.803   1.751 -1.2422  2.0448  2.4047
   39MOL0     H 5224   7.458   5.671   1.861 -1.4383 -1.8410  2.6146
   39MOL0     H 5225   7.596   5.796   1.974 -1.0790 -0.3717  0.6894
   39MOL0     H 5226   7.692   5.837   2.182  0.1113  0.2050 -1.4730
   39MOL0     H 5227   7.893   5.749   2.560  1.2514  2.0494 -3.1860
   39MOL0     H 5228   7.992   5.827   2.787 -0.1480 -0.4714 -0.2319
   39MOL0     H 5229   8.086   5.929   2.930  1.6381 -0.5650 -1.0357
   39MOL0     H 5230   8.132   6.062   2.820  2.1608 -3.5300  0.0386
   39MOL0     H 5231   8.227   6.152   3.037  0.0205 -0.8828  2.5015
   39MOL0     H 5232   8.078   6.216   3.025  2.3394  0.9952  0.2898
   39MOL0     H 5233   7.964   6.052   3.156  0.2172  1.3916 -0.9739
   39MOL0     H 5234   8.112   5.942   3.167  3.1271  0.7675 -0.7749
   39MOL0     H 5235   8.100   6.234   3.260  2.2065  0.6287 -0.8715
   39MOL0     H 5236   8.238   6.117   3.252 -0.1202 -2.8500  0.3919
   39MOL0     H 5237   8.119   5.971   3.430 -2.6817 -0.5193 -2.2235
   39MOL0     H 5238   7.982   6.073   3.417 -0.2147 -0.2027  2.5977
   39MOL0     H 5239   8.247   6.169   3.541 -0.0612  1.5779  0.7511
   39MOL0     H 5240   8.105   6.268   3.499 -1.9881  0.3198 -1.4343
   39MOL0     H 5241   8.093   6.037   3.692  3.5227  0.2098 -0.7862
   39MOL0     H 5242   7.968   6.149   3.647  0.4345  0.2379 -1.4247
   39MOL0     H 5243   8.235   6.191   3.796  1.1033  1.4231  1.3470
   39MOL0     H 5244   8.147   6.326   3.740  0.0139 -0.0215 -1.0854
   39MOL0     H 5245   7.761   6.180   2.753 -0.8114 -0.2157  0.5064
   39MOL0     H 5246   7.652   6.087   2.524 -1.3768 -1.7820 -0.8913
   39MOL0     H 5247   7.296   5.878   2.360 -1.1023 -0.4269 -1.6498
   39MOL0     H 5248   7.205   5.820   2.157  0.0226  0.3188 -0.0089
   39MOL0     H 5249   7.407   4.747   1.800  0.8598  4.0866 -0.4363
   39MOL0     H 5250   7.370   4.966   1.896  1.1709 -1.4510 -0.8732
   39MOL0     H 5251   7.076   5.301   1.909  1.7388  1.5895  0.3768
   39MOL0     H 5252   7.007   5.530   1.917 -1.2732 -0.0943  0.6043
   39MOL0     H 5253   6.888   5.709   1.998  2.1172 -2.4997  0.4780
   39MOL0     H 5254   7.038   5.810   1.989  0.6112 -2.2234 -0.8600
   39MOL0     H 5255   6.835   5.867   2.202 -1.4575  1.6237 -1.4496
   39MOL0     H 5256   6.813   5.928   2.050  0.3907  1.4552  1.0775
   39MOL0     H 5257   7.043   6.018   2.048  1.9612  1.6552  1.4024
   39MOL0     H 5258   7.069   5.950   2.207  0.7511  0.8099 -1.1856
   39MOL0     H 5259   7.027   6.190   2.199 -0.0925 -0.9701  1.7047
   39MOL0     H 5260   6.869   6.156   2.121  1.6604  2.4612 -2.1270
   39MOL0     H 5261   6.795   6.128   2.538 -2.5428 -1.6101 -0.4911
   39MOL0     H 5262   7.123   5.538   2.338 -4.3720 -0.7339  0.6304
   39MOL0     H 5263   7.265   5.219   2.338  1.6403  0.1924  3.4339
   39MOL0     H 5264   7.192   5.354   2.434 -1.0000 -0.9750 -0.1199
   39MOL0     H 5265   7.100   5.201   2.404 -0.4594 -1.0494 -0.5245
   40MOL0     O 5266   8.688   2.860   4.727  0.6994  0.1986 -0.5563
   40MOL0     C 5267   8.794   2.878   4.684 -0.1624  0.3867  0.7149
   40MOL0     O 5268   8.899   2.795   4.707  0.4287 -0.1657 -0.6518
   40MOL0     C 5269   8.896   2.676   4.771 -0.2383 -0.1533  0.5694
   40MOL0     C 5270   9.016   2.612   4.793  0.2777 -0.0262  0.4377
   40MOL0     C 5271   9.029   2.486   4.850 -0.1802  0.0173  0.4888
   40MOL0     C 5272   8.920   2.422   4.898 -0.7678  0.3027 -0.3175
   40MOL0     O 5273   8.939   2.314   4.990  0.1175  0.9840 -0.4450
   40MOL0     C 5274   8.853   2.192   4.987 -0.1176 -0.4487  0.3131
   40MOL0     C 5275   8.937   2.066   4.988  0.7594  0.0248  0.0882
   40MOL0     C 5276   9.070   2.073   4.900 -0.3546  0.2977  0.3574
   40MOL0     C 5277   9.036   2.031   4.761 -1.1188  0.5565  0.5663
   40MOL0     C 5278   9.166   1.998   4.688  0.7027 -0.0154 -0.3897
   40MOL0     C 5279   9.133   1.989   4.536  0.2875 -0.0174  0.1611
   40MOL0     C 5280   9.255   1.956   4.455  0.5745  0.4246  0.1960
   40MOL0     C 5281   9.225   1.900   4.321  0.0368 -0.9473  0.1171
   40MOL0     N 5282   9.349   1.877   4.247  0.0591 -0.8915  0.4408
   40MOL0     C 5283   9.420   1.770   4.210 -0.0758  0.3435  0.4484
   40MOL0     C 5284   9.525   1.807   4.142 -0.2808 -1.4481  0.3589
   40MOL0     C 5285   9.645   1.718   4.106  0.4608 -0.9005  0.0921
   40MOL0     C 5286   9.719   1.678   4.229 -0.5851 -0.3793 -0.4904
   40MOL0     C 5287   9.862   1.628   4.202 -0.4525 -0.6611 -0.1929
   40MOL0     C 5288   9.951   1.606   4.321 -0.0419 -0.3696  0.3562
   40MOL0     O 5289   9.893   1.528   4.430 -0.1247  0.0409 -0.0097
   40MOL0     C 5290   9.956   1.523   4.550 -0.1651 -0.1650 -0.6273
   40MOL0     C 5291  10.091   1.566   4.565  0.5267  0.4099 -0.1405
   40MOL0     C 5292  10.158   1.540   4.689  0.5616  0.3637  0.5029
   40MOL0     C 5293  10.094   1.477   4.797  1.0465 -0.6705 -0.8157
   40MOL0     C 5294  10.157   1.449   4.926 -0.5892  0.0977  1.4633
   40MOL0     O 5295  10.080   1.386   5.020 -0.8148 -0.0793  0.5118
   40MOL0     C 5296  10.134   1.343   5.132  0.4973  0.4274  0.2540
   40MOL0     C 5297  10.261   1.289   5.150 -0.4428  0.7431  0.2440
   40MOL0     C 5298  10.292   1.233   5.273  0.4157 -0.4967 -0.4364
   40MOL0     C 5299  10.211   1.235   5.379  0.8567 -0.7314  0.3983
   40MOL0     O 5300  10.246   1.180   5.504 -0.1275 -0.4350  0.1788
   40MOL0     C 5301  10.389   1.189   5.534  0.4513 -0.1463 -0.2779
   40MOL0     C 5302  10.389   1.187   5.687  0.3244 -0.2644  0.3470
   40MOL0     C 5303  10.499   1.106   5.757 -0.0728  0.9839 -0.3951
   40MOL0     C 5304  10.504   1.150   5.902 -0.7214  0.7467  0.0982
   40MOL0     C 5305  10.416   1.063   5.989  0.2471  0.2816  0.0369
   40MOL0     C 5306  10.369   1.122   6.118  0.4414  0.1250  0.3046
   40MOL0     C 5307  10.252   1.053   6.188 -0.6544 -0.7715  0.4147
   40MOL0     C 5308  10.124   1.101   6.138 -0.8738  0.1400  0.3205
   40MOL0    Cl 5309  10.063   1.247   6.224  0.0043  0.0148 -0.7373
   40MOL0     C 5310  10.087   1.292   5.363 -0.3226  1.4160  0.3887
   40MOL0     C 5311  10.044   1.347   5.239 -0.9104  0.7080  0.1172
   40MOL0     O 5312  10.277   1.482   4.941 -0.4239  0.4114 -0.0930
   40MOL0     C 5313   9.956   1.432   4.771  0.1956 -0.1236 -0.4862
   40MOL0     C 5314   9.887   1.458   4.656 -0.2819  0.0260 -1.0204
   40MOL0     N 5315   9.505   1.948   4.103  0.0113  0.6800  0.0046
   40MOL0     N 5316   9.408   1.986   4.179 -0.1053  0.2890  0.1558
   40MOL0     C 5317   8.789   2.476   4.868 -0.0235  0.5752 -0.6711
   40MOL0     C 5318   8.776   2.603   4.803 -0.4275  0.3333 -0.2828
   40MOL0     C 5319   8.812   2.992   4.597  1.3276  0.3796 -0.2723
   40MOL0     C 5320   8.743   3.112   4.626  0.7979  0.7655 -0.9175
   40MOL0     C 5321   8.752   3.221   4.539 -0.0731  0.4060 -0.5286
   40MOL0     C 5322   8.830   3.223   4.422 -0.3418 -0.1508 -0.4082
   40MOL0     O 5323   8.838   3.334   4.340  0.3014 -0.8484  0.1988
   40MOL0     C 5324   8.936   3.342   4.231  0.2433  0.1257  0.2177
   40MOL0     C 5325   8.904   3.475   4.179 -0.4650 -0.6433  0.2056
   40MOL0     C 5326   9.020   3.528   4.090  0.1230 -0.8102 -0.4455
   40MOL0     C 5327   9.003   3.681   4.074 -0.4811  0.2649  0.2947
   40MOL0     C 5328   9.101   3.705   3.966 -0.1857 -0.2541  0.0927
   40MOL0     C 5329   9.196   3.708   3.887  0.3119  0.3453  0.9305
   40MOL0     C 5330   8.911   3.116   4.411 -0.1536 -0.7322  0.1896
   40MOL0     C 5331   8.902   3.004   4.484 -0.2180  0.4539 -0.3358
   40MOL0     C 5332   8.981   2.880   4.438  0.4326  0.5812 -0.9683
   40MOL0     H 5333   9.108   2.659   4.759  0.8387 -2.4424 -1.6894
   40MOL0     H 5334   9.127   2.440   4.855 -0.0088  0.4414  1.0520
   40MOL0     H 5335   8.774   2.191   5.062  0.6244 -1.1082  1.1047
   40MOL0     H 5336   8.811   2.192   4.886  0.8999  2.4462 -0.2097
   40MOL0     H 5337   8.873   1.980   4.971  2.7948 -1.1097 -2.7378
   40MOL0     H 5338   8.966   2.049   5.092 -2.2923  0.0833  1.0266
   40MOL0     H 5339   9.148   2.005   4.937  0.6299  1.3000  0.2062
   40MOL0     H 5340   9.118   2.172   4.906 -1.0892  0.5686  3.4696
   40MOL0     H 5341   8.975   1.940   4.764 -0.9727  0.3562 -1.2100
   40MOL0     H 5342   8.973   2.108   4.716 -0.3169  0.9898  0.1609
   40MOL0     H 5343   9.240   2.076   4.708  4.0730 -2.0754 -3.4506
   40MOL0     H 5344   9.208   1.904   4.725  1.0191  0.1116 -0.4237
   40MOL0     H 5345   9.067   1.903   4.521  1.1450 -0.4410 -1.5401
   40MOL0     H 5346   9.085   2.077   4.491 -0.2274 -1.2081 -1.7509
   40MOL0     H 5347   9.319   1.882   4.505 -1.5610 -1.1449  0.7362
   40MOL0     H 5348   9.305   2.053   4.454 -0.8272  1.2074  1.5010
   40MOL0     H 5349   9.171   1.804   4.318 -1.4896 -0.1736  1.5551
   40MOL0     H 5350   9.172   1.978   4.267 -0.3407 -1.2612  0.0289
   40MOL0     H 5351   9.398   1.671   4.250 -2.9088  0.1323 -1.3782
   40MOL0     H 5352   9.619   1.625   4.055 -2.2148  0.3195 -0.9429
   40MOL0     H 5353   9.706   1.771   4.031 -2.6989 -1.5779 -3.2638
   40MOL0     H 5354   9.730   1.770   4.288  3.4657 -0.8590 -0.2236
   40MOL0     H 5355   9.665   1.597   4.278 -1.6487  1.6135  1.8832
   40MOL0     H 5356   9.901   1.701   4.131  0.7048 -0.7801  0.3106
   40MOL0     H 5357   9.856   1.535   4.145  0.3988  0.5705 -2.4117
   40MOL0     H 5358   9.981   1.699   4.369  0.9538 -1.2244  1.4476
   40MOL0     H 5359  10.042   1.557   4.283  0.1977  0.4137 -0.0949
   40MOL0     H 5360  10.134   1.614   4.478 -5.5493  5.2590 -1.1707
   40MOL0     H 5361  10.258   1.581   4.691 -0.3595  2.9137 -0.9996
   40MOL0     H 5362  10.345   1.295   5.082 -0.4976 -0.6977  0.0376
   40MOL0     H 5363  10.384   1.176   5.265  0.1192 -0.7909 -2.3225
   40MOL0     H 5364  10.441   1.100   5.497  0.5543 -1.3279  2.4662
   40MOL0     H 5365  10.438   1.281   5.501 -3.5923  2.4535  0.2474
   40MOL0     H 5366  10.391   1.294   5.710  0.7043 -0.4481  1.2420
   40MOL0     H 5367  10.296   1.149   5.731 -0.7758 -1.2992 -2.6156
   40MOL0     H 5368  10.468   1.001   5.752  0.4264  0.8681 -1.1993
   40MOL0     H 5369  10.593   1.121   5.703  0.7002  1.7058  1.0988
   40MOL0     H 5370  10.467   1.253   5.902 -1.8749  0.3481 -0.4152
   40MOL0     H 5371  10.605   1.152   5.945 -1.5449  1.4908  2.1595
   40MOL0     H 5372  10.460   0.964   6.007 -2.7880 -1.2636 -0.3763
   40MOL0     H 5373  10.326   1.041   5.933 -0.4296  1.4452  0.6335
   40MOL0     H 5374  10.455   1.114   6.185  1.0356 -1.3551 -0.5884
   40MOL0     H 5375  10.345   1.227   6.097 -1.5125 -0.8704 -3.3472
   40MOL0     H 5376  10.251   1.099   6.287  0.9532  0.4411 -0.0971
   40MOL0     H 5377  10.262   0.944   6.190  0.3628 -0.6820  1.5103
   40MOL0     H 5378  10.134   1.117   6.031  0.9287 -0.7500  0.3213
   40MOL0     H 5379  10.047   1.027   6.162 -1.9857  1.0864 -0.2152
   40MOL0     H 5380  10.029   1.296   5.455 -3.6293  1.7267 -1.5323
   40MOL0     H 5381   9.950   1.393   5.210  0.0067  1.3576 -1.9567
   40MOL0     H 5382   9.915   1.370   4.850 -0.8093 -1.2973 -1.8927
   40MOL0     H 5383   9.793   1.414   4.625 -1.0357  0.7973  0.0985
   40MOL0     H 5384   8.705   2.415   4.901  0.4472  0.0371 -0.4380
   40MOL0     H 5385   8.674   2.623   4.774 -0.4631  0.1956 -0.2534
   40MOL0     H 5386   8.690   3.115   4.720 -0.0633  1.0716 -1.3977
   40MOL0     H 5387   8.700   3.311   4.569 -1.4561 -0.2069 -1.0235
   40MOL0     H 5388   8.919   3.262   4.159  3.6461 -4.8579  4.2248
   40MOL0     H 5389   9.036   3.339   4.275  0.9337 -0.3773 -1.3201
   40MOL0     H 5390   8.875   3.545   4.258 -1.9865  0.1507 -0.9940
   40MOL0     H 5391   8.811   3.458   4.125 -0.7598  0.6756  0.2837
   40MOL0     H 5392   9.011   3.465   4.001 -1.9850 -0.8700 -0.2501
   40MOL0     H 5393   9.110   3.504   4.147 -1.0347 -1.2429  1.3084
   40MOL0     H 5394   8.903   3.715   4.045 -0.0981  1.8016  0.6782
   40MOL0     H 5395   9.031   3.736   4.165 -1.4464 -1.0097  1.4178
   40MOL0     H 5396   9.274   3.703   3.814  0.7360  0.8026  1.3449
   40MOL0     H 5397   8.988   3.121   4.335  3.1970  1.7972  3.3663
   40MOL0     H 5398   9.059   2.859   4.511 -1.1824 -1.6664  0.2100
   40MOL0     H 5399   8.912   2.795   4.442 -0.5562  1.2721 -2.3001
   40MOL0     H 5400   9.006   2.895   4.333 -1.6042 -0.2988 -1.6352
   41MOL0     O 5401  10.378   8.645   6.650  0.3377  0.1079  0.0568
   41MOL0     C 5402  10.422   8.612   6.543  0.4254  0.0379  0.8406
   41MOL0     O 5403  10.395   8.496   6.487 -0.0410  0.5280 -0.3759
   41MOL0     C 5404  10.316   8.396   6.552 -0.3039  0.2877 -0.1617
   41MOL0     C 5405  10.370   8.322   6.659  0.1223 -0.0454  0.5168
   41MOL0     C 5406  10.306   8.210   6.713  1.0821  0.0670 -0.6290
   41MOL0     C 5407  10.190   8.171   6.662 -0.7213 -0.0545 -0.4373
   41MOL0     O 5408  10.130   8.072   6.726  1.0761 -0.4480  0.5059
   41MOL0     C 5409  10.121   7.940   6.670  0.9064 -0.6568 -0.8780
   41MOL0     C 5410  10.081   7.841   6.768  0.4205  0.7784 -0.3100
   41MOL0     C 5411  10.194   7.801   6.870 -0.0257 -0.2053 -0.5753
   41MOL0     C 5412  10.312   7.735   6.814  0.1443 -0.5748 -0.1818
   41MOL0     C 5413  10.286   7.617   6.722 -0.4602 -0.5399 -0.0666
   41MOL0     C 5414  10.420   7.574   6.651  0.0624  0.3755 -0.5027
   41MOL0     C 5415  10.389   7.469   6.545  0.1096  0.0568 -0.5569
   41MOL0     C 5416  10.518   7.412   6.483 -0.0886 -0.1051 -0.2603
   41MOL0     N 5417  10.504   7.305   6.389  0.0196  0.6473  0.0332
   41MOL0     C 5418  10.526   7.173   6.423 -1.5136  0.2220  0.2181
   41MOL0     C 5419  10.529   7.119   6.297 -0.4783 -0.2177 -0.5836
   41MOL0     C 5420  10.527   6.967   6.262  0.4743  0.0460  0.4516
   41MOL0     C 5421  10.414   6.880   6.323  0.0471  0.3625 -0.0570
   41MOL0     C 5422  10.437   6.729   6.299  0.5853  0.7810 -0.1362
   41MOL0     C 5423  10.561   6.673   6.377 -0.2349 -0.6026 -0.2738
   41MOL0     O 5424  10.675   6.700   6.301  0.0141  0.0476 -0.0017
   41MOL0     C 5425  10.782   6.611   6.312  0.5108 -0.1226 -0.3035
   41MOL0     C 5426  10.784   6.497   6.393  1.2689  0.8313 -0.1312
   41MOL0     C 5427  10.898   6.411   6.382 -0.1823 -0.3549  0.0356
   41MOL0     C 5428  11.005   6.434   6.300 -0.2830  0.1202  0.2625
   41MOL0     C 5429  11.123   6.340   6.299  0.2526 -0.0475  0.6727
   41MOL0     O 5430  11.236   6.393   6.255 -0.2204  0.0645  0.2868
   41MOL0     C 5431  11.365   6.340   6.239  0.4338  0.7340  0.2967
   41MOL0     C 5432  11.457   6.442   6.212 -1.4248 -0.6162 -0.2219
   41MOL0     C 5433  11.598   6.408   6.183  0.3712  0.1397  0.8526
   41MOL0     C 5434  11.634   6.275   6.184  0.1799 -0.5870 -0.7054
   41MOL0     O 5435  11.763   6.230   6.173 -0.7723  0.4354 -0.0191
   41MOL0     C 5436  11.878   6.314   6.138  0.0518 -0.3677 -0.0858
   41MOL0     C 5437  12.011   6.237   6.115  0.0150 -0.5050 -0.2419
   41MOL0     C 5438  12.012   6.138   6.004 -0.0801  0.4297 -0.0058
   41MOL0     C 5439  12.163   6.090   5.981  0.3785  0.6327  0.2751
   41MOL0     C 5440  12.172   5.982   5.866  0.2039 -0.5536 -0.0108
   41MOL0     C 5441  12.049   5.896   5.842 -0.0371  0.3400  0.3697
   41MOL0     C 5442  12.083   5.780   5.756  1.2131 -0.1013 -0.2145
   41MOL0     C 5443  11.968   5.687   5.715  0.3181 -0.6510 -0.2104
   41MOL0    Cl 5444  11.925   5.582   5.857  0.1089 -0.0975 -0.4352
   41MOL0     C 5445  11.532   6.174   6.213  0.8501 -0.1012  0.0665
   41MOL0     C 5446  11.397   6.197   6.227  0.2594 -0.6259 -0.1935
   41MOL0     O 5447  11.114   6.229   6.345  1.5216  1.0240 -0.8452
   41MOL0     C 5448  11.000   6.544   6.213  0.1567  1.1307 -0.6771
   41MOL0     C 5449  10.890   6.636   6.226  0.2447  0.4547  1.0748
   41MOL0     N 5450  10.507   7.216   6.207  0.0298  0.0194  0.4898
   41MOL0     N 5451  10.491   7.329   6.258 -1.5143  0.6827  0.1918
   41MOL0     C 5452  10.132   8.238   6.541 -0.1940  0.2595 -1.3180
   41MOL0     C 5453  10.201   8.352   6.483 -0.0642 -0.6804 -0.3011
   41MOL0     C 5454  10.504   8.697   6.454  0.3947 -0.3477  0.0295
   41MOL0     C 5455  10.558   8.649   6.330  0.0437  0.8714  0.0355
   41MOL0     C 5456  10.619   8.732   6.237 -0.3454 -0.3669  0.1131
   41MOL0     C 5457  10.643   8.865   6.276  0.6508 -0.6766 -0.3923
   41MOL0     O 5458  10.707   8.945   6.181  0.8541  0.6246 -1.0276
   41MOL0     C 5459  10.844   8.952   6.210 -0.5004 -0.1578 -0.9516
   41MOL0     C 5460  10.914   8.984   6.081  0.4404  0.4015  0.2366
   41MOL0     C 5461  10.855   9.102   6.011 -0.7877  0.1353  0.3703
   41MOL0     C 5462  10.935   9.121   5.882  0.6998 -0.2942  0.5731
   41MOL0     C 5463  11.077   9.167   5.889 -0.7499  0.3258  0.1470
   41MOL0     C 5464  11.197   9.192   5.912 -0.2307 -0.2532  0.2631
   41MOL0     C 5465  10.598   8.917   6.396  0.3482 -1.0912 -0.3016
   41MOL0     C 5466  10.523   8.839   6.486  0.5502 -0.2768 -0.4371
   41MOL0     C 5467  10.455   8.906   6.602 -0.3974 -0.2072  0.0118
   41MOL0     H 5468  10.457   8.361   6.712  0.6257 -0.2045 -0.1768
   41MOL0     H 5469  10.349   8.184   6.809 -4.1669 -0.1622  2.0335
   41MOL0     H 5470  10.036   7.935   6.602  1.0189  0.1547 -1.0879
   41MOL0     H 5471  10.207   7.904   6.612  0.8182 -2.7343  0.1584
   41MOL0     H 5472  10.041   7.754   6.715  3.4360  0.0042 -1.5261
   41MOL0     H 5473  10.002   7.889   6.828 -0.8379 -1.6843  0.1552
   41MOL0     H 5474  10.154   7.743   6.953  0.7283 -2.6758 -1.8109
   41MOL0     H 5475  10.231   7.894   6.913  0.0545 -0.2214 -0.6078
   41MOL0     H 5476  10.376   7.811   6.767 -0.2151 -1.5381 -2.3766
   41MOL0     H 5477  10.366   7.682   6.893 -2.7042 -0.5799  1.9306
   41MOL0     H 5478  10.252   7.536   6.788  0.6602  0.4041  1.7760
   41MOL0     H 5479  10.215   7.647   6.644  1.1124 -0.4304 -1.5007
   41MOL0     H 5480  10.486   7.648   6.605  3.4588 -2.8609 -1.2734
   41MOL0     H 5481  10.480   7.526   6.728  0.9529 -1.3845 -2.2283
   41MOL0     H 5482  10.337   7.523   6.465 -0.4537 -1.1259 -1.0113
   41MOL0     H 5483  10.321   7.394   6.587 -2.2053  2.3146 -0.0703
   41MOL0     H 5484  10.571   7.489   6.426  1.1935 -1.6384 -1.1986
   41MOL0     H 5485  10.586   7.396   6.567  1.6862 -1.6709 -1.8925
   41MOL0     H 5486  10.540   7.136   6.524  0.2885  1.4091  0.4475
   41MOL0     H 5487  10.514   6.950   6.155  3.3790 -0.3888  0.0680
   41MOL0     H 5488  10.628   6.928   6.280  0.9256  1.5103  1.2318
   41MOL0     H 5489  10.405   6.892   6.432 -1.1087  0.1514 -0.1157
   41MOL0     H 5490  10.316   6.896   6.277  0.3010 -3.4222 -2.4032
   41MOL0     H 5491  10.432   6.708   6.192  2.0746 -0.6064  0.0253
   41MOL0     H 5492  10.349   6.678   6.341  1.2885 -0.9304 -0.6488
   41MOL0     H 5493  10.538   6.566   6.367  3.2934 -1.5307  0.3339
   41MOL0     H 5494  10.559   6.708   6.480 -3.5823  0.4104 -0.5587
   41MOL0     H 5495  10.704   6.479   6.465 -0.4338 -2.5019 -2.6149
   41MOL0     H 5496  10.913   6.330   6.452  2.0730 -0.0402 -0.0216
   41MOL0     H 5497  11.432   6.544   6.238  2.2516  0.3533  0.0918
   41MOL0     H 5498  11.662   6.494   6.167 -0.9823  0.8998 -0.8105
   41MOL0     H 5499  11.874   6.393   6.064  3.4371 -0.8703 -0.9737
   41MOL0     H 5500  11.902   6.371   6.228  2.8286 -0.2481 -0.8300
   41MOL0     H 5501  12.089   6.310   6.092 -0.7200 -0.4919 -3.0760
   41MOL0     H 5502  12.037   6.187   6.209 -0.8932  1.0516  0.8930
   41MOL0     H 5503  11.939   6.061   6.031 -1.6872  1.9686  0.2578
   41MOL0     H 5504  11.979   6.194   5.916  0.5028  1.6984  0.5583
   41MOL0     H 5505  12.200   6.059   6.079  0.4484  0.8073  0.3045
   41MOL0     H 5506  12.218   6.181   5.953 -0.1191  0.9163  0.2071
   41MOL0     H 5507  12.254   5.910   5.877 -1.0467 -1.8204  1.6062
   41MOL0     H 5508  12.201   6.037   5.776  0.1031  3.2812  2.1117
   41MOL0     H 5509  12.013   5.848   5.934  2.8847 -0.4797  1.1968
   41MOL0     H 5510  11.968   5.957   5.801  0.4405 -0.0073 -1.1503
   41MOL0     H 5511  12.163   5.716   5.794 -0.4889 -4.4471 -3.1695
   41MOL0     H 5512  12.120   5.815   5.659 -0.6344 -0.3508 -1.0487
   41MOL0     H 5513  11.880   5.741   5.679  1.3169 -0.1899 -2.0912
   41MOL0     H 5514  11.997   5.634   5.623 -1.3631 -1.6338 -0.2151
   41MOL0     H 5515  11.558   6.069   6.214 -2.2311 -0.9681 -0.1917
   41MOL0     H 5516  11.323   6.120   6.245  2.9768 -2.9423  2.1125
   41MOL0     H 5517  11.082   6.567   6.146  0.1366  1.3962 -0.6111
   41MOL0     H 5518  10.891   6.726   6.166 -1.9528  1.5369  2.5262
   41MOL0     H 5519  10.036   8.207   6.500 -2.4908 -4.5530  5.6922
   41MOL0     H 5520  10.166   8.379   6.384 -2.1968  0.4376  0.6920
   41MOL0     H 5521  10.556   8.544   6.303 -0.0824  1.3855 -2.1986
   41MOL0     H 5522  10.642   8.712   6.133 -1.3779  1.4124 -0.5082
   41MOL0     H 5523  10.886   8.860   6.249  2.3409  0.1263 -3.0345
   41MOL0     H 5524  10.861   9.030   6.285  0.4300 -2.1495  1.0092
   41MOL0     H 5525  10.923   8.895   6.018 -1.5668 -2.1573  3.2795
   41MOL0     H 5526  11.018   9.005   6.110  1.0575  0.6908 -2.0065
   41MOL0     H 5527  10.868   9.180   6.086  1.5120 -1.0738  1.3381
   41MOL0     H 5528  10.752   9.079   5.981 -0.4655 -0.8243 -0.0391
   41MOL0     H 5529  10.930   9.033   5.817 -2.9945 -0.3480  0.7136
   41MOL0     H 5530  10.872   9.189   5.824  1.6820 -1.0046 -1.3981
   41MOL0     H 5531  11.298   9.228   5.920  0.3356 -1.2597 -1.6578
   41MOL0     H 5532  10.629   9.020   6.395  1.3279 -1.3611 -2.5041
   41MOL0     H 5533  10.505   9.003   6.608 -0.0711 -0.2218 -1.8990
   41MOL0     H 5534  10.346   8.918   6.599 -0.3188  0.4725 -0.2142
   41MOL0     H 5535  10.484   8.860   6.697 -2.2842 -1.0041  0.2476
   42MOL0     O 5536   3.984   5.367   5.651 -1.1253  0.0466 -0.1670
   42MOL0     C 5537   3.968   5.310   5.757 -0.4681  0.6281  0.4000
   42MOL0     O 5538   4.042   5.314   5.874  0.2989  0.3590  0.6179
   42MOL0     C 5539   4.165   5.373   5.878 -0.1226 -0.0948  0.2416
   42MOL0     C 5540   4.226   5.358   6.014  0.1159 -0.2475  0.5149
   42MOL0     C 5541   4.359   5.405   6.035 -0.8883 -0.4953 -0.4181
   42MOL0     C 5542   4.439   5.472   5.932 -0.7756 -0.2339  0.0956
   42MOL0     O 5543   4.559   5.544   5.958 -0.4144 -0.5386  0.6533
   42MOL0     C 5544   4.634   5.497   6.075 -1.1520 -0.1955  0.2589
   42MOL0     C 5545   4.752   5.590   6.087 -0.0458  0.2398  0.5453
   42MOL0     C 5546   4.879   5.542   6.013 -0.5800  0.2346 -0.1845
   42MOL0     C 5547   4.936   5.411   6.075  0.4125  0.3616 -0.0949
   42MOL0     C 5548   5.083   5.389   6.029 -0.2376  0.3194 -0.6468
   42MOL0     C 5549   5.113   5.250   5.986  0.1624  0.1192  0.5497
   42MOL0     C 5550   5.271   5.236   5.955  0.9629  0.6534 -0.1848
   42MOL0     C 5551   5.319   5.103   6.018 -0.1810 -0.1933  0.1135
   42MOL0     N 5552   5.273   5.076   6.156 -0.8727 -0.0729  0.4157
   42MOL0     C 5553   5.288   5.163   6.262 -0.3313  0.1195 -0.2511
   42MOL0     C 5554   5.212   5.107   6.365  0.1077  0.3110 -0.2220
   42MOL0     C 5555   5.212   5.144   6.512 -0.1400  0.3431  0.4305
   42MOL0     C 5556   5.304   5.053   6.607 -0.2004 -0.0019  0.3802
   42MOL0     C 5557   5.435   5.110   6.654 -0.1415 -0.3984  0.9086
   42MOL0     C 5558   5.501   5.013   6.754  0.5560 -0.5805 -0.5263
   42MOL0     O 5559   5.578   5.073   6.865  0.1445 -1.0046  0.2059
   42MOL0     C 5560   5.591   5.002   6.978 -0.2209  0.3110 -0.2363
   42MOL0     C 5561   5.564   4.865   6.997 -0.4655  0.0370  0.0538
   42MOL0     C 5562   5.596   4.810   7.131  0.6733  0.5502 -0.0679
   42MOL0     C 5563   5.647   4.881   7.235  0.2098  0.1423 -0.7771
   42MOL0     C 5564   5.677   4.813   7.369 -0.6442 -0.2784  0.7570
   42MOL0     O 5565   5.744   4.886   7.463  0.9475  0.4013  0.2839
   42MOL0     C 5566   5.714   4.850   7.594  0.3911 -0.8096  0.5749
   42MOL0     C 5567   5.591   4.852   7.660  0.2273  0.0853 -0.9246
   42MOL0     C 5568   5.579   4.848   7.801 -1.9199  0.3273  0.3985
   42MOL0     C 5569   5.694   4.835   7.880 -0.0720 -0.5360  0.1645
   42MOL0     O 5570   5.679   4.810   8.017  0.0831  0.5598  0.6085
   42MOL0     C 5571   5.762   4.711   8.076 -0.1730 -0.0989 -0.6939
   42MOL0     C 5572   5.700   4.574   8.075  0.3582  0.4875  0.0969
   42MOL0     C 5573   5.741   4.482   8.185 -1.1259 -0.8039 -0.4471
   42MOL0     C 5574   5.657   4.361   8.202 -0.1754  1.3587  0.2473
   42MOL0     C 5575   5.713   4.240   8.139 -0.1812  0.4331 -0.2861
   42MOL0     C 5576   5.618   4.124   8.131  0.2236 -0.2440  0.0425
   42MOL0     C 5577   5.498   4.131   8.040  0.6507 -0.1038  0.0828
   42MOL0     C 5578   5.522   4.170   7.889  0.8293 -0.4449 -0.3981
   42MOL0    Cl 5579   5.376   4.260   7.814 -0.3687 -0.1238 -0.1124
   42MOL0     C 5580   5.827   4.832   7.818 -0.1328 -0.1628  0.4959
   42MOL0     C 5581   5.830   4.824   7.670 -0.3879  0.3417 -0.5831
   42MOL0     O 5582   5.634   4.699   7.377  0.2931  0.3731  0.0120
   42MOL0     C 5583   5.673   5.014   7.209 -0.2887 -0.8348  0.0993
   42MOL0     C 5584   5.645   5.074   7.080 -0.5078  1.0835 -0.2242
   42MOL0     N 5585   5.141   4.999   6.312  0.3342  0.0587 -0.3412
   42MOL0     N 5586   5.192   4.977   6.191 -0.5415 -0.7892 -0.1148
   42MOL0     C 5587   4.377   5.488   5.814  0.0966 -0.6185  0.4480
   42MOL0     C 5588   4.249   5.432   5.782 -0.3267 -0.2011  0.2981
   42MOL0     C 5589   3.851   5.218   5.758 -0.2556  0.4699  0.4983
   42MOL0     C 5590   3.765   5.226   5.635  0.7455 -0.4734  0.5197
   42MOL0     C 5591   3.644   5.152   5.632  0.3196  1.2202  0.8972
   42MOL0     C 5592   3.604   5.070   5.737  0.1464  0.3542 -0.7168
   42MOL0     O 5593   3.483   5.004   5.730 -0.4915 -0.9492 -0.5419
   42MOL0     C 5594   3.431   4.937   5.844 -0.0070 -1.3322  0.1472
   42MOL0     C 5595   3.330   4.842   5.803  0.2078  0.3277  0.0864
   42MOL0     C 5596   3.279   4.758   5.927  0.6874 -0.3961 -0.1688
   42MOL0     C 5597   3.195   4.854   6.028  0.1365  0.2456  0.7933
   42MOL0     C 5598   3.109   4.780   6.127 -0.2256 -0.9130  0.2716
   42MOL0     C 5599   3.053   4.708   6.202 -0.2019  0.5643 -0.2621
   42MOL0     C 5600   3.687   5.066   5.849 -0.2881  0.1777 -0.5045
   42MOL0     C 5601   3.811   5.133   5.861  0.3882  0.7505 -0.5462
   42MOL0     C 5602   3.892   5.089   5.991 -0.7937 -0.3126  0.0527
   42MOL0     H 5603   4.169   5.309   6.092 -0.9048 -1.2941 -0.8449
   42MOL0     H 5604   4.405   5.362   6.123  0.8441  0.1402 -0.9709
   42MOL0     H 5605   4.561   5.506   6.156  1.3235  1.5358  2.4790
   42MOL0     H 5606   4.655   5.390   6.067 -2.4351 -0.3490 -4.9501
   42MOL0     H 5607   4.775   5.588   6.193  0.0910 -0.2724  0.5078
   42MOL0     H 5608   4.715   5.683   6.043 -0.3361 -0.3063 -0.4086
   42MOL0     H 5609   4.949   5.625   6.002 -1.0184  0.8433  1.4008
   42MOL0     H 5610   4.846   5.516   5.912  0.8703 -2.2543 -0.1064
   42MOL0     H 5611   4.933   5.414   6.184 -1.6692  1.1333 -0.1223
   42MOL0     H 5612   4.874   5.324   6.055  3.4723 -2.2496  0.9346
   42MOL0     H 5613   5.109   5.458   5.948 -1.3905  0.1652 -1.1577
   42MOL0     H 5614   5.146   5.430   6.109 -1.1412  2.2513 -0.8796
   42MOL0     H 5615   5.068   5.174   6.052  0.7301 -0.8025 -0.0919
   42MOL0     H 5616   5.057   5.226   5.895  0.6350 -4.1223  1.1391
   42MOL0     H 5617   5.326   5.312   6.011  1.9398 -2.1118  2.9068
   42MOL0     H 5618   5.294   5.239   5.848 -2.3550 -2.1109 -1.1637
   42MOL0     H 5619   5.289   5.019   5.955  0.9614  0.2665 -1.0972
   42MOL0     H 5620   5.428   5.105   6.009 -0.1082 -0.6973  0.8045
   42MOL0     H 5621   5.352   5.249   6.282  2.2369 -2.0423  1.5773
   42MOL0     H 5622   5.253   5.245   6.519 -1.5094  0.9018  0.7405
   42MOL0     H 5623   5.107   5.149   6.543 -1.0082  2.9504 -2.4174
   42MOL0     H 5624   5.238   5.040   6.694 -0.2014  0.6438  0.4823
   42MOL0     H 5625   5.323   4.953   6.567 -1.7129 -0.0570 -0.2877
   42MOL0     H 5626   5.401   5.205   6.697 -3.9778 -1.3114  0.2847
   42MOL0     H 5627   5.511   5.119   6.577 -0.7471  4.2352  0.5622
   42MOL0     H 5628   5.569   4.942   6.708  0.0109 -0.5414 -1.4179
   42MOL0     H 5629   5.412   4.958   6.785 -0.5017  1.4645  0.2877
   42MOL0     H 5630   5.522   4.805   6.917 -0.4162  4.8480 -4.1032
   42MOL0     H 5631   5.574   4.704   7.145  1.2513  0.4822  0.3533
   42MOL0     H 5632   5.500   4.877   7.607  0.3997  1.4915 -0.6155
   42MOL0     H 5633   5.482   4.852   7.851 -2.9950  1.4427 -1.6347
   42MOL0     H 5634   5.865   4.700   8.041  0.6801 -0.4260  1.7634
   42MOL0     H 5635   5.768   4.751   8.178 -1.6259 -0.8436 -0.2956
   42MOL0     H 5636   5.593   4.600   8.081  1.1772  4.6203 -0.2475
   42MOL0     H 5637   5.715   4.534   7.974  0.5289  2.0045 -0.4974
   42MOL0     H 5638   5.847   4.460   8.168 -0.8573 -0.8545  1.1567
   42MOL0     H 5639   5.746   4.541   8.277 -0.0044 -0.6058 -0.6209
   42MOL0     H 5640   5.563   4.390   8.154 -1.0190 -0.4345  0.7356
   42MOL0     H 5641   5.637   4.345   8.309 -0.5983  1.5740  0.2038
   42MOL0     H 5642   5.807   4.215   8.189 -2.3397 -2.6944  2.7488
   42MOL0     H 5643   5.733   4.269   8.035  0.6091  1.7897  0.2268
   42MOL0     H 5644   5.662   4.031   8.095 -0.8542 -1.0151  0.6716
   42MOL0     H 5645   5.585   4.103   8.233  0.0024  0.5127  0.1367
   42MOL0     H 5646   5.438   4.210   8.086  1.0051  0.1805  0.0649
   42MOL0     H 5647   5.432   4.044   8.040  1.1429 -0.4962  1.4980
   42MOL0     H 5648   5.612   4.231   7.878  1.9987 -2.4541 -3.2963
   42MOL0     H 5649   5.542   4.080   7.830  3.5063 -0.9810  1.1294
   42MOL0     H 5650   5.919   4.826   7.875  0.2363 -0.8573 -0.1525
   42MOL0     H 5651   5.924   4.828   7.616 -0.7389 -0.5253 -1.2775
   42MOL0     H 5652   5.720   5.085   7.277  0.0298 -0.8840 -0.0687
   42MOL0     H 5653   5.673   5.177   7.061  0.2519  0.4900 -2.8380
   42MOL0     H 5654   4.436   5.546   5.744 -0.8750  0.3416  0.4120
   42MOL0     H 5655   4.214   5.419   5.680 -1.0296 -1.1545  0.6528
   42MOL0     H 5656   3.790   5.285   5.548 -0.4472 -1.9290 -0.8975
   42MOL0     H 5657   3.572   5.163   5.552  0.0020 -0.2897  0.9419
   42MOL0     H 5658   3.388   5.000   5.922 -0.0198 -1.8720  0.5881
   42MOL0     H 5659   3.517   4.879   5.879  0.5542 -2.3918 -2.6734
   42MOL0     H 5660   3.375   4.779   5.726 -0.8083 -3.2203  2.1470
   42MOL0     H 5661   3.250   4.903   5.761  0.5121  2.3255  2.1989
   42MOL0     H 5662   3.357   4.713   5.989  1.3578  1.1013  0.1024
   42MOL0     H 5663   3.222   4.669   5.899  0.3510 -0.5640  1.0094
   42MOL0     H 5664   3.261   4.925   6.078  0.0697 -0.7411  2.3594
   42MOL0     H 5665   3.137   4.933   5.980 -1.1344 -0.2535  1.4681
   42MOL0     H 5666   2.999   4.644   6.269  0.6116 -4.2819 -3.6689
   42MOL0     H 5667   3.650   5.006   5.931 -2.1260 -0.3050 -1.6263
   42MOL0     H 5668   3.997   5.066   5.971 -0.7170 -1.2213  1.3881
   42MOL0     H 5669   3.889   5.172   6.062  0.3126  1.4272 -1.8480
   42MOL0     H 5670   3.846   4.996   6.028  1.1421 -2.1702 -1.9128
   43MOL0     O 5671   8.079   1.616  11.155  0.0066 -0.5505  0.5811
   43MOL0     C 5672   8.158   1.523  11.140 -0.5303 -0.6781  0.2168
   43MOL0     O 5673   8.212   1.444  11.246 -0.4703 -0.4699  1.2483
   43MOL0     C 5674   8.208   1.506  11.363 -0.0619 -0.3242  0.0250
   43MOL0     C 5675   8.092   1.492  11.447 -1.3914 -0.2676  0.4506
   43MOL0     C 5676   8.084   1.560  11.572 -0.5164  0.1537 -0.1274
   43MOL0     C 5677   8.179   1.661  11.599  0.3953 -0.4415 -0.0720
   43MOL0     O 5678   8.161   1.742  11.707  0.0792 -0.2674  0.1163
   43MOL0     C 5679   8.281   1.782  11.774  1.0467  0.1710 -0.2586
   43MOL0     C 5680   8.252   1.836  11.913 -1.0610 -0.3639  0.1401
   43MOL0     C 5681   8.383   1.874  11.982 -0.2614  0.7108 -0.4304
   43MOL0     C 5682   8.494   1.770  12.006  0.2635  0.2772 -1.4203
   43MOL0     C 5683   8.612   1.829  12.073 -0.0208  0.0997  0.9939
   43MOL0     C 5684   8.718   1.722  12.088  0.2810  0.8054 -0.2400
   43MOL0     C 5685   8.839   1.783  12.164 -0.3543 -0.3677  0.1847
   43MOL0     C 5686   8.941   1.670  12.160  0.3992  0.7732 -0.8670
   43MOL0     N 5687   9.067   1.724  12.193 -0.3480 -0.0527  0.0966
   43MOL0     C 5688   9.111   1.772  12.318  0.8846  0.4454 -0.0903
   43MOL0     C 5689   9.211   1.853  12.285  0.4214 -0.0585  0.4690
   43MOL0     C 5690   9.290   1.951  12.371 -0.0678 -0.1572 -0.2364
   43MOL0     C 5691   9.436   1.958  12.317  0.8487  0.7314  0.1862
   43MOL0     C 5692   9.511   2.032  12.418 -0.0650  0.3808 -0.0533
   43MOL0     C 5693   9.661   2.039  12.367  0.5589 -0.4860 -0.6413
   43MOL0     O 5694   9.731   1.911  12.337 -0.6875 -0.1516 -1.0424
   43MOL0     C 5695   9.855   1.911  12.270  1.1664 -0.5782 -0.2542
   43MOL0     C 5696   9.928   1.797  12.296 -0.7904  1.0947  1.0174
   43MOL0     C 5697  10.060   1.783  12.255  0.8490  0.4904 -0.0200
   43MOL0     C 5698  10.127   1.881  12.189 -0.1446 -0.0417 -1.0240
   43MOL0     C 5699  10.259   1.858  12.131  0.4781  0.2542  0.3305
   43MOL0     O 5700  10.329   1.973  12.078  0.7570 -0.2049 -0.4920
   43MOL0     C 5701  10.438   1.987  11.990 -0.2831  0.3153  0.0208
   43MOL0     C 5702  10.450   2.113  11.927 -0.9469  0.4871 -0.8443
   43MOL0     C 5703  10.555   2.149  11.843 -0.9789 -0.0908  0.1758
   43MOL0     C 5704  10.643   2.045  11.808  0.2916 -0.7717  0.0054
   43MOL0     O 5705  10.747   2.065  11.723 -0.7625 -0.0918 -0.4363
   43MOL0     C 5706  10.849   2.154  11.779  1.1600  0.0685  0.0559
   43MOL0     C 5707  10.966   2.144  11.685 -1.0119 -0.1915 -0.0339
   43MOL0     C 5708  10.945   2.234  11.552  0.6405  0.3906  0.6398
   43MOL0     C 5709  11.079   2.233  11.480 -0.1059 -0.7098  0.1419
   43MOL0     C 5710  11.088   2.290  11.345 -0.2921  0.4033 -0.0884
   43MOL0     C 5711  11.223   2.266  11.278 -0.3023  0.8039  0.6361
   43MOL0     C 5712  11.245   2.335  11.145 -0.1984  0.4469  0.6426
   43MOL0     C 5713  11.382   2.304  11.078 -0.6452  0.2296  0.4786
   43MOL0    Cl 5714  11.397   2.413  10.933 -0.4478  0.3293 -0.1638
   43MOL0     C 5715  10.619   1.916  11.851 -1.2114 -0.8698 -0.9758
   43MOL0     C 5716  10.531   1.885  11.950  0.1324  0.6804  0.3682
   43MOL0     O 5717  10.292   1.735  12.110 -0.1882  0.1248  0.1335
   43MOL0     C 5718  10.062   2.000  12.166  0.1196 -0.7264 -0.7095
   43MOL0     C 5719   9.926   2.020  12.208  0.1478  0.4637 -0.5303
   43MOL0     N 5720   9.213   1.875  12.144  0.2908  0.7369  0.8791
   43MOL0     N 5721   9.128   1.792  12.092 -0.2616  1.0362  0.0633
   43MOL0     C 5722   8.284   1.679  11.504 -1.1949 -0.4821 -0.1795
   43MOL0     C 5723   8.311   1.595  11.398  0.5977 -0.1846 -0.3995
   43MOL0     C 5724   8.179   1.468  11.004 -0.1436  0.9769  0.0312
   43MOL0     C 5725   8.186   1.329  10.974  0.1044  0.3223 -0.5328
   43MOL0     C 5726   8.185   1.270  10.849  0.5503 -0.6159 -0.3112
   43MOL0     C 5727   8.189   1.356  10.731  1.2766 -0.2058  0.8718
   43MOL0     O 5728   8.173   1.304  10.601 -0.7776 -1.1716 -0.5317
   43MOL0     C 5729   8.286   1.341  10.515 -0.3440 -0.2572 -0.4287
   43MOL0     C 5730   8.414   1.260  10.551 -1.7453 -0.3460 -0.0210
   43MOL0     C 5731   8.384   1.113  10.519 -0.6545 -1.4698 -0.0551
   43MOL0     C 5732   8.423   1.069  10.375  0.1793 -0.8143 -0.0768
   43MOL0     C 5733   8.399   0.925  10.375  0.5017 -0.3423 -0.1760
   43MOL0     C 5734   8.364   0.809  10.377  0.6767  0.0373 -0.1374
   43MOL0     C 5735   8.183   1.489  10.754 -0.1345  0.4282 -0.1250
   43MOL0     C 5736   8.179   1.548  10.886  0.0701 -0.5598  0.3901
   43MOL0     C 5737   8.185   1.706  10.902  0.3287  0.1150  0.3379
   43MOL0     H 5738   8.009   1.425  11.428 -1.0938 -0.5159  0.0142
   43MOL0     H 5739   8.001   1.547  11.641 -1.8025  5.0517 -0.3625
   43MOL0     H 5740   8.337   1.689  11.787 -1.3326 -1.5985 -1.8246
   43MOL0     H 5741   8.336   1.862  11.723  1.5495 -0.4597 -0.7310
   43MOL0     H 5742   8.201   1.762  11.976 -0.1932  1.3800  3.0966
   43MOL0     H 5743   8.178   1.917  11.909 -2.2117 -1.4378 -1.5401
   43MOL0     H 5744   8.354   1.924  12.075 -4.5799  0.0582 -1.2003
   43MOL0     H 5745   8.429   1.955  11.924 -1.5943  2.2960  0.6232
   43MOL0     H 5746   8.472   1.690  12.077  1.5556  2.8590  2.1408
   43MOL0     H 5747   8.535   1.729  11.913  1.9069  0.0101 -0.6285
   43MOL0     H 5748   8.644   1.915  12.013  0.6013 -0.1860  0.9065
   43MOL0     H 5749   8.584   1.861  12.174 -0.9787 -0.7233  1.0017
   43MOL0     H 5750   8.675   1.637  12.142 -0.8995  1.1023 -0.6841
   43MOL0     H 5751   8.762   1.684  11.995  2.0460 -2.6601  1.8082
   43MOL0     H 5752   8.812   1.810  12.266  1.2315  0.2873  0.4659
   43MOL0     H 5753   8.876   1.879  12.125  1.5308 -0.5742  1.3326
   43MOL0     H 5754   8.898   1.586  12.216 -0.5266  1.1069 -1.0582
   43MOL0     H 5755   8.952   1.630  12.059 -1.7713 -1.0904 -0.4372
   43MOL0     H 5756   9.058   1.750  12.410 -2.3026 -1.6649 -2.2187
   43MOL0     H 5757   9.234   2.045  12.360  0.6421  0.5236  1.6036
   43MOL0     H 5758   9.291   1.927  12.477  2.8176  1.4402  0.2125
   43MOL0     H 5759   9.483   1.859  12.308  2.9113  1.7534 -0.9845
   43MOL0     H 5760   9.439   2.006  12.219 -2.3923 -0.1252 -0.4687
   43MOL0     H 5761   9.511   1.977  12.512  1.1643  1.6910  0.7470
   43MOL0     H 5762   9.464   2.130  12.427 -1.5952 -0.1019 -1.9416
   43MOL0     H 5763   9.721   2.091  12.442 -0.4128 -1.6278  1.0154
   43MOL0     H 5764   9.650   2.106  12.281  1.4563  0.4239 -0.0683
   43MOL0     H 5765   9.888   1.716  12.356 -0.0629 -0.0974 -0.0520
   43MOL0     H 5766  10.109   1.689  12.277  3.5176  1.8513  0.3468
   43MOL0     H 5767  10.370   2.184  11.947 -0.5883  0.4440  0.9280
   43MOL0     H 5768  10.574   2.240  11.788  0.1243 -1.1903 -1.3552
   43MOL0     H 5769  10.802   2.252  11.775 -0.1710 -0.5121  0.9229
   43MOL0     H 5770  10.868   2.121  11.882 -2.0690 -1.5662  0.2443
   43MOL0     H 5771  11.055   2.186  11.733  0.0794 -0.2360 -1.9268
   43MOL0     H 5772  10.988   2.041  11.655  0.8365 -1.7658  5.5806
   43MOL0     H 5773  10.867   2.190  11.490 -1.9834  1.9811  2.6139
   43MOL0     H 5774  10.922   2.340  11.562 -1.0158  0.1133 -0.0194
   43MOL0     H 5775  11.102   2.127  11.465 -2.4565 -1.0846 -1.2717
   43MOL0     H 5776  11.156   2.279  11.542 -1.1450 -1.0903  1.7658
   43MOL0     H 5777  11.072   2.397  11.358 -2.1065 -0.0507  2.0133
   43MOL0     H 5778  11.016   2.254  11.271 -1.6437 -0.2251  1.4686
   43MOL0     H 5779  11.292   2.315  11.348  0.5146 -0.7304  0.9313
   43MOL0     H 5780  11.243   2.159  11.279  0.0316  0.6512 -3.6702
   43MOL0     H 5781  11.229   2.443  11.152  1.2811  0.5828  3.7058
   43MOL0     H 5782  11.176   2.286  11.076  1.5767 -2.1421  0.5559
   43MOL0     H 5783  11.468   2.313  11.145 -1.3590  0.7201  1.3734
   43MOL0     H 5784  11.364   2.203  11.041 -0.0928  0.0501  0.7018
   43MOL0     H 5785  10.682   1.840  11.806  0.6805  0.5970 -0.8879
   43MOL0     H 5786  10.520   1.789  11.999 -1.6609  0.7313  0.1289
   43MOL0     H 5787  10.117   2.079  12.115  0.2423 -2.3431 -3.2570
   43MOL0     H 5788   9.881   2.118  12.194  2.6237  1.3820 -2.7775
   43MOL0     H 5789   8.360   1.754  11.521 -1.3924 -0.7810  2.3339
   43MOL0     H 5790   8.394   1.612  11.330  1.2287 -1.9814 -0.1293
   43MOL0     H 5791   8.165   1.270  11.063  1.5814  0.8104  0.1698
   43MOL0     H 5792   8.182   1.162  10.838  0.2593 -0.6802  0.3933
   43MOL0     H 5793   8.307   1.447  10.525  2.9554 -0.9276  1.2719
   43MOL0     H 5794   8.260   1.315  10.412 -2.5280 -0.4046  0.1143
   43MOL0     H 5795   8.430   1.266  10.659 -0.7648  3.9511 -0.2297
   43MOL0     H 5796   8.499   1.301  10.497 -1.6102  0.3836  0.7210
   43MOL0     H 5797   8.279   1.081  10.523 -0.6178 -1.5861  0.0221
   43MOL0     H 5798   8.440   1.061  10.597  3.0298  0.8825 -0.8959
   43MOL0     H 5799   8.369   1.118  10.294  2.0454 -3.7286 -3.3639
   43MOL0     H 5800   8.531   1.085  10.362  0.8355 -3.1500  1.7619
   43MOL0     H 5801   8.324   0.717  10.414 -2.1137  2.0614  2.4107
   43MOL0     H 5802   8.186   1.556  10.669 -1.4946 -0.3128 -0.7802
   43MOL0     H 5803   8.079   1.732  10.892 -0.2311 -2.2654 -0.7452
   43MOL0     H 5804   8.219   1.737  11.001  0.4239  0.3105  0.2429
   43MOL0     H 5805   8.241   1.756  10.823 -1.0266  1.7853  0.3834
   44MOL0     O 5806   3.213   1.823   3.009 -0.5012 -0.5911  0.8003
   44MOL0     C 5807   3.331   1.838   3.026  0.5377  0.8152  0.3526
   44MOL0     O 5808   3.417   1.892   2.932  0.4226 -0.5734 -0.1487
   44MOL0     C 5809   3.370   1.977   2.830 -0.4001  0.0593 -1.2255
   44MOL0     C 5810   3.454   1.979   2.727 -0.2687  0.0576 -0.5205
   44MOL0     C 5811   3.418   2.041   2.604 -0.4594  0.0910 -0.4348
   44MOL0     C 5812   3.290   2.099   2.592 -0.5314  1.3836  0.2572
   44MOL0     O 5813   3.255   2.143   2.466  0.7579 -0.4728 -0.0133
   44MOL0     C 5814   3.165   2.253   2.443 -0.6856 -0.0171  0.2642
   44MOL0     C 5815   3.115   2.223   2.308 -0.5222  0.0139  0.2958
   44MOL0     C 5816   3.007   2.323   2.269 -0.3146 -0.0455  0.1673
   44MOL0     C 5817   2.973   2.311   2.115  0.6684 -0.2809 -0.5534
   44MOL0     C 5818   2.901   2.177   2.074 -0.0478  0.1179  0.7536
   44MOL0     C 5819   2.848   2.183   1.928 -0.0197 -0.9427 -0.3598
   44MOL0     C 5820   2.797   2.042   1.881  0.5332 -0.1600  0.1176
   44MOL0     C 5821   2.717   2.040   1.751  0.4878 -0.2937 -0.6207
   44MOL0     N 5822   2.801   2.054   1.626  0.3537 -0.5397 -0.3477
   44MOL0     C 5823   2.861   2.166   1.580  0.0844 -0.4840  0.0683
   44MOL0     C 5824   2.960   2.136   1.488  0.5294 -0.5985  0.8188
   44MOL0     C 5825   3.060   2.222   1.411 -0.1884  0.4136  1.8160
   44MOL0     C 5826   3.140   2.308   1.500  0.7565  0.4036  0.4039
   44MOL0     C 5827   3.204   2.232   1.609 -1.0474 -0.1928 -1.1207
   44MOL0     C 5828   3.278   2.330   1.701 -0.0748 -0.2784 -0.3298
   44MOL0     O 5829   3.411   2.369   1.656  0.3721 -0.2921 -0.9733
   44MOL0     C 5830   3.464   2.493   1.678 -0.2198  0.1320 -0.3643
   44MOL0     C 5831   3.592   2.498   1.730  0.0351  0.4622 -0.3513
   44MOL0     C 5832   3.650   2.626   1.746 -0.5245 -0.6575  0.4002
   44MOL0     C 5833   3.580   2.742   1.715 -0.2882  0.0363 -0.6687
   44MOL0     C 5834   3.650   2.876   1.753  0.6804  0.4764  0.1296
   44MOL0     O 5835   3.780   2.894   1.722 -0.5754 -0.4265  0.0586
   44MOL0     C 5836   3.850   3.013   1.753  0.4857  0.8025  0.2815
   44MOL0     C 5837   3.937   3.060   1.667 -0.2568  0.0210  0.8812
   44MOL0     C 5838   3.993   3.187   1.700  0.1915  0.3048  0.2121
   44MOL0     C 5839   3.978   3.243   1.827  0.6094 -0.3159  0.1857
   44MOL0     O 5840   4.055   3.356   1.853  0.2302 -0.0428  0.8819
   44MOL0     C 5841   4.140   3.324   1.964 -0.0730  0.6752  0.0360
   44MOL0     C 5842   4.288   3.325   1.934  0.6532  0.5396 -0.4053
   44MOL0     C 5843   4.365   3.299   2.065 -0.6361  0.0766 -0.7546
   44MOL0     C 5844   4.518   3.299   2.045  0.4620  0.1518 -0.5519
   44MOL0     C 5845   4.603   3.252   2.166  0.9347  0.7962 -0.1388
   44MOL0     C 5846   4.570   3.327   2.298 -0.2039  0.6295  0.8332
   44MOL0     C 5847   4.677   3.330   2.407 -0.3183  0.7503 -0.0243
   44MOL0     C 5848   4.653   3.438   2.506 -0.6218 -0.4187 -0.5056
   44MOL0    Cl 5849   4.616   3.603   2.426 -0.0920  0.1784 -0.1813
   44MOL0     C 5850   3.893   3.194   1.922 -0.4612  0.3185  0.2425
   44MOL0     C 5851   3.824   3.082   1.885 -0.4667 -1.0015  0.2832
   44MOL0     O 5852   3.576   2.965   1.794  0.8611  0.8763  0.4853
   44MOL0     C 5853   3.451   2.732   1.666 -0.2470 -0.7810  0.7598
   44MOL0     C 5854   3.386   2.608   1.652  0.8115 -0.6321 -0.2334
   44MOL0     N 5855   2.941   2.006   1.454 -0.0834  0.4105  0.5945
   44MOL0     N 5856   2.849   1.958   1.543  0.7523  0.2054 -0.1214
   44MOL0     C 5857   3.197   2.091   2.701  0.3396 -0.1582 -0.3838
   44MOL0     C 5858   3.246   2.035   2.820  0.2975 -0.8267  0.6084
   44MOL0     C 5859   3.384   1.779   3.152 -0.8640  0.6690  0.8180
   44MOL0     C 5860   3.519   1.735   3.160  0.3770 -0.1077  0.8807
   44MOL0     C 5861   3.572   1.660   3.265  0.7289 -0.6679  0.0041
   44MOL0     C 5862   3.500   1.629   3.387  0.8384 -0.5398  0.1976
   44MOL0     O 5863   3.564   1.591   3.502  0.6661 -0.4858  0.3886
   44MOL0     C 5864   3.709   1.587   3.513 -0.4100 -0.1384  0.0516
   44MOL0     C 5865   3.752   1.454   3.564 -0.2436  0.2118  0.1275
   44MOL0     C 5866   3.903   1.450   3.616 -0.0566 -0.8154 -1.0068
   44MOL0     C 5867   3.973   1.310   3.620  0.6804  0.4432  0.6228
   44MOL0     C 5868   4.111   1.337   3.658  0.3773  0.3866 -0.0981
   44MOL0     C 5869   4.224   1.365   3.705  1.0770 -0.1355  0.6849
   44MOL0     C 5870   3.369   1.682   3.390 -0.2695  0.0484 -0.0416
   44MOL0     C 5871   3.308   1.755   3.283  0.4269 -0.2365  0.5385
   44MOL0     C 5872   3.163   1.783   3.300 -0.6758  0.1192 -0.0766
   44MOL0     H 5873   3.549   1.929   2.741 -0.9690 -1.7694 -1.8078
   44MOL0     H 5874   3.492   2.040   2.526  1.1319 -0.6128  1.0213
   44MOL0     H 5875   3.086   2.253   2.518 -1.4950 -3.2714 -0.4009
   44MOL0     H 5876   3.216   2.349   2.447 -1.7943  0.5768  0.3285
   44MOL0     H 5877   3.073   2.123   2.304  0.4580 -0.3851 -3.1146
   44MOL0     H 5878   3.195   2.227   2.234  0.7547 -0.0874  1.6375
   44MOL0     H 5879   3.042   2.424   2.292 -2.6155  0.4857  1.6641
   44MOL0     H 5880   2.912   2.309   2.320 -1.6828  0.1457 -2.1964
   44MOL0     H 5881   2.903   2.391   2.088  0.6211 -0.8194 -2.1199
   44MOL0     H 5882   3.066   2.319   2.057  0.7526  0.4878 -0.3211
   44MOL0     H 5883   2.962   2.088   2.094 -2.6209 -1.8201  0.5662
   44MOL0     H 5884   2.817   2.167   2.143  1.8903 -0.3593  3.1472
   44MOL0     H 5885   2.756   2.243   1.932 -1.1637 -2.6073  3.3408
   44MOL0     H 5886   2.917   2.240   1.866 -1.4969  2.3886  0.8131
   44MOL0     H 5887   2.737   2.002   1.963  1.9782 -0.0380  1.2651
   44MOL0     H 5888   2.883   1.973   1.878  0.4963 -0.3944  2.6729
   44MOL0     H 5889   2.681   1.937   1.742  1.0877 -0.6719  1.0918
   44MOL0     H 5890   2.634   2.111   1.749  0.0316 -0.5614  2.8540
   44MOL0     H 5891   2.852   2.263   1.627 -0.1856 -0.9016  0.9176
   44MOL0     H 5892   3.123   2.152   1.354 -1.0856  1.7817 -1.0616
   44MOL0     H 5893   3.009   2.291   1.343  3.4211  2.5680  1.0284
   44MOL0     H 5894   3.201   2.363   1.428  0.5000 -0.8131 -0.7874
   44MOL0     H 5895   3.072   2.379   1.549 -0.0537 -1.9379  2.9759
   44MOL0     H 5896   3.281   2.158   1.582  1.0300  1.4929 -0.0824
   44MOL0     H 5897   3.129   2.167   1.655 -0.2594 -2.3301 -2.6706
   44MOL0     H 5898   3.286   2.289   1.802 -2.9417  1.9219  0.9282
   44MOL0     H 5899   3.220   2.421   1.721  1.0372  0.3085  0.2818
   44MOL0     H 5900   3.635   2.404   1.761  0.1486  0.7087  0.2538
   44MOL0     H 5901   3.744   2.608   1.797 -0.5525  0.8150  1.0454
   44MOL0     H 5902   3.967   3.017   1.571  0.2406  0.2570  0.9263
   44MOL0     H 5903   4.050   3.239   1.624 -2.1030  1.4676 -0.8175
   44MOL0     H 5904   4.116   3.379   2.056  3.6953 -1.5954  2.6841
   44MOL0     H 5905   4.123   3.219   1.993 -2.0155  0.6442 -1.0592
   44MOL0     H 5906   4.319   3.245   1.866  1.6403  0.9938 -0.5067
   44MOL0     H 5907   4.318   3.418   1.886  3.6146  1.0522  2.1514
   44MOL0     H 5908   4.355   3.378   2.141 -2.6018 -2.4735  1.8821
   44MOL0     H 5909   4.339   3.207   2.119  1.7374 -0.5670 -0.5617
   44MOL0     H 5910   4.563   3.393   2.013  1.6604 -0.7381 -1.5983
   44MOL0     H 5911   4.516   3.228   1.962 -0.1895 -0.2952 -0.1674
   44MOL0     H 5912   4.709   3.256   2.141  0.9839  0.7746  0.0669
   44MOL0     H 5913   4.578   3.146   2.178  1.6169  0.7765  1.1762
   44MOL0     H 5914   4.549   3.426   2.256  3.1807  0.5476 -1.4755
   44MOL0     H 5915   4.473   3.285   2.326 -0.2964 -0.1471 -0.5467
   44MOL0     H 5916   4.774   3.340   2.358  1.0259  1.8859  2.7297
   44MOL0     H 5917   4.679   3.234   2.459  1.2335  0.6485 -0.2314
   44MOL0     H 5918   4.573   3.415   2.576  0.6715  2.4987  2.1376
   44MOL0     H 5919   4.744   3.445   2.566 -1.5022  1.8823  0.6796
   44MOL0     H 5920   3.885   3.230   2.024 -0.4003 -0.4063  0.5087
   44MOL0     H 5921   3.759   3.041   1.960 -0.9282 -0.9070 -0.0591
   44MOL0     H 5922   3.390   2.820   1.653  0.3211 -0.1809  1.9146
   44MOL0     H 5923   3.287   2.603   1.610  0.6995 -0.2605 -0.0165
   44MOL0     H 5924   3.092   2.114   2.718 -0.1838 -1.9127 -1.0144
   44MOL0     H 5925   3.179   2.023   2.904 -1.3452 -2.3391 -0.8280
   44MOL0     H 5926   3.569   1.758   3.066 -1.1734 -0.5342 -0.0838
   44MOL0     H 5927   3.664   1.603   3.257  1.5566  0.2367  2.2745
   44MOL0     H 5928   3.737   1.651   3.597 -0.3909 -3.7928  3.0852
   44MOL0     H 5929   3.762   1.606   3.419  2.6369 -0.7596  1.5193
   44MOL0     H 5930   3.757   1.393   3.474  0.2185  2.2861 -1.3124
   44MOL0     H 5931   3.686   1.419   3.645  1.2598 -1.7084  0.6144
   44MOL0     H 5932   3.905   1.492   3.717 -3.2844 -1.4969 -0.5332
   44MOL0     H 5933   3.958   1.514   3.547  1.4020  2.8701  3.1158
   44MOL0     H 5934   3.919   1.250   3.693  1.5844 -2.4032 -0.8997
   44MOL0     H 5935   3.964   1.259   3.524  0.9828 -2.3560  2.0031
   44MOL0     H 5936   4.317   1.400   3.746  0.9677  0.9530  0.0306
   44MOL0     H 5937   3.314   1.679   3.483 -0.3319 -0.3707 -0.0922
   44MOL0     H 5938   3.135   1.882   3.262 -0.3058 -0.5755 -2.3354
   44MOL0     H 5939   3.108   1.706   3.244 -1.9586  0.0072  1.2946
   44MOL0     H 5940   3.140   1.778   3.406  1.0323  2.4523  0.5035
   45MOL0     O 5941   0.723   0.217   2.826  0.0889 -0.4700  0.1856
   45MOL0     C 5942   0.615   0.233   2.880 -0.3830  0.6029 -0.4113
   45MOL0     O 5943   0.593   0.317   2.989  0.2839 -0.2632 -0.4334
   45MOL0     C 5944   0.677   0.409   3.038 -1.1378  0.0942 -1.2604
   45MOL0     C 5945   0.797   0.449   2.975 -0.3335  0.5617 -1.3531
   45MOL0     C 5946   0.885   0.543   3.024  0.1520 -0.3506 -0.4664
   45MOL0     C 5947   0.865   0.589   3.156 -0.3911 -0.3499 -0.1309
   45MOL0     O 5948   0.954   0.670   3.216 -0.4566  0.0950 -0.1273
   45MOL0     C 5949   0.954   0.805   3.184 -0.6915 -1.5950 -0.4804
   45MOL0     C 5950   1.034   0.876   3.288 -0.8606  0.5606 -0.6309
   45MOL0     C 5951   0.975   0.837   3.428 -0.3943  0.1368 -1.2312
   45MOL0     C 5952   1.056   0.914   3.539  0.2571 -1.1109  0.3086
   45MOL0     C 5953   1.027   0.874   3.688 -1.2645  0.8375 -0.5954
   45MOL0     C 5954   0.894   0.913   3.726 -0.8381 -1.1307 -0.1537
   45MOL0     C 5955   0.877   0.902   3.863  0.1234 -1.0701 -0.3047
   45MOL0     C 5956   0.778   0.799   3.910  0.5327 -0.0983 -0.2033
   45MOL0     N 5957   0.763   0.673   3.834  0.7249  0.0198  0.5080
   45MOL0     C 5958   0.867   0.580   3.821  0.9101 -0.2953 -0.3588
   45MOL0     C 5959   0.827   0.510   3.719 -0.9416  0.0800 -0.1175
   45MOL0     C 5960   0.898   0.392   3.656 -1.3832 -0.4556  0.3670
   45MOL0     C 5961   0.899   0.396   3.510  0.8177  0.4969 -0.5842
   45MOL0     C 5962   1.002   0.287   3.458 -0.3367 -0.2681  0.2596
   45MOL0     C 5963   1.003   0.286   3.306 -0.6541  0.1390  0.2400
   45MOL0     O 5964   1.108   0.202   3.265 -0.2722 -0.1959 -0.5859
   45MOL0     C 5965   1.123   0.167   3.131  0.8040 -0.4161  0.5082
   45MOL0     C 5966   1.035   0.207   3.029 -0.2914  0.4834 -0.6224
   45MOL0     C 5967   1.064   0.166   2.895  0.9060  0.2680 -0.1040
   45MOL0     C 5968   1.174   0.086   2.867  0.2237  0.3768  0.3183
   45MOL0     C 5969   1.198   0.045   2.728  0.7026 -0.1747 -0.0322
   45MOL0     O 5970   1.325   0.024   2.681  0.1436  0.2842 -0.3739
   45MOL0     C 5971   1.358  -0.013   2.558 -0.2290 -0.3906  0.9140
   45MOL0     C 5972   1.479   0.031   2.508  0.4560 -0.2308 -0.4902
   45MOL0     C 5973   1.507   0.016   2.376  0.3824  0.3857  0.2088
   45MOL0     C 5974   1.431  -0.061   2.287  0.4032 -0.5133 -0.5538
   45MOL0     O 5975   1.450  -0.076   2.156  0.9548 -0.3735  0.1514
   45MOL0     C 5976   1.526   0.019   2.090  0.8278  0.0820 -0.9606
   45MOL0     C 5977   1.546  -0.015   1.938 -0.5921 -1.5849  0.3753
   45MOL0     C 5978   1.641  -0.125   1.913 -0.2228  0.3889  0.1007
   45MOL0     C 5979   1.648  -0.156   1.761  0.4135 -0.0401  0.4505
   45MOL0     C 5980   1.745  -0.257   1.731 -0.0989 -0.1487 -0.4927
   45MOL0     C 5981   1.791  -0.256   1.585 -0.6766 -0.1058 -0.1313
   45MOL0     C 5982   1.851  -0.391   1.556 -0.1842  0.3857  0.1326
   45MOL0     C 5983   1.953  -0.386   1.440 -0.0896  0.0838 -0.0994
   45MOL0    Cl 5984   2.088  -0.259   1.477 -0.0864  0.2306 -0.0541
   45MOL0     C 5985   1.315  -0.117   2.346  0.5636 -0.8738  0.9875
   45MOL0     C 5986   1.276  -0.094   2.473 -1.1361  0.1387 -0.7565
   45MOL0     O 5987   1.097   0.024   2.660 -0.1837 -0.3355  0.5592
   45MOL0     C 5988   1.268   0.063   2.970 -0.4616 -0.4812  0.1681
   45MOL0     C 5989   1.237   0.099   3.100 -0.5750  0.6053 -0.0316
   45MOL0     N 5990   0.703   0.538   3.683  0.3046 -1.1824 -1.0003
   45MOL0     N 5991   0.669   0.646   3.745 -0.3252  0.6857  0.2186
   45MOL0     C 5992   0.752   0.548   3.228 -0.0666  0.9701 -0.0119
   45MOL0     C 5993   0.658   0.461   3.172  0.0569 -0.2080 -0.1519
   45MOL0     C 5994   0.501   0.149   2.848  0.0950 -0.0854 -0.0211
   45MOL0     C 5995   0.366   0.202   2.878 -0.7207  0.5189  0.7662
   45MOL0     C 5996   0.247   0.127   2.846  0.4874 -1.0750  0.8734
   45MOL0     C 5997   0.258  -0.002   2.809 -0.7491 -0.4958  0.3559
   45MOL0     O 5998   0.147  -0.077   2.785  0.6443 -0.4320  0.1963
   45MOL0     C 5999   0.030  -0.059   2.873 -0.0090  0.2886 -0.1783
   45MOL0     C 6000  -0.086  -0.158   2.846  0.4763  0.3150  0.2763
   45MOL0     C 6001  -0.157  -0.140   2.716 -0.5658 -1.0639  0.2173
   45MOL0     C 6002  -0.263  -0.024   2.725  0.4261 -1.2350 -0.2009
   45MOL0     C 6003  -0.325   0.001   2.594 -1.0628  0.6203 -0.3748
   45MOL0     C 6004  -0.360   0.021   2.482  0.4838  0.1246  0.2723
   45MOL0     C 6005   0.386  -0.048   2.772  0.1570 -0.6978 -0.1108
   45MOL0     C 6006   0.510   0.023   2.783 -0.1476 -0.7199  0.9231
   45MOL0     C 6007   0.644  -0.048   2.747 -0.1224 -0.5597  0.3887
   45MOL0     H 6008   0.828   0.417   2.876 -0.3581 -0.7489 -0.9527
   45MOL0     H 6009   0.964   0.587   2.964 -0.9193  1.9478 -0.3058
   45MOL0     H 6010   0.998   0.831   3.088 -1.6235  2.4010 -0.0227
   45MOL0     H 6011   0.852   0.844   3.176 -0.1775  0.2723  1.0309
   45MOL0     H 6012   1.039   0.983   3.264 -2.3517  0.9093  0.4596
   45MOL0     H 6013   1.138   0.844   3.287 -0.2144  2.5339 -0.6005
   45MOL0     H 6014   0.973   0.731   3.456 -3.3408  0.3307 -0.3653
   45MOL0     H 6015   0.872   0.871   3.437 -0.3828 -0.2927  1.8234
   45MOL0     H 6016   1.160   0.899   3.511 -0.1366 -0.9156 -1.3974
   45MOL0     H 6017   1.022   1.016   3.518 -2.4947 -2.0996 -0.5468
   45MOL0     H 6018   1.039   0.766   3.703 -0.9220  1.2452  2.5434
   45MOL0     H 6019   1.095   0.937   3.747 -1.4492 -1.0396  1.7558
   45MOL0     H 6020   0.897   1.016   3.690 -0.8379 -0.8274  0.7045
   45MOL0     H 6021   0.818   0.862   3.666 -2.4522  0.3512  0.5477
   45MOL0     H 6022   0.841   1.002   3.888  1.3654 -0.6249 -0.2317
   45MOL0     H 6023   0.975   0.889   3.910  0.2691  1.6302  0.2899
   45MOL0     H 6024   0.813   0.783   4.012 -0.9294  0.0246  0.3309
   45MOL0     H 6025   0.682   0.849   3.923  0.1507 -0.7546 -0.4568
   45MOL0     H 6026   0.966   0.581   3.867  0.1638 -0.0910  1.2910
   45MOL0     H 6027   1.002   0.395   3.690 -0.7162 -0.2826 -1.5861
   45MOL0     H 6028   0.854   0.297   3.689  0.4578 -1.6806 -0.5368
   45MOL0     H 6029   0.798   0.373   3.476  1.3400 -5.4079  0.7963
   45MOL0     H 6030   0.937   0.487   3.462 -0.1236  0.4166 -1.5057
   45MOL0     H 6031   0.969   0.192   3.500 -2.7963  0.8971  1.1668
   45MOL0     H 6032   1.105   0.304   3.492  0.3304 -1.6266 -0.9440
   45MOL0     H 6033   1.030   0.386   3.271  0.8942  0.2900  1.7457
   45MOL0     H 6034   0.909   0.264   3.254  0.8415 -1.7294 -1.8412
   45MOL0     H 6035   0.950   0.268   3.056  1.2969  1.2505  3.4019
   45MOL0     H 6036   0.995   0.201   2.819  1.7777  0.4114 -0.8498
   45MOL0     H 6037   1.536   0.100   2.569 -1.4728  1.4850 -0.5547
   45MOL0     H 6038   1.581   0.088   2.344  1.2937 -0.6655 -0.1441
   45MOL0     H 6039   1.469   0.112   2.097 -1.5922 -1.3853  0.0858
   45MOL0     H 6040   1.626   0.030   2.132 -0.0281 -2.0104  1.9009
   45MOL0     H 6041   1.450  -0.041   1.892  0.0685 -1.6643 -1.0028
   45MOL0     H 6042   1.568   0.079   1.886  0.6713 -2.3618 -0.5431
   45MOL0     H 6043   1.742  -0.102   1.948 -0.0701 -1.5311  1.0916
   45MOL0     H 6044   1.612  -0.203   1.985  1.2199 -0.2335  0.0376
   45MOL0     H 6045   1.693  -0.062   1.730  0.0329 -0.1768 -0.5800
   45MOL0     H 6046   1.552  -0.194   1.724  0.8021 -0.7648  0.1588
   45MOL0     H 6047   1.688  -0.347   1.756 -0.5246 -0.4030 -2.2993
   45MOL0     H 6048   1.829  -0.242   1.800  0.2447 -1.1652 -0.6732
   45MOL0     H 6049   1.705  -0.253   1.517  0.3535  0.9050 -1.4584
   45MOL0     H 6050   1.856  -0.173   1.554  0.5827 -1.6838 -1.9236
   45MOL0     H 6051   1.773  -0.465   1.538 -0.8316  1.1123 -0.0679
   45MOL0     H 6052   1.899  -0.420   1.650 -1.0191 -0.9964  0.1597
   45MOL0     H 6053   2.006  -0.482   1.443 -1.8324 -0.9748 -1.3855
   45MOL0     H 6054   1.903  -0.373   1.344  1.9851  2.2626 -0.9829
   45MOL0     H 6055   1.253  -0.176   2.279 -1.0638  2.8225 -1.0990
   45MOL0     H 6056   1.179  -0.136   2.498 -0.1100 -1.4061  0.8761
   45MOL0     H 6057   1.361   0.012   2.949 -0.2504 -0.3564  0.7963
   45MOL0     H 6058   1.301   0.066   3.180  0.4073 -1.6821 -1.6549
   45MOL0     H 6059   0.741   0.580   3.331  1.5892 -1.3121  0.9309
   45MOL0     H 6060   0.569   0.424   3.221  0.5452 -3.5076 -1.5016
   45MOL0     H 6061   0.342   0.296   2.927 -6.6378  0.1613 -0.6505
   45MOL0     H 6062   0.151   0.175   2.860  1.4736  0.4280  3.1598
   45MOL0     H 6063  -0.010   0.042   2.862 -1.2343 -0.0928  0.5849
   45MOL0     H 6064   0.052  -0.080   2.978  1.4360 -0.1738 -0.5621
   45MOL0     H 6065  -0.155  -0.133   2.928  1.5187 -2.9567  2.3060
   45MOL0     H 6066  -0.047  -0.260   2.849  0.8120  0.2243 -3.1880
   45MOL0     H 6067  -0.196  -0.241   2.704  3.4542 -2.9366  1.2178
   45MOL0     H 6068  -0.093  -0.124   2.629 -1.7547  1.2910 -0.3258
   45MOL0     H 6069  -0.350  -0.054   2.784 -0.1461 -1.4486 -1.1377
   45MOL0     H 6070  -0.215   0.060   2.777  2.0356 -2.2530  0.0226
   45MOL0     H 6071  -0.390   0.052   2.384  0.6634  1.4930  0.6329
   45MOL0     H 6072   0.387  -0.148   2.729  1.1969  0.1009 -2.0713
   45MOL0     H 6073   0.693  -0.005   2.660 -0.1154  2.1584  1.6499
   45MOL0     H 6074   0.717  -0.036   2.828  1.6079  3.5800 -1.5149
   45MOL0     H 6075   0.630  -0.156   2.731  0.3359 -0.4599 -0.7538
   46MOL0     O 6076   2.474  11.351   3.848 -0.3188 -0.4032  0.8717
   46MOL0     C 6077   2.366  11.399   3.823 -0.1187  0.8459  0.4029
   46MOL0     O 6078   2.334  11.524   3.846 -0.2173 -0.0272  0.0009
   46MOL0     C 6079   2.376  11.604   3.950 -0.0448 -0.5162  0.0484
   46MOL0     C 6080   2.294  11.721   3.971 -0.2423  0.1260 -0.4939
   46MOL0     C 6081   2.317  11.802   4.087 -0.2083 -0.8275 -1.2117
   46MOL0     C 6082   2.414  11.788   4.170 -0.7277  0.0877 -0.2627
   46MOL0     O 6083   2.411  11.867   4.275 -0.3307  0.1875  0.1677
   46MOL0     C 6084   2.520  11.848   4.374  0.4763  0.2643 -0.4006
   46MOL0     C 6085   2.477  11.949   4.481 -0.7879  0.1533 -0.7430
   46MOL0     C 6086   2.545  12.080   4.463 -0.2340 -0.6025 -0.4153
   46MOL0     C 6087   2.670  12.104   4.556 -0.4842 -0.5941 -0.5810
   46MOL0     C 6088   2.624  12.103   4.702  0.8793  0.7289  0.7710
   46MOL0     C 6089   2.512  12.201   4.739 -0.1101 -0.5921  0.4662
   46MOL0     C 6090   2.428  12.150   4.859 -0.4385  0.2942  0.3933
   46MOL0     C 6091   2.326  12.262   4.900 -0.0893  0.1466 -0.5667
   46MOL0     N 6092   2.274  12.343   4.791  1.6840 -1.0065 -1.0333
   46MOL0     C 6093   2.294  12.476   4.765 -0.1496 -0.2344 -0.5072
   46MOL0     C 6094   2.202  12.522   4.674 -0.1205  0.1388 -0.6233
   46MOL0     C 6095   2.182  12.651   4.605 -0.2240  0.0725 -0.5053
   46MOL0     C 6096   2.236  12.628   4.456  1.0802 -0.1344 -0.3640
   46MOL0     C 6097   2.200  12.743   4.364 -0.4512 -0.2654  0.4279
   46MOL0     C 6098   2.276  12.869   4.394 -0.4013  0.5282  0.0124
   46MOL0     O 6099   2.231  12.964   4.292  0.4192  0.0310 -0.2273
   46MOL0     C 6100   2.103  13.023   4.304 -0.1703  0.0479 -0.6514
   46MOL0     C 6101   2.020  13.012   4.421 -0.9845 -0.2029 -0.5921
   46MOL0     C 6102   1.900  13.084   4.435 -0.4376 -1.1316  0.2276
   46MOL0     C 6103   1.853  13.169   4.325  0.5710 -0.1963 -0.8411
   46MOL0     C 6104   1.727  13.240   4.345  0.2151  0.0984  0.7105
   46MOL0     O 6105   1.720  13.360   4.267 -0.3630  0.0471 -0.0805
   46MOL0     C 6106   1.634  13.460   4.285 -0.2844 -0.6664  0.9055
   46MOL0     C 6107   1.681  13.565   4.357  0.0394 -0.2178 -0.2117
   46MOL0     C 6108   1.591  13.673   4.391  0.2753  0.6461 -0.3311
   46MOL0     C 6109   1.457  13.671   4.357  0.4619  0.1140 -0.0918
   46MOL0     O 6110   1.381  13.784   4.380  0.3016 -0.2408 -0.0511
   46MOL0     C 6111   1.234  13.779   4.381 -0.0325 -0.3549 -0.7046
   46MOL0     C 6112   1.188  13.871   4.270  0.4077 -0.0453 -0.5356
   46MOL0     C 6113   1.036  13.867   4.231 -0.5222 -0.0345  0.4376
   46MOL0     C 6114   1.013  13.814   4.090 -0.4783  0.1093  0.2407
   46MOL0     C 6115   0.869  13.797   4.045  0.6926  0.7902  0.1145
   46MOL0     C 6116   0.822  13.655   4.058 -0.1309  0.4224 -0.5453
   46MOL0     C 6117   0.871  13.572   3.942 -0.1869 -0.0229 -0.3992
   46MOL0     C 6118   0.835  13.422   3.935 -0.5381 -0.0479 -0.3361
   46MOL0    Cl 6119   0.670  13.391   3.981 -0.1220  0.3139 -0.2199
   46MOL0     C 6120   1.408  13.553   4.290 -0.4362 -0.2767 -1.3910
   46MOL0     C 6121   1.494  13.443   4.257 -0.6875 -0.9595 -0.3400
   46MOL0     O 6122   1.649  13.203   4.436  0.3665  0.3829  0.2742
   46MOL0     C 6123   1.938  13.183   4.218  0.6132 -0.2204  0.4683
   46MOL0     C 6124   2.061  13.122   4.212 -1.4102 -0.0034 -0.6392
   46MOL0     N 6125   2.123  12.415   4.643 -0.3625  0.1471 -1.4623
   46MOL0     N 6126   2.159  12.314   4.720 -0.5600  0.5587 -0.5234
   46MOL0     C 6127   2.493  11.670   4.160  0.1936 -0.3498 -0.3760
   46MOL0     C 6128   2.476  11.583   4.048  0.0542 -0.3958  0.0487
   46MOL0     C 6129   2.263  11.324   3.744  0.3755  0.6751  0.0972
   46MOL0     C 6130   2.137  11.390   3.704  0.1015  0.3546  0.2677
   46MOL0     C 6131   2.046  11.335   3.614 -0.1152 -0.0905 -0.3204
   46MOL0     C 6132   2.060  11.197   3.582  0.2921  0.9073 -0.2445
   46MOL0     O 6133   1.958  11.144   3.506  0.3033 -0.7167 -0.2014
   46MOL0     C 6134   1.945  11.005   3.482  0.7643  0.4727 -0.2702
   46MOL0     C 6135   1.817  10.956   3.404  0.1743  0.6834  0.7882
   46MOL0     C 6136   1.683  11.041   3.414 -0.3770  0.3007  0.1889
   46MOL0     C 6137   1.572  10.967   3.343 -0.2089  0.1059 -0.1851
   46MOL0     C 6138   1.609  10.965   3.204 -0.6625  1.2838  0.5664
   46MOL0     C 6139   1.649  10.960   3.091 -0.3219 -0.0558 -0.0504
   46MOL0     C 6140   2.161  11.120   3.645 -2.0287 -0.7777 -1.4471
   46MOL0     C 6141   2.264  11.185   3.719 -0.1735  0.2210  0.0502
   46MOL0     C 6142   2.376  11.101   3.767 -0.1883 -0.4047  0.6468
   46MOL0     H 6143   2.209  11.742   3.907 -2.6459 -0.4198  2.2716
   46MOL0     H 6144   2.254  11.890   4.093 -0.4016 -1.0739  1.4714
   46MOL0     H 6145   2.514  11.747   4.416  5.3615 -0.5185 -0.9681
   46MOL0     H 6146   2.623  11.856   4.337 -0.0187 -0.4135 -2.0319
   46MOL0     H 6147   2.508  11.909   4.578 -1.0227  0.6763 -0.4481
   46MOL0     H 6148   2.371  11.968   4.496 -0.7122  0.2558 -0.3207
   46MOL0     H 6149   2.472  12.158   4.487 -1.0017 -1.9404  2.0256
   46MOL0     H 6150   2.571  12.095   4.358 -1.7735 -0.3090 -0.7842
   46MOL0     H 6151   2.738  12.019   4.547 -0.6495 -0.7105 -0.7249
   46MOL0     H 6152   2.712  12.204   4.540  0.1741 -0.7303  0.2387
   46MOL0     H 6153   2.601  12.006   4.745  0.3160  0.2433 -0.5655
   46MOL0     H 6154   2.714  12.138   4.754  0.8691  0.7837  0.7518
   46MOL0     H 6155   2.553  12.300   4.762 -0.2615 -0.3486 -0.2825
   46MOL0     H 6156   2.434  12.205   4.662  0.5335  2.1359 -0.1439
   46MOL0     H 6157   2.495  12.117   4.939  1.3146  0.4742 -0.9335
   46MOL0     H 6158   2.365  12.067   4.826 -0.9883 -0.2035  2.5547
   46MOL0     H 6159   2.240  12.221   4.954  2.4201  0.9485  4.6694
   46MOL0     H 6160   2.376  12.340   4.958  0.3586 -0.8144  0.3615
   46MOL0     H 6161   2.372  12.540   4.805 -0.6152 -0.1645  0.3145
   46MOL0     H 6162   2.076  12.675   4.616 -0.1609 -0.2880  1.2613
   46MOL0     H 6163   2.241  12.727   4.657 -1.0172 -0.6330  1.5239
   46MOL0     H 6164   2.345  12.621   4.447  1.2455  1.5273  0.0371
   46MOL0     H 6165   2.196  12.531   4.426  1.5866 -1.3095  2.4290
   46MOL0     H 6166   2.091  12.748   4.373 -0.2925  1.4246  1.9194
   46MOL0     H 6167   2.216  12.725   4.258  0.2876 -0.4333  0.5647
   46MOL0     H 6168   2.382  12.845   4.383 -0.1425  0.7649  1.7237
   46MOL0     H 6169   2.256  12.909   4.493  1.9789  2.2963 -0.1316
   46MOL0     H 6170   2.050  12.955   4.508 -0.5657  1.0450  0.0936
   46MOL0     H 6171   1.846  13.076   4.529  0.4600 -0.0103  0.8522
   46MOL0     H 6172   1.787  13.558   4.380 -0.4793 -0.2622  2.4829
   46MOL0     H 6173   1.621  13.761   4.447  1.6166 -0.9393  1.5985
   46MOL0     H 6174   1.193  13.678   4.371 -1.4235  0.4301 -5.1131
   46MOL0     H 6175   1.211  13.812   4.483  3.2060 -0.1974  0.0780
   46MOL0     H 6176   1.202  13.974   4.305 -1.1091  0.7463 -2.1260
   46MOL0     H 6177   1.251  13.846   4.185 -0.7549 -1.2078 -1.0798
   46MOL0     H 6178   0.987  13.802   4.303  0.7895 -1.5441  0.0270
   46MOL0     H 6179   1.001  13.969   4.250  0.0503  0.4091 -0.7555
   46MOL0     H 6180   1.061  13.716   4.083  3.7100  2.0345 -2.9980
   46MOL0     H 6181   1.075  13.883   4.031 -0.3850  1.2893  1.6757
   46MOL0     H 6182   0.851  13.836   3.944 -2.4809  2.0082  1.0267
   46MOL0     H 6183   0.812  13.851   4.121  1.6598 -0.5180  1.8395
   46MOL0     H 6184   0.871  13.609   4.144 -4.5869 -1.5437  1.2511
   46MOL0     H 6185   0.714  13.650   4.071 -0.2240  2.4338 -0.0971
   46MOL0     H 6186   0.979  13.567   3.930 -0.0338 -2.7440  1.2527
   46MOL0     H 6187   0.822  13.615   3.855 -0.8654  3.5894  1.5743
   46MOL0     H 6188   0.850  13.378   3.836  0.3406  1.7192 -1.0342
   46MOL0     H 6189   0.903  13.368   4.001 -0.9713  1.1361  1.1117
   46MOL0     H 6190   1.304  13.549   4.260 -2.9233  1.0784  5.2808
   46MOL0     H 6191   1.452  13.362   4.198 -3.0417  1.1054 -1.7268
   46MOL0     H 6192   1.900  13.240   4.134  1.3076 -1.8035 -0.9686
   46MOL0     H 6193   2.130  13.160   4.137 -0.0751  0.2104  0.6363
   46MOL0     H 6194   2.576  11.661   4.230  1.8149  0.4434 -2.0965
   46MOL0     H 6195   2.551  11.507   4.028  2.2091  0.7788  2.9397
   46MOL0     H 6196   2.118  11.494   3.729 -1.5187 -0.3672  2.2623
   46MOL0     H 6197   1.965  11.399   3.579  0.9883  1.0769 -0.8039
   46MOL0     H 6198   1.941  10.961   3.582 -1.5036  1.1137 -0.0187
   46MOL0     H 6199   2.032  10.973   3.423 -0.8510 -0.5195 -2.2673
   46MOL0     H 6200   1.801  10.856   3.445  2.0987 -0.1550 -0.3481
   46MOL0     H 6201   1.855  10.933   3.304  2.9862 -0.6966  2.0519
   46MOL0     H 6202   1.704  11.136   3.364 -0.4974 -1.3254 -3.3011
   46MOL0     H 6203   1.671  11.049   3.522 -0.3485 -1.5877  0.3721
   46MOL0     H 6204   1.557  10.861   3.366  0.2208  0.5412  2.2826
   46MOL0     H 6205   1.477  11.016   3.367  0.2864  1.4459 -0.8761
   46MOL0     H 6206   1.683  10.946   2.990 -4.5613 -1.2772 -1.5049
   46MOL0     H 6207   2.167  11.013   3.628 -0.6503 -1.0230  0.2873
   46MOL0     H 6208   2.377  11.114   3.876  1.1137  0.8267  0.5257
   46MOL0     H 6209   2.364  10.994   3.750 -3.0344  0.0585 -0.8298
   46MOL0     H 6210   2.469  11.141   3.724 -1.8854  1.0008 -1.9955
   47MOL0     O 6211   0.039   8.998   7.651  0.4078  0.0614 -0.8833
   47MOL0     C 6212   0.156   9.006   7.683  0.4587  1.2985 -0.8332
   47MOL0     O 6213   0.255   9.070   7.619  0.0367  0.0866  0.2799
   47MOL0     C 6214   0.225   9.153   7.510  0.1381 -1.1069 -0.3610
   47MOL0     C 6215   0.111   9.242   7.507  1.2502  0.0975 -0.8546
   47MOL0     C 6216   0.094   9.322   7.403 -0.3058 -0.4493  0.4871
   47MOL0     C 6217   0.183   9.310   7.295  0.3144 -0.6835 -1.1512
   47MOL0     O 6218   0.151   9.396   7.188  0.0962 -0.2212 -0.3447
   47MOL0     C 6219   0.208   9.529   7.198 -0.6929  0.1769 -0.0456
   47MOL0     C 6220   0.183   9.598   7.065 -0.0622 -0.6897  0.9360
   47MOL0     C 6221   0.279   9.564   6.941 -0.2557  0.0561  0.0370
   47MOL0     C 6222   0.256   9.421   6.892  0.4670  0.6138  0.2750
   47MOL0     C 6223   0.355   9.366   6.791  0.5215 -0.2890  0.9621
   47MOL0     C 6224   0.492   9.333   6.848 -0.5263 -0.8765 -1.0178
   47MOL0     C 6225   0.567   9.227   6.766  0.2182 -0.7167 -0.4329
   47MOL0     C 6226   0.686   9.167   6.835  1.2146  0.3975 -0.1768
   47MOL0     N 6227   0.652   9.063   6.935 -0.0087 -0.2524 -1.0609
   47MOL0     C 6228   0.602   8.938   6.914  0.4552  0.0474  0.0958
   47MOL0     C 6229   0.548   8.894   7.035 -1.0069  0.2977 -0.4497
   47MOL0     C 6230   0.468   8.766   7.062  0.5355  0.4076 -0.9487
   47MOL0     C 6231   0.332   8.800   7.143  0.0472 -0.3721  0.2777
   47MOL0     C 6232   0.248   8.666   7.151  0.7319  0.5511 -0.2021
   47MOL0     C 6233   0.101   8.710   7.204 -0.1096 -0.3250  0.7613
   47MOL0     O 6234   0.025   8.594   7.233 -0.2349  0.5041  0.6182
   47MOL0     C 6235   0.001   8.545   7.352 -0.4052  0.2542 -0.8787
   47MOL0     C 6236   0.070   8.582   7.473  0.8859  0.0738 -0.9307
   47MOL0     C 6237   0.022   8.534   7.598  0.8953 -0.4840 -0.2077
   47MOL0     C 6238  -0.098   8.460   7.610  1.2421  0.3037  0.0296
   47MOL0     C 6239  -0.147   8.418   7.737 -0.3493  0.3704 -0.3606
   47MOL0     O 6240  -0.289   8.422   7.748 -0.1343  0.0559  0.1869
   47MOL0     C 6241  -0.332   8.343   7.846 -0.5060 -0.0013 -0.2056
   47MOL0     C 6242  -0.296   8.205   7.858 -0.1300  0.2074 -0.9569
   47MOL0     C 6243  -0.353   8.128   7.964  0.6724  0.5786  0.5664
   47MOL0     C 6244  -0.450   8.182   8.054 -0.1926  0.4019 -0.2279
   47MOL0     O 6245  -0.497   8.095   8.153  0.3244 -0.2255 -0.1492
   47MOL0     C 6246  -0.517   8.151   8.283 -0.0130 -0.1219 -1.3893
   47MOL0     C 6247  -0.484   8.051   8.400  0.2811  0.4399  0.4228
   47MOL0     C 6248  -0.462   8.133   8.528 -0.5630  0.5255 -0.4932
   47MOL0     C 6249  -0.455   8.043   8.651 -0.0177  0.2563 -0.5204
   47MOL0     C 6250  -0.417   8.128   8.779  0.1909 -0.3660  0.6144
   47MOL0     C 6251  -0.494   8.253   8.824  0.2380 -1.1948  1.3930
   47MOL0     C 6252  -0.622   8.214   8.866 -0.3441  0.7523 -0.1080
   47MOL0     C 6253  -0.711   8.314   8.937 -0.3964 -0.2541 -0.0035
   47MOL0    Cl 6254  -0.887   8.251   8.932 -0.1098  0.5177 -0.1318
   47MOL0     C 6255  -0.485   8.315   8.029 -0.2464 -0.4640 -0.1373
   47MOL0     C 6256  -0.427   8.395   7.931  0.7632  0.5098  0.1454
   47MOL0     O 6257  -0.059   8.394   7.830  0.7358  0.1992 -0.3193
   47MOL0     C 6258  -0.164   8.417   7.485  0.9168 -0.3309 -0.1692
   47MOL0     C 6259  -0.111   8.461   7.360 -0.7948  0.4023  0.9583
   47MOL0     N 6260   0.581   8.992   7.131  0.7330  0.3344 -0.0998
   47MOL0     N 6261   0.629   9.090   7.069 -0.6670 -0.6019 -0.0216
   47MOL0     C 6262   0.294   9.239   7.304  0.7539 -0.3923  0.2086
   47MOL0     C 6263   0.321   9.162   7.412 -0.1724  0.6838  0.4967
   47MOL0     C 6264   0.209   8.913   7.786 -1.0139  0.6166 -0.0432
   47MOL0     C 6265   0.123   8.817   7.840  0.7769  0.1235  0.0071
   47MOL0     C 6266   0.167   8.722   7.929  0.1533 -0.5861 -1.2992
   47MOL0     C 6267   0.308   8.707   7.953 -0.3552  0.5544  0.5065
   47MOL0     O 6268   0.349   8.607   8.031  0.4050  0.1908 -0.1155
   47MOL0     C 6269   0.361   8.656   8.163 -0.3094  0.2079  0.8384
   47MOL0     C 6270   0.443   8.564   8.251  0.2065  0.1524  0.6022
   47MOL0     C 6271   0.386   8.425   8.272  0.0181 -0.1101 -0.7619
   47MOL0     C 6272   0.486   8.327   8.341  0.2880 -0.2661 -0.4749
   47MOL0     C 6273   0.531   8.376   8.469 -0.3691 -0.4597  0.3621
   47MOL0     C 6274   0.576   8.410   8.575  0.2465 -0.3379 -0.4354
   47MOL0     C 6275   0.396   8.793   7.883 -0.2848 -1.0252 -0.1994
   47MOL0     C 6276   0.347   8.902   7.806 -0.6403  0.3599 -0.2920
   47MOL0     C 6277   0.465   8.993   7.750 -0.6635 -0.5922 -1.0252
   47MOL0     H 6278   0.037   9.233   7.586  0.9203 -4.0169 -1.3799
   47MOL0     H 6279   0.008   9.388   7.395 -0.5950 -1.0504 -2.9288
   47MOL0     H 6280   0.138   9.580   7.265 -2.3169 -2.5796  0.4765
   47MOL0     H 6281   0.310   9.545   7.234  0.3672 -0.4111 -2.5702
   47MOL0     H 6282   0.183   9.705   7.088  0.8864 -0.6371  0.7448
   47MOL0     H 6283   0.089   9.570   7.018  0.9777 -0.3248 -1.5315
   47MOL0     H 6284   0.385   9.583   6.962  0.4330 -0.9453 -2.1751
   47MOL0     H 6285   0.262   9.637   6.861  2.9212  0.0779 -0.7862
   47MOL0     H 6286   0.253   9.358   6.981 -2.6658  3.0702  2.1255
   47MOL0     H 6287   0.153   9.407   6.858  0.4553 -2.5358  1.3359
   47MOL0     H 6288   0.317   9.270   6.755  1.0682 -0.5407  1.0424
   47MOL0     H 6289   0.367   9.439   6.711 -2.6726 -1.6724 -0.9808
   47MOL0     H 6290   0.561   9.418   6.857  1.3092 -2.3483 -0.6060
   47MOL0     H 6291   0.484   9.293   6.950  1.5378 -2.1661 -1.3253
   47MOL0     H 6292   0.603   9.282   6.678  2.2702  2.1475  1.9467
   47MOL0     H 6293   0.496   9.153   6.729 -1.6644  1.5839 -1.7240
   47MOL0     H 6294   0.750   9.108   6.769 -2.2112 -1.7947 -1.8056
   47MOL0     H 6295   0.735   9.250   6.886  1.7899 -0.6606  1.0524
   47MOL0     H 6296   0.595   8.897   6.814  0.7846 -0.4643  0.2816
   47MOL0     H 6297   0.456   8.713   6.967  2.9688  1.0149 -1.6606
   47MOL0     H 6298   0.530   8.701   7.124  0.2087  0.6422 -0.3651
   47MOL0     H 6299   0.349   8.849   7.239 -2.0602 -0.0620  0.5397
   47MOL0     H 6300   0.283   8.874   7.079 -1.5319 -1.3429  0.3087
   47MOL0     H 6301   0.297   8.610   7.232  0.8919  1.4559  0.3390
   47MOL0     H 6302   0.253   8.611   7.057  0.6371  1.0288 -0.4861
   47MOL0     H 6303   0.044   8.762   7.126 -1.3634 -1.5254  0.8258
   47MOL0     H 6304   0.123   8.770   7.293  0.7465 -0.5018  0.6720
   47MOL0     H 6305   0.158   8.646   7.474  0.2712  0.9284 -0.4454
   47MOL0     H 6306   0.063   8.566   7.693 -0.4073  1.8020 -0.3363
   47MOL0     H 6307  -0.235   8.160   7.781  1.0633  2.2000 -1.2409
   47MOL0     H 6308  -0.330   8.022   7.968  0.2357  0.4818  0.4922
   47MOL0     H 6309  -0.445   8.233   8.298  3.2612 -2.7803 -1.3404
   47MOL0     H 6310  -0.616   8.192   8.306  1.6588  2.4816  2.4108
   47MOL0     H 6311  -0.567   7.984   8.427  1.3874 -1.4826 -0.7504
   47MOL0     H 6312  -0.400   7.989   8.369 -1.3946 -0.3735 -2.9726
   47MOL0     H 6313  -0.364   8.178   8.511 -0.6633  0.8454 -0.2316
   47MOL0     H 6314  -0.536   8.213   8.532 -0.7933  0.3868 -1.5880
   47MOL0     H 6315  -0.396   7.951   8.642 -0.8544 -0.1088 -3.5262
   47MOL0     H 6316  -0.555   8.002   8.668 -0.1232 -0.0547 -1.7981
   47MOL0     H 6317  -0.321   8.173   8.755 -0.1859  1.4485  2.2402
   47MOL0     H 6318  -0.405   8.066   8.869 -0.0186  0.3220  1.1218
   47MOL0     H 6319  -0.438   8.304   8.903  1.5335  2.0103 -1.3388
   47MOL0     H 6320  -0.512   8.326   8.743 -2.1887 -1.9920  1.1378
   47MOL0     H 6321  -0.600   8.133   8.936  0.8504 -0.1980 -1.5102
   47MOL0     H 6322  -0.679   8.157   8.793 -0.6053 -1.3512  1.6228
   47MOL0     H 6323  -0.666   8.337   9.034  0.0755  2.7705 -0.8286
   47MOL0     H 6324  -0.717   8.412   8.889 -2.3940  0.0496  0.8054
   47MOL0     H 6325  -0.568   8.361   8.083  0.2982 -0.8086  1.0306
   47MOL0     H 6326  -0.476   8.490   7.913 -0.7211 -0.1135  0.7645
   47MOL0     H 6327  -0.253   8.355   7.486  1.6427 -1.3937  0.6770
   47MOL0     H 6328  -0.167   8.423   7.275 -0.6273  4.5000 -1.2595
   47MOL0     H 6329   0.353   9.253   7.214 -0.8936  1.7161 -0.6184
   47MOL0     H 6330   0.413   9.105   7.420  0.8661  1.6293 -3.0293
   47MOL0     H 6331   0.016   8.811   7.824  0.4803  0.1278  1.8126
   47MOL0     H 6332   0.106   8.642   7.970  1.4017 -1.8362 -1.7879
   47MOL0     H 6333   0.258   8.662   8.199 -0.4973  1.9902  0.1321
   47MOL0     H 6334   0.402   8.758   8.162  0.7786 -0.2138 -1.1203
   47MOL0     H 6335   0.434   8.602   8.353  2.3473 -0.7326  1.1744
   47MOL0     H 6336   0.546   8.559   8.214  1.1074  1.2653  2.7825
   47MOL0     H 6337   0.375   8.380   8.173  0.5703 -1.9255 -0.0364
   47MOL0     H 6338   0.294   8.425   8.332 -0.3479  2.3207 -1.2254
   47MOL0     H 6339   0.425   8.239   8.364  0.9695 -0.0744  2.4596
   47MOL0     H 6340   0.561   8.296   8.268  1.2968  0.5065  0.1984
   47MOL0     H 6341   0.607   8.460   8.665  0.2838 -0.5733 -0.3159
   47MOL0     H 6342   0.501   8.767   7.895 -0.0775 -0.4097 -0.6305
   47MOL0     H 6343   0.564   8.967   7.787 -0.8109 -0.3393 -0.4266
   47MOL0     H 6344   0.477   8.970   7.644  0.7641 -6.5153  0.0727
   47MOL0     H 6345   0.445   9.099   7.771 -0.4803 -0.7430 -0.0041
   48MOL0     O 6346   1.886   8.107   8.412 -0.0355 -0.0617  0.3399
   48MOL0     C 6347   1.835   8.006   8.459  0.5141  0.3221 -0.8445
   48MOL0     O 6348   1.737   7.926   8.408  0.3281  0.3152  0.5285
   48MOL0     C 6349   1.670   7.938   8.283 -0.0664  0.1894 -0.6787
   48MOL0     C 6350   1.642   8.062   8.228 -0.3019 -1.0795  0.7166
   48MOL0     C 6351   1.587   8.078   8.102 -0.2951 -0.7425 -0.0695
   48MOL0     C 6352   1.560   7.973   8.021 -0.5594 -0.0360 -1.0325
   48MOL0     O 6353   1.524   8.009   7.901  0.7159  0.4459  0.6655
   48MOL0     C 6354   1.444   7.920   7.837  0.7436 -0.3061 -0.4523
   48MOL0     C 6355   1.392   7.974   7.704  0.3646 -0.8258  0.4002
   48MOL0     C 6356   1.291   8.081   7.721 -0.1040  0.3600 -0.3102
   48MOL0     C 6357   1.213   8.104   7.590 -0.2851 -0.5365  0.9299
   48MOL0     C 6358   1.101   8.201   7.624 -0.6034  0.9145  0.8996
   48MOL0     C 6359   0.986   8.199   7.532 -0.1291  0.5227  0.0753
   48MOL0     C 6360   0.898   8.084   7.543 -0.2612  0.5252  0.4167
   48MOL0     C 6361   0.765   8.113   7.483  0.4336 -0.1537  0.7710
   48MOL0     N 6362   0.666   8.005   7.480 -0.4516  0.7267  0.2611
   48MOL0     C 6363   0.695   7.874   7.443  0.1242  0.0807  0.1125
   48MOL0     C 6364   0.588   7.803   7.476 -0.2139 -0.9156 -0.6232
   48MOL0     C 6365   0.565   7.665   7.443  0.6446  0.5301 -0.1615
   48MOL0     C 6366   0.424   7.620   7.493 -0.3055 -0.3352  0.2729
   48MOL0     C 6367   0.326   7.653   7.387 -0.1973 -0.0153  0.1047
   48MOL0     C 6368   0.188   7.609   7.413 -0.2113 -0.5536  0.8713
   48MOL0     O 6369   0.191   7.476   7.461 -0.9806  0.0935 -0.4776
   48MOL0     C 6370   0.087   7.396   7.441  1.1212  0.0876  0.0206
   48MOL0     C 6371   0.098   7.257   7.451 -0.3917  0.1762  0.0254
   48MOL0     C 6372  -0.010   7.158   7.437 -0.5900  0.1290 -0.8250
   48MOL0     C 6373  -0.139   7.210   7.398  0.1225  0.0538 -0.0100
   48MOL0     C 6374  -0.245   7.113   7.356 -0.4303  0.7042 -0.1030
   48MOL0     O 6375  -0.351   7.144   7.275 -0.1495 -0.2932  0.5876
   48MOL0     C 6376  -0.423   7.041   7.225 -0.5623 -0.0913 -0.0246
   48MOL0     C 6377  -0.390   6.943   7.136  0.4514 -0.1132  0.1324
   48MOL0     C 6378  -0.476   6.850   7.085 -0.8478  0.3369 -0.1035
   48MOL0     C 6379  -0.607   6.845   7.127  0.0416 -0.0443  0.4573
   48MOL0     O 6380  -0.686   6.743   7.084 -0.2835  0.1270  0.2773
   48MOL0     C 6381  -0.794   6.708   7.172 -0.0512 -0.5330  0.0785
   48MOL0     C 6382  -0.866   6.588   7.103 -0.4966  0.3474  0.1416
   48MOL0     C 6383  -0.950   6.509   7.198  0.2389  0.0739 -0.4078
   48MOL0     C 6384  -1.065   6.445   7.132 -0.1526  0.5076  0.9363
   48MOL0     C 6385  -1.013   6.350   7.022 -0.8487  0.1840  0.2841
   48MOL0     C 6386  -1.136   6.294   6.951  0.1539  0.2830  0.2133
   48MOL0     C 6387  -1.104   6.195   6.847  0.6387 -0.3220  0.2462
   48MOL0     C 6388  -1.239   6.173   6.787 -0.0610  0.2633  0.4319
   48MOL0    Cl 6389  -1.236   6.048   6.669  0.2612 -0.3848  0.0373
   48MOL0     C 6390  -0.646   6.942   7.219 -0.1083 -0.2304  0.0921
   48MOL0     C 6391  -0.559   7.045   7.258  1.1076  0.4863 -0.5939
   48MOL0     O 6392  -0.219   6.998   7.389 -1.1544  0.0368  0.1014
   48MOL0     C 6393  -0.152   7.352   7.399 -0.3777  0.1536  0.0391
   48MOL0     C 6394  -0.046   7.445   7.423 -0.0371  0.1895 -0.6916
   48MOL0     N 6395   0.500   7.900   7.536  0.6782  0.4432  0.7420
   48MOL0     N 6396   0.549   8.012   7.533  0.3556 -0.2045 -0.1826
   48MOL0     C 6397   1.592   7.844   8.071 -0.0331  1.1200  0.5787
   48MOL0     C 6398   1.649   7.833   8.196  0.1685  0.8299 -0.2284
   48MOL0     C 6399   1.885   7.953   8.590  1.0398  0.2634 -0.4757
   48MOL0     C 6400   1.786   7.933   8.691  0.2298 -0.5005  0.4094
   48MOL0     C 6401   1.820   7.886   8.827  0.4610 -0.6200 -0.3220
   48MOL0     C 6402   1.961   7.880   8.869  0.9956 -0.2334  0.2109
   48MOL0     O 6403   2.007   7.863   8.995  0.3695  0.0383  0.9362
   48MOL0     C 6404   1.918   7.810   9.087 -0.1714  0.7182  0.0675
   48MOL0     C 6405   2.005   7.722   9.169 -0.3489 -0.2995  0.8107
   48MOL0     C 6406   2.104   7.795   9.255 -0.1347 -0.0544  0.0603
   48MOL0     C 6407   2.232   7.711   9.278  0.3123 -0.3748 -0.2772
   48MOL0     C 6408   2.325   7.774   9.373  0.8430 -0.0819  0.7513
   48MOL0     C 6409   2.387   7.821   9.462 -0.2512 -0.3626  0.5409
   48MOL0     C 6410   2.053   7.915   8.768  0.2037  0.3808 -0.9916
   48MOL0     C 6411   2.023   7.948   8.634  0.1158 -0.7276 -0.4662
   48MOL0     C 6412   2.133   7.960   8.535  0.2382 -0.5043 -0.3130
   48MOL0     H 6413   1.664   8.151   8.287 -1.7793 -0.1702 -0.0331
   48MOL0     H 6414   1.580   8.174   8.052  2.3175  0.1470  1.1093
   48MOL0     H 6415   1.490   7.821   7.828  0.5965 -0.3004 -1.3280
   48MOL0     H 6416   1.353   7.905   7.896  0.9124  0.2096 -0.0547
   48MOL0     H 6417   1.344   7.892   7.650 -3.2131  1.5718 -0.4147
   48MOL0     H 6418   1.472   8.006   7.636  0.1242  1.6443  1.2025
   48MOL0     H 6419   1.341   8.175   7.745  0.9480 -0.6657  1.8802
   48MOL0     H 6420   1.219   8.051   7.798 -1.3317  2.7549 -0.4403
   48MOL0     H 6421   1.275   8.160   7.520 -1.8586 -0.9823 -0.9419
   48MOL0     H 6422   1.177   8.016   7.536 -0.3173  0.8043 -1.4082
   48MOL0     H 6423   1.054   8.184   7.722  2.4512  0.0964  2.3784
   48MOL0     H 6424   1.145   8.301   7.623  0.5858  0.5987 -3.8667
   48MOL0     H 6425   0.935   8.292   7.557  1.6090  1.6413 -0.3719
   48MOL0     H 6426   1.024   8.208   7.429  1.4477  1.2274  0.6754
   48MOL0     H 6427   0.881   8.054   7.647  1.2297  1.0071  0.8206
   48MOL0     H 6428   0.933   7.997   7.488 -2.6046 -2.6317  3.4840
   48MOL0     H 6429   0.715   8.198   7.531 -2.1250 -1.6071  0.8543
   48MOL0     H 6430   0.758   8.154   7.382 -1.0715 -1.8204  0.1320
   48MOL0     H 6431   0.779   7.832   7.390  0.0189 -0.8152  0.6330
   48MOL0     H 6432   0.559   7.658   7.334 -0.6065  1.9153 -0.2171
   48MOL0     H 6433   0.641   7.602   7.491 -2.7750 -5.1017 -1.3260
   48MOL0     H 6434   0.417   7.513   7.517 -1.0666  0.1041  2.1880
   48MOL0     H 6435   0.397   7.666   7.589  1.5761 -0.1997  0.7811
   48MOL0     H 6436   0.363   7.613   7.293  2.4543  0.8723  0.6760
   48MOL0     H 6437   0.319   7.759   7.364 -0.3346  0.2528  1.2999
   48MOL0     H 6438   0.131   7.614   7.320  0.0907  1.6164  0.7607
   48MOL0     H 6439   0.141   7.676   7.485 -0.8972 -0.4852  0.3753
   48MOL0     H 6440   0.202   7.228   7.456  1.2937  5.2668  0.0999
   48MOL0     H 6441   0.019   7.055   7.420  1.7190  0.3324  1.3814
   48MOL0     H 6442  -0.290   6.937   7.093  2.0483  1.2326  3.3310
   48MOL0     H 6443  -0.445   6.765   7.024  0.2859  0.0789  0.8000
   48MOL0     H 6444  -0.743   6.671   7.261  1.7201 -0.7570 -0.9699
   48MOL0     H 6445  -0.868   6.786   7.190  1.1900  1.2211 -1.9075
   48MOL0     H 6446  -0.920   6.622   7.014  1.3103 -0.8690 -1.5172
   48MOL0     H 6447  -0.791   6.525   7.054 -1.2993 -0.1074 -0.5423
   48MOL0     H 6448  -0.883   6.436   7.246  0.1798  0.4531  0.2502
   48MOL0     H 6449  -0.998   6.574   7.271  0.7000 -0.8888  0.7865
   48MOL0     H 6450  -1.122   6.524   7.082  2.1951 -0.5825 -4.1824
   48MOL0     H 6451  -1.121   6.388   7.207  2.2732 -1.6496  1.2400
   48MOL0     H 6452  -0.939   6.277   7.056 -0.5985  0.9828  1.5027
   48MOL0     H 6453  -0.969   6.413   6.945 -0.5629 -0.6960 -0.2910
   48MOL0     H 6454  -1.192   6.243   7.030  1.8573 -1.2034  0.5132
   48MOL0     H 6455  -1.204   6.374   6.920 -0.9026 -0.2785  1.0125
   48MOL0     H 6456  -1.074   6.100   6.892 -2.6293 -1.5949  0.0193
   48MOL0     H 6457  -1.034   6.223   6.767  0.8224 -0.1717  0.4561
   48MOL0     H 6458  -1.312   6.143   6.863 -0.5411  0.5317  0.0829
   48MOL0     H 6459  -1.262   6.269   6.740  0.8182  0.7665  0.9910
   48MOL0     H 6460  -0.752   6.955   7.240  0.0409  1.3756 -0.0057
   48MOL0     H 6461  -0.607   7.124   7.316 -0.6362 -1.4048  0.6939
   48MOL0     H 6462  -0.250   7.397   7.382 -1.4864 -1.4887  1.7633
   48MOL0     H 6463  -0.061   7.552   7.421  0.6288  0.2843 -0.8723
   48MOL0     H 6464   1.577   7.750   8.017  2.4645  0.7519  0.3952
   48MOL0     H 6465   1.685   7.735   8.224 -1.9783 -0.5255 -1.8537
   48MOL0     H 6466   1.683   7.937   8.657  0.3011  2.6116  0.2683
   48MOL0     H 6467   1.738   7.866   8.895 -1.9048 -2.3724 -3.4404
   48MOL0     H 6468   1.842   7.749   9.038 -2.7586  2.5432  1.5592
   48MOL0     H 6469   1.862   7.882   9.148  0.7131  1.8374 -0.3911
   48MOL0     H 6470   2.065   7.663   9.099 -0.5410  0.6277 -0.1622
   48MOL0     H 6471   1.947   7.653   9.230 -1.8005  0.3552  0.2137
   48MOL0     H 6472   2.064   7.822   9.354  0.8549 -0.2718  0.5313
   48MOL0     H 6473   2.145   7.881   9.201 -0.7973 -0.7014 -1.5084
   48MOL0     H 6474   2.190   7.616   9.313 -4.2766  1.0911 -1.0478
   48MOL0     H 6475   2.287   7.695   9.184  0.5696  0.1850 -0.2273
   48MOL0     H 6476   2.443   7.872   9.538 -0.2678 -1.5077  1.3482
   48MOL0     H 6477   2.157   7.901   8.797  0.2790 -0.9264 -1.7572
   48MOL0     H 6478   2.233   7.971   8.579  1.0191 -2.9689 -1.2910
   48MOL0     H 6479   2.145   7.869   8.476  1.4389  0.6506 -1.9280
   48MOL0     H 6480   2.107   8.042   8.467 -1.2609  1.1231  2.0436
   49MOL0     O 6481  10.353   0.219   9.203  0.4821  0.8998 -0.0339
   49MOL0     C 6482  10.384   0.132   9.126 -0.2481  0.2101  0.3548
   49MOL0     O 6483  10.511   0.067   9.128 -0.0641 -0.2703  0.7213
   49MOL0     C 6484  10.583   0.049   9.238  0.1928  0.0786 -0.2169
   49MOL0     C 6485  10.716   0.020   9.211 -0.4297 -0.1688 -0.3430
   49MOL0     C 6486  10.802  -0.004   9.322  0.5553  0.8004 -0.9326
   49MOL0     C 6487  10.749  -0.002   9.451 -0.1452  0.4248 -0.5220
   49MOL0     O 6488  10.820  -0.049   9.558  0.2297  0.6611 -0.0429
   49MOL0     C 6489  10.832   0.039   9.670 -0.1329  0.8439  0.7629
   49MOL0     C 6490  10.860  -0.040   9.802  0.6721 -0.7326  0.3528
   49MOL0     C 6491  10.745  -0.107   9.874  0.0568  0.4181  0.7776
   49MOL0     C 6492  10.613  -0.030   9.886 -0.4869 -0.0696  1.0679
   49MOL0     C 6493  10.563  -0.046  10.028 -0.1177 -0.0984 -0.2401
   49MOL0     C 6494  10.413  -0.052  10.045 -0.3304  0.3465  0.3229
   49MOL0     C 6495  10.384  -0.088  10.192 -0.7379 -0.9969 -0.6147
   49MOL0     C 6496  10.239  -0.065  10.240 -0.5112  0.0424  0.6959
   49MOL0     N 6497  10.214  -0.110  10.377  0.2777  0.1177  0.6272
   49MOL0     C 6498  10.189  -0.024  10.488  0.1022  0.7173 -0.8424
   49MOL0     C 6499  10.173  -0.111  10.583  0.3307  1.5152  0.0765
   49MOL0     C 6500  10.133  -0.092  10.720 -0.5751  0.6705 -1.3087
   49MOL0     C 6501  10.024   0.017  10.738 -0.3608 -0.2137 -0.5903
   49MOL0     C 6502   9.911  -0.008  10.633  0.1685  0.6481  0.3247
   49MOL0     C 6503   9.773   0.060  10.665  0.1230 -0.1251 -0.2247
   49MOL0     O 6504   9.677   0.047  10.563 -0.6768 -0.0312 -0.3569
   49MOL0     C 6505   9.574   0.134  10.551  0.8366  1.6163 -0.2001
   49MOL0     C 6506   9.528   0.235  10.636 -0.7472 -0.4244  0.5349
   49MOL0     C 6507   9.433   0.326  10.603  0.3424 -0.5417 -0.0226
   49MOL0     C 6508   9.376   0.325  10.482  1.0321 -0.4702 -0.3868
   49MOL0     C 6509   9.275   0.423  10.434 -0.5870 -0.6914 -0.2440
   49MOL0     O 6510   9.194   0.396  10.332  0.1027  0.1145  0.7327
   49MOL0     C 6511   9.060   0.411  10.355 -0.0802 -1.3020  0.0704
   49MOL0     C 6512   9.004   0.531  10.299  0.2018 -0.2180  0.6734
   49MOL0     C 6513   8.871   0.554  10.333 -0.8925 -0.0407 -0.4200
   49MOL0     C 6514   8.795   0.462  10.398 -1.1629 -0.9872  0.7772
   49MOL0     O 6515   8.670   0.481  10.445 -0.0414  0.0453 -0.3066
   49MOL0     C 6516   8.567   0.533  10.364  0.1370 -0.7554 -0.5111
   49MOL0     C 6517   8.555   0.450  10.237  0.5608 -0.0313 -0.3275
   49MOL0     C 6518   8.520   0.310  10.265 -0.0024  0.0454  0.0067
   49MOL0     C 6519   8.526   0.213  10.146 -0.5189 -0.3370 -0.1693
   49MOL0     C 6520   8.451   0.272  10.015  0.1318  0.0179 -0.1019
   49MOL0     C 6521   8.555   0.326   9.916  0.6230 -0.3910  0.4403
   49MOL0     C 6522   8.471   0.376   9.788  0.5149 -0.8627 -1.2347
   49MOL0     C 6523   8.564   0.408   9.666  1.0059  0.3541 -0.3257
   49MOL0    Cl 6524   8.456   0.488   9.547 -0.6344 -0.2744  0.4273
   49MOL0     C 6525   8.844   0.341  10.435 -0.0304  0.4889 -1.1546
   49MOL0     C 6526   8.981   0.314  10.413 -0.1913 -0.2579  0.4340
   49MOL0     O 6527   9.267   0.527  10.502  0.6227  0.1998  0.4472
   49MOL0     C 6528   9.413   0.222  10.395 -0.2972  0.7167 -0.3015
   49MOL0     C 6529   9.516   0.126  10.431 -0.0621  0.7070 -0.4037
   49MOL0     N 6530  10.195  -0.243  10.543 -0.5552  0.1553 -0.1143
   49MOL0     N 6531  10.226  -0.237  10.417  0.4628  0.5673  0.1159
   49MOL0     C 6532  10.608   0.020   9.478  0.2581  0.4874  0.1345
   49MOL0     C 6533  10.524   0.045   9.371 -0.4063 -0.0976 -0.2665
   49MOL0     C 6534  10.281   0.114   9.011  0.1418 -0.4804 -0.7189
   49MOL0     C 6535  10.150   0.165   9.021  0.1305  0.7555 -0.5131
   49MOL0     C 6536  10.049   0.121   8.935 -0.3729  0.2517 -0.0444
   49MOL0     C 6537  10.073   0.025   8.836 -0.4126 -0.3520 -0.6246
   49MOL0     O 6538   9.966  -0.012   8.761 -1.0110 -0.8073 -1.1768
   49MOL0     C 6539   9.962  -0.144   8.715  0.0176 -0.1535  0.5307
   49MOL0     C 6540   9.877  -0.243   8.798  0.8334  0.8124 -0.3987
   49MOL0     C 6541   9.724  -0.235   8.782  1.3569 -0.4931 -0.7816
   49MOL0     C 6542   9.671  -0.124   8.884  0.5994  0.1209  0.1567
   49MOL0     C 6543   9.548  -0.078   8.820  0.2500 -0.2633 -0.4622
   49MOL0     C 6544   9.430  -0.075   8.773 -0.7084  0.1855  0.5590
   49MOL0     C 6545  10.200  -0.011   8.817  0.0909 -0.0440 -1.2211
   49MOL0     C 6546  10.306   0.035   8.900  0.2480 -0.7296 -0.5822
   49MOL0     C 6547  10.440  -0.023   8.861  0.0590  0.8991 -0.6859
   49MOL0     H 6548  10.744   0.019   9.106 -0.5692 -2.0116 -0.3927
   49MOL0     H 6549  10.908   0.002   9.300  0.8082  4.5217  0.5992
   49MOL0     H 6550  10.920   0.103   9.661  0.3254  1.0227  4.8835
   49MOL0     H 6551  10.744   0.103   9.684  0.2736  1.7225 -0.5295
   49MOL0     H 6552  10.898   0.036   9.872  1.1099 -1.0171  0.4327
   49MOL0     H 6553  10.944  -0.110   9.791  1.4122  0.2343 -0.3787
   49MOL0     H 6554  10.784  -0.125   9.975  0.8005  0.6222  0.5372
   49MOL0     H 6555  10.740  -0.205   9.827  1.8789  1.3802 -1.6618
   49MOL0     H 6556  10.622   0.077   9.865  0.1032  0.1050  2.1718
   49MOL0     H 6557  10.539  -0.068   9.814 -1.9313  0.6649  2.1247
   49MOL0     H 6558  10.595  -0.148  10.053 -2.0556 -0.2219  2.1407
   49MOL0     H 6559  10.601   0.021  10.105  0.4182 -1.2250  0.5104
   49MOL0     H 6560  10.365   0.042  10.019 -3.4747 -0.7771  1.5883
   49MOL0     H 6561  10.370  -0.122   9.973 -2.4879  2.6420 -0.7641
   49MOL0     H 6562  10.443  -0.036  10.269  0.0964 -3.2805  0.3873
   49MOL0     H 6563  10.402  -0.193  10.217 -0.8623 -0.4755  1.9928
   49MOL0     H 6564  10.221   0.042  10.228  1.3893  0.2680 -0.5123
   49MOL0     H 6565  10.168  -0.113  10.172  1.4973 -2.6639  0.3612
   49MOL0     H 6566  10.174   0.083  10.483 -0.8240  0.5355 -3.3501
   49MOL0     H 6567  10.088  -0.185  10.757  1.7700  0.7434  2.1029
   49MOL0     H 6568  10.221  -0.080  10.783 -0.8140  2.5360 -1.2594
   49MOL0     H 6569   9.987   0.002  10.840  1.5847 -1.4523 -0.0070
   49MOL0     H 6570  10.069   0.116  10.727  0.8049 -0.4110  1.7273
   49MOL0     H 6571   9.891  -0.115  10.626  0.7486  0.5239  0.5846
   49MOL0     H 6572   9.938   0.034  10.536  1.9801  2.8300  1.6650
   49MOL0     H 6573   9.809   0.162  10.683  2.3298 -0.9186  0.1432
   49MOL0     H 6574   9.743   0.012  10.758  2.5292 -3.1556 -0.8408
   49MOL0     H 6575   9.580   0.233  10.731  2.4695  1.4442 -1.0230
   49MOL0     H 6576   9.413   0.410  10.669  2.5970  0.4170 -0.4529
   49MOL0     H 6577   9.067   0.599  10.243  0.3032 -0.4230  0.5357
   49MOL0     H 6578   8.827   0.648  10.302 -3.0292 -1.1569 -0.9650
   49MOL0     H 6579   8.474   0.540  10.421  0.7697  3.0840  0.3167
   49MOL0     H 6580   8.585   0.639  10.346  3.0344 -1.2067 -0.6996
   49MOL0     H 6581   8.488   0.509  10.173 -2.4688 -0.7336  1.9978
   49MOL0     H 6582   8.651   0.454  10.185  1.2761 -0.3647  0.9422
   49MOL0     H 6583   8.596   0.273  10.334 -1.2540  0.2678  1.5853
   49MOL0     H 6584   8.421   0.298  10.311 -0.5732  0.0056 -1.1917
   49MOL0     H 6585   8.473   0.122  10.176 -0.7944 -0.6644 -1.5945
   49MOL0     H 6586   8.631   0.187  10.133  0.6665  1.5221  3.8596
   49MOL0     H 6587   8.385   0.355  10.043  1.3967  1.4961 -1.2704
   49MOL0     H 6588   8.394   0.186   9.980 -2.8191  1.0203  1.8395
   49MOL0     H 6589   8.606   0.413   9.958 -0.5622  0.2142  0.6672
   49MOL0     H 6590   8.626   0.252   9.878  2.5813  1.5924  0.0184
   49MOL0     H 6591   8.419   0.464   9.826 -1.6256 -2.0727 -1.2054
   49MOL0     H 6592   8.399   0.300   9.759  3.5614 -3.2151 -3.3682
   49MOL0     H 6593   8.653   0.465   9.695  0.5687  1.5389 -1.1944
   49MOL0     H 6594   8.583   0.310   9.623 -1.8688 -0.9060  0.9917
   49MOL0     H 6595   8.778   0.266  10.477 -1.1644  0.0589 -3.5756
   49MOL0     H 6596   9.026   0.222  10.450  0.0262  0.0258  0.8819
   49MOL0     H 6597   9.358   0.213  10.302 -0.5136 -1.6835  0.0027
   49MOL0     H 6598   9.547   0.040  10.373 -0.5505 -1.3209  2.1448
   49MOL0     H 6599  10.566   0.020   9.578 -0.7145 -3.0745 -0.1546
   49MOL0     H 6600  10.420   0.066   9.394 -0.3833  0.0148 -0.2637
   49MOL0     H 6601  10.121   0.232   9.102  2.7806  1.4220 -0.0259
   49MOL0     H 6602   9.947   0.157   8.937 -0.7585 -0.3059 -3.2823
   49MOL0     H 6603  10.059  -0.195   8.719 -1.6061 -3.4455  2.4603
   49MOL0     H 6604   9.909  -0.135   8.620 -2.2917  0.6086  1.8042
   49MOL0     H 6605   9.897  -0.247   8.906 -0.6000 -2.3917 -0.1307
   49MOL0     H 6606   9.900  -0.345   8.763 -2.2154 -0.4069  0.7772
   49MOL0     H 6607   9.697  -0.339   8.805  1.1812 -0.1183  0.8518
   49MOL0     H 6608   9.693  -0.216   8.679  0.8472  2.8017 -0.1112
   49MOL0     H 6609   9.666  -0.161   8.986  0.2602 -0.2017  0.0262
   49MOL0     H 6610   9.736  -0.036   8.894  3.4645 -2.1252  3.7615
   49MOL0     H 6611   9.328  -0.071   8.740  0.1634 -0.4251 -2.4951
   49MOL0     H 6612  10.226  -0.090   8.747  2.0446 -0.0067 -0.5800
   49MOL0     H 6613  10.520   0.049   8.881  0.9688 -0.2665 -0.0341
   49MOL0     H 6614  10.450  -0.115   8.919 -4.0114  1.0114  0.5092
   49MOL0     H 6615  10.440  -0.046   8.754 -0.2022 -0.1829 -0.4622
   50MOL0     O 6616   5.079  11.076   1.467 -0.3058 -0.0798  0.2366
   50MOL0     C 6617   5.035  11.159   1.542  0.5842 -0.2306 -0.4745
   50MOL0     O 6618   5.104  11.262   1.599  0.5057 -0.7005 -0.5124
   50MOL0     C 6619   5.236  11.267   1.584  0.0956 -0.4479 -0.1946
   50MOL0     C 6620   5.315  11.279   1.694  0.2674 -0.1886 -0.1920
   50MOL0     C 6621   5.452  11.296   1.695  0.1643 -0.2967 -0.0301
   50MOL0     C 6622   5.518  11.274   1.580  0.1051  0.8170  0.8328
   50MOL0     O 6623   5.659  11.278   1.583  0.3372 -0.1988  0.1202
   50MOL0     C 6624   5.751  11.233   1.478  0.7403  0.0622  0.3781
   50MOL0     C 6625   5.864  11.339   1.455  0.2646  0.2849 -0.0863
   50MOL0     C 6626   5.964  11.275   1.357  0.5210  0.6997  0.1456
   50MOL0     C 6627   6.059  11.169   1.425  1.1566  0.4007  0.5465
   50MOL0     C 6628   6.193  11.173   1.351 -0.1602 -1.5700  1.0667
   50MOL0     C 6629   6.294  11.090   1.430 -0.8975 -0.6900 -1.2944
   50MOL0     C 6630   6.269  10.944   1.433 -0.6213  0.6976 -0.2202
   50MOL0     C 6631   6.395  10.864   1.444 -1.3280 -0.6834  0.1177
   50MOL0     N 6632   6.398  10.727   1.396  0.0649 -0.0961  0.4119
   50MOL0     C 6633   6.321  10.629   1.451  0.5312 -0.4103 -0.4814
   50MOL0     C 6634   6.339  10.529   1.363  0.4021  0.5705  1.0090
   50MOL0     C 6635   6.266  10.392   1.352  0.1806 -0.3310 -0.4906
   50MOL0     C 6636   6.357  10.271   1.380  0.3389 -0.3023 -0.1633
   50MOL0     C 6637   6.293  10.135   1.363 -0.3325  0.1815  0.0252
   50MOL0     C 6638   6.145  10.131   1.419 -0.1413  0.3635  0.1735
   50MOL0     O 6639   6.144  10.171   1.557 -0.1355  0.1152 -0.1814
   50MOL0     C 6640   6.049  10.118   1.640 -0.5849  0.0111  0.7156
   50MOL0     C 6641   5.919  10.104   1.607  0.5437 -0.8819 -0.2387
   50MOL0     C 6642   5.824  10.052   1.692  0.0960  0.2294  0.2494
   50MOL0     C 6643   5.862  10.000   1.820 -0.7725 -0.7024 -0.3746
   50MOL0     C 6644   5.764   9.950   1.908  0.2624  0.8691  0.4964
   50MOL0     O 6645   5.638   9.965   1.869 -0.1204 -0.5191 -0.1306
   50MOL0     C 6646   5.528   9.912   1.927  0.1467 -0.7132 -0.7746
   50MOL0     C 6647   5.416   9.933   1.842  0.0566  0.5272 -0.2110
   50MOL0     C 6648   5.294   9.869   1.876 -0.0187 -0.7050 -0.9781
   50MOL0     C 6649   5.273   9.803   1.999 -1.1423 -0.5553  0.1855
   50MOL0     O 6650   5.158   9.746   2.042 -0.4367 -0.6601 -0.3884
   50MOL0     C 6651   5.038   9.790   1.985  0.8948  0.8349  0.3007
   50MOL0     C 6652   4.915   9.714   2.058 -0.5130  0.0893 -0.1407
   50MOL0     C 6653   4.911   9.746   2.205 -0.6933  0.4393 -0.7009
   50MOL0     C 6654   4.784   9.690   2.276 -0.2626  0.8134 -0.8776
   50MOL0     C 6655   4.729   9.548   2.243  0.2645 -0.0279  0.2623
   50MOL0     C 6656   4.816   9.421   2.288  0.8775 -0.3830  0.3338
   50MOL0     C 6657   4.742   9.286   2.249  0.6855  0.1756  0.1178
   50MOL0     C 6658   4.850   9.182   2.246  0.1583  0.0491  0.6750
   50MOL0    Cl 6659   4.771   9.022   2.205  0.2514  0.3416  0.5713
   50MOL0     C 6660   5.388   9.799   2.088 -0.3769  0.3245  0.4491
   50MOL0     C 6661   5.513   9.843   2.046  0.3762 -0.2882 -0.9359
   50MOL0     O 6662   5.800   9.890   2.013 -0.4189  0.0639 -0.3089
   50MOL0     C 6663   5.995  10.015   1.854  0.1615 -0.3352  0.2807
   50MOL0     C 6664   6.089  10.069   1.764  0.0837 -0.4701 -0.8573
   50MOL0     N 6665   6.435  10.561   1.264  0.0788 -1.0411 -0.4346
   50MOL0     N 6666   6.467  10.684   1.288 -0.4726  0.2412 -0.3863
   50MOL0     C 6667   5.442  11.236   1.461  0.3592  0.8737  0.0865
   50MOL0     C 6668   5.304  11.257   1.462 -0.3590  0.7574  1.4103
   50MOL0     C 6669   4.883  11.185   1.550  0.2247 -0.6281  1.4629
   50MOL0     C 6670   4.837  11.319   1.558  0.3698 -0.0604  0.2180
   50MOL0     C 6671   4.694  11.349   1.549 -0.1419  1.0357 -0.3416
   50MOL0     C 6672   4.609  11.243   1.545  0.5435 -0.1135  0.2581
   50MOL0     O 6673   4.477  11.282   1.568 -0.1796 -0.4365  0.3099
   50MOL0     C 6674   4.388  11.190   1.619 -0.0859  0.4446  0.5237
   50MOL0     C 6675   4.287  11.136   1.510 -0.2519  0.1254 -0.0104
   50MOL0     C 6676   4.176  11.050   1.576  0.2578 -0.1157 -0.2153
   50MOL0     C 6677   4.103  10.953   1.471 -0.0632 -0.0827  0.0107
   50MOL0     C 6678   4.012  11.032   1.383 -0.4213  0.0955 -0.1120
   50MOL0     C 6679   3.936  11.097   1.311 -1.0867 -0.6731  0.8376
   50MOL0     C 6680   4.653  11.110   1.550  0.5266  0.1784  1.2513
   50MOL0     C 6681   4.789  11.077   1.534  0.6112  0.3280 -0.3543
   50MOL0     C 6682   4.842  10.940   1.516  0.4285  0.2286 -0.0357
   50MOL0     H 6683   5.247  11.281   1.779 -1.6166  2.3475 -1.6228
   50MOL0     H 6684   5.508  11.323   1.784  2.9938 -1.0746 -1.4855
   50MOL0     H 6685   5.790  11.131   1.487 -0.3562 -0.2223  2.7229
   50MOL0     H 6686   5.707  11.224   1.378  1.7093  2.2818 -0.3077
   50MOL0     H 6687   5.916  11.353   1.550  2.8649 -1.1914 -1.1706
   50MOL0     H 6688   5.824  11.429   1.407  0.2135 -1.7125 -4.3303
   50MOL0     H 6689   6.022  11.363   1.326  3.2946 -0.3326  2.0718
   50MOL0     H 6690   5.918  11.232   1.267 -3.9881  0.1302  2.4015
   50MOL0     H 6691   6.070  11.201   1.529 -1.3740  2.1271  0.3784
   50MOL0     H 6692   6.024  11.065   1.427 -0.7242  0.9343 -0.9483
   50MOL0     H 6693   6.178  11.132   1.251 -2.1872  2.7095 -0.6188
   50MOL0     H 6694   6.237  11.272   1.345 -2.0270 -0.6728  1.2931
   50MOL0     H 6695   6.389  11.109   1.379 -1.0086 -1.1883 -1.6985
   50MOL0     H 6696   6.299  11.127   1.532  1.3530  2.0983 -2.2684
   50MOL0     H 6697   6.221  10.911   1.340  3.4269  2.5088 -3.3011
   50MOL0     H 6698   6.208  10.926   1.521 -0.5865 -0.8775 -0.4860
   50MOL0     H 6699   6.461  10.924   1.381  0.4204 -2.9613 -0.3574
   50MOL0     H 6700   6.443  10.863   1.542  1.9495  0.9394 -1.2924
   50MOL0     H 6701   6.244  10.638   1.527  0.4054 -2.3311 -0.3311
   50MOL0     H 6702   6.190  10.406   1.429  3.6702  0.6808  3.1540
   50MOL0     H 6703   6.226  10.384   1.251 -1.3824 -1.0681  0.1622
   50MOL0     H 6704   6.441  10.268   1.310 -1.0502  0.1937 -1.9497
   50MOL0     H 6705   6.401  10.293   1.478 -0.9356  0.8742  0.1688
   50MOL0     H 6706   6.358  10.061   1.410  0.2994 -0.3743 -1.6669
   50MOL0     H 6707   6.298  10.102   1.259  0.5966 -0.2022  0.1898
   50MOL0     H 6708   6.119  10.025   1.414  0.0561  0.3162  0.1535
   50MOL0     H 6709   6.070  10.179   1.356  0.3614 -2.1599 -2.5699
   50MOL0     H 6710   5.891  10.139   1.509 -0.6079  0.6051  0.5770
   50MOL0     H 6711   5.722  10.050   1.655  0.3648  0.0724 -0.5136
   50MOL0     H 6712   5.418   9.991   1.750 -1.9459 -0.3958 -0.8936
   50MOL0     H 6713   5.213   9.886   1.806  0.2449 -0.1369 -1.1521
   50MOL0     H 6714   5.027   9.898   2.001 -0.3282  0.5936  1.2255
   50MOL0     H 6715   5.038   9.768   1.878 -0.5480  1.2993  0.1788
   50MOL0     H 6716   4.818   9.742   2.015  1.0035  1.2383 -3.1105
   50MOL0     H 6717   4.938   9.608   2.044  1.8511  0.5448 -0.1134
   50MOL0     H 6718   4.996   9.697   2.253 -0.4555  0.8315 -0.7115
   50MOL0     H 6719   4.924   9.853   2.224 -1.3713  0.1917  1.3975
   50MOL0     H 6720   4.706   9.760   2.246  0.2904  1.3930 -0.9833
   50MOL0     H 6721   4.797   9.693   2.385 -0.1632 -0.6893 -0.8272
   50MOL0     H 6722   4.707   9.542   2.136 -3.9541  1.8086  0.8366
   50MOL0     H 6723   4.633   9.542   2.295 -1.1560 -1.0212 -2.2728
   50MOL0     H 6724   4.916   9.429   2.244  0.7808 -1.5989 -0.1578
   50MOL0     H 6725   4.828   9.413   2.396 -2.3782 -0.8872  0.7786
   50MOL0     H 6726   4.698   9.308   2.151  1.2800 -0.4690 -0.3052
   50MOL0     H 6727   4.661   9.268   2.321  0.6523  1.4407  0.4098
   50MOL0     H 6728   4.929   9.210   2.175 -0.1770 -0.9128 -0.0941
   50MOL0     H 6729   4.890   9.171   2.347 -0.3384 -0.9317  0.7763
   50MOL0     H 6730   5.372   9.766   2.190 -2.5360 -0.6001 -0.1284
   50MOL0     H 6731   5.596   9.832   2.116  2.4814  0.6333 -3.1548
   50MOL0     H 6732   6.032   9.977   1.949  1.3700  0.9328  0.3467
   50MOL0     H 6733   6.195  10.079   1.787 -0.4033  0.2576  1.2315
   50MOL0     H 6734   5.480  11.194   1.369 -0.9644 -0.3898  0.0830
   50MOL0     H 6735   5.239  11.246   1.375  0.2256 -2.0690  1.2164
   50MOL0     H 6736   4.915  11.393   1.570  1.8970 -1.8547  1.9387
   50MOL0     H 6737   4.656  11.449   1.568 -0.3854  0.5827  1.7578
   50MOL0     H 6738   4.331  11.253   1.689  1.1143  0.2536  1.7053
   50MOL0     H 6739   4.434  11.113   1.681  2.8869  2.2736  0.8112
   50MOL0     H 6740   4.346  11.083   1.435 -1.4364 -1.1365 -0.0840
   50MOL0     H 6741   4.241  11.224   1.465  2.8800  1.2704 -1.2837
   50MOL0     H 6742   4.101  11.110   1.628  1.3257  0.9984  0.0880
   50MOL0     H 6743   4.211  10.992   1.662 -0.8373 -0.5372 -0.0429
   50MOL0     H 6744   4.177  10.898   1.412 -0.4308  0.1895 -0.7177
   50MOL0     H 6745   4.059  10.872   1.530  2.2857 -2.0358 -0.7541
   50MOL0     H 6746   3.881  11.153   1.239 -1.3377 -2.6233 -0.5556
   50MOL0     H 6747   4.591  11.022   1.565  0.8921 -0.1075  1.0886
   50MOL0     H 6748   4.918  10.923   1.593  0.1866 -0.4895  0.0520
   50MOL0     H 6749   4.769  10.863   1.542 -0.4708  0.2840 -2.1892
   50MOL0     H 6750   4.880  10.919   1.416  0.4571 -0.8973  0.1976
   51MOL0     O 6751   9.912   6.653   4.944  0.3114 -0.5082 -0.3461
   51MOL0     C 6752   9.793   6.648   4.954  0.1913 -0.7654  0.3486
   51MOL0     O 6753   9.735   6.623   5.073  0.7635  0.4272  0.1693
   51MOL0     C 6754   9.755   6.498   5.131  0.9108  0.3157  1.0546
   51MOL0     C 6755   9.702   6.472   5.262 -0.1398  0.8578  0.6551
   51MOL0     C 6756   9.707   6.348   5.325 -0.4715  1.4337 -0.3929
   51MOL0     C 6757   9.771   6.239   5.262  0.3731 -0.0633  0.2280
   51MOL0     O 6758   9.775   6.120   5.334 -0.6330  0.3781 -0.0713
   51MOL0     C 6759   9.908   6.051   5.321 -0.3732 -0.4689  0.3679
   51MOL0     C 6760   9.901   5.916   5.407  0.6030  1.0231  0.1245
   51MOL0     C 6761  10.027   5.834   5.422  0.1044 -1.2120  0.0936
   51MOL0     C 6762  10.080   5.737   5.307  0.8603 -0.6708  0.4712
   51MOL0     C 6763  10.200   5.666   5.370 -0.4283 -0.0000  0.8130
   51MOL0     C 6764  10.173   5.556   5.476  0.3840  1.0129  0.4438
   51MOL0     C 6765  10.084   5.436   5.429  0.1860  0.6308  0.9485
   51MOL0     C 6766  10.156   5.359   5.319 -0.2062  0.3020 -0.7806
   51MOL0     N 6767  10.064   5.256   5.268 -0.1731 -0.7553 -0.3209
   51MOL0     C 6768   9.966   5.284   5.175 -0.7004  0.2069 -0.3443
   51MOL0     C 6769   9.909   5.172   5.131 -0.2350 -1.2820  0.4751
   51MOL0     C 6770   9.804   5.140   5.027  0.3780  0.0958 -0.4490
   51MOL0     C 6771   9.668   5.221   5.054 -0.9186  0.6098 -0.6479
   51MOL0     C 6772   9.573   5.224   4.941 -0.3418  0.7291 -0.7381
   51MOL0     C 6773   9.460   5.331   4.956  0.5071 -0.2617  0.4955
   51MOL0     O 6774   9.510   5.463   4.948  0.5846 -0.2067  0.2915
   51MOL0     C 6775   9.420   5.564   4.929  0.3394 -0.6187  0.0397
   51MOL0     C 6776   9.288   5.564   4.983 -0.2897  0.5954  0.5862
   51MOL0     C 6777   9.196   5.671   4.943 -0.4302  0.1873  0.6725
   51MOL0     C 6778   9.238   5.779   4.866  0.8611 -0.2323  0.8687
   51MOL0     C 6779   9.139   5.877   4.838 -0.8164 -0.6134  0.1446
   51MOL0     O 6780   9.008   5.850   4.868  0.3915  0.3173  0.5914
   51MOL0     C 6781   8.901   5.904   4.807 -0.0416 -0.6681  0.2586
   51MOL0     C 6782   8.897   5.967   4.681  0.5236  0.4450  0.0724
   51MOL0     C 6783   8.777   5.997   4.614 -0.8866 -0.2604 -0.3164
   51MOL0     C 6784   8.654   5.953   4.669 -0.8436  0.6750  0.2107
   51MOL0     O 6785   8.544   5.954   4.595  1.3674 -1.0236 -0.5515
   51MOL0     C 6786   8.546   6.010   4.467  0.8878 -0.4532 -0.4363
   51MOL0     C 6787   8.411   5.985   4.402  0.6400 -0.1226  0.7926
   51MOL0     C 6788   8.404   6.062   4.268 -0.2782  0.5657 -1.1071
   51MOL0     C 6789   8.482   5.984   4.152  0.4201  0.0813  0.3895
   51MOL0     C 6790   8.416   6.032   4.023  0.9063 -0.0890  0.5941
   51MOL0     C 6791   8.442   5.967   3.888  0.0347 -0.0853 -0.7253
   51MOL0     C 6792   8.579   6.003   3.819  0.8221 -0.7822  0.6052
   51MOL0     C 6793   8.595   5.932   3.682 -0.0877  0.8493  0.3908
   51MOL0    Cl 6794   8.624   5.760   3.704  0.1347 -0.0314 -0.0556
   51MOL0     C 6795   8.654   5.889   4.791 -0.6323 -1.7243  0.6528
   51MOL0     C 6796   8.774   5.870   4.860 -0.1925 -0.0851 -0.8220
   51MOL0     O 6797   9.183   5.966   4.768  0.0595 -0.0871 -0.6718
   51MOL0     C 6798   9.368   5.777   4.812  0.5796 -0.4835 -0.5383
   51MOL0     C 6799   9.457   5.676   4.849 -0.6343  1.1863 -0.1729
   51MOL0     N 6800   9.977   5.070   5.193  0.2859  0.7427  0.1779
   51MOL0     N 6801  10.074   5.120   5.266  0.0715  0.1833 -0.0739
   51MOL0     C 6802   9.826   6.256   5.126 -0.3638  0.5041 -0.3186
   51MOL0     C 6803   9.814   6.386   5.069 -0.1646 -0.1572  0.0949
   51MOL0     C 6804   9.710   6.690   4.840 -0.3363 -0.5687 -0.1940
   51MOL0     C 6805   9.783   6.723   4.723 -0.0433  0.3920  1.0736
   51MOL0     C 6806   9.720   6.767   4.603 -0.8772 -0.2858 -0.6435
   51MOL0     C 6807   9.581   6.779   4.609  0.0744  0.6234  0.5720
   51MOL0     O 6808   9.515   6.826   4.493 -0.4334 -0.4977 -0.3024
   51MOL0     C 6809   9.419   6.926   4.504 -1.0347  0.1903  1.1851
   51MOL0     C 6810   9.463   7.065   4.556  1.4614  0.1092  0.2346
   51MOL0     C 6811   9.360   7.181   4.519 -0.9160  0.4118  0.3889
   51MOL0     C 6812   9.380   7.220   4.367 -0.2798 -0.6246 -1.0314
   51MOL0     C 6813   9.283   7.331   4.343  0.7252  0.6921 -0.3017
   51MOL0     C 6814   9.216   7.429   4.315 -0.5596  0.4823 -0.3452
   51MOL0     C 6815   9.510   6.744   4.720  0.1441 -0.2515 -0.3156
   51MOL0     C 6816   9.568   6.697   4.840  0.0433  0.4686 -0.1107
   51MOL0     C 6817   9.474   6.670   4.951 -0.1887  0.0126 -0.5509
   51MOL0     H 6818   9.641   6.554   5.299 -1.5441  0.3097 -0.3523
   51MOL0     H 6819   9.655   6.335   5.420 -1.9232  6.7043 -0.1697
   51MOL0     H 6820   9.932   6.016   5.220 -2.8080  1.1260 -0.8576
   51MOL0     H 6821   9.992   6.111   5.358 -0.2267 -0.3831 -0.1026
   51MOL0     H 6822   9.828   5.849   5.360  2.7154 -0.0760 -1.7739
   51MOL0     H 6823   9.857   5.958   5.498  0.3529  2.1011 -0.4729
   51MOL0     H 6824   9.998   5.770   5.506  1.9714  1.2167  2.7949
   51MOL0     H 6825  10.105   5.906   5.450  0.5775 -2.2874  1.6523
   51MOL0     H 6826  10.008   5.658   5.284  0.3483  0.0699 -0.5043
   51MOL0     H 6827  10.107   5.781   5.211 -0.3732  3.7121  1.9016
   51MOL0     H 6828  10.251   5.611   5.290  2.3614  0.5844  2.0423
   51MOL0     H 6829  10.276   5.737   5.403  0.7087 -1.7831  2.2455
   51MOL0     H 6830  10.268   5.520   5.518 -0.6365 -1.4280  0.8585
   51MOL0     H 6831  10.110   5.590   5.558  0.8384 -4.0255  3.3157
   51MOL0     H 6832   9.986   5.473   5.398 -0.8121 -2.7594 -0.3636
   51MOL0     H 6833  10.049   5.366   5.505  1.2909 -2.7386 -1.4224
   51MOL0     H 6834  10.178   5.431   5.240 -1.2717  1.0565 -0.4155
   51MOL0     H 6835  10.249   5.316   5.358  0.2979  2.8036  1.0054
   51MOL0     H 6836   9.950   5.380   5.126 -0.3134 -0.5005 -1.9211
   51MOL0     H 6837   9.850   5.178   4.935  1.3775  0.4659  0.1832
   51MOL0     H 6838   9.785   5.032   5.027 -0.9898  0.2901 -2.2018
   51MOL0     H 6839   9.617   5.180   5.142  1.1696  1.9812  1.3140
   51MOL0     H 6840   9.695   5.320   5.090 -1.3363 -0.1669  1.9952
   51MOL0     H 6841   9.511   5.134   4.947 -0.3426  0.7735 -0.0232
   51MOL0     H 6842   9.612   5.244   4.841  1.0252 -2.7488 -1.0313
   51MOL0     H 6843   9.412   5.321   5.054 -2.3138  1.3237 -0.6086
   51MOL0     H 6844   9.387   5.305   4.879  2.1624 -1.6829 -0.6887
   51MOL0     H 6845   9.248   5.491   5.054 -1.0005  0.3651 -0.0344
   51MOL0     H 6846   9.103   5.648   4.993  0.2131  0.9890  2.3049
   51MOL0     H 6847   8.993   5.994   4.638  0.8159 -2.4202 -1.3099
   51MOL0     H 6848   8.784   6.036   4.512 -3.0120 -4.4924 -2.3428
   51MOL0     H 6849   8.572   6.116   4.469  0.7846 -0.3723 -2.1698
   51MOL0     H 6850   8.623   5.963   4.405  0.8580  0.7981 -1.4413
   51MOL0     H 6851   8.392   5.877   4.402  2.7460 -0.5317  1.6246
   51MOL0     H 6852   8.330   6.028   4.461 -1.7872 -1.5437 -1.2748
   51MOL0     H 6853   8.298   6.071   4.242 -0.9751 -0.7001  0.9710
   51MOL0     H 6854   8.447   6.162   4.282  1.5645 -0.2080 -1.0473
   51MOL0     H 6855   8.461   5.877   4.151 -1.1104  0.3108 -2.5250
   51MOL0     H 6856   8.591   5.996   4.154  0.9060 -3.2826  2.5979
   51MOL0     H 6857   8.430   6.139   4.007 -2.0168  0.3861  0.7028
   51MOL0     H 6858   8.308   6.024   4.042  0.9911  1.8379  2.3163
   51MOL0     H 6859   8.431   5.860   3.907 -2.0728 -0.5848 -3.8871
   51MOL0     H 6860   8.360   5.998   3.822 -3.3974 -1.3374  2.5745
   51MOL0     H 6861   8.669   5.983   3.878  2.2168  2.5161 -0.1716
   51MOL0     H 6862   8.581   6.111   3.798 -4.7894 -0.5954 -0.7156
   51MOL0     H 6863   8.499   5.937   3.630  1.0636  0.2327 -1.9181
   51MOL0     H 6864   8.667   5.977   3.613 -0.9720  2.9512  0.7697
   51MOL0     H 6865   8.558   5.850   4.823 -2.7625  1.7764 -0.9425
   51MOL0     H 6866   8.786   5.808   4.948  2.2067  1.9870  0.4330
   51MOL0     H 6867   9.404   5.869   4.767  1.6584 -1.5826 -2.0110
   51MOL0     H 6868   9.558   5.670   4.808 -0.6157  0.3445 -0.0171
   51MOL0     H 6869   9.860   6.165   5.078 -1.0450 -1.2992  2.4256
   51MOL0     H 6870   9.852   6.393   4.968 -0.3253  1.0879  0.0979
   51MOL0     H 6871   9.892   6.727   4.716  0.3271 -2.1736  3.4825
   51MOL0     H 6872   9.774   6.789   4.512 -0.6473  1.8275 -0.0539
   51MOL0     H 6873   9.341   6.875   4.561  0.9107 -3.1523  1.0723
   51MOL0     H 6874   9.374   6.931   4.404  1.2182 -0.0326  0.0975
   51MOL0     H 6875   9.568   7.079   4.528  1.7787  0.2918  1.4451
   51MOL0     H 6876   9.451   7.038   4.661 -0.4020  0.3023  0.0970
   51MOL0     H 6877   9.364   7.272   4.580  2.9094  0.2890  0.6137
   51MOL0     H 6878   9.262   7.137   4.541 -0.3636 -0.1562  1.8539
   51MOL0     H 6879   9.482   7.243   4.337 -0.4921 -1.3152 -2.3603
   51MOL0     H 6880   9.354   7.131   4.309  1.3488 -1.9979  0.2502
   51MOL0     H 6881   9.163   7.515   4.279  0.4524  3.8282  5.0350
   51MOL0     H 6882   9.403   6.766   4.717  0.2260  0.0592 -1.3539
   51MOL0     H 6883   9.508   6.734   5.032  0.7544 -1.7251  0.4726
   51MOL0     H 6884   9.372   6.701   4.923 -0.2675  1.2628  0.9827
   51MOL0     H 6885   9.470   6.564   4.977  0.4606 -0.2815 -1.5521
   52MOL0     O 6886   1.094   9.167   9.891  0.6339 -0.0070 -1.4777
   52MOL0     C 6887   1.055   9.106   9.792 -1.3281  0.2268 -0.3185
   52MOL0     O 6888   1.113   9.128   9.672 -0.2006  0.9919 -1.2790
   52MOL0     C 6889   1.212   9.218   9.654  0.0822 -0.0414 -0.4773
   52MOL0     C 6890   1.324   9.190   9.578 -0.0041 -0.9414 -1.0778
   52MOL0     C 6891   1.408   9.291   9.545 -0.0430  0.0653 -0.0275
   52MOL0     C 6892   1.374   9.419   9.582 -0.1401  0.9953 -0.3939
   52MOL0     O 6893   1.446   9.506   9.512 -0.5451  0.0761 -0.1095
   52MOL0     C 6894   1.409   9.643   9.502  0.3807 -0.5474  0.3943
   52MOL0     C 6895   1.292   9.650   9.399 -0.6160 -0.4811 -0.6976
   52MOL0     C 6896   1.318   9.570   9.277  0.2673  0.7879  0.1640
   52MOL0     C 6897   1.192   9.582   9.177  0.4757 -0.1908  0.4259
   52MOL0     C 6898   1.231   9.534   9.032  0.7307 -0.0147 -0.0991
   52MOL0     C 6899   1.123   9.573   8.923  0.5676 -0.1816  0.3376
   52MOL0     C 6900   0.976   9.537   8.967 -0.4130  0.1907  0.3669
   52MOL0     C 6901   0.955   9.384   8.963 -0.4762  0.6051 -0.6755
   52MOL0     N 6902   0.989   9.311   8.842 -0.4796 -0.2190  0.0954
   52MOL0     C 6903   0.917   9.310   8.732  0.1774 -0.3956  0.0990
   52MOL0     C 6904   0.980   9.219   8.653  0.2518  0.7889 -0.3311
   52MOL0     C 6905   0.935   9.167   8.521 -0.3886 -0.7592  0.2058
   52MOL0     C 6906   1.052   9.172   8.416  1.0208  0.3232  0.0729
   52MOL0     C 6907   1.110   9.314   8.394  0.4954 -0.1239  0.8796
   52MOL0     C 6908   1.199   9.326   8.272  0.3951  0.7358  0.0862
   52MOL0     O 6909   1.109   9.323   8.163  0.4237 -1.7115 -0.5379
   52MOL0     C 6910   1.153   9.397   8.052  0.1929 -0.3602  0.1724
   52MOL0     C 6911   1.059   9.426   7.954 -0.3830 -0.0761 -0.5724
   52MOL0     C 6912   1.081   9.492   7.840  0.3243  1.8031 -1.9635
   52MOL0     C 6913   1.212   9.523   7.814  0.1560 -1.4706  0.4548
   52MOL0     C 6914   1.248   9.597   7.693  0.1507 -0.0031  1.1475
   52MOL0     O 6915   1.364   9.672   7.702 -0.5987  0.9865  0.3316
   52MOL0     C 6916   1.388   9.746   7.591  0.6969  0.3064 -1.1272
   52MOL0     C 6917   1.305   9.854   7.553 -0.1069  0.9796 -0.4835
   52MOL0     C 6918   1.336   9.923   7.436 -0.2641 -0.8383  0.1692
   52MOL0     C 6919   1.452   9.897   7.363  0.4819 -0.2326 -0.5610
   52MOL0     O 6920   1.504   9.970   7.264 -0.4609  0.4891 -0.6632
   52MOL0     C 6921   1.442  10.093   7.225 -0.2970  0.6454  0.4567
   52MOL0     C 6922   1.514  10.157   7.106 -1.0245 -0.3943 -0.0266
   52MOL0     C 6923   1.450  10.278   7.044  0.1849 -0.8595  0.9851
   52MOL0     C 6924   1.523  10.339   6.922 -0.8914  0.9390 -0.8353
   52MOL0     C 6925   1.455  10.454   6.859  0.4960 -0.0507  0.0166
   52MOL0     C 6926   1.525  10.514   6.735  0.7808  0.3452  0.9648
   52MOL0     C 6927   1.498  10.663   6.728  0.2830 -0.3624 -0.0728
   52MOL0     C 6928   1.554  10.715   6.597  0.0608 -0.6217 -0.0809
   52MOL0    Cl 6929   1.531  10.886   6.570 -0.4712  0.3094  0.6388
   52MOL0     C 6930   1.538   9.798   7.405  0.3230  1.3442 -0.2891
   52MOL0     C 6931   1.506   9.718   7.519 -0.2237 -0.4362  0.3315
   52MOL0     O 6932   1.163   9.612   7.604 -0.3474  0.1639  0.1044
   52MOL0     C 6933   1.314   9.496   7.902 -0.6487 -0.0972  0.8435
   52MOL0     C 6934   1.285   9.428   8.023  0.4951 -0.2811 -0.5357
   52MOL0     N 6935   1.104   9.175   8.712 -0.5324  0.8216  0.3442
   52MOL0     N 6936   1.109   9.241   8.831  0.2235  0.4769 -1.4831
   52MOL0     C 6937   1.262   9.448   9.659  0.1371 -0.6529 -0.1158
   52MOL0     C 6938   1.173   9.348   9.690 -0.8172 -0.3686  0.1346
   52MOL0     C 6939   0.954   9.006   9.803 -0.0009  0.2031  0.9648
   52MOL0     C 6940   0.962   8.905   9.702 -0.0435 -0.8920 -0.3534
   52MOL0     C 6941   0.873   8.798   9.707 -0.0945  0.2215 -0.1604
   52MOL0     C 6942   0.779   8.792   9.807 -1.1154  0.5207  0.4216
   52MOL0     O 6943   0.700   8.683   9.827  0.1072  0.6333  0.0675
   52MOL0     C 6944   0.750   8.555   9.775 -0.3394 -0.7985 -0.0518
   52MOL0     C 6945   0.697   8.448   9.864 -0.2626  0.5514  0.0795
   52MOL0     C 6946   0.681   8.315   9.784  0.2795 -0.4072  0.4988
   52MOL0     C 6947   0.712   8.188   9.864  0.0681 -0.5571 -0.5702
   52MOL0     C 6948   0.601   8.146   9.941 -1.0762 -0.6228  0.5084
   52MOL0     C 6949   0.488   8.112   9.973 -0.3364  0.4702  0.0168
   52MOL0     C 6950   0.759   8.896   9.896  0.1990 -0.4848 -0.0955
   52MOL0     C 6951   0.851   9.005   9.891  0.0900  0.3217  0.5388
   52MOL0     C 6952   0.822   9.117   9.987 -0.3797  0.3674  0.1799
   52MOL0     H 6953   1.344   9.086   9.557  1.7273 -0.7058 -0.6959
   52MOL0     H 6954   1.488   9.268   9.476  0.1770  0.6051  0.0424
   52MOL0     H 6955   1.376   9.678   9.601  4.9599 -0.9634  2.2852
   52MOL0     H 6956   1.494   9.705   9.474  2.0483 -3.0613 -0.4212
   52MOL0     H 6957   1.277   9.755   9.369  1.9467 -0.1605 -1.1024
   52MOL0     H 6958   1.196   9.622   9.443 -0.6777  3.4933  2.2552
   52MOL0     H 6959   1.330   9.465   9.307  0.5915  1.0651  1.0579
   52MOL0     H 6960   1.406   9.608   9.224  0.9410  0.3981  0.9624
   52MOL0     H 6961   1.120   9.506   9.210 -1.1561  0.4712 -1.4190
   52MOL0     H 6962   1.146   9.681   9.186  0.1154 -0.4847  2.1704
   52MOL0     H 6963   1.321   9.586   8.999 -0.8290  2.2238 -1.0555
   52MOL0     H 6964   1.239   9.425   9.031 -2.0303 -0.2819  0.6927
   52MOL0     H 6965   1.124   9.681   8.905  0.4380 -0.0091  1.2935
   52MOL0     H 6966   1.132   9.520   8.828 -0.2926  0.2196  0.0284
   52MOL0     H 6967   0.912   9.598   8.903  1.9945  1.5143 -0.9241
   52MOL0     H 6968   0.965   9.565   9.072  0.2924 -0.1498  0.5365
   52MOL0     H 6969   1.021   9.343   9.040 -1.5349  0.3474  0.1081
   52MOL0     H 6970   0.857   9.357   9.005  0.3214 -1.4148  0.0354
   52MOL0     H 6971   0.824   9.358   8.701  0.6667  1.3002  1.1422
   52MOL0     H 6972   0.900   9.064   8.533 -1.7542 -0.8193 -3.1642
   52MOL0     H 6973   0.847   9.227   8.496  1.1879  0.3219 -3.4525
   52MOL0     H 6974   1.125   9.099   8.453  0.9838  0.9813  1.5066
   52MOL0     H 6975   1.006   9.128   8.328 -0.7565  1.2430  0.5030
   52MOL0     H 6976   1.171   9.338   8.482 -0.9838  0.5864  1.7533
   52MOL0     H 6977   1.033   9.392   8.394  3.5187  3.1412  2.5961
   52MOL0     H 6978   1.277   9.250   8.268 -2.3634 -2.2888 -1.1382
   52MOL0     H 6979   1.241   9.426   8.279 -1.6917  1.6792 -0.0206
   52MOL0     H 6980   0.957   9.394   7.972 -0.5268 -0.1412 -1.4793
   52MOL0     H 6981   0.999   9.515   7.774 -1.2921 -2.3603 -1.7498
   52MOL0     H 6982   1.233   9.884   7.628  1.5394 -0.2287  1.7021
   52MOL0     H 6983   1.270  10.000   7.396  1.9242 -0.0646 -2.2091
   52MOL0     H 6984   1.337  10.087   7.195  0.1664  0.8826 -1.3911
   52MOL0     H 6985   1.467  10.163   7.304 -1.3852  3.8604 -1.8447
   52MOL0     H 6986   1.605  10.197   7.153 -1.2611  1.7850 -1.2520
   52MOL0     H 6987   1.535  10.088   7.024 -2.9225  0.6943 -1.5085
   52MOL0     H 6988   1.347  10.248   7.020  0.7924 -1.7797 -0.6451
   52MOL0     H 6989   1.438  10.358   7.117 -1.8468 -0.9571  0.8178
   52MOL0     H 6990   1.523  10.259   6.847 -2.8575  1.0716 -1.0173
   52MOL0     H 6991   1.624  10.364   6.954 -0.6831  1.7110 -2.0156
   52MOL0     H 6992   1.442  10.524   6.942 -4.0054 -1.5150  0.7977
   52MOL0     H 6993   1.356  10.428   6.822  0.0741  1.1074  0.2732
   52MOL0     H 6994   1.632  10.490   6.732  0.7484  0.0472  1.9008
   52MOL0     H 6995   1.486  10.461   6.648  1.2409 -1.6273  1.9006
   52MOL0     H 6996   1.550  10.705   6.815 -0.9571  0.3425  0.3574
   52MOL0     H 6997   1.395  10.699   6.717  0.3121 -1.1366 -4.6681
   52MOL0     H 6998   1.657  10.687   6.576  0.3708  1.9061 -2.5322
   52MOL0     H 6999   1.493  10.664   6.522  0.5356  0.3238 -1.1329
   52MOL0     H 7000   1.638   9.789   7.362  1.0862  0.9922  1.4783
   52MOL0     H 7001   1.569   9.633   7.545  1.9892  0.8597 -0.4944
   52MOL0     H 7002   1.421   9.512   7.896 -1.0664  2.2732 -2.1355
   52MOL0     H 7003   1.368   9.407   8.091  0.1564  0.6690  0.1822
   52MOL0     H 7004   1.249   9.550   9.693 -0.2895 -1.1405  1.2766
   52MOL0     H 7005   1.076   9.369   9.735 -1.3094 -1.1428 -0.5374
   52MOL0     H 7006   1.036   8.901   9.622 -0.2687  0.7929 -0.6844
   52MOL0     H 7007   0.891   8.724   9.630  1.7819  0.6848 -0.2390
   52MOL0     H 7008   0.859   8.554   9.779 -0.3141  0.4244 -0.2132
   52MOL0     H 7009   0.707   8.540   9.676  1.1385 -4.8541 -0.2942
   52MOL0     H 7010   0.590   8.472   9.873 -1.1049 -1.9771 -1.9742
   52MOL0     H 7011   0.754   8.437   9.956  0.1681 -0.6772 -0.3225
   52MOL0     H 7012   0.758   8.319   9.706  1.0995 -0.0557  1.3079
   52MOL0     H 7013   0.581   8.320   9.741  1.1079 -3.3761 -2.2186
   52MOL0     H 7014   0.751   8.112   9.796  3.7289 -1.1001  1.8455
   52MOL0     H 7015   0.790   8.209   9.938 -1.1783 -3.2224  1.6842
   52MOL0     H 7016   0.391   8.072   9.991  0.4437 -2.1862 -1.1697
   52MOL0     H 7017   0.680   8.902   9.970  0.1774 -2.8405  0.1482
   52MOL0     H 7018   0.715   9.112  10.011 -0.9142  1.4375 -1.7815
   52MOL0     H 7019   0.880   9.097  10.077  0.8381  1.8075 -0.2464
   52MOL0     H 7020   0.857   9.208   9.937  0.8175  1.5010  2.8647
   53MOL0     O 7021  10.968   3.156   9.182 -0.0554 -0.2059 -0.1575
   53MOL0     C 7022  11.079   3.134   9.225 -0.3377  0.9385  0.1528
   53MOL0     O 7023  11.157   3.215   9.304  0.1584 -0.1658 -0.0189
   53MOL0     C 7024  11.133   3.348   9.304 -0.1395  0.2335  0.4794
   53MOL0     C 7025  11.069   3.405   9.421 -0.8109 -0.0139  0.1557
   53MOL0     C 7026  11.049   3.547   9.429 -0.1005 -0.3875 -0.1353
   53MOL0     C 7027  11.088   3.625   9.318 -0.9412  0.1054 -0.0217
   53MOL0     O 7028  11.058   3.757   9.328  0.0403  0.0395 -0.0584
   53MOL0     C 7029  11.035   3.819   9.201  1.0908 -0.3752  0.0857
   53MOL0     C 7030  11.005   3.977   9.213  0.5225 -0.2369 -0.5728
   53MOL0     C 7031  10.874   4.015   9.291  1.1159 -0.2874 -0.8508
   53MOL0     C 7032  10.903   4.041   9.433  0.6946 -0.0899 -0.5387
   53MOL0     C 7033  10.791   4.115   9.511 -0.1196  0.2425 -0.2471
   53MOL0     C 7034  10.832   4.135   9.663 -0.3658  0.7599  0.4010
   53MOL0     C 7035  10.733   4.231   9.741 -0.8357  0.8106 -0.8968
   53MOL0     C 7036  10.798   4.260   9.877  0.2307 -0.1685 -0.6465
   53MOL0     N 7037  10.798   4.131   9.963  0.6581 -0.4654 -1.0846
   53MOL0     C 7038  10.723   4.112  10.084  0.3708 -0.0190  0.3743
   53MOL0     C 7039  10.775   3.998  10.135  0.4034  0.7640 -0.3840
   53MOL0     C 7040  10.728   3.936  10.259  0.2542  0.0396  1.0434
   53MOL0     C 7041  10.690   4.031  10.370 -0.3646 -0.1085  0.0090
   53MOL0     C 7042  10.639   3.941  10.479  0.2874 -0.9231 -0.4585
   53MOL0     C 7043  10.595   4.021  10.602 -0.5271 -0.1751 -0.3066
   53MOL0     O 7044  10.691   4.131  10.626  0.0280  0.4899 -0.0266
   53MOL0     C 7045  10.799   4.094  10.702 -0.2816 -0.6504  0.2630
   53MOL0     C 7046  10.841   3.966  10.751 -1.1389 -0.5393 -0.5480
   53MOL0     C 7047  10.965   3.959  10.815 -0.3928 -0.8102 -2.1672
   53MOL0     C 7048  11.062   4.062  10.827  0.3135 -0.2607  0.3188
   53MOL0     C 7049  11.180   4.045  10.902  0.2011  0.2373 -0.3417
   53MOL0     O 7050  11.296   4.067  10.838  0.0891 -0.6045  0.3267
   53MOL0     C 7051  11.407   4.020  10.897 -0.3393  2.0502  0.6453
   53MOL0     C 7052  11.423   3.881  10.922 -0.0232 -0.5143  0.5899
   53MOL0     C 7053  11.536   3.834  10.983  0.1205  0.1439  0.4369
   53MOL0     C 7054  11.639   3.926  11.022 -0.0832  0.3934 -0.3835
   53MOL0     O 7055  11.746   3.872  11.098  0.5190  0.4347  0.0274
   53MOL0     C 7056  11.880   3.925  11.105 -0.6643 -0.4584 -1.4740
   53MOL0     C 7057  11.942   3.860  11.219  0.7449  0.3701 -0.6936
   53MOL0     C 7058  12.016   3.733  11.181  0.5880 -0.0462  0.8327
   53MOL0     C 7059  12.088   3.661  11.289 -0.1920  0.1873 -0.0440
   53MOL0     C 7060  12.138   3.520  11.245  0.7797  0.3358  0.0563
   53MOL0     C 7061  12.226   3.477  11.358 -0.4157 -0.0266 -0.5305
   53MOL0     C 7062  12.283   3.352  11.302 -0.3143 -0.5055 -0.1511
   53MOL0     C 7063  12.393   3.292  11.388 -0.7326  1.2968  0.2312
   53MOL0    Cl 7064  12.318   3.232  11.536  0.0030 -0.0016 -0.1192
   53MOL0     C 7065  11.637   4.060  10.980 -0.4195 -0.0818  0.7153
   53MOL0     C 7066  11.520   4.101  10.913 -0.1350 -0.3435  0.2430
   53MOL0     O 7067  11.162   4.006  11.019 -0.0228  0.0196  0.1245
   53MOL0     C 7068  11.016   4.184  10.764  0.4764 -0.3085 -0.8972
   53MOL0     C 7069  10.890   4.198  10.707  0.2712  0.4829  0.0266
   53MOL0     N 7070  10.876   3.956  10.051 -0.0499 -0.1565 -0.0967
   53MOL0     N 7071  10.894   4.033   9.954  0.0814 -0.1406  0.6007
   53MOL0     C 7072  11.152   3.566   9.204  0.0412 -0.4927 -0.3109
   53MOL0     C 7073  11.176   3.426   9.193 -0.4687 -0.6585 -0.2821
   53MOL0     C 7074  11.112   2.993   9.223 -0.1411 -0.1368  0.8707
   53MOL0     C 7075  11.182   2.955   9.342 -0.4846 -0.5905 -0.2182
   53MOL0     C 7076  11.188   2.819   9.386 -0.2529  0.0235  0.3208
   53MOL0     C 7077  11.139   2.714   9.314 -0.1275  1.0362 -0.4077
   53MOL0     O 7078  11.150   2.581   9.337 -0.3762  0.7107  0.1149
   53MOL0     C 7079  11.249   2.553   9.435  0.9876 -0.0585 -0.0228
   53MOL0     C 7080  11.389   2.573   9.397  0.0712  0.2068 -0.2600
   53MOL0     C 7081  11.430   2.531   9.254 -0.4784  0.0115  0.2423
   53MOL0     C 7082  11.507   2.655   9.175  0.8052  0.5462  0.1704
   53MOL0     C 7083  11.599   2.608   9.064  0.7672  0.5087 -0.2493
   53MOL0     C 7084  11.682   2.589   8.989 -0.7039  0.4206  0.0928
   53MOL0     C 7085  11.081   2.755   9.189  0.3306 -0.2695 -0.5677
   53MOL0     C 7086  11.068   2.887   9.137 -0.6476 -0.2911  0.0181
   53MOL0     C 7087  11.008   2.909   9.001  0.4570  0.4374  0.3601
   53MOL0     H 7088  11.029   3.341   9.500 -0.6445  1.9978  1.9515
   53MOL0     H 7089  11.014   3.594   9.520  3.3004  0.5335  0.8369
   53MOL0     H 7090  11.116   3.812   9.127 -1.9272 -0.4775 -3.5008
   53MOL0     H 7091  10.950   3.771   9.153 -0.5062  0.8690  1.5385
   53MOL0     H 7092  10.990   4.019   9.114  2.1580  1.4056 -0.1604
   53MOL0     H 7093  11.088   4.028   9.263 -1.4855  0.3675  2.4123
   53MOL0     H 7094  10.799   3.935   9.293  0.3001  0.4794  0.8782
   53MOL0     H 7095  10.835   4.103   9.239 -0.3251 -0.1133  0.4254
   53MOL0     H 7096  10.942   3.952   9.484  1.3973  0.5568  0.0674
   53MOL0     H 7097  10.987   4.110   9.433  0.6014  0.1212 -3.4106
   53MOL0     H 7098  10.770   4.215   9.470  2.4097  1.1960  0.6082
   53MOL0     H 7099  10.700   4.055   9.499  2.5196 -4.2643  0.0459
   53MOL0     H 7100  10.834   4.035   9.709  0.6470 -0.0052 -1.2104
   53MOL0     H 7101  10.937   4.163   9.668  0.7136 -2.2817 -1.6408
   53MOL0     H 7102  10.642   4.172   9.757  1.6538 -3.4161 -0.8702
   53MOL0     H 7103  10.716   4.327   9.692  0.2451  1.2813 -0.3835
   53MOL0     H 7104  10.899   4.302   9.869  0.0041  0.1873 -1.9147
   53MOL0     H 7105  10.739   4.341   9.920 -0.1757 -0.4190 -0.7270
   53MOL0     H 7106  10.650   4.173  10.137  0.9053 -2.0577  3.7657
   53MOL0     H 7107  10.642   3.879  10.221  1.2762 -0.2308 -0.9458
   53MOL0     H 7108  10.817   3.877  10.283  0.5791  1.0942  2.6184
   53MOL0     H 7109  10.780   4.089  10.393 -1.3851  1.1778  0.8698
   53MOL0     H 7110  10.614   4.104  10.342 -0.7734 -1.4500 -2.7298
   53MOL0     H 7111  10.712   3.862  10.498 -3.1423 -4.0030  1.3060
   53MOL0     H 7112  10.550   3.885  10.447  1.9096 -3.6617 -0.5181
   53MOL0     H 7113  10.570   3.952  10.683 -2.3678  0.7409 -0.0514
   53MOL0     H 7114  10.500   4.073  10.591  1.2186  3.2645 -0.5400
   53MOL0     H 7115  10.780   3.877  10.741 -1.4641 -0.6133  1.5777
   53MOL0     H 7116  10.998   3.866  10.861 -2.8467  1.0397  4.4589
   53MOL0     H 7117  11.335   3.820  10.904 -0.8680 -0.2362  3.4215
   53MOL0     H 7118  11.536   3.728  11.008 -0.6626 -0.1430 -0.7136
   53MOL0     H 7119  11.937   3.905  11.014  1.6170  0.2466 -0.2862
   53MOL0     H 7120  11.890   4.034  11.112  1.3008 -0.6626 -0.5968
   53MOL0     H 7121  12.010   3.931  11.267  1.5726 -0.5764 -0.4261
   53MOL0     H 7122  11.861   3.847  11.292 -0.6552  2.9058 -1.6673
   53MOL0     H 7123  11.950   3.653  11.144 -0.1664  0.8499  0.1960
   53MOL0     H 7124  12.083   3.755  11.098 -2.4851 -0.9388 -2.1167
   53MOL0     H 7125  12.010   3.653  11.366 -1.5160  1.3011 -1.2163
   53MOL0     H 7126  12.172   3.719  11.329 -1.2315  0.8022  1.3123
   53MOL0     H 7127  12.208   3.532  11.161  2.7862  0.8308  1.7078
   53MOL0     H 7128  12.053   3.456  11.221  0.8328  1.3514 -3.5329
   53MOL0     H 7129  12.298   3.558  11.378 -1.5631  0.8887  0.0117
   53MOL0     H 7130  12.163   3.460  11.446  1.6781  3.6392  1.9373
   53MOL0     H 7131  12.314   3.364  11.198 -3.1033 -0.5509 -1.0845
   53MOL0     H 7132  12.197   3.284  11.311 -2.3205  1.6859 -1.6257
   53MOL0     H 7133  12.422   3.205  11.328 -1.0614  1.5084 -0.2401
   53MOL0     H 7134  12.482   3.354  11.400  0.3420  0.3827 -2.3779
   53MOL0     H 7135  11.717   4.128  11.007 -2.2046  3.9803 -2.9030
   53MOL0     H 7136  11.511   4.203  10.877  1.9250  1.4947  4.2516
   53MOL0     H 7137  11.065   4.281  10.774 -2.0241  0.9983 -0.4502
   53MOL0     H 7138  10.878   4.291  10.652 -5.0924 -1.3476 -2.5065
   53MOL0     H 7139  11.186   3.631   9.123 -1.9455  1.1793  0.1114
   53MOL0     H 7140  11.246   3.387   9.119 -0.7944  1.3693 -1.7749
   53MOL0     H 7141  11.229   3.028   9.407 -1.2316 -1.8244  1.7914
   53MOL0     H 7142  11.248   2.813   9.476 -1.0744  1.0677  0.9570
   53MOL0     H 7143  11.227   2.453   9.472  1.6746 -0.7971 -1.5143
   53MOL0     H 7144  11.234   2.616   9.523 -0.1546 -0.0309 -0.2221
   53MOL0     H 7145  11.446   2.508   9.464 -2.1754 -0.1445  1.4435
   53MOL0     H 7146  11.429   2.674   9.406  3.5701 -1.0831  0.3185
   53MOL0     H 7147  11.346   2.505   9.190  1.5059 -0.0977 -2.4786
   53MOL0     H 7148  11.498   2.445   9.251  2.0727  1.8813  0.4013
   53MOL0     H 7149  11.442   2.734   9.137  0.4889 -0.0526 -0.5528
   53MOL0     H 7150  11.576   2.694   9.251  1.0529 -0.5808  0.5454
   53MOL0     H 7151  11.758   2.552   8.923 -2.2181 -1.6686 -0.5735
   53MOL0     H 7152  11.042   2.671   9.131  1.8820 -2.4559  1.3679
   53MOL0     H 7153  10.946   2.999   9.008  1.2064  0.9327  0.7060
   53MOL0     H 7154  11.091   2.919   8.930  1.2115  2.2188  1.4380
   53MOL0     H 7155  10.939   2.830   8.970  0.1001  1.2477 -0.9974
   54MOL0     O 7156   2.460   9.782   3.694 -0.2848 -0.3788 -0.1026
   54MOL0     C 7157   2.451   9.665   3.714  0.1384 -0.0941 -0.5093
   54MOL0     O 7158   2.340   9.584   3.680  0.5661 -0.3045 -0.5417
   54MOL0     C 7159   2.225   9.626   3.614 -0.1005  0.0619  0.4199
   54MOL0     C 7160   2.099   9.558   3.623 -0.3008 -0.0248 -0.4099
   54MOL0     C 7161   1.979   9.594   3.554 -0.0546  0.4832 -1.0164
   54MOL0     C 7162   1.984   9.705   3.468 -0.3792  0.5953 -0.5890
   54MOL0     O 7163   1.878   9.762   3.403 -0.5864  0.5244  0.1822
   54MOL0     C 7164   1.770   9.825   3.472 -0.8278  0.2376 -1.4994
   54MOL0     C 7165   1.671   9.727   3.536 -0.3733 -0.6581 -0.4282
   54MOL0     C 7166   1.553   9.804   3.597  0.2788  0.8009 -0.7433
   54MOL0     C 7167   1.449   9.711   3.658  0.0286  0.1698 -0.3532
   54MOL0     C 7168   1.330   9.788   3.724 -0.8106 -0.3912 -0.0577
   54MOL0     C 7169   1.221   9.699   3.763  0.0007  0.5655 -0.1367
   54MOL0     C 7170   1.095   9.767   3.814  0.4233 -0.3762 -1.0148
   54MOL0     C 7171   0.973   9.737   3.721 -0.3636 -0.1433  0.4818
   54MOL0     N 7172   0.942   9.593   3.712 -0.0201  0.3916 -0.8565
   54MOL0     C 7173   0.907   9.507   3.817  0.9521 -0.6881 -0.1894
   54MOL0     C 7174   0.857   9.395   3.756 -0.5437 -0.1340 -0.4165
   54MOL0     C 7175   0.796   9.286   3.839  0.1849  0.1714  1.5818
   54MOL0     C 7176   0.668   9.321   3.897 -0.5964  0.2284 -0.3716
   54MOL0     C 7177   0.542   9.348   3.821  0.7427 -0.7023 -0.1383
   54MOL0     C 7178   0.426   9.405   3.904  0.6560  0.4020  0.0879
   54MOL0     O 7179   0.471   9.515   3.978 -0.3561 -0.3649  0.1286
   54MOL0     C 7180   0.378   9.571   4.065  0.1044 -0.2363 -0.5055
   54MOL0     C 7181   0.427   9.666   4.151 -0.2849  0.6263 -0.7941
   54MOL0     C 7182   0.338   9.731   4.239 -0.3709 -0.0210 -0.4163
   54MOL0     C 7183   0.200   9.701   4.242  0.8150  0.9782 -0.4003
   54MOL0     C 7184   0.115   9.774   4.343  0.4381  1.3588 -0.0068
   54MOL0     O 7185   0.147   9.905   4.386 -0.4884  0.3656  0.4674
   54MOL0     C 7186   0.059   9.959   4.477 -0.5671  0.2513 -0.8561
   54MOL0     C 7187   0.072   9.934   4.613  0.3131 -0.7294 -0.3780
   54MOL0     C 7188   0.006  10.018   4.698 -0.3845  0.4892  0.3249
   54MOL0     C 7189  -0.080  10.125   4.656  0.0654 -0.1171 -0.0765
   54MOL0     O 7190  -0.154  10.209   4.736 -0.9010 -0.5428  0.1279
   54MOL0     C 7191  -0.176  10.168   4.874 -0.2876 -0.6363  0.7826
   54MOL0     C 7192  -0.244  10.280   4.954 -0.5756  0.1082  0.3339
   54MOL0     C 7193  -0.258  10.239   5.108  0.1989 -0.2711  0.5678
   54MOL0     C 7194  -0.134  10.254   5.190 -0.1383  0.2140 -0.0584
   54MOL0     C 7195  -0.141  10.208   5.333 -0.4744  0.2837 -0.3452
   54MOL0     C 7196  -0.145  10.311   5.438  0.2953  0.4452 -0.1544
   54MOL0     C 7197  -0.284  10.386   5.453  0.0136 -0.0602  0.7268
   54MOL0     C 7198  -0.292  10.516   5.530  0.5729 -0.2545 -0.2667
   54MOL0    Cl 7199  -0.166  10.625   5.478 -0.2545 -0.1538  0.0391
   54MOL0     C 7200  -0.090  10.148   4.511  0.4832  0.1376  0.4759
   54MOL0     C 7201  -0.023  10.062   4.428 -0.8124  0.3541 -0.1423
   54MOL0     O 7202   0.010   9.707   4.380 -1.1877 -0.3185 -0.0336
   54MOL0     C 7203   0.150   9.602   4.158 -0.8530  0.0909 -0.2928
   54MOL0     C 7204   0.241   9.536   4.073  0.0125  0.2069 -0.2279
   54MOL0     N 7205   0.864   9.411   3.619  0.1178  0.4958 -0.5230
   54MOL0     N 7206   0.921   9.531   3.593  0.6138 -0.0498 -0.8175
   54MOL0     C 7207   2.114   9.772   3.458  0.7833 -0.1225 -0.7447
   54MOL0     C 7208   2.229   9.731   3.523  0.5308 -0.5929 -0.6360
   54MOL0     C 7209   2.566   9.586   3.774  0.0991  0.3288 -0.4747
   54MOL0     C 7210   2.560   9.459   3.836  1.0475 -0.3242 -0.4139
   54MOL0     C 7211   2.670   9.388   3.888  0.0930  1.3798  0.0558
   54MOL0     C 7212   2.797   9.440   3.875 -0.0676 -0.1942 -0.2000
   54MOL0     O 7213   2.897   9.364   3.939  0.1044  0.2295 -0.8545
   54MOL0     C 7214   3.033   9.408   3.931  0.3466 -0.0729  0.1333
   54MOL0     C 7215   3.062   9.536   4.013 -0.2587  0.8357  0.2997
   54MOL0     C 7216   2.997   9.526   4.156  0.0602 -0.2751 -0.3588
   54MOL0     C 7217   3.067   9.603   4.259  0.3876 -0.0210 -0.6155
   54MOL0     C 7218   3.197   9.549   4.303 -0.2541  0.1578 -0.0243
   54MOL0     C 7219   3.303   9.502   4.336 -1.0844 -0.1643 -1.2861
   54MOL0     C 7220   2.817   9.565   3.819  0.0436  0.2870 -0.8686
   54MOL0     C 7221   2.706   9.645   3.774 -0.0464  0.6309  0.9707
   54MOL0     C 7222   2.744   9.778   3.710 -0.3480  0.1956 -0.9784
   54MOL0     H 7223   2.105   9.475   3.694  1.8312 -2.2954 -3.0188
   54MOL0     H 7224   1.888   9.539   3.574  0.2363  0.1797 -0.4672
   54MOL0     H 7225   1.805   9.914   3.526  0.8582 -0.4570 -1.3836
   54MOL0     H 7226   1.698   9.859   3.396 -0.3629 -1.2492 -2.6516
   54MOL0     H 7227   1.732   9.667   3.604  2.3702  2.3122 -0.0088
   54MOL0     H 7228   1.630   9.661   3.460 -0.5351  0.5043 -1.3878
   54MOL0     H 7229   1.502   9.860   3.518 -0.3740  2.0865  0.5470
   54MOL0     H 7230   1.595   9.870   3.673  0.2707  0.4375 -0.4193
   54MOL0     H 7231   1.417   9.639   3.582  2.5073  1.1685 -2.5051
   54MOL0     H 7232   1.499   9.655   3.737 -2.1898  2.3740  2.8806
   54MOL0     H 7233   1.364   9.840   3.815 -0.0173 -1.4815  0.2833
   54MOL0     H 7234   1.295   9.869   3.659 -0.7182  0.3198  0.7446
   54MOL0     H 7235   1.200   9.634   3.677  3.2429 -1.0451  0.1125
   54MOL0     H 7236   1.261   9.627   3.835  1.3744  3.2367  1.9857
   54MOL0     H 7237   1.105   9.876   3.823 -2.0594 -0.2165  1.2175
   54MOL0     H 7238   1.085   9.734   3.918  0.3161  0.3885 -0.7775
   54MOL0     H 7239   0.887   9.793   3.760  1.9136  2.2922  2.3591
   54MOL0     H 7240   1.001   9.781   3.625 -0.7486  1.1365  0.9269
   54MOL0     H 7241   0.916   9.527   3.923 -1.7055 -0.9078  0.1509
   54MOL0     H 7242   0.772   9.205   3.770  1.7440 -0.5601  1.8482
   54MOL0     H 7243   0.867   9.261   3.919  1.6617  0.3072  0.3403
   54MOL0     H 7244   0.651   9.250   3.979  1.7409 -1.0821 -0.9412
   54MOL0     H 7245   0.688   9.414   3.952  1.5601  0.0146 -0.7375
   54MOL0     H 7246   0.502   9.256   3.778 -0.7301  0.5351 -1.5407
   54MOL0     H 7247   0.562   9.410   3.734 -0.2519 -3.0834 -2.1740
   54MOL0     H 7248   0.392   9.323   3.968  0.6518  1.7373  1.8691
   54MOL0     H 7249   0.352   9.442   3.832  0.6149  0.1926  0.0219
   54MOL0     H 7250   0.530   9.700   4.157  0.1634 -0.6725 -0.9588
   54MOL0     H 7251   0.390   9.802   4.302  0.5413  1.2409 -2.4837
   54MOL0     H 7252   0.138   9.859   4.655 -0.8520 -0.8331  1.3548
   54MOL0     H 7253   0.025  10.002   4.803 -0.5195  1.4316  0.4997
   54MOL0     H 7254  -0.236  10.077   4.880 -0.7781 -0.2791  1.2968
   54MOL0     H 7255  -0.086  10.140   4.930 -1.4456 -5.2776  0.7160
   54MOL0     H 7256  -0.190  10.375   4.953 -1.1468  0.5744  3.4167
   54MOL0     H 7257  -0.343  10.307   4.914 -0.6179  1.0687  1.0358
   54MOL0     H 7258  -0.335  10.295   5.163 -0.6431  0.7566 -1.5722
   54MOL0     H 7259  -0.289  10.134   5.109  1.3409 -0.7115 -2.2636
   54MOL0     H 7260  -0.102  10.359   5.188 -3.3675  1.3752  1.3822
   54MOL0     H 7261  -0.052  10.199   5.143 -0.4074  2.0512 -2.9198
   54MOL0     H 7262  -0.057  10.141   5.353 -1.5010 -1.4562 -1.5813
   54MOL0     H 7263  -0.231  10.145   5.331  1.1929 -2.3166  0.5759
   54MOL0     H 7264  -0.134  10.257   5.532 -0.1685 -2.9373 -1.9131
   54MOL0     H 7265  -0.066  10.386   5.427  1.9237 -1.3391 -1.1592
   54MOL0     H 7266  -0.345  10.310   5.502 -0.8311  0.3520  0.3247
   54MOL0     H 7267  -0.332  10.395   5.355  2.0802  0.0047 -0.3301
   54MOL0     H 7268  -0.390  10.565   5.522  1.4887  1.4074 -2.5365
   54MOL0     H 7269  -0.269  10.493   5.634 -2.2526 -0.5446  0.3743
   54MOL0     H 7270  -0.152  10.231   4.479  0.3279 -0.1445  0.0414
   54MOL0     H 7271  -0.036  10.066   4.320  1.6623 -0.2631 -0.5300
   54MOL0     H 7272   0.046   9.571   4.151 -0.6287 -0.7817  0.1404
   54MOL0     H 7273   0.196   9.465   4.005 -2.7733 -1.3099  2.9197
   54MOL0     H 7274   2.121   9.871   3.415 -0.7205  1.4404  2.2281
   54MOL0     H 7275   2.323   9.779   3.499 -0.4338  0.0776 -3.5229
   54MOL0     H 7276   2.460   9.425   3.858  0.9118 -0.2349 -0.8814
   54MOL0     H 7277   2.642   9.299   3.943  1.0652 -0.4471 -2.1986
   54MOL0     H 7278   3.057   9.425   3.825 -0.0229 -0.2344  0.0205
   54MOL0     H 7279   3.091   9.320   3.960  2.6896  1.1005 -0.7430
   54MOL0     H 7280   3.034   9.631   3.967 -1.5766 -0.1426 -0.9915
   54MOL0     H 7281   3.171   9.548   4.018 -0.1093 -0.8945  2.8699
   54MOL0     H 7282   2.991   9.419   4.181  1.5759 -0.4178 -0.5209
   54MOL0     H 7283   2.897   9.570   4.157  1.0247  2.0916  1.2619
   54MOL0     H 7284   3.071   9.711   4.242  2.6400  0.7266  3.4814
   54MOL0     H 7285   2.997   9.609   4.343 -0.9925  1.5751 -1.8084
   54MOL0     H 7286   3.401   9.464   4.354 -0.0808  3.2610  1.5407
   54MOL0     H 7287   2.917   9.596   3.791 -0.3138  3.2412  0.7720
   54MOL0     H 7288   2.746   9.777   3.601 -1.8166  0.4501 -1.0234
   54MOL0     H 7289   2.673   9.855   3.742 -1.5312 -1.1314 -0.2987
   54MOL0     H 7290   2.842   9.813   3.742 -0.9888  2.6856 -1.5492
   55MOL0     O 7291   4.524   3.043   1.578  0.3464  0.2951 -0.2266
   55MOL0     C 7292   4.561   3.027   1.695 -0.4613  0.2244 -1.1335
   55MOL0     O 7293   4.691   3.063   1.741 -0.2721  0.6587  0.2282
   55MOL0     C 7294   4.777   3.092   1.637  0.0298 -0.2786  0.0605
   55MOL0     C 7295   4.759   3.213   1.564 -0.3526  0.1901  0.9589
   55MOL0     C 7296   4.845   3.247   1.457  0.9539  0.4294 -0.2221
   55MOL0     C 7297   4.969   3.185   1.442  0.2826 -0.1949 -0.8361
   55MOL0     O 7298   5.064   3.233   1.366  0.5682  1.0193  0.5317
   55MOL0     C 7299   5.026   3.250   1.229  0.9320 -0.4582 -0.5829
   55MOL0     C 7300   5.147   3.238   1.131 -0.4027  0.2337 -0.4348
   55MOL0     C 7301   5.102   3.231   0.980  0.1502 -0.3435 -0.7881
   55MOL0     C 7302   4.998   3.118   0.952 -0.1678 -0.3745 -0.2666
   55MOL0     C 7303   4.979   3.095   0.801  0.6013  0.1313  0.2866
   55MOL0     C 7304   4.905   2.963   0.780  0.1170  0.0640 -0.6166
   55MOL0     C 7305   4.937   2.891   0.648 -0.1510  0.0322  0.7324
   55MOL0     C 7306   4.876   2.744   0.643 -0.9349  0.1334  0.5567
   55MOL0     N 7307   4.736   2.738   0.676  0.6635 -0.2474  0.0518
   55MOL0     C 7308   4.678   2.732   0.801 -0.5719 -0.0691  0.1360
   55MOL0     C 7309   4.552   2.699   0.770  0.9822 -0.2351 -0.5126
   55MOL0     C 7310   4.454   2.664   0.883  0.4952  0.1257 -0.2859
   55MOL0     C 7311   4.338   2.775   0.881  0.8338 -0.4425  0.4603
   55MOL0     C 7312   4.237   2.733   0.991  0.3159 -0.5365  0.5643
   55MOL0     C 7313   4.102   2.810   0.985  0.0054  0.1760  0.6642
   55MOL0     O 7314   4.021   2.771   0.874 -0.4265  0.2770  0.2751
   55MOL0     C 7315   3.907   2.831   0.845 -0.0690  0.4953  0.4982
   55MOL0     C 7316   3.837   2.926   0.917  0.0544 -0.9039 -0.4263
   55MOL0     C 7317   3.714   2.968   0.879 -0.2672 -0.1160  0.0007
   55MOL0     C 7318   3.656   2.912   0.760  0.6052  0.5443 -0.1193
   55MOL0     C 7319   3.522   2.956   0.723  0.3794 -0.1443  0.6592
   55MOL0     O 7320   3.464   3.033   0.816 -0.0432 -0.7605 -0.0612
   55MOL0     C 7321   3.372   3.124   0.776  0.2204 -0.7203  0.1660
   55MOL0     C 7322   3.379   3.190   0.656 -0.0979 -0.1747 -0.7484
   55MOL0     C 7323   3.282   3.286   0.627 -0.2480 -0.1959  0.2498
   55MOL0     C 7324   3.181   3.320   0.711  0.6177  0.2901  0.1414
   55MOL0     O 7325   3.094   3.416   0.673 -0.2501 -0.5293  0.6118
   55MOL0     C 7326   3.000   3.370   0.573  0.3901  0.1079  0.3906
   55MOL0     C 7327   2.906   3.490   0.570  0.6961 -0.0077  0.0950
   55MOL0     C 7328   2.813   3.473   0.453  0.5712 -1.5405  0.5591
   55MOL0     C 7329   2.701   3.573   0.460  0.4150 -0.6368  0.3297
   55MOL0     C 7330   2.610   3.552   0.339  0.4915 -0.4226 -1.0488
   55MOL0     C 7331   2.517   3.433   0.336  0.4969 -0.3869 -0.5670
   55MOL0     C 7332   2.364   3.489   0.336 -0.5105  0.0188  0.0338
   55MOL0     C 7333   2.262   3.374   0.336  0.4007  0.3907  1.2526
   55MOL0    Cl 7334   2.259   3.296   0.493 -0.1648  0.0887  0.6287
   55MOL0     C 7335   3.189   3.261   0.836  0.2984 -0.2861 -0.4200
   55MOL0     C 7336   3.278   3.164   0.873  0.6217  0.4305  0.0694
   55MOL0     O 7337   3.462   2.911   0.626 -0.2684 -1.0195 -0.4436
   55MOL0     C 7338   3.726   2.825   0.681 -0.0879  0.1850 -0.0768
   55MOL0     C 7339   3.848   2.785   0.727 -0.4914  0.6390 -0.5392
   55MOL0     N 7340   4.530   2.725   0.637 -0.3486 -1.0212 -0.6578
   55MOL0     N 7341   4.639   2.757   0.584 -0.0437  0.9104  0.4719
   55MOL0     C 7342   4.985   3.065   1.520 -0.7580 -1.1206  0.3147
   55MOL0     C 7343   4.892   3.021   1.608 -0.0823 -0.2277  0.3671
   55MOL0     C 7344   4.470   2.973   1.809  0.6057 -0.2723  0.8938
   55MOL0     C 7345   4.526   2.942   1.935 -0.0106  0.0777  0.2687
   55MOL0     C 7346   4.451   2.904   2.044  0.0498 -0.5743 -0.3780
   55MOL0     C 7347   4.316   2.928   2.039 -0.6758 -0.0594  0.2973
   55MOL0     O 7348   4.234   2.924   2.145  0.1144  0.2310 -0.4739
   55MOL0     C 7349   4.290   2.953   2.270  0.2139  0.0696  0.8855
   55MOL0     C 7350   4.182   3.023   2.353 -0.6671 -0.9215 -0.6080
   55MOL0     C 7351   4.236   3.043   2.493  0.2119  0.5764  0.8168
   55MOL0     C 7352   4.201   2.931   2.592 -0.7975 -0.7954 -1.0174
   55MOL0     C 7353   4.210   2.991   2.729 -1.2538 -1.6015  0.6450
   55MOL0     C 7354   4.216   3.039   2.843  0.6383  0.6547 -0.5186
   55MOL0     C 7355   4.253   2.962   1.922 -1.0055 -0.0201 -0.1073
   55MOL0     C 7356   4.332   2.964   1.803  0.1729 -0.0178 -0.4001
   55MOL0     C 7357   4.258   2.974   1.665 -0.0406  0.8700 -0.6169
   55MOL0     H 7358   4.679   3.282   1.588 -0.6967 -0.3179  1.2954
   55MOL0     H 7359   4.819   3.323   1.383  1.0686  1.7325  1.0130
   55MOL0     H 7360   4.947   3.177   1.216 -0.7580  0.2393  3.8227
   55MOL0     H 7361   4.978   3.347   1.213  0.9654 -0.7376 -2.5346
   55MOL0     H 7362   5.200   3.144   1.151  2.0021  0.4781 -4.4907
   55MOL0     H 7363   5.209   3.325   1.155  0.7295 -1.2272  2.3783
   55MOL0     H 7364   5.186   3.203   0.915  0.4894 -2.1676  0.3678
   55MOL0     H 7365   5.070   3.328   0.939 -0.8178  0.0058  0.6998
   55MOL0     H 7366   5.042   3.022   0.980  0.3551  0.0130  0.2887
   55MOL0     H 7367   4.901   3.117   1.001 -0.9299 -4.7481 -1.5031
   55MOL0     H 7368   4.924   3.177   0.755  1.5743  1.1750  0.9182
   55MOL0     H 7369   5.078   3.087   0.755  1.5461  1.1136  2.0018
   55MOL0     H 7370   4.938   2.896   0.860  1.8843 -1.0948 -2.2330
   55MOL0     H 7371   4.798   2.976   0.801  0.2489  0.6802 -0.3190
   55MOL0     H 7372   5.044   2.880   0.635 -0.0802  2.1137 -1.0389
   55MOL0     H 7373   4.898   2.953   0.567  1.2065 -2.5987 -2.0855
   55MOL0     H 7374   4.903   2.703   0.545 -1.5073 -1.1916  0.9338
   55MOL0     H 7375   4.931   2.679   0.711 -2.1286 -1.0317  0.4424
   55MOL0     H 7376   4.725   2.715   0.897  0.6060 -0.1477 -0.4263
   55MOL0     H 7377   4.420   2.562   0.859  2.6604 -1.0670  1.4267
   55MOL0     H 7378   4.515   2.667   0.973  0.1903 -1.3165 -0.0110
   55MOL0     H 7379   4.361   2.880   0.903 -2.3472  0.4087  0.1096
   55MOL0     H 7380   4.303   2.762   0.778  3.1606  1.6994 -0.7185
   55MOL0     H 7381   4.281   2.733   1.091  0.1291 -5.8087  0.9445
   55MOL0     H 7382   4.199   2.631   0.985  0.0167 -0.3712 -0.5361
   55MOL0     H 7383   4.116   2.914   0.955  1.6625 -0.0452  0.5728
   55MOL0     H 7384   4.057   2.804   1.084 -0.5554 -0.3935  0.3882
   55MOL0     H 7385   3.876   2.960   1.012  0.9748  0.4152 -1.2335
   55MOL0     H 7386   3.657   3.018   0.958 -0.7430 -2.2281  1.0689
   55MOL0     H 7387   3.456   3.163   0.584  0.7196 -0.0397  0.0682
   55MOL0     H 7388   3.267   3.327   0.527 -1.6332  0.5182  0.7335
   55MOL0     H 7389   3.041   3.360   0.472 -0.6507 -2.7228  0.1536
   55MOL0     H 7390   2.937   3.285   0.600  2.0751 -1.6306 -0.8983
   55MOL0     H 7391   2.839   3.492   0.656  2.3266  0.4260  1.4028
   55MOL0     H 7392   2.959   3.585   0.561 -0.8661  0.7357 -2.1975
   55MOL0     H 7393   2.866   3.481   0.357 -1.2322  0.9955 -0.3583
   55MOL0     H 7394   2.765   3.375   0.454 -1.8421 -0.4489  0.7674
   55MOL0     H 7395   2.735   3.677   0.461  4.0931 -1.6880  2.4372
   55MOL0     H 7396   2.637   3.561   0.548  0.4232 -2.3910  0.1351
   55MOL0     H 7397   2.660   3.556   0.242  3.2706  2.5714  0.2770
   55MOL0     H 7398   2.555   3.646   0.351  2.0283  0.2411  1.8872
   55MOL0     H 7399   2.535   3.379   0.242 -1.8787 -3.0911  0.3932
   55MOL0     H 7400   2.529   3.373   0.426 -1.7184  0.2964  0.2538
   55MOL0     H 7401   2.334   3.540   0.244 -0.7139 -1.9366 -1.0322
   55MOL0     H 7402   2.345   3.555   0.421  1.2592  0.0388  0.4449
   55MOL0     H 7403   2.160   3.413   0.337 -0.9270 -2.7627  1.4045
   55MOL0     H 7404   2.282   3.305   0.254 -1.5677 -2.9300  3.3228
   55MOL0     H 7405   3.127   3.288   0.922  1.1809  0.5895 -0.0477
   55MOL0     H 7406   3.286   3.146   0.980 -4.6653 -0.2569  0.6499
   55MOL0     H 7407   3.685   2.774   0.595  0.0845 -1.0348  0.5442
   55MOL0     H 7408   3.900   2.705   0.676 -0.8267  0.6039 -0.8302
   55MOL0     H 7409   5.066   2.998   1.493 -0.7205 -1.1831  0.5770
   55MOL0     H 7410   4.904   2.923   1.653 -0.0267 -1.5880 -2.4123
   55MOL0     H 7411   4.634   2.955   1.936 -0.1496  1.6545 -0.7559
   55MOL0     H 7412   4.502   2.857   2.128  2.0530  3.6137  1.0473
   55MOL0     H 7413   4.379   3.015   2.253 -0.4990  0.2398 -2.9699
   55MOL0     H 7414   4.327   2.862   2.317 -3.2180 -2.0822 -0.2509
   55MOL0     H 7415   4.085   2.973   2.356 -0.4609 -1.2967 -0.0120
   55MOL0     H 7416   4.173   3.117   2.298 -2.5185 -0.6819  0.0403
   55MOL0     H 7417   4.198   3.134   2.540 -0.1232  0.1072  1.4691
   55MOL0     H 7418   4.342   3.067   2.496  0.2579  0.7064 -0.8143
   55MOL0     H 7419   4.098   2.901   2.573 -0.1663 -2.0912 -2.5988
   55MOL0     H 7420   4.275   2.851   2.582  0.5778 -0.1585  2.4853
   55MOL0     H 7421   4.236   3.071   2.943  0.3830  0.6555 -0.4657
   55MOL0     H 7422   4.145   2.973   1.921 -1.0976 -0.6577 -2.1114
   55MOL0     H 7423   4.154   2.942   1.664  0.7942 -2.1628 -0.2685
   55MOL0     H 7424   4.253   3.075   1.623 -1.1400  1.0705 -0.0184
   55MOL0     H 7425   4.322   2.920   1.594  1.2502 -1.1775  1.9247
   56MOL0     O 7426   0.036   9.456  10.113 -0.9999 -0.9875 -0.4286
   56MOL0     C 7427   0.091   9.559  10.143  0.5566  0.2392  0.2615
   56MOL0     O 7428   0.186   9.617  10.062 -0.1817  0.7662 -0.6714
   56MOL0     C 7429   0.188   9.592   9.926 -0.0885  0.1332  0.7417
   56MOL0     C 7430   0.306   9.620   9.863  0.8454 -0.8151 -0.0379
   56MOL0     C 7431   0.322   9.610   9.721  0.5677  0.1794 -0.0510
   56MOL0     C 7432   0.214   9.570   9.644  0.5085 -0.0289 -0.4810
   56MOL0     O 7433   0.223   9.557   9.506 -0.3015 -0.1870 -0.5680
   56MOL0     C 7434   0.357   9.547   9.444 -0.0660  0.2603  0.1503
   56MOL0     C 7435   0.352   9.488   9.301  0.6671  0.0276  0.2092
   56MOL0     C 7436   0.301   9.346   9.298  0.3507  0.1569  1.1630
   56MOL0     C 7437   0.305   9.298   9.154  0.0961 -0.5936 -1.4456
   56MOL0     C 7438   0.272   9.146   9.134 -0.1094  0.4184 -0.1876
   56MOL0     C 7439   0.239   9.117   8.988 -1.1316  0.4475 -0.0156
   56MOL0     C 7440   0.358   9.166   8.904  0.2188  0.1736 -0.5018
   56MOL0     C 7441   0.379   9.066   8.780 -0.8225 -0.2792  0.6283
   56MOL0     N 7442   0.464   9.148   8.691  0.9505 -0.2423 -0.4014
   56MOL0     C 7443   0.408   9.200   8.579  0.0783 -2.0584 -0.1349
   56MOL0     C 7444   0.503   9.284   8.534 -0.2958  0.5651  0.2461
   56MOL0     C 7445   0.514   9.346   8.396 -0.3399 -1.0554  0.5950
   56MOL0     C 7446   0.370   9.386   8.332  0.5425 -0.4344 -0.1354
   56MOL0     C 7447   0.303   9.496   8.414 -0.5587 -0.1919  0.9946
   56MOL0     C 7448   0.158   9.515   8.379 -0.6463  0.1757 -0.6039
   56MOL0     O 7449   0.157   9.629   8.299  0.4009 -0.3852  0.3881
   56MOL0     C 7450   0.034   9.660   8.249 -0.1771 -0.7666  0.1592
   56MOL0     C 7451   0.037   9.704   8.120  0.8403 -0.5313 -1.2206
   56MOL0     C 7452  -0.084   9.725   8.050 -0.6558 -0.8808  0.1425
   56MOL0     C 7453  -0.208   9.719   8.112  0.3159 -0.7799  0.0915
   56MOL0     C 7454  -0.329   9.765   8.042  0.0858  1.0553 -0.8206
   56MOL0     O 7455  -0.318   9.817   7.923  0.5259  0.5030  0.2171
   56MOL0     C 7456  -0.430   9.879   7.863 -0.1799 -1.0558  0.9919
   56MOL0     C 7457  -0.545   9.810   7.828  0.3451  0.6465  0.6846
   56MOL0     C 7458  -0.658   9.881   7.772  0.1419  0.1939 -0.1459
   56MOL0     C 7459  -0.662  10.019   7.775  0.5012  0.1988  0.3483
   56MOL0     O 7460  -0.772  10.097   7.748 -0.4559  0.1075 -0.4724
   56MOL0     C 7461  -0.902  10.039   7.723 -0.1626  0.5445  1.0026
   56MOL0     C 7462  -0.997  10.027   7.841  0.5650 -0.1432  0.9132
   56MOL0     C 7463  -0.938   9.944   7.957 -0.7559 -0.2050 -0.1291
   56MOL0     C 7464  -1.034   9.925   8.081 -0.0180 -0.0449 -0.1636
   56MOL0     C 7465  -1.081  10.057   8.148  0.1576  0.0138  0.6223
   56MOL0     C 7466  -1.166  10.031   8.273 -0.1766  0.9477  0.3584
   56MOL0     C 7467  -1.226  10.156   8.346 -0.3391  0.0775  0.7844
   56MOL0     C 7468  -1.317  10.123   8.454 -0.0764 -0.2070  0.2045
   56MOL0    Cl 7469  -1.263  10.015   8.579 -0.2241  0.3821 -0.0289
   56MOL0     C 7470  -0.543  10.092   7.794  0.1502  0.1686 -0.3301
   56MOL0     C 7471  -0.427  10.018   7.834  0.4981 -0.5627  0.0793
   56MOL0     O 7472  -0.429   9.743   8.100 -0.0022  0.3560 -0.4522
   56MOL0     C 7473  -0.207   9.679   8.252  0.2497 -0.6979  0.3525
   56MOL0     C 7474  -0.093   9.637   8.313  0.0507  0.3504  0.4302
   56MOL0     N 7475   0.622   9.273   8.611 -0.3574 -1.0493  0.2050
   56MOL0     N 7476   0.589   9.198   8.709 -0.5073  0.7081 -0.6183
   56MOL0     C 7477   0.092   9.541   9.703  0.4624  0.7561 -0.7577
   56MOL0     C 7478   0.086   9.547   9.847  0.5535  0.3091 -0.0395
   56MOL0     C 7479   0.038   9.615  10.269  0.1138  0.0735 -0.6450
   56MOL0     C 7480  -0.063   9.547  10.342  0.1413  0.0082 -0.2769
   56MOL0     C 7481  -0.103   9.583  10.465 -0.3058  0.1288 -0.7698
   56MOL0     C 7482  -0.082   9.713  10.505 -0.6472  0.6814  0.1616
   56MOL0     O 7483  -0.134   9.754  10.625 -0.2761 -0.9115 -0.0624
   56MOL0     C 7484  -0.273   9.735  10.645 -0.0143  0.5209 -0.3367
   56MOL0     C 7485  -0.332   9.843  10.732 -0.0740 -0.6469  0.4748
   56MOL0     C 7486  -0.281   9.852  10.874 -0.3109 -0.8613  0.2676
   56MOL0     C 7487  -0.317   9.734  10.963  0.6151  0.5605 -0.0887
   56MOL0     C 7488  -0.454   9.692  10.945 -0.0913  0.0312 -0.0294
   56MOL0     C 7489  -0.572   9.682  10.926 -0.2221  0.0120 -0.3007
   56MOL0     C 7490   0.018   9.789  10.438  0.2592  0.1133  0.6525
   56MOL0     C 7491   0.083   9.741  10.320  0.0788 -0.7817  1.0548
   56MOL0     C 7492   0.188   9.827  10.249  0.7166 -0.0741 -0.7725
   56MOL0     H 7493   0.401   9.653   9.903  2.2158 -2.6175 -1.5797
   56MOL0     H 7494   0.419   9.631   9.677  0.2203 -2.0808 -2.0824
   56MOL0     H 7495   0.407   9.643   9.438  1.6158  0.0580  5.7502
   56MOL0     H 7496   0.427   9.494   9.509 -0.0671  1.4840  1.1903
   56MOL0     H 7497   0.451   9.491   9.254  2.6566  1.3634  4.0268
   56MOL0     H 7498   0.286   9.550   9.240  0.6736  0.4664  0.6374
   56MOL0     H 7499   0.201   9.339   9.343  0.0628 -1.8296  0.3018
   56MOL0     H 7500   0.377   9.282   9.343  1.1799 -1.8675 -2.7010
   56MOL0     H 7501   0.234   9.363   9.103 -1.1899 -1.0914 -0.3303
   56MOL0     H 7502   0.405   9.318   9.113  1.2150 -0.5923  1.0928
   56MOL0     H 7503   0.347   9.082   9.181  0.0013 -0.8025 -1.9268
   56MOL0     H 7504   0.183   9.128   9.196 -1.1351  0.3139 -1.6402
   56MOL0     H 7505   0.211   9.017   8.953 -1.4854  0.7316 -0.5539
   56MOL0     H 7506   0.157   9.182   8.957  0.1947  3.7634  2.7137
   56MOL0     H 7507   0.445   9.187   8.966 -0.6482  1.8886  0.1848
   56MOL0     H 7508   0.335   9.267   8.869 -1.8544 -1.2893 -3.9719
   56MOL0     H 7509   0.427   8.971   8.803 -0.7102 -1.0414 -2.3655
   56MOL0     H 7510   0.279   9.054   8.739 -0.1281  2.3579 -2.2121
   56MOL0     H 7511   0.318   9.171   8.524 -0.7148  0.8833 -0.5586
   56MOL0     H 7512   0.575   9.435   8.415  0.4335 -1.4465 -0.0414
   56MOL0     H 7513   0.560   9.268   8.336 -1.1656 -1.3723  0.3565
   56MOL0     H 7514   0.373   9.415   8.226 -1.1126  0.1068 -0.0678
   56MOL0     H 7515   0.315   9.292   8.337 -0.7307  0.3634  1.7703
   56MOL0     H 7516   0.351   9.595   8.415 -1.9155  0.4978  0.7162
   56MOL0     H 7517   0.320   9.460   8.516  1.3381 -0.2734  0.6935
   56MOL0     H 7518   0.102   9.537   8.470  0.6348 -0.4537  0.3806
   56MOL0     H 7519   0.110   9.435   8.322  2.4040 -1.7010 -0.7959
   56MOL0     H 7520   0.126   9.734   8.065 -1.3582  4.5129 -2.6065
   56MOL0     H 7521  -0.086   9.744   7.943 -1.5625 -1.8433 -0.0220
   56MOL0     H 7522  -0.555   9.704   7.846  0.9223  0.6321  0.9237
   56MOL0     H 7523  -0.751   9.827   7.759  0.2228 -1.3157  3.9899
   56MOL0     H 7524  -0.959  10.105   7.656  1.1472  2.2793  1.5287
   56MOL0     H 7525  -0.891   9.948   7.663 -0.0608 -0.9101  3.1153
   56MOL0     H 7526  -1.019  10.127   7.878  0.1724  0.8727 -1.8975
   56MOL0     H 7527  -1.086   9.977   7.802  2.4500 -0.8391 -2.9866
   56MOL0     H 7528  -0.918   9.841   7.924  0.6598 -0.3101  0.9608
   56MOL0     H 7529  -0.839   9.980   7.988 -0.7135 -0.4001 -0.0309
   56MOL0     H 7530  -0.975   9.866   8.152  2.6940  1.6728 -0.8181
   56MOL0     H 7531  -1.130   9.880   8.055  0.5425 -2.8693  2.1509
   56MOL0     H 7532  -1.124  10.131   8.080  1.4827  0.6768  0.4765
   56MOL0     H 7533  -0.993  10.117   8.174 -0.0543  1.6203 -1.9961
   56MOL0     H 7534  -1.250   9.965   8.249  1.2024 -0.0613 -2.0898
   56MOL0     H 7535  -1.108   9.971   8.342 -0.4025 -2.2025 -1.9708
   56MOL0     H 7536  -1.273  10.226   8.277 -2.0701 -0.7378  1.0883
   56MOL0     H 7537  -1.141  10.212   8.386  1.6494 -0.9921 -1.6064
   56MOL0     H 7538  -1.357  10.212   8.504  0.8475  0.0239  0.5372
   56MOL0     H 7539  -1.394  10.076   8.391  0.3221 -2.7415  1.4988
   56MOL0     H 7540  -0.555  10.200   7.786 -1.6851  0.0829  0.7357
   56MOL0     H 7541  -0.339  10.079   7.852  0.4510  0.0116 -1.4758
   56MOL0     H 7542  -0.300   9.686   8.306 -0.4690  3.9240 -1.1154
   56MOL0     H 7543  -0.103   9.579   8.404 -0.6811 -2.8584 -1.5361
   56MOL0     H 7544   0.006   9.518   9.642 -1.7436  1.7040  1.7830
   56MOL0     H 7545  -0.009   9.547   9.899 -0.3676  2.5499 -1.5542
   56MOL0     H 7546  -0.106   9.456  10.302 -5.3235  3.7113 -4.4438
   56MOL0     H 7547  -0.187   9.536  10.515 -0.5403  0.3837 -0.9171
   56MOL0     H 7548  -0.288   9.628  10.665  0.0899 -0.0431 -2.9262
   56MOL0     H 7549  -0.329   9.754  10.553 -0.5869 -0.0653 -0.1155
   56MOL0     H 7550  -0.441   9.844  10.742  0.0363  0.3744  1.9869
   56MOL0     H 7551  -0.301   9.942  10.699  0.0460 -1.1372 -0.9341
   56MOL0     H 7552  -0.312   9.951  10.909 -0.3859 -1.0405  0.7164
   56MOL0     H 7553  -0.172   9.850  10.881 -0.2247  0.7220 -0.1786
   56MOL0     H 7554  -0.252   9.649  10.936 -1.3990 -0.8375 -0.7654
   56MOL0     H 7555  -0.292   9.763  11.065 -0.6447  0.7597  0.1753
   56MOL0     H 7556  -0.679   9.675  10.920 -0.1448 -1.6738 -0.1616
   56MOL0     H 7557   0.041   9.888  10.475  0.8596  0.5370 -0.7787
   56MOL0     H 7558   0.275   9.773  10.209  1.5858  0.9525 -0.3232
   56MOL0     H 7559   0.158   9.881  10.159 -0.5435 -2.1478 -1.6561
   56MOL0     H 7560   0.226   9.900  10.321  0.2968 -0.1992 -0.4185
   57MOL0     O 7561   9.262   4.292   0.698  0.3289  0.6976 -1.5145
   57MOL0     C 7562   9.337   4.217   0.760 -0.8652 -0.5757 -0.3495
   57MOL0     O 7563   9.369   4.245   0.888 -0.1878  0.7566 -0.1302
   57MOL0     C 7564   9.285   4.318   0.969 -0.2930  0.2739 -0.4634
   57MOL0     C 7565   9.221   4.256   1.073 -0.4312 -0.2461 -0.0247
   57MOL0     C 7566   9.126   4.321   1.155  1.4024 -0.0014  0.3743
   57MOL0     C 7567   9.117   4.462   1.138  0.1613  0.0111 -0.1950
   57MOL0     O 7568   9.064   4.545   1.233  0.0524  0.1396 -0.0447
   57MOL0     C 7569   8.974   4.649   1.178 -0.1729  0.4793  0.8276
   57MOL0     C 7570   8.993   4.790   1.225 -0.0268 -0.7699  0.2446
   57MOL0     C 7571   8.919   4.907   1.162  1.2069 -0.4339  0.0036
   57MOL0     C 7572   8.783   4.921   1.227  1.0873  0.4578  0.3762
   57MOL0     C 7573   8.792   5.010   1.351 -1.5674  0.3332 -1.1133
   57MOL0     C 7574   8.655   5.073   1.385  0.8931 -0.3217 -0.1873
   57MOL0     C 7575   8.661   5.217   1.454  0.2800  0.0968  1.0561
   57MOL0     C 7576   8.705   5.200   1.599 -0.8724  0.5255  0.3921
   57MOL0     N 7577   8.844   5.157   1.619  1.3027  0.4695  0.5575
   57MOL0     C 7578   8.885   5.049   1.691 -0.2739  1.1377 -0.4405
   57MOL0     C 7579   9.016   5.029   1.664  0.0534  0.3849  0.2440
   57MOL0     C 7580   9.116   4.916   1.703  1.1146  0.0912 -0.8135
   57MOL0     C 7581   9.075   4.776   1.650 -0.0666 -0.4554 -0.1975
   57MOL0     C 7582   8.996   4.683   1.749  0.4712 -0.6348  0.4310
   57MOL0     C 7583   8.936   4.566   1.663  0.1781  0.3070  0.8362
   57MOL0     O 7584   8.810   4.607   1.614  0.5243  0.1529 -0.1175
   57MOL0     C 7585   8.752   4.549   1.503 -0.1877 -0.1870  0.2170
   57MOL0     C 7586   8.815   4.451   1.417  0.5918  0.5195  0.7762
   57MOL0     C 7587   8.756   4.391   1.303 -0.3975  0.0258  0.2999
   57MOL0     C 7588   8.616   4.430   1.277  0.0614  0.4012  0.5459
   57MOL0     C 7589   8.543   4.363   1.162  0.8851 -0.3607 -0.9569
   57MOL0     O 7590   8.419   4.419   1.129  0.5586  0.6308  0.4567
   57MOL0     C 7591   8.327   4.329   1.088  0.3639 -0.4902  0.5474
   57MOL0     C 7592   8.265   4.240   1.173 -0.0389 -1.2847 -0.1730
   57MOL0     C 7593   8.170   4.153   1.121  0.0793  0.8855  0.0244
   57MOL0     C 7594   8.140   4.146   0.990 -0.4009 -0.3572 -0.0537
   57MOL0     O 7595   8.031   4.081   0.937  0.1034 -0.3188 -0.0346
   57MOL0     C 7596   7.919   4.057   1.014 -0.7515  0.9697  0.6371
   57MOL0     C 7597   7.817   4.005   0.919 -0.0225 -1.2906 -0.3348
   57MOL0     C 7598   7.701   3.942   1.000 -1.7735  0.1418 -0.4576
   57MOL0     C 7599   7.634   4.062   1.069 -0.3063  0.4913 -0.3059
   57MOL0     C 7600   7.519   4.012   1.161 -0.3697 -0.6622  0.7033
   57MOL0     C 7601   7.428   4.119   1.200 -0.6499 -0.3099  0.3501
   57MOL0     C 7602   7.353   4.062   1.324  0.7653  0.3015  0.2168
   57MOL0     C 7603   7.267   4.169   1.389 -0.4319 -0.5990  0.2576
   57MOL0    Cl 7604   7.092   4.147   1.347  0.0935 -0.4100  0.9009
   57MOL0     C 7605   8.213   4.236   0.899  0.7759  0.5149 -0.9348
   57MOL0     C 7606   8.293   4.337   0.949 -0.1942 -0.2460  0.6829
   57MOL0     O 7607   8.587   4.257   1.117  0.0342  0.2111  0.4687
   57MOL0     C 7608   8.556   4.525   1.354  0.1518 -0.1479  0.7258
   57MOL0     C 7609   8.625   4.588   1.456 -0.4357 -0.2918 -0.5530
   57MOL0     N 7610   9.052   5.135   1.578  0.3434  0.2870  0.6241
   57MOL0     N 7611   8.949   5.207   1.556 -0.5616 -0.2162  0.0083
   57MOL0     C 7612   9.188   4.529   1.040  0.4253 -0.4753 -0.0348
   57MOL0     C 7613   9.272   4.454   0.961 -0.5408 -0.5129  0.4048
   57MOL0     C 7614   9.400   4.102   0.690 -1.1220 -0.1793  0.2622
   57MOL0     C 7615   9.417   3.971   0.741  0.2450  0.7738 -0.4794
   57MOL0     C 7616   9.479   3.870   0.673  0.0777  0.7170 -0.5249
   57MOL0     C 7617   9.524   3.893   0.542  0.3770  0.1701  0.5648
   57MOL0     O 7618   9.584   3.789   0.477  0.1330  0.1069  0.0979
   57MOL0     C 7619   9.667   3.811   0.357  0.2457 -0.4174 -0.2957
   57MOL0     C 7620   9.726   3.678   0.315 -1.1845 -0.3422 -0.4874
   57MOL0     C 7621   9.821   3.625   0.406  0.2412  0.0932  0.2759
   57MOL0     C 7622   9.862   3.478   0.380 -0.1183 -0.4861 -0.2330
   57MOL0     C 7623   9.925   3.417   0.491  0.2484  0.6079  0.2207
   57MOL0     C 7624   9.969   3.345   0.572  0.4196  0.9267 -0.6553
   57MOL0     C 7625   9.516   4.023   0.488  0.3304 -0.1409  0.5448
   57MOL0     C 7626   9.458   4.133   0.563  0.1696  0.1797  0.3967
   57MOL0     C 7627   9.478   4.279   0.511  0.5073 -1.0842  0.2776
   57MOL0     H 7628   9.252   4.153   1.063  2.4603  0.5505 -0.1896
   57MOL0     H 7629   9.073   4.251   1.218 -2.6254  0.4382 -2.1864
   57MOL0     H 7630   8.965   4.645   1.069  0.4154 -4.4122  0.7071
   57MOL0     H 7631   8.878   4.606   1.210 -0.6540  1.7012  1.0877
   57MOL0     H 7632   9.101   4.810   1.218 -0.1215 -0.7217 -1.2079
   57MOL0     H 7633   8.970   4.795   1.332  1.5142 -2.9596  0.7416
   57MOL0     H 7634   8.894   4.892   1.056 -2.9163  2.3885  0.3073
   57MOL0     H 7635   8.977   4.999   1.175 -0.7284  1.1815 -1.8462
   57MOL0     H 7636   8.709   4.964   1.159  0.6867 -0.5654  0.1469
   57MOL0     H 7637   8.749   4.821   1.256  1.1880  1.0073  2.5364
   57MOL0     H 7638   8.834   4.952   1.434  0.4367  1.1056 -1.5186
   57MOL0     H 7639   8.858   5.096   1.331 -0.4183  0.5179  2.7312
   57MOL0     H 7640   8.587   5.069   1.300 -1.8164  0.2448  1.8250
   57MOL0     H 7641   8.608   5.007   1.459 -3.1016  1.7687 -0.5839
   57MOL0     H 7642   8.563   5.266   1.450  0.2998  0.0413 -0.9830
   57MOL0     H 7643   8.731   5.278   1.396  0.1266 -3.3149 -3.1526
   57MOL0     H 7644   8.708   5.292   1.658  1.1650  1.3876 -0.9104
   57MOL0     H 7645   8.641   5.126   1.647 -0.3484 -0.0496  0.2278
   57MOL0     H 7646   8.828   4.977   1.750 -1.9780  2.0354 -0.9245
   57MOL0     H 7647   9.217   4.933   1.667  1.6905 -0.6864  0.3561
   57MOL0     H 7648   9.125   4.915   1.812 -2.2431  1.3865 -0.3913
   57MOL0     H 7649   9.019   4.797   1.558 -0.7473 -1.0678  0.0718
   57MOL0     H 7650   9.173   4.735   1.622  2.0847  1.7592  3.2959
   57MOL0     H 7651   8.913   4.751   1.770 -1.0725  0.3339 -6.2987
   57MOL0     H 7652   9.054   4.656   1.837 -0.7643  1.2236  1.8976
   57MOL0     H 7653   8.930   4.488   1.739 -0.6891  0.7707  1.2533
   57MOL0     H 7654   9.006   4.550   1.581  0.9110  0.6117  1.3993
   57MOL0     H 7655   8.914   4.415   1.445  0.1566 -2.1799 -0.7602
   57MOL0     H 7656   8.814   4.324   1.241 -0.4299  0.3590 -0.0915
   57MOL0     H 7657   8.296   4.219   1.275 -0.3891 -0.7217  0.0569
   57MOL0     H 7658   8.129   4.088   1.198  2.0266  2.1761  2.2716
   57MOL0     H 7659   7.954   3.982   1.086  2.8060 -1.5419 -3.2669
   57MOL0     H 7660   7.884   4.150   1.061 -1.2246  1.0752  0.0812
   57MOL0     H 7661   7.788   4.085   0.850 -6.8045 -1.2286  1.9115
   57MOL0     H 7662   7.863   3.930   0.854 -1.0120 -1.5443 -0.7458
   57MOL0     H 7663   7.633   3.909   0.922  0.5312  0.0148 -2.5524
   57MOL0     H 7664   7.731   3.863   1.070  0.5266  2.2017  1.0439
   57MOL0     H 7665   7.595   4.127   0.990 -0.1377  0.3110 -0.5372
   57MOL0     H 7666   7.703   4.126   1.124 -0.2437  0.4267 -0.3096
   57MOL0     H 7667   7.568   3.958   1.243  3.2421  0.7798 -0.3203
   57MOL0     H 7668   7.462   3.935   1.107 -0.4607 -1.5034  1.9630
   57MOL0     H 7669   7.482   4.208   1.233 -1.8874  0.0698  1.4607
   57MOL0     H 7670   7.342   4.140   1.136 -2.9708  0.2556  3.3679
   57MOL0     H 7671   7.424   4.037   1.403  0.9698  1.9152  0.5725
   57MOL0     H 7672   7.300   3.970   1.297  0.6700  0.4892 -0.2405
   57MOL0     H 7673   7.277   4.149   1.496 -0.0233 -0.4776  0.2450
   57MOL0     H 7674   7.299   4.272   1.369  2.3232 -1.6667 -1.4035
   57MOL0     H 7675   8.175   4.226   0.798 -2.3519 -0.0402  0.1698
   57MOL0     H 7676   8.330   4.414   0.882  0.5321 -0.4624  0.8227
   57MOL0     H 7677   8.454   4.542   1.323  0.7342 -1.7549 -2.4554
   57MOL0     H 7678   8.590   4.661   1.528  0.9452 -2.2090  2.2441
   57MOL0     H 7679   9.173   4.636   1.028  0.1677 -0.5600 -0.4987
   57MOL0     H 7680   9.330   4.515   0.892 -1.8576  0.0904 -0.2248
   57MOL0     H 7681   9.392   3.955   0.846 -0.0031 -1.2419 -0.8192
   57MOL0     H 7682   9.481   3.774   0.723  0.6471  0.4164 -1.1090
   57MOL0     H 7683   9.748   3.876   0.392  0.6630 -0.9244 -0.2996
   57MOL0     H 7684   9.600   3.852   0.281  0.2768 -3.0003 -1.8209
   57MOL0     H 7685   9.776   3.694   0.219 -2.0907 -4.0971 -1.7432
   57MOL0     H 7686   9.650   3.606   0.284  0.1766 -1.2909 -1.7573
   57MOL0     H 7687   9.780   3.632   0.507  0.7528 -0.5537  0.5319
   57MOL0     H 7688   9.912   3.685   0.398  1.9682 -2.6280 -2.9614
   57MOL0     H 7689   9.766   3.427   0.367 -0.8254  0.6352  0.4045
   57MOL0     H 7690   9.922   3.466   0.290 -1.6470  0.0267 -1.3719
   57MOL0     H 7691   9.996   3.284   0.656  1.7940  2.6630  0.2423
   57MOL0     H 7692   9.557   4.039   0.389  0.0622 -0.5238  0.3699
   57MOL0     H 7693   9.529   4.269   0.415  1.7277  0.2708  0.7490
   57MOL0     H 7694   9.391   4.345   0.505  1.1871 -0.2734 -1.2021
   57MOL0     H 7695   9.542   4.340   0.575  1.5966  0.6678 -2.3257
   58MOL0     O 7696   4.541   8.836   2.816  0.3051  0.5971 -0.5280
   58MOL0     C 7697   4.528   8.848   2.941 -0.7812  0.2937 -1.0772
   58MOL0     O 7698   4.570   8.758   3.046  0.2786 -0.1140 -0.0471
   58MOL0     C 7699   4.603   8.636   2.986 -0.2847 -0.2265  0.2663
   58MOL0     C 7700   4.741   8.624   2.956  0.3484  0.5928 -0.3198
   58MOL0     C 7701   4.784   8.501   2.908 -0.3768  0.5358  0.3522
   58MOL0     C 7702   4.698   8.393   2.894 -0.7078  0.8840 -0.5309
   58MOL0     O 7703   4.745   8.265   2.894 -0.5337  0.3241 -0.2097
   58MOL0     C 7704   4.780   8.191   2.772 -0.8060  0.4856 -0.3109
   58MOL0     C 7705   4.894   8.100   2.806 -0.2880 -0.2719  0.4188
   58MOL0     C 7706   4.954   8.009   2.702  0.2567 -0.1444 -0.1455
   58MOL0     C 7707   5.068   7.923   2.752  0.1271 -0.7167 -0.4165
   58MOL0     C 7708   5.052   7.771   2.723  0.2062  0.6090  0.2233
   58MOL0     C 7709   5.178   7.685   2.765  1.2285 -0.2396  0.1463
   58MOL0     C 7710   5.178   7.678   2.918  0.1325  0.2424 -0.6057
   58MOL0     C 7711   5.064   7.623   3.005 -0.7367  0.8904  0.7825
   58MOL0     N 7712   5.065   7.480   3.011 -0.4299  0.7675  0.2299
   58MOL0     C 7713   4.978   7.407   2.933  0.0014  1.1252 -0.7306
   58MOL0     C 7714   5.004   7.275   2.955 -0.1498 -0.0264  0.5599
   58MOL0     C 7715   4.957   7.158   2.877  0.6589  0.1981  0.1636
   58MOL0     C 7716   4.807   7.144   2.898 -0.2011  0.1958  0.0404
   58MOL0     C 7717   4.757   7.024   2.827  1.3395 -0.4604  0.2152
   58MOL0     C 7718   4.819   6.894   2.868  0.2649  0.0808 -0.1113
   58MOL0     O 7719   4.855   6.874   3.010  0.0942 -0.2137 -0.8549
   58MOL0     C 7720   4.928   6.769   3.049 -0.0781 -0.6788 -0.1794
   58MOL0     C 7721   4.907   6.656   2.983 -0.2055 -0.3006 -0.5128
   58MOL0     C 7722   4.980   6.543   3.003  0.0327  0.1860 -0.8315
   58MOL0     C 7723   5.073   6.537   3.112 -0.2769 -0.0603  0.4666
   58MOL0     C 7724   5.151   6.420   3.143  0.1678  0.6117  0.4808
   58MOL0     O 7725   5.226   6.417   3.259 -0.2317  0.0055 -0.1199
   58MOL0     C 7726   5.308   6.305   3.276  0.9010  0.2934 -0.1417
   58MOL0     C 7727   5.445   6.336   3.266 -0.9017  0.8694 -1.0057
   58MOL0     C 7728   5.536   6.239   3.307 -0.3458 -0.3021  0.6629
   58MOL0     C 7729   5.502   6.113   3.339 -0.1794 -0.1239 -0.0944
   58MOL0     O 7730   5.602   6.028   3.378  0.6503 -0.6224 -0.1314
   58MOL0     C 7731   5.574   5.920   3.471 -0.2586 -0.3086 -0.2608
   58MOL0     C 7732   5.553   5.795   3.386 -0.7954 -0.4272  0.6997
   58MOL0     C 7733   5.526   5.669   3.474 -0.3189 -0.5226  0.3434
   58MOL0     C 7734   5.503   5.549   3.382  0.1979  0.2735 -0.6455
   58MOL0     C 7735   5.485   5.415   3.452  0.0609  0.0880 -0.0999
   58MOL0     C 7736   5.442   5.308   3.350 -0.2486  1.0317 -0.3947
   58MOL0     C 7737   5.422   5.172   3.428 -0.6273 -0.0143  0.4115
   58MOL0     C 7738   5.483   5.054   3.353  0.1243  0.0883  0.1794
   58MOL0    Cl 7739   5.510   4.912   3.446  0.0656 -0.3503 -0.1304
   58MOL0     C 7740   5.367   6.079   3.333  0.9791 -0.3733  0.8616
   58MOL0     C 7741   5.270   6.175   3.305  0.0269  0.6917  0.9296
   58MOL0     O 7742   5.147   6.328   3.060 -0.2110 -0.0448 -0.2446
   58MOL0     C 7743   5.097   6.659   3.181 -0.2913 -0.3301  0.1961
   58MOL0     C 7744   5.019   6.774   3.149 -0.5342 -0.5988 -0.6130
   58MOL0     N 7745   5.092   7.274   3.065  0.5292  0.0928  0.0695
   58MOL0     N 7746   5.124   7.399   3.096  0.0879  0.0077 -0.7180
   58MOL0     C 7747   4.569   8.411   2.928  0.1222  0.2312 -0.4551
   58MOL0     C 7748   4.511   8.523   2.982 -0.3077 -1.1152 -0.1481
   58MOL0     C 7749   4.497   8.991   2.979  0.4513 -0.2103 -0.2110
   58MOL0     C 7750   4.585   9.070   3.057 -0.8357 -0.0799  0.2401
   58MOL0     C 7751   4.545   9.202   3.095  0.1121 -0.5838  0.4121
   58MOL0     C 7752   4.433   9.266   3.037  0.3382 -0.5539  1.0681
   58MOL0     O 7753   4.403   9.399   3.062 -0.4987 -0.7665  0.2100
   58MOL0     C 7754   4.488   9.494   3.002  0.1666 -1.3842 -0.2751
   58MOL0     C 7755   4.489   9.617   3.089  0.0013  0.6733 -0.5962
   58MOL0     C 7756   4.556   9.594   3.231 -0.0901 -0.1046 -0.7435
   58MOL0     C 7757   4.614   9.737   3.268 -0.7912 -0.3282  0.0685
   58MOL0     C 7758   4.752   9.769   3.212  0.3339 -0.3349 -0.4912
   58MOL0     C 7759   4.859   9.814   3.161 -0.8785  0.8027 -0.1733
   58MOL0     C 7760   4.342   9.179   2.962  0.2434 -0.2437 -0.1068
   58MOL0     C 7761   4.375   9.047   2.933  0.0024 -0.4085  1.0642
   58MOL0     C 7762   4.272   8.983   2.844  0.6681  0.9785 -0.0464
   58MOL0     H 7763   4.810   8.705   2.977 -0.6852  0.9006  2.2650
   58MOL0     H 7764   4.889   8.485   2.885  0.2752 -2.5041  4.2715
   58MOL0     H 7765   4.708   8.117   2.735  1.6224 -0.4591 -3.6001
   58MOL0     H 7766   4.794   8.251   2.682  1.5679 -3.3745 -2.8013
   58MOL0     H 7767   4.870   8.038   2.893 -1.3252 -0.2370  0.1603
   58MOL0     H 7768   4.979   8.165   2.828 -1.5851  2.2054 -1.3817
   58MOL0     H 7769   4.996   8.070   2.622  1.0118  0.4224  0.6690
   58MOL0     H 7770   4.878   7.948   2.652  1.1123  1.0907 -3.1348
   58MOL0     H 7771   5.166   7.956   2.719  1.2665 -2.1839  1.2818
   58MOL0     H 7772   5.071   7.945   2.860  0.5496  3.7874 -1.1472
   58MOL0     H 7773   4.954   7.738   2.759  0.7810  1.4944  2.8269
   58MOL0     H 7774   5.046   7.755   2.615  1.5769 -3.2528  0.5693
   58MOL0     H 7775   5.175   7.590   2.712  0.8577  0.5919 -1.3614
   58MOL0     H 7776   5.270   7.734   2.731  2.0090 -0.6209  1.5924
   58MOL0     H 7777   5.185   7.781   2.955 -2.3557 -0.2181  1.4643
   58MOL0     H 7778   5.272   7.632   2.950 -0.8952 -1.2332  0.4301
   58MOL0     H 7779   5.065   7.672   3.103 -3.6423  2.2326  0.2551
   58MOL0     H 7780   4.965   7.651   2.967 -0.3687  0.2584 -0.7265
   58MOL0     H 7781   4.901   7.443   2.865 -0.9519 -0.9253 -0.8326
   58MOL0     H 7782   4.981   7.177   2.772 -1.3576 -0.4510 -0.4672
   58MOL0     H 7783   4.998   7.067   2.921  0.7997  1.5210  2.9820
   58MOL0     H 7784   4.780   7.140   3.004 -0.8807 -2.0808 -0.1622
   58MOL0     H 7785   4.764   7.236   2.857 -0.0270  0.0702 -0.4269
   58MOL0     H 7786   4.773   7.043   2.720  0.7525 -1.1372 -0.0038
   58MOL0     H 7787   4.648   7.026   2.839  1.1166  1.7937 -1.4897
   58MOL0     H 7788   4.908   6.881   2.805 -1.4082  0.2682 -2.6490
   58MOL0     H 7789   4.748   6.815   2.841  1.0417 -0.4224 -0.7453
   58MOL0     H 7790   4.828   6.650   2.909 -0.6744 -0.7463  0.0143
   58MOL0     H 7791   4.959   6.453   2.946  1.5482  0.4465 -1.8880
   58MOL0     H 7792   5.470   6.439   3.242 -1.9997  0.7819 -2.7409
   58MOL0     H 7793   5.639   6.265   3.331 -0.5906  0.1485  1.2680
   58MOL0     H 7794   5.660   5.903   3.536 -0.6974  2.5293  1.2162
   58MOL0     H 7795   5.493   5.961   3.532  0.1598 -0.2557  0.2610
   58MOL0     H 7796   5.466   5.803   3.320 -0.9447 -0.2615  0.9132
   58MOL0     H 7797   5.645   5.784   3.329 -1.0919 -0.8017  0.2948
   58MOL0     H 7798   5.618   5.651   3.530  0.4562 -2.6105 -1.4538
   58MOL0     H 7799   5.454   5.701   3.550  0.9550  2.0499  0.5721
   58MOL0     H 7800   5.582   5.549   3.306 -1.3036  1.4527 -2.2823
   58MOL0     H 7801   5.414   5.573   3.322 -0.6998 -1.3751 -0.0349
   58MOL0     H 7802   5.404   5.422   3.524  0.4885  4.1027  0.2221
   58MOL0     H 7803   5.572   5.379   3.509 -2.3710 -1.2149  3.1047
   58MOL0     H 7804   5.345   5.333   3.306  1.2058  2.5510 -2.9230
   58MOL0     H 7805   5.525   5.299   3.279 -0.8211 -1.1969 -0.8484
   58MOL0     H 7806   5.315   5.160   3.448 -1.3955  2.8624 -1.4547
   58MOL0     H 7807   5.466   5.167   3.528  1.4121 -1.2338 -0.4895
   58MOL0     H 7808   5.408   5.029   3.278  1.1210  0.4292 -0.9631
   58MOL0     H 7809   5.575   5.082   3.300 -2.1430 -0.1879 -4.4305
   58MOL0     H 7810   5.332   5.979   3.357 -1.3714  0.3190  0.5054
   58MOL0     H 7811   5.167   6.141   3.309 -0.1420  0.7773 -1.4373
   58MOL0     H 7812   5.173   6.673   3.257 -2.4339 -2.0400  2.8207
   58MOL0     H 7813   5.044   6.871   3.191 -0.3692  0.6768 -3.4543
   58MOL0     H 7814   4.504   8.326   2.941 -0.8269  1.0814  0.6249
   58MOL0     H 7815   4.412   8.531   3.025 -0.7968 -2.8132 -0.8740
   58MOL0     H 7816   4.679   9.028   3.091 -0.3597 -0.7196 -1.7570
   58MOL0     H 7817   4.603   9.260   3.166 -1.4970 -0.4618  1.7065
   58MOL0     H 7818   4.454   9.521   2.902 -1.4316  2.8450  1.1896
   58MOL0     H 7819   4.590   9.455   3.003 -0.0740 -2.0529 -1.0089
   58MOL0     H 7820   4.394   9.671   3.088 -0.6260 -0.3450 -2.9612
   58MOL0     H 7821   4.565   9.677   3.038  1.7926  0.2705  1.4410
   58MOL0     H 7822   4.633   9.517   3.224  1.0666  0.8947  0.4993
   58MOL0     H 7823   4.481   9.564   3.305  1.0101 -1.2341 -0.0568
   58MOL0     H 7824   4.542   9.815   3.241 -1.5680 -0.9941  0.1718
   58MOL0     H 7825   4.617   9.751   3.376 -3.6289  1.0458  0.0745
   58MOL0     H 7826   4.951   9.852   3.122 -1.0224  2.5982  1.0983
   58MOL0     H 7827   4.257   9.230   2.918  1.8246  1.8747 -0.8677
   58MOL0     H 7828   4.194   9.055   2.814 -0.2874 -0.2968 -0.7272
   58MOL0     H 7829   4.326   8.955   2.753 -1.0322 -1.1857 -0.4787
   58MOL0     H 7830   4.227   8.896   2.892 -0.8221  1.1172 -1.1048
   59MOL0     O 7831   9.250   3.774  11.225 -0.7681  0.0645  0.7800
   59MOL0     C 7832   9.238   3.874  11.155  1.0326 -0.4657  0.8805
   59MOL0     O 7833   9.322   3.926  11.071 -0.5702  0.6227 -0.8418
   59MOL0     C 7834   9.448   3.863  11.063  0.1681 -0.0958 -0.3933
   59MOL0     C 7835   9.555   3.890  11.152  0.4115 -0.3145  0.6846
   59MOL0     C 7836   9.680   3.837  11.136 -0.2079  0.6877  0.1526
   59MOL0     C 7837   9.704   3.744  11.027  0.0440 -0.7891 -0.1419
   59MOL0     O 7838   9.824   3.690  10.988  0.6387  0.3524  0.2201
   59MOL0     C 7839   9.913   3.653  11.093  0.2024  0.0198 -0.5657
   59MOL0     C 7840  10.034   3.578  11.041 -0.1641  0.0384 -0.4327
   59MOL0     C 7841  10.003   3.459  10.947  0.3707 -0.7814  0.1686
   59MOL0     C 7842  10.052   3.325  11.013 -0.5781 -0.0985 -0.4358
   59MOL0     C 7843  10.032   3.207  10.921 -0.1198 -0.5457 -0.1466
   59MOL0     C 7844  10.093   3.078  10.988  0.6793 -0.5701 -0.4031
   59MOL0     C 7845  10.112   2.973  10.883 -0.3821  0.6456  0.7066
   59MOL0     C 7846  10.175   2.855  10.927  0.2733  0.5935 -0.2280
   59MOL0     N 7847  10.158   2.812  11.067  0.2059  0.2129  0.2872
   59MOL0     C 7848  10.249   2.820  11.170 -0.7222  0.2094 -0.7071
   59MOL0     C 7849  10.190   2.744  11.265  0.3953 -0.8640  0.4506
   59MOL0     C 7850  10.242   2.712  11.398 -0.3426 -0.3451 -0.5182
   59MOL0     C 7851  10.244   2.827  11.501 -0.3653  0.0910 -0.6280
   59MOL0     C 7852  10.345   2.937  11.475  0.6439 -0.3026  0.0122
   59MOL0     C 7853  10.293   3.066  11.541  0.0541  0.1220 -0.2378
   59MOL0     O 7854  10.166   3.092  11.479  0.2680  0.4195 -0.9871
   59MOL0     C 7855  10.116   3.221  11.495 -0.9431 -0.4469  0.2654
   59MOL0     C 7856  10.028   3.272  11.403  0.6622  0.3607  0.1813
   59MOL0     C 7857   9.982   3.407  11.410  0.6304 -0.3306  0.8912
   59MOL0     C 7858  10.035   3.497  11.510 -0.3703 -0.0290 -0.3328
   59MOL0     C 7859   9.979   3.635  11.514 -1.2169 -0.3619  0.1427
   59MOL0     O 7860  10.018   3.717  11.622  0.5401 -1.0287 -0.3621
   59MOL0     C 7861   9.983   3.853  11.634  0.8500  1.1313 -0.1076
   59MOL0     C 7862  10.067   3.927  11.713  0.6204  0.1731 -0.3925
   59MOL0     C 7863  10.042   4.058  11.746 -0.3920 -0.9191 -0.5130
   59MOL0     C 7864   9.935   4.119  11.684  0.0608 -0.3573 -0.5172
   59MOL0     O 7865   9.917   4.250  11.713  0.1273  0.0255 -0.8725
   59MOL0     C 7866   9.792   4.284  11.788  0.3062  0.0397 -0.5800
   59MOL0     C 7867   9.836   4.313  11.937  0.0713  0.1984  0.0882
   59MOL0     C 7868   9.923   4.439  11.931 -0.1709 -0.0905 -0.6288
   59MOL0     C 7869   9.953   4.499  12.069  0.1564  0.6441  0.3812
   59MOL0     C 7870   9.831   4.567  12.133  0.5839 -0.3026 -0.2997
   59MOL0     C 7871   9.816   4.594  12.289 -0.0289  0.2556  0.3674
   59MOL0     C 7872   9.933   4.675  12.348 -1.0664  0.4352  0.2929
   59MOL0     C 7873   9.943   4.827  12.314 -0.0194  0.1716  0.0269
   59MOL0    Cl 7874  10.120   4.863  12.307  0.1172 -0.5286 -0.2092
   59MOL0     C 7875   9.854   4.049  11.595 -1.0576  0.3488  0.0263
   59MOL0     C 7876   9.869   3.912  11.577  0.0144  0.2593 -0.0349
   59MOL0     O 7877   9.910   3.673  11.420  0.0700 -0.0493  0.2028
   59MOL0     C 7878  10.128   3.444  11.600  0.0793 -0.5701 -0.1470
   59MOL0     C 7879  10.179   3.312  11.587  0.7001  0.2481 -0.1473
   59MOL0     N 7880  10.072   2.702  11.219  0.4711  0.3890  0.3072
   59MOL0     N 7881  10.064   2.727  11.092  0.1257  0.4536 -0.6692
   59MOL0     C 7882   9.607   3.717  10.937  0.1382 -0.3360 -0.2825
   59MOL0     C 7883   9.471   3.774  10.954  0.6992 -0.0187 -0.4860
   59MOL0     C 7884   9.110   3.951  11.175 -0.2281  0.0081 -0.0978
   59MOL0     C 7885   9.000   3.885  11.216 -0.5970  1.0069 -0.4020
   59MOL0     C 7886   8.881   3.957  11.255  0.6476 -0.3599 -0.0304
   59MOL0     C 7887   8.866   4.092  11.248  0.2937  0.1302  0.3067
   59MOL0     O 7888   8.754   4.166  11.286 -0.6402  0.3254  0.0556
   59MOL0     C 7889   8.648   4.095  11.330  0.5906  0.0775 -0.9641
   59MOL0     C 7890   8.533   4.183  11.367 -1.7098 -0.3810  0.2766
   59MOL0     C 7891   8.410   4.111  11.401  0.3411 -0.2437 -0.4498
   59MOL0     C 7892   8.293   4.212  11.422  0.4052  0.0140 -0.1730
   59MOL0     C 7893   8.191   4.149  11.507 -0.5405 -0.6255  0.4623
   59MOL0     C 7894   8.118   4.084  11.580 -0.0099 -0.2231 -0.1073
   59MOL0     C 7895   8.976   4.156  11.201  0.2105  0.1146  0.3091
   59MOL0     C 7896   9.104   4.094  11.171 -0.8160 -0.0710  0.4566
   59MOL0     C 7897   9.215   4.180  11.118  1.3508  0.4736 -0.3863
   59MOL0     H 7898   9.555   3.960  11.234  0.6577 -0.9147  1.2084
   59MOL0     H 7899   9.753   3.864  11.212 -1.0078 -0.3282  1.3248
   59MOL0     H 7900   9.958   3.737  11.146 -0.0862  1.4361 -2.4494
   59MOL0     H 7901   9.860   3.591  11.166  0.0315  1.9150  0.9894
   59MOL0     H 7902  10.098   3.542  11.122 -0.5007 -1.9972 -0.9913
   59MOL0     H 7903  10.094   3.642  10.975 -0.0979 -1.9095 -2.3968
   59MOL0     H 7904  10.065   3.464  10.857 -0.3398  1.7201 -0.2510
   59MOL0     H 7905   9.899   3.449  10.913 -0.3111  2.1538  1.0636
   59MOL0     H 7906  10.155   3.340  11.044 -0.9346 -1.1195  1.3851
   59MOL0     H 7907   9.992   3.307  11.103  0.4189 -0.7437  0.1210
   59MOL0     H 7908   9.932   3.190  10.880 -0.3211 -1.1971  0.5956
   59MOL0     H 7909  10.091   3.230  10.832  4.2465  1.7397  2.9649
   59MOL0     H 7910  10.187   3.089  11.042  0.5996 -0.6587 -0.2455
   59MOL0     H 7911  10.016   3.044  11.058  1.1665 -2.0219 -0.5515
   59MOL0     H 7912  10.169   3.015  10.799 -2.9424  0.3727 -1.3140
   59MOL0     H 7913  10.017   2.957  10.830  0.1919  1.0799 -0.5077
   59MOL0     H 7914  10.147   2.766  10.870 -0.8234  1.9827 -1.9700
   59MOL0     H 7915  10.282   2.878  10.930  0.3532  1.1013 -3.3392
   59MOL0     H 7916  10.343   2.875  11.181 -1.4983  1.2728  1.2033
   59MOL0     H 7917  10.202   2.630  11.459 -0.5626  1.7344  2.3537
   59MOL0     H 7918  10.348   2.688  11.383 -1.0253 -3.3164 -1.2072
   59MOL0     H 7919  10.145   2.874  11.509  1.3793  4.1249  0.0540
   59MOL0     H 7920  10.265   2.777  11.596 -1.9341  0.7829  0.1220
   59MOL0     H 7921  10.361   2.954  11.368 -3.3633  1.5207 -0.5026
   59MOL0     H 7922  10.442   2.899  11.509  0.9233 -1.6686 -2.0936
   59MOL0     H 7923  10.366   3.144  11.515  0.1675  0.1167  0.0682
   59MOL0     H 7924  10.303   3.062  11.649  1.2916 -3.5125 -0.3513
   59MOL0     H 7925   9.990   3.200  11.332 -0.8712 -0.8330  2.1089
   59MOL0     H 7926   9.905   3.438  11.340  0.3321  1.2689  1.8824
   59MOL0     H 7927  10.150   3.871  11.756 -2.8558 -2.3012  3.8260
   59MOL0     H 7928  10.097   4.121  11.814 -0.0875  0.0732 -1.6348
   59MOL0     H 7929   9.761   4.381  11.746  1.1711  2.1590  3.1914
   59MOL0     H 7930   9.715   4.208  11.771  1.4103 -1.3518  0.4990
   59MOL0     H 7931   9.748   4.323  12.002  1.1457  0.7681  1.4958
   59MOL0     H 7932   9.883   4.222  11.974 -0.3979 -0.2859 -0.4860
   59MOL0     H 7933  10.018   4.411  11.886  1.2304  0.8740  1.5907
   59MOL0     H 7934   9.877   4.522  11.877  0.0724  1.3317  1.2607
   59MOL0     H 7935  10.038   4.563  12.048 -0.7292  1.2931 -1.4730
   59MOL0     H 7936   9.988   4.414  12.129  2.3168  1.4384  0.3234
   59MOL0     H 7937   9.736   4.515  12.122  0.6022 -1.5455  3.7191
   59MOL0     H 7938   9.814   4.661  12.079 -2.6187 -1.3279 -1.3179
   59MOL0     H 7939   9.724   4.647  12.316 -0.8626 -1.1691  0.3949
   59MOL0     H 7940   9.809   4.499  12.341 -0.9500  0.5719  0.8385
   59MOL0     H 7941  10.017   4.619  12.307 -2.0445 -2.2183  1.6186
   59MOL0     H 7942   9.945   4.664  12.456  0.2488  2.0480  0.3497
   59MOL0     H 7943   9.896   4.848  12.217 -0.0520 -2.4132 -0.5830
   59MOL0     H 7944   9.888   4.883  12.391 -4.0951 -1.2312 -1.5804
   59MOL0     H 7945   9.773   4.100  11.542 -2.7599 -1.1629  1.0559
   59MOL0     H 7946   9.804   3.865  11.503 -0.7158  1.6828 -0.3232
   59MOL0     H 7947  10.169   3.510  11.676 -0.2310  1.8035 -1.9319
   59MOL0     H 7948  10.253   3.289  11.662 -2.0098 -2.6607  1.8934
   59MOL0     H 7949   9.613   3.637  10.864 -0.1115 -1.1676  0.5836
   59MOL0     H 7950   9.392   3.748  10.885 -0.1270 -0.6978  0.6916
   59MOL0     H 7951   8.994   3.777  11.215  0.3443  0.9452 -1.7659
   59MOL0     H 7952   8.794   3.901  11.286  1.2859  0.1860  3.1079
   59MOL0     H 7953   8.681   4.042  11.420  1.5353  2.0755 -0.0688
   59MOL0     H 7954   8.612   4.016  11.264  0.5748 -2.0915  1.4783
   59MOL0     H 7955   8.524   4.254  11.284  1.5819 -1.3221 -1.0829
   59MOL0     H 7956   8.558   4.238  11.457 -1.4722  0.5798 -0.3620
   59MOL0     H 7957   8.423   4.048  11.490 -5.7340 -0.7273  0.5468
   59MOL0     H 7958   8.382   4.044  11.319  0.7639 -1.0984  0.0883
   59MOL0     H 7959   8.315   4.304  11.476 -0.1956 -0.7250  1.3980
   59MOL0     H 7960   8.237   4.228  11.329 -1.1443 -1.1705  0.4956
   59MOL0     H 7961   8.053   4.038  11.653 -1.2451  1.3752 -0.1538
   59MOL0     H 7962   8.963   4.264  11.195  1.0495  0.3005  1.4475
   59MOL0     H 7963   9.232   4.161  11.011 -0.3810  2.2409 -1.0309
   59MOL0     H 7964   9.191   4.286  11.123 -0.1186  0.1640 -0.3460
   59MOL0     H 7965   9.310   4.161  11.168 -0.5504 -1.7877  2.7509
   60MOL0     O 7966   3.883   0.607  10.895  0.1973 -0.1442  0.4987
   60MOL0     C 7967   3.953   0.548  10.817  0.2981 -0.4745  1.0846
   60MOL0     O 7968   3.981   0.591  10.688 -0.3347  0.3993  0.4615
   60MOL0     C 7969   3.910   0.703  10.653 -0.2770 -0.8235 -0.0745
   60MOL0     C 7970   3.778   0.698  10.609  0.2273 -0.0232  0.2309
   60MOL0     C 7971   3.696   0.811  10.598  0.7716 -1.1954  0.1739
   60MOL0     C 7972   3.754   0.938  10.622 -0.4036  0.3379  0.7168
   60MOL0     O 7973   3.679   1.057  10.607 -0.0980  0.8042 -0.3552
   60MOL0     C 7974   3.586   1.050  10.510 -0.0109  0.2814  0.3007
   60MOL0     C 7975   3.540   1.192  10.457  0.3780 -0.0341 -0.3690
   60MOL0     C 7976   3.419   1.176  10.359 -0.1557 -0.3105 -1.0328
   60MOL0     C 7977   3.350   1.296  10.287  0.2831 -0.0980 -0.7861
   60MOL0     C 7978   3.306   1.407  10.390  0.4809 -0.0746  0.0908
   60MOL0     C 7979   3.224   1.524  10.322  0.0191 -0.0209 -0.4501
   60MOL0     C 7980   3.088   1.486  10.271  0.0811 -0.2652 -0.5566
   60MOL0     C 7981   2.996   1.598  10.228 -0.4961 -0.3287  0.1686
   60MOL0     N 7982   2.927   1.656  10.342  0.1015 -0.7467  0.0143
   60MOL0     C 7983   2.965   1.770  10.401 -0.4205 -0.4908  0.0078
   60MOL0     C 7984   2.876   1.787  10.503  0.7150  1.0823 -0.2015
   60MOL0     C 7985   2.866   1.919  10.576  0.5320  0.8872 -0.0919
   60MOL0     C 7986   2.788   1.903  10.706 -0.1668  0.0406  0.1750
   60MOL0     C 7987   2.830   2.014  10.797  0.2210 -0.4241  0.5364
   60MOL0     C 7988   2.799   2.144  10.730 -0.3078 -0.3990 -0.1609
   60MOL0     O 7989   2.822   2.249  10.829  0.0915 -0.8094  0.6872
   60MOL0     C 7990   2.803   2.380  10.788  0.8245 -0.1528  0.1668
   60MOL0     C 7991   2.863   2.476  10.870  0.7694 -0.0089 -0.3443
   60MOL0     C 7992   2.869   2.608  10.822 -0.8141  0.1530  0.6963
   60MOL0     C 7993   2.818   2.644  10.689  0.0616 -0.3465 -0.6507
   60MOL0     C 7994   2.810   2.781  10.645  0.4153  0.1532  0.4269
   60MOL0     O 7995   2.752   2.811  10.520 -0.2645 -0.9407  0.0152
   60MOL0     C 7996   2.786   2.926  10.465  0.1424 -0.6317  0.6296
   60MOL0     C 7997   2.699   3.030  10.484 -0.8485 -0.0353  0.3857
   60MOL0     C 7998   2.726   3.147  10.404  0.4802  0.5164  0.4928
   60MOL0     C 7999   2.834   3.159  10.312  0.1942  0.2864 -0.2147
   60MOL0     O 8000   2.854   3.271  10.232 -0.1249  0.0459  0.0143
   60MOL0     C 8001   2.737   3.311  10.160  0.6343  0.0234 -0.1672
   60MOL0     C 8002   2.752   3.280  10.019 -0.6570  0.0396 -0.6871
   60MOL0     C 8003   2.742   3.124   9.981 -0.5969  0.4305 -0.2882
   60MOL0     C 8004   2.598   3.066  10.007  0.3251 -0.1075 -0.2724
   60MOL0     C 8005   2.566   2.937   9.930  0.6137  0.7970 -0.7979
   60MOL0     C 8006   2.649   2.802   9.967  0.3115 -1.0137 -0.1035
   60MOL0     C 8007   2.651   2.783  10.115 -0.0422 -0.1375  0.9093
   60MOL0     C 8008   2.748   2.673  10.162  0.4718  0.0719 -0.3542
   60MOL0    Cl 8009   2.688   2.515  10.116  0.4211  0.1060 -0.4731
   60MOL0     C 8010   2.925   3.055  10.316 -0.4733 -0.0670  0.3956
   60MOL0     C 8011   2.897   2.944  10.386 -0.2896  0.2644 -0.1585
   60MOL0     O 8012   2.857   2.861  10.722 -1.5970 -0.6046  0.3335
   60MOL0     C 8013   2.754   2.548  10.618  0.4096  0.5911  0.4793
   60MOL0     C 8014   2.746   2.412  10.665 -0.1610 -0.3695 -0.5684
   60MOL0     N 8015   2.786   1.683  10.492 -0.3111  0.1962 -0.6517
   60MOL0     N 8016   2.819   1.604  10.403  0.0580  0.2827  0.8563
   60MOL0     C 8017   3.890   0.948  10.658  0.0148 -0.3368 -0.1745
   60MOL0     C 8018   3.965   0.827  10.681  0.4630  0.0423 -0.7216
   60MOL0     C 8019   4.019   0.415  10.867 -0.2541 -0.1725  0.2779
   60MOL0     C 8020   4.041   0.308  10.784  0.5178  1.8290 -0.5280
   60MOL0     C 8021   4.075   0.183  10.837  0.9715  0.9384 -0.7002
   60MOL0     C 8022   4.086   0.165  10.969 -0.5241  0.7177 -0.8514
   60MOL0     O 8023   4.095   0.029  11.003 -0.5944 -0.0462 -0.5006
   60MOL0     C 8024   4.093  -0.006  11.143 -0.1434 -0.2205  0.8116
   60MOL0     C 8025   4.072  -0.157  11.132 -0.3261 -0.5452 -0.2525
   60MOL0     C 8026   4.086  -0.231  11.270 -0.0925 -0.1937  0.1306
   60MOL0     C 8027   4.000  -0.349  11.272  0.4796  0.9339 -0.0620
   60MOL0     C 8028   4.054  -0.454  11.174  0.3832  0.2968 -0.0490
   60MOL0     C 8029   4.070  -0.558  11.108 -0.3857 -0.1622 -0.0081
   60MOL0     C 8030   4.094   0.279  11.048  0.0818  0.7680  0.3299
   60MOL0     C 8031   4.050   0.398  11.005  0.1834 -0.7532  0.3812
   60MOL0     C 8032   4.055   0.519  11.091 -0.3126  0.3232 -1.5613
   60MOL0     H 8033   3.736   0.602  10.579  3.2370 -0.8408 -1.8548
   60MOL0     H 8034   3.591   0.804  10.571  0.5662  1.4499  0.0303
   60MOL0     H 8035   3.620   1.001  10.418 -2.8593 -1.7278  0.1734
   60MOL0     H 8036   3.491   1.003  10.538  0.9893 -2.3719 -0.5272
   60MOL0     H 8037   3.623   1.242  10.406  1.0024 -1.1408 -0.4701
   60MOL0     H 8038   3.502   1.237  10.550 -2.4393 -2.4156 -0.2251
   60MOL0     H 8039   3.345   1.119  10.416 -0.1449  0.3067 -0.3876
   60MOL0     H 8040   3.455   1.118  10.273  0.6090  1.3148 -1.8661
   60MOL0     H 8041   3.423   1.337  10.217  0.7296  0.3402 -0.0759
   60MOL0     H 8042   3.264   1.253  10.234 -0.3132  1.4223 -1.0920
   60MOL0     H 8043   3.240   1.363  10.465 -0.0913 -0.0528 -0.3875
   60MOL0     H 8044   3.395   1.433  10.447  2.5003 -0.7713 -2.5107
   60MOL0     H 8045   3.208   1.602  10.397 -0.3753 -1.1938  0.7298
   60MOL0     H 8046   3.276   1.560  10.233 -4.4185  0.5081 -3.1375
   60MOL0     H 8047   3.028   1.430  10.343 -0.8532  2.0093  0.5073
   60MOL0     H 8048   3.101   1.427  10.179 -1.3502  0.2354 -1.0992
   60MOL0     H 8049   3.058   1.668  10.171  1.2160 -0.7185  1.4747
   60MOL0     H 8050   2.926   1.556  10.155  0.6933 -1.0841 -0.5869
   60MOL0     H 8051   3.044   1.835  10.366  0.8316 -2.5775 -1.1771
   60MOL0     H 8052   2.967   1.949  10.606  0.5271  0.2886  0.5589
   60MOL0     H 8053   2.839   1.992  10.500  0.2876  0.2861 -0.5987
   60MOL0     H 8054   2.679   1.912  10.704 -0.0759  1.8473  1.1847
   60MOL0     H 8055   2.814   1.809  10.754 -0.8202 -0.6588 -0.8028
   60MOL0     H 8056   2.939   2.015  10.809  0.4085  4.4469  0.2246
   60MOL0     H 8057   2.788   1.991  10.895  1.5205 -0.6820  1.0623
   60MOL0     H 8058   2.696   2.131  10.695 -0.6069 -1.5152  1.0732
   60MOL0     H 8059   2.866   2.157  10.645 -0.8054 -3.9594 -1.2437
   60MOL0     H 8060   2.893   2.474  10.974 -2.1521  3.2676  0.7491
   60MOL0     H 8061   2.906   2.688  10.885  0.6151 -1.0154  1.3869
   60MOL0     H 8062   2.599   3.014  10.524 -1.7071  1.9628 -0.7544
   60MOL0     H 8063   2.668   3.237  10.424 -1.6601 -0.5991 -0.3620
   60MOL0     H 8064   2.641   3.269  10.193  1.3066 -1.9196 -0.5794
   60MOL0     H 8065   2.725   3.420  10.165  1.9033  0.2743 -1.8021
   60MOL0     H 8066   2.678   3.331   9.956  0.9381  0.6968 -2.1290
   60MOL0     H 8067   2.850   3.314   9.984 -0.9537 -0.6063 -2.2444
   60MOL0     H 8068   2.772   3.114   9.876  1.2827  2.0145  0.0489
   60MOL0     H 8069   2.812   3.056  10.031 -0.1481  0.2535 -1.1434
   60MOL0     H 8070   2.513   3.132   9.987 -1.3680 -2.0828  0.1579
   60MOL0     H 8071   2.591   3.041  10.113  2.0556  2.2299  0.4826
   60MOL0     H 8072   2.593   2.964   9.828 -1.5226  2.8808 -0.9153
   60MOL0     H 8073   2.458   2.919   9.935  0.5880  1.2380  2.0095
   60MOL0     H 8074   2.608   2.709   9.925  0.5326 -1.0758 -0.1845
   60MOL0     H 8075   2.749   2.808   9.925 -0.5178  1.2744 -1.8837
   60MOL0     H 8076   2.552   2.767  10.158  1.0094  1.4306  4.3192
   60MOL0     H 8077   2.703   2.864  10.168 -1.3783  0.1979  1.7609
   60MOL0     H 8078   2.842   2.708  10.118  0.9016 -0.7216 -0.0707
   60MOL0     H 8079   2.781   2.689  10.265  2.7356  2.1711 -1.2927
   60MOL0     H 8080   3.024   3.069  10.275 -0.5658  0.1738  0.2541
   60MOL0     H 8081   2.979   2.873  10.380 -0.1860  0.4824 -1.6166
   60MOL0     H 8082   2.716   2.557  10.517 -0.1175  0.0579  0.6271
   60MOL0     H 8083   2.696   2.338  10.603  2.1627  1.1003 -4.5222
   60MOL0     H 8084   3.931   1.042  10.692  2.4264 -1.8987  1.5840
   60MOL0     H 8085   4.063   0.832  10.729 -1.0428  2.9339  2.5434
   60MOL0     H 8086   4.021   0.309  10.677  0.2786 -1.3554 -0.6061
   60MOL0     H 8087   4.089   0.101  10.768  0.0408  0.4722 -0.3525
   60MOL0     H 8088   4.002   0.034  11.188  0.1611  0.4203  0.8651
   60MOL0     H 8089   4.186   0.011  11.198  0.0881  1.4303 -0.0353
   60MOL0     H 8090   4.132  -0.199  11.051  1.4605  0.8977  0.2724
   60MOL0     H 8091   3.964  -0.159  11.112 -0.5225  1.5269  0.3789
   60MOL0     H 8092   4.053  -0.163  11.350  2.9049  1.4457  0.1109
   60MOL0     H 8093   4.189  -0.258  11.295 -0.4471  0.3439  2.3993
   60MOL0     H 8094   4.016  -0.389  11.372  0.8750  2.2189  0.4073
   60MOL0     H 8095   3.893  -0.324  11.265  0.1380 -0.2302  0.7030
   60MOL0     H 8096   4.084  -0.656  11.066  0.8232 -0.8411  1.8689
   60MOL0     H 8097   4.103   0.264  11.155 -1.5537 -3.3510  0.0897
   60MOL0     H 8098   4.125   0.495  11.171  1.6848  0.2617 -3.2405
   60MOL0     H 8099   4.114   0.599  11.045 -0.5630  1.3256 -0.2065
   60MOL0     H 8100   3.963   0.552  11.139  0.9842 -2.0346  3.1371
   61MOL0     O 8101   9.352  10.375   4.314 -0.0206  0.4171 -0.4075
   61MOL0     C 8102   9.396  10.417   4.209  0.9285  0.0175 -0.1344
   61MOL0     O 8103   9.328  10.449   4.101 -0.5253 -0.2661  0.2101
   61MOL0     C 8104   9.193  10.455   4.114  0.4207  0.4223  0.9349
   61MOL0     C 8105   9.133  10.557   4.184 -0.7529 -0.4229  0.0971
   61MOL0     C 8106   8.988  10.570   4.171 -0.8512  0.0662 -0.1773
   61MOL0     C 8107   8.908  10.475   4.112 -0.0190  0.7366 -0.0796
   61MOL0     O 8108   8.775  10.485   4.125 -0.6257  0.1612 -0.0901
   61MOL0     C 8109   8.698  10.359   4.131  0.4098  0.6497  0.0769
   61MOL0     C 8110   8.555  10.385   4.188 -0.8688 -0.5854  0.8831
   61MOL0     C 8111   8.530  10.385   4.340 -0.2983 -0.3513 -1.2075
   61MOL0     C 8112   8.388  10.369   4.388  0.7524 -0.3199  0.8425
   61MOL0     C 8113   8.368  10.361   4.539  0.4045 -0.3807  1.0686
   61MOL0     C 8114   8.237  10.289   4.568 -0.0363  0.4270 -0.2503
   61MOL0     C 8115   8.100  10.350   4.535  0.0806  0.4154  0.0160
   61MOL0     C 8116   8.099  10.504   4.544  0.1721  0.1949 -0.4056
   61MOL0     N 8117   7.969  10.556   4.590 -0.5238  0.6024 -0.0062
   61MOL0     C 8118   7.921  10.546   4.716 -0.0719 -0.8504  0.6658
   61MOL0     C 8119   7.796  10.596   4.718 -0.8161  0.6532  0.4022
   61MOL0     C 8120   7.705  10.604   4.839  0.3575  0.4276  0.0888
   61MOL0     C 8121   7.760  10.699   4.939 -0.2590 -0.4646 -0.3370
   61MOL0     C 8122   7.641  10.781   4.993  0.4949 -0.3736 -0.1126
   61MOL0     C 8123   7.677  10.845   5.132 -1.1303 -0.2631 -0.8291
   61MOL0     O 8124   7.790  10.940   5.133  0.5613  0.5222 -0.4206
   61MOL0     C 8125   7.791  11.017   5.249  0.5816  0.3454  0.5050
   61MOL0     C 8126   7.756  10.959   5.378 -0.4546  1.1366 -0.6732
   61MOL0     C 8127   7.792  11.042   5.494 -0.1965  0.4798  0.6194
   61MOL0     C 8128   7.833  11.179   5.473 -0.2167 -0.5627  0.7224
   61MOL0     C 8129   7.849  11.260   5.594  0.3564  0.0571 -0.2985
   61MOL0     O 8130   7.903  11.382   5.581 -0.0127 -0.0741  0.4492
   61MOL0     C 8131   7.895  11.471   5.690  0.9021  0.4262 -0.0341
   61MOL0     C 8132   7.767  11.524   5.720  0.3472 -0.1172  0.7403
   61MOL0     C 8133   7.743  11.607   5.830 -0.2125 -0.2470  0.2788
   61MOL0     C 8134   7.853  11.639   5.910 -0.5765 -0.8067 -0.8209
   61MOL0     O 8135   7.843  11.719   6.024  0.4354  0.1427 -0.1076
   61MOL0     C 8136   7.739  11.821   6.025  0.0080 -0.2096  0.1101
   61MOL0     C 8137   7.775  11.912   6.146  0.3308  0.4056 -0.2191
   61MOL0     C 8138   7.653  11.989   6.203 -0.9168 -0.0851 -0.2035
   61MOL0     C 8139   7.699  12.072   6.325  0.1834 -0.0089  0.6104
   61MOL0     C 8140   7.616  12.041   6.451  0.0710 -0.0484  0.0095
   61MOL0     C 8141   7.669  12.119   6.569 -0.1221 -1.1033  0.3371
   61MOL0     C 8142   7.807  12.090   6.628 -0.3731 -0.2820 -0.1981
   61MOL0     C 8143   7.834  11.939   6.672 -0.3064  0.7007  0.0141
   61MOL0    Cl 8144   7.710  11.892   6.788 -0.0938 -0.1375 -0.1147
   61MOL0     C 8145   7.972  11.584   5.886 -0.7938 -0.7091  0.8627
   61MOL0     C 8146   8.003  11.501   5.779  0.8865 -0.1635  0.4603
   61MOL0     O 8147   7.795  11.224   5.697 -0.1478  0.1610  0.1181
   61MOL0     C 8148   7.872  11.216   5.347 -0.4307  0.3507  0.3194
   61MOL0     C 8149   7.849  11.134   5.235  0.4870  1.1160 -0.5604
   61MOL0     N 8150   7.769  10.628   4.585 -0.0718  0.2098 -0.0755
   61MOL0     N 8151   7.871  10.603   4.513  0.5825 -0.2965  0.1801
   61MOL0     C 8152   8.977  10.363   4.044  0.2488 -0.8485  1.0176
   61MOL0     C 8153   9.118  10.353   4.053  0.8475 -0.3239 -0.8270
   61MOL0     C 8154   9.539  10.413   4.207  0.0604 -0.8358  0.9026
   61MOL0     C 8155   9.602  10.543   4.202  0.4177 -0.1059 -0.4988
   61MOL0     C 8156   9.740  10.551   4.194 -0.3048 -0.1182  0.5010
   61MOL0     C 8157   9.821  10.436   4.192 -0.6354  0.3479  0.0813
   61MOL0     O 8158   9.956  10.446   4.167 -0.8240  0.0824  0.4227
   61MOL0     C 8159  10.028  10.571   4.157 -0.2794 -0.0526 -0.0959
   61MOL0     C 8160  10.182  10.548   4.126  0.4031 -0.5588 -0.2236
   61MOL0     C 8161  10.242  10.448   4.233  0.2542 -0.1048  1.1124
   61MOL0     C 8162  10.388  10.429   4.223 -0.3123 -0.2004  0.1096
   61MOL0     C 8163  10.428  10.365   4.102  0.9779 -0.6277  0.3668
   61MOL0     C 8164  10.467  10.313   4.000  0.3789  0.1181 -0.5215
   61MOL0     C 8165   9.760  10.311   4.187 -0.3473 -0.7705  0.0622
   61MOL0     C 8166   9.617  10.300   4.197  0.3647  1.0178  0.4510
   61MOL0     C 8167   9.551  10.160   4.193  0.4426  0.0202  0.2623
   61MOL0     H 8168   9.193  10.635   4.228 -0.2866 -0.4240 -0.5310
   61MOL0     H 8169   8.947  10.662   4.213 -0.3269  0.5884 -0.7809
   61MOL0     H 8170   8.683  10.303   4.039  0.7625  1.4940 -0.5132
   61MOL0     H 8171   8.755  10.291   4.195 -0.2183 -0.5587 -0.6069
   61MOL0     H 8172   8.500  10.306   4.137 -0.8288  0.4422 -0.8343
   61MOL0     H 8173   8.511  10.481   4.159 -3.9337 -1.4568  2.2169
   61MOL0     H 8174   8.559  10.485   4.375 -1.4260 -0.6208  0.6288
   61MOL0     H 8175   8.597  10.312   4.387  1.1847 -1.9002 -5.3038
   61MOL0     H 8176   8.336  10.454   4.344  0.5954 -0.7840  0.1008
   61MOL0     H 8177   8.360  10.274   4.341  2.5681 -1.8671  2.7079
   61MOL0     H 8178   8.448  10.307   4.591  0.6779  1.6772  2.9160
   61MOL0     H 8179   8.367  10.460   4.585  0.7716  0.5868 -0.8925
   61MOL0     H 8180   8.250  10.188   4.529  1.8493  0.0501  1.2096
   61MOL0     H 8181   8.243  10.268   4.675  0.5292 -0.6445 -0.4732
   61MOL0     H 8182   8.022  10.315   4.602 -0.8716  0.5211 -1.0078
   61MOL0     H 8183   8.067  10.309   4.439 -1.9678 -1.7965  1.5666
   61MOL0     H 8184   8.179  10.538   4.609 -0.0444 -1.9522  1.0848
   61MOL0     H 8185   8.105  10.544   4.442 -3.0236 -0.4114 -0.9257
   61MOL0     H 8186   7.980  10.511   4.800  2.8396  0.5794 -0.6216
   61MOL0     H 8187   7.612  10.650   4.802  0.6778  1.1084  0.1150
   61MOL0     H 8188   7.687  10.504   4.879  2.3703  0.7087  1.8331
   61MOL0     H 8189   7.815  10.640   5.013  0.3944 -0.7504 -1.0386
   61MOL0     H 8190   7.836  10.764   4.896 -0.3407  1.2292  1.9035
   61MOL0     H 8191   7.560  10.712   5.019 -0.5360  0.5803 -0.7260
   61MOL0     H 8192   7.613  10.861   4.924  0.4298  0.1144  0.4700
   61MOL0     H 8193   7.696  10.758   5.195  2.7593  0.4439 -0.8124
   61MOL0     H 8194   7.585  10.889   5.171 -1.4802 -0.0537 -1.8555
   61MOL0     H 8195   7.718  10.859   5.393 -0.9879  0.9429 -2.9589
   61MOL0     H 8196   7.767  11.008   5.594 -2.8132 -2.3083 -0.8079
   61MOL0     H 8197   7.684  11.490   5.659  0.1753  0.6329  0.5442
   61MOL0     H 8198   7.644  11.644   5.857 -1.5755 -2.3930 -1.4265
   61MOL0     H 8199   7.737  11.881   5.934 -1.0716 -0.2847  0.0702
   61MOL0     H 8200   7.644  11.769   6.042 -0.4989  0.5596 -0.3358
   61MOL0     H 8201   7.814  11.844   6.222  2.3282  0.3571 -1.2380
   61MOL0     H 8202   7.855  11.967   6.096 -0.2420 -1.0300 -2.9007
   61MOL0     H 8203   7.596  12.057   6.139 -3.5670  2.0478  3.9772
   61MOL0     H 8204   7.580  11.916   6.239 -0.7084  0.1517  0.7261
   61MOL0     H 8205   7.689  12.177   6.295 -1.4607 -0.5980 -1.0904
   61MOL0     H 8206   7.803  12.049   6.352  0.4791  1.2431  0.6146
   61MOL0     H 8207   7.615  11.933   6.467  2.3968 -0.3878 -1.5636
   61MOL0     H 8208   7.515  12.066   6.419 -1.0736 -3.1377  0.8425
   61MOL0     H 8209   7.673  12.224   6.538 -0.2769 -0.4763  2.3340
   61MOL0     H 8210   7.601  12.110   6.654 -3.4905 -1.3879 -2.1410
   61MOL0     H 8211   7.824  12.159   6.711 -0.7765 -1.1764  0.6422
   61MOL0     H 8212   7.890  12.117   6.562  0.7220  1.8550  1.9372
   61MOL0     H 8213   7.841  11.868   6.589  2.8507 -0.4263  1.1288
   61MOL0     H 8214   7.937  11.936   6.709  0.5384  3.5804 -1.7760
   61MOL0     H 8215   8.056  11.615   5.947  0.3783 -1.8032 -0.1563
   61MOL0     H 8216   8.102  11.462   5.758  0.7323 -0.2350 -0.1824
   61MOL0     H 8217   7.924  11.311   5.338 -1.6086  1.1056  1.3025
   61MOL0     H 8218   7.884  11.166   5.138  0.5084 -0.7610 -1.2225
   61MOL0     H 8219   8.918  10.295   3.984 -1.3854 -1.1697  2.8574
   61MOL0     H 8220   9.176  10.278   4.001  1.9674  0.9126 -1.4337
   61MOL0     H 8221   9.545  10.635   4.209  0.4234 -0.2367  2.2060
   61MOL0     H 8222   9.789  10.647   4.180  0.1698 -0.5804 -1.2768
   61MOL0     H 8223  10.024  10.624   4.253 -1.3861 -2.9937  1.5949
   61MOL0     H 8224   9.979  10.635   4.083 -1.1890 -0.2589  0.3177
   61MOL0     H 8225  10.211  10.652   4.149 -1.7290  0.0053  0.1566
   61MOL0     H 8226  10.209  10.530   4.022  0.5858 -0.9422 -0.1103
   61MOL0     H 8227  10.203  10.352   4.197 -0.7091  0.8263 -0.4293
   61MOL0     H 8228  10.216  10.468   4.337  0.4912  1.7841  0.8439
   61MOL0     H 8229  10.434  10.528   4.230 -1.1589  0.3788 -1.8980
   61MOL0     H 8230  10.419  10.373   4.312  1.3519  0.1747 -0.1996
   61MOL0     H 8231  10.505  10.269   3.911 -2.9544 -2.3833 -0.9080
   61MOL0     H 8232   9.818  10.219   4.178 -2.0380 -1.7151 -2.3331
   61MOL0     H 8233   9.515  10.130   4.094 -0.3647 -2.5680  1.2426
   61MOL0     H 8234   9.623  10.090   4.237  0.9593  0.9796  0.9722
   61MOL0     H 8235   9.457  10.168   4.248  0.4519  1.5258  0.0891
   62MOL0     O 8236  10.148   2.594   8.288  0.6039  0.1114 -0.4598
   62MOL0     C 8237  10.068   2.626   8.194 -0.8561  0.3684 -0.6452
   62MOL0     O 8238   9.951   2.566   8.167  0.1382  0.0556 -0.7450
   62MOL0     C 8239   9.881   2.529   8.271 -0.0747  0.2744 -0.0278
   62MOL0     C 8240   9.768   2.599   8.302 -0.8941 -0.4002  0.5609
   62MOL0     C 8241   9.698   2.564   8.417 -1.0550 -0.0239  0.2989
   62MOL0     C 8242   9.728   2.461   8.508 -1.2012 -0.1318  0.1457
   62MOL0     O 8243   9.657   2.426   8.627  0.3990 -0.2237 -0.2476
   62MOL0     C 8244   9.559   2.525   8.677 -1.0127  0.6561  0.3734
   62MOL0     C 8245   9.516   2.496   8.827  0.2171  0.0353 -0.0086
   62MOL0     C 8246   9.624   2.518   8.935 -0.7680 -0.3700 -1.0265
   62MOL0     C 8247   9.546   2.562   9.067 -0.2905 -0.4065 -0.6751
   62MOL0     C 8248   9.641   2.568   9.188 -1.0528  0.1977 -0.2022
   62MOL0     C 8249   9.758   2.667   9.181  0.0151 -0.0164 -1.0248
   62MOL0     C 8250   9.832   2.661   9.323 -0.8572  0.3722  0.8820
   62MOL0     C 8251   9.761   2.762   9.400  0.4700 -0.1890 -0.1186
   62MOL0     N 8252   9.830   2.783   9.534  0.1939  0.5479  0.2003
   62MOL0     C 8253   9.959   2.753   9.576  0.6083 -0.5359 -0.0653
   62MOL0     C 8254   9.970   2.810   9.696 -0.2826  0.3074  0.3120
   62MOL0     C 8255  10.093   2.815   9.782  0.2002 -1.0669  0.0747
   62MOL0     C 8256  10.156   2.952   9.757  0.5495 -0.0139 -1.0315
   62MOL0     C 8257  10.286   2.954   9.831  0.1262  0.7105 -1.1066
   62MOL0     C 8258  10.267   2.988   9.983  0.2747 -0.1784 -0.0194
   62MOL0     O 8259  10.184   3.109  10.005 -0.7241  0.3953  0.8988
   62MOL0     C 8260  10.239   3.234  10.032  0.6517 -0.1314  0.3678
   62MOL0     C 8261  10.373   3.258  10.046 -0.3622 -0.3203 -0.2697
   62MOL0     C 8262  10.410   3.390  10.075  0.3355  0.6415 -0.2164
   62MOL0     C 8263  10.314   3.496  10.098 -1.0383 -1.1621 -0.1375
   62MOL0     C 8264  10.347   3.631  10.147 -0.5383  0.0963  0.0655
   62MOL0     O 8265  10.248   3.728  10.149  0.4243 -0.5248  0.3289
   62MOL0     C 8266  10.275   3.851  10.201  0.3207 -0.1092  0.2477
   62MOL0     C 8267  10.327   3.951  10.117 -1.0576  0.2878 -0.7284
   62MOL0     C 8268  10.348   4.078  10.167 -0.1240 -0.8778 -0.5316
   62MOL0     C 8269  10.333   4.110  10.300  0.7386 -0.0419 -0.0314
   62MOL0     O 8270  10.365   4.235  10.357 -0.3367  0.3715  0.5736
   62MOL0     C 8271  10.408   4.343  10.277 -0.1154 -0.0661 -0.2048
   62MOL0     C 8272  10.297   4.418  10.207 -0.0551 -0.4625  1.4203
   62MOL0     C 8273  10.192   4.474  10.290 -0.1658 -0.2561 -0.1876
   62MOL0     C 8274  10.118   4.579  10.221  0.2164 -1.2599 -0.9380
   62MOL0     C 8275  10.004   4.642  10.301 -0.5954 -0.1200 -0.4701
   62MOL0     C 8276   9.977   4.784  10.243 -0.3492  0.1801 -0.8406
   62MOL0     C 8277   9.852   4.864  10.308 -0.2130  0.1482 -0.3920
   62MOL0     C 8278   9.849   5.014  10.269  0.1493  0.0628  0.5490
   62MOL0    Cl 8279   9.846   5.048  10.093 -0.3151 -0.1262  0.3443
   62MOL0     C 8280  10.293   4.005  10.391 -1.1977 -0.1668  0.1821
   62MOL0     C 8281  10.259   3.876  10.336  0.1272 -0.1419 -0.5510
   62MOL0     O 8282  10.466   3.651  10.183  0.4495 -0.3244  0.0820
   62MOL0     C 8283  10.180   3.468  10.078 -0.4191 -0.4906  0.2670
   62MOL0     C 8284  10.143   3.333  10.056  0.1647 -0.4022 -0.4898
   62MOL0     N 8285   9.854   2.879   9.729  0.2344 -0.9922 -0.1035
   62MOL0     N 8286   9.771   2.863   9.624  0.1129  0.2997 -0.4986
   62MOL0     C 8287   9.842   2.383   8.466 -0.4910 -0.0345 -0.9340
   62MOL0     C 8288   9.914   2.414   8.348  0.3207 -0.0198 -0.0317
   62MOL0     C 8289  10.107   2.739   8.099  0.4950 -0.4457 -1.2042
   62MOL0     C 8290  10.224   2.726   8.019 -0.1599  0.3227 -0.1924
   62MOL0     C 8291  10.262   2.845   7.946 -0.5733 -0.4114  0.8260
   62MOL0     C 8292  10.181   2.961   7.929  0.1963  0.3256 -0.1366
   62MOL0     O 8293  10.219   3.048   7.836  0.0922  0.6346  0.1408
   62MOL0     C 8294  10.172   3.181   7.842 -0.5875  0.1100 -0.0344
   62MOL0     C 8295  10.252   3.277   7.758  0.0740  1.4167  0.0734
   62MOL0     C 8296  10.408   3.289   7.790  0.8854  0.7847  0.2997
   62MOL0     C 8297  10.430   3.375   7.911  0.7135 -0.3975 -0.8012
   62MOL0     C 8298  10.570   3.389   7.951 -0.2526  0.9402  0.6936
   62MOL0     C 8299  10.688   3.387   7.970  0.5341 -0.8128 -0.4671
   62MOL0     C 8300  10.066   2.964   8.006 -0.2199 -0.1648  0.8240
   62MOL0     C 8301  10.034   2.859   8.089  1.1646 -0.7263 -0.9314
   62MOL0     C 8302   9.923   2.893   8.178  0.2326  0.3222  0.3284
   62MOL0     H 8303   9.719   2.685   8.257  1.0226  0.1812 -0.5427
   62MOL0     H 8304   9.602   2.614   8.423 -1.8302 -1.5205  0.8411
   62MOL0     H 8305   9.615   2.619   8.669  2.5413 -1.1765  1.4550
   62MOL0     H 8306   9.474   2.516   8.610 -1.4349  1.1279  0.8354
   62MOL0     H 8307   9.489   2.391   8.821  2.1492 -0.3862 -2.8345
   62MOL0     H 8308   9.435   2.567   8.849  0.4335  0.9805 -2.0586
   62MOL0     H 8309   9.700   2.588   8.899 -2.0493  1.5931 -0.0833
   62MOL0     H 8310   9.678   2.429   8.967  0.2941  0.9853  1.1665
   62MOL0     H 8311   9.508   2.665   9.067  1.1572  0.1792  1.3567
   62MOL0     H 8312   9.476   2.484   9.098  1.3625 -1.0641  1.6270
   62MOL0     H 8313   9.582   2.605   9.272 -0.7624 -1.1086  0.5959
   62MOL0     H 8314   9.680   2.471   9.218 -0.8729  0.7293  1.3915
   62MOL0     H 8315   9.832   2.645   9.104  1.6923 -0.4857  0.6575
   62MOL0     H 8316   9.720   2.768   9.164  2.7612  0.8991 -2.1954
   62MOL0     H 8317   9.938   2.682   9.307 -0.2152 -2.5778  0.5443
   62MOL0     H 8318   9.825   2.559   9.364 -3.1778  0.0047 -0.2374
   62MOL0     H 8319   9.767   2.858   9.348 -1.5843  0.2429  0.3552
   62MOL0     H 8320   9.657   2.734   9.420  0.1183  1.6952  0.9824
   62MOL0     H 8321  10.030   2.684   9.533  0.8068  0.2669 -1.0606
   62MOL0     H 8322  10.065   2.804   9.887 -2.4857  0.3206 -0.3911
   62MOL0     H 8323  10.161   2.736   9.750  1.0133 -0.2043 -0.4049
   62MOL0     H 8324  10.176   2.960   9.650  0.1455  0.3263 -1.0880
   62MOL0     H 8325  10.083   3.028   9.789  0.4539 -0.7848  0.6829
   62MOL0     H 8326  10.351   3.031   9.788  3.9073 -1.4736  0.1757
   62MOL0     H 8327  10.338   2.858   9.822 -0.6135  0.1357  0.3769
   62MOL0     H 8328  10.362   2.988  10.036  0.8161  1.6881 -0.9186
   62MOL0     H 8329  10.216   2.902  10.027  1.2240  0.9639  3.6795
   62MOL0     H 8330  10.458   3.191  10.059  1.4707  2.1409  1.1773
   62MOL0     H 8331  10.514   3.409  10.103  0.2970  0.9921 -0.2990
   62MOL0     H 8332  10.352   3.924  10.015  3.7499  3.7634 -0.7910
   62MOL0     H 8333  10.368   4.164  10.105 -2.6970  0.5604  0.5040
   62MOL0     H 8334  10.464   4.410  10.343  1.2028  0.6383 -1.9522
   62MOL0     H 8335  10.477   4.309  10.199  0.5018  3.1210 -1.1934
   62MOL0     H 8336  10.345   4.492  10.142  1.1760 -0.2423  2.5319
   62MOL0     H 8337  10.249   4.346  10.140 -2.9478 -1.5803  4.4388
   62MOL0     H 8338  10.115   4.399  10.307  1.8385 -2.4052 -0.1087
   62MOL0     H 8339  10.250   4.502  10.379  0.4416 -1.3131 -0.2405
   62MOL0     H 8340  10.069   4.546  10.129 -0.7038 -1.8425 -0.2468
   62MOL0     H 8341  10.183   4.659  10.183 -1.1917  0.5884  0.3514
   62MOL0     H 8342  10.044   4.653  10.402  0.2727  0.7975 -0.8972
   62MOL0     H 8343   9.911   4.585  10.311 -1.9158  1.8252 -1.0747
   62MOL0     H 8344  10.066   4.845  10.258 -0.8530  0.9356 -0.8819
   62MOL0     H 8345   9.953   4.767  10.137  0.0200 -0.0219 -0.8938
   62MOL0     H 8346   9.846   4.860  10.418  0.0786  1.5535 -0.3091
   62MOL0     H 8347   9.755   4.822  10.278 -0.7419  0.6376  0.5547
   62MOL0     H 8348   9.777   5.072  10.327  2.0863  1.8888  1.2896
   62MOL0     H 8349   9.941   5.057  10.309  0.8751 -1.2734  0.3713
   62MOL0     H 8350  10.283   4.036  10.495  2.4538  1.2969  0.2284
   62MOL0     H 8351  10.225   3.797  10.404  1.3057 -1.4782 -1.4615
   62MOL0     H 8352  10.103   3.545  10.082  1.1707  1.1415  1.0742
   62MOL0     H 8353  10.036   3.314  10.057  0.6584 -3.7631 -1.4805
   62MOL0     H 8354   9.870   2.299   8.528 -0.6583 -0.3118 -1.2275
   62MOL0     H 8355  10.001   2.366   8.304  0.5212 -1.3419  1.7081
   62MOL0     H 8356  10.301   2.650   8.030  0.1595  0.4777 -1.2884
   62MOL0     H 8357  10.351   2.832   7.885  0.8636 -0.0016  2.7672
   62MOL0     H 8358  10.171   3.214   7.946 -1.8586  3.2192 -0.9153
   62MOL0     H 8359  10.066   3.192   7.814 -0.5197 -0.3373 -0.4779
   62MOL0     H 8360  10.201   3.373   7.766  0.0248  1.3645  0.4040
   62MOL0     H 8361  10.259   3.238   7.656  0.5885  0.6181  0.4033
   62MOL0     H 8362  10.435   3.344   7.699 -2.9246 -0.5926 -1.9111
   62MOL0     H 8363  10.466   3.197   7.791  2.0856  1.4991  2.5375
   62MOL0     H 8364  10.402   3.480   7.900 -0.0984 -0.5082  0.0705
   62MOL0     H 8365  10.372   3.342   7.998  1.5342  0.0583 -0.0634
   62MOL0     H 8366  10.793   3.380   7.989  0.6025  1.1053  0.0153
   62MOL0     H 8367  10.003   3.052   8.006  0.4178  0.3025  1.7618
   62MOL0     H 8368   9.912   2.830   8.267 -1.7321  0.4892  0.2438
   62MOL0     H 8369   9.932   2.994   8.218  0.9870  1.0817 -1.6275
   62MOL0     H 8370   9.826   2.886   8.129 -0.8739 -1.6401  2.5834
   63MOL0     O 8371   7.912   6.881   9.703  0.1790  0.3868  0.5652
   63MOL0     C 8372   7.929   6.995   9.747 -0.1932 -0.1826  0.1506
   63MOL0     O 8373   7.953   7.026   9.881 -0.0434 -0.5958  0.1567
   63MOL0     C 8374   7.951   6.927   9.972 -0.1764 -0.3858 -0.7412
   63MOL0     C 8375   7.847   6.833   9.983  0.5057  0.4352  0.7041
   63MOL0     C 8376   7.854   6.719  10.072  0.0178 -1.0540 -0.4175
   63MOL0     C 8377   7.954   6.712  10.161 -0.3582 -0.2044  0.0299
   63MOL0     O 8378   7.977   6.616  10.254  0.5779  0.4634 -1.1542
   63MOL0     C 8379   7.870   6.539  10.312  0.1171 -0.6602 -1.0666
   63MOL0     C 8380   7.905   6.477  10.443  0.0978 -0.3467 -0.0908
   63MOL0     C 8381   7.985   6.348  10.417  0.2320 -0.7996  1.0341
   63MOL0     C 8382   8.027   6.284  10.539 -0.5249  0.9246 -0.2452
   63MOL0     C 8383   8.089   6.148  10.508  0.5446 -0.6263 -0.1884
   63MOL0     C 8384   8.147   6.090  10.647  0.3260  0.0153  0.2548
   63MOL0     C 8385   8.190   5.935  10.628  0.5972  0.4980  0.4990
   63MOL0     C 8386   8.280   5.872  10.737  0.3606 -0.3979 -0.1042
   63MOL0     N 8387   8.234   5.922  10.873  0.8175  0.6926  1.0932
   63MOL0     C 8388   8.323   5.992  10.947 -0.4946  0.2554 -0.5705
   63MOL0     C 8389   8.264   5.994  11.070 -0.1290 -0.9448  0.5805
   63MOL0     C 8390   8.320   6.064  11.192  0.7617 -0.1827  0.6260
   63MOL0     C 8391   8.409   5.970  11.258 -0.2107  0.7227 -0.6704
   63MOL0     C 8392   8.462   6.030  11.397  0.1827  0.0437  0.4821
   63MOL0     C 8393   8.582   5.942  11.450 -0.2132  0.6575 -0.0600
   63MOL0     O 8394   8.541   5.804  11.484  0.8229 -0.2329  0.2726
   63MOL0     C 8395   8.605   5.747  11.596 -0.1067  0.6317  0.2196
   63MOL0     C 8396   8.744   5.727  11.604 -0.8452 -0.2044  0.2407
   63MOL0     C 8397   8.809   5.653  11.718 -1.3783  0.0714  0.0230
   63MOL0     C 8398   8.721   5.590  11.815 -1.0406  0.6093 -0.4352
   63MOL0     C 8399   8.776   5.511  11.929  0.0222  0.2262  0.0892
   63MOL0     O 8400   8.910   5.481  11.925 -0.1843 -0.6212 -0.1831
   63MOL0     C 8401   8.957   5.384  12.013 -0.7934  0.0431 -0.3485
   63MOL0     C 8402   9.069   5.422  12.095 -0.2024 -0.3073 -1.0745
   63MOL0     C 8403   9.133   5.319  12.175  0.4738  0.6061 -0.4465
   63MOL0     C 8404   9.075   5.188  12.184 -0.7351 -0.1447  0.0528
   63MOL0     O 8405   9.121   5.104  12.286  1.2432 -1.2447 -0.7349
   63MOL0     C 8406   9.084   4.968  12.290 -0.8665  0.5411  0.1505
   63MOL0     C 8407   9.183   4.895  12.190  0.2723 -0.8482 -0.1259
   63MOL0     C 8408   9.163   4.743  12.200 -0.7847  0.5279 -0.3630
   63MOL0     C 8409   9.294   4.674  12.152  0.3839  0.7853 -0.4006
   63MOL0     C 8410   9.344   4.734  12.019 -0.5446  0.2780 -0.3759
   63MOL0     C 8411   9.453   4.655  11.952 -0.1570  0.3434  0.2451
   63MOL0     C 8412   9.524   4.748  11.858 -0.3041  0.2213  0.4615
   63MOL0     C 8413   9.448   4.794  11.733 -0.0705  0.0399  0.4998
   63MOL0    Cl 8414   9.554   4.845  11.595  0.0149  0.1209 -0.1469
   63MOL0     C 8415   8.969   5.151  12.100 -0.7046 -0.7652  0.3129
   63MOL0     C 8416   8.915   5.247  12.017 -0.6618 -0.1714  1.3250
   63MOL0     O 8417   8.700   5.487  12.028  0.2419 -0.6077  0.7498
   63MOL0     C 8418   8.583   5.616  11.804 -0.0305 -0.5283 -0.1066
   63MOL0     C 8419   8.529   5.682  11.693 -0.6700 -0.5200  0.4319
   63MOL0     N 8420   8.166   5.901  11.074 -0.3709 -0.6458  0.0999
   63MOL0     N 8421   8.147   5.861  10.952  0.2713 -0.0129 -0.5924
   63MOL0     C 8422   8.065   6.800  10.147  0.1133  1.3944  0.8273
   63MOL0     C 8423   8.059   6.915  10.063 -0.1580  0.4463 -0.1123
   63MOL0     C 8424   7.924   7.112   9.659 -0.7726 -0.1254 -0.3471
   63MOL0     C 8425   7.864   7.101   9.535  1.1297 -0.5227  0.5449
   63MOL0     C 8426   7.854   7.211   9.454  0.5790 -0.5276 -0.2983
   63MOL0     C 8427   7.927   7.333   9.476 -0.9676  0.4324 -0.1301
   63MOL0     O 8428   7.942   7.416   9.370 -0.0709 -0.5560  0.1257
   63MOL0     C 8429   8.034   7.524   9.383 -0.7329  0.7785  1.0565
   63MOL0     C 8430   8.037   7.616   9.265  0.1655 -0.5370 -0.8269
   63MOL0     C 8431   7.906   7.708   9.263  0.6476 -0.4899 -0.0078
   63MOL0     C 8432   7.873   7.748   9.115 -0.6880 -0.2713 -0.2372
   63MOL0     C 8433   7.726   7.759   9.090  0.0976 -0.1102 -0.6943
   63MOL0     C 8434   7.607   7.775   9.069  0.4789 -0.3843 -0.1789
   63MOL0     C 8435   7.997   7.342   9.597  0.1020 -0.2841  0.0223
   63MOL0     C 8436   7.996   7.238   9.689  0.0001  0.6977  0.5853
   63MOL0     C 8437   8.097   7.264   9.795  0.0506  0.1171  0.0990
   63MOL0     H 8438   7.765   6.853   9.914 -0.5487  1.9837  2.3219
   63MOL0     H 8439   7.784   6.636  10.069  2.9273 -3.8543  1.9399
   63MOL0     H 8440   7.788   6.607  10.336  1.0204 -0.7671  2.9048
   63MOL0     H 8441   7.839   6.459  10.244 -0.0153 -1.0414 -0.5632
   63MOL0     H 8442   7.811   6.448  10.490  0.0425  1.3382  0.9083
   63MOL0     H 8443   7.965   6.544  10.505  2.0239 -1.8699 -0.2096
   63MOL0     H 8444   8.065   6.372  10.346 -1.8188  2.9892 -0.2632
   63MOL0     H 8445   7.911   6.284  10.368  0.7855 -0.7897  0.1715
   63MOL0     H 8446   8.106   6.343  10.587 -1.3500  2.1188 -0.2971
   63MOL0     H 8447   7.941   6.255  10.600 -3.6002  0.4068 -4.3955
   63MOL0     H 8448   8.002   6.091  10.474 -0.8413 -0.5641  2.9098
   63MOL0     H 8449   8.170   6.147  10.435  0.7267 -0.2795  0.0078
   63MOL0     H 8450   8.226   6.161  10.674 -1.7037  2.0046  1.2363
   63MOL0     H 8451   8.070   6.089  10.724 -0.8520 -2.5608 -0.8298
   63MOL0     H 8452   8.243   5.920  10.534  0.3482 -0.6993  0.5274
   63MOL0     H 8453   8.092   5.886  10.620  0.6900  0.5797 -1.7962
   63MOL0     H 8454   8.264   5.764  10.741 -1.3795 -0.1797 -0.3371
   63MOL0     H 8455   8.386   5.897  10.734  0.2366  0.5571  1.8519
   63MOL0     H 8456   8.414   6.047  10.924  0.4903 -0.8908  0.4862
   63MOL0     H 8457   8.377   6.153  11.162  0.9729  0.1245  1.9066
   63MOL0     H 8458   8.236   6.091  11.256 -0.1711  0.7682 -0.9167
   63MOL0     H 8459   8.365   5.874  11.288 -1.0507  1.1771 -0.3997
   63MOL0     H 8460   8.495   5.952  11.194  0.1770 -0.1070  0.0648
   63MOL0     H 8461   8.391   6.039  11.480  0.2352  3.0559  0.3064
   63MOL0     H 8462   8.488   6.133  11.373 -0.2005 -0.3558 -2.0094
   63MOL0     H 8463   8.606   5.994  11.543  0.7897  0.5869 -0.2623
   63MOL0     H 8464   8.676   5.936  11.395  1.6738 -1.7703  3.0913
   63MOL0     H 8465   8.809   5.755  11.521  2.8128 -2.3614  2.1027
   63MOL0     H 8466   8.916   5.633  11.723 -1.6812 -1.9414 -0.8306
   63MOL0     H 8467   9.092   5.527  12.106 -1.8476  0.0993 -1.2595
   63MOL0     H 8468   9.211   5.344  12.246 -0.3818 -1.1377  1.1953
   63MOL0     H 8469   9.114   4.943  12.392  1.3884  3.3767  0.3515
   63MOL0     H 8470   8.979   4.942  12.281 -0.8791  0.6121  0.0806
   63MOL0     H 8471   9.148   4.917  12.089  0.6269 -0.4530 -0.1685
   63MOL0     H 8472   9.281   4.944  12.201 -1.0315  2.2322 -1.1465
   63MOL0     H 8473   9.133   4.707  12.299 -0.3515 -0.6474 -0.6420
   63MOL0     H 8474   9.082   4.716  12.133 -2.0595  0.3076  1.2121
   63MOL0     H 8475   9.276   4.566  12.151 -1.7733  1.1063 -2.0123
   63MOL0     H 8476   9.370   4.697  12.227 -0.5092  2.9402 -0.0979
   63MOL0     H 8477   9.397   4.829  12.032 -0.5468  0.6100 -2.4588
   63MOL0     H 8478   9.258   4.747  11.954 -0.5983 -2.6009 -1.0170
   63MOL0     H 8479   9.520   4.613  12.028  0.0218 -1.7818 -1.0370
   63MOL0     H 8480   9.408   4.574  11.895 -1.9153  1.5271 -0.1321
   63MOL0     H 8481   9.609   4.689  11.820  0.1623  0.4241  1.1597
   63MOL0     H 8482   9.569   4.824  11.922  3.2308 -2.3615  1.3779
   63MOL0     H 8483   9.367   4.725  11.705 -0.8071  1.4343 -0.9868
   63MOL0     H 8484   9.388   4.881  11.761 -2.5577 -1.6986  0.8461
   63MOL0     H 8485   8.919   5.057  12.120 -0.2250 -0.9861  0.4856
   63MOL0     H 8486   8.828   5.223  11.957  0.9304  0.9384 -1.6765
   63MOL0     H 8487   8.518   5.576  11.882 -0.2182 -0.5946 -0.2960
   63MOL0     H 8488   8.424   5.703  11.710  0.5218  4.9478  3.8219
   63MOL0     H 8489   8.165   6.798  10.189 -0.1540  1.7217  1.4894
   63MOL0     H 8490   8.144   6.983  10.064 -0.6330  1.0774  2.1656
   63MOL0     H 8491   7.813   7.012   9.500  1.5573 -0.9964  1.0936
   63MOL0     H 8492   7.807   7.199   9.357 -0.3358  1.3498 -0.1439
   63MOL0     H 8493   8.139   7.496   9.392  1.1980  5.7583 -1.7546
   63MOL0     H 8494   8.014   7.583   9.473 -1.5915  1.3606  0.5031
   63MOL0     H 8495   8.051   7.557   9.174  1.8458  2.1993 -2.4908
   63MOL0     H 8496   8.126   7.679   9.271  0.3127  0.1374 -6.1222
   63MOL0     H 8497   7.923   7.798   9.324  1.1075 -0.7171  0.2045
   63MOL0     H 8498   7.817   7.661   9.305 -1.0440  1.8689 -0.7407
   63MOL0     H 8499   7.925   7.842   9.094  1.0741 -1.3841 -1.1030
   63MOL0     H 8500   7.923   7.673   9.053  1.0231  1.0727 -0.5801
   63MOL0     H 8501   7.513   7.782   9.019 -0.0190 -0.6039  0.6951
   63MOL0     H 8502   8.053   7.433   9.617 -0.3283 -0.2234  1.0053
   63MOL0     H 8503   8.052   7.255   9.895  0.6286  0.3805  0.3881
   63MOL0     H 8504   8.181   7.196   9.785  0.6623  1.1611 -2.8471
   63MOL0     H 8505   8.144   7.362   9.782  2.0201 -0.7509  0.4293
   64MOL0     O 8506   6.573  10.136   2.960  0.2920 -0.5763 -0.1625
   64MOL0     C 8507   6.618  10.024   2.948  0.8642  0.3990  0.1196
   64MOL0     O 8508   6.747   9.981   2.977  0.5540  0.3210  0.0849
   64MOL0     C 8509   6.830  10.068   3.047 -0.3708  0.3059  0.3813
   64MOL0     C 8510   6.963  10.076   3.006  0.7991  0.3888  0.6024
   64MOL0     C 8511   7.051  10.163   3.062 -0.0305 -1.6693  0.5844
   64MOL0     C 8512   7.009  10.227   3.181  0.1456  0.2768 -0.1948
   64MOL0     O 8513   7.097  10.314   3.244  0.5856 -0.2582 -0.1260
   64MOL0     C 8514   7.097  10.310   3.385  0.2516  0.7260  0.9428
   64MOL0     C 8515   7.240  10.321   3.440  0.3793  0.2805 -0.7480
   64MOL0     C 8516   7.279  10.473   3.427  0.2504 -0.3833 -0.8736
   64MOL0     C 8517   7.216  10.556   3.538  0.1315 -0.7521 -0.6300
   64MOL0     C 8518   7.277  10.698   3.543 -0.1047 -0.4398  0.1320
   64MOL0     C 8519   7.418  10.703   3.608 -0.8118 -0.3221  0.9433
   64MOL0     C 8520   7.476  10.849   3.635  0.5308  0.0588  0.7354
   64MOL0     C 8521   7.478  10.946   3.515  0.0856  1.4008  0.6287
   64MOL0     N 8522   7.610  11.007   3.485  0.3340 -0.3542  0.0064
   64MOL0     C 8523   7.684  10.958   3.386  0.0493  0.0220  0.1300
   64MOL0     C 8524   7.779  11.056   3.367  0.2424  0.8119 -0.4520
   64MOL0     C 8525   7.892  11.066   3.264  0.2161 -0.1554 -0.3858
   64MOL0     C 8526   7.892  11.200   3.189 -0.7103  0.8882 -0.5404
   64MOL0     C 8527   8.022  11.216   3.117  0.9036  0.5416 -0.4439
   64MOL0     C 8528   8.037  11.365   3.086 -0.2854  0.3264  0.7453
   64MOL0     O 8529   8.150  11.361   2.997 -0.0645 -0.1935  0.1447
   64MOL0     C 8530   8.209  11.484   2.970 -0.7403  0.4952  0.1237
   64MOL0     C 8531   8.158  11.608   3.019  0.1953 -0.4311 -0.3705
   64MOL0     C 8532   8.230  11.724   3.003  0.4817  0.0780  0.9617
   64MOL0     C 8533   8.352  11.726   2.925  0.5018 -0.0258  0.1082
   64MOL0     C 8534   8.439  11.852   2.903  0.0883  0.1006 -0.1125
   64MOL0     O 8535   8.368  11.974   2.907 -0.1552 -0.5473  0.2179
   64MOL0     C 8536   8.414  12.102   2.908  0.0710 -0.0829  0.1662
   64MOL0     C 8537   8.306  12.198   2.919 -0.4737  0.2754 -0.2102
   64MOL0     C 8538   8.331  12.336   2.924  0.7425 -0.0797  0.8566
   64MOL0     C 8539   8.462  12.378   2.909  0.0400 -0.2226  1.0406
   64MOL0     O 8540   8.473  12.512   2.905 -0.2017  0.1009 -0.0413
   64MOL0     C 8541   8.605  12.570   2.926 -0.9917  0.0718 -0.2948
   64MOL0     C 8542   8.581  12.718   2.928 -0.5694 -0.1561 -0.2089
   64MOL0     C 8543   8.528  12.782   2.797  0.0421 -0.8571 -0.5070
   64MOL0     C 8544   8.485  12.927   2.802 -0.1927 -0.0165 -0.0093
   64MOL0     C 8545   8.598  13.029   2.821 -0.1718  0.0116 -0.2410
   64MOL0     C 8546   8.547  13.174   2.841  0.5141  0.8344  0.2868
   64MOL0     C 8547   8.660  13.275   2.876 -0.0720  0.5059  0.1242
   64MOL0     C 8548   8.625  13.422   2.859 -0.0018 -1.3579  0.1817
   64MOL0    Cl 8549   8.718  13.520   2.988  0.4529 -0.0782  1.0826
   64MOL0     C 8550   8.571  12.281   2.900 -0.1592  1.1055 -0.4353
   64MOL0     C 8551   8.546  12.143   2.899 -0.7285 -0.3228  0.7070
   64MOL0     O 8552   8.561  11.841   2.894  0.4336 -0.2634 -0.4061
   64MOL0     C 8553   8.397  11.608   2.867 -0.6642 -0.3698 -0.4277
   64MOL0     C 8554   8.324  11.494   2.882 -0.0441  0.0628 -0.0103
   64MOL0     N 8555   7.761  11.147   3.471  0.3620 -0.1280  0.1165
   64MOL0     N 8556   7.658  11.116   3.549  0.6834 -0.1735 -0.2296
   64MOL0     C 8557   6.873  10.209   3.235  0.5516 -0.1719 -0.0577
   64MOL0     C 8558   6.784  10.124   3.167  0.5906 -0.6148 -0.3468
   64MOL0     C 8559   6.516   9.920   2.883  0.2584 -0.9228 -0.3731
   64MOL0     C 8560   6.391   9.964   2.846  0.9029  0.0981  0.8355
   64MOL0     C 8561   6.294   9.884   2.788  0.2848 -0.4496 -0.0864
   64MOL0     C 8562   6.324   9.751   2.753  0.2984 -0.5068  0.0824
   64MOL0     O 8563   6.239   9.660   2.691  0.0877  0.1033 -0.0300
   64MOL0     C 8564   6.106   9.701   2.667 -0.1547  0.2782  0.9514
   64MOL0     C 8565   6.014   9.589   2.615 -0.3105 -0.0002 -0.4429
   64MOL0     C 8566   6.077   9.524   2.494 -0.3085 -0.5316 -0.2559
   64MOL0     C 8567   5.979   9.459   2.397  1.8104 -0.1642 -0.5005
   64MOL0     C 8568   6.036   9.358   2.313 -0.3850 -0.3472 -0.2894
   64MOL0     C 8569   6.074   9.284   2.224 -0.2921  0.0927 -0.1222
   64MOL0     C 8570   6.446   9.699   2.783  0.0255 -0.4470  1.1434
   64MOL0     C 8571   6.545   9.780   2.842  0.8713  0.9313 -0.9675
   64MOL0     C 8572   6.680   9.716   2.875  1.5018  0.4861  0.6092
   64MOL0     H 8573   6.996  10.018   2.920 -0.8317 -0.9969  0.8666
   64MOL0     H 8574   7.151  10.184   3.027 -0.4444  1.7174  1.0825
   64MOL0     H 8575   7.028  10.386   3.423 -1.6242 -0.8487  0.9044
   64MOL0     H 8576   7.058  10.214   3.422 -2.4490  1.8324  1.1902
   64MOL0     H 8577   7.299  10.258   3.373  0.2949  1.7571 -2.2625
   64MOL0     H 8578   7.248  10.286   3.544  2.5466  4.1143  0.5873
   64MOL0     H 8579   7.249  10.505   3.326 -2.6611 -1.8452 -0.5782
   64MOL0     H 8580   7.388  10.477   3.439  0.0115  0.3602  1.5391
   64MOL0     H 8581   7.109  10.571   3.519 -0.1561  0.7382  1.7551
   64MOL0     H 8582   7.222  10.495   3.628  0.0492 -0.8546 -0.6933
   64MOL0     H 8583   7.288  10.733   3.440  2.1585  0.5103  0.6350
   64MOL0     H 8584   7.207  10.771   3.586 -0.7501 -1.5893  1.0918
   64MOL0     H 8585   7.418  10.660   3.709  0.2494 -0.2368  0.9880
   64MOL0     H 8586   7.485  10.642   3.547  0.8197  1.3254  0.9954
   64MOL0     H 8587   7.580  10.841   3.667  1.2951 -0.4938 -1.6988
   64MOL0     H 8588   7.414  10.903   3.708 -1.2264 -0.2583 -0.4717
   64MOL0     H 8589   7.436  10.901   3.425  2.3154 -0.8550  0.6109
   64MOL0     H 8590   7.401  11.019   3.542 -1.4217  0.2716 -0.4566
   64MOL0     H 8591   7.668  10.876   3.317  1.7206  0.4563 -0.8343
   64MOL0     H 8592   7.985  11.045   3.319  0.0834 -0.3334 -0.2298
   64MOL0     H 8593   7.876  10.985   3.193 -1.9541 -1.2359  1.2367
   64MOL0     H 8594   7.807  11.205   3.120 -2.7072  2.0298  1.8298
   64MOL0     H 8595   7.893  11.277   3.267  0.5308  0.4296 -0.0789
   64MOL0     H 8596   7.996  11.170   3.021 -1.6427  1.5385 -0.3155
   64MOL0     H 8597   8.112  11.185   3.171  0.7916  2.7583  1.1848
   64MOL0     H 8598   8.057  11.413   3.181  2.5308  2.1153 -0.6329
   64MOL0     H 8599   7.945  11.404   3.039 -1.3287 -1.0814  1.5277
   64MOL0     H 8600   8.060  11.613   3.064 -0.5063 -1.7754 -1.6544
   64MOL0     H 8601   8.196  11.819   3.044 -0.3167 -0.3233  1.2657
   64MOL0     H 8602   8.202  12.179   2.946  0.0594  0.8505  2.5141
   64MOL0     H 8603   8.254  12.411   2.935  0.0056 -0.4200 -1.4608
   64MOL0     H 8604   8.651  12.535   3.019 -1.7719  1.9917  0.8665
   64MOL0     H 8605   8.680  12.555   2.847 -0.1066  0.7053  0.4036
   64MOL0     H 8606   8.505  12.738   3.004  0.6597 -1.2042  1.3569
   64MOL0     H 8607   8.677  12.760   2.961  0.9451 -2.7921 -0.9670
   64MOL0     H 8608   8.608  12.764   2.724  2.4898 -3.1755  2.4645
   64MOL0     H 8609   8.434  12.732   2.774 -0.2069 -0.6437  0.0356
   64MOL0     H 8610   8.412  12.930   2.883 -1.4351 -1.2034 -1.0400
   64MOL0     H 8611   8.441  12.959   2.707  1.6393 -0.3240 -1.0155
   64MOL0     H 8612   8.663  13.026   2.733  0.1185 -0.5863 -0.0168
   64MOL0     H 8613   8.657  12.990   2.905  0.1033 -0.2239 -0.5412
   64MOL0     H 8614   8.482  13.202   2.758 -1.2552  3.0522  2.2718
   64MOL0     H 8615   8.475  13.182   2.922  1.2618  0.3145  1.0245
   64MOL0     H 8616   8.748  13.235   2.825  0.0317 -0.5843  1.1351
   64MOL0     H 8617   8.664  13.266   2.985 -3.0013  1.1705  0.3712
   64MOL0     H 8618   8.642  13.448   2.754 -3.7132  2.5778  0.2556
   64MOL0     H 8619   8.521  13.442   2.883  0.6139  3.3565 -0.1063
   64MOL0     H 8620   8.674  12.314   2.895  0.1652  1.0483  3.3243
   64MOL0     H 8621   8.638  12.086   2.900  0.5968  1.6495  3.4509
   64MOL0     H 8622   8.486  11.607   2.805  2.4287  0.1464  3.5133
   64MOL0     H 8623   8.356  11.400   2.839 -0.2963 -0.9173  1.8213
   64MOL0     H 8624   6.836  10.239   3.333  0.5808  1.4384 -0.4999
   64MOL0     H 8625   6.685  10.089   3.194  0.6367 -0.6426 -0.2161
   64MOL0     H 8626   6.356  10.066   2.847 -2.8334 -0.8352 -3.0438
   64MOL0     H 8627   6.199   9.924   2.754  0.4557  0.4140  0.4299
   64MOL0     H 8628   6.112   9.773   2.585 -2.8424 -3.6123 -3.1922
   64MOL0     H 8629   6.062   9.748   2.756  0.1771 -0.9499  1.7946
   64MOL0     H 8630   5.912   9.627   2.604 -1.0353 -1.3805  1.0266
   64MOL0     H 8631   6.017   9.525   2.704  3.9571 -0.1008 -0.4515
   64MOL0     H 8632   6.137   9.440   2.531 -1.4245 -1.4808 -0.5444
   64MOL0     H 8633   6.139   9.592   2.436  2.2295 -2.3987  0.0774
   64MOL0     H 8634   5.897   9.427   2.462  0.3972 -0.7358 -2.4397
   64MOL0     H 8635   5.940   9.535   2.328  2.1031  0.8742  0.4502
   64MOL0     H 8636   6.119   9.229   2.144 -0.4788  0.1584 -0.2734
   64MOL0     H 8637   6.468   9.599   2.747  0.8306  0.2281 -0.3605
   64MOL0     H 8638   6.760   9.775   2.828 -1.1514  2.5843 -1.5771
   64MOL0     H 8639   6.695   9.681   2.977 -0.5943  0.1692  0.8390
   64MOL0     H 8640   6.677   9.621   2.821  0.4721  0.5615  0.5229
   65MOL0     O 8641   9.332   6.494   2.342 -0.3752 -0.4573 -0.1686
   65MOL0     C 8642   9.376   6.608   2.366  0.7109  0.1618  0.0063
   65MOL0     O 8643   9.341   6.721   2.297 -0.3878 -0.0940 -0.2206
   65MOL0     C 8644   9.235   6.722   2.212  0.8768  0.0244 -0.2545
   65MOL0     C 8645   9.121   6.640   2.205  0.1873 -0.4619 -0.1602
   65MOL0     C 8646   9.009   6.664   2.113 -0.7910 -0.0415 -0.5556
   65MOL0     C 8647   9.008   6.788   2.050 -0.1798  0.6056  0.3106
   65MOL0     O 8648   8.895   6.832   1.990 -0.0959 -0.5877  0.3822
   65MOL0     C 8649   8.778   6.766   1.949 -0.5363 -0.4994  0.9794
   65MOL0     C 8650   8.670   6.826   2.037  0.1638  0.3236  1.2633
   65MOL0     C 8651   8.531   6.774   1.997  0.7781 -0.1243 -0.5898
   65MOL0     C 8652   8.446   6.725   2.116 -0.3145 -0.4523 -0.3310
   65MOL0     C 8653   8.295   6.704   2.085  0.1993  0.2137  0.5255
   65MOL0     C 8654   8.210   6.831   2.044  0.4023  0.3635  0.1405
   65MOL0     C 8655   8.057   6.805   2.069  0.8999 -0.1923 -0.1276
   65MOL0     C 8656   7.986   6.703   1.977  0.4987 -0.3540 -0.9725
   65MOL0     N 8657   8.001   6.558   2.000 -0.3527  0.0050 -0.4038
   65MOL0     C 8658   7.958   6.494   2.113  0.7765  0.3695 -0.5315
   65MOL0     C 8659   7.969   6.367   2.082  0.2345  0.4824 -0.8856
   65MOL0     C 8660   7.919   6.248   2.161 -0.4006  0.9646 -0.0949
   65MOL0     C 8661   7.795   6.179   2.113 -0.2324  0.1038 -0.7183
   65MOL0     C 8662   7.686   6.275   2.088 -0.3579 -0.1726  0.2051
   65MOL0     C 8663   7.548   6.218   2.052 -0.5147  0.0425 -0.1228
   65MOL0     O 8664   7.451   6.325   2.023 -0.3727  0.5151  0.6270
   65MOL0     C 8665   7.340   6.278   1.965 -0.0662 -0.7202 -0.1041
   65MOL0     C 8666   7.319   6.158   1.888 -0.3232  0.5998 -1.2361
   65MOL0     C 8667   7.194   6.142   1.830 -0.2724  1.2890 -0.2438
   65MOL0     C 8668   7.088   6.235   1.842 -0.1430  0.2887  0.3209
   65MOL0     C 8669   6.950   6.188   1.802  0.8588  0.0674 -0.8540
   65MOL0     O 8670   6.948   6.058   1.771 -0.5869  0.3674  0.1148
   65MOL0     C 8671   6.831   5.997   1.732 -0.1284  0.0578 -0.6710
   65MOL0     C 8672   6.716   6.015   1.806 -0.4828 -0.1172 -0.2191
   65MOL0     C 8673   6.608   5.933   1.780  0.7961  0.0815  0.4763
   65MOL0     C 8674   6.615   5.838   1.670 -0.5095 -0.6942 -0.6669
   65MOL0     O 8675   6.513   5.748   1.680 -0.0424 -0.4759 -0.2543
   65MOL0     C 8676   6.543   5.616   1.630  0.8763 -0.7198 -0.0616
   65MOL0     C 8677   6.413   5.536   1.636 -0.1587 -0.3218  0.0222
   65MOL0     C 8678   6.300   5.589   1.539 -0.4254 -0.1600 -0.1016
   65MOL0     C 8679   6.185   5.489   1.530  0.3859 -0.1972  0.5349
   65MOL0     C 8680   6.227   5.357   1.457  0.0477 -0.4337  0.4515
   65MOL0     C 8681   6.119   5.291   1.369  0.3609  0.0715  0.4256
   65MOL0     C 8682   6.002   5.213   1.445  0.2002 -0.5432 -0.2139
   65MOL0     C 8683   5.927   5.113   1.358  0.0177 -0.3818 -0.1580
   65MOL0    Cl 8684   6.043   4.985   1.317 -0.1745 -0.0256 -0.0151
   65MOL0     C 8685   6.735   5.829   1.590  0.4327 -0.8462  0.6108
   65MOL0     C 8686   6.838   5.919   1.618  0.0309 -0.9458 -0.7191
   65MOL0     O 8687   6.859   6.268   1.799  0.1004 -0.3381 -0.7094
   65MOL0     C 8688   7.110   6.346   1.925  0.7841 -0.5026  0.2792
   65MOL0     C 8689   7.240   6.371   1.973 -0.3478 -0.1281 -0.3507
   65MOL0     N 8690   8.026   6.348   1.964  0.4403  0.0050  0.1296
   65MOL0     N 8691   8.033   6.458   1.914  0.0273 -0.5170  0.5984
   65MOL0     C 8692   9.107   6.880   2.066  0.0932  0.2561  0.2113
   65MOL0     C 8693   9.218   6.842   2.141  0.2316 -0.0748 -0.8516
   65MOL0     C 8694   9.491   6.627   2.462 -0.3671  0.1700 -0.1494
   65MOL0     C 8695   9.587   6.724   2.438  0.7793  0.2835  0.0082
   65MOL0     C 8696   9.705   6.731   2.508  0.9372 -0.0870  0.0394
   65MOL0     C 8697   9.724   6.639   2.619 -0.3801 -0.6624 -0.2104
   65MOL0     O 8698   9.834   6.666   2.697 -0.7245 -0.4716 -0.1282
   65MOL0     C 8699   9.840   6.596   2.828 -0.2209  0.9377  0.2776
   65MOL0     C 8700   9.971   6.620   2.904  0.1166 -0.6305 -0.9294
   65MOL0     C 8701   9.986   6.514   3.024 -0.2086 -0.6548  0.4331
   65MOL0     C 8702  10.116   6.543   3.110 -0.7115 -0.6761  0.0023
   65MOL0     C 8703  10.120   6.473   3.233  0.8110 -0.2305 -1.1066
   65MOL0     C 8704  10.147   6.408   3.338 -0.8644  0.5911 -0.5722
   65MOL0     C 8705   9.634   6.529   2.637 -0.1820 -0.1474  0.9286
   65MOL0     C 8706   9.518   6.530   2.561 -0.2067 -0.2455 -0.0091
   65MOL0     C 8707   9.415   6.439   2.606 -0.2224  1.1559  0.1051
   65MOL0     H 8708   9.114   6.545   2.258  2.3392 -0.1787  0.6922
   65MOL0     H 8709   8.935   6.585   2.108 -1.0828  0.2506 -0.9176
   65MOL0     H 8710   8.768   6.776   1.840  0.1194  0.8628  1.0276
   65MOL0     H 8711   8.781   6.657   1.961  2.6712 -1.1898 -3.3243
   65MOL0     H 8712   8.675   6.933   2.017 -1.0086  0.0406 -0.8845
   65MOL0     H 8713   8.692   6.796   2.140  4.3563  0.5054  0.5981
   65MOL0     H 8714   8.540   6.695   1.922 -1.1390 -0.3679 -0.6197
   65MOL0     H 8715   8.478   6.861   1.956 -1.1814  0.0455  2.0608
   65MOL0     H 8716   8.493   6.628   2.135 -0.0805 -0.5604 -1.3877
   65MOL0     H 8717   8.463   6.789   2.203 -2.3525  1.3064 -1.1328
   65MOL0     H 8718   8.290   6.626   2.009  2.6516 -1.4788  1.9386
   65MOL0     H 8719   8.252   6.659   2.176  0.9214  0.6499  1.0892
   65MOL0     H 8720   8.247   6.916   2.101  0.1282  0.7512 -0.2571
   65MOL0     H 8721   8.222   6.844   1.936 -0.5637  1.8985  0.1907
   65MOL0     H 8722   8.018   6.906   2.057  0.6923 -0.5074 -2.4405
   65MOL0     H 8723   8.033   6.779   2.173  1.5243 -0.5539 -0.0669
   65MOL0     H 8724   7.879   6.720   1.988  0.1150 -2.6624 -0.6444
   65MOL0     H 8725   8.013   6.731   1.875 -0.5274  0.5557 -1.0206
   65MOL0     H 8726   7.912   6.536   2.202  0.7898 -1.4975  0.4123
   65MOL0     H 8727   8.002   6.179   2.179  0.1282  1.2300 -1.3784
   65MOL0     H 8728   7.896   6.283   2.262  3.3392  0.8357  0.9400
   65MOL0     H 8729   7.816   6.136   2.014 -0.7353  0.0299 -0.7970
   65MOL0     H 8730   7.783   6.094   2.180 -0.7595 -0.0234 -0.9697
   65MOL0     H 8731   7.719   6.339   2.006 -0.8701  0.0096  0.1338
   65MOL0     H 8732   7.671   6.344   2.172  0.0913 -0.3872  0.4659
   65MOL0     H 8733   7.521   6.154   2.136  1.8978 -0.9548  0.0033
   65MOL0     H 8734   7.567   6.141   1.976  0.6593  2.1811 -2.1349
   65MOL0     H 8735   7.387   6.073   1.888 -0.4237  0.2252  3.6048
   65MOL0     H 8736   7.181   6.042   1.788  3.9303 -0.2886  1.7116
   65MOL0     H 8737   6.711   6.081   1.892  1.9429 -1.1450  0.8041
   65MOL0     H 8738   6.523   5.932   1.848  0.3406 -1.9591 -0.0660
   65MOL0     H 8739   6.578   5.621   1.527  0.3651 -0.5475 -0.2318
   65MOL0     H 8740   6.615   5.570   1.698  0.0453 -1.1520  0.5502
   65MOL0     H 8741   6.433   5.430   1.620 -0.2693 -0.1327 -1.5713
   65MOL0     H 8742   6.371   5.549   1.736 -0.3582 -3.3471  0.4026
   65MOL0     H 8743   6.239   5.673   1.574 -3.8163 -0.7276 -3.9370
   65MOL0     H 8744   6.334   5.615   1.438  3.2084 -1.7239  0.5479
   65MOL0     H 8745   6.118   5.542   1.462 -0.4559 -0.9153  0.7869
   65MOL0     H 8746   6.128   5.464   1.620 -1.3510  0.9940 -0.1917
   65MOL0     H 8747   6.245   5.290   1.542 -1.3044 -1.6028 -0.1585
   65MOL0     H 8748   6.315   5.381   1.396 -1.2138 -0.3415 -1.3798
   65MOL0     H 8749   6.075   5.353   1.290  0.4363 -3.6020 -2.7839
   65MOL0     H 8750   6.177   5.218   1.312 -2.2099 -1.5527 -0.2583
   65MOL0     H 8751   5.939   5.295   1.481  1.2372  0.8043 -1.3518
   65MOL0     H 8752   6.043   5.161   1.532 -1.0865 -2.1276 -0.5210
   65MOL0     H 8753   5.837   5.076   1.409  1.3644 -2.8147  0.6475
   65MOL0     H 8754   5.902   5.172   1.270 -1.1201  1.0305  1.0638
   65MOL0     H 8755   6.746   5.775   1.496  3.7761  1.8732 -0.8055
   65MOL0     H 8756   6.928   5.919   1.559 -0.4853 -3.5069 -1.6011
   65MOL0     H 8757   7.027   6.410   1.952 -0.6495 -2.0911 -0.2298
   65MOL0     H 8758   7.246   6.464   2.028  1.6955 -0.7446  0.5501
   65MOL0     H 8759   9.102   6.984   2.036  2.5217 -0.4712 -3.3050
   65MOL0     H 8760   9.277   6.921   2.185 -2.2386  1.8618 -0.7977
   65MOL0     H 8761   9.575   6.802   2.363 -3.1984 -0.6978 -0.6205
   65MOL0     H 8762   9.785   6.800   2.484  2.9073 -2.4418 -0.5356
   65MOL0     H 8763   9.821   6.490   2.812 -0.1767  0.7555  1.3854
   65MOL0     H 8764   9.766   6.625   2.903 -1.8246 -0.0181 -0.8591
   65MOL0     H 8765   9.980   6.723   2.941  2.1922 -1.6341  1.7037
   65MOL0     H 8766  10.054   6.606   2.834  0.2032 -1.4347 -0.6791
   65MOL0     H 8767   9.982   6.418   2.971 -0.7194  0.4398 -1.6249
   65MOL0     H 8768   9.900   6.519   3.092 -1.3924 -0.8551 -0.9808
   65MOL0     H 8769  10.203   6.530   3.047  0.4685  1.8590  0.9489
   65MOL0     H 8770  10.106   6.649   3.137  2.0663 -0.5015  0.6108
   65MOL0     H 8771  10.170   6.346   3.422  1.3186 -1.4874 -2.5822
   65MOL0     H 8772   9.655   6.449   2.708  2.1244 -1.1429 -0.7458
   65MOL0     H 8773   9.408   6.353   2.539 -0.7660  0.1490  1.4130
   65MOL0     H 8774   9.431   6.406   2.709  2.1155  0.3777 -0.4542
   65MOL0     H 8775   9.313   6.478   2.610 -0.6541  0.1381 -0.7775
   66MOL0     O 8776   0.547   1.417   8.622  0.5603  0.4401 -0.0679
   66MOL0     C 8777   0.469   1.342   8.567  0.5615 -1.0871  0.0808
   66MOL0     O 8778   0.419   1.226   8.612 -0.5958 -0.1885  0.5127
   66MOL0     C 8779   0.509   1.167   8.702  0.0273 -0.1233 -0.8523
   66MOL0     C 8780   0.532   1.215   8.834 -0.7363 -0.1149  0.1243
   66MOL0     C 8781   0.613   1.134   8.925  0.1163 -0.7258  0.2437
   66MOL0     C 8782   0.683   1.014   8.876  0.0221  0.1434 -1.2169
   66MOL0     O 8783   0.759   0.950   8.971  0.1081  0.3745  0.7962
   66MOL0     C 8784   0.714   0.813   8.994 -0.2823  0.0935  1.2079
   66MOL0     C 8785   0.602   0.809   9.095  0.2393  0.7433 -0.7111
   66MOL0     C 8786   0.555   0.660   9.125  0.1889 -0.1601  0.2083
   66MOL0     C 8787   0.517   0.667   9.274  0.3397 -0.5398  0.3154
   66MOL0     C 8788   0.468   0.532   9.328  0.1239 -0.5004 -0.7744
   66MOL0     C 8789   0.375   0.547   9.452 -0.3227 -0.3489 -0.7082
   66MOL0     C 8790   0.321   0.415   9.493 -0.2834  0.9044 -0.6043
   66MOL0     C 8791   0.240   0.398   9.618  0.6734  0.3657 -0.1310
   66MOL0     N 8792   0.225   0.260   9.659  0.3456  0.1388  0.0795
   66MOL0     C 8793   0.320   0.191   9.729 -0.5165  0.8769 -0.3842
   66MOL0     C 8794   0.265   0.078   9.779 -0.1162 -0.1002  0.0323
   66MOL0     C 8795   0.321  -0.016   9.874  0.2892  0.3849 -0.5756
   66MOL0     C 8796   0.233  -0.042   9.998  0.6023  0.5483  0.8126
   66MOL0     C 8797   0.309  -0.138  10.090  0.5831  0.0296 -0.7789
   66MOL0     C 8798   0.225  -0.174  10.217 -0.1888 -0.2326  0.2608
   66MOL0     O 8799   0.294  -0.266  10.304 -0.7700 -0.3485  0.1716
   66MOL0     C 8800   0.401  -0.209  10.367 -0.6491  1.3882  0.8030
   66MOL0     C 8801   0.486  -0.306  10.426 -0.7004  0.2284  0.1240
   66MOL0     C 8802   0.590  -0.269  10.509  0.5314 -0.0224  0.1695
   66MOL0     C 8803   0.620  -0.133  10.531  0.3306 -0.6680  0.0596
   66MOL0     C 8804   0.745  -0.104  10.609 -0.0506  0.1177  0.7399
   66MOL0     O 8805   0.833  -0.207  10.608  0.4272  0.0335 -0.1987
   66MOL0     C 8806   0.926  -0.223  10.704  1.0010  0.1603  0.1737
   66MOL0     C 8807   1.049  -0.275  10.664  0.3571  0.2293  0.0385
   66MOL0     C 8808   1.158  -0.282  10.755 -0.5620 -0.1833  0.0801
   66MOL0     C 8809   1.125  -0.255  10.890 -0.5487  0.8489  0.3742
   66MOL0     O 8810   1.198  -0.267  11.000  0.1574  0.1965 -1.1271
   66MOL0     C 8811   1.337  -0.283  10.980 -0.5614  0.6269 -0.1372
   66MOL0     C 8812   1.391  -0.299  11.120 -0.3337  0.1923 -0.6134
   66MOL0     C 8813   1.367  -0.166  11.198 -0.3251 -0.7924  0.7602
   66MOL0     C 8814   1.457  -0.157  11.318 -0.1130  1.4992 -0.0994
   66MOL0     C 8815   1.461  -0.037  11.397 -0.2707 -0.8114  0.2106
   66MOL0     C 8816   1.492   0.093  11.310 -0.8456  0.1935  0.4557
   66MOL0     C 8817   1.474   0.215  11.409  0.1057 -0.1261  0.5349
   66MOL0     C 8818   1.435   0.331  11.320 -0.2890  0.3787 -0.0961
   66MOL0    Cl 8819   1.575   0.379  11.225 -0.2498 -0.6721  0.0451
   66MOL0     C 8820   0.996  -0.218  10.940  0.5324 -0.5274  1.0169
   66MOL0     C 8821   0.898  -0.209  10.840  0.2269 -0.2500 -0.7246
   66MOL0     O 8822   0.758  -0.007  10.682 -0.2719  0.0741  0.0299
   66MOL0     C 8823   0.537  -0.038  10.463  0.7610 -0.1626 -0.1397
   66MOL0     C 8824   0.429  -0.077  10.389 -0.0378 -0.3421 -0.3851
   66MOL0     N 8825   0.137   0.082   9.747 -1.0033 -0.8705  0.4004
   66MOL0     N 8826   0.107   0.186   9.672 -0.8162 -0.2760  0.6588
   66MOL0     C 8827   0.670   0.983   8.740 -0.6898  0.3592 -0.5539
   66MOL0     C 8828   0.587   1.058   8.655 -0.1909  0.5335  0.5380
   66MOL0     C 8829   0.406   1.388   8.444 -1.0409 -0.0566  0.1574
   66MOL0     C 8830   0.346   1.295   8.354  1.2906 -0.1018 -0.4719
   66MOL0     C 8831   0.273   1.328   8.236 -0.7096  0.0239 -0.1448
   66MOL0     C 8832   0.268   1.461   8.200  0.0965 -0.4457  0.5280
   66MOL0     O 8833   0.211   1.464   8.075 -0.1106 -0.2669 -0.7186
   66MOL0     C 8834   0.164   1.589   8.030 -0.9650 -0.2768 -0.1856
   66MOL0     C 8835   0.041   1.657   8.091 -1.1902  0.3545 -0.0320
   66MOL0     C 8836  -0.009   1.782   8.010  0.2783 -0.9492  0.9156
   66MOL0     C 8837   0.085   1.898   8.032 -0.2113 -0.5615  0.1904
   66MOL0     C 8838   0.055   1.972   8.155  0.4378  0.0552  0.0284
   66MOL0     C 8839   0.028   2.030   8.259  0.0886 -0.3509  0.7916
   66MOL0     C 8840   0.323   1.561   8.279 -0.2596 -0.0389 -0.4497
   66MOL0     C 8841   0.385   1.523   8.404  0.3004  0.1403 -0.1552
   66MOL0     C 8842   0.438   1.631   8.486  0.3214 -0.0471 -0.4013
   66MOL0     H 8843   0.472   1.289   8.886  0.8787  0.7796  0.7881
   66MOL0     H 8844   0.612   1.167   9.029 -0.5481  2.5899 -0.6840
   66MOL0     H 8845   0.681   0.761   8.903 -0.8024 -0.0655  1.4822
   66MOL0     H 8846   0.800   0.752   9.022  0.8448  0.5186 -1.0844
   66MOL0     H 8847   0.519   0.872   9.063 -1.6143 -2.2440 -2.2621
   66MOL0     H 8848   0.639   0.848   9.190  2.6079 -0.2131 -1.1656
   66MOL0     H 8849   0.633   0.585   9.107  1.0443  0.5349  0.9341
   66MOL0     H 8850   0.473   0.641   9.056  0.8076  0.5201 -0.7347
   66MOL0     H 8851   0.596   0.704   9.341  0.6468  3.6229 -1.9986
   66MOL0     H 8852   0.438   0.743   9.279 -0.9084 -1.8621  1.5856
   66MOL0     H 8853   0.411   0.478   9.252  1.9222 -1.4901 -1.4846
   66MOL0     H 8854   0.559   0.474   9.347  0.2752  0.7412  3.2973
   66MOL0     H 8855   0.416   0.603   9.537  1.2958 -1.9462 -0.4008
   66MOL0     H 8856   0.294   0.602   9.403  0.0479 -1.7671 -3.0489
   66MOL0     H 8857   0.408   0.349   9.494 -1.4863 -0.9867  4.1902
   66MOL0     H 8858   0.252   0.381   9.416 -2.0172 -0.1006  1.3241
   66MOL0     H 8859   0.270   0.458   9.704 -0.8896  0.8928  0.0716
   66MOL0     H 8860   0.136   0.432   9.611  0.1334  0.1379  4.0736
   66MOL0     H 8861   0.417   0.222   9.764  0.2317 -1.9417  0.2625
   66MOL0     H 8862   0.330  -0.104   9.811 -1.4209  0.0462 -0.4005
   66MOL0     H 8863   0.421   0.019   9.901  0.1063  1.5801 -1.3686
   66MOL0     H 8864   0.213   0.054  10.046  0.3465  1.1338 -0.4107
   66MOL0     H 8865   0.137  -0.091   9.974 -0.1239  2.3388 -0.1250
   66MOL0     H 8866   0.398  -0.082  10.122  2.7034 -1.9196 -2.8820
   66MOL0     H 8867   0.339  -0.229  10.038  0.1290 -0.6361  0.0907
   66MOL0     H 8868   0.128  -0.216  10.189 -0.8404  1.9611 -1.0606
   66MOL0     H 8869   0.205  -0.085  10.278  2.8786 -0.1839  1.3895
   66MOL0     H 8870   0.476  -0.413  10.421  1.0659 -0.2369  3.5387
   66MOL0     H 8871   0.637  -0.356  10.553  2.3006 -2.2751 -5.3425
   66MOL0     H 8872   1.050  -0.305  10.559 -2.4132 -4.1175  0.9769
   66MOL0     H 8873   1.256  -0.314  10.720  0.2101 -0.2067  2.1371
   66MOL0     H 8874   1.354  -0.374  10.922 -4.0717  1.1526 -2.2955
   66MOL0     H 8875   1.370  -0.189  10.934 -0.5125  1.0538  0.7575
   66MOL0     H 8876   1.324  -0.374  11.163 -2.7738  3.4278  1.6756
   66MOL0     H 8877   1.493  -0.337  11.134 -0.7286 -1.1727 -1.2496
   66MOL0     H 8878   1.387  -0.087  11.126 -1.7227 -1.0237  0.0774
   66MOL0     H 8879   1.267  -0.160  11.243  0.0903 -1.3925  1.8124
   66MOL0     H 8880   1.559  -0.155  11.277 -0.1138 -1.5456 -0.4975
   66MOL0     H 8881   1.439  -0.247  11.378  1.0723  0.8695 -0.6588
   66MOL0     H 8882   1.548  -0.041  11.464  0.0709 -0.7665 -0.2274
   66MOL0     H 8883   1.365  -0.036  11.451 -2.0407 -0.6054 -2.7417
   66MOL0     H 8884   1.591   0.096  11.264 -0.6456  3.8540  0.8346
   66MOL0     H 8885   1.410   0.095  11.238  0.0302 -2.8186 -0.7933
   66MOL0     H 8886   1.569   0.229  11.461 -0.3567  0.5466  1.2135
   66MOL0     H 8887   1.400   0.187  11.484  1.4003 -1.9465  1.1990
   66MOL0     H 8888   1.351   0.306  11.256  1.1774  0.1528 -2.0330
   66MOL0     H 8889   1.406   0.416  11.382  0.8408  2.1302 -1.8586
   66MOL0     H 8890   0.973  -0.211  11.046 -2.1615 -1.4645  0.5734
   66MOL0     H 8891   0.801  -0.183  10.882  1.5930  1.2430  1.7680
   66MOL0     H 8892   0.548   0.069  10.476 -1.8804 -0.0886  2.4986
   66MOL0     H 8893   0.365   0.005  10.358  0.5838  0.6578  0.8989
   66MOL0     H 8894   0.732   0.900   8.708  2.0790  1.7620  0.8967
   66MOL0     H 8895   0.571   1.015   8.556 -3.6087 -1.4216  1.7457
   66MOL0     H 8896   0.353   1.191   8.385 -2.5285  0.3233  2.6220
   66MOL0     H 8897   0.217   1.256   8.178 -1.6424 -1.3616  2.2936
   66MOL0     H 8898   0.141   1.567   7.925 -2.0006 -0.9873  0.1688
   66MOL0     H 8899   0.245   1.662   8.029  0.3646 -1.6995 -0.1761
   66MOL0     H 8900   0.053   1.680   8.197  2.3607  2.6379 -0.7497
   66MOL0     H 8901  -0.037   1.582   8.078  2.2865 -3.1787 -3.6043
   66MOL0     H 8902  -0.104   1.817   8.052 -0.6306 -0.9967 -0.9819
   66MOL0     H 8903  -0.030   1.764   7.904 -0.6585  2.2972  0.4270
   66MOL0     H 8904   0.186   1.861   8.050 -0.6344 -1.5856  0.5553
   66MOL0     H 8905   0.084   1.962   7.943 -0.0159  0.0522  0.6239
   66MOL0     H 8906   0.002   2.083   8.349  2.1692  2.8481 -0.3264
   66MOL0     H 8907   0.340   1.661   8.240  0.3266 -0.2988 -0.8893
   66MOL0     H 8908   0.547   1.624   8.482  0.2405 -3.4379  0.5634
   66MOL0     H 8909   0.412   1.732   8.452 -0.9147  0.2525  1.2782
   66MOL0     H 8910   0.403   1.627   8.589 -1.5855 -1.8555 -1.0580
   67MOL0     O 8911   9.504   7.689   6.253  0.2605  0.0754 -0.5749
   67MOL0     C 8912   9.477   7.693   6.373  0.1141  0.9262 -1.4685
   67MOL0     O 8913   9.350   7.719   6.420  0.5030 -0.5425  0.1296
   67MOL0     C 8914   9.258   7.790   6.343 -0.3795  0.6740  0.4810
   67MOL0     C 8915   9.284   7.911   6.276 -0.0510  0.1163  0.5980
   67MOL0     C 8916   9.179   7.973   6.206 -0.4184  0.2115  0.1446
   67MOL0     C 8917   9.048   7.920   6.195 -1.0630  0.0192 -1.0695
   67MOL0     O 8918   8.957   7.993   6.136 -0.0140 -0.4667 -0.4219
   67MOL0     C 8919   8.854   7.925   6.054 -0.4149 -0.2869  1.1719
   67MOL0     C 8920   8.714   7.924   6.115 -0.8622 -0.3666 -0.2583
   67MOL0     C 8921   8.615   7.831   6.055  0.8798  0.8279 -0.2186
   67MOL0     C 8922   8.574   7.859   5.902 -1.0259 -0.6432 -0.3245
   67MOL0     C 8923   8.504   7.749   5.821 -0.4556  0.3128 -0.2165
   67MOL0     C 8924   8.383   7.684   5.900 -0.5965 -0.0283  0.2496
   67MOL0     C 8925   8.284   7.601   5.811 -0.0075 -0.3440 -0.9848
   67MOL0     C 8926   8.170   7.686   5.771  0.2053  0.2499  0.6788
   67MOL0     N 8927   8.062   7.627   5.687 -0.0402 -0.4415 -0.1265
   67MOL0     C 8928   7.984   7.526   5.743 -0.4195  0.3376  0.4568
   67MOL0     C 8929   7.947   7.451   5.633 -0.3267  1.0510 -0.0039
   67MOL0     C 8930   7.866   7.327   5.616 -1.4208  0.1123  0.7263
   67MOL0     C 8931   7.718   7.367   5.635  0.1809 -0.7814 -0.6421
   67MOL0     C 8932   7.669   7.476   5.528  0.3406  0.2151 -0.1025
   67MOL0     C 8933   7.661   7.414   5.384 -0.2916 -0.6074 -0.5022
   67MOL0     O 8934   7.573   7.304   5.389  0.5014  0.1620  0.4744
   67MOL0     C 8935   7.441   7.330   5.350  0.0361  0.4582  0.3516
   67MOL0     C 8936   7.375   7.216   5.300  0.8538  0.1315 -0.0427
   67MOL0     C 8937   7.240   7.217   5.269 -0.1645  0.0003 -0.1429
   67MOL0     C 8938   7.171   7.345   5.280 -0.2320 -0.3381  0.5038
   67MOL0     C 8939   7.031   7.359   5.241  0.0552  0.5121 -0.0615
   67MOL0     O 8940   6.960   7.247   5.217  0.0192 -0.1743 -0.8977
   67MOL0     C 8941   6.822   7.255   5.239  0.8183  0.5542 -0.6970
   67MOL0     C 8942   6.733   7.329   5.160  0.0358  1.1083  0.9090
   67MOL0     C 8943   6.595   7.311   5.177 -0.0702 -0.5472 -0.2640
   67MOL0     C 8944   6.546   7.246   5.287 -0.6397  0.6323  0.5339
   67MOL0     O 8945   6.409   7.221   5.310 -0.0315 -0.4192  0.5971
   67MOL0     C 8946   6.321   7.334   5.332  0.9779  0.0968  0.3991
   67MOL0     C 8947   6.301   7.372   5.478 -0.6776 -0.2625  0.1541
   67MOL0     C 8948   6.435   7.421   5.545 -0.3793 -0.7288 -0.1728
   67MOL0     C 8949   6.404   7.436   5.696 -0.7094 -0.4850 -0.0254
   67MOL0     C 8950   6.507   7.533   5.755 -0.1428 -0.1973 -0.1094
   67MOL0     C 8951   6.526   7.532   5.901 -0.1545  0.8480  0.3025
   67MOL0     C 8952   6.593   7.392   5.937  0.8664 -0.6944 -0.1477
   67MOL0     C 8953   6.655   7.407   6.074  0.2510 -0.5946 -0.1837
   67MOL0    Cl 8954   6.779   7.281   6.108  0.2449 -0.0837  0.0823
   67MOL0     C 8955   6.628   7.167   5.365  0.0614  0.5576 -0.5241
   67MOL0     C 8956   6.769   7.175   5.343 -0.0934 -1.1173 -0.6932
   67MOL0     O 8957   6.985   7.471   5.254 -0.2306  0.7958 -0.4185
   67MOL0     C 8958   7.243   7.458   5.327 -0.2710 -0.2994  0.2763
   67MOL0     C 8959   7.374   7.446   5.366 -0.6608  0.3785  0.0788
   67MOL0     N 8960   8.010   7.495   5.519 -1.3174  0.0385 -0.4142
   67MOL0     N 8961   8.079   7.598   5.549 -0.3420 -0.1208  0.6666
   67MOL0     C 8962   9.027   7.794   6.262  0.1849 -0.7982 -0.3894
   67MOL0     C 8963   9.130   7.735   6.334 -0.7925 -0.1256 -0.3933
   67MOL0     C 8964   9.575   7.666   6.486  0.7123 -1.5049  1.0517
   67MOL0     C 8965   9.534   7.688   6.618 -0.7625 -0.2940 -0.5642
   67MOL0     C 8966   9.617   7.653   6.721 -0.2571 -0.5456 -0.7342
   67MOL0     C 8967   9.743   7.614   6.699 -2.0452 -1.2399  0.4557
   67MOL0     O 8968   9.836   7.580   6.799 -0.2822 -0.2861 -0.1425
   67MOL0     C 8969   9.807   7.619   6.939 -1.2250  0.2217 -1.6197
   67MOL0     C 8970   9.922   7.540   7.018 -1.1861 -0.1855  0.2102
   67MOL0     C 8971   9.973   7.614   7.146 -0.7314  0.6196  0.8001
   67MOL0     C 8972  10.081   7.536   7.221  0.2641 -0.2723 -0.6106
   67MOL0     C 8973  10.192   7.484   7.141 -0.1702 -0.7627 -0.9234
   67MOL0     C 8974  10.297   7.454   7.086 -0.8867 -0.8883  0.0067
   67MOL0     C 8975   9.790   7.602   6.566  0.3936  0.4970 -0.7071
   67MOL0     C 8976   9.708   7.629   6.458  0.0495 -0.5076  0.7130
   67MOL0     C 8977   9.767   7.591   6.330  0.3437 -0.4629  0.2584
   67MOL0     H 8978   9.387   7.943   6.284  0.0682 -0.2394  0.4970
   67MOL0     H 8979   9.205   8.062   6.149  2.3353 -2.2294 -2.8077
   67MOL0     H 8980   8.843   7.976   5.958  0.0231 -1.0241  0.7193
   67MOL0     H 8981   8.890   7.824   6.029  3.4945  1.0592  0.6838
   67MOL0     H 8982   8.665   8.021   6.103 -1.8469 -1.1675 -3.3564
   67MOL0     H 8983   8.727   7.901   6.222 -0.5698 -1.5535 -0.5335
   67MOL0     H 8984   8.532   7.831   6.126  1.4098  0.0210  0.4299
   67MOL0     H 8985   8.669   7.736   6.060 -0.6548 -0.1107 -0.8659
   67MOL0     H 8986   8.510   7.948   5.905  3.2602  2.8170 -0.5599
   67MOL0     H 8987   8.661   7.900   5.849 -0.7654 -0.9209 -0.1159
   67MOL0     H 8988   8.465   7.804   5.736 -2.2736  0.3337  0.5913
   67MOL0     H 8989   8.572   7.677   5.775  0.0978  0.4780  0.3268
   67MOL0     H 8990   8.429   7.624   5.979  1.8609  3.0577  1.3603
   67MOL0     H 8991   8.339   7.765   5.958 -0.9239  0.4462 -0.6449
   67MOL0     H 8992   8.252   7.519   5.877 -0.5833  1.1761  0.6881
   67MOL0     H 8993   8.335   7.572   5.718  0.4061  0.3870 -0.9935
   67MOL0     H 8994   8.118   7.724   5.860  2.1337  1.7525  1.2328
   67MOL0     H 8995   8.206   7.778   5.723 -1.9935  0.4039 -0.8377
   67MOL0     H 8996   7.957   7.498   5.844 -2.4831 -3.4750 -0.9625
   67MOL0     H 8997   7.890   7.287   5.517 -0.1992  0.5120  0.8427
   67MOL0     H 8998   7.894   7.252   5.690 -2.3776  0.1346  1.1300
   67MOL0     H 8999   7.661   7.274   5.630  0.2477 -0.9096  0.6653
   67MOL0     H 9000   7.705   7.413   5.734  0.4208  0.9752 -1.3783
   67MOL0     H 9001   7.736   7.562   5.523 -1.0598  1.2696 -2.5654
   67MOL0     H 9002   7.571   7.511   5.562  1.2946  4.6840 -1.3396
   67MOL0     H 9003   7.760   7.383   5.349  1.2325  1.0555  1.9978
   67MOL0     H 9004   7.628   7.493   5.315  3.2541 -0.2249 -1.9826
   67MOL0     H 9005   7.440   7.129   5.295  1.7379  0.4340  3.3816
   67MOL0     H 9006   7.188   7.132   5.225  2.0653 -1.5564  0.0638
   67MOL0     H 9007   6.767   7.390   5.077 -0.3403 -2.0310 -1.7657
   67MOL0     H 9008   6.520   7.350   5.108 -0.2982 -2.2189 -1.0112
   67MOL0     H 9009   6.353   7.425   5.281  0.0364  0.3188  0.1836
   67MOL0     H 9010   6.216   7.316   5.306  1.0174 -2.4386  1.6351
   67MOL0     H 9011   6.223   7.449   5.475 -1.4688 -1.0234 -4.0061
   67MOL0     H 9012   6.268   7.283   5.533 -1.4447 -1.1321 -1.6535
   67MOL0     H 9013   6.516   7.348   5.538  0.3071  0.0175 -0.1002
   67MOL0     H 9014   6.475   7.516   5.510 -0.8797 -0.7361 -0.7951
   67MOL0     H 9015   6.400   7.342   5.753 -3.3353 -0.6421 -0.3579
   67MOL0     H 9016   6.302   7.473   5.707 -0.6592  0.3602 -2.0685
   67MOL0     H 9017   6.463   7.631   5.735 -0.5847 -0.2020  0.7823
   67MOL0     H 9018   6.606   7.522   5.710 -0.9071 -0.6109 -1.7820
   67MOL0     H 9019   6.589   7.619   5.925 -0.8738  2.0229 -1.7248
   67MOL0     H 9020   6.431   7.544   5.953 -1.9062  1.1280 -2.7024
   67MOL0     H 9021   6.674   7.366   5.868  1.2027 -1.8000  0.6359
   67MOL0     H 9022   6.514   7.315   5.936  0.4648 -0.2911 -1.7991
   67MOL0     H 9023   6.696   7.508   6.086 -0.2639 -0.1327 -1.9622
   67MOL0     H 9024   6.576   7.408   6.149  1.3975 -0.1591  1.0463
   67MOL0     H 9025   6.574   7.092   5.424 -0.8415 -1.1732 -3.3438
   67MOL0     H 9026   6.839   7.114   5.400  0.7636 -0.4773 -1.0357
   67MOL0     H 9027   7.204   7.559   5.329  5.4869  2.3499  0.8028
   67MOL0     H 9028   7.414   7.540   5.401 -1.5850  0.6911  0.3079
   67MOL0     H 9029   8.924   7.761   6.252 -1.4765  2.3864  3.4649
   67MOL0     H 9030   9.120   7.643   6.391  0.0824  0.6857  1.1332
   67MOL0     H 9031   9.431   7.713   6.642 -0.8031 -1.2321  0.3037
   67MOL0     H 9032   9.578   7.680   6.819 -0.6496  0.7868 -1.2374
   67MOL0     H 9033   9.715   7.577   6.980 -0.2774  0.1913  0.5951
   67MOL0     H 9034   9.789   7.723   6.968 -1.8651 -0.1687 -0.5378
   67MOL0     H 9035  10.007   7.539   6.950 -0.0241  0.4389  1.5989
   67MOL0     H 9036   9.899   7.437   7.044 -0.8636 -0.9679 -2.3711
   67MOL0     H 9037   9.888   7.622   7.214  0.1939  0.0864  2.0409
   67MOL0     H 9038  10.011   7.710   7.111  3.3649 -1.2781 -0.6134
   67MOL0     H 9039  10.122   7.612   7.288  1.6176 -0.5104 -1.1296
   67MOL0     H 9040  10.041   7.449   7.274 -0.1873  0.9839  1.2018
   67MOL0     H 9041  10.386   7.414   7.043  1.3737  0.3907  3.1546
   67MOL0     H 9042   9.893   7.567   6.559 -0.0091 -0.9795  0.2606
   67MOL0     H 9043   9.855   7.529   6.347  0.1859 -0.1569  2.3973
   67MOL0     H 9044   9.700   7.532   6.266 -2.3849  3.8168 -1.3201
   67MOL0     H 9045   9.789   7.678   6.267 -2.6007 -1.2375 -2.1127
   68MOL0     O 9046   4.962   3.398   6.888 -0.5856  0.6151 -0.0290
   68MOL0     C 9047   4.971   3.308   6.804  0.0968 -0.0266  0.8920
   68MOL0     O 9048   4.876   3.284   6.697  0.0946  0.8435 -0.2049
   68MOL0     C 9049   4.765   3.362   6.696  0.3751  0.0800  0.2040
   68MOL0     C 9050   4.661   3.344   6.792 -0.6313 -0.6036  0.3409
   68MOL0     C 9051   4.546   3.424   6.787  0.0810  1.2202  0.0535
   68MOL0     C 9052   4.530   3.518   6.686  0.2227  0.5764  0.0085
   68MOL0     O 9053   4.408   3.572   6.682 -0.0579  0.1339 -0.0652
   68MOL0     C 9054   4.358   3.618   6.557  0.0406 -0.5099  0.4402
   68MOL0     C 9055   4.215   3.678   6.568 -0.3878 -0.2412  0.2544
   68MOL0     C 9056   4.106   3.573   6.597  0.7890  0.5845  0.0133
   68MOL0     C 9057   3.961   3.628   6.580 -0.0495  0.1718 -1.5457
   68MOL0     C 9058   3.912   3.641   6.430 -1.0511 -0.7505  1.0067
   68MOL0     C 9059   3.768   3.694   6.446 -1.2120  1.1865  0.3990
   68MOL0     C 9060   3.690   3.681   6.321  0.4977  0.3744 -1.1949
   68MOL0     C 9061   3.561   3.762   6.340 -0.1599  0.8301  0.4816
   68MOL0     N 9062   3.479   3.777   6.217 -0.8897 -0.2028  0.4030
   68MOL0     C 9063   3.391   3.687   6.166  0.8570 -0.0179 -1.1348
   68MOL0     C 9064   3.314   3.737   6.072 -0.4845 -0.4775  0.1024
   68MOL0     C 9065   3.210   3.663   5.996  0.1508 -0.7783  0.4728
   68MOL0     C 9066   3.083   3.618   6.084  0.1027  0.2169  0.1633
   68MOL0     C 9067   2.999   3.527   5.998  0.2410 -0.2038 -0.6214
   68MOL0     C 9068   2.868   3.517   6.067  0.3887 -1.0382  0.4095
   68MOL0     O 9069   2.893   3.466   6.204  0.5306  0.5534  0.0293
   68MOL0     C 9070   2.781   3.416   6.253  0.4534  0.5462 -0.3298
   68MOL0     C 9071   2.680   3.495   6.307  0.2984 -0.9393  0.3789
   68MOL0     C 9072   2.564   3.441   6.369 -0.4302 -1.1697 -0.2419
   68MOL0     C 9073   2.551   3.303   6.384 -0.1493  0.5722 -0.4703
   68MOL0     C 9074   2.441   3.236   6.457  0.0968 -0.6791  0.4491
   68MOL0     O 9075   2.390   3.125   6.408  0.0040  0.2318 -1.0484
   68MOL0     C 9076   2.274   3.081   6.463  0.8409 -0.1946 -0.6628
   68MOL0     C 9077   2.281   3.017   6.590 -0.3292  0.0397  0.1584
   68MOL0     C 9078   2.154   2.972   6.633 -0.2930  0.5005 -0.4623
   68MOL0     C 9079   2.030   2.988   6.566  0.1636 -1.0152  0.5562
   68MOL0     O 9080   1.912   2.938   6.607  0.0005 -0.0245 -1.0470
   68MOL0     C 9081   1.909   2.802   6.660  0.0270  0.7938  0.7811
   68MOL0     C 9082   1.768   2.808   6.711 -0.5086 -0.1807 -0.1062
   68MOL0     C 9083   1.670   2.801   6.589 -0.7263  0.5676  0.9800
   68MOL0     C 9084   1.521   2.797   6.637  0.4678 -0.8915 -0.8551
   68MOL0     C 9085   1.419   2.818   6.523 -0.8783  0.2519  0.4779
   68MOL0     C 9086   1.269   2.813   6.579 -0.4294  0.4054  0.1378
   68MOL0     C 9087   1.168   2.806   6.472 -0.7403  0.4259  0.2076
   68MOL0     C 9088   1.060   2.702   6.494  0.2077 -1.1080 -0.1752
   68MOL0    Cl 9089   0.997   2.651   6.337 -0.1563 -0.4084  0.0795
   68MOL0     C 9090   2.029   3.053   6.444 -0.8477 -0.5399  0.6233
   68MOL0     C 9091   2.157   3.108   6.397  0.0624  0.6311  1.0757
   68MOL0     O 9092   2.405   3.294   6.554  0.4109  0.2472 -0.0415
   68MOL0     C 9093   2.642   3.222   6.324 -0.0286 -0.3348 -0.5689
   68MOL0     C 9094   2.758   3.276   6.256  0.4061  0.6368 -0.0271
   68MOL0     N 9095   3.366   3.867   6.050 -0.6012 -0.3550  0.4757
   68MOL0     N 9096   3.447   3.888   6.147  0.4497  0.2621 -0.7262
   68MOL0     C 9097   4.625   3.534   6.584  0.1758 -0.5244 -0.0141
   68MOL0     C 9098   4.741   3.451   6.590  0.9024  0.4479 -0.7525
   68MOL0     C 9099   5.082   3.210   6.808  0.0154  0.0594 -0.0434
   68MOL0     C 9100   5.060   3.076   6.767 -0.0264 -0.0673  0.0205
   68MOL0     C 9101   5.158   2.976   6.765 -0.1318  0.4238 -0.5177
   68MOL0     C 9102   5.293   3.012   6.788 -0.4523 -0.2136  0.5373
   68MOL0     O 9103   5.412   2.932   6.779  0.1921  0.4223 -0.2081
   68MOL0     C 9104   5.379   2.788   6.767 -0.1430 -1.1149 -0.7770
   68MOL0     C 9105   5.510   2.711   6.803 -0.1413 -0.4403  0.3211
   68MOL0     C 9106   5.628   2.731   6.713 -0.4111 -0.3009 -0.0213
   68MOL0     C 9107   5.733   2.623   6.736 -0.2413  0.0939 -0.5680
   68MOL0     C 9108   5.682   2.488   6.692 -0.4511 -0.6542 -0.1472
   68MOL0     C 9109   5.662   2.384   6.645  0.5386  0.3294 -0.8312
   68MOL0     C 9110   5.316   3.145   6.834  0.2549 -0.2801 -0.6134
   68MOL0     C 9111   5.214   3.242   6.840  0.1979 -0.2617 -0.0694
   68MOL0     C 9112   5.258   3.388   6.879 -0.0508 -0.3878 -1.0657
   68MOL0     H 9113   4.677   3.265   6.865  1.4296  0.8578  1.6020
   68MOL0     H 9114   4.460   3.409   6.852  1.4154  3.2238  2.4505
   68MOL0     H 9115   4.429   3.691   6.517  1.0810 -1.6126  0.2175
   68MOL0     H 9116   4.355   3.544   6.477 -0.2576 -0.4576  0.4028
   68MOL0     H 9117   4.195   3.712   6.466 -1.2201 -4.0874 -1.0267
   68MOL0     H 9118   4.205   3.763   6.636 -0.5308 -0.1319  0.0970
   68MOL0     H 9119   4.116   3.533   6.698  1.9097 -0.1659 -0.3662
   68MOL0     H 9120   4.125   3.484   6.535  1.9302  1.3692 -0.8024
   68MOL0     H 9121   3.896   3.563   6.640  2.6797 -2.7284 -1.4467
   68MOL0     H 9122   3.962   3.726   6.628  1.0138  1.1231 -3.3887
   68MOL0     H 9123   3.972   3.713   6.374  2.2467 -1.7077  2.9992
   68MOL0     H 9124   3.918   3.543   6.383 -0.8939  0.1313 -0.9034
   68MOL0     H 9125   3.714   3.647   6.529  0.4399 -1.0126  0.3091
   68MOL0     H 9126   3.772   3.799   6.477  0.3550  1.6530 -1.2630
   68MOL0     H 9127   3.662   3.575   6.320 -3.4060  1.2230  0.2809
   68MOL0     H 9128   3.749   3.693   6.230  2.4282  4.6252  0.3517
   68MOL0     H 9129   3.499   3.699   6.404  2.1453 -2.0274  0.0587
   68MOL0     H 9130   3.583   3.857   6.390  0.2226  0.2940  1.3528
   68MOL0     H 9131   3.381   3.589   6.211  1.9138  0.6525  0.6929
   68MOL0     H 9132   3.170   3.725   5.916  2.4841  1.9229  1.2360
   68MOL0     H 9133   3.257   3.575   5.950 -0.9869 -0.3521 -1.6407
   68MOL0     H 9134   3.117   3.565   6.173  0.1758 -0.6582 -0.3744
   68MOL0     H 9135   3.025   3.701   6.124 -1.3932 -0.5225 -0.3881
   68MOL0     H 9136   3.047   3.429   5.989 -0.7309 -1.3432  3.8048
   68MOL0     H 9137   2.979   3.570   5.899  4.0142  1.5518 -0.7699
   68MOL0     H 9138   2.788   3.466   6.012  0.6113 -1.8157  0.7880
   68MOL0     H 9139   2.835   3.621   6.064 -2.1394 -1.7657 -0.0425
   68MOL0     H 9140   2.699   3.601   6.317  4.2881 -1.6747  2.4676
   68MOL0     H 9141   2.493   3.517   6.402 -0.1332 -1.8073  2.0353
   68MOL0     H 9142   2.377   3.017   6.640 -1.5936 -0.4663  2.7868
   68MOL0     H 9143   2.159   2.929   6.732  0.2053  2.9419  0.6448
   68MOL0     H 9144   1.929   2.718   6.593 -1.7634  0.9623 -0.0201
   68MOL0     H 9145   1.983   2.795   6.740  1.7631  2.2464 -0.6142
   68MOL0     H 9146   1.742   2.729   6.782  0.2901 -1.4409 -1.1536
   68MOL0     H 9147   1.745   2.905   6.756  2.4617  0.0882  0.9842
   68MOL0     H 9148   1.688   2.887   6.524  0.5167 -0.5935 -0.2766
   68MOL0     H 9149   1.681   2.708   6.532 -1.5130  0.3521  1.1615
   68MOL0     H 9150   1.503   2.879   6.707  2.3675 -0.8649 -0.3509
   68MOL0     H 9151   1.491   2.708   6.693 -2.3588 -0.8298 -2.0866
   68MOL0     H 9152   1.440   2.737   6.452  0.3987  0.7216  0.2998
   68MOL0     H 9153   1.436   2.907   6.463  1.5694 -1.3678 -1.4406
   68MOL0     H 9154   1.265   2.730   6.651  2.2399  1.1275  1.2675
   68MOL0     H 9155   1.255   2.910   6.628  2.3221  0.3176  1.2778
   68MOL0     H 9156   1.222   2.778   6.381  2.6795 -1.8622  2.6871
   68MOL0     H 9157   1.118   2.903   6.461  1.4355  1.3636 -2.3796
   68MOL0     H 9158   1.082   2.609   6.548 -4.9230 -1.6618  1.4556
   68MOL0     H 9159   0.975   2.749   6.542  0.0524 -1.7027  0.1473
   68MOL0     H 9160   1.942   3.084   6.385  0.5367  1.3752 -0.5598
   68MOL0     H 9161   2.169   3.171   6.309  0.4949  0.4452  0.9975
   68MOL0     H 9162   2.625   3.115   6.331  0.5169 -0.4546 -1.0447
   68MOL0     H 9163   2.825   3.201   6.214  0.8079  1.4722 -0.9168
   68MOL0     H 9164   4.613   3.614   6.511 -0.7962  0.6490  1.3750
   68MOL0     H 9165   4.816   3.457   6.513  0.5548 -2.9643 -1.4855
   68MOL0     H 9166   4.955   3.049   6.755  0.5010 -4.5370  3.0259
   68MOL0     H 9167   5.139   2.876   6.727  1.3930  1.4253 -4.3570
   68MOL0     H 9168   5.338   2.771   6.667  2.4656  0.3994 -2.2017
   68MOL0     H 9169   5.312   2.772   6.852 -1.7550  2.5208 -1.2080
   68MOL0     H 9170   5.496   2.603   6.810  1.1896 -0.8662 -2.3259
   68MOL0     H 9171   5.537   2.745   6.903 -1.5888  0.5743  0.4089
   68MOL0     H 9172   5.670   2.829   6.735 -0.2194 -0.2040 -0.7950
   68MOL0     H 9173   5.596   2.726   6.609 -1.4750 -6.1835  0.2711
   68MOL0     H 9174   5.826   2.646   6.683  1.7761  1.9449  3.3638
   68MOL0     H 9175   5.757   2.624   6.843  0.1175  2.7891 -0.6034
   68MOL0     H 9176   5.635   2.286   6.611  2.1764 -0.3681 -0.2021
   68MOL0     H 9177   5.412   3.185   6.866 -0.1999 -0.3437  0.9238
   68MOL0     H 9178   5.224   3.426   6.976 -3.3680 -0.4854 -2.0543
   68MOL0     H 9179   5.366   3.402   6.869 -0.4606  4.0187 -1.1177
   68MOL0     H 9180   5.202   3.463   6.823 -1.9194  3.2435  4.8494
   69MOL0     O 9181   1.889   1.916   9.802 -0.5063  0.5878 -0.1112
   69MOL0     C 9182   1.819   1.816   9.770  0.8304  0.1643  0.2514
   69MOL0     O 9183   1.699   1.781   9.826  0.1037  0.4642  0.4243
   69MOL0     C 9184   1.646   1.822   9.951  1.0205 -0.2685 -0.0033
   69MOL0     C 9185   1.567   1.935   9.950  0.6257  0.2450  0.6656
   69MOL0     C 9186   1.485   1.974  10.064 -1.0762 -0.1731 -0.1367
   69MOL0     C 9187   1.483   1.908  10.179  0.7180  0.5101 -0.8807
   69MOL0     O 9188   1.413   1.961  10.287 -0.9279 -0.1505  0.2783
   69MOL0     C 9189   1.418   1.900  10.416  0.3959 -0.5071  0.2324
   69MOL0     C 9190   1.315   1.970  10.503 -0.2225  0.5315 -0.3400
   69MOL0     C 9191   1.331   1.920  10.652 -1.2353  0.2094  0.3645
   69MOL0     C 9192   1.304   1.770  10.669  1.0002 -0.1598 -0.2512
   69MOL0     C 9193   1.277   1.757  10.823 -0.7682  0.3846 -0.4344
   69MOL0     C 9194   1.216   1.623  10.870 -0.1259 -0.0480 -0.5043
   69MOL0     C 9195   1.197   1.626  11.024 -0.2920  0.8296 -0.5897
   69MOL0     C 9196   1.332   1.600  11.098 -0.4056  0.1790 -0.3530
   69MOL0     N 9197   1.310   1.548  11.233  0.6053  0.4733  0.4806
   69MOL0     C 9198   1.399   1.467  11.293 -0.3470 -0.0011  0.3498
   69MOL0     C 9199   1.339   1.410  11.398  0.0486 -0.2768  0.9929
   69MOL0     C 9200   1.387   1.305  11.495  0.0735 -0.8572  0.4282
   69MOL0     C 9201   1.538   1.289  11.534 -0.2772 -0.5371  0.1896
   69MOL0     C 9202   1.563   1.146  11.586 -0.1186  0.0687  0.7105
   69MOL0     C 9203   1.523   1.125  11.731 -0.1763 -0.9503 -0.5606
   69MOL0     O 9204   1.583   1.005  11.783  0.4683 -0.6020  0.2888
   69MOL0     C 9205   1.516   0.883  11.769 -0.1205 -0.2542  0.2874
   69MOL0     C 9206   1.394   0.869  11.710 -0.6627 -0.7461  0.0718
   69MOL0     C 9207   1.336   0.749  11.672  0.2097  0.5508 -0.1988
   69MOL0     C 9208   1.400   0.622  11.690 -0.2246 -0.6138  0.7231
   69MOL0     C 9209   1.343   0.491  11.653 -0.1050  0.1900 -0.4878
   69MOL0     O 9210   1.221   0.496  11.591  0.0605  0.6069 -0.4538
   69MOL0     C 9211   1.164   0.379  11.558 -0.0898 -0.5954  0.2204
   69MOL0     C 9212   1.102   0.392  11.429 -0.1515 -0.5788 -0.8047
   69MOL0     C 9213   1.049   0.276  11.371 -0.2426 -0.6157  0.6377
   69MOL0     C 9214   1.071   0.153  11.429  0.3214 -0.7017 -0.1078
   69MOL0     O 9215   1.036   0.049  11.353  0.2950 -0.1354 -0.2277
   69MOL0     C 9216   0.931  -0.025  11.403  0.6289  0.4113  0.3467
   69MOL0     C 9217   0.880  -0.117  11.288  0.9639 -0.9060  0.0399
   69MOL0     C 9218   0.744  -0.173  11.332  0.2170  0.4986  0.6621
   69MOL0     C 9219   0.712  -0.308  11.261  0.3639 -0.3572  0.1863
   69MOL0     C 9220   0.571  -0.329  11.215  0.2750  0.3008  0.8208
   69MOL0     C 9221   0.545  -0.449  11.134  1.1485  0.4174  0.1740
   69MOL0     C 9222   0.614  -0.440  11.001 -0.5139 -0.6869  0.2341
   69MOL0     C 9223   0.635  -0.567  10.929  0.7821  0.7204 -0.9428
   69MOL0    Cl 9224   0.716  -0.692  11.034  0.0111 -0.3481 -0.3166
   69MOL0     C 9225   1.112   0.139  11.560  0.2529 -0.2054 -0.5070
   69MOL0     C 9226   1.157   0.256  11.623 -0.1261  0.5911 -0.3003
   69MOL0     O 9227   1.410   0.384  11.684 -0.7087 -0.1015  0.5293
   69MOL0     C 9228   1.521   0.638  11.758  0.1005 -0.1171 -0.9305
   69MOL0     C 9229   1.581   0.763  11.792 -0.4655  0.4297 -0.4399
   69MOL0     N 9230   1.209   1.468  11.406 -0.5237  0.0996  0.0730
   69MOL0     N 9231   1.195   1.551  11.308  0.4599  0.2385 -0.3822
   69MOL0     C 9232   1.564   1.795  10.186  0.4641 -0.8135 -0.3229
   69MOL0     C 9233   1.645   1.754  10.074 -0.5446  0.5060 -0.2178
   69MOL0     C 9234   1.849   1.747   9.642  0.3687 -0.2964 -0.4242
   69MOL0     C 9235   1.751   1.709   9.552  0.9038 -0.4353 -0.2083
   69MOL0     C 9236   1.777   1.647   9.433 -0.8897 -0.4346 -0.0285
   69MOL0     C 9237   1.906   1.629   9.391  0.1626  0.4105  0.3708
   69MOL0     O 9238   1.914   1.571   9.265  0.0717  0.2145 -0.2451
   69MOL0     C 9239   2.030   1.589   9.183 -0.3182  0.6111 -0.2529
   69MOL0     C 9240   1.988   1.547   9.043 -0.1060  0.1563 -0.7041
   69MOL0     C 9241   1.891   1.639   8.969 -0.4244 -0.3618 -0.3568
   69MOL0     C 9242   1.750   1.578   8.972  0.7356 -0.9320 -0.8644
   69MOL0     C 9243   1.656   1.645   8.876 -0.9360 -0.0980 -1.1231
   69MOL0     C 9244   1.600   1.714   8.795  0.2793  0.2327  1.0161
   69MOL0     C 9245   2.010   1.657   9.481 -0.4646  0.8703  0.5901
   69MOL0     C 9246   1.980   1.707   9.610 -1.1228 -0.0654 -0.2345
   69MOL0     C 9247   2.099   1.726   9.703  0.5502 -0.4389 -0.1473
   69MOL0     H 9248   1.560   1.993   9.859  0.3205  1.3521  1.3764
   69MOL0     H 9249   1.422   2.062  10.064  0.6277  1.2470  3.1883
   69MOL0     H 9250   1.390   1.794  10.414 -1.0606 -0.1590  0.9036
   69MOL0     H 9251   1.521   1.900  10.452  0.8840  1.6522 -0.9774
   69MOL0     H 9252   1.213   1.941  10.478 -0.3569  1.0991 -0.4655
   69MOL0     H 9253   1.326   2.079  10.494  1.1424  0.5677  1.1879
   69MOL0     H 9254   1.254   1.974  10.708 -0.7939  1.5989 -0.3408
   69MOL0     H 9255   1.427   1.953  10.691 -1.5402 -0.5121  1.8105
   69MOL0     H 9256   1.217   1.743  10.609 -0.9026  2.6843  0.9838
   69MOL0     H 9257   1.390   1.706  10.646  2.5665 -0.8741  5.9468
   69MOL0     H 9258   1.367   1.779  10.883 -0.8411 -1.1553  0.2877
   69MOL0     H 9259   1.207   1.836  10.853  0.3239  0.4574  2.2165
   69MOL0     H 9260   1.122   1.603  10.819  0.4367  0.5427 -1.8244
   69MOL0     H 9261   1.288   1.546  10.843 -0.9354 -0.7792 -0.6129
   69MOL0     H 9262   1.130   1.542  11.043 -0.3039  0.6235 -1.4889
   69MOL0     H 9263   1.143   1.709  11.069 -3.8269 -0.5552 -1.9429
   69MOL0     H 9264   1.397   1.535  11.039  1.6212  1.9016 -0.1322
   69MOL0     H 9265   1.383   1.696  11.091  2.7689 -1.4918 -2.2773
   69MOL0     H 9266   1.502   1.457  11.259 -0.2454 -1.2523  0.9674
   69MOL0     H 9267   1.344   1.324  11.594  0.6466  2.2665  0.1992
   69MOL0     H 9268   1.341   1.214  11.456 -2.5174  1.1696 -1.6627
   69MOL0     H 9269   1.609   1.303  11.452  0.6130 -2.9326  0.4584
   69MOL0     H 9270   1.573   1.363  11.606  2.2997 -0.1415 -1.3399
   69MOL0     H 9271   1.670   1.119  11.583  0.2450  1.4853 -1.2019
   69MOL0     H 9272   1.512   1.077  11.518  1.2360 -0.9421  0.6633
   69MOL0     H 9273   1.415   1.130  11.746 -0.0560  0.0272  0.0050
   69MOL0     H 9274   1.564   1.197  11.802 -0.7417 -2.2161  1.1214
   69MOL0     H 9275   1.330   0.950  11.678 -0.4667 -0.7670 -0.3827
   69MOL0     H 9276   1.242   0.764  11.619  0.8330  1.3317 -1.1159
   69MOL0     H 9277   1.115   0.487  11.379  0.9597 -1.0831 -1.5254
   69MOL0     H 9278   1.005   0.285  11.272 -0.8196  0.4529  0.9791
   69MOL0     H 9279   0.974  -0.093  11.476  0.0481  1.0305  1.2784
   69MOL0     H 9280   0.858   0.034  11.458  2.7310  1.2643  2.4091
   69MOL0     H 9281   0.866  -0.064  11.193 -2.4254  2.3502  2.0676
   69MOL0     H 9282   0.942  -0.206  11.277  1.5370 -0.4338 -0.6406
   69MOL0     H 9283   0.734  -0.194  11.439 -1.0668  0.6325  0.5842
   69MOL0     H 9284   0.675  -0.093  11.305  0.7286  1.9417  3.3349
   69MOL0     H 9285   0.729  -0.380  11.342 -0.5364  0.8661  1.5145
   69MOL0     H 9286   0.788  -0.330  11.185 -1.6261  0.3168 -2.1060
   69MOL0     H 9287   0.549  -0.247  11.146  0.0599 -0.2241  0.2603
   69MOL0     H 9288   0.509  -0.322  11.305 -1.4997  0.7711 -0.3844
   69MOL0     H 9289   0.577  -0.537  11.191 -1.0478  1.9290  4.1522
   69MOL0     H 9290   0.436  -0.449  11.121  0.8969  2.4618  1.8036
   69MOL0     H 9291   0.711  -0.391  11.014 -1.1733  1.1544 -1.3255
   69MOL0     H 9292   0.555  -0.379  10.932 -0.3524 -0.0531  0.6460
   69MOL0     H 9293   0.538  -0.606  10.897 -0.1449 -0.4485  2.8076
   69MOL0     H 9294   0.705  -0.559  10.846  2.1816 -0.2886  0.1002
   69MOL0     H 9295   1.110   0.037  11.600 -1.7458 -0.3351 -0.8333
   69MOL0     H 9296   1.197   0.249  11.724 -0.2576 -3.7696 -0.3503
   69MOL0     H 9297   1.578   0.550  11.790  0.2373  1.1219  2.7440
   69MOL0     H 9298   1.681   0.757  11.834  0.3830 -0.9831 -2.5009
   69MOL0     H 9299   1.576   1.742  10.280  1.9186  1.5061  0.8910
   69MOL0     H 9300   1.702   1.662  10.079 -0.4315  0.6413  2.1756
   69MOL0     H 9301   1.653   1.741   9.586  1.0858 -0.0445 -0.0409
   69MOL0     H 9302   1.705   1.632   9.353 -1.1138 -1.9332  0.4186
   69MOL0     H 9303   2.110   1.520   9.213  0.4829  0.3678 -2.6928
   69MOL0     H 9304   2.070   1.691   9.183 -0.1197  0.6700 -4.2530
   69MOL0     H 9305   1.946   1.446   9.046  0.1592  0.0366 -0.9073
   69MOL0     H 9306   2.069   1.524   8.973 -3.2805 -2.6533 -3.9016
   69MOL0     H 9307   1.917   1.654   8.864 -1.6161 -2.1105 -0.9314
   69MOL0     H 9308   1.881   1.743   9.002  0.5295 -0.3970  0.0856
   69MOL0     H 9309   1.750   1.474   8.937 -1.1896 -1.3769  0.2695
   69MOL0     H 9310   1.712   1.580   9.074 -0.8334 -1.4842 -1.4060
   69MOL0     H 9311   1.567   1.780   8.717 -2.1143 -0.5452  1.2838
   69MOL0     H 9312   2.114   1.644   9.451  0.0816  3.3739  1.1347
   69MOL0     H 9313   2.159   1.635   9.714 -0.2780 -0.9829  0.0423
   69MOL0     H 9314   2.159   1.806   9.660  0.0062 -0.7465 -1.5528
   69MOL0     H 9315   2.064   1.762   9.800  1.8807 -0.4970  0.3643
   70MOL0     O 9316   1.325  11.179   4.076 -0.3991 -0.6442 -0.1250
   70MOL0     C 9317   1.291  11.293   4.054 -0.6800  0.6932 -0.0095
   70MOL0     O 9318   1.190  11.359   4.118  0.4078 -0.8590 -0.7022
   70MOL0     C 9319   1.163  11.292   4.231  0.1345 -0.6948 -0.7525
   70MOL0     C 9320   1.225  11.322   4.359 -0.5860 -0.5880 -0.7038
   70MOL0     C 9321   1.174  11.266   4.479 -0.1657 -0.3674  0.2282
   70MOL0     C 9322   1.082  11.162   4.466  0.1654 -0.1730  0.1184
   70MOL0     O 9323   1.026  11.110   4.584  0.8691  0.0385  0.8784
   70MOL0     C 9324   1.049  10.965   4.605  0.3403  0.5041 -0.8965
   70MOL0     C 9325   0.976  10.919   4.736 -0.1550 -0.3789  0.1422
   70MOL0     C 9326   1.040  10.983   4.863 -0.2218 -0.2211  0.1425
   70MOL0     C 9327   1.156  10.901   4.908 -0.1338 -0.3637 -0.6520
   70MOL0     C 9328   1.104  10.775   4.988 -0.6467 -0.3870  0.3381
   70MOL0     C 9329   1.227  10.707   5.047 -1.2136 -0.5040  0.4943
   70MOL0     C 9330   1.179  10.562   5.084 -0.0503  0.4718  0.6880
   70MOL0     C 9331   1.294  10.468   5.117 -0.7121  0.0629  0.1465
   70MOL0     N 9332   1.236  10.334   5.161 -1.2678 -0.5284  0.7972
   70MOL0     C 9333   1.143  10.270   5.085 -0.3662  0.2274 -0.4813
   70MOL0     C 9334   1.095  10.176   5.172  0.3703  0.1886 -0.0149
   70MOL0     C 9335   0.988  10.071   5.165 -0.1866 -0.1120 -0.1768
   70MOL0     C 9336   0.883  10.116   5.053  0.6535  0.1091 -0.6042
   70MOL0     C 9337   0.920  10.047   4.918 -0.7689 -0.4896 -1.0271
   70MOL0     C 9338   0.876  10.114   4.790  0.2641  0.5625 -0.1426
   70MOL0     O 9339   0.932  10.247   4.762 -0.3021 -0.2047  0.0960
   70MOL0     C 9340   0.898  10.319   4.645  0.1444  0.2143 -0.5356
   70MOL0     C 9341   0.951  10.448   4.642 -0.5269 -0.1733  0.5528
   70MOL0     C 9342   0.933  10.529   4.521  0.0753 -0.6798  0.4434
   70MOL0     C 9343   0.869  10.478   4.414 -0.3180  0.4381  0.5103
   70MOL0     C 9344   0.850  10.571   4.296  0.0058  0.1697  0.2993
   70MOL0     O 9345   0.907  10.691   4.302  0.0863 -0.9327  0.1601
   70MOL0     C 9346   0.849  10.787   4.220 -0.1992 -0.6526  1.2979
   70MOL0     C 9347   0.714  10.807   4.207  0.2117 -0.4178 -0.2073
   70MOL0     C 9348   0.668  10.889   4.102 -0.0462  0.1789  0.3894
   70MOL0     C 9349   0.749  10.960   4.020  0.6223  0.4535  0.3128
   70MOL0     O 9350   0.699  11.033   3.918 -0.0862 -0.9699 -0.5670
   70MOL0     C 9351   0.594  10.973   3.843  0.7509  0.1166  0.4021
   70MOL0     C 9352   0.581  11.029   3.701  0.9848 -1.1561 -0.3556
   70MOL0     C 9353   0.696  10.999   3.607  0.0562  0.8970 -0.4844
   70MOL0     C 9354   0.649  10.949   3.468 -0.8901 -0.2604  1.0050
   70MOL0     C 9355   0.773  10.915   3.380 -0.4279 -0.4830  0.2725
   70MOL0     C 9356   0.737  10.872   3.232 -0.8130  0.4011  0.0426
   70MOL0     C 9357   0.664  10.997   3.167 -0.0444 -0.0954  0.0710
   70MOL0     C 9358   0.626  10.974   3.019 -0.6084 -0.6767 -0.0528
   70MOL0    Cl 9359   0.565  10.813   2.984  0.2590 -0.0856 -0.3522
   70MOL0     C 9360   0.885  10.938   4.038  0.6133 -1.1930 -0.3739
   70MOL0     C 9361   0.936  10.851   4.136  0.4754  0.6247 -0.4190
   70MOL0     O 9362   0.801  10.515   4.198 -0.0662 -0.3694 -0.4025
   70MOL0     C 9363   0.813  10.354   4.421  0.8006 -0.0509 -0.1184
   70MOL0     C 9364   0.829  10.270   4.528 -0.7606 -0.8013 -0.6754
   70MOL0     N 9365   1.180  10.172   5.284  0.4019  0.8721 -0.1877
   70MOL0     N 9366   1.258  10.276   5.279  0.2756  0.4920 -0.5679
   70MOL0     C 9367   1.045  11.119   4.338  0.0795  0.0106  0.3392
   70MOL0     C 9368   1.072  11.186   4.218  0.9256  0.3413  0.0179
   70MOL0     C 9369   1.355  11.374   3.948  1.1540 -0.8129  0.1431
   70MOL0     C 9370   1.332  11.516   3.947  0.1089  0.3594 -0.3381
   70MOL0     C 9371   1.404  11.608   3.877 -0.2811  0.4875  0.6439
   70MOL0     C 9372   1.489  11.561   3.776  0.2797 -0.0700 -0.2284
   70MOL0     O 9373   1.543  11.657   3.688 -0.6196 -0.5757  0.0616
   70MOL0     C 9374   1.661  11.625   3.618  0.5767  0.0869 -0.7227
   70MOL0     C 9375   1.716  11.743   3.534  0.4755  0.5207  0.1289
   70MOL0     C 9376   1.818  11.829   3.615  0.4317  0.5388  0.3383
   70MOL0     C 9377   1.765  11.883   3.751  0.3336  0.7397  0.1374
   70MOL0     C 9378   1.847  11.999   3.781  0.3106 -1.2212 -0.9219
   70MOL0     C 9379   1.906  12.100   3.831  0.0457  0.1603  0.9980
   70MOL0     C 9380   1.513  11.420   3.767 -0.0794 -0.3920 -0.1705
   70MOL0     C 9381   1.454  11.330   3.854 -0.7801 -0.5560  0.1222
   70MOL0     C 9382   1.477  11.191   3.821 -0.6498  0.6021  0.0995
   70MOL0     H 9383   1.306  11.394   4.361  0.6480 -1.9513  1.2496
   70MOL0     H 9384   1.213  11.319   4.565  0.9478 -2.8413  1.3412
   70MOL0     H 9385   0.998  10.911   4.524  0.2709  1.9336 -1.8273
   70MOL0     H 9386   1.155  10.940   4.610  0.4878  1.0662 -1.2485
   70MOL0     H 9387   0.978  10.809   4.742  3.9929 -0.3987  1.8514
   70MOL0     H 9388   0.878  10.966   4.742 -0.1345 -0.4710  1.7352
   70MOL0     H 9389   0.972  10.998   4.946  0.0076  0.2251  0.2577
   70MOL0     H 9390   1.088  11.076   4.831  2.2428 -0.9286  1.5248
   70MOL0     H 9391   1.222  10.859   4.832  3.4398  1.7506  1.0004
   70MOL0     H 9392   1.210  10.965   4.979 -0.2691 -0.2163 -0.6811
   70MOL0     H 9393   1.034  10.796   5.070  0.9529  3.8014  0.8736
   70MOL0     H 9394   1.058  10.710   4.913 -1.9733  2.5725 -1.6201
   70MOL0     H 9395   1.303  10.694   4.970 -1.7922 -3.5476  0.3267
   70MOL0     H 9396   1.272  10.762   5.130 -0.9232  0.1433 -0.0849
   70MOL0     H 9397   1.129  10.521   4.996 -3.9134 -0.0778  2.8727
   70MOL0     H 9398   1.108  10.566   5.168  0.2335  1.4150  0.8932
   70MOL0     H 9399   1.356  10.448   5.029 -0.4121 -0.3546  0.4441
   70MOL0     H 9400   1.364  10.503   5.194  1.2247 -1.7859 -0.6562
   70MOL0     H 9401   1.107  10.291   4.985  0.7614 -2.1095 -1.4553
   70MOL0     H 9402   1.023   9.968   5.154 -1.9296 -0.4533 -4.6036
   70MOL0     H 9403   0.922  10.083   5.252 -2.8713  3.4565 -2.3960
   70MOL0     H 9404   0.779  10.094   5.076  0.1533  2.7602 -0.0246
   70MOL0     H 9405   0.883  10.223   5.031 -1.3420  0.0799 -0.9265
   70MOL0     H 9406   0.874   9.949   4.931 -1.4637 -0.2612 -1.7082
   70MOL0     H 9407   1.027  10.027   4.931 -0.8278 -0.2247 -0.1194
   70MOL0     H 9408   0.767  10.106   4.776  0.1073  0.9573  0.8014
   70MOL0     H 9409   0.911  10.047   4.711 -3.9007 -1.9011 -0.2032
   70MOL0     H 9410   0.995  10.493   4.730  1.1560  2.8737 -1.6571
   70MOL0     H 9411   0.979  10.627   4.520  1.3242 -1.2521  0.5083
   70MOL0     H 9412   0.651  10.751   4.274  1.0255  0.1985  1.1167
   70MOL0     H 9413   0.563  10.918   4.094 -0.1964 -0.4341  0.1322
   70MOL0     H 9414   0.618  10.867   3.836 -1.4093 -0.5284  1.7577
   70MOL0     H 9415   0.497  10.984   3.892 -0.8742 -1.4034 -2.2743
   70MOL0     H 9416   0.487  10.988   3.662  0.2200 -0.4000  0.6299
   70MOL0     H 9417   0.581  11.138   3.699  0.6589 -1.1268  0.6381
   70MOL0     H 9418   0.754  11.090   3.592 -0.6121  1.2975 -0.6960
   70MOL0     H 9419   0.765  10.935   3.663 -0.7896 -0.2684 -0.7437
   70MOL0     H 9420   0.589  11.027   3.421 -0.6575  0.5884  2.0693
   70MOL0     H 9421   0.587  10.859   3.471 -1.1589 -0.1288 -0.3360
   70MOL0     H 9422   0.822  10.831   3.428 -3.7450 -2.4986  0.4578
   70MOL0     H 9423   0.830  11.009   3.382 -1.6456  0.3335  3.8928
   70MOL0     H 9424   0.820  10.844   3.166 -0.8519  1.2413 -0.3760
   70MOL0     H 9425   0.671  10.786   3.224 -0.4648  0.2662 -1.9952
   70MOL0     H 9426   0.713  11.094   3.180  0.1629  0.1577 -2.1842
   70MOL0     H 9427   0.563  11.009   3.209 -0.5533 -0.9062 -0.8835
   70MOL0     H 9428   0.555  11.041   2.970 -0.1893 -1.2831 -1.5524
   70MOL0     H 9429   0.724  10.990   2.972 -1.3020  1.4608 -0.8858
   70MOL0     H 9430   0.962  10.986   3.979  2.5075 -0.1988  2.6712
   70MOL0     H 9431   1.042  10.827   4.144  0.0580 -1.2057  0.0963
   70MOL0     H 9432   0.762  10.302   4.340  0.2298  0.2329  0.0606
   70MOL0     H 9433   0.783  10.171   4.531 -2.6000  0.0359  1.7051
   70MOL0     H 9434   0.979  11.033   4.336  2.0435 -1.6251 -2.8837
   70MOL0     H 9435   1.006  11.168   4.134 -1.1432 -0.0069  1.6518
   70MOL0     H 9436   1.254  11.562   4.008 -1.8125 -3.4231  0.3513
   70MOL0     H 9437   1.382  11.713   3.862 -1.6189  0.0228 -0.8937
   70MOL0     H 9438   1.631  11.538   3.560 -2.1143  0.3324  0.1878
   70MOL0     H 9439   1.734  11.593   3.694 -1.6846 -2.4382  0.5320
   70MOL0     H 9440   1.631  11.794   3.487 -0.7631 -2.0086 -0.5460
   70MOL0     H 9441   1.779  11.694   3.459  1.1429  4.7409 -2.4164
   70MOL0     H 9442   1.854  11.913   3.556 -0.0272 -0.9577 -2.2279
   70MOL0     H 9443   1.901  11.760   3.636 -0.1419  0.2207  1.6562
   70MOL0     H 9444   1.664  11.924   3.741  0.5453  1.6053  1.4348
   70MOL0     H 9445   1.765  11.812   3.834 -0.6355 -0.9306 -1.2300
   70MOL0     H 9446   1.956  12.185   3.873  1.5330 -0.8055  1.2586
   70MOL0     H 9447   1.578  11.380   3.690  0.6910 -1.4931  1.0085
   70MOL0     H 9448   1.492  11.126   3.908 -1.8305 -1.0248 -0.8601
   70MOL0     H 9449   1.399  11.152   3.756 -1.1021  2.4412 -0.4978
   70MOL0     H 9450   1.578  11.193   3.779  0.7006  2.6899  3.1070
   71MOL0     O 9451   6.053   9.128   8.907 -0.0770  0.5913  0.5200
   71MOL0     C 9452   6.053   9.058   8.812  0.2316 -0.2970  0.6360
   71MOL0     O 9453   6.135   8.957   8.791  0.3973 -0.5987  0.6351
   71MOL0     C 9454   6.138   8.856   8.881  0.5969  0.7058 -0.0778
   71MOL0     C 9455   6.066   8.832   8.998 -1.0765 -0.0274  0.6923
   71MOL0     C 9456   6.090   8.725   9.081 -0.6622 -0.1747  0.2567
   71MOL0     C 9457   6.189   8.630   9.056 -0.3222  0.1616  0.6087
   71MOL0     O 9458   6.212   8.518   9.138  0.4629  0.4253  0.0500
   71MOL0     C 9459   6.124   8.487   9.245  0.5408  0.1588 -0.2382
   71MOL0     C 9460   6.135   8.346   9.291 -0.5887  0.6781  0.5209
   71MOL0     C 9461   6.285   8.290   9.254  0.3300 -0.7258  0.5024
   71MOL0     C 9462   6.409   8.360   9.325 -0.2390 -0.5727  0.2523
   71MOL0     C 9463   6.365   8.373   9.466  0.1504 -0.8144  0.1361
   71MOL0     C 9464   6.481   8.400   9.566 -0.0261 -0.1969 -0.8610
   71MOL0     C 9465   6.519   8.277   9.652 -0.9854 -0.7285 -0.2125
   71MOL0     C 9466   6.613   8.325   9.765  0.1189  0.4498 -0.4578
   71MOL0     N 9467   6.534   8.378   9.869 -0.3191 -1.0771 -0.0784
   71MOL0     C 9468   6.408   8.338   9.919 -1.0821  0.3406  0.9280
   71MOL0     C 9469   6.401   8.398  10.038  0.1686 -0.5678  0.8443
   71MOL0     C 9470   6.304   8.359  10.128  0.3613 -0.4015  0.0190
   71MOL0     C 9471   6.176   8.422  10.078  0.2419  1.1251  0.0477
   71MOL0     C 9472   6.064   8.349  10.157 -0.3416  0.4057  0.2514
   71MOL0     C 9473   6.018   8.222  10.084 -0.7680  0.3385 -0.1696
   71MOL0     O 9474   5.947   8.259   9.966 -0.3306 -0.6504  0.6449
   71MOL0     C 9475   5.816   8.272   9.984 -0.4133  1.4276 -0.0859
   71MOL0     C 9476   5.739   8.159  10.010 -0.2556  0.5731 -0.4611
   71MOL0     C 9477   5.601   8.172  10.027  0.2652 -1.0492 -0.2094
   71MOL0     C 9478   5.538   8.304  10.013  0.5293  0.6087 -0.7297
   71MOL0     C 9479   5.392   8.311  10.026  1.0697 -0.0177 -0.1844
   71MOL0     O 9480   5.338   8.415  10.088  0.0450 -0.2678 -0.4937
   71MOL0     C 9481   5.217   8.474  10.076  0.5302  0.8031  0.1850
   71MOL0     C 9482   5.157   8.469   9.952  1.2733 -0.1281 -0.3020
   71MOL0     C 9483   5.027   8.513   9.937  0.0012 -1.0179 -0.1099
   71MOL0     C 9484   4.957   8.571  10.038  0.3392  0.5572 -0.7831
   71MOL0     O 9485   4.831   8.616  10.029  0.6215  0.0289 -0.1745
   71MOL0     C 9486   4.730   8.504  10.028  0.1364  0.8271  0.1729
   71MOL0     C 9487   4.664   8.496   9.891 -0.0930 -0.4703  0.5149
   71MOL0     C 9488   4.555   8.599   9.864 -0.3460 -0.5911 -0.5509
   71MOL0     C 9489   4.432   8.596   9.957 -0.3598 -0.1743  0.6322
   71MOL0     C 9490   4.370   8.736   9.985  0.4900  0.4714  0.5894
   71MOL0     C 9491   4.219   8.726   9.998 -0.7015 -0.8987 -1.8493
   71MOL0     C 9492   4.184   8.637  10.126  0.4269 -0.2218 -0.0857
   71MOL0     C 9493   4.029   8.630  10.140  0.1675 -0.1488 -0.1291
   71MOL0    Cl 9494   3.955   8.537  10.009 -0.6025 -0.2309 -0.2057
   71MOL0     C 9495   5.026   8.593  10.166  1.3077 -0.4594  1.2654
   71MOL0     C 9496   5.155   8.538  10.184  0.1241 -0.1108  0.2152
   71MOL0     O 9497   5.332   8.222   9.958  0.0349 -0.0110 -0.0025
   71MOL0     C 9498   5.617   8.412   9.981  0.2384 -0.5165 -0.2616
   71MOL0     C 9499   5.761   8.395   9.973  0.7314  0.1914  0.2589
   71MOL0     N 9500   6.505   8.479  10.062  0.4537 -0.0880 -0.0159
   71MOL0     N 9501   6.583   8.461   9.961  0.2066  0.0463  0.4440
   71MOL0     C 9502   6.265   8.660   8.942  0.7597  0.4635 -0.5708
   71MOL0     C 9503   6.237   8.765   8.851  0.6342  0.4528 -0.1075
   71MOL0     C 9504   5.956   9.091   8.699 -0.8931 -0.0478  0.1977
   71MOL0     C 9505   5.979   9.056   8.564  0.0916  0.0384 -0.5264
   71MOL0     C 9506   5.896   9.092   8.464 -0.6816  0.2402 -0.6149
   71MOL0     C 9507   5.774   9.153   8.492  0.7791 -0.3476  0.0862
   71MOL0     O 9508   5.676   9.191   8.401 -0.2730  0.3142  0.0771
   71MOL0     C 9509   5.686   9.146   8.263  0.6903 -0.3260 -1.2430
   71MOL0     C 9510   5.546   9.166   8.196  0.4271  0.5239 -0.0238
   71MOL0     C 9511   5.530   9.324   8.171  0.3579 -0.4784  0.4718
   71MOL0     C 9512   5.400   9.362   8.103  0.1463 -0.2664  0.0992
   71MOL0     C 9513   5.290   9.348   8.199 -0.2433  0.4003  0.3529
   71MOL0     C 9514   5.202   9.328   8.273  0.1603  0.1760 -0.2442
   71MOL0     C 9515   5.744   9.184   8.623 -0.4161  0.2816  0.5243
   71MOL0     C 9516   5.835   9.158   8.732  0.1728  0.6223  0.4468
   71MOL0     C 9517   5.782   9.193   8.872  0.8083  0.1978 -0.4749
   71MOL0     H 9518   5.991   8.903   9.029 -0.3720  0.6751  0.8228
   71MOL0     H 9519   6.008   8.712   9.151 -2.4554 -1.7876 -1.9830
   71MOL0     H 9520   6.153   8.545   9.334  1.5334 -3.7635  2.2630
   71MOL0     H 9521   6.019   8.511   9.224  0.6121  0.9394  0.2244
   71MOL0     H 9522   6.062   8.284   9.239  1.7511  0.1587 -2.5088
   71MOL0     H 9523   6.113   8.338   9.397  0.2579  3.5881  1.0341
   71MOL0     H 9524   6.298   8.285   9.146  0.3341  1.6812  0.3311
   71MOL0     H 9525   6.297   8.184   9.278 -0.5213 -0.8027  0.6211
   71MOL0     H 9526   6.502   8.304   9.320  1.5338  2.1750  0.3349
   71MOL0     H 9527   6.431   8.457   9.279  1.1863 -1.2645 -0.5908
   71MOL0     H 9528   6.295   8.457   9.471  1.5341  0.4172 -0.4344
   71MOL0     H 9529   6.307   8.281   9.478  1.0933 -1.5924 -1.0529
   71MOL0     H 9530   6.574   8.435   9.521  1.8782 -1.8944  1.4877
   71MOL0     H 9531   6.446   8.474   9.638 -1.6534 -2.2535  0.5500
   71MOL0     H 9532   6.578   8.210   9.588 -0.4863  0.2091 -0.7560
   71MOL0     H 9533   6.432   8.223   9.690 -1.1055 -1.4163 -1.4168
   71MOL0     H 9534   6.670   8.245   9.814 -0.2794  1.5736  2.0336
   71MOL0     H 9535   6.686   8.402   9.736 -1.4427  2.5187  0.7533
   71MOL0     H 9536   6.343   8.273   9.862  1.0262 -2.0083  1.0094
   71MOL0     H 9537   6.308   8.251  10.139  1.9458 -0.7538 -2.9597
   71MOL0     H 9538   6.338   8.388  10.228 -1.4907 -4.5375  2.0758
   71MOL0     H 9539   6.171   8.530  10.095  2.7617  1.1345  1.1256
   71MOL0     H 9540   6.163   8.404   9.971  0.7625 -1.3000  0.3342
   71MOL0     H 9541   5.969   8.402  10.144 -0.1027  0.2597 -2.8856
   71MOL0     H 9542   6.084   8.315  10.259 -2.0577 -2.7030 -0.3438
   71MOL0     H 9543   5.963   8.157  10.153  1.0253 -2.3855 -1.1284
   71MOL0     H 9544   6.110   8.165  10.065  0.0369  0.7808  2.1024
   71MOL0     H 9545   5.774   8.057  10.023 -1.3642  0.2172 -0.1609
   71MOL0     H 9546   5.541   8.085  10.051  1.0065 -1.6230 -0.4014
   71MOL0     H 9547   5.204   8.415   9.870  1.2188 -0.2082 -0.2801
   71MOL0     H 9548   4.982   8.496   9.840 -0.4038  2.1983 -0.5961
   71MOL0     H 9549   4.779   8.414  10.064 -0.0772  1.3450  1.8248
   71MOL0     H 9550   4.654   8.523  10.104  0.4774  0.0558  0.7113
   71MOL0     H 9551   4.733   8.497   9.806 -0.0104  2.1778  0.5208
   71MOL0     H 9552   4.607   8.403   9.883 -0.2480 -0.2391 -1.5972
   71MOL0     H 9553   4.606   8.696   9.867  3.4533 -2.4011 -0.3782
   71MOL0     H 9554   4.514   8.580   9.764 -0.0622 -5.7321  0.0643
   71MOL0     H 9555   4.460   8.543  10.048  3.5426  1.8233  0.8183
   71MOL0     H 9556   4.356   8.535   9.907 -2.1275  2.1867  0.2755
   71MOL0     H 9557   4.393   8.817   9.915 -0.2868 -0.5105 -0.8517
   71MOL0     H 9558   4.413   8.763  10.083  4.2356 -3.0603  0.1648
   71MOL0     H 9559   4.166   8.822  10.002  0.1210 -0.4617  1.6893
   71MOL0     H 9560   4.179   8.673   9.910 -0.6484 -4.3707  0.0626
   71MOL0     H 9561   4.218   8.686  10.218  1.3982  1.4305 -1.2914
   71MOL0     H 9562   4.216   8.533  10.112  0.4927 -0.1288 -0.6435
   71MOL0     H 9563   3.990   8.575  10.226 -0.4093  0.2136 -0.1548
   71MOL0     H 9564   3.984   8.730  10.142 -1.2992 -0.7881 -0.1778
   71MOL0     H 9565   4.965   8.638  10.243  0.7042 -1.3836  1.3376
   71MOL0     H 9566   5.212   8.541  10.276 -0.0359  1.6646  0.2883
   71MOL0     H 9567   5.580   8.513   9.967 -0.1746 -0.2463  2.3181
   71MOL0     H 9568   5.819   8.484   9.951  1.5769 -0.4579 -0.1788
   71MOL0     H 9569   6.350   8.593   8.934  1.3315  1.0259  0.6038
   71MOL0     H 9570   6.304   8.781   8.767  1.6077 -2.5242  0.0027
   71MOL0     H 9571   6.065   8.998   8.534 -2.0099 -3.9336  0.5370
   71MOL0     H 9572   5.922   9.065   8.362  0.3499 -2.6838  0.3287
   71MOL0     H 9573   5.727   9.046   8.248 -2.1638 -1.3883 -2.7377
   71MOL0     H 9574   5.754   9.222   8.222 -0.1727  3.1251  2.9349
   71MOL0     H 9575   5.462   9.110   8.240  1.9733 -3.3166 -1.4909
   71MOL0     H 9576   5.560   9.120   8.098  4.9326  2.9491 -0.7614
   71MOL0     H 9577   5.605   9.350   8.097 -0.7516 -1.2374 -0.9662
   71MOL0     H 9578   5.542   9.386   8.260  0.0311  2.5196 -1.4540
   71MOL0     H 9579   5.411   9.464   8.065 -0.0766 -0.9775 -2.0290
   71MOL0     H 9580   5.392   9.300   8.013  1.9993  4.7374 -4.0896
   71MOL0     H 9581   5.125   9.329   8.349 -0.3744 -0.7119 -0.7546
   71MOL0     H 9582   5.643   9.221   8.638 -0.7117 -0.5885  0.7623
   71MOL0     H 9583   5.833   9.275   8.922 -2.6678  0.2118  3.6256
   71MOL0     H 9584   5.676   9.220   8.877  0.5773 -0.8515  1.1553
   71MOL0     H 9585   5.784   9.112   8.945 -1.7545 -0.7759 -1.3633
   72MOL0     O 9586   8.695   0.300  11.344  0.1388 -0.7455 -0.2757
   72MOL0     C 9587   8.692   0.183  11.373  0.4073 -0.1931 -0.4269
   72MOL0     O 9588   8.609   0.131  11.465 -0.1234  0.7957 -1.2137
   72MOL0     C 9589   8.488   0.195  11.495  0.3887 -0.0146  0.0841
   72MOL0     C 9590   8.479   0.319  11.561  0.7280  0.1462  1.0320
   72MOL0     C 9591   8.351   0.387  11.565 -0.2764  0.0684 -0.0628
   72MOL0     C 9592   8.236   0.323  11.529  0.0473  0.3175  0.2487
   72MOL0     O 9593   8.121   0.401  11.553  0.4317  1.0512  0.4548
   72MOL0     C 9594   8.006   0.375  11.471  0.7039  0.3077  0.0591
   72MOL0     C 9595   7.878   0.418  11.548 -0.3264  0.7571  0.4817
   72MOL0     C 9596   7.857   0.569  11.528  0.0645  0.1791  0.5367
   72MOL0     C 9597   7.741   0.619  11.601  0.0687 -0.0354 -0.2420
   72MOL0     C 9598   7.718   0.769  11.570  0.3345  0.1279 -0.0375
   72MOL0     C 9599   7.664   0.796  11.430  0.0899 -0.5518  0.3303
   72MOL0     C 9600   7.655   0.952  11.392  1.7707  0.7896 -0.1474
   72MOL0     C 9601   7.783   1.019  11.342  0.0784  0.5770  0.4352
   72MOL0     N 9602   7.756   1.152  11.306  0.7337 -1.0941  0.6175
   72MOL0     C 9603   7.763   1.204  11.178 -0.0020 -0.0793 -0.1390
   72MOL0     C 9604   7.773   1.336  11.196  0.7298 -0.2132  0.7831
   72MOL0     C 9605   7.788   1.415  11.071  0.0118  0.1024  0.5414
   72MOL0     C 9606   7.666   1.488  11.025  0.2726  1.4354  0.5039
   72MOL0     C 9607   7.594   1.392  10.924  0.6018 -0.1978  0.6952
   72MOL0     C 9608   7.441   1.431  10.923  0.5077  0.4149 -0.0888
   72MOL0     O 9609   7.371   1.396  10.805  0.1930  0.4616 -0.2701
   72MOL0     C 9610   7.362   1.268  10.757 -0.3633  0.6585 -0.5475
   72MOL0     C 9611   7.337   1.259  10.624  0.1234  0.8058  0.0644
   72MOL0     C 9612   7.321   1.137  10.561  0.7661 -0.0807 -0.3288
   72MOL0     C 9613   7.346   1.022  10.629 -0.1243 -0.0023  0.4882
   72MOL0     C 9614   7.360   0.906  10.552 -0.3583  0.2956 -0.8747
   72MOL0     O 9615   7.469   0.828  10.578 -0.3489 -0.0459 -0.0495
   72MOL0     C 9616   7.502   0.715  10.503  0.4499 -0.5372 -0.5563
   72MOL0     C 9617   7.565   0.607  10.574 -0.4313  0.3877 -0.3983
   72MOL0     C 9618   7.613   0.487  10.515 -0.3683  0.5647  0.0169
   72MOL0     C 9619   7.617   0.492  10.373 -0.1025 -0.9014 -0.1681
   72MOL0     O 9620   7.668   0.379  10.316 -0.3016  0.4084  1.1075
   72MOL0     C 9621   7.744   0.409  10.189  0.6065 -0.8028  0.5560
   72MOL0     C 9622   7.675   0.356  10.062  0.2573 -0.2913  0.7783
   72MOL0     C 9623   7.774   0.324   9.953 -0.2251 -0.5485  0.0706
   72MOL0     C 9624   7.695   0.256   9.831  0.0362  0.2729 -0.6806
   72MOL0     C 9625   7.613   0.366   9.753  0.0805  1.1848 -0.0086
   72MOL0     C 9626   7.556   0.303   9.631  0.6838  0.1177  0.8204
   72MOL0     C 9627   7.515   0.417   9.538 -0.0021 -0.0599 -0.1479
   72MOL0     C 9628   7.461   0.362   9.407 -0.0482 -1.3635  0.8045
   72MOL0    Cl 9629   7.442   0.476   9.268 -0.0292  0.3440 -0.1448
   72MOL0     C 9630   7.557   0.599  10.296  1.2832 -0.6352  0.1431
   72MOL0     C 9631   7.497   0.710  10.364 -0.2628  0.6146  1.3151
   72MOL0     O 9632   7.274   0.882  10.462 -0.3895 -0.2840  0.5306
   72MOL0     C 9633   7.382   1.028  10.766  0.8068  0.0488 -0.9273
   72MOL0     C 9634   7.377   1.150  10.833  0.4354  0.0772 -0.3574
   72MOL0     N 9635   7.727   1.367  11.322  0.6851  0.0338 -0.2050
   72MOL0     N 9636   7.722   1.250  11.386  0.3526 -0.1079  0.3413
   72MOL0     C 9637   8.240   0.197  11.461  0.3514  0.4656 -0.7918
   72MOL0     C 9638   8.369   0.138  11.444  0.3982  0.5740 -0.6345
   72MOL0     C 9639   8.789   0.081  11.305 -0.9391  0.3982  0.5937
   72MOL0     C 9640   8.735  -0.038  11.280  0.5719  0.3681 -0.4391
   72MOL0     C 9641   8.808  -0.126  11.197  1.0200 -0.6299  0.4483
   72MOL0     C 9642   8.930  -0.098  11.137 -0.3533  0.5383 -0.6129
   72MOL0     O 9643   9.009  -0.183  11.060  0.1662  0.5210  0.0285
   72MOL0     C 9644   8.933  -0.289  10.995  0.2752  0.0441  1.1181
   72MOL0     C 9645   9.012  -0.357  10.871  0.1405  0.2572  0.0747
   72MOL0     C 9646   9.123  -0.433  10.937  0.2213 -0.6605 -0.0297
   72MOL0     C 9647   9.227  -0.474  10.832  0.3965 -0.1177  0.9821
   72MOL0     C 9648   9.311  -0.579  10.886  0.2275 -0.6863 -0.2922
   72MOL0     C 9649   9.385  -0.650  10.944 -0.1469 -0.0990  0.1497
   72MOL0     C 9650   8.990   0.024  11.177  0.6544  0.3464 -0.0366
   72MOL0     C 9651   8.919   0.116  11.253 -0.6116 -0.2133  0.5120
   72MOL0     C 9652   8.980   0.256  11.291  0.1115 -0.4279  0.0814
   72MOL0     H 9653   8.573   0.363  11.594  0.9789  0.6830 -0.3386
   72MOL0     H 9654   8.359   0.487  11.605  2.3809 -0.6092  1.3705
   72MOL0     H 9655   8.006   0.435  11.379 -1.0319 -1.9459 -1.5345
   72MOL0     H 9656   7.985   0.273  11.438  3.6391 -0.2737 -0.2397
   72MOL0     H 9657   7.895   0.399  11.654  0.4500 -1.8483 -0.0435
   72MOL0     H 9658   7.795   0.358  11.511  1.2893 -0.0473 -2.1558
   72MOL0     H 9659   7.862   0.592  11.421  3.2470  4.2932  1.3437
   72MOL0     H 9660   7.947   0.611  11.573  0.6708 -0.7657  0.2484
   72MOL0     H 9661   7.660   0.548  11.581  2.1245 -3.0126  1.2525
   72MOL0     H 9662   7.761   0.603  11.708 -3.1335 -2.0243  0.1847
   72MOL0     H 9663   7.637   0.798  11.638 -0.0184 -0.9998  0.0427
   72MOL0     H 9664   7.802   0.836  11.591 -0.8009  0.9885  2.0412
   72MOL0     H 9665   7.719   0.743  11.352  1.5995 -1.0081  1.6505
   72MOL0     H 9666   7.569   0.742  11.428  0.7833 -1.7853 -0.3980
   72MOL0     H 9667   7.622   1.005  11.481 -0.8753 -0.6221 -0.1983
   72MOL0     H 9668   7.580   0.953  11.313 -1.7341 -0.3309  2.9073
   72MOL0     H 9669   7.855   1.016  11.424  1.8423 -0.7008 -1.0782
   72MOL0     H 9670   7.824   0.956  11.263  3.1274  3.1055 -0.2153
   72MOL0     H 9671   7.764   1.157  11.080 -0.5150  1.0956 -0.7295
   72MOL0     H 9672   7.871   1.479  11.099 -0.0513  1.2413 -1.6708
   72MOL0     H 9673   7.807   1.347  10.988 -0.9978  0.7132 -0.2213
   72MOL0     H 9674   7.602   1.521  11.107 -2.1534  0.1048 -0.7333
   72MOL0     H 9675   7.692   1.569  10.956  1.9997 -0.4516 -1.2271
   72MOL0     H 9676   7.593   1.287  10.953 -0.3205 -0.5124 -0.4012
   72MOL0     H 9677   7.645   1.407  10.828 -0.4805 -0.7987  0.0105
   72MOL0     H 9678   7.421   1.538  10.927 -2.4407 -0.0604  3.1845
   72MOL0     H 9679   7.375   1.394  11.002 -3.3635  2.9225 -1.8849
   72MOL0     H 9680   7.332   1.351  10.567 -0.9509  0.8121  0.1497
   72MOL0     H 9681   7.304   1.140  10.454  0.2769  0.2945 -0.2389
   72MOL0     H 9682   7.576   0.609  10.682  1.8810 -0.6123 -0.5743
   72MOL0     H 9683   7.655   0.405  10.573 -1.7386  0.9875  1.6923
   72MOL0     H 9684   7.761   0.516  10.176  1.8696 -1.2918 -2.7687
   72MOL0     H 9685   7.846   0.379  10.214  0.0931 -0.6235  3.1304
   72MOL0     H 9686   7.608   0.275  10.093 -1.2595  0.6202 -0.0165
   72MOL0     H 9687   7.605   0.429  10.023  0.2431 -0.1741  1.0228
   72MOL0     H 9688   7.817   0.415   9.909  0.4713 -0.0039  1.7859
   72MOL0     H 9689   7.862   0.276   9.996  0.4083  1.5295  1.2333
   72MOL0     H 9690   7.632   0.175   9.870 -4.1210  2.9506 -1.2175
   72MOL0     H 9691   7.772   0.208   9.770  2.0558  1.3137  0.9291
   72MOL0     H 9692   7.677   0.451   9.727  0.2603  0.5885 -1.6509
   72MOL0     H 9693   7.524   0.396   9.809  2.0975  2.2641  2.8755
   72MOL0     H 9694   7.645   0.263   9.583  1.2130  1.2937  0.7992
   72MOL0     H 9695   7.483   0.221   9.639 -0.8955  1.3410 -0.2576
   72MOL0     H 9696   7.603   0.481   9.528  0.4950 -0.6657  0.2389
   72MOL0     H 9697   7.444   0.487   9.583  1.1220 -1.2855  4.0131
   72MOL0     H 9698   7.530   0.284   9.375  1.4906 -0.8254  2.6203
   72MOL0     H 9699   7.362   0.321   9.430  0.2992 -4.1241 -2.0069
   72MOL0     H 9700   7.564   0.594  10.188  0.5829  1.0114 -0.0047
   72MOL0     H 9701   7.455   0.783  10.295  0.7928 -1.8751 -2.2192
   72MOL0     H 9702   7.411   0.947  10.832 -4.0343  0.7888  2.6308
   72MOL0     H 9703   7.394   1.166  10.939  0.9170  0.9717 -0.5601
   72MOL0     H 9704   8.147   0.150  11.431 -1.7150  3.2235  0.7753
   72MOL0     H 9705   8.386   0.040  11.400 -0.0416  0.4801 -0.5996
   72MOL0     H 9706   8.640  -0.069  11.324 -0.0255  0.6945 -1.4770
   72MOL0     H 9707   8.764  -0.223  11.175 -0.6116  0.4154 -1.1370
   72MOL0     H 9708   8.834  -0.251  10.968  0.1667 -1.2057 -0.3812
   72MOL0     H 9709   8.929  -0.370  11.069  2.5224 -1.1629  0.0004
   72MOL0     H 9710   9.060  -0.280  10.811  4.2021 -1.5532  0.7236
   72MOL0     H 9711   8.947  -0.424  10.813  0.6592 -1.7654  1.6946
   72MOL0     H 9712   9.088  -0.523  10.988 -1.5387 -0.4030 -0.7212
   72MOL0     H 9713   9.188  -0.379  11.006 -2.0861 -0.5898  2.2298
   72MOL0     H 9714   9.172  -0.507  10.743 -0.3776  3.9652 -0.2765
   72MOL0     H 9715   9.275  -0.382  10.796 -0.2365  0.0916  0.6405
   72MOL0     H 9716   9.455  -0.718  10.987  1.8071  2.4244  1.2681
   72MOL0     H 9717   9.091   0.028  11.138  1.4410 -2.3793  1.5169
   72MOL0     H 9718   9.089   0.246  11.289  0.0869 -1.2308  1.4244
   72MOL0     H 9719   8.945   0.337  11.227  2.7168 -0.4251 -1.4840
   72MOL0     H 9720   8.939   0.281  11.390 -2.3313  0.5476 -1.1029
   73MOL0     O 9721   1.363   0.246   1.581 -0.1502 -0.4363  0.7051
   73MOL0     C 9722   1.406   0.278   1.466  0.2707  0.3240 -0.4065
   73MOL0     O 9723   1.374   0.389   1.393  0.4360 -0.8183 -0.7082
   73MOL0     C 9724   1.300   0.496   1.453  0.4828  0.3352 -0.3755
   73MOL0     C 9725   1.194   0.474   1.546  0.1590 -0.0614  1.2034
   73MOL0     C 9726   1.112   0.584   1.579  0.6265  0.5822 -0.1459
   73MOL0     C 9727   1.153   0.719   1.541  1.0213  0.7742 -0.5807
   73MOL0     O 9728   1.087   0.830   1.587  1.1327 -0.3580  0.4740
   73MOL0     C 9729   1.094   0.952   1.519  0.2810 -0.9612  0.6673
   73MOL0     C 9730   1.021   1.051   1.605 -0.2488 -1.2313 -0.5117
   73MOL0     C 9731   1.038   1.199   1.562  0.0696  1.0648  0.0266
   73MOL0     C 9732   1.058   1.235   1.417  0.0412  0.2752 -0.2648
   73MOL0     C 9733   1.106   1.380   1.415 -0.6222  0.5063 -0.0403
   73MOL0     C 9734   1.123   1.422   1.270 -0.5206  0.2954 -0.1058
   73MOL0     C 9735   0.983   1.443   1.193  0.2123  0.3348  0.3046
   73MOL0     C 9736   0.966   1.357   1.064  0.4952  0.5523 -0.3307
   73MOL0     N 9737   0.827   1.355   1.024 -0.5411  0.0913  0.1684
   73MOL0     C 9738   0.720   1.264   1.055 -0.6113 -0.3455  0.5180
   73MOL0     C 9739   0.621   1.300   0.974  0.1059  0.6217  0.9978
   73MOL0     C 9740   0.477   1.243   0.977 -0.6421 -0.1710 -0.0175
   73MOL0     C 9741   0.468   1.117   1.050 -0.3035  0.3662  0.0788
   73MOL0     C 9742   0.324   1.063   1.043  0.0258 -0.0748  0.2087
   73MOL0     C 9743   0.306   0.954   1.145  0.3259  1.2457 -1.3333
   73MOL0     O 9744   0.409   0.851   1.171 -0.3944 -1.0134 -0.1741
   73MOL0     C 9745   0.367   0.741   1.236  1.3437  0.0566  1.0735
   73MOL0     C 9746   0.446   0.622   1.213 -0.2257  0.0927 -0.4388
   73MOL0     C 9747   0.408   0.502   1.276 -0.3337  0.4769 -1.4610
   73MOL0     C 9748   0.291   0.490   1.357  1.0314 -0.0639 -0.2889
   73MOL0     C 9749   0.263   0.356   1.422  0.0341  0.3734  0.2805
   73MOL0     O 9750   0.337   0.255   1.373  0.7606  1.0587 -0.5855
   73MOL0     C 9751   0.334   0.126   1.422  0.0308  1.1322  0.3930
   73MOL0     C 9752   0.459   0.061   1.406 -0.1450  0.3364  0.0396
   73MOL0     C 9753   0.468  -0.080   1.422  1.2994 -0.9675  0.6386
   73MOL0     C 9754   0.353  -0.154   1.459 -0.6994  0.0359  0.8789
   73MOL0     O 9755   0.374  -0.284   1.499 -0.4261 -0.5648  0.0625
   73MOL0     C 9756   0.263  -0.355   1.556  0.0065  0.0824  1.5156
   73MOL0     C 9757   0.310  -0.465   1.649  0.1754  0.2041 -0.0060
   73MOL0     C 9758   0.402  -0.577   1.583 -0.3682  0.8769 -0.5431
   73MOL0     C 9759   0.341  -0.625   1.445 -0.1789  0.2918 -0.8305
   73MOL0     C 9760   0.417  -0.737   1.379 -0.0983  0.0837  0.5841
   73MOL0     C 9761   0.343  -0.772   1.256 -0.5200 -0.2700  0.4254
   73MOL0     C 9762   0.433  -0.863   1.176  0.2860  0.4224 -0.1805
   73MOL0     C 9763   0.379  -0.900   1.045 -0.7646 -0.5229  0.1132
   73MOL0    Cl 9764   0.240  -1.001   1.069 -0.0337  0.0202 -0.8593
   73MOL0     C 9765   0.231  -0.087   1.471  0.3760  0.1754  0.2128
   73MOL0     C 9766   0.216   0.053   1.461  0.4319  0.1820  0.7318
   73MOL0     O 9767   0.188   0.356   1.517  0.0039 -0.3369 -0.1919
   73MOL0     C 9768   0.216   0.606   1.386 -0.7261 -0.0147  1.3604
   73MOL0     C 9769   0.254   0.731   1.324  0.0820  0.4578  0.6109
   73MOL0     N 9770   0.674   1.399   0.884  0.3032 -0.5393  0.8050
   73MOL0     N 9771   0.781   1.445   0.931  0.4162 -0.3884 -0.4564
   73MOL0     C 9772   1.263   0.735   1.459 -0.3205  0.0465  1.6854
   73MOL0     C 9773   1.328   0.619   1.411  0.9344 -0.2801 -0.2138
   73MOL0     C 9774   1.489   0.174   1.403  1.1838  0.4958  0.4257
   73MOL0     C 9775   1.435   0.115   1.285  0.2568  0.0466 -0.2787
   73MOL0     C 9776   1.510   0.018   1.221 -0.3198 -1.2146  0.1570
   73MOL0     C 9777   1.625  -0.032   1.277  0.2715 -0.2947  0.3499
   73MOL0     O 9778   1.690  -0.134   1.215 -0.9064 -0.1120  0.1560
   73MOL0     C 9779   1.625  -0.260   1.229 -0.2813 -0.3375  0.7180
   73MOL0     C 9780   1.603  -0.322   1.094  0.1406  0.1557  1.1556
   73MOL0     C 9781   1.691  -0.448   1.073  0.3690 -0.1679 -0.0713
   73MOL0     C 9782   1.716  -0.480   0.924 -0.6455  0.4197  0.3292
   73MOL0     C 9783   1.596  -0.522   0.852  0.8547  0.1455  0.0240
   73MOL0     C 9784   1.496  -0.555   0.789  0.5295  0.0889  0.7425
   73MOL0     C 9785   1.668   0.015   1.399 -0.4511  0.2944  0.2838
   73MOL0     C 9786   1.611   0.124   1.457 -0.8102 -0.2567 -0.3218
   73MOL0     C 9787   1.685   0.193   1.567  0.1647  0.2903  0.5172
   73MOL0     H 9788   1.150   0.380   1.576 -2.2879  1.1498  1.6559
   73MOL0     H 9789   1.023   0.555   1.635  1.1620 -0.4203  0.2200
   73MOL0     H 9790   1.194   0.995   1.518 -0.4436  0.9300 -2.0705
   73MOL0     H 9791   1.071   0.949   1.412  1.3026  0.3958  0.3907
   73MOL0     H 9792   1.044   1.045   1.711  1.0514  0.6302 -0.6347
   73MOL0     H 9793   0.914   1.034   1.591 -1.5270  3.0568  2.0845
   73MOL0     H 9794   1.124   1.238   1.618  0.4177  2.1145 -1.1873
   73MOL0     H 9795   0.959   1.258   1.611  0.9416  0.6436  2.0487
   73MOL0     H 9796   1.130   1.169   1.367 -0.8215  1.1059 -2.7813
   73MOL0     H 9797   0.967   1.217   1.360 -0.2456 -2.1516  0.8065
   73MOL0     H 9798   1.044   1.453   1.467  1.7048  1.4040  1.6523
   73MOL0     H 9799   1.205   1.386   1.462 -0.4733  0.6134 -0.3617
   73MOL0     H 9800   1.178   1.517   1.275 -0.0290  0.2058 -2.6725
   73MOL0     H 9801   1.183   1.353   1.210 -0.5833  1.6265 -1.7420
   73MOL0     H 9802   0.971   1.548   1.167  0.9486  0.4739  0.5155
   73MOL0     H 9803   0.893   1.405   1.243 -0.3386 -1.3702 -1.7868
   73MOL0     H 9804   1.029   1.389   0.981 -1.5169  0.8231 -1.8189
   73MOL0     H 9805   0.998   1.253   1.077  0.3814  0.3524 -1.5945
   73MOL0     H 9806   0.725   1.194   1.138  0.2830  0.3843  1.0952
   73MOL0     H 9807   0.413   1.313   1.030 -0.5173  0.4137 -0.6235
   73MOL0     H 9808   0.443   1.231   0.873  3.4638  0.3895 -1.6230
   73MOL0     H 9809   0.536   1.051   0.996 -0.8886  0.9727 -1.4792
   73MOL0     H 9810   0.491   1.132   1.155 -3.8541 -0.5255  1.1199
   73MOL0     H 9811   0.304   1.025   0.943 -0.3761  1.0166 -0.1401
   73MOL0     H 9812   0.255   1.144   1.070  0.8404  1.1762 -1.3057
   73MOL0     H 9813   0.214   0.900   1.120  1.1003 -0.0263 -1.4902
   73MOL0     H 9814   0.297   1.011   1.238  1.8952 -1.4556  0.5835
   73MOL0     H 9815   0.538   0.626   1.155  1.3779 -0.9010  1.8614
   73MOL0     H 9816   0.469   0.413   1.264 -3.3148 -2.0815  0.6743
   73MOL0     H 9817   0.547   0.120   1.384  0.4524 -0.5240  0.0509
   73MOL0     H 9818   0.558  -0.140   1.412 -0.6968 -3.9659 -1.1355
   73MOL0     H 9819   0.199  -0.293   1.619  0.4777  0.0092  2.0735
   73MOL0     H 9820   0.205  -0.398   1.474 -0.1382 -1.7255  2.5091
   73MOL0     H 9821   0.371  -0.418   1.727  0.4657  3.6234 -2.0965
   73MOL0     H 9822   0.223  -0.516   1.692 -0.4105 -2.2047 -3.5404
   73MOL0     H 9823   0.508  -0.551   1.590 -0.3204  0.1893  3.1225
   73MOL0     H 9824   0.390  -0.669   1.641  3.0502 -0.7789 -2.1638
   73MOL0     H 9825   0.344  -0.541   1.374 -2.1765 -2.2877 -4.3321
   73MOL0     H 9826   0.234  -0.648   1.453 -0.8759  3.2121 -0.4299
   73MOL0     H 9827   0.423  -0.821   1.450  0.1518 -1.3246 -1.0327
   73MOL0     H 9828   0.522  -0.707   1.368  0.6065 -2.1042  0.7089
   73MOL0     H 9829   0.254  -0.833   1.275  1.3433 -3.2350  0.3460
   73MOL0     H 9830   0.320  -0.681   1.200  0.2470 -0.3157  0.0220
   73MOL0     H 9831   0.460  -0.950   1.237 -1.6606  0.5950  0.9977
   73MOL0     H 9832   0.526  -0.809   1.153  1.5131 -1.7425 -0.5567
   73MOL0     H 9833   0.362  -0.812   0.982 -0.2097  1.6829  2.8249
   73MOL0     H 9834   0.457  -0.959   0.995  1.1851  0.0440  2.3086
   73MOL0     H 9835   0.142  -0.133   1.512 -1.1147  2.7835  0.0984
   73MOL0     H 9836   0.119   0.098   1.480 -1.2802 -1.2916 -3.3906
   73MOL0     H 9837   0.122   0.624   1.437 -2.0313  0.6847 -1.0826
   73MOL0     H 9838   0.192   0.820   1.334 -0.3197  0.1542  0.8896
   73MOL0     H 9839   1.294   0.833   1.422 -0.0430 -1.3275 -2.1331
   73MOL0     H 9840   1.425   0.643   1.369  0.7842  1.0555  0.1273
   73MOL0     H 9841   1.344   0.159   1.249  0.6935  1.9036  0.7560
   73MOL0     H 9842   1.460  -0.003   1.127  1.4296  1.2227 -1.4458
   73MOL0     H 9843   1.531  -0.252   1.285 -0.3558  0.5652  0.4879
   73MOL0     H 9844   1.689  -0.321   1.294  0.4040 -0.5187 -0.1100
   73MOL0     H 9845   1.624  -0.247   1.017  1.0658  0.2248  1.4649
   73MOL0     H 9846   1.501  -0.360   1.086  0.4219 -0.3551 -0.3613
   73MOL0     H 9847   1.646  -0.531   1.127 -1.6448 -0.8967 -2.6224
   73MOL0     H 9848   1.790  -0.435   1.115  0.9251 -0.3789 -1.2629
   73MOL0     H 9849   1.765  -0.394   0.877  0.3846  0.4678  1.4389
   73MOL0     H 9850   1.787  -0.561   0.939 -1.3212  0.3345  4.0966
   73MOL0     H 9851   1.409  -0.578   0.730 -0.5997  2.6811  1.2827
   73MOL0     H 9852   1.756  -0.030   1.443  2.1563  1.4029 -3.3419
   73MOL0     H 9853   1.636   0.164   1.660  2.1607 -1.5471  1.0889
   73MOL0     H 9854   1.789   0.159   1.568  0.0972 -0.0027 -0.6622
   73MOL0     H 9855   1.666   0.301   1.569 -0.0583  0.2433  0.9877
   74MOL0     O 9856   0.220   1.084   2.730 -0.1150 -0.6191  0.4857
   74MOL0     C 9857   0.222   1.204   2.741  1.2648 -0.5389  0.0518
   74MOL0     O 9858   0.112   1.285   2.767  0.2826  0.1337 -0.0474
   74MOL0     C 9859  -0.009   1.225   2.753 -0.3730  0.2350 -0.0383
   74MOL0     C 9860  -0.052   1.131   2.842 -0.2520 -0.5214  0.3617
   74MOL0     C 9861  -0.176   1.070   2.828 -0.7926  0.2450 -0.8919
   74MOL0     C 9862  -0.268   1.108   2.729  0.0207  0.7203 -0.0358
   74MOL0     O 9863  -0.388   1.037   2.730 -0.3333  0.0771  0.9510
   74MOL0     C 9864  -0.497   1.092   2.656  0.0080 -0.4085 -0.4184
   74MOL0     C 9865  -0.474   1.055   2.507 -0.0869 -0.8673 -0.1115
   74MOL0     C 9866  -0.497   0.897   2.492  0.7246  0.4087  0.5925
   74MOL0     C 9867  -0.470   0.844   2.349  0.3161  0.1241  0.6370
   74MOL0     C 9868  -0.433   0.689   2.344 -0.3128 -0.2069  0.1329
   74MOL0     C 9869  -0.555   0.606   2.374  0.4273  0.0951 -0.0092
   74MOL0     C 9870  -0.526   0.461   2.349  0.0348 -0.8880  0.4646
   74MOL0     C 9871  -0.641   0.361   2.385 -0.7871 -0.0794 -0.5747
   74MOL0     N 9872  -0.758   0.392   2.295 -1.1657 -0.4359  0.1091
   74MOL0     C 9873  -0.749   0.392   2.154  0.0998  0.4882  0.5395
   74MOL0     C 9874  -0.884   0.422   2.112 -0.7744  0.6146 -0.3062
   74MOL0     C 9875  -0.939   0.420   1.965 -0.0471 -0.3021 -1.0572
   74MOL0     C 9876  -0.853   0.481   1.857 -0.5094  0.6453 -0.4061
   74MOL0     C 9877  -0.847   0.631   1.848  0.4322  0.2931 -0.6492
   74MOL0     C 9878  -0.805   0.704   1.982  0.0588 -0.9855 -0.8043
   74MOL0     O 9879  -0.673   0.650   2.022  0.4914  0.6495  0.2908
   74MOL0     C 9880  -0.569   0.714   1.974 -1.0747 -0.1747 -0.9771
   74MOL0     C 9881  -0.545   0.849   2.001  0.7717  0.0359  0.2745
   74MOL0     C 9882  -0.436   0.907   1.943  0.0133  0.0485  0.3441
   74MOL0     C 9883  -0.336   0.841   1.873  0.6983 -0.6759 -0.0345
   74MOL0     C 9884  -0.216   0.915   1.828  0.5178 -0.1213 -0.4023
   74MOL0     O 9885  -0.204   1.044   1.861 -0.0055 -0.3084 -0.2577
   74MOL0     C 9886  -0.107   1.131   1.825  0.7091 -0.0859  0.6047
   74MOL0     C 9887   0.029   1.094   1.795  0.2255  0.2001  0.0670
   74MOL0     C 9888   0.123   1.191   1.778  0.1786 -0.7349 -0.0342
   74MOL0     C 9889   0.094   1.325   1.764  0.5349  0.5599  0.1791
   74MOL0     O 9890   0.199   1.411   1.740 -0.0112 -0.1349  0.6050
   74MOL0     C 9891   0.176   1.508   1.639 -0.2000 -0.4860  0.8417
   74MOL0     C 9892   0.296   1.610   1.613 -0.0934 -0.2755  0.9110
   74MOL0     C 9893   0.393   1.580   1.489  0.6884 -0.0763  0.0511
   74MOL0     C 9894   0.496   1.688   1.451  0.4047  0.2348 -0.3828
   74MOL0     C 9895   0.627   1.647   1.521 -0.3314  0.0478  1.5800
   74MOL0     C 9896   0.729   1.756   1.485  0.0830 -0.0042  0.0339
   74MOL0     C 9897   0.857   1.724   1.557 -0.5457  0.5630  0.2158
   74MOL0     C 9898   0.973   1.785   1.489 -0.2380 -0.0465  0.2125
   74MOL0    Cl 9899   1.128   1.793   1.583 -0.1274  0.3270  0.0744
   74MOL0     C 9900  -0.041   1.361   1.784  0.1122  0.6421 -0.4352
   74MOL0     C 9901  -0.138   1.268   1.813  0.0973  0.2251 -0.4694
   74MOL0     O 9902  -0.144   0.848   1.760 -0.0298 -0.4066 -0.7652
   74MOL0     C 9903  -0.363   0.706   1.863 -0.5268 -0.1190  0.3216
   74MOL0     C 9904  -0.477   0.638   1.911 -0.8445 -0.0394 -0.4156
   74MOL0     N 9905  -0.964   0.447   2.223 -0.4116  0.9556  0.3997
   74MOL0     N 9906  -0.887   0.424   2.334  0.5142  0.0172 -0.2208
   74MOL0     C 9907  -0.221   1.201   2.636 -0.4179  0.2802 -0.1085
   74MOL0     C 9908  -0.091   1.263   2.650  0.6684  0.0170 -0.8972
   74MOL0     C 9909   0.351   1.260   2.721  0.2256 -0.2114  0.1743
   74MOL0     C 9910   0.391   1.287   2.592  0.0347  0.6833  0.0974
   74MOL0     C 9911   0.518   1.340   2.569 -0.1145 -0.1885  0.5639
   74MOL0     C 9912   0.596   1.380   2.674  0.4525 -0.1131 -0.3592
   74MOL0     O 9913   0.721   1.423   2.656  0.1705 -0.0502 -0.2988
   74MOL0     C 9914   0.713   1.566   2.635 -1.0783  0.4757  0.0028
   74MOL0     C 9915   0.733   1.637   2.772 -0.5195 -0.4118  0.3645
   74MOL0     C 9916   0.805   1.771   2.756  0.5495  0.9420 -0.1314
   74MOL0     C 9917   0.915   1.790   2.859  0.7157 -0.9086 -0.2950
   74MOL0     C 9918   0.855   1.840   2.983  0.4858 -0.0841 -0.8946
   74MOL0     C 9919   0.815   1.879   3.093 -0.3430  0.3719  0.3854
   74MOL0     C 9920   0.556   1.357   2.801  0.5866 -0.5687 -0.1640
   74MOL0     C 9921   0.434   1.292   2.823 -0.5902  0.6176 -0.1071
   74MOL0     C 9922   0.402   1.275   2.973  0.6717  0.3509  0.0447
   74MOL0     H 9923   0.017   1.112   2.924 -0.5717  0.0788  0.7778
   74MOL0     H 9924  -0.218   0.996   2.895 -0.1348  1.7873  1.3378
   74MOL0     H 9925  -0.596   1.054   2.683  0.1654 -0.4260  0.1407
   74MOL0     H 9926  -0.508   1.200   2.667 -3.8255 -0.7611  0.5530
   74MOL0     H 9927  -0.375   1.084   2.470 -0.3306 -0.0704 -0.1629
   74MOL0     H 9928  -0.550   1.117   2.459  1.6554  2.2184  0.7877
   74MOL0     H 9929  -0.602   0.873   2.508  0.8379  0.4635  1.4560
   74MOL0     H 9930  -0.443   0.837   2.566  1.3194 -0.9472 -0.8786
   74MOL0     H 9931  -0.567   0.845   2.298 -0.9297  1.6201  2.8567
   74MOL0     H 9932  -0.414   0.908   2.281 -1.1478  1.3884  0.5590
   74MOL0     H 9933  -0.405   0.663   2.241 -1.8713  0.0622 -0.3910
   74MOL0     H 9934  -0.345   0.673   2.408  0.8609 -2.0504 -1.7985
   74MOL0     H 9935  -0.576   0.613   2.481  1.2627 -0.1937  0.1864
   74MOL0     H 9936  -0.638   0.645   2.314  1.9519  2.1472 -0.8976
   74MOL0     H 9937  -0.438   0.441   2.411  0.2345  1.7151  1.1421
   74MOL0     H 9938  -0.495   0.448   2.245 -0.8040 -0.7240  0.1887
   74MOL0     H 9939  -0.608   0.263   2.349 -2.8030 -1.5465  1.3655
   74MOL0     H 9940  -0.654   0.356   2.493  2.6989  0.1953 -0.0031
   74MOL0     H 9941  -0.673   0.367   2.081 -0.4054 -0.2522  0.2629
   74MOL0     H 9942  -0.943   0.314   1.935  2.6152 -0.7762 -0.0606
   74MOL0     H 9943  -1.033   0.474   1.967 -0.3556 -0.6795  3.5698
   74MOL0     H 9944  -0.749   0.447   1.862 -0.4420  0.1237 -3.4868
   74MOL0     H 9945  -0.890   0.456   1.757 -2.0863 -1.9258  0.7291
   74MOL0     H 9946  -0.947   0.670   1.831  0.8705  1.6665 -0.2443
   74MOL0     H 9947  -0.784   0.669   1.767  2.4532 -0.9502  0.2418
   74MOL0     H 9948  -0.879   0.692   2.061 -0.3292  1.6263 -0.6698
   74MOL0     H 9949  -0.798   0.813   1.980  0.1633 -0.8788  1.7878
   74MOL0     H 9950  -0.618   0.918   2.044 -1.8165 -1.1200 -1.9706
   74MOL0     H 9951  -0.414   1.009   1.973 -0.3641  0.4232 -0.5909
   74MOL0     H 9952   0.065   0.994   1.816 -0.2559  0.1133  0.5146
   74MOL0     H 9953   0.227   1.160   1.774  0.1029 -0.9804 -0.1599
   74MOL0     H 9954   0.158   1.452   1.547  1.8902  1.4400 -0.8557
   74MOL0     H 9955   0.092   1.568   1.674  2.5221  3.5108  1.3284
   74MOL0     H 9956   0.266   1.715   1.610  2.7287  0.6582  1.9338
   74MOL0     H 9957   0.360   1.603   1.702  0.9875 -0.8309  0.1217
   74MOL0     H 9958   0.442   1.484   1.505  2.3512 -0.1537 -4.2816
   74MOL0     H 9959   0.328   1.566   1.402 -0.8399  0.4165  1.0654
   74MOL0     H 9960   0.456   1.782   1.491 -1.7513 -0.6204 -0.3664
   74MOL0     H 9961   0.514   1.702   1.344  1.9183  0.9087 -0.0713
   74MOL0     H 9962   0.660   1.546   1.498  0.9601  0.8249 -0.2124
   74MOL0     H 9963   0.608   1.655   1.628 -1.6441  2.3328  1.2501
   74MOL0     H 9964   0.751   1.756   1.378 -0.9611  3.0136 -0.3083
   74MOL0     H 9965   0.701   1.858   1.516  0.1274 -0.5413  1.9361
   74MOL0     H 9966   0.875   1.616   1.559 -0.6998  0.5465  0.8452
   74MOL0     H 9967   0.843   1.770   1.655  1.6851 -1.7254  1.7404
   74MOL0     H 9968   0.996   1.733   1.395  1.1131  4.7360 -2.4348
   74MOL0     H 9969   0.954   1.890   1.464 -0.4199  0.4018  2.1199
   74MOL0     H 9970  -0.066   1.467   1.779 -1.2379  0.3422 -0.3370
   74MOL0     H 9971  -0.237   1.300   1.843  2.1976  4.0960  3.4703
   74MOL0     H 9972  -0.297   0.646   1.800 -1.0284 -0.2136 -0.1204
   74MOL0     H 9973  -0.488   0.530   1.908 -3.4841  0.0345  2.1091
   74MOL0     H 9974  -0.270   1.245   2.550  0.6400  1.0299 -0.3515
   74MOL0     H 9975  -0.056   1.320   2.564 -1.6172 -1.0468 -2.6361
   74MOL0     H 9976   0.326   1.260   2.510  0.3783 -1.0601  0.3697
   74MOL0     H 9977   0.570   1.343   2.474  1.2866 -3.4467  1.0820
   74MOL0     H 9978   0.615   1.597   2.597 -3.2047 -3.1666  1.9377
   74MOL0     H 9979   0.788   1.597   2.561 -1.3265  1.4311  0.1467
   74MOL0     H 9980   0.794   1.567   2.829 -2.2603 -0.5039  2.2395
   74MOL0     H 9981   0.647   1.651   2.838 -0.4391 -1.0846  0.6143
   74MOL0     H 9982   0.736   1.856   2.765 -4.8175 -2.9824  0.6097
   74MOL0     H 9983   0.854   1.768   2.658 -1.1264 -0.2317 -0.9676
   74MOL0     H 9984   0.979   1.703   2.875  3.5897  1.5179  3.2635
   74MOL0     H 9985   0.981   1.870   2.825  2.2475 -0.5072  3.2034
   74MOL0     H 9986   0.786   1.935   3.180  2.6066  3.2929 -0.2824
   74MOL0     H 9987   0.620   1.384   2.884 -2.6815  2.0814  1.7206
   74MOL0     H 9988   0.434   1.361   3.032  0.2700 -0.1233  0.9862
   74MOL0     H 9989   0.297   1.259   3.000  1.9138 -2.3225  4.3408
   74MOL0     H 9990   0.457   1.183   2.994  2.6959  1.0715 -1.7537
   75MOL0     O 9991   5.394   9.916   2.914 -0.2147 -0.4541  0.4203
   75MOL0     C 9992   5.285   9.864   2.880 -0.2377 -0.0603  0.3835
   75MOL0     O 9993   5.217   9.886   2.774 -0.1189  0.0840 -0.2813
   75MOL0     C 9994   5.264   9.964   2.670 -0.0017  0.7891  0.2869
   75MOL0     C 9995   5.233   9.912   2.544 -0.7281  0.0864 -0.3463
   75MOL0     C 9996   5.277   9.968   2.432  0.4982  0.4224  0.6503
   75MOL0     C 9997   5.365  10.077   2.439 -0.5937 -0.2859 -0.3793
   75MOL0     O 9998   5.433  10.116   2.329 -0.4701 -0.0482  0.1538
   75MOL0     C 9999   5.573  10.127   2.351 -0.1509  0.5485  0.1277
   75MOL0     C10000   5.618  10.275   2.363 -0.1354 -0.4331 -1.1897
   75MOL0     C10001   5.762  10.296   2.309  0.2522  0.3059 -0.5897
   75MOL0     C10002   5.766  10.333   2.162  0.1569  0.5350 -0.3462
   75MOL0     C10003   5.917  10.358   2.138 -0.2993 -0.2596  0.5574
   75MOL0     C10004   5.953  10.372   1.991 -0.2988 -0.3901 -0.2550
   75MOL0     C10005   6.104  10.388   1.982  0.9163  0.1778  0.5507
   75MOL0     C10006   6.151  10.403   1.837 -1.8810  0.2748  0.5450
   75MOL0     N10007   6.140  10.542   1.788  1.7039  0.8129 -0.2665
   75MOL0     C10008   6.015  10.606   1.765  0.3692  0.2470 -0.4272
   75MOL0     C10009   6.049  10.736   1.743  0.6553 -0.2710  0.0644
   75MOL0     C10010   5.950  10.857   1.728 -0.8989  0.2252  0.4093
   75MOL0     C10011   5.904  10.918   1.857 -0.4841 -0.9756 -0.5454
   75MOL0     C10012   5.795  11.018   1.816 -0.1333 -0.6934 -0.4324
   75MOL0     C10013   5.771  11.133   1.927  0.1522 -0.0129 -1.1292
   75MOL0     O10014   5.739  11.067   2.055 -0.3480 -0.4298 -0.1950
   75MOL0     C10015   5.616  11.056   2.103 -0.6985 -0.8737 -0.0152
   75MOL0     C10016   5.613  11.043   2.236 -0.3094  0.3621 -0.1967
   75MOL0     C10017   5.487  11.038   2.299 -0.1172  0.2799 -0.1656
   75MOL0     C10018   5.367  11.043   2.229 -0.3403 -0.3356 -0.0035
   75MOL0     C10019   5.236  11.048   2.296  0.4283  0.2470 -0.4817
   75MOL0     O10020   5.120  11.063   2.222  0.3668  0.4083  0.0089
   75MOL0     C10021   5.006  11.064   2.287  0.6944 -0.8584 -0.5893
   75MOL0     C10022   4.979  11.166   2.382 -0.0696 -0.3842 -0.1736
   75MOL0     C10023   4.858  11.163   2.438  0.0038 -0.3011 -0.8003
   75MOL0     C10024   4.758  11.074   2.396 -0.3889  0.1487  0.5391
   75MOL0     O10025   4.636  11.080   2.461 -0.1241  0.4474 -0.1188
   75MOL0     C10026   4.569  10.951   2.506 -0.0517 -0.8269 -0.0636
   75MOL0     C10027   4.441  10.988   2.569  0.4672 -0.2669  0.0762
   75MOL0     C10028   4.359  11.059   2.462  0.1917 -0.7975 -0.0029
   75MOL0     C10029   4.216  11.094   2.513  0.5751 -0.1385  0.4130
   75MOL0     C10030   4.147  11.213   2.437  0.2703  0.1914  0.6854
   75MOL0     C10031   4.124  11.177   2.294  0.3935 -0.2859  0.2050
   75MOL0     C10032   4.040  11.297   2.245  0.1530  0.3622 -0.2073
   75MOL0     C10033   3.977  11.265   2.105 -0.9589  0.2588 -0.3308
   75MOL0    Cl10034   4.086  11.225   1.962 -0.4981  0.2084  0.1975
   75MOL0     C10035   4.792  10.977   2.301  0.9291 -0.8900 -0.3168
   75MOL0     C10036   4.913  10.973   2.245 -0.5005  0.4296 -0.4091
   75MOL0     O10037   5.233  11.038   2.423 -0.2192  0.2316 -0.2440
   75MOL0     C10038   5.373  11.055   2.087  0.0844  0.6018 -0.1282
   75MOL0     C10039   5.498  11.068   2.031 -0.6405 -0.3460  0.2112
   75MOL0     N10040   6.186  10.749   1.771  0.2012  0.3684  0.6048
   75MOL0     N10041   6.243  10.632   1.803 -0.5832  1.1453  1.0466
   75MOL0     C10042   5.387  10.137   2.567 -0.2962 -0.1203  0.0262
   75MOL0     C10043   5.341  10.080   2.678  0.3540 -0.4191  0.4144
   75MOL0     C10044   5.239   9.743   2.949 -0.7994  0.6448 -0.5211
   75MOL0     C10045   5.187   9.642   2.862  0.1982  0.0371 -0.0466
   75MOL0     C10046   5.132   9.530   2.912 -0.6193  0.0181  0.0447
   75MOL0     C10047   5.139   9.510   3.051  0.3299  0.7208 -0.0813
   75MOL0     O10048   5.103   9.392   3.111  0.5089 -0.0015  0.0398
   75MOL0     C10049   4.992   9.313   3.072  0.2664 -0.2522 -0.5925
   75MOL0     C10050   5.061   9.195   3.019 -0.6423  0.8098  0.5647
   75MOL0     C10051   4.966   9.100   2.929  0.8194 -0.8597  0.0291
   75MOL0     C10052   4.908   9.154   2.803 -0.4828 -0.5463 -0.1993
   75MOL0     C10053   4.990   9.163   2.685  0.0165  0.3182  0.0500
   75MOL0     C10054   5.064   9.160   2.589  0.3672 -0.2600  0.2785
   75MOL0     C10055   5.202   9.595   3.136  0.8086  0.6980  0.8872
   75MOL0     C10056   5.234   9.721   3.087 -1.0986  0.3707  0.2034
   75MOL0     C10057   5.279   9.830   3.183  0.7861 -0.0570  0.7001
   75MOL0     H10058   5.184   9.815   2.544  0.9786 -0.9457  3.0313
   75MOL0     H10059   5.253   9.918   2.339 -0.6294  0.7812  0.7329
   75MOL0     H10060   5.617  10.076   2.437 -0.3788  0.8755  0.4374
   75MOL0     H10061   5.614  10.090   2.257 -2.0067 -3.7294  0.7459
   75MOL0     H10062   5.620  10.280   2.472  4.2030 -1.0404 -1.0794
   75MOL0     H10063   5.557  10.347   2.307  1.9276  1.9244 -0.5624
   75MOL0     H10064   5.815  10.201   2.325 -2.2275 -0.8466  1.7491
   75MOL0     H10065   5.799  10.376   2.374  3.1707 -3.4845  3.0285
   75MOL0     H10066   5.724  10.248   2.108  2.6167  0.1975 -1.8707
   75MOL0     H10067   5.708  10.421   2.131 -0.8716 -0.0453 -0.0874
   75MOL0     H10068   5.931  10.455   2.188  1.9102 -1.0942  1.7060
   75MOL0     H10069   5.984  10.285   2.185  2.2793 -0.0467 -2.5047
   75MOL0     H10070   5.938  10.280   1.933  0.7456 -1.5356  1.1931
   75MOL0     H10071   5.888  10.447   1.946 -0.5276 -0.6118 -0.2993
   75MOL0     H10072   6.136  10.295   2.029 -2.6414 -0.8647  1.1466
   75MOL0     H10073   6.147  10.467   2.044 -0.6287  0.0431  1.8453
   75MOL0     H10074   6.257  10.376   1.837 -1.4124  1.9568  1.5206
   75MOL0     H10075   6.092  10.348   1.764  0.9396 -1.8901 -0.2762
   75MOL0     H10076   5.914  10.566   1.774 -0.1962  1.7026  0.0427
   75MOL0     H10077   6.007  10.930   1.670  1.2699 -0.3707  1.6910
   75MOL0     H10078   5.867  10.819   1.667  0.1849 -1.6337  0.0077
   75MOL0     H10079   5.883  10.843   1.934 -0.0379 -1.4357 -0.8598
   75MOL0     H10080   5.986  10.975   1.901 -1.5447 -1.6740  2.6262
   75MOL0     H10081   5.699  10.969   1.793 -0.7960  0.6795 -0.7303
   75MOL0     H10082   5.830  11.061   1.722  3.5864 -1.5963  0.3882
   75MOL0     H10083   5.700  11.211   1.896  0.3598  0.0045 -1.5624
   75MOL0     H10084   5.863  11.191   1.936 -0.1324  0.7418 -2.6973
   75MOL0     H10085   5.704  11.041   2.295 -0.7427  5.1725  1.1116
   75MOL0     H10086   5.486  11.008   2.403  4.7150 -1.1371 -0.2668
   75MOL0     H10087   5.048  11.246   2.406 -1.1714 -0.0534  2.2021
   75MOL0     H10088   4.837  11.243   2.508  0.9184  2.4917 -3.4639
   75MOL0     H10089   4.549  10.877   2.428  0.5764 -2.4576  1.2540
   75MOL0     H10090   4.629  10.905   2.585  1.2918  1.7003  0.4734
   75MOL0     H10091   4.374  10.905   2.590  0.2572  0.4523  2.5507
   75MOL0     H10092   4.455  11.045   2.661 -0.9563  0.2818 -0.0258
   75MOL0     H10093   4.397  11.160   2.442  1.6791 -1.4193 -0.4403
   75MOL0     H10094   4.356  11.005   2.367 -1.0145  0.7622 -0.8963
   75MOL0     H10095   4.218  11.115   2.620  1.4851 -2.4389  0.9005
   75MOL0     H10096   4.161  11.000   2.500  1.0017 -0.2878 -0.3522
   75MOL0     H10097   4.214  11.300   2.438  0.2343  0.2632  3.4163
   75MOL0     H10098   4.051  11.235   2.483 -1.0243  0.0165 -1.7593
   75MOL0     H10099   4.218  11.154   2.243  0.3974 -0.4521  0.2884
   75MOL0     H10100   4.062  11.087   2.289  1.7745 -1.3479  1.3317
   75MOL0     H10101   4.095  11.392   2.248  2.8456 -1.1083  0.1366
   75MOL0     H10102   3.947  11.304   2.303 -1.6515  0.3606 -2.8984
   75MOL0     H10103   3.909  11.181   2.119 -2.1848  1.5280  1.7748
   75MOL0     H10104   3.907  11.346   2.085 -4.1904 -2.1238  0.5910
   75MOL0     H10105   4.705  10.919   2.272 -0.6342  0.5251  1.3421
   75MOL0     H10106   4.931  10.902   2.165 -3.8121 -0.0533 -0.8580
   75MOL0     H10107   5.286  11.058   2.021 -0.4751 -0.0579  0.5529
   75MOL0     H10108   5.507  11.085   1.924  1.2010  0.6900  0.4772
   75MOL0     H10109   5.436  10.233   2.573 -2.8688  1.3408 -0.9028
   75MOL0     H10110   5.372  10.112   2.777  1.3490 -2.6093  0.8559
   75MOL0     H10111   5.174   9.659   2.755  0.2541 -0.2190 -0.0955
   75MOL0     H10112   5.090   9.459   2.841  2.0283 -3.3539  1.5183
   75MOL0     H10113   4.933   9.360   2.992 -2.4714 -1.2780  0.6931
   75MOL0     H10114   4.930   9.276   3.154 -0.1036 -1.4012 -1.3690
   75MOL0     H10115   5.112   9.132   3.092  3.1340 -0.7499 -2.9686
   75MOL0     H10116   5.138   9.225   2.946  0.3811 -0.9280  0.8633
   75MOL0     H10117   4.880   9.087   2.995  0.2844  0.4293 -0.3902
   75MOL0     H10118   5.011   9.002   2.905 -2.2704 -1.8033 -2.5180
   75MOL0     H10119   4.815   9.106   2.772  0.8600 -1.9492 -2.3175
   75MOL0     H10120   4.869   9.255   2.817  0.4555 -0.3140  0.9613
   75MOL0     H10121   5.126   9.174   2.502 -0.3298 -1.3448 -0.4234
   75MOL0     H10122   5.230   9.568   3.237  0.5357 -0.1753  0.7369
   75MOL0     H10123   5.231   9.923   3.153  2.6746  0.5070 -0.7378
   75MOL0     H10124   5.246   9.814   3.286  1.6387 -0.7591  0.8763
   75MOL0     H10125   5.387   9.844   3.169  0.4021  2.1420 -0.4597
   76MOL0     O10126   2.462  10.062   6.040  0.2181  0.3224 -0.4780
   76MOL0     C10127   2.425  10.174   6.067  0.4004 -0.3718  0.5333
   76MOL0     O10128   2.317  10.210   6.138 -0.4848 -0.3829 -0.5899
   76MOL0     C10129   2.258  10.106   6.201  0.0237 -0.9844 -0.4325
   76MOL0     C10130   2.128  10.078   6.181  0.1556  0.0365 -0.8339
   76MOL0     C10131   2.071   9.974   6.245  0.3534 -0.2900  0.1634
   76MOL0     C10132   2.139   9.896   6.347 -1.1257 -1.2101 -0.8661
   76MOL0     O10133   2.058   9.803   6.414 -0.3678  0.0247  0.2386
   76MOL0     C10134   2.109   9.749   6.535 -0.5720 -0.1821 -1.0578
   76MOL0     C10135   2.011   9.642   6.597 -0.1450 -0.3644 -0.6102
   76MOL0     C10136   2.047   9.594   6.741  0.0596 -0.0584 -0.2702
   76MOL0     C10137   1.986   9.452   6.771  0.3713 -0.0900 -0.7199
   76MOL0     C10138   2.081   9.338   6.791 -0.4341 -0.5387 -0.4185
   76MOL0     C10139   2.180   9.358   6.916  0.0940 -0.1532  0.3462
   76MOL0     C10140   2.250   9.226   6.942  0.0780  0.1067  0.1779
   76MOL0     C10141   2.335   9.241   7.063 -0.8656  0.1723 -0.4255
   76MOL0     N10142   2.461   9.323   7.036  0.6768 -0.1546 -0.2950
   76MOL0     C10143   2.585   9.274   6.999 -0.6468 -0.1861  0.0253
   76MOL0     C10144   2.665   9.383   6.996  0.5406 -0.1318 -0.1795
   76MOL0     C10145   2.815   9.392   6.964 -0.0516 -0.0576 -0.4145
   76MOL0     C10146   2.846   9.354   6.809  0.2937 -0.4533  1.3010
   76MOL0     C10147   2.876   9.478   6.729 -0.2306 -0.8419  0.1344
   76MOL0     C10148   2.859   9.450   6.583 -0.4927  0.5365  1.1980
   76MOL0     O10149   2.899   9.563   6.503  0.4389 -0.2467 -0.1950
   76MOL0     C10150   3.033   9.582   6.470 -0.1976 -0.7226  0.4428
   76MOL0     C10151   3.071   9.707   6.429  0.1421 -0.7228  0.3287
   76MOL0     C10152   3.202   9.741   6.391  0.4196 -0.1475 -1.1112
   76MOL0     C10153   3.307   9.642   6.406  0.5034 -0.8441  0.8431
   76MOL0     C10154   3.450   9.669   6.374  0.3458 -1.1343  0.3335
   76MOL0     O10155   3.524   9.551   6.354 -0.6575 -0.2899  0.3023
   76MOL0     C10156   3.658   9.566   6.321  0.9431  0.2530  0.7937
   76MOL0     C10157   3.689   9.553   6.184  0.4635 -0.0892  0.4787
   76MOL0     C10158   3.818   9.561   6.147 -0.2522  0.7459 -0.3553
   76MOL0     C10159   3.915   9.596   6.237 -0.5630  0.9212  0.0410
   76MOL0     O10160   4.035   9.625   6.198 -0.1694  0.3016  0.6248
   76MOL0     C10161   4.122   9.514   6.155 -0.0246  0.0487 -0.0694
   76MOL0     C10162   4.267   9.560   6.150  0.2080 -0.5501  0.6663
   76MOL0     C10163   4.350   9.450   6.099  0.2959  0.0743  0.0266
   76MOL0     C10164   4.501   9.470   6.101  0.1776 -0.1231  0.1063
   76MOL0     C10165   4.583   9.361   6.027  0.6172  0.5982  0.0683
   76MOL0     C10166   4.541   9.213   6.055 -0.4810 -0.0338  0.4701
   76MOL0     C10167   4.644   9.113   6.004  0.8729 -0.8531  0.8112
   76MOL0     C10168   4.618   8.967   6.052 -0.0325  0.5005  0.8031
   76MOL0    Cl10169   4.701   8.830   5.955 -0.2915 -0.5463 -0.4074
   76MOL0     C10170   3.886   9.618   6.373 -0.8128 -0.1192 -0.3743
   76MOL0     C10171   3.754   9.607   6.414  0.0521  0.2211  0.2237
   76MOL0     O10172   3.484   9.786   6.338  0.5355  0.2840  0.3062
   76MOL0     C10173   3.268   9.516   6.451  0.4769  0.6809  1.0630
   76MOL0     C10174   3.142   9.488   6.482 -0.1998  0.2353 -0.0331
   76MOL0     N10175   2.586   9.498   7.010 -0.3964 -0.9006 -0.3336
   76MOL0     N10176   2.466   9.462   7.044  0.2910 -0.0533 -0.5835
   76MOL0     C10177   2.278   9.921   6.361  0.4664 -0.4459  0.3456
   76MOL0     C10178   2.337  10.035   6.299  1.0134 -0.0637 -0.1760
   76MOL0     C10179   2.513  10.298   6.040 -0.7617  0.8779 -0.5489
   76MOL0     C10180   2.444  10.414   6.055 -0.2859  0.4688  0.0211
   76MOL0     C10181   2.509  10.533   6.034 -0.0299  1.0992 -0.1273
   76MOL0     C10182   2.644  10.544   6.008 -0.8197  0.3392  0.4503
   76MOL0     O10183   2.710  10.670   6.000  0.1810 -0.1193 -0.5411
   76MOL0     C10184   2.852  10.688   5.999 -0.5186 -0.1617 -0.6005
   76MOL0     C10185   2.897  10.728   5.858 -0.4628  0.3290  0.7739
   76MOL0     C10186   2.832  10.868   5.836  0.3616 -0.4216 -1.1643
   76MOL0     C10187   2.885  10.934   5.717  0.0733 -0.1638  0.1920
   76MOL0     C10188   3.031  10.954   5.715  0.9359 -0.2898 -0.4459
   76MOL0     C10189   3.147  10.964   5.728  0.4150  0.4987 -0.1960
   76MOL0     C10190   2.714  10.422   5.993  0.4090  1.2371  0.1898
   76MOL0     C10191   2.652  10.290   6.023  0.3329 -0.7509  0.5639
   76MOL0     C10192   2.730  10.155   6.004  0.5502  0.0109 -0.9739
   76MOL0     H10193   2.066  10.134   6.112 -2.9062  0.7140  2.1973
   76MOL0     H10194   1.967   9.946   6.234 -0.8617  2.5926  3.1215
   76MOL0     H10195   2.210   9.708   6.526 -1.1074 -2.0893  0.7298
   76MOL0     H10196   2.105   9.822   6.617  2.6234 -2.6240  1.5506
   76MOL0     H10197   2.005   9.549   6.539  0.5094 -0.8234  0.0519
   76MOL0     H10198   1.911   9.685   6.609  1.0273  2.5109 -0.2340
   76MOL0     H10199   2.016   9.665   6.818 -0.5734 -0.9885  0.3471
   76MOL0     H10200   2.156   9.592   6.753 -0.0753  0.1059  1.0823
   76MOL0     H10201   1.924   9.464   6.860  0.5511  1.3737 -0.7804
   76MOL0     H10202   1.919   9.425   6.688 -0.8348 -1.6688  0.6908
   76MOL0     H10203   2.035   9.239   6.804  0.4302 -0.7699  1.0553
   76MOL0     H10204   2.136   9.337   6.696  0.4694 -1.3279  0.0939
   76MOL0     H10205   2.256   9.429   6.881  1.2371 -2.6678 -2.7648
   76MOL0     H10206   2.115   9.391   6.998 -0.4471  0.0613 -0.1644
   76MOL0     H10207   2.318   9.205   6.859  1.1928 -0.0041  1.1026
   76MOL0     H10208   2.178   9.144   6.949 -2.8177  2.6054  1.9896
   76MOL0     H10209   2.278   9.269   7.152  1.1961  2.3573  0.3033
   76MOL0     H10210   2.376   9.143   7.092  0.0181  0.4413 -0.7460
   76MOL0     H10211   2.619   9.172   6.985  1.1674  0.5713 -1.6529
   76MOL0     H10212   2.853   9.493   6.986 -0.1808  0.2896 -1.7350
   76MOL0     H10213   2.863   9.324   7.035 -0.7822  1.4857  1.6630
   76MOL0     H10214   2.934   9.290   6.802  1.8940  1.5776  1.9059
   76MOL0     H10215   2.765   9.297   6.761 -0.9066  0.8233  1.7346
   76MOL0     H10216   2.977   9.512   6.752 -1.3657  1.6962  1.8038
   76MOL0     H10217   2.804   9.555   6.759  1.9810  0.9577  1.0852
   76MOL0     H10218   2.755   9.416   6.585 -1.1483  2.2416 -0.7592
   76MOL0     H10219   2.930   9.373   6.552  1.7489  3.1181 -0.6225
   76MOL0     H10220   2.991   9.780   6.425  1.5469  0.8232 -2.5695
   76MOL0     H10221   3.216   9.845   6.364 -0.9408  0.5370  0.6256
   76MOL0     H10222   3.607   9.536   6.116  1.4085  1.6229 -1.1799
   76MOL0     H10223   3.841   9.542   6.043  2.5225 -1.3900  0.5055
   76MOL0     H10224   4.129   9.418   6.207  0.4222 -2.0701 -3.7458
   76MOL0     H10225   4.092   9.477   6.057 -2.3220 -1.2122  1.0112
   76MOL0     H10226   4.271   9.655   6.095 -1.7755 -0.4722  0.5707
   76MOL0     H10227   4.292   9.590   6.252  2.5048  2.3806 -0.5909
   76MOL0     H10228   4.336   9.362   6.162  2.9424 -1.4587 -1.3419
   76MOL0     H10229   4.333   9.431   5.992  3.7599  2.5727 -1.1481
   76MOL0     H10230   4.533   9.482   6.205  0.4644  2.7391 -0.2310
   76MOL0     H10231   4.524   9.564   6.052 -1.6595  1.0796  1.4123
   76MOL0     H10232   4.685   9.365   6.067  0.2376 -0.2895  1.1804
   76MOL0     H10233   4.568   9.382   5.921 -1.0898  0.8576  0.3354
   76MOL0     H10234   4.537   9.202   6.163 -3.0118 -0.6717  0.3625
   76MOL0     H10235   4.438   9.199   6.023 -0.4319 -0.6585  0.5744
   76MOL0     H10236   4.732   9.145   6.060  2.1561 -1.7864 -0.6037
   76MOL0     H10237   4.663   9.124   5.897  0.1823 -1.5257  0.6145
   76MOL0     H10238   4.636   8.961   6.160 -0.2083 -1.8671  0.7634
   76MOL0     H10239   4.511   8.946   6.045 -0.0683  1.0889 -0.5664
   76MOL0     H10240   3.965   9.659   6.436 -0.7545 -1.6398  0.5944
   76MOL0     H10241   3.731   9.633   6.518  0.2366 -1.5990  0.7449
   76MOL0     H10242   3.344   9.439   6.458 -0.1958  0.0975  2.3394
   76MOL0     H10243   3.138   9.398   6.541 -1.6256  1.2031  1.4264
   76MOL0     H10244   2.333   9.861   6.433 -1.1243 -0.7271  1.3681
   76MOL0     H10245   2.438  10.072   6.317  1.2972 -0.7193 -0.3850
   76MOL0     H10246   2.337  10.421   6.077 -0.6214 -2.2732 -0.4201
   76MOL0     H10247   2.463  10.631   6.044  2.8997  2.7329 -1.3927
   76MOL0     H10248   2.913  10.603   6.032 -0.6225  0.5665  1.6492
   76MOL0     H10249   2.879  10.772   6.064 -1.3659  0.6540 -1.2760
   76MOL0     H10250   2.852  10.659   5.785  1.0127  1.2443 -1.0976
   76MOL0     H10251   3.005  10.721   5.844 -0.3331  0.4254  1.6524
   76MOL0     H10252   2.842  10.942   5.916 -4.0707  2.7985 -3.1453
   76MOL0     H10253   2.724  10.868   5.823  0.1963  3.1834 -0.7699
   76MOL0     H10254   2.856  10.875   5.629  0.4539  1.5325 -1.1278
   76MOL0     H10255   2.837  11.032   5.708  2.9189  1.2310 -0.9099
   76MOL0     H10256   3.249  10.968   5.760  0.7785 -0.8372 -1.1152
   76MOL0     H10257   2.820  10.431   5.971  0.4893  0.3152  0.1720
   76MOL0     H10258   2.829  10.170   5.962 -0.2216  0.3136 -2.7879
   76MOL0     H10259   2.733  10.107   6.102 -0.7102 -1.1441 -1.4624
   76MOL0     H10260   2.672  10.089   5.939  0.9893  0.3419 -1.7137
   77MOL0     O10261  10.902   4.463   3.430  0.1021  0.0940  0.0164
   77MOL0     C10262  10.818   4.553   3.397  0.4515  0.7104 -0.3776
   77MOL0     O10263  10.821   4.626   3.291  0.2638  0.1139  0.0399
   77MOL0     C10264  10.941   4.655   3.233  0.2762 -0.4328 -0.4905
   77MOL0     C10265  11.047   4.722   3.303 -0.0606  0.1158  0.9753
   77MOL0     C10266  11.155   4.771   3.233  0.5990  0.4135  0.1910
   77MOL0     C10267  11.174   4.736   3.096  0.3849 -0.7335 -0.1818
   77MOL0     O10268  11.283   4.760   3.019 -0.7218  0.0354  0.4339
   77MOL0     C10269  11.402   4.790   3.099  0.3341  0.1059 -1.0620
   77MOL0     C10270  11.528   4.793   3.019 -0.0461 -1.6453 -0.3437
   77MOL0     C10271  11.552   4.671   2.936 -0.1954  0.1297  0.4507
   77MOL0     C10272  11.573   4.540   3.006  0.0148  1.3971 -0.4902
   77MOL0     C10273  11.642   4.431   2.928 -0.0547  0.5154 -0.1004
   77MOL0     C10274  11.638   4.298   3.003  0.3116 -0.0860 -0.5893
   77MOL0     C10275  11.763   4.215   2.960 -0.3651 -0.1985  0.4603
   77MOL0     C10276  11.888   4.269   3.024  0.4573  0.4611  0.6958
   77MOL0     N10277  12.006   4.198   2.980 -0.0586  1.1279 -0.2783
   77MOL0     C10278  12.022   4.069   2.945  0.3806 -0.0504 -0.3591
   77MOL0     C10279  12.157   4.053   2.933 -0.4257 -0.7832  0.4058
   77MOL0     C10280  12.220   3.915   2.902  0.4961 -0.5067 -0.6481
   77MOL0     C10281  12.260   3.836   3.030  0.2589  0.4940 -0.1102
   77MOL0     C10282  12.371   3.913   3.101 -0.1708  0.1304  0.3668
   77MOL0     C10283  12.428   3.815   3.201 -0.3781  0.0877 -0.5171
   77MOL0     O10284  12.320   3.754   3.282  0.0933 -0.2031 -0.2118
   77MOL0     C10285  12.287   3.804   3.407  0.3810  0.4792 -0.0168
   77MOL0     C10286  12.245   3.715   3.504 -0.5198  0.2078  0.4747
   77MOL0     C10287  12.193   3.753   3.625 -0.0595 -1.0267 -0.0039
   77MOL0     C10288  12.184   3.889   3.658  0.0371  0.5187  0.3331
   77MOL0     C10289  12.125   3.932   3.790  0.3484 -0.0019  0.4659
   77MOL0     O10290  12.067   3.835   3.865 -0.5266 -0.4537 -0.1814
   77MOL0     C10291  11.982   3.879   3.971 -0.4676  0.4148  0.3603
   77MOL0     C10292  11.989   3.795   4.081 -0.0689  0.0409  1.0214
   77MOL0     C10293  11.895   3.806   4.181 -0.2229  0.0122  0.3197
   77MOL0     C10294  11.794   3.897   4.178 -0.3896 -0.7042  0.0263
   77MOL0     O10295  11.730   3.909   4.300  0.7729 -0.4063  0.5468
   77MOL0     C10296  11.631   4.009   4.301  1.2068 -0.5820  0.7937
   77MOL0     C10297  11.557   4.005   4.429 -0.0717  0.3107  0.0164
   77MOL0     C10298  11.662   4.019   4.541 -0.3505  0.0610  0.3991
   77MOL0     C10299  11.604   4.065   4.668 -0.1516 -0.3491 -0.2343
   77MOL0     C10300  11.725   4.082   4.758 -0.5765  0.1955  0.2039
   77MOL0     C10301  11.692   4.072   4.907  0.1280 -0.8464 -0.6372
   77MOL0     C10302  11.757   3.960   4.983  0.3647  0.5561 -0.5222
   77MOL0     C10303  11.680   3.828   4.986  0.7183  0.8769 -0.3312
   77MOL0    Cl10304  11.654   3.751   4.826  0.1135 -0.3672 -0.0600
   77MOL0     C10305  11.784   3.985   4.064 -0.3837  0.8545 -0.9083
   77MOL0     C10306  11.880   3.975   3.961  0.8907  0.6584 -0.2310
   77MOL0     O10307  12.128   4.054   3.816  0.9126  0.5910  0.5298
   77MOL0     C10308  12.237   3.981   3.559 -0.7956 -0.1366 -0.7775
   77MOL0     C10309  12.278   3.933   3.438  0.6965 -0.4284 -0.2977
   77MOL0     N10310  12.223   4.170   2.962 -0.9576 -0.3284 -0.6270
   77MOL0     N10311  12.127   4.256   2.980  0.3803 -0.4964 -0.1191
   77MOL0     C10312  11.068   4.682   3.028  0.5109 -0.0774  0.2585
   77MOL0     C10313  10.947   4.649   3.099 -0.1218  0.4759  0.1741
   77MOL0     C10314  10.687   4.550   3.461  0.0051  0.4340  0.2063
   77MOL0     C10315  10.571   4.561   3.377 -0.3438 -0.5954 -0.1034
   77MOL0     C10316  10.446   4.551   3.426  0.3701 -0.4331 -0.8281
   77MOL0     C10317  10.433   4.525   3.574 -0.1783  0.1333  0.6219
   77MOL0     O10318  10.301   4.527   3.627 -0.4767 -0.1708  0.1682
   77MOL0     C10319  10.279   4.557   3.769 -0.3810 -0.0500  0.3689
   77MOL0     C10320  10.316   4.700   3.809 -0.0566  0.3019 -1.8950
   77MOL0     C10321  10.228   4.753   3.925 -0.1530  0.1108  0.1436
   77MOL0     C10322  10.252   4.896   3.976 -0.4995  0.4754  0.8733
   77MOL0     C10323  10.244   4.995   3.867  0.6591 -0.0756 -0.5899
   77MOL0     C10324  10.235   5.093   3.791  0.7373  0.7284  0.4612
   77MOL0     C10325  10.549   4.518   3.652 -0.5460 -0.2546  0.7917
   77MOL0     C10326  10.675   4.530   3.599 -0.1572 -0.1636 -0.7311
   77MOL0     C10327  10.782   4.523   3.698  0.2303 -0.0186  0.8012
   77MOL0     H10328  11.031   4.725   3.411 -1.0316 -0.4761  0.8642
   77MOL0     H10329  11.216   4.823   3.306 -1.2565  1.2488  1.2273
   77MOL0     H10330  11.383   4.875   3.166  0.6920 -0.5058 -0.1715
   77MOL0     H10331  11.428   4.701   3.156  1.0893 -0.9002 -2.8980
   77MOL0     H10332  11.617   4.814   3.080 -0.0797  2.3889 -1.3920
   77MOL0     H10333  11.526   4.880   2.952 -1.2616 -0.5814  1.0274
   77MOL0     H10334  11.637   4.681   2.868  0.3889 -1.9193  0.8268
   77MOL0     H10335  11.468   4.668   2.866  0.6485  3.5499 -0.9467
   77MOL0     H10336  11.635   4.559   3.094  2.6407 -2.7849 -1.1232
   77MOL0     H10337  11.474   4.504   3.037  1.5506 -2.5878  0.5028
   77MOL0     H10338  11.599   4.402   2.831  4.0762 -0.8743 -1.7336
   77MOL0     H10339  11.742   4.469   2.906  0.1109 -0.2745 -0.7653
   77MOL0     H10340  11.657   4.322   3.108 -2.2346 -0.3924 -0.0003
   77MOL0     H10341  11.538   4.254   3.012  0.3215 -0.4333 -2.0367
   77MOL0     H10342  11.766   4.222   2.851 -1.3490  1.2198  0.4852
   77MOL0     H10343  11.751   4.111   2.990  0.0274  0.3363  2.6084
   77MOL0     H10344  11.887   4.374   2.994 -1.9473  1.2288  3.0004
   77MOL0     H10345  11.874   4.261   3.133 -1.7297  0.6967  0.4797
   77MOL0     H10346  11.934   4.006   2.936 -0.2173  0.8098 -0.6200
   77MOL0     H10347  12.156   3.852   2.839  0.6361 -0.5040 -0.7936
   77MOL0     H10348  12.301   3.950   2.836 -1.5100 -0.2746 -3.1689
   77MOL0     H10349  12.167   3.806   3.080 -1.0424  0.8718 -2.2018
   77MOL0     H10350  12.305   3.742   2.998 -0.8754 -0.1371  0.1054
   77MOL0     H10351  12.323   4.002   3.144 -1.1537 -0.2049 -0.0090
   77MOL0     H10352  12.451   3.945   3.033  1.3970  0.5825  2.3213
   77MOL0     H10353  12.492   3.861   3.277 -0.1729  0.6896 -1.0457
   77MOL0     H10354  12.468   3.730   3.146 -2.0118  0.1627 -1.9122
   77MOL0     H10355  12.240   3.609   3.481  0.9204 -0.4235  2.6880
   77MOL0     H10356  12.161   3.696   3.711 -0.7834 -1.5594 -0.6187
   77MOL0     H10357  12.066   3.718   4.078  0.8741  0.9765 -1.6296
   77MOL0     H10358  11.901   3.733   4.260 -0.3878 -0.6721 -0.2913
   77MOL0     H10359  11.672   4.110   4.288 -1.7855  0.8097  1.3286
   77MOL0     H10360  11.571   3.992   4.211  1.2896  2.2656  0.1067
   77MOL0     H10361  11.482   4.084   4.436  0.2091  0.6806 -0.9373
   77MOL0     H10362  11.496   3.915   4.444 -1.4124  0.4821 -3.3919
   77MOL0     H10363  11.727   3.933   4.560  0.2526  0.4353  0.0794
   77MOL0     H10364  11.734   4.095   4.508 -2.6486  2.3700  0.3854
   77MOL0     H10365  11.531   3.998   4.715  1.6306 -2.6289 -0.5593
   77MOL0     H10366  11.577   4.171   4.656  2.2181  0.1526 -1.7680
   77MOL0     H10367  11.782   4.174   4.745  1.1732 -0.6253  1.6366
   77MOL0     H10368  11.794   3.999   4.742 -4.0166 -2.9482  0.2719
   77MOL0     H10369  11.751   4.156   4.943  2.7379 -2.8719  0.1895
   77MOL0     H10370  11.587   4.089   4.931  0.0604  0.4915 -1.7574
   77MOL0     H10371  11.788   3.994   5.082 -0.5026  0.2182 -0.1338
   77MOL0     H10372  11.853   3.939   4.933  2.0467  2.0806  1.8277
   77MOL0     H10373  11.735   3.757   5.049 -0.2215 -2.1778 -2.7305
   77MOL0     H10374  11.589   3.837   5.047  1.2620  1.5242  0.4042
   77MOL0     H10375  11.703   4.057   4.058 -2.6297 -1.0866  2.5305
   77MOL0     H10376  11.881   4.044   3.877 -2.0240  2.4163  1.0316
   77MOL0     H10377  12.243   4.082   3.599 -2.2160 -1.3894  3.0914
   77MOL0     H10378  12.309   4.014   3.373 -1.2907 -0.1572 -0.9744
   77MOL0     H10379  11.087   4.670   2.922  2.0223  3.0902  0.0594
   77MOL0     H10380  10.869   4.596   3.045 -0.0601 -1.1659  1.6218
   77MOL0     H10381  10.589   4.584   3.273  2.5464  0.0913  0.4743
   77MOL0     H10382  10.358   4.571   3.365  0.1673 -0.3783 -0.5188
   77MOL0     H10383  10.318   4.482   3.839  0.5811  1.2143  1.2521
   77MOL0     H10384  10.171   4.551   3.778 -0.6263  1.5353 -1.1379
   77MOL0     H10385  10.302   4.764   3.721  3.7682  4.6313  0.1633
   77MOL0     H10386  10.422   4.692   3.838 -0.4360 -2.7409 -1.0619
   77MOL0     H10387  10.237   4.682   4.008  1.0671 -0.0526 -0.1165
   77MOL0     H10388  10.122   4.750   3.896 -0.3605 -1.7065  0.9541
   77MOL0     H10389  10.195   4.925   4.065 -1.9919  2.5440 -0.6451
   77MOL0     H10390  10.355   4.902   4.013  0.4970 -2.7146 -1.0105
   77MOL0     H10391  10.218   5.174   3.723  0.9690  3.7907  3.7387
   77MOL0     H10392  10.537   4.512   3.760 -2.8594  0.2524  0.6092
   77MOL0     H10393  10.869   4.571   3.653  0.4819 -2.0166 -0.9791
   77MOL0     H10394  10.755   4.563   3.797 -1.7108  1.8406 -0.3808
   77MOL0     H10395  10.819   4.420   3.703  2.8286  0.8207  0.4459
   78MOL0     O10396   7.911   7.865   2.796 -0.4266  0.5573  0.4483
   78MOL0     C10397   7.884   7.836   2.677 -0.1943 -0.1638 -0.7342
   78MOL0     O10398   7.808   7.917   2.605 -0.0349 -0.1672  0.4582
   78MOL0     C10399   7.789   8.042   2.647  1.0680 -0.2717 -0.6827
   78MOL0     C10400   7.696   8.073   2.758 -0.2474  0.9562  0.4166
   78MOL0     C10401   7.682   8.194   2.809  1.0913 -0.4758 -0.1059
   78MOL0     C10402   7.754   8.303   2.751 -0.4482 -0.5994 -0.7880
   78MOL0     O10403   7.753   8.431   2.818  0.1397 -0.5014  0.5678
   78MOL0     C10404   7.847   8.444   2.930  0.2122 -0.4518 -0.2673
   78MOL0     C10405   7.820   8.549   3.047 -0.6641  0.3272  0.8511
   78MOL0     C10406   7.706   8.505   3.134 -0.6485 -0.3919 -1.4295
   78MOL0     C10407   7.693   8.577   3.269  0.1626  0.3647  0.5092
   78MOL0     C10408   7.566   8.537   3.360 -0.3581 -0.6625  0.7139
   78MOL0     C10409   7.517   8.628   3.474  0.1824 -0.7446  0.5542
   78MOL0     C10410   7.406   8.559   3.547  0.8081 -0.3792 -1.0536
   78MOL0     C10411   7.265   8.611   3.495 -0.6550  1.0509  0.3857
   78MOL0     N10412   7.160   8.544   3.573 -0.7631  0.3309  0.4769
   78MOL0     C10413   7.156   8.409   3.581 -0.0635 -0.4919 -1.1580
   78MOL0     C10414   7.038   8.404   3.652 -0.0194 -0.1000  0.2421
   78MOL0     C10415   6.986   8.277   3.730  0.2012 -0.2461  0.4713
   78MOL0     C10416   7.092   8.195   3.795  1.3081  0.2885 -0.1417
   78MOL0     C10417   7.043   8.050   3.817  0.3415 -0.0761 -0.9423
   78MOL0     C10418   7.152   7.973   3.883  0.2332 -0.4547  0.3253
   78MOL0     O10419   7.167   8.016   4.025  0.1013  0.3172 -0.5082
   78MOL0     C10420   7.295   8.027   4.073  0.9616 -0.3471 -0.7924
   78MOL0     C10421   7.310   8.088   4.198 -0.2690 -0.2294  0.2884
   78MOL0     C10422   7.441   8.094   4.251 -0.1511  0.1188 -0.8279
   78MOL0     C10423   7.558   8.067   4.180 -0.0329 -0.0303  0.3669
   78MOL0     C10424   7.691   8.096   4.224 -0.2580 -0.4592 -0.5354
   78MOL0     O10425   7.706   8.160   4.339 -0.2011 -0.4086  0.1683
   78MOL0     C10426   7.832   8.218   4.354  0.3225  0.6315 -0.2777
   78MOL0     C10427   7.873   8.332   4.272  0.1312 -0.0798 -0.6193
   78MOL0     C10428   8.003   8.386   4.282  0.8072  0.0427  0.0496
   78MOL0     C10429   8.089   8.338   4.383  0.0013 -0.3232 -0.1515
   78MOL0     O10430   8.213   8.384   4.398  0.1492  1.1919 -0.0093
   78MOL0     C10431   8.246   8.513   4.360  0.2040 -0.5779  0.8037
   78MOL0     C10432   8.385   8.534   4.417 -0.7860  0.5329  0.2378
   78MOL0     C10433   8.378   8.539   4.571  0.2493  1.0063  0.5096
   78MOL0     C10434   8.514   8.568   4.632  0.0782 -0.2951 -0.1868
   78MOL0     C10435   8.546   8.532   4.778 -0.2133  0.0713  0.7495
   78MOL0     C10436   8.701   8.561   4.799 -0.1201 -0.8004 -0.1740
   78MOL0     C10437   8.777   8.437   4.861  0.4097 -0.4196  0.3037
   78MOL0     C10438   8.925   8.470   4.845  0.5109  0.0477  0.3872
   78MOL0    Cl10439   9.011   8.336   4.920  0.1292  0.0333 -0.5230
   78MOL0     C10440   8.049   8.227   4.462 -0.3726  0.3884  0.3523
   78MOL0     C10441   7.921   8.173   4.456 -0.3487  0.3683  0.8473
   78MOL0     O10442   7.787   8.061   4.153  0.5023 -0.6595 -0.3945
   78MOL0     C10443   7.540   8.006   4.055  0.1464 -0.7135  0.8805
   78MOL0     C10444   7.406   7.987   3.998  0.0085  1.2068 -1.1121
   78MOL0     N10445   6.995   8.529   3.685  0.4241 -0.3132  0.5535
   78MOL0     N10446   7.068   8.615   3.640 -0.1218 -0.6689  0.4195
   78MOL0     C10447   7.835   8.277   2.638  0.2976 -0.2258 -0.5491
   78MOL0     C10448   7.859   8.149   2.581 -0.2214  0.0904  0.8684
   78MOL0     C10449   7.926   7.701   2.628 -0.1687 -0.3325  0.3408
   78MOL0     C10450   7.923   7.685   2.486  0.5662 -0.3523 -0.5379
   78MOL0     C10451   7.957   7.563   2.426 -0.3364 -0.3934  0.6688
   78MOL0     C10452   8.007   7.460   2.500 -0.6611  0.2662 -1.0474
   78MOL0     O10453   8.069   7.344   2.459  0.2220 -0.2359  0.0211
   78MOL0     C10454   8.186   7.362   2.378 -0.5951  0.6480 -1.3251
   78MOL0     C10455   8.168   7.332   2.242 -0.2465 -0.2209  0.9351
   78MOL0     C10456   8.292   7.366   2.156 -0.0377 -0.3738  0.0754
   78MOL0     C10457   8.270   7.381   2.011  0.5689 -0.0148  0.5526
   78MOL0     C10458   8.217   7.262   1.951 -0.2445  0.1061 -0.1032
   78MOL0     C10459   8.165   7.152   1.909 -0.1184 -1.1079 -1.0102
   78MOL0     C10460   8.009   7.481   2.646 -0.3528 -0.9799 -0.0460
   78MOL0     C10461   7.972   7.598   2.712 -0.4767  0.3247  0.4174
   78MOL0     C10462   7.960   7.608   2.860 -0.0098 -0.3145 -0.3096
   78MOL0     H10463   7.647   7.986   2.801 -0.7610  0.6390 -0.7545
   78MOL0     H10464   7.630   8.207   2.903 -0.4886 -1.5554 -0.7750
   78MOL0     H10465   7.830   8.351   2.984 -1.2791 -0.0866 -0.0747
   78MOL0     H10466   7.943   8.443   2.877  0.6580  1.5707  0.3989
   78MOL0     H10467   7.792   8.648   3.011  0.1007  0.7311  1.3293
   78MOL0     H10468   7.916   8.559   3.098  0.4103  1.1735 -1.2025
   78MOL0     H10469   7.732   8.403   3.167  2.5546  1.2901  1.9824
   78MOL0     H10470   7.604   8.504   3.094 -2.2633  0.0658  2.1954
   78MOL0     H10471   7.779   8.549   3.331  0.5765 -0.6520 -0.4920
   78MOL0     H10472   7.695   8.685   3.253 -0.1775 -0.1325 -4.2752
   78MOL0     H10473   7.477   8.523   3.297 -0.0326  1.1696 -0.2027
   78MOL0     H10474   7.581   8.437   3.403  0.9117  0.3902  2.8366
   78MOL0     H10475   7.604   8.650   3.537  2.0273 -0.1370 -2.0132
   78MOL0     H10476   7.481   8.724   3.434 -0.2280 -1.1816 -0.1542
   78MOL0     H10477   7.404   8.569   3.656  0.0337 -1.6300 -0.9169
   78MOL0     H10478   7.405   8.449   3.541 -1.0284 -0.3331 -2.9007
   78MOL0     H10479   7.258   8.720   3.501  0.1215  1.0505  1.5376
   78MOL0     H10480   7.260   8.591   3.387  1.5284 -0.7754  0.5686
   78MOL0     H10481   7.223   8.329   3.554 -0.0439 -1.3565  1.2728
   78MOL0     H10482   6.918   8.311   3.810  0.7491 -0.3401  0.9816
   78MOL0     H10483   6.913   8.224   3.669 -2.4012  3.0086  0.4444
   78MOL0     H10484   7.164   8.191   3.713  0.5613 -0.2692 -0.7820
   78MOL0     H10485   7.131   8.244   3.885 -1.4780  1.8065  0.3786
   78MOL0     H10486   7.002   8.000   3.728 -1.7486  0.6247 -0.4310
   78MOL0     H10487   6.964   8.064   3.891  1.7485 -3.0765  1.3439
   78MOL0     H10488   7.235   7.988   3.812  0.0559  0.4936  0.3086
   78MOL0     H10489   7.123   7.868   3.873 -1.9950  0.0518  1.0773
   78MOL0     H10490   7.222   8.123   4.252  0.7081  0.2893  1.5906
   78MOL0     H10491   7.452   8.133   4.351  3.5954  1.1319 -1.4854
   78MOL0     H10492   7.800   8.365   4.198 -2.3201 -2.9805  0.3186
   78MOL0     H10493   8.022   8.470   4.216  1.8470 -1.1706 -1.2347
   78MOL0     H10494   8.239   8.514   4.251 -1.7922  2.2803  0.8517
   78MOL0     H10495   8.174   8.582   4.406  1.0206 -1.0422  2.9014
   78MOL0     H10496   8.461   8.458   4.394  1.8975  2.5746  1.7718
   78MOL0     H10497   8.429   8.625   4.377 -0.4388 -0.9001 -2.9684
   78MOL0     H10498   8.311   8.621   4.599  1.4600  2.0236  0.5034
   78MOL0     H10499   8.337   8.442   4.602  0.2432 -0.0601 -2.5136
   78MOL0     H10500   8.520   8.677   4.635  4.5970 -0.2892 -1.1407
   78MOL0     H10501   8.589   8.522   4.566  1.3842  0.6708  0.5569
   78MOL0     H10502   8.529   8.426   4.799  5.6846 -1.3374  0.1011
   78MOL0     H10503   8.484   8.595   4.842  0.6641  1.2060  0.5068
   78MOL0     H10504   8.750   8.591   4.705 -0.3663 -0.8394 -0.3152
   78MOL0     H10505   8.704   8.655   4.855 -0.6459 -0.8764 -0.0183
   78MOL0     H10506   8.754   8.348   4.802 -1.2510 -1.5157  2.4641
   78MOL0     H10507   8.739   8.413   4.960 -2.1454  1.6935 -0.0526
   78MOL0     H10508   8.960   8.484   4.742  2.2919  2.4552  1.2108
   78MOL0     H10509   8.942   8.564   4.897 -0.6034 -0.4355  1.6622
   78MOL0     H10510   8.117   8.183   4.534  1.1851  0.4499 -1.0379
   78MOL0     H10511   7.887   8.087   4.513  2.9037 -2.5578 -1.2496
   78MOL0     H10512   7.615   7.963   3.989  0.9360  4.1600 -1.8920
   78MOL0     H10513   7.403   7.934   3.903 -0.0475  0.9464 -0.9653
   78MOL0     H10514   7.905   8.348   2.596  1.7225  0.3249  2.4625
   78MOL0     H10515   7.934   8.142   2.502 -0.0289 -0.7139  1.1090
   78MOL0     H10516   7.873   7.761   2.426 -0.5088 -1.2430 -0.7964
   78MOL0     H10517   7.956   7.543   2.319  0.0587 -1.0171  0.7732
   78MOL0     H10518   8.262   7.301   2.428  1.3110  3.9820  0.1910
   78MOL0     H10519   8.221   7.465   2.386 -2.6514  1.2799  0.5139
   78MOL0     H10520   8.090   7.394   2.195 -0.7531 -1.6682 -0.2227
   78MOL0     H10521   8.137   7.227   2.235 -0.1082 -0.1403 -3.3272
   78MOL0     H10522   8.373   7.293   2.172 -0.4441 -0.8649 -0.0723
   78MOL0     H10523   8.337   7.462   2.182 -2.6420  1.3556 -1.3666
   78MOL0     H10524   8.203   7.466   1.996 -0.3127 -1.0434 -1.9958
   78MOL0     H10525   8.369   7.403   1.970  1.4797  0.3144  2.8060
   78MOL0     H10526   8.126   7.054   1.890  1.3857 -1.8531 -0.4519
   78MOL0     H10527   8.047   7.398   2.705  3.3272 -1.4035 -2.6889
   78MOL0     H10528   8.029   7.683   2.900 -4.2685  2.8280  1.9185
   78MOL0     H10529   7.864   7.652   2.888 -0.0340 -2.5123  3.7609
   78MOL0     H10530   7.965   7.511   2.910 -0.1390  0.0110  0.3385
   79MOL0     O10531   8.216   0.253   1.345 -0.1959  0.1910  0.3482
   79MOL0     C10532   8.287   0.204   1.439  0.5039 -0.4364  0.3942
   79MOL0     O10533   8.408   0.260   1.485 -0.6019 -0.0872 -0.3626
   79MOL0     C10534   8.426   0.398   1.459  0.2940 -0.2985  0.3681
   79MOL0     C10535   8.351   0.502   1.528 -0.5851  0.0881  0.0107
   79MOL0     C10536   8.382   0.638   1.522 -0.4615 -0.4646  0.2193
   79MOL0     C10537   8.478   0.675   1.420  0.2676 -0.2726 -0.0724
   79MOL0     O10538   8.497   0.800   1.374  0.5809  0.1819  0.7015
   79MOL0     C10539   8.390   0.889   1.383  0.2305 -0.4260 -0.0404
   79MOL0     C10540   8.419   1.032   1.333 -0.1602 -0.6229 -0.2919
   79MOL0     C10541   8.567   1.065   1.360  0.8414 -0.3395  0.3294
   79MOL0     C10542   8.598   1.211   1.317  0.3098 -0.9521  0.9353
   79MOL0     C10543   8.714   1.236   1.211  1.4431 -0.1775 -0.4521
   79MOL0     C10544   8.678   1.187   1.076 -0.1707 -0.2390  0.0232
   79MOL0     C10545   8.576   1.267   0.997 -0.2092 -0.1297 -0.1742
   79MOL0     C10546   8.617   1.409   0.955 -0.3157 -0.4947  0.5545
   79MOL0     N10547   8.519   1.472   0.879  0.2336 -0.5713 -0.6391
   79MOL0     C10548   8.438   1.409   0.791 -0.5837  0.3834  0.7203
   79MOL0     C10549   8.355   1.511   0.740  1.0536  0.2481 -0.1249
   79MOL0     C10550   8.249   1.486   0.629  1.4774  0.0386 -0.4177
   79MOL0     C10551   8.112   1.523   0.688  0.4573 -0.9560 -0.4147
   79MOL0     C10552   8.000   1.475   0.602  0.2588  0.9556  0.7258
   79MOL0     C10553   7.968   1.321   0.616  0.0413  0.3501 -0.0214
   79MOL0     O10554   7.911   1.285   0.749  0.1959  0.3632  0.4299
   79MOL0     C10555   7.776   1.300   0.769  0.2085  0.4083 -1.0816
   79MOL0     C10556   7.721   1.247   0.892 -0.3331 -1.2526 -0.1800
   79MOL0     C10557   7.582   1.252   0.916 -0.7770  0.0981  1.1288
   79MOL0     C10558   7.496   1.322   0.821  0.4912  0.3821  0.3829
   79MOL0     C10559   7.344   1.314   0.828 -0.1275 -0.2975  0.2195
   79MOL0     O10560   7.296   1.265   0.943 -0.4342 -0.0920  0.4539
   79MOL0     C10561   7.170   1.301   0.970  1.4069 -0.4997 -0.5942
   79MOL0     C10562   7.058   1.219   0.949 -0.0331 -0.6454  0.3426
   79MOL0     C10563   6.928   1.269   0.979  0.2360  0.9530 -1.0344
   79MOL0     C10564   6.906   1.393   1.046 -0.0391 -0.2889 -0.6882
   79MOL0     O10565   6.782   1.423   1.100  0.0251  0.3037 -0.1332
   79MOL0     C10566   6.758   1.553   1.163  0.1608  0.8186  1.2106
   79MOL0     C10567   6.814   1.555   1.309 -0.5162  1.3038 -0.5270
   79MOL0     C10568   6.724   1.628   1.407  0.2833 -0.4018  0.4075
   79MOL0     C10569   6.691   1.780   1.369  0.7476 -0.4293 -0.2417
   79MOL0     C10570   6.554   1.826   1.380 -0.9152  0.0059  0.1824
   79MOL0     C10571   6.499   1.820   1.526  0.8539  0.4067 -0.7503
   79MOL0     C10572   6.561   1.929   1.610 -0.4437  0.1355 -0.6838
   79MOL0     C10573   6.502   1.918   1.750  0.4616 -0.0885 -0.0865
   79MOL0    Cl10574   6.568   2.044   1.846  0.0628  0.1873 -0.1376
   79MOL0     C10575   7.021   1.476   1.061 -0.2565  0.0450 -0.9171
   79MOL0     C10576   7.147   1.429   1.024  0.0912  0.8210 -0.2897
   79MOL0     O10577   7.275   1.349   0.734 -0.4367 -0.3103  0.1352
   79MOL0     C10578   7.558   1.363   0.702  0.5176  0.4385 -0.1854
   79MOL0     C10579   7.692   1.348   0.680  0.2142  0.3174  0.8536
   79MOL0     N10580   8.372   1.628   0.805  0.3816  0.3258  0.3298
   79MOL0     N10581   8.478   1.605   0.879 -0.3439  0.2729  0.1958
   79MOL0     C10582   8.556   0.575   1.352  0.7639 -0.8061 -0.3307
   79MOL0     C10583   8.530   0.442   1.370 -0.2576  0.3622  0.9056
   79MOL0     C10584   8.255   0.063   1.494 -0.7485  0.2525 -0.5876
   79MOL0     C10585   8.343   0.004   1.584 -0.4081  0.3091  0.3018
   79MOL0     C10586   8.296  -0.107   1.650 -0.6060  0.4605 -0.1843
   79MOL0     C10587   8.189  -0.187   1.609 -0.4940  0.3542  1.1246
   79MOL0     O10588   8.148  -0.308   1.660  1.3002  0.3348  1.2988
   79MOL0     C10589   8.213  -0.350   1.780  0.2229 -0.0532  0.8647
   79MOL0     C10590   8.129  -0.465   1.834 -0.1708  0.1773  1.6274
   79MOL0     C10591   8.011  -0.417   1.921 -0.1724 -0.4281  0.0163
   79MOL0     C10592   7.910  -0.330   1.829 -0.3878 -0.8430 -0.7717
   79MOL0     C10593   7.792  -0.301   1.914 -0.2216 -0.4872  0.0759
   79MOL0     C10594   7.693  -0.285   1.984  0.5985  0.1127  1.3346
   79MOL0     C10595   8.106  -0.124   1.518 -0.6317 -0.1032  0.1776
   79MOL0     C10596   8.132   0.002   1.464 -0.2555  1.0588 -0.2114
   79MOL0     C10597   8.021   0.048   1.372 -0.3246  0.2742  0.1445
   79MOL0     H10598   8.278   0.456   1.594  1.6637 -1.3955  1.6298
   79MOL0     H10599   8.325   0.720   1.565  1.3591  1.5964 -1.0147
   79MOL0     H10600   8.308   0.836   1.334  0.1459  0.4016 -0.8218
   79MOL0     H10601   8.364   0.901   1.489 -1.6397 -0.3067 -0.4897
   79MOL0     H10602   8.348   1.099   1.383 -1.7831 -1.4686 -1.3898
   79MOL0     H10603   8.409   1.034   1.224  0.1600  2.5011 -0.3745
   79MOL0     H10604   8.635   1.002   1.302 -0.3202 -2.2374  0.9333
   79MOL0     H10605   8.604   1.047   1.462  2.8253  0.7761 -0.1532
   79MOL0     H10606   8.503   1.255   1.285  0.2170 -0.8179  1.3859
   79MOL0     H10607   8.620   1.266   1.409 -0.2869 -0.1044  0.5866
   79MOL0     H10608   8.743   1.342   1.208  1.3505 -0.1734 -1.7711
   79MOL0     H10609   8.796   1.172   1.246  1.0045  0.7876  2.6480
   79MOL0     H10610   8.766   1.172   1.012  0.8131 -0.1661  1.3323
   79MOL0     H10611   8.627   1.090   1.078 -2.4584  0.8355 -1.3539
   79MOL0     H10612   8.479   1.268   1.049 -0.2393  0.5594 -0.2247
   79MOL0     H10613   8.544   1.206   0.912  1.0221 -0.3292 -0.5072
   79MOL0     H10614   8.650   1.468   1.041  0.2586  0.0398 -0.0290
   79MOL0     H10615   8.694   1.401   0.878  0.0531  1.3568  0.6858
   79MOL0     H10616   8.459   1.305   0.768  2.4194  1.2591 -1.0684
   79MOL0     H10617   8.260   1.545   0.537 -1.8101  0.4968 -0.6637
   79MOL0     H10618   8.248   1.381   0.601  1.1651 -0.4435  1.3093
   79MOL0     H10619   8.097   1.499   0.793 -1.7358 -1.3376 -0.7683
   79MOL0     H10620   8.116   1.632   0.680  1.1367 -0.7744  1.7784
   79MOL0     H10621   8.016   1.491   0.495 -0.5331 -1.5211  0.1715
   79MOL0     H10622   7.909   1.531   0.623 -1.5094 -1.9724  1.3644
   79MOL0     H10623   8.064   1.268   0.609 -0.1942 -0.7624  3.4714
   79MOL0     H10624   7.907   1.287   0.532 -0.5767  1.0661  0.1345
   79MOL0     H10625   7.796   1.204   0.958  0.8386  2.6822  1.3744
   79MOL0     H10626   7.542   1.195   0.999 -2.4136  1.3857  1.2599
   79MOL0     H10627   7.074   1.118   0.913  3.2083 -0.3682  0.7440
   79MOL0     H10628   6.846   1.201   0.959  3.3566 -2.8950 -2.0339
   79MOL0     H10629   6.797   1.632   1.098  0.9281 -0.3420  0.2110
   79MOL0     H10630   6.648   1.557   1.161  0.0105 -1.1533 -1.8970
   79MOL0     H10631   6.812   1.447   1.330 -0.4749  1.4313  0.1233
   79MOL0     H10632   6.917   1.589   1.318 -0.3827  2.0933 -3.7841
   79MOL0     H10633   6.627   1.577   1.404  0.2033 -0.2457 -2.6262
   79MOL0     H10634   6.759   1.625   1.510 -1.7755  1.0199  1.2064
   79MOL0     H10635   6.724   1.806   1.268  0.7536 -0.8520 -0.3483
   79MOL0     H10636   6.753   1.842   1.435  2.0321 -0.5803 -1.2494
   79MOL0     H10637   6.493   1.760   1.317 -1.0092  0.5683 -0.3219
   79MOL0     H10638   6.548   1.925   1.335 -2.0085  0.6053  1.5927
   79MOL0     H10639   6.390   1.814   1.528  0.9371 -2.9840 -1.8600
   79MOL0     H10640   6.531   1.722   1.562 -2.5190 -0.9707 -1.1666
   79MOL0     H10641   6.547   2.031   1.572  0.6553  0.4738 -0.2383
   79MOL0     H10642   6.671   1.926   1.616 -0.5136 -2.0086  0.2739
   79MOL0     H10643   6.394   1.930   1.760  0.4461  0.2330 -0.6169
   79MOL0     H10644   6.525   1.820   1.794  0.5775 -0.2125 -0.4203
   79MOL0     H10645   7.009   1.575   1.103 -0.1459 -0.7213  1.0221
   79MOL0     H10646   7.238   1.487   1.019  0.8670 -0.4546 -1.5936
   79MOL0     H10647   7.510   1.420   0.623 -0.0392 -0.2158 -0.3272
   79MOL0     H10648   7.726   1.414   0.600  1.2842  0.2548  1.2360
   79MOL0     H10649   8.631   0.600   1.277  0.0989 -0.5041 -0.9067
   79MOL0     H10650   8.590   0.368   1.316 -2.2990 -0.3071 -0.5920
   79MOL0     H10651   8.442   0.046   1.594  0.0841 -0.7877  0.1355
   79MOL0     H10652   8.356  -0.155   1.727 -2.6420 -2.5483 -0.2997
   79MOL0     H10653   8.222  -0.273   1.857 -3.3059  0.2072  1.1916
   79MOL0     H10654   8.311  -0.383   1.744  0.2197  1.5599 -0.7865
   79MOL0     H10655   8.194  -0.533   1.890 -1.4438 -0.6242  2.1829
   79MOL0     H10656   8.102  -0.537   1.757  0.8314  0.4565  1.0067
   79MOL0     H10657   8.047  -0.351   2.000 -0.1917  0.0777 -0.3844
   79MOL0     H10658   7.963  -0.501   1.971  0.0184  0.7704  2.3458
   79MOL0     H10659   7.951  -0.236   1.792 -0.8058 -0.7768 -1.0750
   79MOL0     H10660   7.884  -0.385   1.738  2.4300 -3.3037 -0.2657
   79MOL0     H10661   7.605  -0.281   2.045 -1.1169  0.1644 -1.0361
   79MOL0     H10662   8.020  -0.185   1.493 -0.6041 -0.8735  1.7982
   79MOL0     H10663   7.940  -0.023   1.352 -2.1490  2.3410 -0.1648
   79MOL0     H10664   7.985   0.142   1.414 -0.6552 -0.1409  0.8075
   79MOL0     H10665   8.059   0.074   1.273 -2.4073  1.0172 -0.5098
   80MOL0     O10666  10.828   3.614   8.773  0.3921 -0.4499 -0.0601
   80MOL0     C10667  10.866   3.671   8.877 -0.2490 -0.0814 -0.0474
   80MOL0     O10668  10.984   3.634   8.941 -0.4926 -0.7790 -0.7369
   80MOL0     C10669  11.047   3.530   8.888  0.1074 -0.2007  0.8402
   80MOL0     C10670  11.000   3.398   8.924  0.7668  0.0700  0.6301
   80MOL0     C10671  11.049   3.283   8.873 -0.1408 -0.5631  0.8490
   80MOL0     C10672  11.167   3.294   8.793 -0.1804  0.0066 -0.3500
   80MOL0     O10673  11.218   3.170   8.760  0.1784 -0.7906 -0.7237
   80MOL0     C10674  11.357   3.146   8.786  0.2486  0.0497 -0.1976
   80MOL0     C10675  11.390   3.139   8.937  0.1942 -1.0086 -0.8298
   80MOL0     C10676  11.524   3.082   8.948  0.4976  0.4975 -0.2512
   80MOL0     C10677  11.568   3.078   9.094 -0.2710 -0.0892 -0.3836
   80MOL0     C10678  11.718   3.025   9.107 -0.0531  0.0374 -0.5225
   80MOL0     C10679  11.765   3.009   9.254 -0.1036  0.1787  0.2831
   80MOL0     C10680  11.905   2.942   9.256 -0.4277 -0.9998  0.0474
   80MOL0     C10681  12.016   3.019   9.203 -0.0604  0.3142  0.4813
   80MOL0     N10682  12.050   3.136   9.287 -1.2947  0.4672 -0.4926
   80MOL0     C10683  12.169   3.158   9.349 -0.3781  0.8315 -0.2167
   80MOL0     C10684  12.176   3.287   9.377 -0.8782  0.0988  0.6960
   80MOL0     C10685  12.290   3.363   9.448  0.2968 -0.6369  0.7164
   80MOL0     C10686  12.321   3.506   9.405  0.3560  0.7406 -0.5616
   80MOL0     C10687  12.417   3.497   9.281 -0.5326  0.2302  0.4918
   80MOL0     C10688  12.385   3.597   9.171  0.9845  0.0434  0.5810
   80MOL0     O10689  12.242   3.593   9.119 -0.1205  0.4919  0.5170
   80MOL0     C10690  12.191   3.489   9.039  0.1331  0.4371 -0.8152
   80MOL0     C10691  12.047   3.482   9.017 -0.9189 -0.8106  0.0420
   80MOL0     C10692  11.989   3.378   8.948 -0.0915 -0.0901  1.0122
   80MOL0     C10693  12.062   3.290   8.869  0.1435 -0.3644 -0.5857
   80MOL0     C10694  11.998   3.195   8.775 -0.4565  0.3633 -0.1678
   80MOL0     O10695  11.872   3.167   8.784  0.7191 -0.6091 -0.2815
   80MOL0     C10696  11.830   3.053   8.718  0.5430 -0.5275  0.9289
   80MOL0     C10697  11.767   3.065   8.590 -0.7962 -0.1770 -0.5633
   80MOL0     C10698  11.737   2.955   8.519 -0.0898 -0.2496 -0.2682
   80MOL0     C10699  11.756   2.827   8.582 -0.2188 -0.6240  0.3899
   80MOL0     O10700  11.728   2.709   8.525 -0.0026 -0.8882 -0.3326
   80MOL0     C10701  11.734   2.706   8.379  0.2495  0.5968 -0.8829
   80MOL0     C10702  11.716   2.565   8.334 -0.0765 -0.5782 -0.4777
   80MOL0     C10703  11.839   2.474   8.367  0.5489  0.6137 -0.1585
   80MOL0     C10704  11.929   2.440   8.248  0.0309 -0.1962  0.2513
   80MOL0     C10705  12.050   2.344   8.277  0.2043  0.1435  0.5172
   80MOL0     C10706  11.992   2.210   8.316 -0.7180  0.7981 -0.4041
   80MOL0     C10707  12.081   2.093   8.265  0.3733 -0.2361 -0.0587
   80MOL0     C10708  12.023   1.956   8.312 -0.4196 -0.1886 -0.7857
   80MOL0    Cl10709  12.150   1.834   8.270  0.6656  0.4774 -0.3985
   80MOL0     C10710  11.800   2.813   8.715  0.3663  0.7488  1.1785
   80MOL0     C10711  11.837   2.931   8.784 -0.1482  0.0636 -0.2023
   80MOL0     O10712  12.069   3.149   8.693 -0.1258 -0.1556  0.7339
   80MOL0     C10713  12.195   3.281   8.900 -1.2177 -1.0932  0.0066
   80MOL0     C10714  12.257   3.380   8.983  0.1869 -0.3693  0.0147
   80MOL0     N10715  12.060   3.345   9.324 -0.2424 -0.0398 -0.2957
   80MOL0     N10716  11.988   3.249   9.278 -0.2985 -0.7984 -0.0812
   80MOL0     C10717  11.224   3.419   8.754 -0.2111  0.2950 -0.3907
   80MOL0     C10718  11.161   3.533   8.805 -0.3518 -0.2439 -0.8015
   80MOL0     C10719  10.778   3.781   8.927 -0.2513 -0.6646  0.1584
   80MOL0     C10720  10.666   3.728   8.999  0.0171 -1.1940  0.2177
   80MOL0     C10721  10.578   3.827   9.042  0.0685  1.1366 -0.0198
   80MOL0     C10722  10.598   3.962   9.015 -0.0708 -1.0529 -0.3947
   80MOL0     O10723  10.506   4.068   9.049 -0.2633 -0.4761 -0.1171
   80MOL0     C10724  10.378   4.047   9.120 -0.3878  0.4151 -0.0178
   80MOL0     C10725  10.404   4.050   9.274 -0.5213  0.1124  0.0640
   80MOL0     C10726  10.434   4.202   9.311  0.5799  0.8304  0.8518
   80MOL0     C10727  10.441   4.213   9.462  0.4268  0.7334 -0.0391
   80MOL0     C10728  10.309   4.259   9.512  1.5629  0.1580  1.1838
   80MOL0     C10729  10.193   4.277   9.552  0.5049 -0.0269  0.3661
   80MOL0     C10730  10.718   4.014   8.958  0.7749 -0.7347  0.7085
   80MOL0     C10731  10.805   3.916   8.905  0.0514 -0.2040  1.1377
   80MOL0     C10732  10.935   3.960   8.837  0.4998 -0.0677 -0.0596
   80MOL0     H10733  10.912   3.399   8.987  0.2522  1.7647 -0.0869
   80MOL0     H10734  11.010   3.185   8.899 -2.2647 -0.2563 -0.8950
   80MOL0     H10735  11.386   3.055   8.734 -1.1380 -0.0629 -0.8364
   80MOL0     H10736  11.420   3.229   8.753  0.8634 -0.1690  0.4081
   80MOL0     H10737  11.319   3.070   8.984 -0.0994 -0.9762 -1.2162
   80MOL0     H10738  11.387   3.238   8.984 -0.2610  0.3393 -3.4983
   80MOL0     H10739  11.597   3.144   8.895  0.6803  2.4891  2.1707
   80MOL0     H10740  11.531   2.981   8.905  2.8325  0.2547  0.5810
   80MOL0     H10741  11.585   3.176   9.138 -0.2012 -0.1428 -0.2922
   80MOL0     H10742  11.505   3.010   9.152 -0.3436  0.7788  0.5799
   80MOL0     H10743  11.719   2.931   9.052  1.1165  0.6633 -1.6190
   80MOL0     H10744  11.783   3.100   9.062 -1.2489  1.7853  0.5578
   80MOL0     H10745  11.768   3.107   9.303 -1.3825 -0.4457  1.7032
   80MOL0     H10746  11.696   2.944   9.309 -0.4179 -0.3380 -0.7084
   80MOL0     H10747  11.900   2.852   9.195  1.8694 -1.0026 -0.2034
   80MOL0     H10748  11.929   2.922   9.361  1.6218 -2.9627 -0.7353
   80MOL0     H10749  12.108   2.961   9.189 -0.3456  0.4290 -2.2188
   80MOL0     H10750  11.986   3.045   9.101 -0.5741  1.1824  0.8418
   80MOL0     H10751  12.255   3.095   9.370 -0.8371  0.0590 -0.5915
   80MOL0     H10752  12.258   3.372   9.552  1.0191 -0.9177  0.9699
   80MOL0     H10753  12.383   3.307   9.434  1.7415  2.3018 -3.5448
   80MOL0     H10754  12.228   3.553   9.371  0.6236 -0.9292 -3.9706
   80MOL0     H10755  12.369   3.545   9.496 -0.8930 -3.0399  1.9446
   80MOL0     H10756  12.409   3.407   9.220  1.4343  1.3907 -1.6688
   80MOL0     H10757  12.520   3.523   9.306 -0.3131 -0.9246  0.8083
   80MOL0     H10758  12.458   3.585   9.090  1.1867 -0.5102  0.8408
   80MOL0     H10759  12.400   3.694   9.218 -1.1438  1.3884 -1.2816
   80MOL0     H10760  11.989   3.564   9.059 -1.0748 -0.1730 -1.3671
   80MOL0     H10761  11.882   3.357   8.952 -0.1610 -1.4386 -3.1271
   80MOL0     H10762  11.762   3.161   8.540 -0.4740  0.4732  0.6276
   80MOL0     H10763  11.712   2.965   8.414 -1.0587  0.2232 -0.0044
   80MOL0     H10764  11.656   2.765   8.331 -1.8811 -1.7403 -0.5140
   80MOL0     H10765  11.833   2.737   8.343  0.6413 -1.8803 -2.1124
   80MOL0     H10766  11.638   2.526   8.400  2.2031 -1.5249  1.8504
   80MOL0     H10767  11.676   2.548   8.234 -0.9785 -0.4180 -0.1519
   80MOL0     H10768  11.901   2.518   8.446  2.6050 -3.2275  0.6591
   80MOL0     H10769  11.798   2.383   8.410 -0.0007  1.1225  0.4008
   80MOL0     H10770  11.982   2.531   8.219  1.3705 -0.9256  0.3383
   80MOL0     H10771  11.865   2.391   8.174 -1.5173  0.2640  1.2367
   80MOL0     H10772  12.113   2.385   8.357  2.1550  1.3680 -1.4932
   80MOL0     H10773  12.111   2.345   8.186 -2.3894  0.2165 -1.3191
   80MOL0     H10774  11.986   2.197   8.425  1.0812 -3.0902 -0.5992
   80MOL0     H10775  11.895   2.196   8.268 -0.4838 -0.1347 -0.6236
   80MOL0     H10776  12.181   2.111   8.304  0.8280  1.8846 -1.9619
   80MOL0     H10777  12.079   2.096   8.155 -4.0863  0.0458 -0.1419
   80MOL0     H10778  12.009   1.964   8.421  1.4987 -1.6954 -0.3687
   80MOL0     H10779  11.925   1.931   8.272 -0.6755 -2.5952  1.1533
   80MOL0     H10780  11.824   2.716   8.757 -1.4266 -0.6851 -0.8583
   80MOL0     H10781  11.884   2.923   8.882  1.4775 -2.2566 -1.0620
   80MOL0     H10782  12.259   3.198   8.874 -1.6972 -1.0438 -1.4747
   80MOL0     H10783  12.364   3.373   8.998 -0.0521 -3.2746  0.8306
   80MOL0     H10784  11.310   3.422   8.688 -0.5384 -0.3991 -0.8685
   80MOL0     H10785  11.197   3.631   8.774 -1.8344  0.7124  0.3661
   80MOL0     H10786  10.655   3.624   9.025 -3.3554 -1.2482 -1.0037
   80MOL0     H10787  10.492   3.788   9.095 -1.1273  3.3265 -0.2184
   80MOL0     H10788  10.326   3.953   9.098  3.1057 -1.1356 -2.7789
   80MOL0     H10789  10.314   4.131   9.092  0.1896  1.0082  0.4098
   80MOL0     H10790  10.488   3.986   9.303 -0.7486 -1.1441 -1.8775
   80MOL0     H10791  10.320   4.020   9.339  1.5440 -2.2475  1.8413
   80MOL0     H10792  10.345   4.255   9.275  0.6548 -0.0479 -0.7088
   80MOL0     H10793  10.519   4.247   9.259  0.2630  0.6187  0.1234
   80MOL0     H10794  10.468   4.113   9.498 -0.6946 -1.2382 -4.0926
   80MOL0     H10795  10.526   4.273   9.496  0.9046  2.6461 -4.0274
   80MOL0     H10796  10.097   4.289   9.597 -0.9520 -2.4211 -1.8298
   80MOL0     H10797  10.727   4.121   8.942 -1.2298 -0.5383  0.5943
   80MOL0     H10798  10.935   4.069   8.831 -0.6646 -0.0195  0.6731
   80MOL0     H10799  11.030   3.942   8.887  2.4878  1.4764 -2.9790
   80MOL0     H10800  10.936   3.921   8.734 -1.0783  0.5032 -0.3248
   81MOL0     O10801   4.268   8.454  11.297 -0.2983 -0.8772  0.9734
   81MOL0     C10802   4.342   8.365  11.254 -0.1226  0.2929 -0.2808
   81MOL0     O10803   4.412   8.366  11.128 -0.2114  0.0981 -0.6741
   81MOL0     C10804   4.377   8.448  11.024  0.3949 -0.4433 -0.2736
   81MOL0     C10805   4.468   8.534  10.963 -0.9234  0.3534  0.1681
   81MOL0     C10806   4.421   8.623  10.865  0.5763 -0.0921 -0.3150
   81MOL0     C10807   4.287   8.626  10.821 -0.6108 -0.7530 -0.7496
   81MOL0     O10808   4.255   8.727  10.727  0.0917  0.3978 -1.2912
   81MOL0     C10809   4.144   8.703  10.633  0.3523  1.0331 -0.1368
   81MOL0     C10810   4.120   8.825  10.542 -0.3258  0.4219 -0.2483
   81MOL0     C10811   4.238   8.875  10.453  0.4643  0.0046 -0.7624
   81MOL0     C10812   4.179   8.974  10.353  0.6123 -0.3061  0.2660
   81MOL0     C10813   4.295   9.034  10.263  0.2637  0.1452  0.6951
   81MOL0     C10814   4.232   9.099  10.139  0.2714  1.2022  0.1264
   81MOL0     C10815   4.336   9.187  10.071  0.7610  1.5962  0.0711
   81MOL0     C10816   4.287   9.243   9.945  0.9686 -0.3364  0.1243
   81MOL0     N10817   4.375   9.341   9.885  0.0860  0.0665  0.0418
   81MOL0     C10818   4.478   9.319   9.792 -0.5964  0.5767  0.1207
   81MOL0     C10819   4.557   9.427   9.782  0.3740 -0.0748  0.4948
   81MOL0     C10820   4.688   9.425   9.718  0.3105 -0.2411  0.5803
   81MOL0     C10821   4.728   9.564   9.664 -0.3784  0.1347  0.3981
   81MOL0     C10822   4.658   9.590   9.530  0.1291 -0.2105  0.0972
   81MOL0     C10823   4.701   9.730   9.472 -0.1837  0.4579 -0.0202
   81MOL0     O10824   4.612   9.783   9.378  0.4796 -0.9774  0.0245
   81MOL0     C10825   4.542   9.901   9.401  0.1530 -0.2825 -0.8726
   81MOL0     C10826   4.511   9.950   9.527  0.8643 -0.7169 -0.6142
   81MOL0     C10827   4.426  10.063   9.539  1.0856 -0.2732 -0.7909
   81MOL0     C10828   4.381  10.141   9.430 -0.0721  0.0459 -0.2349
   81MOL0     C10829   4.309  10.273   9.451 -0.6511 -0.6867  0.4518
   81MOL0     O10830   4.259  10.326   9.331  0.1593 -0.3709 -0.6469
   81MOL0     C10831   4.192  10.442   9.332 -1.1315 -0.1116 -0.0193
   81MOL0     C10832   4.257  10.557   9.387  0.3002 -0.0515 -0.4142
   81MOL0     C10833   4.195  10.681   9.341 -0.0270  0.0074 -0.2269
   81MOL0     C10834   4.092  10.694   9.257 -0.0100 -0.3096 -0.7199
   81MOL0     O10835   4.069  10.815   9.198  0.4088 -0.4370 -0.8642
   81MOL0     C10836   4.161  10.832   9.085 -0.3496 -0.7870 -0.4886
   81MOL0     C10837   4.108  10.950   9.008  0.1832 -0.6658 -0.7829
   81MOL0     C10838   3.978  10.905   8.942 -0.3829 -0.5370 -0.4577
   81MOL0     C10839   3.954  11.026   8.837 -0.2270  1.8998  0.2837
   81MOL0     C10840   3.829  10.993   8.761  0.7570 -0.2600  0.8083
   81MOL0     C10841   3.774  11.114   8.716 -0.1992 -0.3891 -0.2958
   81MOL0     C10842   3.634  11.093   8.649 -0.0946  0.1819 -0.5964
   81MOL0     C10843   3.597  11.200   8.540  0.0345  0.1075 -0.5682
   81MOL0    Cl10844   3.545  11.324   8.649 -0.1502 -0.0830 -0.0993
   81MOL0     C10845   4.024  10.573   9.221  0.2415 -1.3412  0.5577
   81MOL0     C10846   4.082  10.447   9.254  0.9805  0.5339  0.4170
   81MOL0     O10847   4.289  10.310   9.569  0.5838 -0.0347  1.3165
   81MOL0     C10848   4.411  10.083   9.305  0.5156 -0.3767  0.8636
   81MOL0     C10849   4.488   9.966   9.290  0.3967 -0.0393  0.7100
   81MOL0     N10850   4.489   9.518   9.857 -0.6387 -0.3389 -0.0804
   81MOL0     N10851   4.382   9.471   9.923  0.7601  0.0470  0.5130
   81MOL0     C10852   4.203   8.538  10.883 -0.0962  0.5202 -0.3469
   81MOL0     C10853   4.245   8.458  10.994  0.1012 -1.1694  0.1235
   81MOL0     C10854   4.384   8.254  11.348  0.2487  0.2880  0.5444
   81MOL0     C10855   4.521   8.247  11.361 -0.6981 -0.6725 -0.3066
   81MOL0     C10856   4.585   8.182  11.465  0.2084 -0.3018 -0.5080
   81MOL0     C10857   4.506   8.108  11.548 -0.6913  0.5989 -0.5770
   81MOL0     O10858   4.566   8.059  11.653  0.0330  1.1950  0.7258
   81MOL0     C10859   4.503   8.077  11.778  0.5802 -0.3715 -0.1610
   81MOL0     C10860   4.444   7.945  11.849 -0.4972 -0.7566 -0.3856
   81MOL0     C10861   4.541   7.845  11.911  0.1577  0.2882  0.8730
   81MOL0     C10862   4.595   7.751  11.800  0.3561  0.1197  0.3272
   81MOL0     C10863   4.486   7.648  11.773  0.5583 -0.3023  0.2956
   81MOL0     C10864   4.415   7.550  11.767  0.3760 -0.5202  0.3273
   81MOL0     C10865   4.364   8.098  11.532 -0.3185  0.5671 -0.4080
   81MOL0     C10866   4.301   8.185  11.440 -0.0747  0.1785  0.4396
   81MOL0     C10867   4.155   8.180  11.431  0.1238  0.0082  0.2051
   81MOL0     H10868   4.574   8.533  10.985 -0.4290  1.2315 -1.9154
   81MOL0     H10869   4.494   8.696  10.833 -0.4803  0.9927 -0.2948
   81MOL0     H10870   4.165   8.613  10.575  1.4340 -1.8654  4.3246
   81MOL0     H10871   4.052   8.692  10.691  1.6188 -2.8441  1.4565
   81MOL0     H10872   4.086   8.906  10.608  1.2330  0.4560  0.5565
   81MOL0     H10873   4.034   8.796  10.480 -0.6931 -0.1603  0.5052
   81MOL0     H10874   4.277   8.791  10.395 -1.5328 -0.8003 -1.0177
   81MOL0     H10875   4.314   8.922  10.516  1.1007  1.8622 -2.8012
   81MOL0     H10876   4.108   8.932  10.282 -1.6285  3.0590  0.3052
   81MOL0     H10877   4.129   9.054  10.409 -2.4011 -0.2594 -2.2953
   81MOL0     H10878   4.333   9.114  10.328  0.4048 -0.7952  1.8129
   81MOL0     H10879   4.370   8.959  10.239 -0.8068 -0.0173 -2.5791
   81MOL0     H10880   4.184   9.025  10.074 -3.8542  2.7003  1.1727
   81MOL0     H10881   4.154   9.172  10.159  0.1996  0.8838  1.0307
   81MOL0     H10882   4.422   9.121  10.059 -1.9066 -3.7867  5.1396
   81MOL0     H10883   4.354   9.268  10.143  1.9432  0.5029  1.0537
   81MOL0     H10884   4.270   9.164   9.871 -1.1866  0.1124  0.0756
   81MOL0     H10885   4.189   9.292   9.957  0.8630  0.8131 -3.8686
   81MOL0     H10886   4.517   9.226   9.750  2.2903 -0.2713  4.0968
   81MOL0     H10887   4.768   9.382   9.779  1.4069 -0.0403 -0.6813
   81MOL0     H10888   4.686   9.358   9.631  2.4466  0.2282  0.1266
   81MOL0     H10889   4.692   9.644   9.729 -0.9679  3.0240 -3.1283
   81MOL0     H10890   4.838   9.565   9.666 -0.2766 -2.0918 -0.9182
   81MOL0     H10891   4.551   9.587   9.553 -0.4235  0.2562 -2.1481
   81MOL0     H10892   4.670   9.509   9.457 -0.0058 -0.1563  0.0129
   81MOL0     H10893   4.801   9.726   9.427 -0.1089  2.6325 -0.1920
   81MOL0     H10894   4.727   9.802   9.551  0.3858  0.8212 -0.5252
   81MOL0     H10895   4.553   9.893   9.609  3.8320  1.1597 -0.6762
   81MOL0     H10896   4.394  10.106   9.634 -1.1061  0.7433 -1.9216
   81MOL0     H10897   4.356  10.554   9.432  0.4506  0.7347 -0.6707
   81MOL0     H10898   4.258  10.766   9.364 -0.9842  0.6872 -0.0614
   81MOL0     H10899   4.258  10.860   9.129 -0.9312  1.1390 -0.3255
   81MOL0     H10900   4.175  10.736   9.036  2.3867 -0.7266  0.0090
   81MOL0     H10901   4.107  11.049   9.055  3.1152  0.3686 -2.6024
   81MOL0     H10902   4.180  10.976   8.930  1.9072 -3.9593 -0.4860
   81MOL0     H10903   3.978  10.810   8.888  0.4958  0.3807 -2.1384
   81MOL0     H10904   3.896  10.899   9.014  1.4216  0.9466  1.9093
   81MOL0     H10905   4.035  11.035   8.764 -0.2573 -1.8245 -0.4502
   81MOL0     H10906   3.949  11.115   8.900  0.5394  1.5888  0.8038
   81MOL0     H10907   3.752  10.943   8.821 -0.8254  0.1509 -0.7977
   81MOL0     H10908   3.853  10.929   8.676  0.6887 -1.0555  1.3766
   81MOL0     H10909   3.752  11.191   8.791 -0.3748 -0.7410  0.0168
   81MOL0     H10910   3.852  11.155   8.651  1.8647 -1.1055  1.5900
   81MOL0     H10911   3.550  11.094   8.718 -0.4543  4.0995 -0.8554
   81MOL0     H10912   3.641  11.001   8.591 -1.7928 -1.4296  1.6330
   81MOL0     H10913   3.677  11.235   8.475  0.5037  2.7804  1.2973
   81MOL0     H10914   3.507  11.171   8.485 -1.4744  2.1549  0.6892
   81MOL0     H10915   3.934  10.573   9.160  0.5834 -0.0869  0.0359
   81MOL0     H10916   4.050  10.354   9.209 -0.1969  0.7450  0.7892
   81MOL0     H10917   4.375  10.122   9.211 -1.6348 -1.2255  1.2608
   81MOL0     H10918   4.501   9.935   9.187 -0.7801  2.7237 -0.3615
   81MOL0     H10919   4.096   8.552  10.878 -0.3296  1.0426  3.3664
   81MOL0     H10920   4.170   8.403  11.050  0.5372 -0.6090  1.2964
   81MOL0     H10921   4.576   8.308  11.289 -3.0810  2.2859  0.1677
   81MOL0     H10922   4.693   8.187  11.473  0.0676 -0.0848  2.2534
   81MOL0     H10923   4.428   8.157  11.785  0.9207  0.4552 -3.9389
   81MOL0     H10924   4.582   8.107  11.847  0.6051 -0.6059 -0.0858
   81MOL0     H10925   4.359   7.906  11.792 -1.5448 -1.7116  1.7066
   81MOL0     H10926   4.391   7.978  11.939 -2.5038 -2.6141 -0.8173
   81MOL0     H10927   4.500   7.804  12.004 -1.3915  0.4775  0.2990
   81MOL0     H10928   4.631   7.891  11.952  0.1489  0.1355  1.0700
   81MOL0     H10929   4.620   7.800  11.706  1.0870 -0.7049  0.0766
   81MOL0     H10930   4.690   7.704  11.826  0.3521  0.6416  1.3352
   81MOL0     H10931   4.351   7.465  11.764 -0.0256 -0.2201 -2.2431
   81MOL0     H10932   4.313   8.019  11.586 -0.1698 -0.6940 -2.0377
   81MOL0     H10933   4.113   8.184  11.531  0.6088  1.5122  0.3671
   81MOL0     H10934   4.118   8.260  11.366  1.3994 -0.3441 -1.0020
   81MOL0     H10935   4.134   8.078  11.395  2.6504 -1.8402  3.4022
   82MOL0     O10936   3.891   8.205  10.410  0.8440 -0.0957 -0.6486
   82MOL0     C10937   3.986   8.141  10.445 -0.1822  0.0028  0.3287
   82MOL0     O10938   4.057   8.054  10.361 -0.1479  0.5106 -0.3058
   82MOL0     C10939   4.008   8.039  10.231 -0.7277  0.0784 -0.1464
   82MOL0     C10940   3.917   7.942  10.193  0.1069  0.6493 -0.5631
   82MOL0     C10941   3.871   7.927  10.065  0.5809 -0.6035  0.1622
   82MOL0     C10942   3.892   8.029   9.979  0.2428 -0.5352 -0.2147
   82MOL0     O10943   3.837   8.032   9.848  0.8640  0.2326  0.1838
   82MOL0     C10944   3.922   8.036   9.738 -0.3017 -0.3999  0.4461
   82MOL0     C10945   3.867   7.945   9.623 -0.1237  0.2595 -0.3721
   82MOL0     C10946   3.827   7.796   9.668 -1.0466 -0.7225  0.0071
   82MOL0     C10947   3.795   7.718   9.540  0.4630  0.7428 -0.0053
   82MOL0     C10948   3.746   7.582   9.581 -1.1319  0.1109 -0.2299
   82MOL0     C10949   3.742   7.491   9.451  0.1420  0.6587 -0.0977
   82MOL0     C10950   3.601   7.467   9.395  0.0066  0.2990  0.0938
   82MOL0     C10951   3.544   7.329   9.446 -0.3715  0.3043 -1.3598
   82MOL0     N10952   3.612   7.215   9.390 -0.3641  0.4572  0.3264
   82MOL0     C10953   3.693   7.122   9.457  0.2651  0.1300 -0.3648
   82MOL0     C10954   3.713   7.032   9.355  0.2813  0.5886 -0.7896
   82MOL0     C10955   3.785   6.899   9.371  0.4917 -0.6596 -0.5368
   82MOL0     C10956   3.684   6.794   9.380  0.6974  0.2185  0.4268
   82MOL0     C10957   3.648   6.768   9.533 -0.2019 -0.6825 -0.1471
   82MOL0     C10958   3.510   6.700   9.550 -0.5367 -0.7393  0.0337
   82MOL0     O10959   3.499   6.560   9.527  0.7400  0.1919 -0.3244
   82MOL0     C10960   3.436   6.526   9.410 -0.0528 -0.7987  1.1058
   82MOL0     C10961   3.300   6.540   9.392  0.0854 -0.3183  0.7549
   82MOL0     C10962   3.244   6.491   9.282  0.7098  0.2373 -0.3293
   82MOL0     C10963   3.318   6.420   9.183  0.3314 -0.4825 -0.8208
   82MOL0     C10964   3.244   6.371   9.060 -0.7136  0.5471 -0.2833
   82MOL0     O10965   3.111   6.396   9.050  0.1615  0.0951  0.4969
   82MOL0     C10966   3.048   6.386   8.931  0.5812  0.3227  0.7372
   82MOL0     C10967   3.033   6.256   8.870 -0.5117 -0.4368  0.6490
   82MOL0     C10968   2.963   6.237   8.752 -0.2257  0.0641 -0.6484
   82MOL0     C10969   2.893   6.343   8.698  0.6918  0.1370 -0.4953
   82MOL0     O10970   2.821   6.324   8.581  0.1038  0.1847 -0.1338
   82MOL0     C10971   2.683   6.382   8.583 -0.2520 -0.5238  0.6380
   82MOL0     C10972   2.667   6.514   8.506  0.8260  0.2733 -0.6071
   82MOL0     C10973   2.703   6.507   8.353  1.1360 -0.3809 -0.2300
   82MOL0     C10974   2.779   6.627   8.308  1.1177 -0.3015  0.5260
   82MOL0     C10975   2.795   6.622   8.154  0.1316 -0.8267  1.0176
   82MOL0     C10976   2.895   6.729   8.106  0.1752  0.4341  0.8731
   82MOL0     C10977   2.923   6.721   7.958  0.1106 -0.1059 -0.9762
   82MOL0     C10978   2.814   6.782   7.868  0.3396 -0.1453 -0.3207
   82MOL0    Cl10979   2.788   6.961   7.912 -0.2933 -0.1136  0.3623
   82MOL0     C10980   2.904   6.472   8.756  0.7889  0.1654  0.0474
   82MOL0     C10981   2.983   6.490   8.869 -0.6869  0.4970 -0.3845
   82MOL0     O10982   3.314   6.304   8.978  0.9056 -0.5439 -0.2025
   82MOL0     C10983   3.458   6.407   9.198  0.5289  0.3593 -0.3150
   82MOL0     C10984   3.515   6.456   9.312 -0.2032 -0.4018 -0.5268
   82MOL0     N10985   3.656   7.071   9.238  0.0912  0.1518 -0.0294
   82MOL0     N10986   3.589   7.184   9.258  0.3438  0.2969 -0.5641
   82MOL0     C10987   3.974   8.129  10.013 -1.0102 -0.1173 -0.2063
   82MOL0     C10988   4.040   8.133  10.134  0.8415 -0.2784 -0.6188
   82MOL0     C10989   4.036   8.130  10.583  0.5730 -0.0758 -0.1397
   82MOL0     C10990   3.964   8.035  10.659 -0.1622 -1.5031  0.3138
   82MOL0     C10991   3.999   8.017  10.798 -1.1135 -1.2751 -0.4362
   82MOL0     C10992   4.103   8.100  10.858 -0.2144 -0.2100  0.5979
   82MOL0     O10993   4.150   8.076  10.985 -0.3313  0.0097  0.7436
   82MOL0     C10994   4.219   7.950  10.996  0.1263 -0.3755  0.1190
   82MOL0     C10995   4.331   7.973  11.096 -0.4149 -0.0962  0.2748
   82MOL0     C10996   4.427   7.851  11.117  1.0746 -0.1611  0.5320
   82MOL0     C10997   4.396   7.758  11.235  0.1480 -0.3981 -0.2771
   82MOL0     C10998   4.430   7.615  11.216 -0.1226  0.1148 -0.9059
   82MOL0     C10999   4.454   7.491  11.229  0.9989  0.1262  1.1506
   82MOL0     C11000   4.176   8.186  10.770 -0.6450 -0.4668 -0.1605
   82MOL0     C11001   4.139   8.202  10.630  0.2314 -0.4877 -1.5046
   82MOL0     C11002   4.211   8.304  10.542 -0.7550 -0.1579 -0.1616
   82MOL0     H11003   3.885   7.873  10.271  1.5572  0.3016 -0.2573
   82MOL0     H11004   3.812   7.842  10.031  0.8654  0.2746 -2.8515
   82MOL0     H11005   3.924   8.139   9.700 -0.2767 -1.4221 -2.6375
   82MOL0     H11006   4.023   8.003   9.765  0.9616  2.4178 -0.4803
   82MOL0     H11007   3.944   7.945   9.546 -0.3074 -0.2604 -0.5637
   82MOL0     H11008   3.772   7.982   9.584 -1.0816 -2.8243 -1.2802
   82MOL0     H11009   3.743   7.799   9.739 -1.0834 -0.4176 -0.0483
   82MOL0     H11010   3.914   7.756   9.720  0.5019  2.5694  0.1783
   82MOL0     H11011   3.733   7.786   9.480  2.7905  5.2180  2.1112
   82MOL0     H11012   3.890   7.721   9.485  0.6265  3.2846  0.2703
   82MOL0     H11013   3.820   7.538   9.647 -0.6988 -1.9965 -2.0095
   82MOL0     H11014   3.648   7.592   9.630 -0.6721  0.5331  0.6162
   82MOL0     H11015   3.801   7.533   9.369 -0.4401  1.3048 -0.1885
   82MOL0     H11016   3.779   7.389   9.468  1.0683  0.8471 -0.8744
   82MOL0     H11017   3.607   7.463   9.286  0.7114 -0.2170  0.1460
   82MOL0     H11018   3.530   7.546   9.424  0.4938  2.2188 -3.3774
   82MOL0     H11019   3.540   7.319   9.555  0.2922  1.9970 -1.1448
   82MOL0     H11020   3.438   7.335   9.422 -0.6355  2.5026  0.0215
   82MOL0     H11021   3.722   7.102   9.560 -0.3565  0.5083 -0.1091
   82MOL0     H11022   3.840   6.885   9.277  0.0332 -2.8144 -0.5122
   82MOL0     H11023   3.859   6.892   9.452 -3.4388 -3.1688  3.2663
   82MOL0     H11024   3.588   6.812   9.330  0.9592  0.0843 -0.1320
   82MOL0     H11025   3.716   6.699   9.335  0.2069  0.5426 -0.6542
   82MOL0     H11026   3.655   6.867   9.578  0.6898  0.5825 -2.8652
   82MOL0     H11027   3.715   6.702   9.589 -1.8945 -1.9902  0.4024
   82MOL0     H11028   3.446   6.755   9.479  1.6803 -2.2429 -3.3882
   82MOL0     H11029   3.487   6.733   9.652 -0.6815  0.0875 -0.2513
   82MOL0     H11030   3.236   6.602   9.454 -1.1436 -0.3474 -0.4294
   82MOL0     H11031   3.139   6.503   9.260  1.1082  3.1443 -1.0639
   82MOL0     H11032   3.079   6.167   8.912  4.4209  3.0400  3.5916
   82MOL0     H11033   2.938   6.143   8.704 -3.9334  0.0627  0.9513
   82MOL0     H11034   2.618   6.304   8.544 -0.5818  0.6561 -1.2971
   82MOL0     H11035   2.658   6.401   8.687 -0.8784 -0.5401  0.4904
   82MOL0     H11036   2.571   6.564   8.517  1.8403  2.0541  0.5023
   82MOL0     H11037   2.736   6.578   8.562  1.6856 -0.0768 -1.2399
   82MOL0     H11038   2.759   6.413   8.343 -1.1284 -1.7762 -0.4815
   82MOL0     H11039   2.610   6.492   8.297 -0.4292 -0.6812  2.3118
   82MOL0     H11040   2.877   6.617   8.356 -0.8121 -3.5207  4.4472
   82MOL0     H11041   2.729   6.723   8.320  0.8494 -0.5343  1.2946
   82MOL0     H11042   2.695   6.640   8.113  0.4880 -0.6684  0.1914
   82MOL0     H11043   2.832   6.527   8.113 -0.2251  0.2784 -2.1811
   82MOL0     H11044   2.857   6.828   8.135 -0.2498  0.1888  1.1632
   82MOL0     H11045   2.994   6.722   8.152  1.4080  1.7028 -1.4081
   82MOL0     H11046   2.939   6.617   7.928  0.4162 -0.5158  0.5163
   82MOL0     H11047   3.012   6.784   7.948 -1.7517  2.9549  0.3423
   82MOL0     H11048   2.836   6.780   7.761 -1.4207 -0.1967 -0.7225
   82MOL0     H11049   2.713   6.741   7.873 -0.4841  1.5755 -1.6038
   82MOL0     H11050   2.847   6.557   8.720 -0.7926  0.1717  2.3709
   82MOL0     H11051   2.983   6.586   8.920  0.2617 -0.0444  0.6856
   82MOL0     H11052   3.510   6.345   9.125 -1.9421  0.4686 -2.2930
   82MOL0     H11053   3.620   6.440   9.332 -0.2505  1.1243  1.2010
   82MOL0     H11054   4.015   8.191   9.934 -0.7610 -0.5868 -0.4510
   82MOL0     H11055   4.110   8.210  10.165  1.2949 -1.0420  0.2994
   82MOL0     H11056   3.877   7.979  10.624 -0.3378 -3.2800  3.2387
   82MOL0     H11057   3.946   7.942  10.856 -0.5937  0.9307  3.1607
   82MOL0     H11058   4.262   7.924  10.898 -2.9627 -2.7524 -0.7650
   82MOL0     H11059   4.146   7.877  11.033 -0.1995  0.1272  0.4680
   82MOL0     H11060   4.294   7.992  11.197 -0.1789 -1.3050  0.6035
   82MOL0     H11061   4.382   8.063  11.060 -0.3020 -0.3563 -0.2256
   82MOL0     H11062   4.529   7.890  11.117  0.1292  2.5865 -1.0130
   82MOL0     H11063   4.420   7.789  11.028 -1.5117 -0.0465  0.5715
   82MOL0     H11064   4.463   7.793  11.314  2.0543 -1.2723 -1.4489
   82MOL0     H11065   4.290   7.770  11.259 -0.0243  1.3847 -1.6600
   82MOL0     H11066   4.474   7.387  11.212 -0.7540 -0.3641  1.8992
   82MOL0     H11067   4.254   8.237  10.825 -0.4315  1.4367 -2.1097
   82MOL0     H11068   4.255   8.262  10.452 -2.6981  0.7253 -1.5957
   82MOL0     H11069   4.137   8.373  10.500 -0.0631 -0.4614 -1.9594
   82MOL0     H11070   4.291   8.357  10.595  3.2942 -4.5577 -1.2518
   83MOL0     O11071   9.234   5.664   3.877  1.0048  0.5141  0.4331
   83MOL0     C11072   9.288   5.559   3.904 -0.3184  0.4242 -0.6700
   83MOL0     O11073   9.419   5.537   3.892 -0.4906  0.9068 -0.7464
   83MOL0     C11074   9.504   5.642   3.900 -1.6027  0.1050  0.0339
   83MOL0     C11075   9.511   5.742   3.995  0.1574 -0.2964 -0.3889
   83MOL0     C11076   9.608   5.842   3.980 -1.2209  0.4414  0.4679
   83MOL0     C11077   9.706   5.834   3.876 -1.2633  0.6412 -0.1896
   83MOL0     O11078   9.813   5.923   3.864 -0.5162  0.2529  0.1310
   83MOL0     C11079   9.860   5.972   3.991 -0.0919 -0.5942 -0.0498
   83MOL0     C11080   9.983   6.054   3.965 -0.1714 -0.4494 -0.1999
   83MOL0     C11081  10.050   6.110   4.099  0.3175  0.3647 -0.8478
   83MOL0     C11082  10.083   6.251   4.086 -0.1295  0.4044 -0.0633
   83MOL0     C11083  10.160   6.301   4.210  0.3895  0.0315  0.3687
   83MOL0     C11084  10.176   6.445   4.210  0.4684  0.4694 -0.2935
   83MOL0     C11085  10.230   6.494   4.343 -0.6812 -0.4912 -0.4251
   83MOL0     C11086  10.275   6.636   4.321  0.0272 -0.6215  0.8633
   83MOL0     N11087  10.163   6.730   4.298 -0.6170  0.6073  0.4875
   83MOL0     C11088  10.163   6.818   4.186 -0.4272  0.4686  0.5904
   83MOL0     C11089  10.035   6.874   4.196 -0.1009  0.2718  0.0070
   83MOL0     C11090   9.972   6.989   4.111 -0.2486  0.3661 -0.4557
   83MOL0     C11091  10.034   7.126   4.116 -0.6156 -1.3734  0.3522
   83MOL0     C11092  10.047   7.198   4.260 -0.3792  0.2882 -0.2152
   83MOL0     C11093   9.913   7.212   4.335  0.1308  0.6556 -0.8314
   83MOL0     O11094   9.932   7.274   4.463 -0.2131 -0.0946  0.5289
   83MOL0     C11095   9.890   7.400   4.496  0.3398  0.5217  0.2599
   83MOL0     C11096   9.819   7.501   4.428 -0.0628 -0.4520  0.0589
   83MOL0     C11097   9.804   7.628   4.488  0.3550  0.5101  0.6790
   83MOL0     C11098   9.863   7.670   4.609 -0.2651  0.8977  0.5667
   83MOL0     C11099   9.846   7.807   4.666 -0.0724  0.5654 -0.1701
   83MOL0     O11100   9.914   7.839   4.785 -0.5738  0.1137  0.2114
   83MOL0     C11101   9.895   7.964   4.833 -0.2571 -0.1284 -0.1583
   83MOL0     C11102   9.769   8.017   4.872 -0.0971 -0.0786 -0.1106
   83MOL0     C11103   9.756   8.144   4.936  0.5696 -0.0209  0.2835
   83MOL0     C11104   9.866   8.217   4.964 -0.6043 -0.9939 -0.1971
   83MOL0     O11105   9.836   8.323   5.051  0.1347  0.3179  0.3553
   83MOL0     C11106   9.943   8.414   5.076  0.3377 -0.4207  0.9340
   83MOL0     C11107   9.879   8.532   5.161  0.4602 -0.5702 -1.2004
   83MOL0     C11108   9.978   8.624   5.231 -0.1358 -1.0258 -0.6594
   83MOL0     C11109  10.030   8.722   5.130  0.3544  0.6639  0.0824
   83MOL0     C11110  10.118   8.826   5.189 -0.1839 -0.4957 -0.3580
   83MOL0     C11111  10.038   8.934   5.280  0.0520  0.4312  0.8978
   83MOL0     C11112   9.941   9.034   5.203  0.6163 -0.1159 -0.5527
   83MOL0     C11113   9.916   9.155   5.296 -0.6372 -0.8135  0.3109
   83MOL0    Cl11114  10.060   9.251   5.339 -0.0877  0.7616 -0.0105
   83MOL0     C11115   9.993   8.163   4.941 -1.2456  0.9046 -0.0748
   83MOL0     C11116  10.012   8.039   4.871  0.5051  0.3644  0.5071
   83MOL0     O11117   9.777   7.886   4.607  0.3055  0.1829  0.4937
   83MOL0     C11118   9.946   7.564   4.668  0.8531  0.2537 -0.2816
   83MOL0     C11119   9.954   7.436   4.614 -0.1408  0.7290 -0.3638
   83MOL0     N11120   9.959   6.795   4.287 -0.0021  0.6585 -0.5917
   83MOL0     N11121  10.044   6.720   4.350  0.5735 -0.0889 -0.0434
   83MOL0     C11122   9.713   5.732   3.787  0.1663 -0.6958 -0.4823
   83MOL0     C11123   9.606   5.636   3.799 -0.3384 -1.0977  0.3534
   83MOL0     C11124   9.208   5.452   3.958  0.5344  1.0701  0.4579
   83MOL0     C11125   9.227   5.421   4.093  0.3503  0.1932 -0.2457
   83MOL0     C11126   9.156   5.314   4.148  0.2601  0.2958  0.1380
   83MOL0     C11127   9.067   5.245   4.067 -0.0203 -0.3271 -0.6312
   83MOL0     O11128   9.000   5.147   4.131  0.4696  0.6569  0.4987
   83MOL0     C11129   8.901   5.080   4.056 -1.6242  0.6519 -0.3391
   83MOL0     C11130   8.824   4.983   4.145  0.0235  0.3809  0.5409
   83MOL0     C11131   8.721   5.049   4.238  0.0372 -0.0744  0.8209
   83MOL0     C11132   8.785   5.146   4.343  0.2675 -0.4504  1.4201
   83MOL0     C11133   8.660   5.187   4.425  0.7875 -0.0400 -0.7591
   83MOL0     C11134   8.553   5.196   4.484  0.0079  0.5960  0.0882
   83MOL0     C11135   9.049   5.281   3.936 -0.0109 -0.3939 -0.0511
   83MOL0     C11136   9.137   5.373   3.874  0.0147  0.5508  0.4176
   83MOL0     C11137   9.125   5.388   3.719 -0.7487 -0.2008 -1.3007
   83MOL0     H11138   9.429   5.753   4.065  0.0036 -3.1195 -0.0244
   83MOL0     H11139   9.610   5.924   4.051  3.3003  2.0630 -1.1315
   83MOL0     H11140   9.780   6.040   4.023 -0.1358 -0.1818 -1.0026
   83MOL0     H11141   9.874   5.890   4.061 -0.8510 -0.7667 -0.0905
   83MOL0     H11142   9.975   6.128   3.886  3.4922  1.2426  0.8081
   83MOL0     H11143  10.065   5.996   3.922  1.0596  1.3570 -0.3606
   83MOL0     H11144  10.142   6.054   4.117  0.1278 -0.1560 -1.4401
   83MOL0     H11145   9.994   6.101   4.193  1.2044 -0.2565 -0.3648
   83MOL0     H11146  10.130   6.261   3.988 -0.5212 -2.6040 -0.6485
   83MOL0     H11147   9.996   6.317   4.075  2.0821  3.4050 -0.5826
   83MOL0     H11148  10.106   6.271   4.300 -0.4995 -0.8177 -0.4091
   83MOL0     H11149  10.250   6.239   4.215 -1.8280 -3.7429 -1.7062
   83MOL0     H11150  10.241   6.470   4.126  1.8111 -0.6211  0.3876
   83MOL0     H11151  10.079   6.492   4.191  0.1941 -0.2628 -0.7626
   83MOL0     H11152  10.311   6.430   4.381 -0.3983 -1.0462 -1.9102
   83MOL0     H11153  10.161   6.491   4.428 -0.4711  1.3457 -0.1531
   83MOL0     H11154  10.331   6.670   4.408 -1.1135  2.0174  0.6436
   83MOL0     H11155  10.330   6.644   4.227 -0.0606 -0.6676  0.8075
   83MOL0     H11156  10.239   6.858   4.121  0.3588  2.6171  2.7032
   83MOL0     H11157   9.956   6.942   4.014  5.0663 -0.8943 -1.0055
   83MOL0     H11158   9.874   7.016   4.152  0.1629 -0.0228  0.8255
   83MOL0     H11159  10.136   7.137   4.078 -0.3253  1.0100  1.6379
   83MOL0     H11160   9.961   7.185   4.059 -4.0693  0.3936  5.7827
   83MOL0     H11161  10.085   7.299   4.238 -3.2527  0.9482 -2.7313
   83MOL0     H11162  10.121   7.145   4.321  0.1803  0.3487 -0.8322
   83MOL0     H11163   9.891   7.108   4.363  0.2620  1.0163  0.6647
   83MOL0     H11164   9.836   7.262   4.276  0.1418 -1.5845 -2.9250
   83MOL0     H11165   9.767   7.472   4.338  0.8488  1.0274 -0.9905
   83MOL0     H11166   9.737   7.697   4.438 -0.0708 -1.2021 -1.2511
   83MOL0     H11167   9.672   7.971   4.855 -0.5564 -0.4065  2.7754
   83MOL0     H11168   9.658   8.185   4.961  0.3383  0.9036 -1.8849
   83MOL0     H11169  10.026   8.374   5.136  2.5062  1.1510 -0.8118
   83MOL0     H11170   9.974   8.462   4.982 -0.4788 -0.4091  0.6684
   83MOL0     H11171   9.803   8.577   5.096  1.9450  3.2710 -0.5131
   83MOL0     H11172   9.823   8.487   5.244  0.3087  0.4315 -0.7406
   83MOL0     H11173   9.919   8.677   5.306 -1.7276 -1.1382 -1.7728
   83MOL0     H11174  10.057   8.556   5.263 -0.6808 -1.5191 -0.3270
   83MOL0     H11175   9.954   8.777   5.074  2.8232  1.9072 -2.2611
   83MOL0     H11176  10.078   8.657   5.057  0.6639  1.3299 -0.3167
   83MOL0     H11177  10.172   8.871   5.105  0.0346  0.2626  0.1786
   83MOL0     H11178  10.197   8.784   5.251  1.5365  0.5895 -1.7343
   83MOL0     H11179   9.989   8.883   5.363 -0.3706 -4.5323 -1.9884
   83MOL0     H11180  10.104   9.007   5.329 -0.7473 -0.5770  3.6245
   83MOL0     H11181   9.849   8.977   5.192  1.3770 -1.3659 -0.6759
   83MOL0     H11182   9.983   9.067   5.107  2.3505  0.6752  0.4375
   83MOL0     H11183   9.847   9.224   5.245 -0.6599  0.2589  1.7130
   83MOL0     H11184   9.863   9.136   5.389 -1.9401  4.4717  0.9831
   83MOL0     H11185  10.083   8.214   4.974  1.3483 -4.6367  2.7800
   83MOL0     H11186  10.116   8.016   4.854  0.8852  2.8460 -1.0232
   83MOL0     H11187   9.990   7.582   4.765 -0.3602 -0.9205  0.5142
   83MOL0     H11188  10.014   7.357   4.659 -0.2293  1.3158  0.8484
   83MOL0     H11189   9.793   5.717   3.715  1.6289 -1.9123  1.3237
   83MOL0     H11190   9.612   5.544   3.742  0.2637 -1.4613  0.9897
   83MOL0     H11191   9.305   5.470   4.151  0.6380 -0.7394  0.1877
   83MOL0     H11192   9.172   5.289   4.252 -0.3600 -1.6726 -0.1984
   83MOL0     H11193   8.949   5.024   3.975 -1.9512 -0.5340  0.2591
   83MOL0     H11194   8.827   5.145   4.008 -3.2900  1.1256  2.6364
   83MOL0     H11195   8.894   4.922   4.203 -1.3266 -1.5668  0.2323
   83MOL0     H11196   8.772   4.913   4.079  0.2097  1.3041 -0.6058
   83MOL0     H11197   8.660   4.970   4.283 -2.8732  1.7633  0.3683
   83MOL0     H11198   8.655   5.106   4.172  1.5136 -0.3017 -0.9292
   83MOL0     H11199   8.853   5.097   4.412  3.3840 -0.6326 -1.4757
   83MOL0     H11200   8.832   5.235   4.299 -1.4419 -0.3330 -0.3470
   83MOL0     H11201   8.464   5.196   4.543  1.0974 -2.7138  2.0203
   83MOL0     H11202   8.969   5.244   3.873 -0.6601  0.2329  0.3920
   83MOL0     H11203   9.060   5.476   3.706 -0.0370  0.2656 -1.7665
   83MOL0     H11204   9.225   5.406   3.679 -1.4977  1.2860 -2.6352
   83MOL0     H11205   9.086   5.298   3.671  1.1272 -1.4662 -0.5196
   84MOL0     O11206   6.693   6.948   2.846 -0.0569 -0.4110 -0.9994
   84MOL0     C11207   6.735   7.053   2.902 -0.0847 -0.4418  1.1408
   84MOL0     O11208   6.854   7.060   2.952 -0.1460 -0.8371  0.3461
   84MOL0     C11209   6.941   6.953   2.953 -0.2491  0.0475 -0.0038
   84MOL0     C11210   6.995   6.903   2.834 -0.3290  0.0340 -0.0194
   84MOL0     C11211   7.085   6.800   2.836  0.4682 -0.5401 -0.4276
   84MOL0     C11212   7.108   6.728   2.957  0.2159 -0.0530 -0.3284
   84MOL0     O11213   7.198   6.618   2.956 -0.2192  0.7240 -0.1959
   84MOL0     C11214   7.309   6.636   3.049  0.3921 -0.5806  0.0460
   84MOL0     C11215   7.430   6.555   3.007 -0.5348 -0.3607 -0.3311
   84MOL0     C11216   7.499   6.621   2.883 -0.1582  0.2594 -0.5166
   84MOL0     C11217   7.599   6.738   2.919 -0.4624 -0.4741 -0.0689
   84MOL0     C11218   7.658   6.770   2.779 -0.5036  0.1593  0.5954
   84MOL0     C11219   7.734   6.902   2.779  0.1766 -1.0861 -0.2866
   84MOL0     C11220   7.751   6.965   2.638  0.1876  0.0257  0.4851
   84MOL0     C11221   7.826   7.095   2.601  0.9355  0.4041  0.7280
   84MOL0     N11222   7.758   7.201   2.681  0.5036 -0.1841 -0.7164
   84MOL0     C11223   7.661   7.290   2.641 -0.2178  0.7821 -0.1206
   84MOL0     C11224   7.639   7.371   2.748  0.4325  0.5952 -0.3159
   84MOL0     C11225   7.555   7.495   2.743  0.2072 -0.3990 -0.5439
   84MOL0     C11226   7.413   7.448   2.731 -0.4150 -0.1237  0.8188
   84MOL0     C11227   7.324   7.561   2.673 -0.2644 -0.4356  0.2794
   84MOL0     C11228   7.346   7.695   2.748  0.1647 -0.9018  0.2000
   84MOL0     O11229   7.254   7.789   2.702  0.4711  0.2784 -0.4905
   84MOL0     C11230   7.237   7.900   2.783 -0.7766 -0.6649  0.3586
   84MOL0     C11231   7.330   7.948   2.875  0.4927  0.2888  0.1889
   84MOL0     C11232   7.314   8.067   2.941  1.1755 -0.3315  0.3570
   84MOL0     C11233   7.200   8.148   2.915  0.6912 -0.3871 -0.0428
   84MOL0     C11234   7.181   8.280   2.991  0.4653 -0.1646 -0.6335
   84MOL0     O11235   7.065   8.348   2.976  0.0516  0.3832  0.1062
   84MOL0     C11236   7.075   8.468   3.038  0.5469 -0.1788 -0.3252
   84MOL0     C11237   7.041   8.473   3.176  0.8873 -0.7182  0.2470
   84MOL0     C11238   7.026   8.600   3.239 -0.2662  0.5688 -0.1855
   84MOL0     C11239   7.044   8.719   3.168 -0.1808 -0.7362 -0.6501
   84MOL0     O11240   7.002   8.832   3.233  0.5756  0.4873 -0.9519
   84MOL0     C11241   7.050   8.960   3.198 -0.2375  0.2536 -0.5469
   84MOL0     C11242   7.005   9.077   3.298  0.7214 -0.4295 -0.2712
   84MOL0     C11243   6.868   9.050   3.363 -0.0868  0.3789  1.3718
   84MOL0     C11244   6.840   9.128   3.495 -0.7576  0.0006 -0.2904
   84MOL0     C11245   6.843   9.274   3.495 -0.3335  0.4526 -0.2779
   84MOL0     C11246   6.860   9.333   3.636  0.3213  0.5142  0.0215
   84MOL0     C11247   6.730   9.301   3.711  0.2077  1.0602  1.2114
   84MOL0     C11248   6.725   9.373   3.844  0.8872 -0.0363  0.2569
   84MOL0    Cl11249   6.569   9.347   3.922 -0.1957 -0.2158  0.0627
   84MOL0     C11250   7.076   8.712   3.036 -1.2335  0.3045 -0.6402
   84MOL0     C11251   7.103   8.585   2.973  0.4597  1.1713 -0.7662
   84MOL0     O11252   7.263   8.297   3.080 -0.3248  0.6725  0.4001
   84MOL0     C11253   7.110   8.109   2.814 -0.1657 -0.3120 -0.5610
   84MOL0     C11254   7.136   7.994   2.745 -0.7965 -0.0269  0.3577
   84MOL0     N11255   7.721   7.328   2.852  0.0632  0.0174 -0.1749
   84MOL0     N11256   7.793   7.230   2.812 -0.5678  0.2080  0.5043
   84MOL0     C11257   7.045   6.769   3.077  0.1156  0.5384  0.3637
   84MOL0     C11258   6.967   6.886   3.074 -0.3870 -0.5985 -0.4924
   84MOL0     C11259   6.644   7.165   2.930  0.3544  0.0226 -0.6930
   84MOL0     C11260   6.700   7.277   2.992  0.0762  0.5123 -0.6691
   84MOL0     C11261   6.619   7.391   3.005 -0.2934  0.4114  0.2630
   84MOL0     C11262   6.490   7.401   2.959 -0.6697 -0.0084  0.2706
   84MOL0     O11263   6.419   7.520   2.976  0.4858 -0.1547 -0.1044
   84MOL0     C11264   6.385   7.539   3.118  0.5415  0.1353  0.4170
   84MOL0     C11265   6.473   7.635   3.187 -0.4103 -0.3421 -0.9394
   84MOL0     C11266   6.438   7.785   3.179 -0.2312 -0.2615 -0.2624
   84MOL0     C11267   6.325   7.826   3.273  0.3235  0.4161  0.0790
   84MOL0     C11268   6.298   7.972   3.290  0.8607  1.2139  0.3606
   84MOL0     C11269   6.246   8.076   3.304  0.5482 -0.4193 -0.5871
   84MOL0     C11270   6.438   7.288   2.905 -0.0416 -0.5764 -0.5588
   84MOL0     C11271   6.508   7.168   2.889 -0.5525  0.1001 -0.4215
   84MOL0     C11272   6.438   7.059   2.821  0.3815 -0.5155 -0.2418
   84MOL0     H11273   6.978   6.946   2.736 -1.5275  0.0056  0.1626
   84MOL0     H11274   7.149   6.778   2.751  0.4790  1.9748 -1.1536
   84MOL0     H11275   7.327   6.741   3.071 -0.6124 -0.3368 -0.2138
   84MOL0     H11276   7.270   6.599   3.145 -3.2010  0.6266 -0.7620
   84MOL0     H11277   7.387   6.456   2.988 -2.8982  0.6336 -0.4765
   84MOL0     H11278   7.502   6.541   3.089 -1.9235 -1.5550  0.7444
   84MOL0     H11279   7.425   6.663   2.814  0.8523  1.3339 -0.9646
   84MOL0     H11280   7.557   6.549   2.825  1.3266  2.3271 -1.7220
   84MOL0     H11281   7.536   6.811   2.971 -1.7949 -2.3013  1.0069
   84MOL0     H11282   7.680   6.706   2.985 -2.4537 -1.5157  2.0432
   84MOL0     H11283   7.726   6.686   2.760  3.9798  3.6709 -0.9076
   84MOL0     H11284   7.575   6.785   2.709 -1.9113 -0.6209  2.0593
   84MOL0     H11285   7.677   6.970   2.843 -2.0131 -1.5489 -1.6243
   84MOL0     H11286   7.832   6.883   2.823  0.3284 -0.8273 -0.5087
   84MOL0     H11287   7.654   6.990   2.595  0.4704  2.7452  1.2571
   84MOL0     H11288   7.784   6.881   2.575  0.6994  1.0151 -0.6032
   84MOL0     H11289   7.933   7.086   2.620  1.3620  0.4252 -1.4191
   84MOL0     H11290   7.802   7.120   2.497 -1.6930 -1.7287  0.7043
   84MOL0     H11291   7.615   7.305   2.544 -2.5779  0.4864  0.8951
   84MOL0     H11292   7.574   7.560   2.829  2.4109  1.8103 -2.5323
   84MOL0     H11293   7.581   7.565   2.663  0.0039  1.7609  1.1789
   84MOL0     H11294   7.406   7.367   2.658 -0.9780  1.3099 -0.7801
   84MOL0     H11295   7.369   7.420   2.827  1.1292  2.7907  2.5173
   84MOL0     H11296   7.218   7.541   2.694 -1.0604  3.3813  0.6864
   84MOL0     H11297   7.334   7.566   2.565  1.6521  0.6878  0.4712
   84MOL0     H11298   7.451   7.725   2.738 -0.1204 -0.0793 -0.3684
   84MOL0     H11299   7.330   7.676   2.854 -0.8026  1.1161  0.4451
   84MOL0     H11300   7.424   7.902   2.903  0.9751 -0.5895 -2.6651
   84MOL0     H11301   7.386   8.110   3.009  0.2603  0.7668  0.6521
   84MOL0     H11302   7.021   8.374   3.216 -2.0287 -0.4498 -0.3517
   84MOL0     H11303   7.001   8.614   3.344 -0.9029  0.8693 -0.3716
   84MOL0     H11304   7.159   8.953   3.198 -0.2212  0.2766 -1.5622
   84MOL0     H11305   7.015   8.991   3.099  0.9336  0.2368 -0.9791
   84MOL0     H11306   7.074   9.089   3.382 -0.9699 -0.6155  1.2122
   84MOL0     H11307   7.002   9.170   3.241  2.2617 -0.2522 -0.1097
   84MOL0     H11308   6.800   9.066   3.280  1.8684 -0.9930 -0.6081
   84MOL0     H11309   6.868   8.942   3.379  1.3481  0.4025  1.7114
   84MOL0     H11310   6.916   9.088   3.562  1.2812  0.4899 -2.1685
   84MOL0     H11311   6.742   9.097   3.532 -0.7041  0.2941  0.0977
   84MOL0     H11312   6.752   9.314   3.448  1.0396  1.5629 -2.1704
   84MOL0     H11313   6.924   9.296   3.424 -0.4352  1.7066 -0.0393
   84MOL0     H11314   6.947   9.283   3.678 -0.4141 -2.8020 -2.0423
   84MOL0     H11315   6.880   9.441   3.632 -0.7591  0.8572  2.2875
   84MOL0     H11316   6.716   9.192   3.715  1.2528  0.8895  0.7481
   84MOL0     H11317   6.646   9.343   3.655  0.3123 -0.6103 -0.2946
   84MOL0     H11318   6.807   9.351   3.913  1.7646  2.5347  0.1576
   84MOL0     H11319   6.728   9.482   3.828 -2.5613  0.4243  1.8957
   84MOL0     H11320   7.087   8.800   2.973 -0.4240  0.8152  0.1814
   84MOL0     H11321   7.132   8.558   2.872 -0.0347 -3.1991  0.0332
   84MOL0     H11322   7.028   8.170   2.777 -1.1741 -2.2436 -1.6346
   84MOL0     H11323   7.071   7.983   2.659 -3.8314 -1.7157  2.6612
   84MOL0     H11324   7.065   6.711   3.166 -4.9834 -4.4632 -1.2047
   84MOL0     H11325   6.909   6.923   3.157  1.1659  0.8905 -0.0227
   84MOL0     H11326   6.804   7.285   3.023  0.4298  1.1896 -1.9635
   84MOL0     H11327   6.665   7.483   3.038  0.3448  0.4618 -0.7157
   84MOL0     H11328   6.407   7.446   3.172  1.8652  0.8885  1.2243
   84MOL0     H11329   6.281   7.570   3.133  0.2643 -0.3038 -0.5024
   84MOL0     H11330   6.572   7.615   3.145 -1.3226 -3.6290 -1.7953
   84MOL0     H11331   6.485   7.606   3.292  2.0921 -2.3780 -1.6715
   84MOL0     H11332   6.408   7.822   3.080 -1.0913 -2.0104 -0.6920
   84MOL0     H11333   6.526   7.847   3.198 -0.0724  0.2380 -2.3190
   84MOL0     H11334   6.232   7.781   3.237 -1.9520  1.7740  3.7605
   84MOL0     H11335   6.339   7.787   3.374 -1.4785 -0.0398  0.1773
   84MOL0     H11336   6.190   8.167   3.309 -2.0674 -1.8714 -1.3991
   84MOL0     H11337   6.337   7.296   2.865 -0.1113 -0.0616 -0.2864
   84MOL0     H11338   6.485   7.047   2.723 -0.0108  1.5795 -0.7342
   84MOL0     H11339   6.443   6.967   2.880  4.7529  0.0958  0.7070
   84MOL0     H11340   6.332   7.079   2.804 -0.1852  1.5426  4.1764
   85MOL0     O11341   5.163   1.425   7.807  0.7210 -0.3568 -0.5109
   85MOL0     C11342   5.157   1.308   7.785  0.4855 -0.2871  0.8386
   85MOL0     O11343   5.040   1.232   7.788  0.4344  0.6003 -0.6994
   85MOL0     C11344   4.920   1.301   7.801  0.1268  0.1163 -0.2085
   85MOL0     C11345   4.828   1.291   7.911 -0.1014  0.5764  0.2690
   85MOL0     C11346   4.713   1.371   7.925 -0.3431  0.1565  0.2584
   85MOL0     C11347   4.697   1.475   7.833 -0.0408  0.7492  0.7025
   85MOL0     O11348   4.601   1.572   7.844 -0.2551  0.3480 -0.4713
   85MOL0     C11349   4.462   1.539   7.873 -0.5773 -0.2799 -0.9420
   85MOL0     C11350   4.374   1.653   7.818 -0.4202  0.7788  1.2304
   85MOL0     C11351   4.387   1.656   7.661 -0.7332 -0.3217 -0.9514
   85MOL0     C11352   4.281   1.749   7.606  0.3848 -0.4737 -0.9717
   85MOL0     C11353   4.307   1.775   7.453  0.7352 -0.7652  0.3914
   85MOL0     C11354   4.237   1.911   7.397 -1.0502  0.7310 -0.8189
   85MOL0     C11355   4.238   1.907   7.245 -0.0683  0.1392 -0.7854
   85MOL0     C11356   4.185   2.032   7.181  0.3747 -0.7956 -0.1880
   85MOL0     N11357   4.211   2.037   7.043 -0.3593  0.0678 -0.3287
   85MOL0     C11358   4.114   2.033   6.942  0.6345 -0.4262 -0.2998
   85MOL0     C11359   4.200   2.041   6.832  1.1977  0.0396 -0.0603
   85MOL0     C11360   4.148   2.029   6.692 -0.2671  0.0734 -0.6676
   85MOL0     C11361   4.133   2.161   6.616  0.8870  0.8319 -0.2637
   85MOL0     C11362   4.011   2.235   6.655  0.9341  0.3691 -0.1424
   85MOL0     C11363   3.969   2.355   6.553 -0.4497 -0.1372 -0.6961
   85MOL0     O11364   4.073   2.454   6.548 -0.0480 -0.0671 -0.3653
   85MOL0     C11365   4.068   2.571   6.619  0.2351 -0.6034  0.5057
   85MOL0     C11366   4.184   2.649   6.619 -0.1649 -0.9371  0.0803
   85MOL0     C11367   4.186   2.776   6.679  0.0165 -0.0816 -0.7592
   85MOL0     C11368   4.073   2.821   6.751 -0.3463 -0.5803 -0.0520
   85MOL0     C11369   4.058   2.958   6.814 -0.3213  0.0094 -0.5836
   85MOL0     O11370   4.147   3.057   6.782 -0.4628  0.6026 -0.3221
   85MOL0     C11371   4.132   3.172   6.855  0.2092 -0.0817 -0.4757
   85MOL0     C11372   4.029   3.261   6.814 -0.4035 -0.6886 -0.5299
   85MOL0     C11373   4.012   3.382   6.886 -0.0311 -0.2471 -0.2996
   85MOL0     C11374   4.091   3.395   7.006 -0.1931 -0.4196  0.5114
   85MOL0     O11375   4.115   3.511   7.074  0.1801  1.1623 -0.0347
   85MOL0     C11376   4.077   3.631   7.008 -0.1542  0.1405 -0.9563
   85MOL0     C11377   4.093   3.742   7.100  0.5976  0.3278  0.8703
   85MOL0     C11378   3.987   3.745   7.212  0.4489 -0.7391  0.6337
   85MOL0     C11379   3.998   3.877   7.296 -0.0505 -0.1707  0.5783
   85MOL0     C11380   3.918   3.877   7.424  1.0075 -0.2731 -0.2017
   85MOL0     C11381   3.950   3.772   7.527 -0.7461  1.3901 -0.4549
   85MOL0     C11382   3.902   3.820   7.661 -0.8260 -0.0983  0.5820
   85MOL0     C11383   3.955   3.731   7.770 -0.1727 -0.0144 -1.0597
   85MOL0    Cl11384   3.864   3.574   7.754 -0.5862  0.5916  0.2013
   85MOL0     C11385   4.175   3.288   7.047 -0.0617  1.0870 -0.1203
   85MOL0     C11386   4.195   3.178   6.971  0.6147 -0.7088 -0.4297
   85MOL0     O11387   3.956   2.965   6.884 -0.4308 -0.1916  0.1757
   85MOL0     C11388   3.961   2.734   6.762  0.6068 -0.0358  0.4220
   85MOL0     C11389   3.963   2.609   6.704 -0.7603 -0.0879 -1.5365
   85MOL0     N11390   4.332   2.057   6.864 -0.0041 -0.2542 -0.2402
   85MOL0     N11391   4.334   2.055   6.986  0.1323  0.7242 -0.6752
   85MOL0     C11392   4.782   1.482   7.719  0.5735  0.0390 -0.2960
   85MOL0     C11393   4.891   1.393   7.706 -0.7257 -0.7703  0.2498
   85MOL0     C11394   5.266   1.242   7.707 -0.5176  0.3070 -0.1407
   85MOL0     C11395   5.242   1.136   7.616  0.1995  0.7444 -0.2079
   85MOL0     C11396   5.344   1.077   7.550 -0.1995  0.1306  0.0007
   85MOL0     C11397   5.475   1.109   7.578  0.7225  0.4465 -0.3470
   85MOL0     O11398   5.564   1.061   7.491 -0.4691  0.4743 -0.0576
   85MOL0     C11399   5.585   1.156   7.384 -0.6458  0.5911  0.2070
   85MOL0     C11400   5.728   1.145   7.323 -0.1070 -0.5933  0.9108
   85MOL0     C11401   5.742   1.251   7.210  0.2463  0.5262  0.4269
   85MOL0     C11402   5.759   1.167   7.075  0.4380 -1.6827 -0.8349
   85MOL0     C11403   5.910   1.161   7.060 -0.5443 -0.5500  0.4514
   85MOL0     C11404   6.028   1.153   7.068  0.3773 -0.5216  0.7185
   85MOL0     C11405   5.512   1.206   7.675 -0.4070 -0.1649  0.1427
   85MOL0     C11406   5.408   1.271   7.745  0.0760 -0.1141 -1.2403
   85MOL0     C11407   5.453   1.377   7.840  0.9174  0.6584  1.3448
   85MOL0     H11408   4.853   1.232   7.998 -2.8774  0.9802  1.4233
   85MOL0     H11409   4.654   1.370   8.016  0.9914  5.0439  1.4461
   85MOL0     H11410   4.434   1.449   7.817  0.0738 -0.4689 -0.9744
   85MOL0     H11411   4.447   1.514   7.978 -1.0471 -1.5084 -1.2798
   85MOL0     H11412   4.408   1.750   7.856 -1.3149  1.7014 -0.2407
   85MOL0     H11413   4.271   1.622   7.837 -1.1319  2.1324 -0.2405
   85MOL0     H11414   4.369   1.555   7.624 -2.1385 -0.6300  0.4559
   85MOL0     H11415   4.484   1.698   7.632 -1.9075  3.0965 -0.4395
   85MOL0     H11416   4.190   1.692   7.629  0.6721  0.0873  1.9808
   85MOL0     H11417   4.274   1.842   7.663 -1.4780 -0.1459 -1.6663
   85MOL0     H11418   4.414   1.787   7.435 -0.0233  1.1748 -3.8599
   85MOL0     H11419   4.270   1.694   7.389 -0.5918  0.1879 -0.0751
   85MOL0     H11420   4.138   1.901   7.441  0.7267 -0.2205  3.4060
   85MOL0     H11421   4.293   1.996   7.436 -2.1270  0.7146  0.8342
   85MOL0     H11422   4.187   1.820   7.205 -0.0760  0.8669 -2.4525
   85MOL0     H11423   4.338   1.892   7.204 -0.1267 -0.3960 -0.7342
   85MOL0     H11424   4.079   2.046   7.205  0.5130 -0.9071  0.5143
   85MOL0     H11425   4.238   2.118   7.223  2.3815 -2.3012  0.5340
   85MOL0     H11426   4.007   2.015   6.946  0.6486 -0.7858 -1.1576
   85MOL0     H11427   4.211   1.961   6.633  0.4808  1.7017 -1.8506
   85MOL0     H11428   4.047   1.989   6.694 -0.1718 -0.3781 -2.5437
   85MOL0     H11429   4.221   2.226   6.621 -0.0175  2.0408  0.6974
   85MOL0     H11430   4.126   2.149   6.507 -2.6308  0.4862 -0.1284
   85MOL0     H11431   4.016   2.281   6.754 -4.2623  3.5768 -0.9895
   85MOL0     H11432   3.930   2.163   6.662  3.1946 -2.1734  2.4765
   85MOL0     H11433   3.870   2.387   6.586  0.0161 -2.6891  4.0543
   85MOL0     H11434   3.971   2.335   6.446  2.7103  1.2136 -1.0043
   85MOL0     H11435   4.269   2.611   6.563  0.1872 -0.7495  0.4748
   85MOL0     H11436   4.264   2.849   6.661  0.0858  0.2389  0.7021
   85MOL0     H11437   3.975   3.238   6.723  1.1893 -0.1561 -1.6579
   85MOL0     H11438   3.933   3.449   6.854  1.6886  0.8675 -2.5263
   85MOL0     H11439   4.140   3.642   6.920  0.2166  1.6783 -0.5333
   85MOL0     H11440   3.971   3.629   6.981  0.0306  3.6744 -2.4526
   85MOL0     H11441   4.198   3.749   7.131  0.0503  1.4506  2.6417
   85MOL0     H11442   4.070   3.823   7.030  2.3712 -0.5876 -0.8434
   85MOL0     H11443   3.885   3.746   7.173  0.1290  0.7323  1.4150
   85MOL0     H11444   4.007   3.660   7.277  2.2532  0.4099  1.6757
   85MOL0     H11445   3.974   3.966   7.237 -0.7440  0.4058  1.6780
   85MOL0     H11446   4.106   3.891   7.300  0.0313  0.6169 -2.1725
   85MOL0     H11447   3.812   3.889   7.398  0.9444 -2.0926 -0.9121
   85MOL0     H11448   3.943   3.967   7.481 -2.3082  0.4408  0.3857
   85MOL0     H11449   3.893   3.682   7.500 -1.8089  1.3249  1.8066
   85MOL0     H11450   4.057   3.750   7.536 -1.0184  0.2804  0.2648
   85MOL0     H11451   3.794   3.817   7.679 -0.3689  1.3050  4.2325
   85MOL0     H11452   3.946   3.919   7.669 -1.4865  0.6202 -2.8338
   85MOL0     H11453   4.064   3.719   7.774 -0.3175 -1.2605  0.9224
   85MOL0     H11454   3.939   3.757   7.875  0.6459 -2.2250 -0.3109
   85MOL0     H11455   4.239   3.307   7.132 -0.3200 -0.1134  0.3548
   85MOL0     H11456   4.268   3.099   6.988  0.9365 -0.8126 -2.1043
   85MOL0     H11457   3.866   2.766   6.803  0.9450 -1.2703  2.2541
   85MOL0     H11458   3.873   2.551   6.720 -0.3918 -0.1403  0.6386
   85MOL0     H11459   4.769   1.558   7.643  0.5301 -2.2366 -2.7089
   85MOL0     H11460   4.966   1.416   7.632  0.1693 -2.1782  0.6828
   85MOL0     H11461   5.140   1.105   7.599  0.7257 -2.1023  1.2557
   85MOL0     H11462   5.332   1.012   7.464  2.4990 -0.2101 -0.2223
   85MOL0     H11463   5.573   1.261   7.413 -4.2150  0.1705  0.6650
   85MOL0     H11464   5.512   1.127   7.308 -2.9430 -1.8022  3.0719
   85MOL0     H11465   5.764   1.044   7.300 -0.2436 -0.7808  1.5162
   85MOL0     H11466   5.791   1.178   7.406  0.4296 -2.5040  1.3175
   85MOL0     H11467   5.817   1.330   7.225  0.2809  0.3344  1.3174
   85MOL0     H11468   5.645   1.302   7.201  1.5493  2.9342 -1.2600
   85MOL0     H11469   5.725   1.064   7.091  1.0052 -1.7500  0.0177
   85MOL0     H11470   5.702   1.222   7.000 -0.7266  1.3429  2.0281
   85MOL0     H11471   6.132   1.126   7.071  0.9464  1.2435 -0.9917
   85MOL0     H11472   5.616   1.233   7.691 -0.5976  1.6965 -1.4400
   85MOL0     H11473   5.437   1.476   7.798  1.6099  0.3459  0.3143
   85MOL0     H11474   5.384   1.386   7.925  0.3074  3.1333  0.6618
   85MOL0     H11475   5.557   1.357   7.868  1.2552 -1.5714 -1.1076
   86MOL0     O11476   4.352   5.561  10.439 -0.5380  0.4161 -0.0689
   86MOL0     C11477   4.277   5.547  10.344  0.4345  0.4335 -0.5668
   86MOL0     O11478   4.313   5.571  10.215 -0.3756  0.2954  0.2889
   86MOL0     C11479   4.438   5.554  10.170  1.1714  0.9360  0.1578
   86MOL0     C11480   4.468   5.434  10.101 -0.0434 -0.0265  0.1740
   86MOL0     C11481   4.590   5.422  10.028  0.3860 -0.6259 -0.3016
   86MOL0     C11482   4.685   5.536  10.026 -0.4800 -0.1253 -0.6257
   86MOL0     O11483   4.808   5.523   9.968 -0.5857  0.5129 -0.5390
   86MOL0     C11484   4.917   5.530  10.070  0.1553  0.7588 -0.0955
   86MOL0     C11485   5.051   5.481  10.019 -0.2333  0.3318  0.3324
   86MOL0     C11486   5.093   5.586   9.901  0.1431  0.3673 -0.9263
   86MOL0     C11487   5.222   5.533   9.836  0.3946 -0.7418 -1.1962
   86MOL0     C11488   5.271   5.623   9.727  0.4696  0.2769 -0.5602
   86MOL0     C11489   5.342   5.746   9.786 -0.2536  0.1546 -0.0368
   86MOL0     C11490   5.440   5.815   9.689  0.7368 -0.2782 -0.2912
   86MOL0     C11491   5.509   5.941   9.752 -0.6441  0.6376 -0.7603
   86MOL0     N11492   5.614   6.002   9.671  0.0628 -0.0525  0.7634
   86MOL0     C11493   5.704   5.934   9.595 -0.3637  0.1150 -0.2004
   86MOL0     C11494   5.777   6.025   9.540 -0.2972  0.0395  0.1849
   86MOL0     C11495   5.869   6.013   9.419 -0.3361  0.4236  0.9338
   86MOL0     C11496   5.803   6.031   9.282  0.6974 -0.2891 -0.3717
   86MOL0     C11497   5.915   6.033   9.171  0.5004 -1.2563  0.0496
   86MOL0     C11498   5.865   6.014   9.024  0.5686 -0.2432 -0.3857
   86MOL0     O11499   5.809   5.890   9.003  0.2469 -0.3456  0.2353
   86MOL0     C11500   5.890   5.779   8.993  0.4284  0.0876 -0.1717
   86MOL0     C11501   5.902   5.717   8.867  0.0819 -0.9243  0.1208
   86MOL0     C11502   5.993   5.612   8.852 -0.6705  0.0089 -0.5114
   86MOL0     C11503   6.058   5.548   8.961 -0.3870 -0.2165  0.0990
   86MOL0     C11504   6.135   5.428   8.945 -0.7097 -0.2852  1.0001
   86MOL0     O11505   6.181   5.395   8.823 -0.0804  0.5021  0.6481
   86MOL0     C11506   6.249   5.284   8.801  0.1087  0.0581 -0.5610
   86MOL0     C11507   6.386   5.261   8.839  0.6147 -0.5763  0.2166
   86MOL0     C11508   6.451   5.152   8.792 -0.1478 -0.0380 -0.4008
   86MOL0     C11509   6.392   5.055   8.709 -0.4994  0.5282 -0.7147
   86MOL0     O11510   6.469   4.941   8.673 -0.1157 -0.7951 -0.8272
   86MOL0     C11511   6.611   4.970   8.653 -0.1163  0.0097  0.2841
   86MOL0     C11512   6.681   4.870   8.566  0.0880  0.3591 -0.5172
   86MOL0     C11513   6.653   4.724   8.606 -0.0425  0.0586 -0.5645
   86MOL0     C11514   6.727   4.630   8.497 -0.8152 -0.9750 -0.5017
   86MOL0     C11515   6.694   4.484   8.509  0.2732  0.8491  0.6653
   86MOL0     C11516   6.769   4.413   8.626  1.4551 -0.5085  0.3370
   86MOL0     C11517   6.732   4.258   8.634  0.7723  0.0067  0.6105
   86MOL0     C11518   6.786   4.190   8.759 -0.8551 -0.5805 -0.0385
   86MOL0    Cl11519   6.727   4.026   8.776 -0.1333  0.0190 -0.1029
   86MOL0     C11520   6.256   5.075   8.677 -0.5402  0.0967  0.7362
   86MOL0     C11521   6.188   5.192   8.714 -0.6656 -0.6282  0.2406
   86MOL0     O11522   6.173   5.372   9.050  0.1353  0.1344 -0.3119
   86MOL0     C11523   6.043   5.603   9.086 -0.3318  0.0220  0.8913
   86MOL0     C11524   5.961   5.717   9.099  0.4939 -1.1520  0.5216
   86MOL0     N11525   5.753   6.147   9.600  0.6023 -0.3690 -1.0651
   86MOL0     N11526   5.644   6.135   9.675 -0.5021  0.4849  0.2225
   86MOL0     C11527   4.657   5.642  10.112 -0.5425 -0.6589 -1.3172
   86MOL0     C11528   4.536   5.663  10.177 -0.1583  0.5280 -0.4071
   86MOL0     C11529   4.134   5.523  10.375  0.3088  0.1435  0.3253
   86MOL0     C11530   4.032   5.562  10.278 -0.2535 -0.4143  0.6484
   86MOL0     C11531   3.895   5.560  10.301  0.0047 -0.3205  0.1232
   86MOL0     C11532   3.848   5.507  10.422 -1.0699 -0.6282  1.2241
   86MOL0     O11533   3.715   5.504  10.466  0.3720 -0.1006 -0.2282
   86MOL0     C11534   3.616   5.596  10.415 -0.1674 -0.2180 -0.2392
   86MOL0     C11535   3.473   5.576  10.469 -0.5075  0.7614  0.4780
   86MOL0     C11536   3.361   5.654  10.388 -0.6471  0.3753 -0.6901
   86MOL0     C11537   3.225   5.608  10.446 -1.0037  0.1729  0.2990
   86MOL0     C11538   3.116   5.635  10.347  0.0530  0.3787 -0.9736
   86MOL0     C11539   3.041   5.650  10.255  0.3532  0.2849 -0.5250
   86MOL0     C11540   3.942   5.441  10.497  0.0783 -0.1820  0.6236
   86MOL0     C11541   4.082   5.452  10.484 -0.2769  0.6128 -0.7450
   86MOL0     C11542   4.169   5.388  10.597  0.5044 -0.5243  0.3956
   86MOL0     H11543   4.398   5.352  10.092 -1.0341  0.6253  1.6112
   86MOL0     H11544   4.619   5.331   9.976 -1.6012 -2.8522  2.2050
   86MOL0     H11545   4.935   5.634  10.098 -1.5480  0.9951  0.2360
   86MOL0     H11546   4.882   5.470  10.154  0.8204  0.3150 -0.1314
   86MOL0     H11547   5.034   5.378   9.985 -1.7401  1.1404 -1.5325
   86MOL0     H11548   5.135   5.480  10.090 -0.5887  3.3543  0.9035
   86MOL0     H11549   5.089   5.692   9.927  0.7971  0.2112 -0.1534
   86MOL0     H11550   5.015   5.581   9.824 -0.4730 -3.4525 -0.2561
   86MOL0     H11551   5.300   5.497   9.904 -0.5796 -2.6762 -1.0204
   86MOL0     H11552   5.201   5.438   9.785 -0.0905 -0.9917 -0.5530
   86MOL0     H11553   5.331   5.573   9.650 -0.6161  0.3988 -1.5089
   86MOL0     H11554   5.179   5.661   9.681 -1.6627 -2.7291  0.8919
   86MOL0     H11555   5.254   5.803   9.820 -2.6361 -2.8187 -0.7669
   86MOL0     H11556   5.400   5.701   9.866  1.5424  1.3978 -0.5854
   86MOL0     H11557   5.375   5.848   9.608 -1.3801 -1.2703  0.9123
   86MOL0     H11558   5.503   5.744   9.635  3.4466  1.4740  0.3831
   86MOL0     H11559   5.435   6.016   9.782  0.8342  1.7407  0.3025
   86MOL0     H11560   5.560   5.901   9.840 -0.8414 -1.1033 -1.3936
   86MOL0     H11561   5.709   5.829   9.568 -2.9480  0.1574 -1.1346
   86MOL0     H11562   5.951   6.083   9.437 -0.4481  0.5873  0.8076
   86MOL0     H11563   5.904   5.909   9.416  3.8900  1.7020 -1.2456
   86MOL0     H11564   5.744   5.941   9.258  0.5393 -0.4213  0.4923
   86MOL0     H11565   5.736   6.117   9.284 -2.3263 -2.4166  2.8948
   86MOL0     H11566   5.997   5.965   9.198  1.9936 -0.5618 -2.3953
   86MOL0     H11567   5.946   6.138   9.179 -2.1880 -0.3607 -0.5200
   86MOL0     H11568   5.930   6.037   8.939  1.0910  2.7974  0.7016
   86MOL0     H11569   5.783   6.084   9.005  0.8344 -0.3611 -2.1031
   86MOL0     H11570   5.850   5.759   8.781  0.6306 -0.7560 -0.1319
   86MOL0     H11571   6.014   5.585   8.749 -2.3162 -1.4202 -0.5117
   86MOL0     H11572   6.448   5.334   8.890  0.6404  1.1994 -2.1774
   86MOL0     H11573   6.552   5.144   8.831 -0.3448  1.8109  0.5938
   86MOL0     H11574   6.628   5.067   8.606 -1.1693  1.1726  2.2015
   86MOL0     H11575   6.662   4.970   8.750 -1.5367 -2.3948  1.0955
   86MOL0     H11576   6.654   4.885   8.461  0.5719 -0.1244 -0.7173
   86MOL0     H11577   6.789   4.889   8.560  0.7364 -0.1317  4.6851
   86MOL0     H11578   6.692   4.689   8.702 -0.6647 -0.2329 -0.4128
   86MOL0     H11579   6.546   4.705   8.614 -0.8341  3.1769 -2.1424
   86MOL0     H11580   6.836   4.639   8.509 -0.9384 -0.3178  0.1368
   86MOL0     H11581   6.691   4.664   8.400  0.8519 -0.7755 -1.0807
   86MOL0     H11582   6.734   4.442   8.416 -1.0656 -0.8193  0.8095
   86MOL0     H11583   6.585   4.475   8.513  0.2934 -0.1927 -0.5396
   86MOL0     H11584   6.878   4.416   8.620  1.4429  0.4594  0.4007
   86MOL0     H11585   6.738   4.467   8.716  1.8160 -0.4927  0.4525
   86MOL0     H11586   6.759   4.207   8.541  1.3795  1.1136  0.1603
   86MOL0     H11587   6.624   4.238   8.636  0.5231  0.4393 -2.8096
   86MOL0     H11588   6.895   4.194   8.757 -0.8967  0.8683 -0.9866
   86MOL0     H11589   6.754   4.254   8.842  3.8373  0.6679  1.1064
   86MOL0     H11590   6.204   5.009   8.608 -1.5091  1.4244  0.1501
   86MOL0     H11591   6.086   5.216   8.685 -0.4637  0.3336  0.2999
   86MOL0     H11592   6.095   5.579   9.177 -1.4129  0.7008  1.7266
   86MOL0     H11593   5.947   5.754   9.200  1.5978 -1.7306  0.9141
   86MOL0     H11594   4.728   5.723  10.124  0.8638 -2.0441  0.2663
   86MOL0     H11595   4.511   5.757  10.225 -0.2102  0.3312 -0.0483
   86MOL0     H11596   4.076   5.614  10.194  1.6756 -0.4145  1.5925
   86MOL0     H11597   3.832   5.604  10.224  0.6608  1.8540  0.7463
   86MOL0     H11598   3.617   5.572  10.308  1.5931 -1.1813 -0.0485
   86MOL0     H11599   3.648   5.697  10.440  0.6270 -0.6064  0.3336
   86MOL0     H11600   3.473   5.622  10.569  4.6417  1.1911  0.5874
   86MOL0     H11601   3.450   5.470  10.482  1.7535  0.4400  2.8993
   86MOL0     H11602   3.373   5.614  10.287  0.3347 -1.9002  0.2632
   86MOL0     H11603   3.371   5.763  10.397  1.2887  0.2602 -1.0118
   86MOL0     H11604   3.221   5.504  10.480  1.4873 -0.6265 -1.5553
   86MOL0     H11605   3.208   5.675  10.531 -0.3593 -1.7189  1.9917
   86MOL0     H11606   2.971   5.676  10.178  0.6232  1.3566 -0.4196
   86MOL0     H11607   3.907   5.383  10.582 -0.2203  0.4737  0.9624
   86MOL0     H11608   4.105   5.327  10.662  0.7548 -1.3806 -0.1357
   86MOL0     H11609   4.235   5.310  10.557 -0.4606 -0.5201 -1.3152
   86MOL0     H11610   4.224   5.461  10.657 -1.3808 -0.2558  1.8710
   87MOL0     O11611   6.929   3.651   3.691 -0.0853  0.1407  0.1049
   87MOL0     C11612   6.847   3.712   3.760  0.6962  0.3552  0.8643
   87MOL0     O11613   6.844   3.850   3.774  0.4727  0.0130 -0.5810
   87MOL0     C11614   6.922   3.920   3.692  0.2885  0.2008 -0.1525
   87MOL0     C11615   6.859   3.982   3.585  0.5622  0.6036  1.0222
   87MOL0     C11616   6.931   4.038   3.469 -0.3552  0.2390 -0.1622
   87MOL0     C11617   7.072   4.035   3.476 -0.9265  0.0643  0.0613
   87MOL0     O11618   7.149   4.098   3.377  0.4359 -0.7367 -0.0889
   87MOL0     C11619   7.074   4.133   3.262  0.9134 -0.0978 -0.2997
   87MOL0     C11620   7.169   4.182   3.147 -0.1585  0.1369 -1.0975
   87MOL0     C11621   7.082   4.222   3.021  0.7678  0.0671  0.1313
   87MOL0     C11622   7.179   4.282   2.914 -0.4747 -0.6585  0.6081
   87MOL0     C11623   7.128   4.303   2.771  0.1609  0.2435  0.4216
   87MOL0     C11624   7.025   4.201   2.716 -0.1550 -0.4335 -0.6497
   87MOL0     C11625   7.008   4.240   2.573 -0.2259  1.1084 -0.2415
   87MOL0     C11626   6.870   4.198   2.537  0.0485 -0.0809  0.1094
   87MOL0     N11627   6.842   4.210   2.394 -0.8780 -0.0487  0.3905
   87MOL0     C11628   6.751   4.124   2.342  0.3401  0.6409  0.2685
   87MOL0     C11629   6.708   4.178   2.223  0.0698 -0.1696 -0.2738
   87MOL0     C11630   6.593   4.122   2.135  0.2797  0.1520 -0.6296
   87MOL0     C11631   6.463   4.199   2.138  0.5353  0.0269  1.1322
   87MOL0     C11632   6.412   4.218   2.276  0.7695 -0.0127  0.4517
   87MOL0     C11633   6.347   4.087   2.325  1.1294  0.6284 -1.0024
   87MOL0     O11634   6.271   4.006   2.237 -0.4790  0.9848 -0.1288
   87MOL0     C11635   6.275   3.867   2.235 -0.3563  0.2950 -0.5235
   87MOL0     C11636   6.232   3.804   2.120 -0.4163 -0.2283  0.3312
   87MOL0     C11637   6.230   3.660   2.124 -0.0339 -0.9943 -0.4841
   87MOL0     C11638   6.269   3.588   2.238 -1.1707  1.2282 -0.5263
   87MOL0     C11639   6.274   3.439   2.237 -0.3488 -0.3383  1.1918
   87MOL0     O11640   6.358   3.382   2.330 -0.6439 -0.3175 -0.4088
   87MOL0     C11641   6.388   3.249   2.335  0.0585 -1.1054  0.4112
   87MOL0     C11642   6.523   3.201   2.353 -0.1790  0.4224  0.6038
   87MOL0     C11643   6.553   3.064   2.348 -0.6110 -0.5457 -0.0662
   87MOL0     C11644   6.449   2.973   2.341  0.1664  0.5806 -0.2692
   87MOL0     O11645   6.486   2.843   2.324  0.3962  0.5695  0.0682
   87MOL0     C11646   6.408   2.764   2.230 -0.1235 -0.2445 -0.3570
   87MOL0     C11647   6.473   2.633   2.187 -0.0328  1.1484  0.2009
   87MOL0     C11648   6.389   2.559   2.089  0.6381  0.2134  0.0826
   87MOL0     C11649   6.472   2.432   2.040  0.5436 -0.3506 -0.1210
   87MOL0     C11650   6.402   2.359   1.930 -0.0468  0.6774  0.6379
   87MOL0     C11651   6.282   2.271   1.983 -0.3623  0.9812  1.1126
   87MOL0     C11652   6.251   2.168   1.868  0.5677 -0.5903  0.3215
   87MOL0     C11653   6.114   2.087   1.884 -0.3731  0.6273  1.2832
   87MOL0    Cl11654   6.110   1.955   1.757 -0.1487  0.2985  0.5114
   87MOL0     C11655   6.319   3.010   2.332 -0.3088  0.1815  0.0746
   87MOL0     C11656   6.283   3.149   2.321 -0.6971  0.8279  0.2762
   87MOL0     O11657   6.234   3.388   2.137  0.2287  1.3393 -0.0267
   87MOL0     C11658   6.303   3.657   2.358 -0.2349 -0.5272 -0.0104
   87MOL0     C11659   6.301   3.799   2.353 -0.6121  0.8732 -0.7806
   87MOL0     N11660   6.783   4.294   2.212  0.3246 -0.1049 -0.3582
   87MOL0     N11661   6.867   4.311   2.307 -0.2428 -0.7458 -0.2485
   87MOL0     C11662   7.136   3.971   3.593  0.3861  0.0393  0.5357
   87MOL0     C11663   7.059   3.914   3.697 -0.6673  0.2864 -0.2742
   87MOL0     C11664   6.741   3.632   3.819 -0.7039  1.0692  0.4956
   87MOL0     C11665   6.677   3.677   3.928  0.4703 -0.5827 -1.3666
   87MOL0     C11666   6.583   3.600   4.000 -0.4709 -0.2621 -1.1323
   87MOL0     C11667   6.559   3.468   3.976 -0.6609 -0.3312  0.5691
   87MOL0     O11668   6.465   3.401   4.047 -0.4175  0.2692  0.1641
   87MOL0     C11669   6.489   3.262   4.059  0.0899 -1.3068 -0.2043
   87MOL0     C11670   6.387   3.218   4.162 -0.3085 -0.0415 -0.3508
   87MOL0     C11671   6.421   3.074   4.190 -1.2884 -0.0825  0.7942
   87MOL0     C11672   6.323   3.010   4.291 -0.3767  0.6844  0.0607
   87MOL0     C11673   6.350   3.024   4.434  0.3764 -0.0619  0.1585
   87MOL0     C11674   6.390   3.038   4.548 -0.8053 -0.3527  0.4336
   87MOL0     C11675   6.609   3.416   3.851 -0.6112  0.8796 -0.8425
   87MOL0     C11676   6.702   3.496   3.777 -0.6914 -0.2454 -0.0084
   87MOL0     C11677   6.742   3.431   3.642  0.1971 -0.0582 -0.6586
   87MOL0     H11678   6.751   3.983   3.585  0.2437 -4.8525  0.2813
   87MOL0     H11679   6.859   4.072   3.395 -4.4412  1.9530  4.1634
   87MOL0     H11680   7.027   4.049   3.211  2.4779  0.7432 -3.3979
   87MOL0     H11681   6.992   4.197   3.294  0.8493 -1.3244  2.2356
   87MOL0     H11682   7.242   4.102   3.130  2.5459  2.2656 -0.2943
   87MOL0     H11683   7.230   4.265   3.184  1.4168 -0.4403 -2.3115
   87MOL0     H11684   7.012   4.299   3.056  1.3991  0.0620  1.4718
   87MOL0     H11685   7.022   4.137   2.988  0.6523 -1.5516  3.9267
   87MOL0     H11686   7.224   4.374   2.953 -0.7717 -0.0966 -0.3519
   87MOL0     H11687   7.259   4.207   2.913 -1.5278 -1.8021 -0.2598
   87MOL0     H11688   7.081   4.402   2.777 -2.0830 -0.8409  2.2840
   87MOL0     H11689   7.217   4.305   2.708  1.0490  0.4362  1.6508
   87MOL0     H11690   7.070   4.101   2.717 -0.2206 -0.4606 -0.4235
   87MOL0     H11691   6.937   4.220   2.777  0.0146  0.1266 -0.5751
   87MOL0     H11692   7.070   4.184   2.502 -0.1497 -2.3946  2.3110
   87MOL0     H11693   7.023   4.348   2.563 -0.5684  1.0659 -1.4189
   87MOL0     H11694   6.853   4.092   2.561 -2.2325 -0.2062 -1.7507
   87MOL0     H11695   6.803   4.256   2.601 -0.6855 -2.0930  1.2729
   87MOL0     H11696   6.696   4.041   2.386  0.0357  2.4224  3.5164
   87MOL0     H11697   6.632   4.118   2.033 -0.5512 -0.3326 -0.9406
   87MOL0     H11698   6.572   4.021   2.170  2.5072 -1.8095 -4.3932
   87MOL0     H11699   6.476   4.296   2.089 -1.8288  0.6937  1.6940
   87MOL0     H11700   6.393   4.154   2.068  4.4948 -0.5161 -2.9744
   87MOL0     H11701   6.332   4.293   2.276  1.7776  1.0892  0.4275
   87MOL0     H11702   6.494   4.258   2.336  2.4545 -3.6742  0.8133
   87MOL0     H11703   6.282   4.124   2.405 -0.5809  0.1342 -2.1112
   87MOL0     H11704   6.429   4.031   2.370 -0.2212  0.3257  1.2524
   87MOL0     H11705   6.211   3.868   2.035  1.7853  0.9050  0.5667
   87MOL0     H11706   6.181   3.608   2.042  0.4005 -2.1467 -0.0367
   87MOL0     H11707   6.600   3.277   2.348  0.1537  0.0883  0.6097
   87MOL0     H11708   6.657   3.033   2.343 -0.3273  0.5094 -1.7193
   87MOL0     H11709   6.308   2.761   2.274 -0.3518  1.5161 -0.6839
   87MOL0     H11710   6.399   2.817   2.135 -2.1348 -2.1842 -1.3556
   87MOL0     H11711   6.572   2.663   2.151 -0.7518  3.5732  0.0479
   87MOL0     H11712   6.477   2.571   2.277  0.2565  0.1919 -0.4542
   87MOL0     H11713   6.296   2.529   2.139  0.0306  0.5030 -0.8407
   87MOL0     H11714   6.365   2.622   2.003  1.8604  0.2777 -0.2323
   87MOL0     H11715   6.478   2.362   2.124 -1.0901 -1.3941 -0.8180
   87MOL0     H11716   6.576   2.455   2.016  1.2510 -3.0920  0.0044
   87MOL0     H11717   6.480   2.292   1.893 -0.6783  0.2307  0.0806
   87MOL0     H11718   6.368   2.417   1.843  1.1110 -3.1974 -2.6702
   87MOL0     H11719   6.304   2.219   2.076 -1.1275  0.2641  0.9092
   87MOL0     H11720   6.193   2.332   2.000 -0.0854  1.7565 -0.0195
   87MOL0     H11721   6.322   2.084   1.863 -1.4686 -2.3327 -1.4094
   87MOL0     H11722   6.233   2.216   1.772  1.0331 -0.7026  0.1746
   87MOL0     H11723   6.101   2.042   1.982 -0.8679  0.8926  1.3395
   87MOL0     H11724   6.034   2.158   1.863 -1.4860 -0.7094  0.8813
   87MOL0     H11725   6.231   2.946   2.329 -0.8705  0.9582 -3.2366
   87MOL0     H11726   6.184   3.189   2.304 -0.5487 -0.0595 -3.5958
   87MOL0     H11727   6.332   3.606   2.450  0.2600  0.3438  0.3198
   87MOL0     H11728   6.325   3.853   2.444  0.9096  0.6692 -1.0221
   87MOL0     H11729   7.243   3.949   3.587  0.0775 -1.1907 -1.7116
   87MOL0     H11730   7.094   3.853   3.779 -0.1909 -0.6677 -1.1628
   87MOL0     H11731   6.699   3.776   3.966  0.8355 -1.1074 -0.1823
   87MOL0     H11732   6.527   3.638   4.085 -1.5163 -0.4265 -1.7373
   87MOL0     H11733   6.592   3.248   4.092 -0.5547 -1.5540  1.8788
   87MOL0     H11734   6.474   3.214   3.962 -0.2870 -1.9291  0.1556
   87MOL0     H11735   6.280   3.233   4.147 -0.6938 -0.8466  1.3249
   87MOL0     H11736   6.407   3.277   4.252 -1.4364  1.9603 -1.3440
   87MOL0     H11737   6.523   3.068   4.229  0.9394 -0.5011 -4.2966
   87MOL0     H11738   6.409   3.017   4.097 -0.7229 -0.1284  0.7445
   87MOL0     H11739   6.231   3.050   4.246  0.4022  1.8251 -0.5533
   87MOL0     H11740   6.327   2.902   4.274 -1.8814  0.7423 -0.8773
   87MOL0     H11741   6.438   3.048   4.643 -0.6393  2.8509  0.0974
   87MOL0     H11742   6.584   3.318   3.813  1.3206  0.5232 -1.2900
   87MOL0     H11743   6.817   3.481   3.580 -0.3924  1.0067 -0.5494
   87MOL0     H11744   6.779   3.330   3.662 -1.7862 -0.8735 -0.8488
   87MOL0     H11745   6.649   3.420   3.585 -2.1845 -2.8593  3.2952
   88MOL0     O11746   3.789   3.557  10.819  0.5517 -0.1300  0.2504
   88MOL0     C11747   3.734   3.553  10.706  0.3409 -0.1776  0.9466
   88MOL0     O11748   3.788   3.590  10.584  0.1441  0.0024 -1.0300
   88MOL0     C11749   3.918   3.629  10.564 -0.0140 -0.1302  0.2720
   88MOL0     C11750   3.951   3.693  10.451 -0.4203 -0.0904 -0.4101
   88MOL0     C11751   4.081   3.737  10.426 -0.2187  0.7761  0.8035
   88MOL0     C11752   4.187   3.706  10.510  0.7327 -0.3795 -0.4973
   88MOL0     O11753   4.321   3.735  10.475  0.5362 -0.6154 -0.6444
   88MOL0     C11754   4.432   3.655  10.519 -0.5067 -0.4596  0.4893
   88MOL0     C11755   4.529   3.711  10.625  0.3112 -0.7270  0.7149
   88MOL0     C11756   4.531   3.861  10.632  0.3135 -0.0475  0.4075
   88MOL0     C11757   4.645   3.915  10.722 -0.0549 -0.4559  0.1546
   88MOL0     C11758   4.611   3.902  10.873  0.8769 -0.2717  0.1677
   88MOL0     C11759   4.739   3.920  10.964  0.1181 -0.4804  0.1299
   88MOL0     C11760   4.716   3.887  11.115 -0.0888 -0.5927  0.1683
   88MOL0     C11761   4.854   3.892  11.191 -0.0272  0.2697  0.7628
   88MOL0     N11762   4.816   3.888  11.337  0.8338  0.0874 -0.2074
   88MOL0     C11763   4.721   3.811  11.395  1.1190 -0.2246 -0.8117
   88MOL0     C11764   4.696   3.854  11.521 -0.3031 -0.5542 -0.2378
   88MOL0     C11765   4.607   3.794  11.624  0.0891 -0.0387 -0.3608
   88MOL0     C11766   4.678   3.685  11.702 -0.4847 -0.2832  0.2729
   88MOL0     C11767   4.705   3.551  11.623  0.2835  0.5111 -0.7553
   88MOL0     C11768   4.759   3.452  11.732  0.5251  0.1317 -0.0945
   88MOL0     O11769   4.765   3.319  11.675  0.3459 -0.1330 -0.0888
   88MOL0     C11770   4.890   3.267  11.641 -0.5449 -0.6174 -0.5992
   88MOL0     C11771   4.901   3.131  11.634  0.4171 -0.0277 -1.0168
   88MOL0     C11772   5.023   3.074  11.586 -0.8258  0.8286 -0.2597
   88MOL0     C11773   5.135   3.151  11.544  0.8644  0.4319  0.4415
   88MOL0     C11774   5.263   3.091  11.511  1.0203 -0.1876  0.6091
   88MOL0     O11775   5.264   2.953  11.497  0.6205 -0.0196 -0.6302
   88MOL0     C11776   5.377   2.877  11.487  0.1118 -0.2905 -0.2266
   88MOL0     C11777   5.473   2.912  11.386 -0.6767  1.4720 -1.0884
   88MOL0     C11778   5.593   2.843  11.374  0.5013  0.0109  0.8281
   88MOL0     C11779   5.618   2.724  11.442 -0.6810 -1.3785 -0.8468
   88MOL0     O11780   5.738   2.658  11.431 -0.8749  0.6195  0.1183
   88MOL0     C11781   5.757   2.542  11.510 -0.0519  0.5276  0.5383
   88MOL0     C11782   5.905   2.493  11.487 -1.1636 -0.1564 -0.1716
   88MOL0     C11783   5.920   2.443  11.343  0.6191 -0.3680 -1.0855
   88MOL0     C11784   6.066   2.407  11.304  0.5127 -0.0229  0.2388
   88MOL0     C11785   6.078   2.381  11.154 -1.1021  0.8108  0.3576
   88MOL0     C11786   6.225   2.339  11.121 -1.4482 -0.9276 -0.1319
   88MOL0     C11787   6.253   2.184  11.116  0.2283 -0.7458  0.9513
   88MOL0     C11788   6.206   2.139  10.976 -0.1163 -0.1712 -0.2234
   88MOL0    Cl11789   6.335   2.197  10.874  0.1828 -0.3705  0.2998
   88MOL0     C11790   5.514   2.680  11.528 -0.4572 -0.4946 -0.3231
   88MOL0     C11791   5.402   2.763  11.556 -0.2763  0.2841 -0.1474
   88MOL0     O11792   5.364   3.163  11.504 -0.2736 -0.4895  0.2715
   88MOL0     C11793   5.122   3.286  11.558 -0.1288 -0.7257  0.0645
   88MOL0     C11794   4.999   3.342  11.602  1.2006  0.2158 -0.0505
   88MOL0     N11795   4.779   3.962  11.537 -0.1868  0.5639 -0.3880
   88MOL0     N11796   4.846   3.979  11.432  0.3675 -0.1477 -0.5018
   88MOL0     C11797   4.153   3.645  10.625  0.6232 -0.4982 -0.5039
   88MOL0     C11798   4.024   3.591  10.651 -0.4214 -0.4748 -0.7196
   88MOL0     C11799   3.590   3.509  10.698 -0.6412 -0.1385 -0.3386
   88MOL0     C11800   3.526   3.474  10.818 -0.1501  0.6839  1.1760
   88MOL0     C11801   3.394   3.421  10.828 -0.1481 -1.0064 -0.2118
   88MOL0     C11802   3.327   3.399  10.711  1.1719 -0.3007  0.5929
   88MOL0     O11803   3.203   3.349  10.726 -0.3899  0.9215  0.1422
   88MOL0     C11804   3.131   3.294  10.606 -0.0106  0.4951  0.0750
   88MOL0     C11805   2.990   3.255  10.642  0.4629  0.1595 -0.6039
   88MOL0     C11806   2.921   3.346  10.735 -0.2818 -0.2154 -0.8879
   88MOL0     C11807   2.769   3.380  10.709 -0.3510 -0.0773  0.4859
   88MOL0     C11808   2.753   3.473  10.595  0.3234  0.0981 -0.1872
   88MOL0     C11809   2.738   3.553  10.506 -0.5237  0.1519  0.5746
   88MOL0     C11810   3.384   3.451  10.589  0.5933 -0.0594 -0.1944
   88MOL0     C11811   3.509   3.515  10.581  0.7153  0.2688 -0.9820
   88MOL0     C11812   3.539   3.586  10.452  0.1929 -0.1675  0.4963
   88MOL0     H11813   3.872   3.711  10.379  0.4336 -0.3034 -1.4119
   88MOL0     H11814   4.087   3.794  10.334 -1.0031 -1.9787 -1.1060
   88MOL0     H11815   4.395   3.564  10.567  1.0971 -0.8206  1.0881
   88MOL0     H11816   4.494   3.627  10.433 -0.1312 -1.6753  1.1426
   88MOL0     H11817   4.623   3.661  10.602 -0.9437 -2.7680 -0.2935
   88MOL0     H11818   4.501   3.680  10.727  2.6251 -2.2200  0.9612
   88MOL0     H11819   4.435   3.905  10.661  1.3954  1.4579  1.9065
   88MOL0     H11820   4.558   3.897  10.532 -0.3488  2.6546  1.1044
   88MOL0     H11821   4.739   3.861  10.710  1.0527  1.3868  0.2258
   88MOL0     H11822   4.670   4.016  10.689  0.5040 -1.7442 -3.9630
   88MOL0     H11823   4.539   3.978  10.904  0.3189 -1.2448  1.3736
   88MOL0     H11824   4.564   3.804  10.886 -0.5384  0.5904  1.9761
   88MOL0     H11825   4.818   3.854  10.929 -0.4721  0.4986 -3.4274
   88MOL0     H11826   4.766   4.024  10.943 -2.5932  0.4273  0.6048
   88MOL0     H11827   4.658   3.795  11.127 -1.9898  0.3505 -1.1627
   88MOL0     H11828   4.654   3.973  11.144 -2.4127 -2.1182 -0.0440
   88MOL0     H11829   4.912   3.803  11.162 -1.7205 -0.0975 -1.7828
   88MOL0     H11830   4.902   3.988  11.170  0.6796 -0.0440  0.8958
   88MOL0     H11831   4.664   3.735  11.343 -0.8855  0.5960  0.0980
   88MOL0     H11832   4.577   3.864  11.703  0.0336 -0.9513  0.4417
   88MOL0     H11833   4.511   3.764  11.580 -0.5941  1.1391  0.2531
   88MOL0     H11834   4.773   3.725  11.739 -0.4197 -0.0977 -0.0896
   88MOL0     H11835   4.619   3.675  11.794  0.6674 -0.8565  0.9777
   88MOL0     H11836   4.787   3.570  11.553  1.5902 -2.7195 -0.3026
   88MOL0     H11837   4.623   3.517  11.559  0.1382  1.3251 -1.0032
   88MOL0     H11838   4.688   3.456  11.816 -1.3649  1.7006 -1.6553
   88MOL0     H11839   4.854   3.479  11.778 -0.3573 -0.6460  2.3508
   88MOL0     H11840   4.816   3.066  11.652 -1.0860  1.4236 -2.6064
   88MOL0     H11841   5.026   2.966  11.595  0.0083  0.5811 -2.8041
   88MOL0     H11842   5.450   3.004  11.333 -1.4057  2.5628  1.0040
   88MOL0     H11843   5.660   2.872  11.294 -0.8640 -0.0864 -0.4002
   88MOL0     H11844   5.756   2.564  11.618  2.0299  1.1820  0.4642
   88MOL0     H11845   5.686   2.461  11.494 -0.5507  1.0373  0.1330
   88MOL0     H11846   5.968   2.579  11.511  1.3722 -1.0870 -2.7775
   88MOL0     H11847   5.919   2.415  11.563 -3.4359 -1.2582 -0.8093
   88MOL0     H11848   5.860   2.353  11.325  0.4462 -0.9796  1.9763
   88MOL0     H11849   5.881   2.520  11.276  1.8345 -1.1314 -2.7322
   88MOL0     H11850   6.082   2.318  11.365 -0.0929 -1.7281 -1.9867
   88MOL0     H11851   6.141   2.475  11.345  2.0436 -2.0228  0.8848
   88MOL0     H11852   6.059   2.474  11.100 -1.0401  0.2693 -0.6344
   88MOL0     H11853   6.004   2.309  11.115  0.9836  0.0171 -2.5322
   88MOL0     H11854   6.255   2.378  11.024  0.3123  0.2713  0.8307
   88MOL0     H11855   6.297   2.385  11.190  1.4699 -1.6684 -2.4458
   88MOL0     H11856   6.192   2.128  11.188 -1.9581  0.4777  0.1478
   88MOL0     H11857   6.361   2.171  11.124  0.8555  1.7248 -1.8031
   88MOL0     H11858   6.208   2.032  10.957 -1.5019 -0.4928  1.3130
   88MOL0     H11859   6.108   2.176  10.946  0.6334 -0.5914 -3.6926
   88MOL0     H11860   5.529   2.581  11.570  4.4100 -0.7573 -2.0878
   88MOL0     H11861   5.330   2.731  11.631 -2.4592 -0.3878 -2.3819
   88MOL0     H11862   5.201   3.348  11.516  0.5936 -0.5410  1.6296
   88MOL0     H11863   4.985   3.449  11.610  0.0137  0.0324  0.5497
   88MOL0     H11864   4.235   3.623  10.693 -0.6112  0.0591  1.2355
   88MOL0     H11865   4.012   3.536  10.745 -3.0221  0.3474 -0.4880
   88MOL0     H11866   3.584   3.501  10.906  1.1236  2.2033 -0.0609
   88MOL0     H11867   3.361   3.378  10.922  0.1010 -1.5464 -0.3700
   88MOL0     H11868   3.183   3.213  10.553  0.5193  1.0825 -0.3125
   88MOL0     H11869   3.130   3.368  10.525 -0.2342 -1.6174 -1.9732
   88MOL0     H11870   2.994   3.160  10.697  0.7560  1.1721  1.1886
   88MOL0     H11871   2.933   3.242  10.550  4.2258 -3.7551 -2.7470
   88MOL0     H11872   2.972   3.443  10.742 -4.5952  2.1192  3.4663
   88MOL0     H11873   2.932   3.305  10.835 -0.9011  0.9162 -0.3367
   88MOL0     H11874   2.719   3.287  10.680  0.7436 -0.4163 -0.4038
   88MOL0     H11875   2.725   3.418  10.801  2.3011  1.3136  1.2697
   88MOL0     H11876   2.712   3.627  10.433 -0.4551 -0.9196 -0.5584
   88MOL0     H11877   3.315   3.459  10.505  1.7257  2.3344 -0.9917
   88MOL0     H11878   3.587   3.684  10.462  1.1629 -0.8613  5.1175
   88MOL0     H11879   3.594   3.510  10.396 -0.7271 -1.7502  1.6679
   88MOL0     H11880   3.449   3.606  10.393  1.3820  2.2472 -0.6404
   89MOL0     O11881   4.290  11.147  10.483 -1.0537  0.4077  0.3546
   89MOL0     C11882   4.342  11.053  10.422  1.0054  0.0726  0.9901
   89MOL0     O11883   4.278  10.934  10.402  0.6256 -0.3017 -0.1694
   89MOL0     C11884   4.176  10.898  10.488 -0.1720  0.9238  0.2001
   89MOL0     C11885   4.049  10.884  10.438  0.5430 -0.5478 -0.5746
   89MOL0     C11886   3.936  10.839  10.519  0.2925  0.4974 -0.0577
   89MOL0     C11887   3.966  10.811  10.655  0.0709  0.9691  0.9500
   89MOL0     O11888   3.862  10.785  10.736 -0.7505  0.6067 -0.2772
   89MOL0     C11889   3.827  10.645  10.732 -0.1306 -0.1261 -0.8148
   89MOL0     C11890   3.809  10.607  10.880  0.1527  0.9368  0.2531
   89MOL0     C11891   3.820  10.449  10.900 -0.2664  0.3295  0.3548
   89MOL0     C11892   3.791  10.407  11.043  0.3653 -0.2956 -0.4172
   89MOL0     C11893   3.885  10.454  11.161  1.0937  0.0621  0.3846
   89MOL0     C11894   3.833  10.453  11.303  0.4827  0.3895  0.2500
   89MOL0     C11895   3.938  10.499  11.410  0.6513  0.7150 -0.5385
   89MOL0     C11896   3.913  10.434  11.541  0.5580 -0.2139  0.2683
   89MOL0     N11897   3.783  10.446  11.611  0.3553  0.2654  0.7087
   89MOL0     C11898   3.737  10.354  11.696  0.9922  0.1701 -0.6275
   89MOL0     C11899   3.636  10.418  11.757  1.1315 -0.2495 -0.5476
   89MOL0     C11900   3.567  10.356  11.878  0.3196  0.0159  0.4592
   89MOL0     C11901   3.664  10.284  11.981 -0.5327  0.3784  0.0224
   89MOL0     C11902   3.600  10.198  12.074 -0.8818 -0.3464  0.2993
   89MOL0     C11903   3.493  10.264  12.155 -0.1866  0.2034  0.6966
   89MOL0     O11904   3.542  10.349  12.259 -0.8301  0.0448 -0.4007
   89MOL0     C11905   3.482  10.471  12.287  0.1565  0.3433  0.6265
   89MOL0     C11906   3.439  10.556  12.189 -0.3332  0.0386  0.2452
   89MOL0     C11907   3.366  10.669  12.221  1.0079  0.2005 -0.5724
   89MOL0     C11908   3.343  10.698  12.360  0.8451 -0.7926  0.3494
   89MOL0     C11909   3.270  10.825  12.393 -0.3072 -0.2597 -0.1257
   89MOL0     O11910   3.263  10.924  12.306  0.0239 -0.1130 -0.6868
   89MOL0     C11911   3.184  11.036  12.322 -0.1064 -0.2108 -0.3013
   89MOL0     C11912   3.176  11.130  12.216 -0.3893 -0.5282  0.3391
   89MOL0     C11913   3.112  11.255  12.226 -0.2175 -0.1168 -0.7592
   89MOL0     C11914   3.034  11.285  12.343  0.7848  0.7857  0.9223
   89MOL0     O11915   2.939  11.390  12.352 -0.1743  0.2217 -0.3572
   89MOL0     C11916   2.852  11.405  12.239 -0.0025  0.2428 -0.1176
   89MOL0     C11917   2.759  11.521  12.247 -0.2029  0.0529  0.0708
   89MOL0     C11918   2.643  11.538  12.150 -0.2372  0.1684  0.7587
   89MOL0     C11919   2.700  11.601  12.023  0.3939 -0.1162 -0.2390
   89MOL0     C11920   2.583  11.621  11.924 -0.7883  0.2545  1.3344
   89MOL0     C11921   2.543  11.489  11.873 -0.4139 -0.7386  0.7422
   89MOL0     C11922   2.437  11.516  11.757 -0.2921 -0.6458 -0.9111
   89MOL0     C11923   2.333  11.406  11.723  0.0921 -0.2189  0.3335
   89MOL0    Cl11924   2.244  11.344  11.869 -0.0534 -0.1823 -0.2640
   89MOL0     C11925   3.041  11.195  12.444 -0.3606  0.3657 -0.2496
   89MOL0     C11926   3.117  11.079  12.439 -0.0522 -0.0709 -0.5166
   89MOL0     O11927   3.222  10.826  12.507 -0.1559  0.2672 -0.3954
   89MOL0     C11928   3.400  10.610  12.463  0.4994 -0.3630  0.6214
   89MOL0     C11929   3.474  10.500  12.420 -0.2739  0.0814 -0.0509
   89MOL0     N11930   3.607  10.529  11.691  0.1548  0.3106 -0.2392
   89MOL0     N11931   3.697  10.551  11.601 -0.2448  0.5784  0.0343
   89MOL0     C11932   4.104  10.801  10.701 -1.1840  1.2242  0.1477
   89MOL0     C11933   4.207  10.842  10.617 -0.0818 -0.7361 -1.4422
   89MOL0     C11934   4.474  11.067  10.359 -0.0617 -0.9405  0.5126
   89MOL0     C11935   4.531  11.205  10.340 -0.2334 -0.2541 -0.1697
   89MOL0     C11936   4.656  11.216  10.282  0.7591  0.2492 -0.0434
   89MOL0     C11937   4.731  11.105  10.237 -1.0554 -0.0615 -0.1504
   89MOL0     O11938   4.860  11.132  10.185 -0.1990  0.5483 -0.0733
   89MOL0     C11939   4.926  11.038  10.106  0.0992  0.5209  1.4359
   89MOL0     C11940   4.855  11.030   9.970 -0.1535 -0.5124  0.5570
   89MOL0     C11941   4.910  10.907   9.901 -0.6672  0.0911  0.2797
   89MOL0     C11942   4.869  10.898   9.752  0.3374  0.1860  0.1201
   89MOL0     C11943   4.753  10.814   9.736  0.1157 -0.6952  0.0649
   89MOL0     C11944   4.645  10.761   9.715 -0.1378  0.4042 -0.0116
   89MOL0     C11945   4.673  10.977  10.245  0.0892  0.5260  0.4218
   89MOL0     C11946   4.545  10.957  10.297  0.3216 -0.3095  0.2790
   89MOL0     C11947   4.495  10.808  10.291  0.3059  0.6607  1.1336
   89MOL0     H11948   4.032  10.916  10.336 -1.0577 -0.3136 -0.2666
   89MOL0     H11949   3.830  10.845  10.495  0.6220  0.3444 -1.6493
   89MOL0     H11950   3.732  10.638  10.679 -0.4929 -1.5352 -0.0333
   89MOL0     H11951   3.899  10.580  10.681 -1.2406 -0.5755 -1.8483
   89MOL0     H11952   3.715  10.635  10.928 -1.0801 -2.6079  0.2137
   89MOL0     H11953   3.892  10.657  10.931  2.8606 -0.2825 -2.6775
   89MOL0     H11954   3.921  10.419  10.873  0.0581  0.2667  1.5789
   89MOL0     H11955   3.749  10.396  10.835 -2.1933 -0.4252  2.9164
   89MOL0     H11956   3.688  10.437  11.066  0.0867  0.5177 -2.5355
   89MOL0     H11957   3.794  10.297  11.046 -2.7940 -0.4867 -0.4347
   89MOL0     H11958   3.975  10.391  11.150 -0.8333 -2.6379 -1.0903
   89MOL0     H11959   3.913  10.559  11.154 -1.1466  0.9962  3.3347
   89MOL0     H11960   3.743  10.515  11.312  1.0798  1.0560  1.9449
   89MOL0     H11961   3.797  10.353  11.326 -1.1225  1.2142  1.5197
   89MOL0     H11962   3.934  10.607  11.425  1.0064  0.7578 -0.7555
   89MOL0     H11963   4.040  10.468  11.385 -0.0183 -0.6086 -1.7797
   89MOL0     H11964   3.917  10.325  11.525 -0.8155 -0.2059 -0.2346
   89MOL0     H11965   3.988  10.468  11.613 -1.2327  0.6680  1.7828
   89MOL0     H11966   3.788  10.269  11.738 -0.8464 -0.1887  1.0350
   89MOL0     H11967   3.498  10.429  11.921 -3.1254 -1.6277 -1.8428
   89MOL0     H11968   3.503  10.273  11.845 -0.1310 -0.2840  2.0047
   89MOL0     H11969   3.736  10.219  11.930  0.8202  2.2329 -0.5353
   89MOL0     H11970   3.731  10.352  12.034  1.3514  0.3163 -2.1367
   89MOL0     H11971   3.683  10.155  12.131  2.5858  1.4033 -2.9679
   89MOL0     H11972   3.559  10.106  12.032 -0.7617 -0.7079  0.9527
   89MOL0     H11973   3.431  10.183  12.194  0.0529  0.5517  1.8208
   89MOL0     H11974   3.439  10.321  12.079 -0.8438 -1.9611 -0.5577
   89MOL0     H11975   3.496  10.546  12.097 -0.0200 -0.5532  0.4982
   89MOL0     H11976   3.343  10.743  12.144  1.2136  1.2103  0.3138
   89MOL0     H11977   3.221  11.113  12.119 -0.4132  0.1787  0.1937
   89MOL0     H11978   3.102  11.307  12.131 -1.0510 -1.3104 -1.3525
   89MOL0     H11979   2.910  11.428  12.149  1.2318  2.5664  1.1732
   89MOL0     H11980   2.790  11.316  12.229 -3.2524  2.4581 -1.2050
   89MOL0     H11981   2.710  11.525  12.344 -2.4954  0.4107 -1.0419
   89MOL0     H11982   2.823  11.610  12.245 -0.0189 -0.0872 -0.5487
   89MOL0     H11983   2.587  11.445  12.139  0.3544 -0.1619  0.4787
   89MOL0     H11984   2.579  11.613  12.198  3.9535  3.8623  1.3542
   89MOL0     H11985   2.791  11.553  11.985  0.1243 -0.3532 -0.5915
   89MOL0     H11986   2.722  11.704  12.054 -3.0239 -0.0948  2.9300
   89MOL0     H11987   2.601  11.692  11.843 -0.7541 -3.1655 -1.8985
   89MOL0     H11988   2.499  11.663  11.980 -1.1269  0.0323  1.0040
   89MOL0     H11989   2.626  11.425  11.843 -0.8650 -1.5355  1.1535
   89MOL0     H11990   2.497  11.431  11.954 -1.2645 -1.3058 -0.1259
   89MOL0     H11991   2.489  11.563  11.673  3.5179  1.3303  2.2282
   89MOL0     H11992   2.371  11.590  11.803  3.5314  1.4062  1.7929
   89MOL0     H11993   2.264  11.459  11.656  2.8978  2.4122 -0.6955
   89MOL0     H11994   2.388  11.324  11.676  2.9455  2.2172 -0.9271
   89MOL0     H11995   2.978  11.219  12.530  3.5245  1.1345  2.6439
   89MOL0     H11996   3.122  11.028  12.535 -1.4836  0.7982  0.0506
   89MOL0     H11997   3.399  10.625  12.570  0.6483 -0.1056  0.5864
   89MOL0     H11998   3.530  10.436  12.487  2.4265 -0.2378 -2.4224
   89MOL0     H11999   4.125  10.762  10.800  1.8884  0.2651 -0.7671
   89MOL0     H12000   4.309  10.834  10.654 -0.1103  1.0573 -0.8671
   89MOL0     H12001   4.486  11.296  10.379  4.3040  1.5686  1.5072
   89MOL0     H12002   4.710  11.311  10.288 -1.6170  1.5994  1.3368
   89MOL0     H12003   4.926  10.937  10.148 -1.0198 -0.9409 -1.7855
   89MOL0     H12004   5.033  11.057  10.099  0.7795 -3.0603 -0.1403
   89MOL0     H12005   4.878  11.121   9.912  0.5579  0.4989  2.3399
   89MOL0     H12006   4.747  11.044   9.974  0.1665  2.7858  0.6555
   89MOL0     H12007   4.893  10.810   9.949  3.6058 -1.1736 -0.2825
   89MOL0     H12008   5.019  10.923   9.905 -0.9357  2.1185  3.3575
   89MOL0     H12009   4.828  10.994   9.717 -2.6916 -1.1470 -0.2898
   89MOL0     H12010   4.955  10.868   9.691  1.2194  1.4656  0.6658
   89MOL0     H12011   4.544  10.728   9.700 -0.1115  0.7078 -0.8876
   89MOL0     H12012   4.730  10.891  10.212 -2.1566  0.1116 -2.8410
   89MOL0     H12013   4.395  10.796  10.249  1.2220 -0.2311 -0.8959
   89MOL0     H12014   4.558  10.757  10.217 -2.0587  1.7899 -1.8127
   89MOL0     H12015   4.502  10.752  10.385  0.7147 -1.1494  0.0692
   90MOL0     O12016   6.781   7.986   0.593 -0.5284  0.1223 -0.1277
   90MOL0     C12017   6.727   8.073   0.659 -0.4227  0.4118 -0.1490
   90MOL0     O12018   6.622   8.058   0.743 -0.0399 -0.5477 -1.3835
   90MOL0     C12019   6.533   7.955   0.711 -0.4704  0.1308 -0.3169
   90MOL0     C12020   6.471   7.898   0.819  0.1945 -0.4606  0.9871
   90MOL0     C12021   6.379   7.800   0.809  0.5180 -0.6797 -0.2391
   90MOL0     C12022   6.328   7.765   0.685  0.7040 -0.1489 -0.6449
   90MOL0     O12023   6.238   7.662   0.678 -0.2025 -0.1671 -0.4349
   90MOL0     C12024   6.174   7.640   0.552  0.8180  1.2987  0.8108
   90MOL0     C12025   6.047   7.550   0.559  0.4959 -0.5985 -0.1038
   90MOL0     C12026   6.061   7.405   0.606  0.1453  0.2340 -0.1884
   90MOL0     C12027   5.932   7.339   0.643  0.4830  0.2666 -0.2776
   90MOL0     C12028   5.822   7.329   0.535  0.2625  0.6307 -0.4818
   90MOL0     C12029   5.717   7.226   0.597  0.5142 -0.3293  0.2718
   90MOL0     C12030   5.616   7.184   0.483  0.1305 -0.3184 -0.2020
   90MOL0     C12031   5.493   7.119   0.539  0.7580  0.5378  0.0830
   90MOL0     N12032   5.518   6.991   0.613  0.1034 -0.0570 -0.3619
   90MOL0     C12033   5.525   6.863   0.557 -0.2978  0.0889  0.7396
   90MOL0     C12034   5.565   6.770   0.648 -0.9031 -0.4204 -0.9682
   90MOL0     C12035   5.607   6.634   0.619  0.0726  0.6913 -0.2387
   90MOL0     C12036   5.752   6.618   0.635  1.1164 -0.0454 -1.0199
   90MOL0     C12037   5.836   6.697   0.535 -0.1236 -0.1680  0.3746
   90MOL0     C12038   5.832   6.635   0.398 -0.1127 -0.5491 -0.4552
   90MOL0     O12039   5.870   6.710   0.284  0.4878 -0.0780  0.4440
   90MOL0     C12040   5.984   6.774   0.289 -0.1315  0.5816 -0.3985
   90MOL0     C12041   5.989   6.914   0.257  0.2942  0.8830  0.7932
   90MOL0     C12042   6.102   6.994   0.260 -0.0687  0.0045 -0.5954
   90MOL0     C12043   6.219   6.938   0.320  0.5910  0.2449  0.0845
   90MOL0     C12044   6.335   7.024   0.345  0.7634  0.7238 -0.4568
   90MOL0     O12045   6.391   7.017   0.467  0.4650  0.1252  0.2011
   90MOL0     C12046   6.484   7.120   0.502  1.2432  0.5107 -0.1891
   90MOL0     C12047   6.444   7.253   0.506  0.1535  0.9269 -0.0840
   90MOL0     C12048   6.532   7.355   0.538  0.3708  0.5599  0.8280
   90MOL0     C12049   6.671   7.335   0.561 -0.7036 -0.3959 -0.0308
   90MOL0     O12050   6.759   7.424   0.627  0.3943  0.2389  0.4085
   90MOL0     C12051   6.701   7.527   0.697  0.4418 -0.3833  0.2346
   90MOL0     C12052   6.820   7.617   0.759  0.5181 -0.3454 -0.5193
   90MOL0     C12053   6.830   7.608   0.905 -0.1930 -0.1625 -0.5046
   90MOL0     C12054   6.941   7.684   0.963 -0.5749 -0.1594 -0.6614
   90MOL0     C12055   6.917   7.833   0.954 -0.9144 -0.8664  1.0944
   90MOL0     C12056   7.047   7.908   1.005  0.4340  0.6741 -0.8539
   90MOL0     C12057   7.022   8.051   0.977 -0.3293 -0.5021  0.1784
   90MOL0     C12058   7.055   8.157   1.082 -0.3180  0.2739  0.7875
   90MOL0    Cl12059   7.019   8.313   1.014  0.3087 -0.3748  0.3319
   90MOL0     C12060   6.711   7.202   0.541 -0.2924  0.2155  0.2213
   90MOL0     C12061   6.617   7.099   0.515 -0.7726  0.3495  0.3370
   90MOL0     O12062   6.362   7.107   0.262  0.0915  0.1026 -0.2706
   90MOL0     C12063   6.216   6.809   0.365 -0.6058 -0.1189  0.3490
   90MOL0     C12064   6.101   6.725   0.343 -0.4377 -0.0380 -0.1777
   90MOL0     N12065   5.572   6.850   0.772  0.3641  1.2294  0.3087
   90MOL0     N12066   5.548   6.971   0.744  0.5098 -0.4849  0.1762
   90MOL0     C12067   6.375   7.831   0.567 -0.2064  0.1296  0.6163
   90MOL0     C12068   6.475   7.924   0.585 -1.0974 -0.0811 -0.6214
   90MOL0     C12069   6.776   8.215   0.656 -0.2438  0.1237  0.2887
   90MOL0     C12070   6.763   8.299   0.774 -0.3046 -0.3908 -0.0572
   90MOL0     C12071   6.835   8.422   0.784  1.1986 -0.1103  0.2264
   90MOL0     C12072   6.909   8.466   0.675 -0.5879 -0.7899 -0.6516
   90MOL0     O12073   6.990   8.576   0.675 -0.2836  0.1365  0.4567
   90MOL0     C12074   6.999   8.664   0.794 -0.0237  0.4473 -0.5691
   90MOL0     C12075   6.887   8.762   0.803  0.1852  0.3375  0.3297
   90MOL0     C12076   6.886   8.813   0.947  0.9732 -0.0242 -1.2201
   90MOL0     C12077   7.017   8.860   1.017  0.3765  0.4684 -0.7167
   90MOL0     C12078   7.093   8.962   0.947 -0.2549  0.3636 -0.5930
   90MOL0     C12079   7.149   9.056   0.894 -0.1196  0.2305  0.4313
   90MOL0     C12080   6.891   8.403   0.554  0.8643 -0.6299 -0.3021
   90MOL0     C12081   6.833   8.278   0.539  0.0182  0.5506  0.3072
   90MOL0     C12082   6.862   8.215   0.403 -0.1670 -0.3835 -0.4133
   90MOL0     H12083   6.510   7.924   0.917  0.2984  3.1895  0.1136
   90MOL0     H12084   6.347   7.760   0.904 -1.0770 -2.6791 -1.5239
   90MOL0     H12085   6.140   7.732   0.503  1.3207  0.8139 -0.4964
   90MOL0     H12086   6.241   7.587   0.484 -0.3194 -1.2920  1.5819
   90MOL0     H12087   6.006   7.553   0.458  1.1509  0.6503 -0.3567
   90MOL0     H12088   5.975   7.606   0.620  1.7812 -0.3916  1.2816
   90MOL0     H12089   6.124   7.405   0.696 -0.6709  0.2629  0.3960
   90MOL0     H12090   6.111   7.348   0.527  0.6327  0.7343 -0.2434
   90MOL0     H12091   5.948   7.237   0.681 -3.8728 -1.1685 -1.7635
   90MOL0     H12092   5.880   7.383   0.729  2.0464  0.4802  0.6071
   90MOL0     H12093   5.759   7.413   0.503 -1.8438 -0.8429 -0.4366
   90MOL0     H12094   5.862   7.274   0.449 -2.7578 -0.4522 -1.3476
   90MOL0     H12095   5.758   7.130   0.630  1.5873 -0.0663 -0.2698
   90MOL0     H12096   5.663   7.273   0.681  0.7379  0.4054  0.0100
   90MOL0     H12097   5.664   7.115   0.414 -2.6951 -1.1201 -1.5062
   90MOL0     H12098   5.596   7.278   0.430 -2.8374  0.4708  2.0235
   90MOL0     H12099   5.455   7.187   0.615  0.2072  0.0115  0.2808
   90MOL0     H12100   5.409   7.107   0.470  1.4864 -0.1080 -0.7112
   90MOL0     H12101   5.494   6.837   0.456 -1.9777  2.0580  0.6922
   90MOL0     H12102   5.559   6.559   0.682  1.3687 -0.6139 -0.7338
   90MOL0     H12103   5.563   6.613   0.521 -5.3183  1.4191  1.6520
   90MOL0     H12104   5.781   6.655   0.733  1.6269  1.2181 -1.6263
   90MOL0     H12105   5.794   6.517   0.628  2.3771  0.2924  0.8289
   90MOL0     H12106   5.944   6.694   0.554  0.2599 -5.1206 -1.1854
   90MOL0     H12107   5.823   6.805   0.543  0.6563  0.0610 -1.1073
   90MOL0     H12108   5.723   6.629   0.389 -0.6510  1.7041  2.6902
   90MOL0     H12109   5.870   6.534   0.414  2.6768  0.8213  3.1040
   90MOL0     H12110   5.893   6.953   0.223 -0.6401 -1.7735  0.1627
   90MOL0     H12111   6.097   7.095   0.222 -3.6429  0.0863 -0.2783
   90MOL0     H12112   6.338   7.278   0.505 -0.2014 -0.5020 -0.8138
   90MOL0     H12113   6.477   7.444   0.567  3.5565  2.4284  1.7440
   90MOL0     H12114   6.639   7.591   0.633  2.6624  0.1144 -1.5669
   90MOL0     H12115   6.624   7.501   0.770 -1.3574  0.6089 -1.2323
   90MOL0     H12116   6.914   7.580   0.718 -1.0355 -2.5047 -2.4188
   90MOL0     H12117   6.790   7.714   0.718  1.0681 -0.8784 -2.2880
   90MOL0     H12118   6.739   7.629   0.962 -0.3111 -0.5462 -0.5503
   90MOL0     H12119   6.836   7.504   0.939  0.0457  1.2312  4.5117
   90MOL0     H12120   7.035   7.655   0.917  1.1660 -1.3260  3.2249
   90MOL0     H12121   6.957   7.660   1.069  2.0431 -3.1962 -1.6030
   90MOL0     H12122   6.824   7.870   0.999 -1.5866 -1.1017 -0.0706
   90MOL0     H12123   6.923   7.852   0.846 -0.7415 -0.9620  1.0866
   90MOL0     H12124   7.057   7.890   1.113  0.8110  0.7029 -0.8818
   90MOL0     H12125   7.132   7.873   0.947 -0.5579 -2.1484 -0.7634
   90MOL0     H12126   6.917   8.071   0.954 -0.3946 -1.0032  0.0294
   90MOL0     H12127   7.081   8.071   0.887 -0.7088  0.3840  0.1117
   90MOL0     H12128   6.991   8.131   1.167 -0.3288 -1.3411  0.3214
   90MOL0     H12129   7.159   8.165   1.117  0.8022 -3.0765 -1.2425
   90MOL0     H12130   6.813   7.169   0.561  0.4076  2.4735  0.7126
   90MOL0     H12131   6.650   6.996   0.501  3.1388  1.4685  0.1692
   90MOL0     H12132   6.295   6.767   0.427  1.1547 -0.0096 -1.7036
   90MOL0     H12133   6.125   6.622   0.369  0.3036 -0.0944 -1.0367
   90MOL0     H12134   6.336   7.816   0.467  3.3128 -3.1840 -0.5090
   90MOL0     H12135   6.513   7.973   0.496 -1.8926  0.8223 -0.4837
   90MOL0     H12136   6.734   8.249   0.865  0.5697 -4.0138 -1.5994
   90MOL0     H12137   6.823   8.482   0.874  0.4874  0.7237 -0.4024
   90MOL0     H12138   7.088   8.728   0.793  2.0402 -2.1728  1.1237
   90MOL0     H12139   7.016   8.607   0.886  3.9069  1.4782 -0.5055
   90MOL0     H12140   6.791   8.722   0.770  0.3342  0.6799 -0.5621
   90MOL0     H12141   6.900   8.845   0.732 -0.6777 -0.1692 -0.4405
   90MOL0     H12142   6.846   8.726   1.000  0.6788  0.7515 -0.1424
   90MOL0     H12143   6.817   8.897   0.965  1.9290  0.3716  0.8872
   90MOL0     H12144   6.998   8.886   1.121 -1.2415 -0.7078 -0.6762
   90MOL0     H12145   7.085   8.775   1.023 -0.6057 -0.3056 -0.2342
   90MOL0     H12146   7.193   9.133   0.834 -1.5426  1.7320  1.2307
   90MOL0     H12147   6.932   8.454   0.467 -1.7597 -0.7079 -1.6759
   90MOL0     H12148   6.791   8.131   0.396 -1.2482  0.5826 -1.3673
   90MOL0     H12149   6.830   8.283   0.324  0.3259  0.1544 -0.1516
   90MOL0     H12150   6.964   8.178   0.388 -0.6104 -1.5698 -0.6286
   91MOL0     O12151   6.437   7.681   6.368 -0.0542  0.2394  0.1643
   91MOL0     C12152   6.494   7.585   6.420 -0.7134  0.0997 -0.3266
   91MOL0     O12153   6.434   7.477   6.467  0.2360 -0.2650 -0.0830
   91MOL0     C12154   6.293   7.481   6.456  0.5869 -1.0428  0.0286
   91MOL0     C12155   6.220   7.478   6.341 -0.2932  0.0508 -0.2119
   91MOL0     C12156   6.086   7.466   6.328 -0.5034 -1.1990  0.5078
   91MOL0     C12157   6.008   7.450   6.443  0.7919 -0.4081 -0.4656
   91MOL0     O12158   5.875   7.433   6.436 -0.1186 -0.5437  0.4798
   91MOL0     C12159   5.795   7.452   6.553  1.2990  0.4797 -1.1717
   91MOL0     C12160   5.645   7.427   6.502  0.2453 -0.9478 -0.0898
   91MOL0     C12161   5.631   7.297   6.437  0.4695  0.3296 -0.7927
   91MOL0     C12162   5.674   7.185   6.536 -0.0062 -0.0340 -0.2524
   91MOL0     C12163   5.656   7.043   6.481  0.2755  0.3266  0.0175
   91MOL0     C12164   5.515   7.014   6.456  0.1929 -0.6513  0.2510
   91MOL0     C12165   5.490   6.862   6.435  0.9069 -0.8908  0.4941
   91MOL0     C12166   5.556   6.824   6.300  0.0928  0.3809 -0.1939
   91MOL0     N12167   5.509   6.693   6.250 -0.2864 -0.5678  0.0462
   91MOL0     C12168   5.401   6.665   6.159 -0.1817 -0.5892  0.2638
   91MOL0     C12169   5.409   6.530   6.144  0.3712  0.6898  0.3355
   91MOL0     C12170   5.316   6.449   6.056  0.0453  0.6782  0.5104
   91MOL0     C12171   5.176   6.462   6.086 -0.7380  0.0596 -0.5074
   91MOL0     C12172   5.083   6.393   5.971 -0.1645  0.3073 -0.1036
   91MOL0     C12173   4.936   6.373   6.011 -0.3668 -0.5852  0.7325
   91MOL0     O12174   4.892   6.471   6.103 -0.1372 -0.1097  0.3627
   91MOL0     C12175   4.757   6.484   6.117 -1.1117 -0.5547 -0.6520
   91MOL0     C12176   4.711   6.607   6.153 -0.2536  0.0229  0.0559
   91MOL0     C12177   4.583   6.633   6.199 -0.2379 -0.6778  0.3733
   91MOL0     C12178   4.486   6.531   6.196 -0.0829  0.4525 -0.1368
   91MOL0     C12179   4.348   6.546   6.246  0.1596  0.3386  0.7530
   91MOL0     O12180   4.322   6.649   6.330 -0.3073 -0.9017  0.0262
   91MOL0     C12181   4.200   6.693   6.368 -0.2159 -0.4818 -0.0909
   91MOL0     C12182   4.109   6.609   6.433 -0.2745 -0.1800 -0.3819
   91MOL0     C12183   3.985   6.651   6.473 -0.5044  0.0318 -0.3574
   91MOL0     C12184   3.942   6.778   6.459 -0.1006 -1.1637 -0.2629
   91MOL0     O12185   3.821   6.810   6.496  0.0642 -0.8037 -0.3856
   91MOL0     C12186   3.798   6.802   6.640  0.1377 -0.0525  0.3193
   91MOL0     C12187   3.708   6.907   6.687 -0.0285 -0.8362  0.6952
   91MOL0     C12188   3.700   6.912   6.840 -0.2491 -0.5509  0.1265
   91MOL0     C12189   3.576   7.002   6.870 -0.1038 -0.2740 -0.2708
   91MOL0     C12190   3.539   6.988   7.017 -0.1435 -0.6393  0.5171
   91MOL0     C12191   3.412   7.064   7.063 -0.5349  0.0842 -0.3596
   91MOL0     C12192   3.452   7.207   7.109 -0.0152 -1.1262  0.7093
   91MOL0     C12193   3.313   7.288   7.125 -0.7992 -0.5512  0.1276
   91MOL0    Cl12194   3.239   7.261   7.291  0.2001  0.6105  0.0449
   91MOL0     C12195   4.031   6.866   6.390  0.2837 -0.7831  0.0630
   91MOL0     C12196   4.156   6.824   6.345 -0.0393 -0.1565  0.1682
   91MOL0     O12197   4.264   6.472   6.198 -0.5294  0.3882 -0.2971
   91MOL0     C12198   4.528   6.407   6.156 -0.3540  0.5315 -0.3772
   91MOL0     C12199   4.665   6.387   6.124  0.4434 -0.0972  0.6884
   91MOL0     N12200   5.520   6.478   6.217  0.8003 -0.5866  0.3724
   91MOL0     N12201   5.578   6.574   6.269  0.5215 -0.5008  0.2697
   91MOL0     C12202   6.079   7.460   6.569  0.5949 -0.3940  0.2010
   91MOL0     C12203   6.219   7.484   6.576 -0.8427  0.5732 -0.1706
   91MOL0     C12204   6.638   7.584   6.444  0.3046 -0.3977  0.3401
   91MOL0     C12205   6.717   7.461   6.464  0.1070 -0.1654  0.3672
   91MOL0     C12206   6.852   7.457   6.491  0.3293  0.2196 -0.4891
   91MOL0     C12207   6.915   7.578   6.504  0.7706 -1.6669 -0.9710
   91MOL0     O12208   7.044   7.584   6.533  0.1016  0.5767  0.8761
   91MOL0     C12209   7.104   7.484   6.618  0.3685 -0.2712 -0.7046
   91MOL0     C12210   7.225   7.540   6.705  0.1531 -0.5184 -0.5128
   91MOL0     C12211   7.195   7.629   6.828 -0.0293 -0.6153 -0.2626
   91MOL0     C12212   7.101   7.564   6.928 -0.4329 -0.4811 -0.0488
   91MOL0     C12213   7.086   7.656   7.044 -1.1791  0.3230  1.2068
   91MOL0     C12214   7.082   7.742   7.132 -0.6023  0.4259 -0.5168
   91MOL0     C12215   6.853   7.701   6.473 -0.1815  0.4582  0.0157
   91MOL0     C12216   6.710   7.707   6.448 -0.7273 -0.1827  0.5322
   91MOL0     C12217   6.646   7.837   6.421 -0.4654 -0.4093 -0.6112
   91MOL0     H12218   6.267   7.476   6.243  4.3364 -1.0957  1.7661
   91MOL0     H12219   6.038   7.463   6.231  3.0034  0.5107 -1.4703
   91MOL0     H12220   5.831   7.388   6.634  1.1028  4.3159  2.3026
   91MOL0     H12221   5.813   7.551   6.596  1.2246 -0.7210  1.8891
   91MOL0     H12222   5.622   7.506   6.430  4.7583  2.6763  1.9351
   91MOL0     H12223   5.584   7.441   6.592  0.5366  0.2225 -0.0539
   91MOL0     H12224   5.699   7.288   6.352  1.5612 -1.2040  0.1849
   91MOL0     H12225   5.525   7.285   6.411  0.4338 -2.6436  0.3947
   91MOL0     H12226   5.782   7.191   6.552  0.2084 -0.5335 -1.4156
   91MOL0     H12227   5.628   7.197   6.635 -0.4781  3.3826 -0.7697
   91MOL0     H12228   5.715   7.040   6.389  0.5753 -0.0263  0.2160
   91MOL0     H12229   5.705   6.975   6.552  0.1609  0.5592  0.3242
   91MOL0     H12230   5.459   7.038   6.547  0.3893  1.8258 -0.2201
   91MOL0     H12231   5.476   7.086   6.384 -0.5503  3.1763  4.0829
   91MOL0     H12232   5.383   6.842   6.433  0.7868 -0.3113 -1.5572
   91MOL0     H12233   5.530   6.804   6.518  0.2580 -3.2369 -0.7596
   91MOL0     H12234   5.533   6.900   6.225 -5.0984  1.3236  1.9373
   91MOL0     H12235   5.663   6.809   6.316 -0.3516  0.2516  3.5038
   91MOL0     H12236   5.318   6.728   6.131  0.0721 -1.1837 -2.0540
   91MOL0     H12237   5.331   6.462   5.949  0.5370 -0.0646  0.4810
   91MOL0     H12238   5.338   6.341   6.058  1.5501  0.9601  0.4341
   91MOL0     H12239   5.154   6.409   6.179 -1.9588  2.5882  0.7652
   91MOL0     H12240   5.148   6.568   6.090 -3.7113 -0.5686 -2.3671
   91MOL0     H12241   5.121   6.293   5.950 -1.4602 -0.1310 -0.4531
   91MOL0     H12242   5.099   6.448   5.877 -0.1484  0.5852  0.0592
   91MOL0     H12243   4.925   6.273   6.053  0.6985 -0.0105  2.4979
   91MOL0     H12244   4.879   6.363   5.918  1.1124 -2.5228 -0.0415
   91MOL0     H12245   4.773   6.695   6.139  0.6470 -0.7180 -0.7316
   91MOL0     H12246   4.547   6.729   6.234  0.8812 -0.5802  1.3028
   91MOL0     H12247   4.138   6.504   6.440  0.6423  0.0217 -0.9538
   91MOL0     H12248   3.911   6.592   6.526 -3.0207  3.6825  0.6024
   91MOL0     H12249   3.760   6.699   6.651 -2.8460  1.1840  3.5447
   91MOL0     H12250   3.894   6.800   6.692  0.3877 -3.0391 -0.0490
   91MOL0     H12251   3.745   7.004   6.654  1.2760 -1.6748 -0.4499
   91MOL0     H12252   3.609   6.889   6.642 -0.5320  1.3286  0.8313
   91MOL0     H12253   3.687   6.807   6.869 -0.7551 -0.5082  0.0587
   91MOL0     H12254   3.791   6.957   6.881 -1.6048  0.2515  2.4266
   91MOL0     H12255   3.492   6.967   6.809 -1.1007 -0.2610  1.0410
   91MOL0     H12256   3.589   7.107   6.843 -1.2708  1.2987  4.3797
   91MOL0     H12257   3.626   7.019   7.076 -1.0614  2.1383  0.5422
   91MOL0     H12258   3.531   6.880   7.034  1.7096 -0.7447  0.9635
   91MOL0     H12259   3.334   7.062   6.986 -0.2586 -0.1045 -0.6384
   91MOL0     H12260   3.379   7.008   7.151  4.6652  0.4955  2.2456
   91MOL0     H12261   3.500   7.269   7.033 -1.8129  4.0247  3.2822
   91MOL0     H12262   3.518   7.211   7.195  0.1213  3.8753  0.6629
   91MOL0     H12263   3.327   7.396   7.112  0.3299 -0.5914  0.8941
   91MOL0     H12264   3.247   7.258   7.043  1.0837 -0.7419 -1.3869
   91MOL0     H12265   4.003   6.969   6.369 -2.8914 -2.2412 -4.3020
   91MOL0     H12266   4.220   6.899   6.300 -1.0382 -0.3520 -1.6671
   91MOL0     H12267   4.462   6.322   6.149 -3.2243  2.1262  3.6759
   91MOL0     H12268   4.691   6.284   6.100 -0.3670 -0.1050 -0.1990
   91MOL0     H12269   6.026   7.447   6.663 -0.4195 -1.3052 -0.4692
   91MOL0     H12270   6.257   7.482   6.677 -1.5501 -0.4019  0.0945
   91MOL0     H12271   6.669   7.363   6.464 -1.8377  0.4661 -5.0313
   91MOL0     H12272   6.900   7.360   6.505  1.9630  0.9355 -0.8720
   91MOL0     H12273   7.120   7.400   6.550 -1.1694 -1.6248  0.5311
   91MOL0     H12274   7.035   7.443   6.691  0.1591 -1.7774 -1.6938
   91MOL0     H12275   7.286   7.606   6.643 -0.8843  1.9853  1.0041
   91MOL0     H12276   7.286   7.457   6.743 -1.7431 -1.2870  1.0491
   91MOL0     H12277   7.156   7.724   6.793  1.3803 -0.8640 -2.7663
   91MOL0     H12278   7.293   7.638   6.877  0.6738 -1.0370 -1.5432
   91MOL0     H12279   7.009   7.544   6.872 -1.9147  0.2721  2.0075
   91MOL0     H12280   7.135   7.462   6.950 -1.6270 -0.9039 -0.1124
   91MOL0     H12281   7.086   7.815   7.210  0.5087  1.1974 -1.2651
   91MOL0     H12282   6.932   7.775   6.472  2.2646 -1.9764 -0.8243
   91MOL0     H12283   6.596   7.832   6.324  1.7687  1.5214 -1.9678
   91MOL0     H12284   6.569   7.865   6.493 -2.0809 -0.8497 -2.1152
   91MOL0     H12285   6.722   7.916   6.417  1.3041 -1.8495  1.5771
   92MOL0     O12286  11.270   4.775   8.226  0.2254  0.1987 -0.5556
   92MOL0     C12287  11.167   4.811   8.170  0.3834 -0.3527 -1.5950
   92MOL0     O12288  11.039   4.802   8.215  0.4584 -0.2744 -0.0909
   92MOL0     C12289  11.017   4.768   8.344 -0.1783 -0.0778 -0.2474
   92MOL0     C12290  10.891   4.719   8.378 -0.3620 -0.9226  0.0892
   92MOL0     C12291  10.856   4.698   8.512 -0.1408 -0.1286  0.0152
   92MOL0     C12292  10.939   4.731   8.624  0.5639  0.6370  1.2112
   92MOL0     O12293  10.917   4.695   8.750 -0.4114 -0.0131 -0.0715
   92MOL0     C12294  10.947   4.781   8.861 -0.0931  0.1182  0.3514
   92MOL0     C12295  10.942   4.678   8.980 -1.0799 -0.7409  0.3090
   92MOL0     C12296  11.052   4.709   9.096 -0.5251 -1.4162  0.3011
   92MOL0     C12297  11.016   4.825   9.188  0.1170 -0.3416 -0.2818
   92MOL0     C12298  11.097   4.841   9.319  0.8358 -0.3436  0.2119
   92MOL0     C12299  11.029   4.950   9.404  0.0222  0.4452  0.6335
   92MOL0     C12300  11.113   4.994   9.527  0.0491  1.0019 -0.0415
   92MOL0     C12301  11.062   5.108   9.607 -0.0966  0.0853  0.0792
   92MOL0     N12302  11.076   5.109   9.749 -0.3606  0.0517  0.3183
   92MOL0     C12303  11.200   5.104   9.811 -0.2031 -0.4141 -0.0321
   92MOL0     C12304  11.173   5.116   9.943  0.5556 -0.0609  0.8808
   92MOL0     C12305  11.281   5.116  10.049  0.5426  0.0298 -0.6378
   92MOL0     C12306  11.261   5.000  10.150 -0.1621  0.3100  0.2947
   92MOL0     C12307  11.270   4.858  10.085  0.3711  0.0726 -0.0034
   92MOL0     C12308  11.402   4.806  10.041  0.2080 -0.4403 -0.2092
   92MOL0     O12309  11.453   4.886   9.930  0.2824  0.3079  0.2140
   92MOL0     C12310  11.440   4.851   9.800 -0.1065 -0.4887 -0.9912
   92MOL0     C12311  11.493   4.956   9.711  0.5904  0.9404 -0.6930
   92MOL0     C12312  11.493   4.944   9.577  0.1644 -0.3630  0.5110
   92MOL0     C12313  11.459   4.817   9.512 -0.6590 -0.4783 -0.8862
   92MOL0     C12314  11.471   4.802   9.357  0.0374  0.0510 -0.2212
   92MOL0     O12315  11.457   4.922   9.282 -0.3475  0.3695  0.9995
   92MOL0     C12316  11.461   4.917   9.146 -0.5556 -0.8491  1.0345
   92MOL0     C12317  11.359   4.992   9.078 -1.0276  0.1790 -0.3292
   92MOL0     C12318  11.370   5.005   8.938 -0.5232 -0.7112 -0.0974
   92MOL0     C12319  11.463   4.930   8.862 -0.5375 -0.0584 -0.4734
   92MOL0     O12320  11.477   4.957   8.727  0.2488  0.1194 -0.5711
   92MOL0     C12321  11.591   4.897   8.671  0.0061  0.5656  0.1095
   92MOL0     C12322  11.605   4.937   8.515  0.4465  0.3746 -0.6922
   92MOL0     C12323  11.731   4.880   8.457 -0.4369  0.4175 -0.1050
   92MOL0     C12324  11.775   4.957   8.334  0.4926 -0.3023 -0.4641
   92MOL0     C12325  11.906   4.915   8.283  0.9638  0.3693 -0.2237
   92MOL0     C12326  11.949   4.998   8.156 -0.3082  0.7400 -0.2443
   92MOL0     C12327  12.076   4.925   8.093 -0.2215  0.0769 -0.3640
   92MOL0     C12328  12.200   4.928   8.181 -0.3959 -0.4237  1.1435
   92MOL0    Cl12329  12.335   4.905   8.059 -0.2351 -0.3355 -0.1362
   92MOL0     C12330  11.549   4.844   8.933  0.5303 -0.5998 -0.0564
   92MOL0     C12331  11.556   4.848   9.072 -0.0478  0.5221 -0.9291
   92MOL0     O12332  11.474   4.689   9.310  0.0474  0.4135 -0.2072
   92MOL0     C12333  11.397   4.713   9.598 -0.2966 -0.3981 -0.1585
   92MOL0     C12334  11.384   4.730   9.743 -0.2011  0.1772 -0.2490
   92MOL0     N12335  11.033   5.117   9.960 -0.3051 -0.0410  1.0259
   92MOL0     N12336  10.979   5.113   9.844  0.4492 -0.5306 -0.0520
   92MOL0     C12337  11.062   4.779   8.592  0.6469  0.1842 -0.5455
   92MOL0     C12338  11.098   4.792   8.455 -0.2153 -1.0806  0.0415
   92MOL0     C12339  11.188   4.870   8.033 -0.7732  0.8997  0.1876
   92MOL0     C12340  11.077   4.907   7.962  0.3131  0.3080 -0.4779
   92MOL0     C12341  11.079   4.966   7.837  0.0814 -0.0571 -0.8115
   92MOL0     C12342  11.198   5.006   7.793 -0.3425 -0.1426  0.5379
   92MOL0     O12343  11.196   5.060   7.668  0.7960 -0.3607  0.2551
   92MOL0     C12344  11.320   5.136   7.618  0.6042 -0.1030 -0.2244
   92MOL0     C12345  11.321   5.274   7.688 -0.0444  0.5266 -0.5598
   92MOL0     C12346  11.423   5.367   7.639 -0.3103  0.3366  0.5552
   92MOL0     C12347  11.438   5.495   7.728  0.3083 -0.0534 -0.2616
   92MOL0     C12348  11.564   5.563   7.707  0.0410  0.0838 -0.1195
   92MOL0     C12349  11.677   5.608   7.696  0.7071 -0.4747 -0.3164
   92MOL0     C12350  11.321   4.969   7.857 -0.1303  0.4695 -0.4933
   92MOL0     C12351  11.318   4.896   7.977 -0.1088 -0.8118  1.0778
   92MOL0     C12352  11.460   4.872   8.039  0.5962 -0.5439  0.0162
   92MOL0     H12353  10.823   4.694   8.298  0.5665 -0.2685 -0.9356
   92MOL0     H12354  10.758   4.652   8.522  1.0849 -3.2308 -1.1589
   92MOL0     H12355  11.042   4.833   8.841 -0.0298 -0.0706  0.1488
   92MOL0     H12356  10.868   4.855   8.873  0.2881  0.4536  0.8635
   92MOL0     H12357  10.961   4.574   8.951  2.2187 -0.9607  2.6610
   92MOL0     H12358  10.841   4.670   9.021 -0.6891 -1.8119  1.1177
   92MOL0     H12359  11.149   4.736   9.052 -1.2082  1.3784  0.3463
   92MOL0     H12360  11.073   4.624   9.161  2.5646  0.8345  2.5621
   92MOL0     H12361  11.038   4.924   9.147  0.1550 -0.2429 -0.0236
   92MOL0     H12362  10.909   4.808   9.203  0.4436 -3.7140 -0.9912
   92MOL0     H12363  11.108   4.744   9.369 -1.0426 -1.1193 -0.7611
   92MOL0     H12364  11.195   4.882   9.293 -0.0977  4.6290  3.2739
   92MOL0     H12365  11.018   5.046   9.353  0.1798 -0.4126 -1.1049
   92MOL0     H12366  10.941   4.905   9.450  0.1721 -0.5604 -0.0389
   92MOL0     H12367  11.216   5.008   9.494  0.9632 -2.3438  1.0526
   92MOL0     H12368  11.117   4.907   9.592  1.1317 -0.1457 -1.5525
   92MOL0     H12369  11.108   5.202   9.576  0.3588 -0.5429 -1.2329
   92MOL0     H12370  10.955   5.117   9.584 -0.6429 -1.9725  1.5093
   92MOL0     H12371  11.297   5.106   9.762  0.3207  0.5835  1.0121
   92MOL0     H12372  11.375   5.113   9.993 -0.6602  1.8246 -2.9442
   92MOL0     H12373  11.271   5.215  10.094 -0.6292  0.1603 -1.1547
   92MOL0     H12374  11.325   5.005  10.238 -0.7214  0.1792  0.7185
   92MOL0     H12375  11.161   5.016  10.193 -1.3764 -3.1530 -0.8321
   92MOL0     H12376  11.192   4.839  10.011  3.5388  2.0862 -4.2594
   92MOL0     H12377  11.229   4.800  10.169 -2.3119  1.7376 -0.0527
   92MOL0     H12378  11.378   4.704  10.010 -1.6702  0.0519 -0.5203
   92MOL0     H12379  11.472   4.801  10.125  0.9025  0.1387 -0.7499
   92MOL0     H12380  11.527   5.047   9.759 -0.0391  0.4155  0.8132
   92MOL0     H12381  11.524   5.016   9.501 -1.6234 -1.3777 -1.2794
   92MOL0     H12382  11.288   5.056   9.129 -1.0690  0.3659 -0.6242
   92MOL0     H12383  11.303   5.079   8.896  2.6085  2.0054 -0.7624
   92MOL0     H12384  11.673   4.938   8.731  1.1557 -0.1652 -0.9167
   92MOL0     H12385  11.586   4.788   8.667 -0.8245  0.5562  1.0554
   92MOL0     H12386  11.514   4.901   8.465 -0.2343  0.0296  0.7394
   92MOL0     H12387  11.605   5.045   8.496  0.2708  0.3630 -0.7616
   92MOL0     H12388  11.813   4.897   8.528  0.2296 -2.4887 -0.0766
   92MOL0     H12389  11.724   4.771   8.453  3.0598 -0.0709  2.2616
   92MOL0     H12390  11.764   5.062   8.361  0.1900 -0.4384 -0.0411
   92MOL0     H12391  11.697   4.925   8.264 -1.0316 -1.0529  1.4602
   92MOL0     H12392  11.904   4.807   8.266  0.1533  0.4386 -0.6052
   92MOL0     H12393  11.981   4.933   8.361 -0.1888  3.1693  0.3408
   92MOL0     H12394  11.870   5.004   8.081 -0.4174  0.6139 -0.1387
   92MOL0     H12395  11.976   5.102   8.178  1.5210  0.3323 -0.3747
   92MOL0     H12396  12.091   4.984   8.002 -0.8008  0.6310 -0.1128
   92MOL0     H12397  12.047   4.826   8.058  0.3729  0.4988 -2.1458
   92MOL0     H12398  12.211   5.024   8.232 -1.9905 -1.5221  3.7537
   92MOL0     H12399  12.192   4.837   8.240  4.5692 -3.4170 -2.0634
   92MOL0     H12400  11.621   4.779   8.885  1.1315 -0.2572  0.3663
   92MOL0     H12401  11.623   4.774   9.114 -1.5889 -2.1719 -2.9462
   92MOL0     H12402  11.358   4.622   9.552  0.2584 -0.4528 -0.5331
   92MOL0     H12403  11.331   4.662   9.808 -1.3123 -0.8154 -2.1203
   92MOL0     H12404  11.133   4.790   8.674  1.4988 -1.3174 -1.0437
   92MOL0     H12405  11.200   4.820   8.432 -1.5634  1.9467 -3.2221
   92MOL0     H12406  10.976   4.907   8.001 -0.4411  0.7792 -2.3016
   92MOL0     H12407  10.985   4.990   7.788 -0.0367  2.7515  0.5628
   92MOL0     H12408  11.321   5.163   7.512  2.0903 -1.4074 -0.5606
   92MOL0     H12409  11.413   5.085   7.642 -1.0236 -2.3637  1.7482
   92MOL0     H12410  11.326   5.260   7.796  1.1867 -1.1221 -0.7910
   92MOL0     H12411  11.226   5.320   7.659 -2.6240 -0.9846  4.3466
   92MOL0     H12412  11.406   5.388   7.533 -0.8266 -0.3882  0.4816
   92MOL0     H12413  11.524   5.326   7.645 -0.1534  0.3594 -1.2672
   92MOL0     H12414  11.352   5.556   7.700 -0.5423 -2.5592 -3.8192
   92MOL0     H12415  11.434   5.464   7.833 -0.4387  0.1715 -0.2148
   92MOL0     H12416  11.774   5.652   7.706  0.1099  1.0381 -0.9463
   92MOL0     H12417  11.419   4.997   7.820 -0.7386  3.8293  0.1538
   92MOL0     H12418  11.458   4.779   8.098  1.3049 -0.1648  0.6691
   92MOL0     H12419  11.538   4.864   7.963  0.5350 -1.0596  0.0062
   92MOL0     H12420  11.494   4.950   8.108  0.7475 -1.6069  1.1996
   93MOL0     O12421   2.024  10.664   0.774  0.4903  0.8008  0.3698
   93MOL0     C12422   2.144  10.683   0.770  0.1204 -0.5452  0.1996
   93MOL0     O12423   2.207  10.800   0.759 -0.3678 -0.4523  0.6465
   93MOL0     C12424   2.165  10.903   0.839  0.1570 -0.8316 -0.3286
   93MOL0     C12425   2.233  10.922   0.959  0.4137  0.3022 -0.3486
   93MOL0     C12426   2.197  11.029   1.041  0.7678  0.3026 -0.2796
   93MOL0     C12427   2.091  11.118   1.009  0.8738 -0.2417  0.6220
   93MOL0     O12428   2.073  11.233   1.087  0.2451 -0.4414  0.4922
   93MOL0     C12429   1.949  11.304   1.092 -0.6003  0.7983  0.1088
   93MOL0     C12430   1.983  11.445   1.096 -0.3778 -0.2446 -0.3612
   93MOL0     C12431   2.041  11.485   1.234  0.2129  0.5494  0.1719
   93MOL0     C12432   2.095  11.631   1.227 -0.0004  0.5638  0.4000
   93MOL0     C12433   2.111  11.694   1.353  0.2947  0.0125 -0.5288
   93MOL0     C12434   2.230  11.636   1.432 -0.5717  0.6669  0.3946
   93MOL0     C12435   2.249  11.697   1.571  0.2596 -0.0289  0.7975
   93MOL0     C12436   2.303  11.843   1.584 -0.0923  0.0391  0.3795
   93MOL0     N12437   2.417  11.855   1.486  0.0166 -0.1493  0.0684
   93MOL0     C12438   2.537  11.808   1.492 -0.4842  0.6123  0.5222
   93MOL0     C12439   2.591  11.830   1.367 -0.4359 -0.1089 -0.5103
   93MOL0     C12440   2.726  11.787   1.318 -0.8426  0.3135  1.0594
   93MOL0     C12441   2.736  11.766   1.161  0.4681  0.3215 -0.4608
   93MOL0     C12442   2.881  11.768   1.117  0.3677 -0.2496 -0.1902
   93MOL0     C12443   2.955  11.648   1.157 -0.3835 -0.7377  0.2876
   93MOL0     O12444   3.023  11.679   1.274 -0.1974  0.9998 -0.0852
   93MOL0     C12445   3.151  11.638   1.273  0.1085 -0.0833 -0.2160
   93MOL0     C12446   3.239  11.672   1.176 -0.5735 -0.5217  0.0147
   93MOL0     C12447   3.363  11.616   1.160  0.3963 -1.0341 -0.1859
   93MOL0     C12448   3.410  11.524   1.260 -0.3663  0.2275  0.4277
   93MOL0     C12449   3.543  11.460   1.247 -0.4703  0.0733 -0.2913
   93MOL0     O12450   3.636  11.510   1.157 -0.4217 -0.4617 -0.0533
   93MOL0     C12451   3.755  11.449   1.147 -0.8019  0.1331 -0.8146
   93MOL0     C12452   3.793  11.396   1.028 -0.7797 -0.5001 -0.2514
   93MOL0     C12453   3.920  11.349   1.004  0.1387  0.2615 -0.5813
   93MOL0     C12454   4.021  11.369   1.100 -0.0398  0.3572  0.8381
   93MOL0     O12455   4.147  11.348   1.070  0.0234  0.1450 -0.2909
   93MOL0     C12456   4.236  11.279   1.162 -0.0388 -0.5775 -0.0229
   93MOL0     C12457   4.376  11.265   1.091 -0.9067 -0.2131 -0.9628
   93MOL0     C12458   4.483  11.200   1.185  0.1744 -0.5942  0.1690
   93MOL0     C12459   4.600  11.165   1.092  0.0161 -0.1646 -0.9705
   93MOL0     C12460   4.724  11.145   1.184 -0.6399  0.2126  0.6757
   93MOL0     C12461   4.833  11.063   1.127 -0.7554  0.4405 -0.1523
   93MOL0     C12462   4.883  11.122   0.992  0.3484  0.9745  0.1648
   93MOL0     C12463   5.016  11.050   0.947 -0.0579  0.3104 -0.2361
   93MOL0    Cl12464   5.161  11.082   1.044 -0.0712  0.1787  0.1809
   93MOL0     C12465   3.985  11.419   1.224 -0.1922  1.0245 -0.3150
   93MOL0     C12466   3.854  11.464   1.248 -1.0051  0.4307 -0.3706
   93MOL0     O12467   3.560  11.353   1.313  0.2292 -0.2082  0.9911
   93MOL0     C12468   3.323  11.488   1.366 -0.3494 -0.3513 -0.7546
   93MOL0     C12469   3.197  11.540   1.369 -0.2429 -0.4366 -0.1439
   93MOL0     N12470   2.506  11.904   1.298 -0.3825  0.2249  0.7354
   93MOL0     N12471   2.407  11.935   1.375  0.5554  0.0518 -0.9325
   93MOL0     C12472   2.034  11.101   0.882  0.8489  1.1519  0.4769
   93MOL0     C12473   2.063  10.992   0.804  0.5656 -0.6014  0.4766
   93MOL0     C12474   2.238  10.574   0.780 -0.6605 -0.4768 -0.9736
   93MOL0     C12475   2.370  10.593   0.823 -0.4442  0.6133  0.1709
   93MOL0     C12476   2.460  10.491   0.826 -0.1375 -0.6826 -0.0629
   93MOL0     C12477   2.421  10.354   0.793  0.2798  0.2977 -0.7254
   93MOL0     O12478   2.507  10.244   0.788  0.2728 -1.1906 -0.3800
   93MOL0     C12479   2.644  10.279   0.769 -0.2864  0.6167 -0.2294
   93MOL0     C12480   2.720  10.150   0.746  0.0585  0.1736  1.1484
   93MOL0     C12481   2.756  10.091   0.877 -0.0526 -0.2914  0.2130
   93MOL0     C12482   2.804   9.950   0.865 -0.6022  0.4349  1.2135
   93MOL0     C12483   2.929   9.941   0.789 -0.4596 -0.5663 -0.0058
   93MOL0     C12484   3.019   9.934   0.707  0.0905  0.5042 -0.6815
   93MOL0     C12485   2.286  10.330   0.761  0.5180 -0.2376  0.2718
   93MOL0     C12486   2.199  10.438   0.749 -0.2064 -0.3019  1.1017
   93MOL0     C12487   2.061  10.400   0.699  0.7187  0.0108  0.7085
   93MOL0     H12488   2.306  10.850   0.993  1.2519  1.1899 -0.2297
   93MOL0     H12489   2.244  11.046   1.138  0.7216 -0.9281 -0.0238
   93MOL0     H12490   1.882  11.280   1.009 -1.9450  0.2047  1.3114
   93MOL0     H12491   1.899  11.286   1.187 -1.6613  1.3525 -0.3267
   93MOL0     H12492   1.895  11.505   1.073  0.1452  1.2375  1.3367
   93MOL0     H12493   2.062  11.472   1.025 -0.6535 -2.5168 -1.6666
   93MOL0     H12494   2.118  11.410   1.253 -0.2485 -0.9772 -3.2845
   93MOL0     H12495   1.956  11.482   1.303  2.1534  0.6930  2.7052
   93MOL0     H12496   2.193  11.622   1.179  0.4145  0.3158  1.2709
   93MOL0     H12497   2.029  11.695   1.167  1.8858 -0.0936 -2.5784
   93MOL0     H12498   2.120  11.802   1.341  2.1226 -0.1504 -1.0662
   93MOL0     H12499   2.020  11.666   1.407  0.6312 -4.3281 -1.8549
   93MOL0     H12500   2.219  11.528   1.443  0.4035  0.3787 -1.0280
   93MOL0     H12501   2.322  11.636   1.372 -0.2197 -3.2331  0.6894
   93MOL0     H12502   2.316  11.631   1.627 -1.7098 -2.0266  0.9641
   93MOL0     H12503   2.146  11.701   1.609  0.1190  0.3938  0.3759
   93MOL0     H12504   2.227  11.919   1.565  0.0091 -0.4867 -2.6354
   93MOL0     H12505   2.346  11.859   1.684 -0.3598  3.1226  0.1005
   93MOL0     H12506   2.575  11.743   1.570 -0.6369 -0.1990 -0.0668
   93MOL0     H12507   2.802  11.859   1.348  2.0522 -1.8452 -0.6430
   93MOL0     H12508   2.745  11.690   1.364 -0.0010  1.4838  3.3575
   93MOL0     H12509   2.693  11.671   1.129  4.0388 -2.0457  1.0790
   93MOL0     H12510   2.698  11.854   1.108  0.7200 -1.1296 -3.2458
   93MOL0     H12511   2.929  11.853   1.167  1.1234 -0.2373 -0.9148
   93MOL0     H12512   2.884  11.766   1.008 -0.7000 -2.2866 -0.2211
   93MOL0     H12513   3.026  11.614   1.080 -0.9524 -2.9804  0.6718
   93MOL0     H12514   2.871  11.578   1.161 -3.1545  2.3886  2.6351
   93MOL0     H12515   3.199  11.750   1.112 -0.3063  0.6240  1.2123
   93MOL0     H12516   3.435  11.648   1.086 -0.3983  1.3442 -0.0221
   93MOL0     H12517   3.718  11.382   0.950 -0.1240  0.8329 -1.1660
   93MOL0     H12518   3.940  11.319   0.901  3.4943  3.7807 -1.1675
   93MOL0     H12519   4.249  11.338   1.253  0.6127 -2.0759  0.8926
   93MOL0     H12520   4.205  11.178   1.189  1.6571 -1.1325 -0.0942
   93MOL0     H12521   4.363  11.199   1.004 -0.6601  2.3990 -3.1000
   93MOL0     H12522   4.404  11.363   1.051 -1.2672 -1.1726 -3.7947
   93MOL0     H12523   4.513  11.272   1.262 -1.5315  0.0846  0.2354
   93MOL0     H12524   4.435  11.123   1.245  0.0535  1.5599  3.0857
   93MOL0     H12525   4.619  11.251   1.028 -2.2732  0.3550 -1.0019
   93MOL0     H12526   4.591  11.071   1.036 -3.5634 -0.0840 -0.7405
   93MOL0     H12527   4.689  11.092   1.273  0.6476  2.3174  2.5373
   93MOL0     H12528   4.761  11.242   1.220 -1.0545  1.2653 -1.5551
   93MOL0     H12529   4.916  11.064   1.198 -0.2354  2.2753 -0.7313
   93MOL0     H12530   4.812  10.956   1.119  0.4494 -0.1698  3.2792
   93MOL0     H12531   4.893  11.228   1.015 -1.5667  0.5011  4.0687
   93MOL0     H12532   4.801  11.122   0.920 -0.7442 -0.3940  1.3350
   93MOL0     H12533   4.991  10.944   0.946 -0.1641  0.3311 -1.6786
   93MOL0     H12534   5.035  11.075   0.842  1.7888  0.5478  0.1150
   93MOL0     H12535   4.069  11.449   1.285  1.5419 -2.7770 -0.5893
   93MOL0     H12536   3.832  11.512   1.343 -0.8522 -2.0273  0.9944
   93MOL0     H12537   3.344  11.409   1.438  0.3591  2.3487  2.2350
   93MOL0     H12538   3.131  11.496   1.443 -0.8541  0.6064 -0.0599
   93MOL0     H12539   1.960  11.169   0.841  1.5478  2.0360  0.6471
   93MOL0     H12540   2.014  10.976   0.708  4.1686  2.0424 -2.0660
   93MOL0     H12541   2.410  10.692   0.839 -0.0351  0.5278 -0.2677
   93MOL0     H12542   2.561  10.505   0.861  0.4632 -2.6016 -0.8786
   93MOL0     H12543   2.687  10.321   0.860 -0.1898  0.3839 -0.1647
   93MOL0     H12544   2.667  10.352   0.691  0.6999  1.4070  0.7627
   93MOL0     H12545   2.808  10.187   0.694 -1.3471 -0.4284 -1.8453
   93MOL0     H12546   2.661  10.089   0.678  0.9158  1.1142 -0.4950
   93MOL0     H12547   2.662  10.097   0.933 -1.6177  1.5870 -2.4454
   93MOL0     H12548   2.818  10.162   0.934  1.7765 -0.5414 -1.3531
   93MOL0     H12549   2.821   9.910   0.966  1.1404 -2.2229 -0.0200
   93MOL0     H12550   2.722   9.894   0.820 -3.5509  5.6049 -0.7724
   93MOL0     H12551   3.087   9.952   0.626  1.6745  0.1525  0.5231
   93MOL0     H12552   2.265  10.226   0.736  0.8799 -0.1041 -0.6432
   93MOL0     H12553   2.059  10.290   0.695  0.9691 -0.0335  1.6652
   93MOL0     H12554   1.983  10.429   0.769  1.5827 -0.7087  2.0088
   93MOL0     H12555   2.034  10.434   0.598  2.3749 -0.4656  0.0730
   94MOL0     O12556   8.171   5.011   4.383 -0.9043  1.0574  0.1494
   94MOL0     C12557   8.197   5.068   4.280 -0.2633 -0.2137 -0.0837
   94MOL0     O12558   8.158   5.189   4.249 -0.0985  0.3915 -0.1230
   94MOL0     C12559   8.076   5.251   4.338 -1.1761 -0.3325  0.6295
   94MOL0     C12560   8.125   5.308   4.456  0.6798  0.1925 -0.7825
   94MOL0     C12561   8.026   5.369   4.544  1.0201 -0.0633 -0.6018
   94MOL0     C12562   7.904   5.407   4.493  1.0072  0.1304  0.6545
   94MOL0     O12563   7.829   5.503   4.565  0.3071 -0.1119  0.3286
   94MOL0     C12564   7.780   5.607   4.491  0.5454  0.4039  1.4070
   94MOL0     C12565   7.748   5.723   4.584 -0.6055 -0.2262 -0.5311
   94MOL0     C12566   7.753   5.858   4.511  0.2170  0.9080  0.3271
   94MOL0     C12567   7.896   5.898   4.471  0.5047  0.8405 -0.8589
   94MOL0     C12568   7.881   5.996   4.352 -0.2351 -0.8211  0.8355
   94MOL0     C12569   7.849   6.139   4.395 -0.1993 -0.7821 -0.2923
   94MOL0     C12570   7.857   6.244   4.277 -0.2795  0.3885 -0.6140
   94MOL0     C12571   7.760   6.220   4.167 -1.4507  0.5728 -0.6389
   94MOL0     N12572   7.625   6.214   4.207  0.0950 -0.2035 -0.4877
   94MOL0     C12573   7.556   6.118   4.274  0.2336  0.3935 -0.8846
   94MOL0     C12574   7.436   6.155   4.292 -0.0609 -0.0041 -0.2041
   94MOL0     C12575   7.328   6.086   4.366  0.7529 -0.4522 -0.2962
   94MOL0     C12576   7.366   6.025   4.506 -0.0537  0.0700  1.1763
   94MOL0     C12577   7.251   5.962   4.574  0.3340  0.1848  0.5278
   94MOL0     C12578   7.246   5.814   4.557  0.2799 -0.7743 -0.3192
   94MOL0     O12579   7.356   5.748   4.625  0.7849 -0.9168 -0.0986
   94MOL0     C12580   7.374   5.612   4.598 -1.0530  0.4392  0.5549
   94MOL0     C12581   7.314   5.539   4.491 -0.2345 -0.1188 -0.0852
   94MOL0     C12582   7.334   5.406   4.476  0.0444  0.2205 -0.0453
   94MOL0     C12583   7.426   5.332   4.555  0.6524  0.9158  0.0104
   94MOL0     C12584   7.434   5.184   4.549 -0.6758 -0.4198  0.1254
   94MOL0     O12585   7.359   5.121   4.459  0.5846 -0.0196  0.5499
   94MOL0     C12586   7.350   4.992   4.427  0.9266  0.7174 -0.7564
   94MOL0     C12587   7.321   4.948   4.295  0.6507 -0.0594 -0.3636
   94MOL0     C12588   7.313   4.812   4.271  0.2324  0.2305  0.5023
   94MOL0     C12589   7.344   4.718   4.367  0.0458  0.5467 -1.1908
   94MOL0     O12590   7.343   4.581   4.344 -1.0578 -0.5927 -0.0766
   94MOL0     C12591   7.379   4.525   4.213  0.4156 -0.2977 -0.1965
   94MOL0     C12592   7.366   4.374   4.221 -0.0260 -0.1840 -0.3827
   94MOL0     C12593   7.480   4.298   4.274  0.1136 -0.2790 -1.2528
   94MOL0     C12594   7.508   4.324   4.415  0.0230 -0.0213 -0.0707
   94MOL0     C12595   7.600   4.218   4.458  0.3187  0.6096 -1.2922
   94MOL0     C12596   7.686   4.241   4.587 -0.3648 -0.0352 -0.1837
   94MOL0     C12597   7.585   4.250   4.701  0.0415 -0.3810 -0.2930
   94MOL0     C12598   7.653   4.236   4.832  0.1804  0.1091 -0.2463
   94MOL0    Cl12599   7.799   4.335   4.856 -0.0147  0.3502 -0.0296
   94MOL0     C12600   7.361   4.754   4.503  0.1984  0.3395  1.1763
   94MOL0     C12601   7.353   4.899   4.531  0.3725  0.2741  0.1445
   94MOL0     O12602   7.506   5.135   4.628 -0.5653  0.2917 -0.0656
   94MOL0     C12603   7.490   5.405   4.662 -0.5947  0.5426 -0.0711
   94MOL0     C12604   7.464   5.543   4.681 -0.8035 -0.6966  0.3843
   94MOL0     N12605   7.413   6.277   4.231 -0.2082 -0.1677  0.4141
   94MOL0     N12606   7.525   6.307   4.189 -0.3436 -0.8304  0.2830
   94MOL0     C12607   7.861   5.362   4.370  0.7655 -0.7755  0.8551
   94MOL0     C12608   7.946   5.282   4.293  0.0705  0.0679 -0.2141
   94MOL0     C12609   8.284   4.994   4.181 -0.2077 -0.5560  0.0506
   94MOL0     C12610   8.273   4.851   4.194 -0.3191  0.4942  0.9852
   94MOL0     C12611   8.331   4.769   4.099  0.1449 -0.8745  0.1868
   94MOL0     C12612   8.410   4.823   3.991  0.2542 -0.1570  0.3956
   94MOL0     O12613   8.471   4.747   3.890 -0.6640  0.2804 -0.1255
   94MOL0     C12614   8.451   4.603   3.893  0.0851  0.0502 -0.2798
   94MOL0     C12615   8.539   4.531   3.798 -0.6144 -0.3539 -0.8826
   94MOL0     C12616   8.501   4.553   3.659  0.1453 -0.1488  0.0232
   94MOL0     C12617   8.351   4.530   3.632 -0.4127  0.1654  1.2065
   94MOL0     C12618   8.292   4.396   3.656 -0.3647  0.0719 -0.8743
   94MOL0     C12619   8.239   4.276   3.651  0.0036 -0.1307  0.9092
   94MOL0     C12620   8.420   4.964   3.985 -0.0190 -0.1587 -0.0202
   94MOL0     C12621   8.362   5.052   4.077 -0.0946 -1.5573 -0.6289
   94MOL0     C12622   8.402   5.199   4.071  0.4155  0.4332  0.0843
   94MOL0     H12623   8.227   5.295   4.491  0.9278  0.3665 -1.4288
   94MOL0     H12624   8.053   5.401   4.644  0.0548  0.1296 -0.3913
   94MOL0     H12625   7.859   5.632   4.420 -1.5110  0.5771 -0.9327
   94MOL0     H12626   7.692   5.562   4.444  1.3594 -1.0767  1.2475
   94MOL0     H12627   7.821   5.727   4.666  1.0868  1.0337 -2.0212
   94MOL0     H12628   7.644   5.719   4.619 -0.5197  1.7023  0.0673
   94MOL0     H12629   7.696   5.932   4.569 -3.1283 -1.7228  0.6909
   94MOL0     H12630   7.705   5.833   4.416  2.7597 -0.0694 -0.7624
   94MOL0     H12631   7.958   5.941   4.550  2.2124 -0.4884 -1.4083
   94MOL0     H12632   7.948   5.813   4.425  0.2634  0.1164  0.1733
   94MOL0     H12633   7.969   6.007   4.287 -2.0627  4.8443 -1.2917
   94MOL0     H12634   7.803   5.966   4.281  1.2375  0.0218 -1.2596
   94MOL0     H12635   7.752   6.140   4.446 -0.1954 -1.3716 -0.2689
   94MOL0     H12636   7.924   6.165   4.470  0.7667  0.6651 -1.6656
   94MOL0     H12637   7.960   6.237   4.238 -0.6534 -1.9182 -1.3839
   94MOL0     H12638   7.846   6.348   4.307 -1.6527 -0.6629  3.0544
   94MOL0     H12639   7.772   6.308   4.103 -2.5603  0.4336 -1.0613
   94MOL0     H12640   7.773   6.134   4.100 -1.7201  0.5258 -0.6332
   94MOL0     H12641   7.586   6.020   4.309 -0.4710 -0.6226 -2.9288
   94MOL0     H12642   7.243   6.155   4.367  0.7519 -0.4097 -1.4761
   94MOL0     H12643   7.286   6.003   4.307 -3.5245 -0.0020  1.7378
   94MOL0     H12644   7.447   5.953   4.496 -0.5804 -0.3550 -0.3870
   94MOL0     H12645   7.408   6.108   4.563  5.5047 -0.4620 -1.5106
   94MOL0     H12646   7.159   6.002   4.531 -0.4033 -0.7902  1.1438
   94MOL0     H12647   7.246   5.982   4.681  0.6704  0.3531  0.5118
   94MOL0     H12648   7.259   5.795   4.450 -0.1544  1.2495 -0.7698
   94MOL0     H12649   7.148   5.774   4.585 -0.3663  0.5826 -0.5564
   94MOL0     H12650   7.245   5.584   4.420  0.2961  0.3691 -0.2938
   94MOL0     H12651   7.269   5.353   4.407  0.3034  0.2342 -0.2987
   94MOL0     H12652   7.317   5.022   4.216  0.6275 -0.0438 -0.3476
   94MOL0     H12653   7.307   4.789   4.165  0.6310  0.2088  0.4799
   94MOL0     H12654   7.311   4.563   4.137 -0.8419  1.3528  1.6579
   94MOL0     H12655   7.481   4.552   4.185  0.8050 -0.5686  0.8935
   94MOL0     H12656   7.279   4.346   4.282  0.2326  0.2710  0.2097
   94MOL0     H12657   7.352   4.334   4.121 -0.4677  2.1328 -1.3074
   94MOL0     H12658   7.454   4.193   4.258 -1.9931 -0.5909  2.7909
   94MOL0     H12659   7.562   4.341   4.216 -0.6681 -2.0407 -3.8393
   94MOL0     H12660   7.407   4.330   4.457  0.1217  3.2905 -0.0735
   94MOL0     H12661   7.544   4.426   4.433  0.7825 -0.4317  0.7793
   94MOL0     H12662   7.669   4.188   4.378 -1.5822 -0.2425 -2.6907
   94MOL0     H12663   7.540   4.128   4.473  0.4548  0.9402  1.8757
   94MOL0     H12664   7.766   4.170   4.610  0.7267  0.2567 -2.6674
   94MOL0     H12665   7.750   4.330   4.582 -0.1757 -0.2038 -1.0511
   94MOL0     H12666   7.510   4.171   4.691 -0.7952 -0.0629  2.5454
   94MOL0     H12667   7.530   4.344   4.691 -2.2830 -1.9021 -3.5059
   94MOL0     H12668   7.579   4.245   4.912  5.0627 -0.1539  4.8882
   94MOL0     H12669   7.680   4.132   4.853 -0.0980  0.1008  0.0698
   94MOL0     H12670   7.374   4.672   4.574 -0.0265 -1.6592 -0.9741
   94MOL0     H12671   7.347   4.928   4.635 -0.3117  1.8311 -0.3092
   94MOL0     H12672   7.565   5.358   4.724 -1.1583  0.5863  0.6579
   94MOL0     H12673   7.504   5.600   4.764  0.4513  0.9537 -1.2502
   94MOL0     H12674   7.759   5.384   4.339  2.2514  3.2199 -1.9016
   94MOL0     H12675   7.905   5.233   4.205 -0.2379 -3.1659  1.5445
   94MOL0     H12676   8.199   4.804   4.257 -1.4272 -0.6717 -1.0804
   94MOL0     H12677   8.312   4.662   4.104  1.8959 -1.2223  0.1148
   94MOL0     H12678   8.348   4.570   3.884 -0.2396  0.5083  1.4047
   94MOL0     H12679   8.494   4.585   3.992  1.1506  0.2799 -0.6746
   94MOL0     H12680   8.534   4.423   3.815 -1.1769 -0.2886 -0.6170
   94MOL0     H12681   8.646   4.553   3.810  0.1195 -3.0839 -1.5874
   94MOL0     H12682   8.553   4.478   3.598 -2.5754 -1.4340 -0.8744
   94MOL0     H12683   8.533   4.653   3.628  1.0283  0.0325  1.4488
   94MOL0     H12684   8.299   4.615   3.678  0.9142 -0.4168  4.0485
   94MOL0     H12685   8.338   4.551   3.526 -1.8709 -2.7217  0.7315
   94MOL0     H12686   8.188   4.186   3.622 -0.1783  0.9056 -2.4011
   94MOL0     H12687   8.475   5.006   3.901 -0.4763  1.2315  0.3629
   94MOL0     H12688   8.475   5.204   3.990  1.4203 -2.7277  0.6422
   94MOL0     H12689   8.322   5.273   4.065 -0.3288 -0.2959  0.7637
   94MOL0     H12690   8.461   5.206   4.163 -0.7698 -2.3690  1.1515
   95MOL0     O12691   1.014   0.496   2.678  0.2046  0.5659  0.3665
   95MOL0     C12692   0.992   0.542   2.563  0.2180 -0.4645  0.3890
   95MOL0     O12693   1.031   0.661   2.509 -0.3179  0.7157  0.6494
   95MOL0     C12694   1.130   0.720   2.572  0.1106  0.7393 -0.5961
   95MOL0     C12695   1.105   0.807   2.675 -0.3341  0.7111 -0.2059
   95MOL0     C12696   1.207   0.861   2.756  0.7743  0.6162 -0.1631
   95MOL0     C12697   1.337   0.817   2.728 -0.1593 -0.1287 -0.4792
   95MOL0     O12698   1.435   0.853   2.818  0.3510  0.2198  0.2116
   95MOL0     C12699   1.567   0.830   2.778 -1.2200  0.1814 -0.7500
   95MOL0     C12700   1.667   0.855   2.893  0.4334  0.6336  0.0392
   95MOL0     C12701   1.652   0.727   2.981  0.7505 -0.5238  0.0284
   95MOL0     C12702   1.737   0.733   3.105  0.4198 -0.3091 -0.4934
   95MOL0     C12703   1.669   0.814   3.213  0.4535 -0.3707 -0.3482
   95MOL0     C12704   1.774   0.852   3.323  0.2210 -0.3670 -0.5168
   95MOL0     C12705   1.730   0.957   3.424  0.8527  0.5864 -0.6771
   95MOL0     C12706   1.833   1.000   3.532  0.6280 -0.9072  0.1093
   95MOL0     N12707   1.945   1.086   3.488 -0.0541  0.3761  0.2387
   95MOL0     C12708   1.923   1.217   3.448 -0.0636 -0.0501  0.5758
   95MOL0     C12709   2.039   1.234   3.378  0.2606 -0.3522 -0.2584
   95MOL0     C12710   2.076   1.370   3.319 -0.7227 -0.1136  0.0419
   95MOL0     C12711   1.968   1.437   3.226 -0.3316  0.2330  1.0108
   95MOL0     C12712   1.928   1.334   3.119 -0.5905  0.4948 -0.5900
   95MOL0     C12713   2.029   1.297   3.012  0.1350  0.4565  1.5000
   95MOL0     O12714   1.984   1.186   2.929 -0.1247 -0.5186 -0.3855
   95MOL0     C12715   2.054   1.074   2.926 -0.3013  0.4196  1.0734
   95MOL0     C12716   2.117   1.018   3.038  0.7266 -0.3738 -0.3237
   95MOL0     C12717   2.181   0.897   3.024 -0.5950  0.2474  0.9658
   95MOL0     C12718   2.208   0.841   2.891  0.0328 -0.3495  0.2606
   95MOL0     C12719   2.310   0.732   2.861 -0.0043  1.0338 -0.4555
   95MOL0     O12720   2.310   0.675   2.740 -0.6303  0.1536  0.9413
   95MOL0     C12721   2.409   0.583   2.713 -0.0962 -0.7533  0.2428
   95MOL0     C12722   2.397   0.454   2.768 -0.4206  0.3680 -0.5267
   95MOL0     C12723   2.501   0.350   2.753  0.2760 -0.7523 -0.8816
   95MOL0     C12724   2.611   0.386   2.681 -0.6281  0.4711  0.3425
   95MOL0     O12725   2.697   0.274   2.665 -0.1802 -0.2483 -0.1702
   95MOL0     C12726   2.834   0.300   2.625 -0.0141 -0.5413  0.6691
   95MOL0     C12727   2.920   0.175   2.637  0.4022  0.8717  0.0228
   95MOL0     C12728   3.073   0.217   2.637  0.1034  0.3501  0.8263
   95MOL0     C12729   3.168   0.104   2.675  0.4679  0.0074 -0.5104
   95MOL0     C12730   3.310   0.145   2.709 -0.4527 -0.2837 -0.2053
   95MOL0     C12731   3.405   0.025   2.729  0.7219  0.4914 -0.5137
   95MOL0     C12732   3.547   0.068   2.768  0.7686  0.0460  0.4488
   95MOL0     C12733   3.654  -0.033   2.725 -0.3036 -0.6176 -1.0231
   95MOL0    Cl12734   3.804   0.007   2.801  0.0416 -0.3730 -0.0014
   95MOL0     C12735   2.632   0.516   2.617 -0.1658 -0.0173  0.5056
   95MOL0     C12736   2.527   0.612   2.633  1.0190  1.6893  0.3214
   95MOL0     O12737   2.393   0.708   2.953 -0.4785  0.6864 -0.6974
   95MOL0     C12738   2.148   0.909   2.782  0.5854  0.4642 -0.4408
   95MOL0     C12739   2.077   1.016   2.794  0.4063 -0.2751 -0.5471
   95MOL0     N12740   2.122   1.140   3.392  0.5555  0.1649 -0.8484
   95MOL0     N12741   2.070   1.039   3.455 -0.1767 -0.1291  0.4455
   95MOL0     C12742   1.364   0.749   2.616  0.4190 -0.1052 -0.6278
   95MOL0     C12743   1.263   0.689   2.541 -0.3281 -0.3206  0.0623
   95MOL0     C12744   0.895   0.461   2.479 -0.6423 -0.6402 -0.9242
   95MOL0     C12745   0.811   0.376   2.544 -0.2245 -0.0445 -0.2515
   95MOL0     C12746   0.725   0.288   2.474 -0.2670 -0.1536 -0.5745
   95MOL0     C12747   0.727   0.287   2.338  0.0234 -0.6505  0.3366
   95MOL0     O12748   0.639   0.197   2.286  0.1252 -0.0930  0.0091
   95MOL0     C12749   0.680   0.150   2.158  0.1909 -0.5236 -0.2190
   95MOL0     C12750   0.819   0.086   2.151  1.7233 -0.4697 -0.3495
   95MOL0     C12751   0.853  -0.024   2.253 -0.3922 -0.0308 -0.2985
   95MOL0     C12752   0.909  -0.156   2.200 -0.4532  0.3117 -0.4350
   95MOL0     C12753   1.008  -0.135   2.100 -0.3559  0.2388 -0.5957
   95MOL0     C12754   1.108  -0.131   2.032  0.3409  0.0006  0.0112
   95MOL0     C12755   0.802   0.382   2.273  0.5918  0.2971 -0.0007
   95MOL0     C12756   0.893   0.462   2.341 -0.2047 -0.5315 -0.0021
   95MOL0     C12757   0.971   0.545   2.246 -0.3202  0.4956  0.4029
   95MOL0     H12758   0.998   0.818   2.694  0.1349  1.3262  2.6039
   95MOL0     H12759   1.172   0.912   2.845 -2.6011 -0.3526 -0.7794
   95MOL0     H12760   1.577   0.725   2.747  0.6808 -1.0217  3.2336
   95MOL0     H12761   1.584   0.896   2.693 -0.0752 -1.1115 -1.5650
   95MOL0     H12762   1.649   0.945   2.951  2.6997 -0.3828  2.5566
   95MOL0     H12763   1.764   0.857   2.843  0.9838  3.2591  1.0451
   95MOL0     H12764   1.698   0.650   2.919  0.3454 -1.1936  0.5415
   95MOL0     H12765   1.550   0.689   2.987  0.3199  0.7092  1.0373
   95MOL0     H12766   1.773   0.634   3.134  5.7538  1.1745 -1.0534
   95MOL0     H12767   1.827   0.781   3.067 -0.0504 -0.8473 -2.4195
   95MOL0     H12768   1.637   0.909   3.170  0.3186 -1.5910 -3.1763
   95MOL0     H12769   1.583   0.759   3.254 -0.0333  0.3479 -0.3910
   95MOL0     H12770   1.799   0.756   3.368  0.1437 -0.0798  0.1611
   95MOL0     H12771   1.862   0.894   3.274  0.4828  1.5996  1.4920
   95MOL0     H12772   1.634   0.924   3.465  1.5716 -0.7254  0.0253
   95MOL0     H12773   1.703   1.043   3.363 -2.3690  0.6410  0.6271
   95MOL0     H12774   1.770   1.052   3.605  1.5669 -0.7043  0.8021
   95MOL0     H12775   1.872   0.907   3.575  1.7897 -0.0096  1.0707
   95MOL0     H12776   1.836   1.281   3.434 -0.2502 -0.3014  0.5823
   95MOL0     H12777   2.117   1.437   3.394 -1.4185  0.0989  0.2422
   95MOL0     H12778   2.159   1.361   3.248  0.8586 -0.8426  1.8942
   95MOL0     H12779   1.888   1.468   3.293 -0.1357 -0.4940  1.5869
   95MOL0     H12780   1.999   1.528   3.175  0.8200  0.1821  1.6101
   95MOL0     H12781   1.846   1.376   3.061 -0.1107 -2.0143 -3.3745
   95MOL0     H12782   1.891   1.248   3.175  2.0696  0.7049  1.7570
   95MOL0     H12783   2.123   1.286   3.066 -0.6797  0.2351  2.9520
   95MOL0     H12784   2.040   1.385   2.949  0.6851 -0.8868 -0.3834
   95MOL0     H12785   2.100   1.062   3.136  0.3482  2.2066 -1.4894
   95MOL0     H12786   2.216   0.846   3.114  0.5016 -1.3863 -0.3231
   95MOL0     H12787   2.301   0.427   2.809  0.7027 -1.9447  0.7967
   95MOL0     H12788   2.494   0.251   2.797  0.9496 -0.7696 -0.8005
   95MOL0     H12789   2.835   0.344   2.525  0.1599  1.8353  1.6611
   95MOL0     H12790   2.877   0.372   2.694 -0.0695  2.9891 -2.6187
   95MOL0     H12791   2.892   0.122   2.728 -0.1277  0.8989 -0.1153
   95MOL0     H12792   2.912   0.108   2.551 -1.7726 -1.6161  1.9814
   95MOL0     H12793   3.103   0.252   2.538  1.1423 -1.9956  0.2277
   95MOL0     H12794   3.087   0.302   2.704  2.4914  0.2028  0.6096
   95MOL0     H12795   3.167   0.023   2.602  3.2781  0.8969 -1.7074
   95MOL0     H12796   3.125   0.065   2.768 -1.1036 -0.4240 -1.3963
   95MOL0     H12797   3.311   0.205   2.801  0.3265  0.0430 -0.4164
   95MOL0     H12798   3.347   0.217   2.636  1.4539 -0.6954  0.3113
   95MOL0     H12799   3.374  -0.054   2.799 -2.0362 -0.7909 -2.9086
   95MOL0     H12800   3.414  -0.031   2.635  1.9920 -2.2708  1.1372
   95MOL0     H12801   3.551   0.090   2.875 -0.8183  2.8355  0.0341
   95MOL0     H12802   3.556   0.166   2.719  0.1992 -0.0992  0.0406
   95MOL0     H12803   3.629  -0.136   2.750  2.5089 -1.2979 -0.7044
   95MOL0     H12804   3.666  -0.037   2.616  0.4818 -0.7759 -0.9351
   95MOL0     H12805   2.725   0.538   2.566 -0.3314  0.3536  0.3603
   95MOL0     H12806   2.532   0.710   2.586 -1.0029  1.2988 -0.7999
   95MOL0     H12807   2.161   0.870   2.682 -1.8613  3.2017 -1.9610
   95MOL0     H12808   2.035   1.064   2.706 -1.0667  2.0949  1.3448
   95MOL0     H12809   1.463   0.731   2.576  0.5232 -0.1421 -0.3548
   95MOL0     H12810   1.273   0.637   2.447 -0.6403  3.8887 -2.5612
   95MOL0     H12811   0.814   0.371   2.652 -2.2663  2.7872  0.0690
   95MOL0     H12812   0.651   0.224   2.521 -1.9106  2.8536  1.2452
   95MOL0     H12813   0.653   0.230   2.088  0.5130 -2.0157 -2.1303
   95MOL0     H12814   0.614   0.070   2.123 -1.0681 -0.8736  2.6384
   95MOL0     H12815   0.893   0.167   2.145  0.7983  0.2871 -3.3572
   95MOL0     H12816   0.812   0.041   2.052 -3.1333 -0.1226 -0.3770
   95MOL0     H12817   0.765  -0.044   2.314  0.9757 -0.5288  1.5873
   95MOL0     H12818   0.932   0.010   2.319 -1.4633 -0.8234  1.4473
   95MOL0     H12819   0.957  -0.208   2.283  0.0672  0.5951 -0.5542
   95MOL0     H12820   0.831  -0.220   2.158  1.0166 -1.3211 -0.7757
   95MOL0     H12821   1.193  -0.119   1.967  1.4704 -1.7540  1.0672
   95MOL0     H12822   0.790   0.408   2.169 -1.8089 -1.3655 -0.2196
   95MOL0     H12823   0.981   0.498   2.148 -1.0311  1.5524 -0.1981
   95MOL0     H12824   0.927   0.645   2.233 -0.6014  0.6344  2.1635
   95MOL0     H12825   1.071   0.550   2.290  0.5180 -0.9912 -1.2117
   96MOL0     O12826   7.458   1.911   4.728  0.1710  0.3706 -0.1468
   96MOL0     C12827   7.515   2.014   4.757 -0.0651  0.5527 -0.2400
   96MOL0     O12828   7.533   2.129   4.674 -0.0628  0.4258 -0.2055
   96MOL0     C12829   7.534   2.101   4.545 -0.7199 -0.3877 -0.0398
   96MOL0     C12830   7.449   2.169   4.469  1.0193  0.7815  1.3345
   96MOL0     C12831   7.448   2.152   4.334  0.5040  1.1382  0.4863
   96MOL0     C12832   7.535   2.071   4.260 -0.3164  0.3178 -0.1827
   96MOL0     O12833   7.543   2.064   4.127  0.4447  0.7420 -0.2619
   96MOL0     C12834   7.484   2.158   4.039 -0.2129 -0.1274  0.9734
   96MOL0     C12835   7.566   2.283   4.041  0.5761  0.6681 -0.0360
   96MOL0     C12836   7.726   2.263   4.012  0.9128  0.1748  0.1160
   96MOL0     C12837   7.764   2.188   3.881  0.2587 -0.6409  0.6808
   96MOL0     C12838   7.917   2.156   3.892  0.2228  0.1580 -0.6707
   96MOL0     C12839   7.960   2.068   3.770 -0.7817  0.1938 -0.0458
   96MOL0     C12840   7.889   1.924   3.758 -0.1979 -0.6165 -0.0265
   96MOL0     C12841   7.893   1.879   3.616 -1.0897  0.4318  0.1001
   96MOL0     N12842   7.790   1.926   3.517  1.0078  0.1101 -0.3041
   96MOL0     C12843   7.666   1.870   3.489 -0.3599 -0.0938  0.4179
   96MOL0     C12844   7.616   1.942   3.384 -0.0358  0.4707 -0.7822
   96MOL0     C12845   7.478   1.930   3.309 -0.6413 -0.5612  0.2153
   96MOL0     C12846   7.487   1.824   3.186  0.1344 -0.4646 -0.5908
   96MOL0     C12847   7.509   1.683   3.220 -0.7709  0.6050 -0.1018
   96MOL0     C12848   7.653   1.643   3.203 -0.5514  0.2947 -0.0168
   96MOL0     O12849   7.670   1.509   3.246  0.4153 -0.5626  0.2405
   96MOL0     C12850   7.675   1.413   3.146 -0.3221  0.5226 -0.7375
   96MOL0     C12851   7.635   1.424   3.016  0.1430  0.0398  0.1375
   96MOL0     C12852   7.655   1.318   2.924  0.2055  0.2442 -0.6660
   96MOL0     C12853   7.698   1.192   2.966  0.9575  0.6339 -0.0290
   96MOL0     C12854   7.729   1.084   2.877  0.3215  0.0225  0.4918
   96MOL0     O12855   7.732   0.958   2.925 -0.5265 -0.5709  0.2239
   96MOL0     C12856   7.752   0.858   2.836  0.2004 -0.7432 -0.5273
   96MOL0     C12857   7.880   0.807   2.822 -0.7650 -0.2833  0.2113
   96MOL0     C12858   7.912   0.710   2.722 -0.4870  0.5691 -0.2843
   96MOL0     C12859   7.815   0.671   2.633 -0.7400 -0.1844 -1.4006
   96MOL0     O12860   7.849   0.575   2.541 -0.0119 -0.3976 -0.5281
   96MOL0     C12861   7.830   0.629   2.407 -0.2202 -0.3599 -0.4356
   96MOL0     C12862   7.898   0.765   2.378 -0.5520 -0.8972 -0.7322
   96MOL0     C12863   8.051   0.761   2.390  0.5223 -0.3305  0.2194
   96MOL0     C12864   8.120   0.899   2.396  0.3076 -0.6175 -0.2569
   96MOL0     C12865   8.254   0.876   2.468  0.5006  0.2371 -0.3936
   96MOL0     C12866   8.323   1.005   2.498 -0.1747 -0.4780 -1.2149
   96MOL0     C12867   8.414   1.071   2.391 -0.2152  0.0808  0.8530
   96MOL0     C12868   8.494   1.179   2.451 -0.2462 -0.2195  0.2549
   96MOL0    Cl12869   8.570   1.280   2.325  0.0839  0.4703 -0.1081
   96MOL0     C12870   7.685   0.712   2.647  0.3578 -0.4350  0.1343
   96MOL0     C12871   7.647   0.804   2.752 -1.4686 -0.1824 -0.1566
   96MOL0     O12872   7.733   1.115   2.748 -0.2497  0.2577 -0.7159
   96MOL0     C12873   7.750   1.189   3.094  1.3056  0.6479  0.7902
   96MOL0     C12874   7.728   1.292   3.186 -0.1687 -0.2105  0.4680
   96MOL0     N12875   7.717   2.030   3.344 -0.3205  0.4257  0.8932
   96MOL0     N12876   7.819   2.019   3.424  0.4417 -0.3418 -0.1323
   96MOL0     C12877   7.626   1.997   4.334  0.0622  0.8303 -0.5513
   96MOL0     C12878   7.619   2.007   4.477 -0.0756  0.3757 -1.0818
   96MOL0     C12879   7.542   2.035   4.903 -0.1935  0.5601  0.1447
   96MOL0     C12880   7.449   1.983   5.000  0.8704  0.6550  0.6267
   96MOL0     C12881   7.478   2.008   5.136  0.7080 -0.2122 -0.1796
   96MOL0     C12882   7.593   2.075   5.181 -0.1044  0.3524 -0.7068
   96MOL0     O12883   7.610   2.115   5.316 -0.1751 -0.6662  0.0209
   96MOL0     C12884   7.638   2.254   5.350 -1.1741 -0.8696 -0.4114
   96MOL0     C12885   7.620   2.301   5.492 -0.1361 -0.3119  0.1780
   96MOL0     C12886   7.637   2.197   5.599  0.3732 -0.4084 -0.1389
   96MOL0     C12887   7.598   2.264   5.735 -0.0224  0.9084 -0.2131
   96MOL0     C12888   7.534   2.164   5.822  0.5477 -0.3781 -0.1922
   96MOL0     C12889   7.497   2.082   5.899  0.9920 -0.5339 -0.4079
   96MOL0     C12890   7.683   2.108   5.085  1.5220  0.5429  0.2072
   96MOL0     C12891   7.662   2.093   4.950  1.1349 -0.1078  0.6828
   96MOL0     C12892   7.779   2.122   4.855  0.6332  0.2410 -0.9657
   96MOL0     H12893   7.376   2.230   4.521 -1.0465 -0.3460 -0.1254
   96MOL0     H12894   7.375   2.215   4.283 -1.9536 -0.7228  1.4631
   96MOL0     H12895   7.480   2.117   3.938  3.6787  1.5164 -0.0304
   96MOL0     H12896   7.386   2.197   4.065  0.6017  1.9469  1.1147
   96MOL0     H12897   7.562   2.326   4.142 -3.0131 -0.9417  0.6815
   96MOL0     H12898   7.515   2.342   3.965 -0.8019  0.4277  0.6658
   96MOL0     H12899   7.759   2.201   4.096 -2.8900 -0.0711  1.6558
   96MOL0     H12900   7.775   2.361   4.016 -1.7473  1.5834  3.4465
   96MOL0     H12901   7.702   2.097   3.877 -2.9647  1.3844  0.8272
   96MOL0     H12902   7.748   2.249   3.791  6.6688 -0.6220 -0.8989
   96MOL0     H12903   7.977   2.248   3.900 -0.3196  0.4024  0.9436
   96MOL0     H12904   7.942   2.098   3.981  0.4635  0.0565 -0.8024
   96MOL0     H12905   7.937   2.124   3.678  0.0924 -0.6338 -0.7911
   96MOL0     H12906   8.068   2.055   3.782 -0.8843 -0.5495  0.1302
   96MOL0     H12907   7.788   1.928   3.801 -0.6010 -0.1775 -0.9739
   96MOL0     H12908   7.952   1.854   3.814  2.4278  0.1531 -1.8481
   96MOL0     H12909   7.980   1.925   3.568  0.1088 -1.8004 -0.0412
   96MOL0     H12910   7.900   1.770   3.608  1.3057  0.5942 -0.8158
   96MOL0     H12911   7.643   1.780   3.546  1.8652 -0.7365  0.3943
   96MOL0     H12912   7.395   1.888   3.367 -0.7173 -4.3095 -2.2424
   96MOL0     H12913   7.442   2.030   3.284 -0.7851 -1.0037 -1.4400
   96MOL0     H12914   7.401   1.840   3.121  0.4095  0.4050 -0.7558
   96MOL0     H12915   7.572   1.850   3.122 -0.4138 -0.1214 -1.1889
   96MOL0     H12916   7.445   1.622   3.156 -2.5544  0.6360  1.5516
   96MOL0     H12917   7.477   1.663   3.323  1.9061  0.0535  0.7043
   96MOL0     H12918   7.708   1.705   3.275  1.6902 -1.0340 -0.4751
   96MOL0     H12919   7.685   1.661   3.100  0.2989 -0.4644  0.1045
   96MOL0     H12920   7.595   1.514   2.970  0.1469 -0.8449 -1.6996
   96MOL0     H12921   7.612   1.342   2.828  0.6598  4.2506 -0.0152
   96MOL0     H12922   7.954   0.841   2.895 -0.5840  0.7760 -0.4497
   96MOL0     H12923   8.014   0.672   2.721 -1.1730 -1.4884  1.5231
   96MOL0     H12924   7.853   0.556   2.329  0.7894 -0.8930  0.3264
   96MOL0     H12925   7.722   0.640   2.402 -0.1457  0.5879 -0.1056
   96MOL0     H12926   7.869   0.797   2.278 -1.5168  1.4395  0.2282
   96MOL0     H12927   7.862   0.843   2.446  2.3889  0.2192 -0.2881
   96MOL0     H12928   8.076   0.705   2.480 -3.0076 -0.2569  1.4042
   96MOL0     H12929   8.095   0.720   2.299  2.2833 -0.9790  1.3195
   96MOL0     H12930   8.058   0.969   2.452 -0.9312  0.8504 -3.2590
   96MOL0     H12931   8.137   0.943   2.297 -0.2560 -1.0673 -0.5612
   96MOL0     H12932   8.321   0.802   2.424  3.6350 -0.9451  5.4180
   96MOL0     H12933   8.224   0.834   2.564 -1.9395  2.0333 -0.2630
   96MOL0     H12934   8.258   1.091   2.514  0.6654 -0.2587  1.6776
   96MOL0     H12935   8.370   0.992   2.597 -4.3664  2.0633  1.4043
   96MOL0     H12936   8.358   1.116   2.309  1.5172  0.8205  0.0273
   96MOL0     H12937   8.485   0.999   2.351  1.9024  0.7441  3.1825
   96MOL0     H12938   8.441   1.242   2.523  2.1422 -0.5093  2.4283
   96MOL0     H12939   8.558   1.129   2.524  0.0576 -0.7977 -0.3898
   96MOL0     H12940   7.604   0.663   2.594 -0.8954 -0.1136  1.6641
   96MOL0     H12941   7.546   0.840   2.772 -0.5247  0.8715  3.3721
   96MOL0     H12942   7.799   1.105   3.142 -2.5313 -0.4227  3.1927
   96MOL0     H12943   7.759   1.281   3.290 -2.2496 -0.3108  1.1139
   96MOL0     H12944   7.696   1.926   4.291  1.3998 -0.2568  3.0671
   96MOL0     H12945   7.702   1.961   4.530 -1.2333 -2.2037 -1.3396
   96MOL0     H12946   7.366   1.931   4.954  0.6972 -1.0716  2.7844
   96MOL0     H12947   7.396   1.997   5.205  1.4310  1.0405  0.9105
   96MOL0     H12948   7.591   2.326   5.283  0.8977  2.7729  1.7506
   96MOL0     H12949   7.744   2.266   5.324 -1.2255  2.4645  0.4988
   96MOL0     H12950   7.515   2.332   5.503 -1.2057 -3.5224  0.0659
   96MOL0     H12951   7.681   2.391   5.502 -1.0536  0.2026  1.5206
   96MOL0     H12952   7.743   2.172   5.604  0.0407 -1.8584  0.1210
   96MOL0     H12953   7.564   2.118   5.577 -1.8528  1.7502 -1.0369
   96MOL0     H12954   7.689   2.302   5.782  0.1817  0.6556 -0.4024
   96MOL0     H12955   7.525   2.345   5.726 -0.0329  1.3653  2.7742
   96MOL0     H12956   7.451   2.019   5.973 -2.3997 -0.0009 -1.8740
   96MOL0     H12957   7.771   2.164   5.113  0.4030  2.2074  0.5154
   96MOL0     H12958   7.742   2.156   4.757 -1.3810  0.6225 -0.1203
   96MOL0     H12959   7.851   2.200   4.880  1.5470 -0.5197 -1.1620
   96MOL0     H12960   7.837   2.031   4.839  1.2508  0.3898  0.3449
   97MOL0     O12961   0.835   4.981   2.743 -0.5208  0.9654 -0.3112
   97MOL0     C12962   0.809   4.892   2.829  0.5963 -0.1176 -0.3677
   97MOL0     O12963   0.884   4.791   2.870  0.5552  0.7199 -0.1791
   97MOL0     C12964   1.007   4.765   2.802  0.7083 -0.0133  0.6165
   97MOL0     C12965   0.995   4.714   2.670 -0.5163 -0.4054 -0.7026
   97MOL0     C12966   1.109   4.688   2.597  0.5084 -0.3258 -0.4025
   97MOL0     C12967   1.234   4.714   2.663  0.4037 -0.8929 -0.2811
   97MOL0     O12968   1.348   4.689   2.597 -0.0480  0.5519  0.1746
   97MOL0     C12969   1.440   4.799   2.584 -0.3176  0.5557  0.4491
   97MOL0     C12970   1.525   4.788   2.456 -0.0578  0.0528 -0.2921
   97MOL0     C12971   1.436   4.749   2.331 -1.8285 -0.3010 -0.6988
   97MOL0     C12972   1.521   4.780   2.202  0.4130 -0.3372  1.3671
   97MOL0     C12973   1.454   4.698   2.088  0.6423  0.3950 -0.0623
   97MOL0     C12974   1.554   4.648   1.981  0.4385  0.6657  0.6064
   97MOL0     C12975   1.669   4.559   2.029 -1.0069  0.4620 -0.3930
   97MOL0     C12976   1.756   4.481   1.930  0.1289 -0.3547 -0.4014
   97MOL0     N12977   1.874   4.421   2.005 -0.5602 -0.8957  0.0005
   97MOL0     C12978   1.910   4.288   2.014 -0.5199  0.0167 -0.0802
   97MOL0     C12979   2.016   4.287   2.087 -0.7702  0.2424 -0.2294
   97MOL0     C12980   2.111   4.172   2.105  0.0103  0.1577  0.2378
   97MOL0     C12981   2.050   4.076   2.202  0.4436  0.5405  0.0384
   97MOL0     C12982   1.939   3.990   2.149  0.8975  0.0315 -0.6699
   97MOL0     C12983   1.810   4.010   2.236  0.1540  0.0748 -0.5600
   97MOL0     O12984   1.694   3.939   2.172 -0.8415 -0.6319 -0.0899
   97MOL0     C12985   1.614   4.005   2.079 -0.1345  1.0289 -0.3381
   97MOL0     C12986   1.532   3.930   1.983  0.6362  0.2197 -0.4195
   97MOL0     C12987   1.438   4.001   1.897  0.1374  0.4572  0.3572
   97MOL0     C12988   1.412   4.138   1.916  0.4972  0.3478  0.0598
   97MOL0     C12989   1.297   4.204   1.853 -0.3287  0.4758  0.6387
   97MOL0     O12990   1.296   4.334   1.859 -0.4196 -0.8455  0.2878
   97MOL0     C12991   1.206   4.398   1.773 -0.0472  1.4372  0.0723
   97MOL0     C12992   1.067   4.423   1.803 -1.1069 -0.2311 -0.7124
   97MOL0     C12993   0.994   4.480   1.703  0.4704  0.1818 -0.0492
   97MOL0     C12994   1.034   4.502   1.572 -0.5232  0.0143 -0.0815
   97MOL0     O12995   0.955   4.538   1.465  0.0571 -0.2235  0.1822
   97MOL0     C12996   0.814   4.521   1.473  0.3556  0.2522 -0.6336
   97MOL0     C12997   0.754   4.646   1.543  1.1737  0.5455 -0.6499
   97MOL0     C12998   0.617   4.681   1.483 -0.5150 -1.0152  0.2617
   97MOL0     C12999   0.525   4.576   1.527 -0.3837  0.3915  0.0140
   97MOL0     C13000   0.397   4.567   1.440  0.5988  0.6845 -0.2255
   97MOL0     C13001   0.304   4.685   1.482  0.0093 -0.7071  0.4621
   97MOL0     C13002   0.170   4.662   1.415  0.9489 -0.3477  0.2916
   97MOL0     C13003   0.063   4.739   1.492 -1.0564  0.1204 -0.6167
   97MOL0    Cl13004   0.033   4.665   1.654  0.3810 -0.2147 -0.1076
   97MOL0     C13005   1.171   4.484   1.559  0.0735 -0.0587  0.2130
   97MOL0     C13006   1.258   4.441   1.654  0.1635  0.1402 -0.1698
   97MOL0     O13007   1.212   4.133   1.801 -0.2437  0.4549 -0.0916
   97MOL0     C13008   1.490   4.207   2.004  0.2621  0.3857  0.3418
   97MOL0     C13009   1.594   4.143   2.079  1.1329  0.1270  0.1532
   97MOL0     N13010   2.042   4.413   2.137  0.3512 -0.9135 -0.0573
   97MOL0     N13011   1.965   4.500   2.076 -1.0543  0.3715 -0.5699
   97MOL0     C13012   1.237   4.760   2.796 -0.7497  0.3371 -0.6932
   97MOL0     C13013   1.129   4.779   2.866  0.2003  0.4373  0.2431
   97MOL0     C13014   0.687   4.913   2.917 -0.3722 -0.4421  0.9970
   97MOL0     C13015   0.718   4.924   3.060  0.5292 -0.5142 -0.3530
   97MOL0     C13016   0.616   4.949   3.155 -0.5105  0.2368 -0.4465
   97MOL0     C13017   0.482   4.953   3.104  0.1206  0.5986  0.0708
   97MOL0     O13018   0.368   4.989   3.172  0.1357  0.3624 -0.0248
   97MOL0     C13019   0.380   5.004   3.318  0.1171  0.0334  0.4653
   97MOL0     C13020   0.266   5.064   3.400  0.1913  0.3367  0.1885
   97MOL0     C13021   0.136   5.075   3.314 -0.1393 -0.0163 -0.4325
   97MOL0     C13022   0.017   5.112   3.393 -0.7100  0.0986  0.1560
   97MOL0     C13023  -0.011   5.002   3.490  0.2091 -0.9187 -1.0196
   97MOL0     C13024  -0.034   4.908   3.569  0.5120  0.9028 -0.0533
   97MOL0     C13025   0.456   4.925   2.970 -0.5925 -0.0806  0.6244
   97MOL0     C13026   0.553   4.911   2.873 -0.7224 -0.6323 -1.1122
   97MOL0     C13027   0.516   4.902   2.732 -0.1002  0.8102  0.9277
   97MOL0     H13028   0.902   4.701   2.616 -0.7406 -2.4035  0.0726
   97MOL0     H13029   1.108   4.651   2.495  2.4064 -1.1958 -0.1575
   97MOL0     H13030   1.378   4.889   2.572 -0.7140  0.3791  1.1658
   97MOL0     H13031   1.496   4.790   2.677 -1.1871  0.1238  0.9459
   97MOL0     H13032   1.609   4.719   2.468 -0.0176 -0.0133 -0.9211
   97MOL0     H13033   1.578   4.883   2.446  2.2962 -1.3832 -2.9458
   97MOL0     H13034   1.350   4.816   2.334 -3.4253 -2.2309 -0.7509
   97MOL0     H13035   1.398   4.647   2.342 -3.4667  0.3380 -0.2856
   97MOL0     H13036   1.507   4.887   2.185 -0.0539 -0.4042  1.3127
   97MOL0     H13037   1.626   4.752   2.210  0.1881 -1.0231  2.0773
   97MOL0     H13038   1.403   4.609   2.127  1.0566  0.3592  0.4088
   97MOL0     H13039   1.374   4.756   2.043 -1.3874 -1.4918  0.9497
   97MOL0     H13040   1.489   4.592   1.914 -0.6374  2.1582  0.3584
   97MOL0     H13041   1.596   4.732   1.925  1.1391 -1.5720 -2.4755
   97MOL0     H13042   1.629   4.481   2.095 -1.3932  0.1390 -0.9936
   97MOL0     H13043   1.743   4.622   2.079  0.8994  0.5937 -3.0826
   97MOL0     H13044   1.688   4.415   1.875 -2.5375  0.4496  1.7307
   97MOL0     H13045   1.794   4.551   1.855 -0.5179  4.3165  3.1631
   97MOL0     H13046   1.871   4.197   1.968  1.0303 -2.9718  3.9102
   97MOL0     H13047   2.134   4.127   2.008  0.9736 -1.0953  1.0087
   97MOL0     H13048   2.210   4.206   2.139 -0.5644  3.2966 -0.8718
   97MOL0     H13049   2.132   4.014   2.239 -0.7416 -0.3270  1.3237
   97MOL0     H13050   2.014   4.130   2.290  1.2151  3.7327 -1.4944
   97MOL0     H13051   1.968   3.884   2.151  4.4260  0.8588 -0.0167
   97MOL0     H13052   1.903   4.014   2.049 -1.5167 -0.0970  0.1175
   97MOL0     H13053   1.778   4.110   2.266 -1.1585 -0.4633 -0.1142
   97MOL0     H13054   1.825   3.962   2.333 -1.3732  0.6627 -0.0110
   97MOL0     H13055   1.540   3.825   1.956  0.6192  1.1615 -4.9352
   97MOL0     H13056   1.388   3.937   1.825 -0.1274  1.6443 -0.5473
   97MOL0     H13057   1.020   4.413   1.900  1.1061 -1.6241  0.2821
   97MOL0     H13058   0.890   4.498   1.729  0.7033 -2.1179  3.1187
   97MOL0     H13059   0.769   4.532   1.374 -2.6611 -0.7090  0.4887
   97MOL0     H13060   0.785   4.426   1.519  1.0865  0.7372  0.8937
   97MOL0     H13061   0.733   4.638   1.650  1.2070 -0.0854 -0.6863
   97MOL0     H13062   0.818   4.733   1.525  1.2618  0.7213  0.4582
   97MOL0     H13063   0.578   4.777   1.521  3.2015  0.1114  1.6773
   97MOL0     H13064   0.644   4.689   1.377  2.2456 -0.8801  0.8882
   97MOL0     H13065   0.495   4.592   1.631 -0.0624  0.3461  0.1142
   97MOL0     H13066   0.562   4.473   1.527 -1.4250 -0.1523  3.9318
   97MOL0     H13067   0.346   4.473   1.460 -0.5249 -0.0518 -5.2111
   97MOL0     H13068   0.424   4.562   1.334  0.9485 -0.2894 -0.0994
   97MOL0     H13069   0.302   4.700   1.590 -2.9049 -0.9406  0.5055
   97MOL0     H13070   0.337   4.778   1.433 -5.2633  0.8553 -0.7588
   97MOL0     H13071   0.132   4.559   1.413 -0.1632  0.0378 -1.8611
   97MOL0     H13072   0.184   4.703   1.315  1.5913  2.2703  1.3749
   97MOL0     H13073   0.095   4.844   1.491  0.1411 -0.1891 -2.5648
   97MOL0     H13074  -0.035   4.728   1.445 -2.1492  0.2258  1.5356
   97MOL0     H13075   1.204   4.509   1.459 -0.1201 -0.8608 -0.0626
   97MOL0     H13076   1.365   4.430   1.639  0.2573 -4.3545  2.0218
   97MOL0     H13077   1.461   4.311   2.014 -2.6270 -0.2493 -0.5338
   97MOL0     H13078   1.657   4.215   2.131  1.3745  0.6045 -0.7732
   97MOL0     H13079   1.327   4.778   2.854 -1.9161  2.7724  0.5216
   97MOL0     H13080   1.127   4.801   2.973  3.2924  1.6694  0.1525
   97MOL0     H13081   0.820   4.932   3.097  0.5115 -2.7862  0.2729
   97MOL0     H13082   0.639   4.953   3.261 -1.8657 -1.1795 -0.0583
   97MOL0     H13083   0.470   5.064   3.333 -0.0374  0.6918 -1.0408
   97MOL0     H13084   0.401   4.905   3.360 -0.3221 -1.2425 -2.1353
   97MOL0     H13085   0.300   5.159   3.443  1.7963 -0.2671  0.3104
   97MOL0     H13086   0.253   5.007   3.492 -4.9269  1.2515  0.3330
   97MOL0     H13087   0.112   4.979   3.269 -1.5977 -0.2831  0.8515
   97MOL0     H13088   0.159   5.143   3.230  1.2999  0.8040  0.5795
   97MOL0     H13089   0.042   5.207   3.439  1.9482 -0.3501 -0.2151
   97MOL0     H13090  -0.073   5.127   3.331 -1.3615  1.1851  1.3219
   97MOL0     H13091  -0.048   4.833   3.645  0.8462 -0.4429 -1.2626
   97MOL0     H13092   0.356   4.934   2.929 -1.1617  0.2811  2.0228
   97MOL0     H13093   0.413   4.866   2.722 -1.2213  4.2920 -4.0459
   97MOL0     H13094   0.523   5.003   2.691  1.1922  0.8928  1.3204
   97MOL0     H13095   0.579   4.837   2.670  3.2318  1.9588  2.8291
   98MOL0     O13096   8.094  10.498   5.116  0.1592 -0.0813  0.1215
   98MOL0     C13097   8.170  10.473   5.205  0.0703  0.0878  0.0071
   98MOL0     O13098   8.307  10.475   5.204 -0.6693 -0.8289 -0.0875
   98MOL0     C13099   8.372  10.530   5.095  0.1543  1.3469  0.2564
   98MOL0     C13100   8.333  10.637   5.014  0.2434  0.6416 -0.2217
   98MOL0     C13101   8.409  10.670   4.904 -1.2265  0.6973  0.7613
   98MOL0     C13102   8.537  10.612   4.883 -0.5188 -0.7620 -0.0339
   98MOL0     O13103   8.609  10.664   4.788 -0.1253 -0.0576 -0.4548
   98MOL0     C13104   8.720  10.595   4.734  0.1707 -0.1045  0.7727
   98MOL0     C13105   8.747  10.647   4.592 -0.0697  0.2175  0.4902
   98MOL0     C13106   8.737  10.796   4.590  0.0975  0.1541 -0.1905
   98MOL0     C13107   8.754  10.848   4.448  0.3106  0.1358  0.1113
   98MOL0     C13108   8.802  10.992   4.456 -0.0814 -0.2022 -0.3687
   98MOL0     C13109   8.865  11.028   4.318 -0.2885  0.2431 -0.1227
   98MOL0     C13110   8.997  10.972   4.276  1.0401 -0.5027 -0.5683
   98MOL0     C13111   9.120  11.017   4.377 -0.0291  0.3454  0.4410
   98MOL0     N13112   9.262  10.973   4.333 -0.3245  0.5600 -0.3219
   98MOL0     C13113   9.375  11.053   4.355  0.8110  0.0677 -0.0321
   98MOL0     C13114   9.459  11.010   4.258  0.1541 -0.3352  0.0427
   98MOL0     C13115   9.595  11.070   4.228 -1.0340 -0.4581  0.5406
   98MOL0     C13116   9.713  10.971   4.256 -0.4050  1.0168 -0.4555
   98MOL0     C13117   9.843  11.048   4.250 -1.1703 -0.0900 -0.1971
   98MOL0     C13118   9.969  10.960   4.242  0.2635 -0.3406 -0.5151
   98MOL0     O13119   9.981  10.900   4.110  0.7226  0.5671 -0.0498
   98MOL0     C13120  10.045  10.971   4.011  0.6554  0.1801  0.0968
   98MOL0     C13121  10.088  10.887   3.917  0.3462  0.0901 -0.0861
   98MOL0     C13122  10.158  10.941   3.807  0.0197 -1.1095 -0.6222
   98MOL0     C13123  10.170  11.084   3.786 -0.3402 -0.3705 -0.6506
   98MOL0     C13124  10.226  11.140   3.662 -0.0345 -0.0694 -0.3797
   98MOL0     O13125  10.218  11.276   3.656  0.1546 -0.4811  0.0750
   98MOL0     C13126  10.249  11.346   3.538 -0.1008 -0.3946 -0.4087
   98MOL0     C13127  10.318  11.465   3.553  0.0415 -0.8116  0.3209
   98MOL0     C13128  10.347  11.549   3.443 -0.3660 -0.8336  0.1362
   98MOL0     C13129  10.340  11.505   3.316 -0.0604  0.7001  0.7905
   98MOL0     O13130  10.394  11.588   3.221 -0.5525 -0.4951 -0.9490
   98MOL0     C13131  10.433  11.547   3.090  1.0295 -0.0101  0.4650
   98MOL0     C13132  10.562  11.471   3.099  0.3895 -0.5786  1.1424
   98MOL0     C13133  10.670  11.575   3.111  0.0597 -0.6269 -0.6518
   98MOL0     C13134  10.802  11.508   3.122  0.1456  0.4054 -0.2473
   98MOL0     C13135  10.906  11.608   3.168  0.0972  0.4641 -0.3626
   98MOL0     C13136  11.041  11.540   3.158 -0.1285 -0.5251 -0.8032
   98MOL0     C13137  11.158  11.631   3.218  0.6215  0.1342  0.7283
   98MOL0     C13138  11.291  11.574   3.150 -0.0155  1.1840  0.5966
   98MOL0    Cl13139  11.321  11.408   3.207  0.6447 -0.3676  0.0509
   98MOL0     C13140  10.268  11.386   3.297 -0.2033 -0.5596 -1.3133
   98MOL0     C13141  10.215  11.303   3.407  0.6619 -0.9179  1.1096
   98MOL0     O13142  10.255  11.062   3.568  0.4350  0.2594 -0.6167
   98MOL0     C13143  10.117  11.167   3.882  1.0376  0.2069 -0.9736
   98MOL0     C13144  10.066  11.110   4.004  0.1632 -0.1051  0.2087
   98MOL0     N13145   9.405  10.902   4.190 -0.3692  0.1807  0.1558
   98MOL0     N13146   9.287  10.883   4.240  0.0197  0.2710  1.4889
   98MOL0     C13147   8.573  10.514   4.972 -0.7619  0.0590  0.1859
   98MOL0     C13148   8.491  10.468   5.081  0.4951 -0.0305  0.8263
   98MOL0     C13149   8.108  10.423   5.330 -0.6467  0.0514 -1.1757
   98MOL0     C13150   8.196  10.407   5.444 -0.7147 -0.2713 -0.2149
   98MOL0     C13151   8.158  10.351   5.573 -0.0789 -0.0005  0.5594
   98MOL0     C13152   8.037  10.303   5.585  0.2952 -0.1251 -0.2067
   98MOL0     O13153   7.995  10.237   5.702 -0.2570  0.2796 -0.6216
   98MOL0     C13154   8.070  10.238   5.814  0.1816  1.3361 -1.0463
   98MOL0     C13155   8.016  10.128   5.911  0.4711  0.2909 -0.5352
   98MOL0     C13156   8.044  10.166   6.049  0.7398  0.9194  0.1378
   98MOL0     C13157   7.932  10.229   6.138 -0.9409 -0.1554  1.0979
   98MOL0     C13158   7.897  10.363   6.083  0.1549  0.7122  0.2952
   98MOL0     C13159   7.864  10.474   6.035 -0.7341  1.4615  0.0082
   98MOL0     C13160   7.944  10.309   5.475 -0.8675  0.2617  0.0110
   98MOL0     C13161   7.973  10.379   5.356 -0.3410 -1.4773  0.6247
   98MOL0     C13162   7.869  10.387   5.247 -0.0432 -0.5543  0.6237
   98MOL0     H13163   8.240  10.691   5.025  0.6402  1.3792 -0.4314
   98MOL0     H13164   8.391  10.748   4.832  1.6227 -1.4789 -2.6530
   98MOL0     H13165   8.809  10.602   4.797 -1.3131 -2.8562  3.4194
   98MOL0     H13166   8.704  10.487   4.734  0.5711 -0.2278 -2.2242
   98MOL0     H13167   8.673  10.600   4.526 -0.0030 -0.1077  0.6465
   98MOL0     H13168   8.849  10.623   4.564  0.6912  2.2545  1.3231
   98MOL0     H13169   8.813  10.835   4.658  0.1689  0.7145 -0.5935
   98MOL0     H13170   8.639  10.823   4.632  1.2545 -1.4721  4.1095
   98MOL0     H13171   8.825  10.786   4.392  2.2369  2.2264  0.1053
   98MOL0     H13172   8.658  10.855   4.395  1.2815  0.1327 -1.7072
   98MOL0     H13173   8.714  11.055   4.471 -0.9999 -0.8770 -2.4463
   98MOL0     H13174   8.871  11.010   4.539 -0.4951 -3.9110  0.9595
   98MOL0     H13175   8.793  10.982   4.250 -0.0123 -3.5802  1.8485
   98MOL0     H13176   8.865  11.137   4.317 -0.5390  0.4245  3.5130
   98MOL0     H13177   9.013  11.023   4.181 -1.4314  3.2238  0.8108
   98MOL0     H13178   8.985  10.863   4.277 -1.8113 -0.2614 -1.3508
   98MOL0     H13179   9.120  11.127   4.376  1.3397  0.3637 -1.2914
   98MOL0     H13180   9.110  10.977   4.479  0.7656 -1.2072 -0.0639
   98MOL0     H13181   9.390  11.148   4.404 -0.3627  2.2451 -3.5077
   98MOL0     H13182   9.597  11.118   4.130  0.0540 -0.4842  0.5383
   98MOL0     H13183   9.612  11.158   4.290 -3.2484 -0.0448  0.6599
   98MOL0     H13184   9.710  10.927   4.356  2.5508  1.1468 -0.2115
   98MOL0     H13185   9.723  10.886   4.188  1.5053  0.0279  0.9585
   98MOL0     H13186   9.857  11.118   4.332 -1.0866  3.9720 -3.3759
   98MOL0     H13187   9.837  11.113   4.163  0.9272 -1.8065 -1.7400
   98MOL0     H13188   9.962  10.884   4.321 -0.9486  3.5775  3.5584
   98MOL0     H13189  10.065  11.008   4.261  0.2901 -0.7121  0.3618
   98MOL0     H13190  10.066  10.781   3.925  2.7028 -0.5537 -1.2892
   98MOL0     H13191  10.186  10.876   3.724  3.6678  3.9501 -3.9714
   98MOL0     H13192  10.317  11.495   3.658  2.1679 -1.7441  0.6409
   98MOL0     H13193  10.415  11.633   3.457 -0.0549 -1.0903  0.2018
   98MOL0     H13194  10.355  11.482   3.050  1.6411  1.2789 -3.2094
   98MOL0     H13195  10.432  11.638   3.029 -0.2734  0.4802  1.1842
   98MOL0     H13196  10.564  11.401   3.184  4.9367 -1.8305  0.3054
   98MOL0     H13197  10.581  11.424   3.002 -2.4003  1.2002 -0.4112
   98MOL0     H13198  10.668  11.644   3.025  1.1336  0.9959  0.5566
   98MOL0     H13199  10.651  11.636   3.200 -1.9399 -0.7811 -0.9291
   98MOL0     H13200  10.828  11.461   3.027 -1.4416  2.0320 -1.5667
   98MOL0     H13201  10.794  11.427   3.195 -2.2085  0.1523 -0.7073
   98MOL0     H13202  10.895  11.630   3.275 -0.0708  2.9026 -0.8199
   98MOL0     H13203  10.896  11.701   3.112 -1.6292 -0.0489 -0.9759
   98MOL0     H13204  11.030  11.446   3.214  1.5899 -0.6747 -0.6757
   98MOL0     H13205  11.058  11.508   3.055 -0.6371 -3.1879 -0.1409
   98MOL0     H13206  11.165  11.617   3.327 -2.4863 -1.8724  0.7893
   98MOL0     H13207  11.149  11.734   3.184  0.2303 -0.2100 -0.2398
   98MOL0     H13208  11.273  11.565   3.043 -1.2624 -1.7517  0.9552
   98MOL0     H13209  11.376  11.643   3.151 -0.8150  2.2991 -1.5446
   98MOL0     H13210  10.247  11.338   3.202 -4.4674  0.5326 -1.1009
   98MOL0     H13211  10.156  11.213   3.391 -0.4764  0.0084 -0.1119
   98MOL0     H13212  10.107  11.275   3.877 -3.4320 -0.0369 -1.2071
   98MOL0     H13213  10.017  11.176   4.075  0.9367 -0.0565  0.7080
   98MOL0     H13214   8.676  10.482   4.960 -1.3508 -1.5522 -0.7611
   98MOL0     H13215   8.514  10.407   5.169 -0.7683 -0.9195  0.5679
   98MOL0     H13216   8.289  10.462   5.434 -1.7157  1.6727  0.6211
   98MOL0     H13217   8.231  10.365   5.652  4.1848 -0.6634 -2.8549
   98MOL0     H13218   8.059  10.335   5.863 -2.3447  2.3043 -3.2956
   98MOL0     H13219   8.172  10.214   5.780  0.8010  0.2633  1.3370
   98MOL0     H13220   8.076  10.038   5.891 -0.4520 -0.3086 -0.6621
   98MOL0     H13221   7.913  10.098   5.893  1.9865 -3.6447 -4.6122
   98MOL0     H13222   8.135  10.226   6.043  2.2193 -1.2818 -4.3114
   98MOL0     H13223   8.063  10.072   6.102 -1.5220 -0.1368 -0.8070
   98MOL0     H13224   7.843  10.167   6.144 -0.5658 -0.7245  0.8552
   98MOL0     H13225   7.978  10.245   6.236  3.8023 -2.1805 -0.5067
   98MOL0     H13226   7.841  10.573   6.003 -1.0294  0.5873 -2.7618
   98MOL0     H13227   7.841  10.275   5.485 -0.4958 -0.5920  1.0853
   98MOL0     H13228   7.838  10.491   5.235  0.1720 -0.6084 -0.5972
   98MOL0     H13229   7.908  10.350   5.151 -1.3502 -1.0399  0.2578
   98MOL0     H13230   7.776  10.333   5.265 -1.3613  1.3144 -0.2520
   99MOL0     O13231   8.614   5.130   0.313  0.1390  0.0596  0.9603
   99MOL0     C13232   8.526   5.049   0.328 -0.8664 -0.3627 -0.2809
   99MOL0     O13233   8.542   4.911   0.319 -0.5126  0.3745  0.1188
   99MOL0     C13234   8.661   4.852   0.325  0.3738 -0.7881  0.4610
   99MOL0     C13235   8.676   4.745   0.410 -0.0280 -0.1685  0.5234
   99MOL0     C13236   8.801   4.677   0.427  0.4367  0.8580 -0.0949
   99MOL0     C13237   8.899   4.701   0.338 -0.0780 -0.1741 -0.0641
   99MOL0     O13238   9.019   4.645   0.367  0.5672  0.3414  0.0930
   99MOL0     C13239   9.054   4.532   0.283  0.2074  0.8356  0.0845
   99MOL0     C13240   9.047   4.405   0.366 -0.1774 -0.1880  0.2521
   99MOL0     C13241   9.097   4.298   0.275 -0.0619  0.8875 -0.5462
   99MOL0     C13242   9.062   4.161   0.343 -1.1043  0.1620 -0.0111
   99MOL0     C13243   9.092   4.041   0.247  0.8162 -0.5599 -0.1699
   99MOL0     C13244   9.243   4.016   0.258  0.4782 -0.0008 -0.2506
   99MOL0     C13245   9.280   3.907   0.148  0.6859 -0.0168 -0.0052
   99MOL0     C13246   9.268   3.955  -0.000 -0.6209 -1.3252  0.9188
   99MOL0     N13247   9.359   4.076  -0.018 -0.6690 -0.1246 -0.2155
   99MOL0     C13248   9.319   4.206  -0.031  0.1415 -0.1676 -0.0626
   99MOL0     C13249   9.423   4.291   0.002 -0.4060 -0.3065 -0.2882
   99MOL0     C13250   9.431   4.445  -0.006  0.3237 -0.5255 -0.7251
   99MOL0     C13251   9.494   4.502  -0.136  0.5936 -0.3789 -0.2388
   99MOL0     C13252   9.640   4.482  -0.166  0.9057 -0.2525 -0.2980
   99MOL0     C13253   9.657   4.359  -0.257  0.3633 -0.0632 -0.2279
   99MOL0     O13254   9.646   4.405  -0.397 -0.0082 -0.8292 -0.5937
   99MOL0     C13255   9.589   4.317  -0.490 -0.5913  0.2714 -0.5586
   99MOL0     C13256   9.625   4.182  -0.506  0.9659 -0.4650 -0.9778
   99MOL0     C13257   9.566   4.110  -0.608  0.1485  0.0175  0.9396
   99MOL0     C13258   9.477   4.165  -0.700 -0.3760  0.0221  0.5444
   99MOL0     C13259   9.432   4.089  -0.824 -0.3733  0.2433 -0.0979
   99MOL0     O13260   9.478   3.963  -0.848  0.3657  0.4192 -0.2815
   99MOL0     C13261   9.500   3.928  -0.977  0.4052 -0.6004  0.7099
   99MOL0     C13262   9.466   3.796  -1.010 -0.2896  0.0071 -0.4831
   99MOL0     C13263   9.478   3.751  -1.138  0.1051 -0.3729 -0.4347
   99MOL0     C13264   9.513   3.843  -1.240  0.0946  0.1062  1.0336
   99MOL0     O13265   9.539   3.795  -1.371  0.4182 -0.5047 -0.3111
   99MOL0     C13266   9.430   3.727  -1.443 -0.1258  0.0635 -0.0020
   99MOL0     C13267   9.410   3.759  -1.592 -0.1549 -0.6180  0.4084
   99MOL0     C13268   9.300   3.694  -1.664 -0.6305 -0.3377  0.4906
   99MOL0     C13269   9.333   3.555  -1.706  0.5862  1.1388 -0.2582
   99MOL0     C13270   9.199   3.477  -1.760  0.2096  0.4196  1.0257
   99MOL0     C13271   9.218   3.322  -1.764 -0.1994 -0.2393  0.5268
   99MOL0     C13272   9.101   3.257  -1.847  0.1214 -0.0114  0.5721
   99MOL0     C13273   9.146   3.118  -1.880  0.3940  0.0069 -0.2153
   99MOL0    Cl13274   9.033   3.025  -1.962  0.8745 -0.2448  0.0532
   99MOL0     C13275   9.538   3.976  -1.219  0.1674  0.3158  0.3292
   99MOL0     C13276   9.526   4.020  -1.085 -0.1328 -0.8163 -0.7145
   99MOL0     O13277   9.341   4.144  -0.887  0.0992 -0.3975  0.1045
   99MOL0     C13278   9.439   4.293  -0.681 -0.2694  0.9403 -0.9004
   99MOL0     C13279   9.492   4.367  -0.576 -0.8208 -1.1610 -0.2875
   99MOL0     N13280   9.525   4.206   0.040  0.4766 -0.8926  0.2226
   99MOL0     N13281   9.484   4.082   0.041 -0.0404 -0.0131 -0.3477
   99MOL0     C13282   8.880   4.784   0.231 -0.4862  0.2705 -0.7142
   99MOL0     C13283   8.766   4.868   0.234  0.1627  0.1016 -0.8997
   99MOL0     C13284   8.388   5.096   0.340 -0.6286 -0.3036  0.4111
   99MOL0     C13285   8.297   5.017   0.403  0.0985 -0.7277  0.2419
   99MOL0     C13286   8.161   5.058   0.408 -0.2833  0.2445  0.4778
   99MOL0     C13287   8.126   5.188   0.380  0.2462 -0.3185 -0.0921
   99MOL0     O13288   7.994   5.237   0.393 -0.5034 -0.1160 -0.1274
   99MOL0     C13289   7.902   5.165   0.478  0.5163  0.0176  0.4284
   99MOL0     C13290   7.773   5.255   0.492  0.7536  0.8390  0.7222
   99MOL0     C13291   7.655   5.203   0.571 -0.0736 -0.7396  0.3146
   99MOL0     C13292   7.535   5.299   0.579 -0.2143 -0.1737 -1.5969
   99MOL0     C13293   7.410   5.259   0.508 -0.2136  0.1479 -0.7085
   99MOL0     C13294   7.323   5.212   0.442  0.6178  0.1673  0.0835
   99MOL0     C13295   8.224   5.268   0.316 -0.1218 -0.5324 -1.0704
   99MOL0     C13296   8.350   5.225   0.289  0.0195 -1.1612 -0.0437
   99MOL0     C13297   8.426   5.313   0.191 -0.2373  0.0393 -0.2833
   99MOL0     H13298   8.595   4.734   0.480 -1.8154  3.3846 -0.7404
   99MOL0     H13299   8.818   4.613   0.513  1.2672  0.1328 -0.7799
   99MOL0     H13300   8.985   4.538   0.198 -0.4201  2.2892  0.6576
   99MOL0     H13301   9.158   4.546   0.250 -0.2132  2.3789 -0.7233
   99MOL0     H13302   8.946   4.379   0.398 -0.4615 -0.7989 -1.0991
   99MOL0     H13303   9.114   4.410   0.453  2.2653 -1.9556 -1.3619
   99MOL0     H13304   9.206   4.306   0.270 -0.0379  2.3840  1.4460
   99MOL0     H13305   9.058   4.307   0.173  0.3392 -1.6048 -1.0027
   99MOL0     H13306   9.102   4.159   0.444 -5.5961 -0.8136  2.0141
   99MOL0     H13307   8.955   4.173   0.363 -1.0520  0.1070  0.2986
   99MOL0     H13308   9.043   3.950   0.285  0.5596 -0.4388 -0.2054
   99MOL0     H13309   9.069   4.071   0.145  1.7905  0.3972 -0.1197
   99MOL0     H13310   9.292   4.112   0.240 -2.3226  1.9364  1.6022
   99MOL0     H13311   9.259   3.982   0.361  0.7092  1.5525  0.2673
   99MOL0     H13312   9.222   3.816   0.168  4.0324 -1.8772  2.3582
   99MOL0     H13313   9.384   3.887   0.176  0.0650  0.3672  2.9310
   99MOL0     H13314   9.310   3.880  -0.068  1.5835  1.4098 -0.9710
   99MOL0     H13315   9.162   3.973  -0.024 -0.6276 -0.4948  1.5316
   99MOL0     H13316   9.224   4.241  -0.071 -0.7244 -0.9390  1.2380
   99MOL0     H13317   9.335   4.496   0.010  1.4779  1.3765  0.4485
   99MOL0     H13318   9.499   4.482   0.071 -1.3650 -1.2675  1.2566
   99MOL0     H13319   9.429   4.464  -0.216 -0.2298 -2.7683  1.4561
   99MOL0     H13320   9.486   4.611  -0.124 -2.7475 -0.5902  0.5545
   99MOL0     H13321   9.686   4.459  -0.069 -2.4376  2.7224  2.2816
   99MOL0     H13322   9.680   4.574  -0.210 -1.7343  1.0759 -0.0964
   99MOL0     H13323   9.583   4.284  -0.228  2.0821 -1.9910 -0.6115
   99MOL0     H13324   9.755   4.313  -0.240  0.6861  0.9237  0.6779
   99MOL0     H13325   9.688   4.139  -0.428  2.3084 -2.9657 -3.2394
   99MOL0     H13326   9.604   4.009  -0.620  0.9471  0.3333  0.7329
   99MOL0     H13327   9.444   3.729  -0.928 -0.8191  1.8543  0.9451
   99MOL0     H13328   9.467   3.649  -1.174  2.3740 -0.8365  0.0181
   99MOL0     H13329   9.442   3.621  -1.418  0.4616  0.5628  2.0275
   99MOL0     H13330   9.333   3.753  -1.400  1.0881  0.6507  2.5703
   99MOL0     H13331   9.408   3.868  -1.609 -1.2023 -0.8611 -1.2486
   99MOL0     H13332   9.503   3.724  -1.639 -1.0638 -0.9838 -1.1895
   99MOL0     H13333   9.213   3.687  -1.600 -0.1973 -2.5329  0.9195
   99MOL0     H13334   9.276   3.759  -1.750  1.0631  0.2147  0.3939
   99MOL0     H13335   9.374   3.511  -1.615  0.9124  2.7090  0.3981
   99MOL0     H13336   9.414   3.550  -1.778 -0.2386 -2.0522 -1.1180
   99MOL0     H13337   9.177   3.524  -1.856  1.6603  2.6272  1.6893
   99MOL0     H13338   9.110   3.497  -1.700 -1.6085 -1.8133 -0.7400
   99MOL0     H13339   9.312   3.315  -1.820  0.8089 -3.0392  2.3313
   99MOL0     H13340   9.237   3.277  -1.666  0.7332 -2.6134 -0.6542
   99MOL0     H13341   9.086   3.311  -1.941 -1.7024 -0.1396  0.7473
   99MOL0     H13342   9.005   3.258  -1.794 -0.3070 -0.1364 -0.1808
   99MOL0     H13343   9.229   3.123  -1.951  1.7902 -0.3803  1.3062
   99MOL0     H13344   9.184   3.079  -1.785 -1.3870  0.9591  0.9439
   99MOL0     H13345   9.556   4.051  -1.295  0.5686  2.0148  2.0343
   99MOL0     H13346   9.547   4.125  -1.068 -0.6229 -0.9916  1.2375
   99MOL0     H13347   9.378   4.341  -0.757  0.2416  2.2917 -0.4889
   99MOL0     H13348   9.472   4.474  -0.577  1.4046 -0.6860  0.6217
   99MOL0     H13349   8.966   4.800   0.166  0.3026 -1.2184 -0.0620
   99MOL0     H13350   8.752   4.926   0.144  2.2160  0.4507 -1.0440
   99MOL0     H13351   8.323   4.916   0.433  0.0482 -0.3954  1.4585
   99MOL0     H13352   8.097   4.977   0.443  0.1556 -1.6757 -2.8086
   99MOL0     H13353   7.941   5.164   0.580  1.9404 -0.6683 -0.0945
   99MOL0     H13354   7.887   5.064   0.439 -0.2665 -0.7729  2.6203
   99MOL0     H13355   7.738   5.274   0.390  0.2952 -0.4516  0.6150
   99MOL0     H13356   7.796   5.350   0.540 -2.3251  1.3041  1.4720
   99MOL0     H13357   7.681   5.168   0.671 -2.4453  0.1534  1.3216
   99MOL0     H13358   7.632   5.114   0.512  1.0861  1.3712 -3.6998
   99MOL0     H13359   7.525   5.320   0.686 -1.4365 -0.8732 -1.5629
   99MOL0     H13360   7.563   5.388   0.523 -0.1703 -0.6440 -2.3332
   99MOL0     H13361   7.245   5.170   0.381  0.3272  0.3645  0.3139
   99MOL0     H13362   8.193   5.369   0.291  1.5383  0.0087 -1.0903
   99MOL0     H13363   8.522   5.340   0.234 -0.8829  1.2667  0.4341
   99MOL0     H13364   8.440   5.257   0.098 -1.6713 -1.9653  0.6144
   99MOL0     H13365   8.371   5.406   0.175 -0.8373  0.1569  2.0761
  100MOL0     O13366   2.856   0.845   5.967 -0.1579 -0.1838  0.0357
  100MOL0     C13367   2.883   0.956   5.999  0.6666  0.5614 -0.5234
  100MOL0     O13368   2.800   1.062   5.998  0.3178 -0.1251  0.7493
  100MOL0     C13369   2.688   1.066   5.933  0.2888 -0.8075 -0.0275
  100MOL0     C13370   2.583   1.103   6.012  0.3691  0.6634 -0.1513
  100MOL0     C13371   2.455   1.120   5.958 -0.7454 -0.6947 -0.7475
  100MOL0     C13372   2.430   1.099   5.822  0.6126 -0.3643  0.1448
  100MOL0     O13373   2.298   1.134   5.790 -0.3445  0.7621  0.7049
  100MOL0     C13374   2.222   1.027   5.734  0.7530 -0.5776 -0.5772
  100MOL0     C13375   2.071   1.069   5.709  0.3786  0.9771  0.1183
  100MOL0     C13376   2.021   1.011   5.573  1.3703 -0.3058  0.0974
  100MOL0     C13377   2.009   0.859   5.573  0.9147  0.5439 -0.0091
  100MOL0     C13378   1.966   0.811   5.433 -0.0039  0.6781  0.3094
  100MOL0     C13379   1.926   0.664   5.430  0.2912 -0.6420 -0.7789
  100MOL0     C13380   1.790   0.639   5.372 -0.1738  0.2618  0.0477
  100MOL0     C13381   1.756   0.488   5.376 -0.7297  0.1719 -0.3047
  100MOL0     N13382   1.716   0.432   5.515  0.7269  1.0049  1.0752
  100MOL0     C13383   1.804   0.399   5.611  0.7614  0.3197  0.7857
  100MOL0     C13384   1.740   0.352   5.719 -0.2834 -0.2366  0.1360
  100MOL0     C13385   1.783   0.285   5.850  0.1605 -0.1428  1.5688
  100MOL0     C13386   1.934   0.317   5.904  0.7309  0.6766 -0.0546
  100MOL0     C13387   1.970   0.223   6.035 -0.5590 -0.4284  0.5822
  100MOL0     C13388   2.125   0.217   6.076  0.1214  0.1578  0.9156
  100MOL0     O13389   2.147   0.272   6.204  0.3419  0.0230 -0.4526
  100MOL0     C13390   2.157   0.412   6.216 -0.2538  1.1425 -0.2575
  100MOL0     C13391   2.199   0.435   6.335 -0.8843 -0.4408 -0.2165
  100MOL0     C13392   2.215   0.576   6.374  0.2017  0.9919  0.9729
  100MOL0     C13393   2.184   0.683   6.286 -0.5817  0.2701  0.2860
  100MOL0     C13394   2.202   0.825   6.320 -0.5204 -0.4267  0.2094
  100MOL0     O13395   2.151   0.921   6.237  0.3241  0.2524  0.0096
  100MOL0     C13396   2.156   1.054   6.264  0.3267 -0.1335 -0.4675
  100MOL0     C13397   2.036   1.123   6.249  0.5106 -0.2876  0.2409
  100MOL0     C13398   2.039   1.269   6.263  0.2314 -0.1863 -1.1007
  100MOL0     C13399   2.156   1.334   6.290  1.2335  0.5983 -0.5749
  100MOL0     O13400   2.127   1.465   6.299  1.1208  0.0214 -0.0043
  100MOL0     C13401   2.238   1.554   6.333 -0.1461 -0.1330  0.4024
  100MOL0     C13402   2.206   1.699   6.369  0.2152 -0.6354  0.7763
  100MOL0     C13403   2.313   1.776   6.438  0.3893 -0.1229 -0.3906
  100MOL0     C13404   2.282   1.924   6.455 -0.1051 -0.0913  0.7198
  100MOL0     C13405   2.350   1.972   6.582  0.6229 -0.2350  0.3206
  100MOL0     C13406   2.292   2.105   6.626 -0.1501 -0.4595 -0.2906
  100MOL0     C13407   2.300   2.226   6.535  0.1416  0.0851  0.5794
  100MOL0     C13408   2.177   2.317   6.530 -0.7970  0.0720 -0.3054
  100MOL0    Cl13409   2.200   2.438   6.397  0.2030  0.7681  0.2484
  100MOL0     C13410   2.271   1.267   6.296 -0.4776 -0.4629  0.7673
  100MOL0     C13411   2.274   1.126   6.270 -0.5983 -0.6563  0.3699
  100MOL0     O13412   2.274   0.844   6.420  0.3891  0.5149 -0.2352
  100MOL0     C13413   2.140   0.645   6.161 -0.2266  0.7095  0.5967
  100MOL0     C13414   2.125   0.515   6.120  0.3475 -0.0752 -0.4934
  100MOL0     N13415   1.609   0.353   5.681 -0.0836 -0.7712 -0.2776
  100MOL0     N13416   1.591   0.395   5.557  0.8614  0.1098  0.6341
  100MOL0     C13417   2.530   1.054   5.746  0.5989 -0.0215  0.0994
  100MOL0     C13418   2.659   1.036   5.801 -0.8824  0.0768 -0.4885
  100MOL0     C13419   3.014   0.990   6.050 -0.2742  1.4399  0.2173
  100MOL0     C13420   3.041   1.106   6.117  1.1107 -0.0241 -0.5695
  100MOL0     C13421   3.157   1.138   6.184  0.3577 -0.7391 -0.1762
  100MOL0     C13422   3.266   1.058   6.168  0.5518 -0.7958 -1.0820
  100MOL0     O13423   3.389   1.117   6.207  0.1116  0.9034  0.0967
  100MOL0     C13424   3.506   1.041   6.222  0.4821  1.0403  0.0287
  100MOL0     C13425   3.500   0.931   6.333  0.6233 -0.5552 -1.2047
  100MOL0     C13426   3.617   0.829   6.335  0.4684  0.4143  0.4669
  100MOL0     C13427   3.620   0.727   6.215  0.6253 -0.6940 -0.3338
  100MOL0     C13428   3.496   0.660   6.185  0.5253  0.6428  0.6311
  100MOL0     C13429   3.379   0.625   6.189 -0.0590  0.0673  0.2811
  100MOL0     C13430   3.248   0.943   6.098  0.2818 -0.0095  0.3475
  100MOL0     C13431   3.128   0.904   6.040 -0.2253  0.0232 -0.1537
  100MOL0     C13432   3.127   0.766   5.976 -0.0840  0.0944  0.0334
  100MOL0     H13433   2.601   1.126   6.116 -2.2483  3.1797 -0.1309
  100MOL0     H13434   2.381   1.163   6.025  1.0443  3.0773 -0.9160
  100MOL0     H13435   2.265   1.012   5.634  0.5101 -0.7314 -0.6604
  100MOL0     H13436   2.235   0.931   5.783 -0.4951 -0.8375 -0.7153
  100MOL0     H13437   2.057   1.178   5.717 -0.6348  0.8806 -0.2328
  100MOL0     H13438   2.018   1.014   5.787  1.3017  0.4033  0.3511
  100MOL0     H13439   2.088   1.037   5.490  0.5580 -0.7661 -0.7180
  100MOL0     H13440   1.923   1.059   5.569  2.2147  1.4619 -0.4543
  100MOL0     H13441   2.101   0.807   5.602 -2.3825 -5.6600  1.1954
  100MOL0     H13442   1.933   0.823   5.643  0.6632 -2.4894 -1.6761
  100MOL0     H13443   1.876   0.867   5.404 -1.0465 -0.8733  0.4707
  100MOL0     H13444   2.048   0.841   5.366 -1.6496  2.3262 -1.1093
  100MOL0     H13445   2.001   0.610   5.370  0.7168  0.2501 -1.0644
  100MOL0     H13446   1.931   0.625   5.532  1.2750 -1.0305 -0.9580
  100MOL0     H13447   1.781   0.661   5.265  4.5992 -0.6388 -0.7698
  100MOL0     H13448   1.716   0.695   5.430 -0.5502 -0.5066  0.3192
  100MOL0     H13449   1.668   0.483   5.311  0.0304  2.8239 -1.6301
  100MOL0     H13450   1.836   0.434   5.325  0.6035  1.4242  0.4051
  100MOL0     H13451   1.910   0.390   5.593  0.3136 -1.6114 -1.3469
  100MOL0     H13452   1.700   0.310   5.917 -2.3315 -1.6367 -0.7166
  100MOL0     H13453   1.778   0.176   5.840 -0.1413 -0.2002  2.2817
  100MOL0     H13454   2.008   0.297   5.826  3.5111  0.8483  2.3497
  100MOL0     H13455   1.938   0.426   5.913 -0.4352  1.0072 -2.6367
  100MOL0     H13456   1.938   0.122   6.008 -2.1943  0.1453  0.2265
  100MOL0     H13457   1.905   0.254   6.117 -2.9938  0.4083 -1.5134
  100MOL0     H13458   2.186   0.252   5.993  0.4285 -1.3118  0.4965
  100MOL0     H13459   2.152   0.111   6.082 -0.7030 -0.3207 -2.2016
  100MOL0     H13460   2.246   0.363   6.402  2.0565  1.9847  0.5539
  100MOL0     H13461   2.248   0.605   6.473 -1.1233  0.2316  1.6709
  100MOL0     H13462   1.938   1.078   6.233  1.2441 -2.0740  0.6221
  100MOL0     H13463   1.952   1.327   6.237 -0.1948  0.1271  0.8717
  100MOL0     H13464   2.291   1.509   6.418  1.0016  2.7488  1.3043
  100MOL0     H13465   2.305   1.551   6.247 -1.5597 -3.9670 -0.8052
  100MOL0     H13466   2.174   1.741   6.273  0.3981 -5.0077 -1.4229
  100MOL0     H13467   2.126   1.689   6.442 -1.1820  1.5769 -0.3415
  100MOL0     H13468   2.322   1.723   6.533 -0.4384  1.6115  0.7043
  100MOL0     H13469   2.415   1.769   6.398  1.0557  0.0453  1.1712
  100MOL0     H13470   2.177   1.953   6.467  0.8070  2.3673  4.9225
  100MOL0     H13471   2.323   1.976   6.368  0.9412 -1.5967  0.2703
  100MOL0     H13472   2.456   1.980   6.554  0.3570 -2.6994 -1.7201
  100MOL0     H13473   2.344   1.904   6.668  2.2597 -0.1829  0.5138
  100MOL0     H13474   2.189   2.098   6.663 -0.3967  0.4409 -0.7652
  100MOL0     H13475   2.348   2.134   6.715  0.9505  2.6847 -1.8579
  100MOL0     H13476   2.314   2.199   6.430 -2.8768 -3.7347  0.9499
  100MOL0     H13477   2.392   2.281   6.557  1.1850 -1.8593  1.2760
  100MOL0     H13478   2.093   2.251   6.506 -0.1819 -1.6319  1.9076
  100MOL0     H13479   2.151   2.355   6.629 -2.2779  0.1560 -0.7058
  100MOL0     H13480   2.361   1.324   6.317 -2.4596  1.9590  3.5245
  100MOL0     H13481   2.365   1.069   6.275 -2.0776 -3.3839 -1.5009
  100MOL0     H13482   2.104   0.709   6.082 -1.2959 -0.9060 -0.2882
  100MOL0     H13483   2.090   0.502   6.018 -3.4164  5.4953 -0.3619
  100MOL0     H13484   2.514   1.035   5.640 -0.2989  0.4728  0.1335
  100MOL0     H13485   2.740   0.988   5.746  2.7136  1.3675  3.1276
  100MOL0     H13486   2.957   1.174   6.120  1.1548  0.0235 -0.3334
  100MOL0     H13487   3.179   1.233   6.232  2.7849 -0.3694 -1.8590
  100MOL0     H13488   3.594   1.105   6.216 -0.0063  1.8187  0.8976
  100MOL0     H13489   3.516   0.985   6.129 -0.9118 -0.4052  0.7060
  100MOL0     H13490   3.406   0.875   6.331  0.9850 -1.2220 -0.3218
  100MOL0     H13491   3.497   0.991   6.425  0.1925 -3.5026  0.8665
  100MOL0     H13492   3.618   0.764   6.423 -2.2018  0.4263  0.5867
  100MOL0     H13493   3.704   0.896   6.325 -0.8954  2.0842 -0.9675
  100MOL0     H13494   3.653   0.781   6.126  2.9858 -2.8710 -0.8796
  100MOL0     H13495   3.697   0.657   6.248  1.5063 -0.2974 -1.5013
  100MOL0     H13496   3.273   0.612   6.188 -0.4261  2.4442 -1.9017
  100MOL0     H13497   3.335   0.883   6.074  0.6261 -0.8041  3.2549
  100MOL0     H13498   3.101   0.773   5.870 -0.8357 -2.3577 -0.0157
  100MOL0     H13499   3.227   0.723   5.981 -0.8737 -1.7869  0.4119
  100MOL0     H13500   3.060   0.704   6.036  0.8412  1.2412  2.3926
  101MOL0     O13501   3.619  10.303   1.285 -0.0725 -0.9773  0.9073
  101MOL0     C13502   3.703  10.268   1.364 -0.2445 -0.0113 -1.0624
  101MOL0     O13503   3.795  10.166   1.344  0.4060 -0.4748 -0.6368
  101MOL0     C13504   3.829  10.104   1.231  0.9515  0.6315  0.9240
  101MOL0     C13505   3.789  10.152   1.104  0.0077  1.3508  0.2635
  101MOL0     C13506   3.825  10.071   0.994  0.0068  0.3708  1.1988
  101MOL0     C13507   3.870   9.943   0.997  0.7843  0.3130 -0.3862
  101MOL0     O13508   3.892   9.868   0.887 -0.0947 -0.5072 -0.0545
  101MOL0     C13509   3.784   9.792   0.838 -0.4826  0.3297 -0.3743
  101MOL0     C13510   3.839   9.699   0.730 -0.0016 -0.5605  0.2261
  101MOL0     C13511   3.737   9.597   0.680  0.6827  0.6436 -0.3681
  101MOL0     C13512   3.793   9.456   0.725 -0.3717 -0.7603  0.1770
  101MOL0     C13513   3.707   9.343   0.669 -0.2589 -0.4242  0.4909
  101MOL0     C13514   3.741   9.287   0.525  0.2971 -0.8453 -0.9717
  101MOL0     C13515   3.804   9.390   0.429 -0.7924  0.1398 -0.8993
  101MOL0     C13516   3.898   9.349   0.319  0.5258  0.3414  0.1894
  101MOL0     N13517   3.940   9.452   0.237  0.0203  0.2660 -0.8585
  101MOL0     C13518   3.872   9.510   0.140  0.0372 -0.0904  0.0243
  101MOL0     C13519   3.958   9.596   0.078 -0.0095  0.6543 -1.1962
  101MOL0     C13520   3.939   9.683  -0.043 -0.0954 -0.3441  0.8840
  101MOL0     C13521   3.814   9.641  -0.133  0.5292 -0.6759 -0.3840
  101MOL0     C13522   3.781   9.752  -0.227 -0.3668  0.3309 -0.0337
  101MOL0     C13523   3.885   9.768  -0.339 -0.5910  0.4083  0.3229
  101MOL0     O13524   3.816   9.847  -0.437 -0.4070  0.2076  0.2882
  101MOL0     C13525   3.874   9.931  -0.530 -0.0471  0.5682 -0.1869
  101MOL0     C13526   4.009   9.919  -0.570  0.4366 -0.1604  0.4353
  101MOL0     C13527   4.065   9.993  -0.671 -0.5368  0.5413  0.0605
  101MOL0     C13528   3.983  10.087  -0.747 -0.2089 -0.0008 -0.0912
  101MOL0     C13529   4.051  10.184  -0.840  0.0895  0.1817  0.0990
  101MOL0     O13530   3.956  10.256  -0.916  0.0553  0.2833  0.6019
  101MOL0     C13531   4.016  10.321  -1.018  0.1632  0.2797  0.6558
  101MOL0     C13532   4.085  10.439  -0.992  0.4379  0.0893  0.8033
  101MOL0     C13533   4.140  10.493  -1.109 -0.7628  0.4212 -0.0122
  101MOL0     C13534   4.144  10.443  -1.235 -0.4285  0.8903  0.1496
  101MOL0     O13535   4.206  10.529  -1.328  0.1372  0.1784  0.1795
  101MOL0     C13536   4.193  10.492  -1.464 -0.2474  0.8213 -0.9050
  101MOL0     C13537   4.259  10.608  -1.540  0.5106  0.3559  0.0655
  101MOL0     C13538   4.196  10.744  -1.514  0.3884  0.2979 -0.5081
  101MOL0     C13539   4.289  10.857  -1.559  0.1834 -0.2628  0.2450
  101MOL0     C13540   4.245  11.006  -1.533  0.0431 -0.5519  0.3871
  101MOL0     C13541   4.338  11.111  -1.603 -0.1677 -0.1409 -0.1552
  101MOL0     C13542   4.464  11.149  -1.536 -0.1086 -0.0391 -0.2421
  101MOL0     C13543   4.545  11.239  -1.630 -0.2995 -0.0934 -0.0496
  101MOL0    Cl13544   4.578  11.166  -1.783  0.0382  0.1583  0.4804
  101MOL0     C13545   4.079  10.315  -1.258  0.1164 -0.9513 -0.2161
  101MOL0     C13546   4.018  10.262  -1.144  0.3351  0.1428  0.5349
  101MOL0     O13547   4.176  10.187  -0.857  0.8137 -0.2888  0.2925
  101MOL0     C13548   3.846  10.097  -0.706 -1.1161  0.4452  0.3646
  101MOL0     C13549   3.794  10.022  -0.602  0.8195 -0.1988 -0.3705
  101MOL0     N13550   4.070   9.596   0.156  0.3673 -0.5020  0.5255
  101MOL0     N13551   4.055   9.518   0.258 -0.5638 -0.8235  0.2038
  101MOL0     C13552   3.888   9.892   1.125 -0.2953  0.6206  0.2411
  101MOL0     C13553   3.871   9.974   1.242  0.0760  0.1888  0.2741
  101MOL0     C13554   3.734  10.356   1.485  0.1885 -0.7181 -0.2759
  101MOL0     C13555   3.815  10.301   1.594 -0.0562  0.3769  0.1005
  101MOL0     C13556   3.857  10.386   1.701 -0.5723 -0.1318  1.0374
  101MOL0     C13557   3.820  10.516   1.703  0.7018 -0.4683  0.3675
  101MOL0     O13558   3.842  10.587   1.812 -0.0031  0.4792 -0.0816
  101MOL0     C13559   3.940  10.690   1.804 -0.7273 -0.6566 -0.2201
  101MOL0     C13560   4.007  10.716   1.941  0.0631 -0.1736  0.4186
  101MOL0     C13561   4.069  10.860   1.943  0.5342 -0.2616  0.5180
  101MOL0     C13562   4.153  10.875   2.067  0.3604  0.2737 -0.6771
  101MOL0     C13563   4.281  10.796   2.052  0.0072 -0.3148 -0.3074
  101MOL0     C13564   4.382  10.728   2.054  1.1298  1.1181  0.0143
  101MOL0     C13565   3.724  10.565   1.607 -0.7580 -0.0243 -0.1403
  101MOL0     C13566   3.676  10.486   1.500 -0.7313  0.0959 -0.0786
  101MOL0     C13567   3.563  10.540   1.416 -0.2614 -0.2750 -0.7378
  101MOL0     H13568   3.755  10.252   1.082 -1.4929  0.9357  0.6034
  101MOL0     H13569   3.829  10.122   0.898  2.5214 -1.1956  0.3674
  101MOL0     H13570   3.761   9.729   0.925  3.0071  3.8320  3.4739
  101MOL0     H13571   3.702   9.853   0.798 -1.7380  0.2008  1.8149
  101MOL0     H13572   3.932   9.648   0.758 -0.0216 -1.6305 -1.5086
  101MOL0     H13573   3.858   9.769   0.649 -0.7488  1.0373  1.3741
  101MOL0     H13574   3.733   9.594   0.571  0.7942  0.5107 -0.3683
  101MOL0     H13575   3.637   9.613   0.722  0.2987 -1.7856 -0.2271
  101MOL0     H13576   3.899   9.441   0.705  0.7702  1.9446  3.3600
  101MOL0     H13577   3.784   9.451   0.834 -0.9780  0.7478  0.2236
  101MOL0     H13578   3.717   9.258   0.737  0.7477  0.1708  1.1132
  101MOL0     H13579   3.601   9.369   0.681 -0.2127  0.6401 -1.1299
  101MOL0     H13580   3.807   9.200   0.533 -1.2061 -2.1018 -1.5605
  101MOL0     H13581   3.641   9.257   0.490 -0.4390 -2.1294  1.8972
  101MOL0     H13582   3.854   9.462   0.494 -0.8365 -0.6331  0.0061
  101MOL0     H13583   3.720   9.440   0.378 -1.6620  1.9086  2.0361
  101MOL0     H13584   3.982   9.297   0.368 -0.1466  0.4600  1.5251
  101MOL0     H13585   3.856   9.274   0.251  0.6624  1.5389 -1.2507
  101MOL0     H13586   3.766   9.501   0.122 -0.1897  1.0238  0.7130
  101MOL0     H13587   3.920   9.786  -0.010 -0.7401 -0.9303  2.4474
  101MOL0     H13588   4.030   9.675  -0.103  0.7119 -0.5869  2.0993
  101MOL0     H13589   3.838   9.548  -0.185  3.8091  0.6853 -1.5577
  101MOL0     H13590   3.724   9.626  -0.072 -0.6106  0.4980 -1.7266
  101MOL0     H13591   3.752   9.846  -0.180  1.7192  0.0226  2.0201
  101MOL0     H13592   3.685   9.718  -0.269 -0.2777 -1.4435  1.1096
  101MOL0     H13593   3.912   9.670  -0.379 -0.7047  1.3090 -2.1232
  101MOL0     H13594   3.975   9.824  -0.314  2.0327 -3.7381  1.1417
  101MOL0     H13595   4.071   9.844  -0.522  3.3541  0.0516 -2.6276
  101MOL0     H13596   4.166   9.977  -0.707 -0.3504  0.6160  0.5463
  101MOL0     H13597   4.109  10.483  -0.896 -0.5255  2.6235 -0.0328
  101MOL0     H13598   4.203  10.580  -1.094  1.0159 -0.9597  0.8716
  101MOL0     H13599   4.254  10.403  -1.481 -1.9619 -0.9034  1.3524
  101MOL0     H13600   4.089  10.478  -1.495 -0.2103 -0.7556 -0.4052
  101MOL0     H13601   4.364  10.615  -1.511  0.5382 -1.2366  0.4459
  101MOL0     H13602   4.261  10.594  -1.648  0.7702  0.2224  0.0843
  101MOL0     H13603   4.098  10.752  -1.561 -0.4560 -1.9337  0.6807
  101MOL0     H13604   4.180  10.754  -1.406  2.4066  1.0981 -0.2404
  101MOL0     H13605   4.313  10.836  -1.664 -1.6245  1.5462 -0.6146
  101MOL0     H13606   4.385  10.847  -1.508 -0.7012  2.7961  2.8334
  101MOL0     H13607   4.243  11.022  -1.425  3.1102 -1.7609  0.7336
  101MOL0     H13608   4.150  11.033  -1.580  0.8859  0.6078 -0.7148
  101MOL0     H13609   4.367  11.062  -1.697  2.9875  0.1894  0.5157
  101MOL0     H13610   4.272  11.197  -1.615 -0.8963 -0.6331  0.2892
  101MOL0     H13611   4.519  11.058  -1.512  3.0200  2.3826  2.9139
  101MOL0     H13612   4.451  11.200  -1.439  0.0071 -0.1543 -0.1660
  101MOL0     H13613   4.498  11.335  -1.651  0.5522 -0.4119 -4.1567
  101MOL0     H13614   4.643  11.258  -1.584 -1.1556 -1.0518  2.3674
  101MOL0     H13615   4.060  10.268  -1.354  0.9517  0.3902 -1.0762
  101MOL0     H13616   3.962  10.170  -1.152  0.7731 -0.1309  0.5977
  101MOL0     H13617   3.773  10.166  -0.746 -1.4522  0.6550  1.3204
  101MOL0     H13618   3.690  10.026  -0.574  0.1391  3.3805 -2.7594
  101MOL0     H13619   3.921   9.789   1.131 -1.7836  0.0843 -0.2189
  101MOL0     H13620   3.884   9.938   1.343  1.1501 -0.7057 -0.1528
  101MOL0     H13621   3.851  10.200   1.578  3.0850  0.9215  2.6015
  101MOL0     H13622   3.901  10.339   1.788 -2.2659 -3.2695  0.3567
  101MOL0     H13623   3.885  10.780   1.774  2.3953  2.6751  3.0940
  101MOL0     H13624   4.019  10.672   1.732 -0.0016 -0.4141  0.5014
  101MOL0     H13625   4.087  10.642   1.952  2.3364  1.9712 -0.8064
  101MOL0     H13626   3.936  10.703   2.023  0.0921 -2.2414  0.1878
  101MOL0     H13627   3.993  10.939   1.929  2.5439  1.5235 -0.9060
  101MOL0     H13628   4.137  10.854   1.858 -1.0259  0.4894 -0.8315
  101MOL0     H13629   4.186  10.979   2.079  1.7985 -0.1694 -0.6427
  101MOL0     H13630   4.100  10.843   2.157  0.1690 -1.8681 -1.4892
  101MOL0     H13631   4.473  10.671   2.053  0.6624  0.2607 -2.8876
  101MOL0     H13632   3.681  10.664   1.618  2.0318  1.3295 -0.5174
  101MOL0     H13633   3.601  10.590   1.326  3.3060 -0.3495  0.5408
  101MOL0     H13634   3.482  10.467   1.405  0.6344 -1.7407  1.5424
  101MOL0     H13635   3.514  10.613   1.481 -3.0300 -0.2139 -2.7614
  102MOL0     O13636   3.321   1.096   8.928  0.8373 -0.3402 -0.0125
  102MOL0     C13637   3.428   1.131   8.971  0.7098 -0.2633 -0.5905
  102MOL0     O13638   3.477   1.091   9.095  0.4912 -0.0018  0.6849
  102MOL0     C13639   3.422   0.983   9.145 -0.5179 -0.5358 -0.0907
  102MOL0     C13640   3.456   0.857   9.101 -0.8417 -0.3477 -0.0608
  102MOL0     C13641   3.393   0.740   9.154  0.5511 -0.7336  0.3685
  102MOL0     C13642   3.285   0.762   9.246  0.2927  0.1409  0.5393
  102MOL0     O13643   3.221   0.661   9.306  0.0540  0.6325 -1.0670
  102MOL0     C13644   3.288   0.593   9.417  0.1822 -0.2903 -0.6188
  102MOL0     C13645   3.184   0.527   9.504  0.0410  0.1072  0.8613
  102MOL0     C13646   3.216   0.494   9.647 -0.4043 -0.3027  0.0608
  102MOL0     C13647   3.218   0.625   9.729 -0.0692 -0.7733  0.0406
  102MOL0     C13648   3.217   0.633   9.881 -0.8823 -0.1889 -0.3570
  102MOL0     C13649   3.282   0.530   9.959 -0.5343  0.5892 -0.4838
  102MOL0     C13650   3.299   0.570  10.117  0.0404 -0.4660  0.6482
  102MOL0     C13651   3.315   0.437  10.194 -0.3899 -0.8140  0.1829
  102MOL0     N13652   3.340   0.460  10.333  0.0686 -0.3120 -0.3583
  102MOL0     C13653   3.244   0.468  10.432 -0.0586 -1.1723 -0.0528
  102MOL0     C13654   3.301   0.501  10.545  0.6553  0.5488  0.0421
  102MOL0     C13655   3.228   0.504  10.684  0.3816 -0.3995 -0.1742
  102MOL0     C13656   3.283   0.620  10.780 -0.8008 -0.2457  0.3924
  102MOL0     C13657   3.223   0.752  10.743  1.2364 -0.2920 -0.3813
  102MOL0     C13658   3.284   0.880  10.805  0.6681  0.0204 -0.2461
  102MOL0     O13659   3.420   0.877  10.765 -0.3554  0.8289  0.2894
  102MOL0     C13660   3.508   0.925  10.859  0.5251  0.1375  0.1334
  102MOL0     C13661   3.608   0.843  10.911  0.4203  0.8145  0.0480
  102MOL0     C13662   3.689   0.896  11.015 -0.5773  0.1115 -0.2791
  102MOL0     C13663   3.675   1.027  11.067  0.0532  0.1758 -0.0222
  102MOL0     C13664   3.741   1.073  11.190  0.3326 -0.1262 -0.3252
  102MOL0     O13665   3.822   0.985  11.250 -0.5643 -0.1626  0.1831
  102MOL0     C13666   3.874   1.011  11.374 -0.7051 -0.1380  0.7026
  102MOL0     C13667   3.869   0.901  11.464 -0.2458  0.2324 -0.2845
  102MOL0     C13668   3.937   0.914  11.583  0.1520  0.7863 -0.1799
  102MOL0     C13669   4.010   1.027  11.609  0.6595  0.2729 -0.0770
  102MOL0     O13670   4.053   1.024  11.735  0.4036 -0.1900 -0.0668
  102MOL0     C13671   4.172   1.111  11.764 -0.1752 -0.7034  0.7579
  102MOL0     C13672   4.241   1.058  11.887  0.0350  1.2944  0.3844
  102MOL0     C13673   4.159   1.080  12.012  0.1689  0.6952 -0.4345
  102MOL0     C13674   4.223   1.032  12.137  0.0290 -0.6508 -0.5304
  102MOL0     C13675   4.154   1.072  12.261 -0.6922  0.6607 -0.4636
  102MOL0     C13676   4.248   1.053  12.386  0.2146  0.3710 -0.3743
  102MOL0     C13677   4.173   1.087  12.516  0.0679  0.9263  0.2704
  102MOL0     C13678   4.281   1.105  12.633  0.5704  0.2919 -0.7110
  102MOL0    Cl13679   4.202   1.181  12.769 -0.0487 -0.4862  0.0153
  102MOL0     C13680   4.042   1.121  11.511 -0.5623 -0.3231  0.5527
  102MOL0     C13681   3.972   1.114  11.395  0.0990  0.2730  0.0530
  102MOL0     O13682   3.714   1.185  11.239 -0.0123  0.1171  0.2404
  102MOL0     C13683   3.578   1.105  11.005 -0.1248  0.6370 -0.6838
  102MOL0     C13684   3.497   1.055  10.906  0.3391 -0.1728 -0.2467
  102MOL0     N13685   3.436   0.521  10.517  0.1333  0.7573 -0.1746
  102MOL0     N13686   3.454   0.499  10.394  0.2691  0.6112 -0.2988
  102MOL0     C13687   3.250   0.889   9.296  0.0020 -0.3295 -0.4195
  102MOL0     C13688   3.317   0.992   9.232 -0.8503 -0.0665 -0.0801
  102MOL0     C13689   3.519   1.220   8.889 -0.0225 -0.1027  0.4963
  102MOL0     C13690   3.652   1.190   8.891 -0.1479 -0.1129  0.6152
  102MOL0     C13691   3.741   1.272   8.832  0.5216 -0.1087 -0.9501
  102MOL0     C13692   3.706   1.376   8.759 -0.9345 -0.1933 -0.4131
  102MOL0     O13693   3.800   1.465   8.702 -0.3912  0.1439 -0.0647
  102MOL0     C13694   3.769   1.506   8.574  0.0529  0.1263  0.6859
  102MOL0     C13695   3.892   1.514   8.487  0.1313 -0.5145 -0.3517
  102MOL0     C13696   3.948   1.658   8.486 -0.2428 -0.7137 -0.2344
  102MOL0     C13697   4.085   1.680   8.412  1.0601  0.4430  0.4368
  102MOL0     C13698   4.072   1.691   8.267  0.0517  0.7508 -0.3303
  102MOL0     C13699   4.071   1.691   8.146  0.5854 -0.0212  0.1316
  102MOL0     C13700   3.568   1.397   8.737  0.3806  0.1377 -0.0990
  102MOL0     C13701   3.470   1.323   8.806 -0.2120  0.2177 -0.6003
  102MOL0     C13702   3.326   1.368   8.790 -0.3132  1.0041  0.4815
  102MOL0     H13703   3.532   0.847   9.024 -0.5943  0.5992  0.0517
  102MOL0     H13704   3.416   0.638   9.122 -0.0677 -0.7966  0.1068
  102MOL0     H13705   3.366   0.519   9.394  1.4984  0.4260  1.3603
  102MOL0     H13706   3.338   0.666   9.481 -0.9683  0.7419 -0.8623
  102MOL0     H13707   3.163   0.431   9.457  3.3547 -0.0159 -0.6592
  102MOL0     H13708   3.091   0.584   9.509 -0.5183 -0.6198 -0.6170
  102MOL0     H13709   3.313   0.444   9.652 -0.2905  0.0505  2.3967
  102MOL0     H13710   3.141   0.430   9.695 -2.7427  0.5336 -2.2231
  102MOL0     H13711   3.308   0.681   9.700  1.1125 -1.7812  1.5342
  102MOL0     H13712   3.136   0.680   9.684  1.6442  2.3213  0.4283
  102MOL0     H13713   3.264   0.727   9.910  2.3487 -1.7860  0.0110
  102MOL0     H13714   3.112   0.633   9.911 -0.6958 -0.8288  0.3159
  102MOL0     H13715   3.222   0.440   9.944  0.9542 -0.8029  1.3592
  102MOL0     H13716   3.385   0.522   9.921 -0.2315 -1.8031  0.6329
  102MOL0     H13717   3.206   0.620  10.145 -0.0601 -0.2485 -0.0422
  102MOL0     H13718   3.385   0.634  10.134 -0.5499  1.1034 -1.7299
  102MOL0     H13719   3.232   0.368  10.177 -2.9528  1.2529  3.2916
  102MOL0     H13720   3.412   0.392  10.167  0.4364 -1.4890  3.8193
  102MOL0     H13721   3.140   0.447  10.411  0.0053 -1.1228 -0.4312
  102MOL0     H13722   3.120   0.514  10.669  0.0976 -2.2724  0.3772
  102MOL0     H13723   3.241   0.411  10.739 -2.5049  0.2127  1.8044
  102MOL0     H13724   3.247   0.598  10.882 -3.7726  0.1324 -0.4581
  102MOL0     H13725   3.391   0.628  10.776 -0.9105  5.3351  1.0056
  102MOL0     H13726   3.116   0.750  10.764  0.9479  1.2444 -1.4684
  102MOL0     H13727   3.241   0.774  10.637 -2.8897 -2.7006 -1.8026
  102MOL0     H13728   3.274   0.877  10.914 -2.9239  3.6379 -0.2144
  102MOL0     H13729   3.234   0.972  10.772  2.5815  0.5589 -1.8746
  102MOL0     H13730   3.614   0.745  10.865  1.6622  1.5003 -1.3114
  102MOL0     H13731   3.765   0.830  11.056 -1.5611 -0.0701  1.3599
  102MOL0     H13732   3.825   0.804  11.444 -0.6651  0.0277  1.5301
  102MOL0     H13733   3.913   0.841  11.660  0.6967 -0.4392 -1.1403
  102MOL0     H13734   4.248   1.121  11.687  0.3565  1.4716  1.5087
  102MOL0     H13735   4.135   1.213  11.780  0.6369 -0.0303 -1.3556
  102MOL0     H13736   4.245   0.950  11.867 -1.7351  1.4601 -1.1104
  102MOL0     H13737   4.341   1.099  11.904 -0.4968  2.1221  1.6405
  102MOL0     H13738   4.149   1.189  12.016  3.1971  1.0302  0.9338
  102MOL0     H13739   4.064   1.027  12.008 -0.7818  2.0642  1.9340
  102MOL0     H13740   4.312   1.095  12.143  0.0606 -0.8221  2.9812
  102MOL0     H13741   4.257   0.928  12.137 -0.1119 -0.6971 -0.6766
  102MOL0     H13742   4.062   1.013  12.274  0.2195 -0.8243 -0.4844
  102MOL0     H13743   4.125   1.177  12.255 -2.5787  0.1160 -2.5023
  102MOL0     H13744   4.284   0.950  12.396 -1.0185  0.0496  0.9683
  102MOL0     H13745   4.344   1.105  12.381  0.7935 -0.2753  2.4895
  102MOL0     H13746   4.099   1.009  12.538  1.0176  0.1178  0.6557
  102MOL0     H13747   4.119   1.179  12.491 -1.1220  0.7963  2.1454
  102MOL0     H13748   4.320   1.008  12.662 -2.4775 -0.3010  2.0315
  102MOL0     H13749   4.362   1.169  12.595 -1.0918  1.4324 -2.5537
  102MOL0     H13750   4.105   1.206  11.535  0.6160  0.6903 -4.8810
  102MOL0     H13751   3.996   1.183  11.315 -0.2598 -3.3398 -3.4599
  102MOL0     H13752   3.547   1.197  11.053  2.3345 -0.5894  3.8089
  102MOL0     H13753   3.409   1.113  10.881  0.0408 -0.6450 -0.3121
  102MOL0     H13754   3.172   0.908   9.369  2.5672 -4.1529  3.8752
  102MOL0     H13755   3.300   1.091   9.273 -3.4798  0.2776 -1.7381
  102MOL0     H13756   3.686   1.094   8.930 -0.1055 -0.9216 -1.2890
  102MOL0     H13757   3.846   1.245   8.835  0.0134 -2.2442 -0.2281
  102MOL0     H13758   3.717   1.602   8.578 -1.2278 -0.5843  2.9658
  102MOL0     H13759   3.705   1.428   8.533  0.2673  0.9076 -1.2434
  102MOL0     H13760   3.865   1.485   8.385 -1.0801 -0.1482 -0.1523
  102MOL0     H13761   3.965   1.445   8.531 -0.2492 -0.3977  0.4733
  102MOL0     H13762   3.966   1.691   8.589 -0.3451 -1.3449 -0.0076
  102MOL0     H13763   3.877   1.725   8.437  1.3146  0.9257 -0.3328
  102MOL0     H13764   4.124   1.776   8.446 -2.4387  1.7565  1.0623
  102MOL0     H13765   4.144   1.595   8.448  0.3197 -0.8602 -1.2942
  102MOL0     H13766   4.060   1.704   8.041 -3.7898 -5.5357 -0.5938
  102MOL0     H13767   3.540   1.479   8.672 -2.7189 -1.5256 -1.0300
  102MOL0     H13768   3.273   1.300   8.722 -2.6872  1.9474  1.2999
  102MOL0     H13769   3.281   1.361   8.889 -0.8052  1.1741  0.2749
  102MOL0     H13770   3.339   1.471   8.755  0.1228  1.1635  1.0898
  103MOL0     O13771   9.054   9.467   2.266 -0.1848 -0.4509  0.0472
  103MOL0     C13772   9.108   9.518   2.159 -0.1026  0.1671  0.0251
  103MOL0     O13773   9.081   9.486   2.031 -0.7062  0.6350  0.3363
  103MOL0     C13774   9.013   9.365   2.013  0.2778 -0.6079  0.0774
  103MOL0     C13775   9.065   9.266   1.933  0.3508  0.2596  0.0536
  103MOL0     C13776   9.005   9.143   1.911  0.5407  0.7220 -0.3473
  103MOL0     C13777   8.879   9.123   1.969 -0.4986 -0.0847 -0.5574
  103MOL0     O13778   8.812   9.012   1.944  0.6552  0.4335 -0.0887
  103MOL0     C13779   8.886   8.888   1.958 -0.1051  0.5010  0.2614
  103MOL0     C13780   8.796   8.792   1.881 -0.4709 -0.2145 -0.1693
  103MOL0     C13781   8.879   8.671   1.848  0.3497  0.2940  0.2638
  103MOL0     C13782   8.784   8.565   1.799  0.0671  0.9018  0.7593
  103MOL0     C13783   8.845   8.431   1.756  0.4994 -0.0529 -0.2248
  103MOL0     C13784   8.908   8.433   1.613  0.2310  0.2183  0.6674
  103MOL0     C13785   8.819   8.359   1.517  0.4165  0.0066  0.2529
  103MOL0     C13786   8.891   8.338   1.386 -0.2454  0.5006 -0.1244
  103MOL0     N13787   8.948   8.458   1.327 -0.3446 -0.6710 -0.8528
  103MOL0     C13788   8.874   8.578   1.316  0.3037 -0.1069  0.1722
  103MOL0     C13789   8.973   8.675   1.301  1.0730 -0.2966  0.3439
  103MOL0     C13790   8.950   8.830   1.274 -0.1512  0.1812  0.5883
  103MOL0     C13791   8.980   8.925   1.393 -0.0720 -0.1116  0.0647
  103MOL0     C13792   8.862   8.968   1.481  0.7321  0.8018 -0.8413
  103MOL0     C13793   8.774   9.067   1.405 -0.4179  0.4082  0.4572
  103MOL0     O13794   8.826   9.200   1.418  0.1335  0.1917  0.3949
  103MOL0     C13795   8.790   9.280   1.520  0.2908  0.5893  0.7814
  103MOL0     C13796   8.674   9.355   1.497  0.5367 -0.4497 -0.0061
  103MOL0     C13797   8.617   9.439   1.596  0.5801 -0.0740  0.1918
  103MOL0     C13798   8.692   9.456   1.718  0.0701 -0.0964  0.8480
  103MOL0     C13799   8.639   9.550   1.818 -0.4430  0.2250 -0.2681
  103MOL0     O13800   8.724   9.569   1.911 -0.0926  0.1429 -0.1576
  103MOL0     C13801   8.709   9.646   2.026  0.0363 -0.6379  0.5997
  103MOL0     C13802   8.825   9.701   2.071 -0.1111  0.1988 -0.1847
  103MOL0     C13803   8.828   9.785   2.178 -0.0820  1.1635 -1.4402
  103MOL0     C13804   8.708   9.825   2.246 -0.0063  0.8546  0.3519
  103MOL0     O13805   8.694   9.915   2.346 -0.4761 -0.5784  0.4640
  103MOL0     C13806   8.794   9.937   2.441 -0.1253 -0.4893 -0.0131
  103MOL0     C13807   8.808   9.823   2.548  0.6965 -0.6776  0.5191
  103MOL0     C13808   8.915   9.860   2.645 -1.3680  0.0974  0.0665
  103MOL0     C13809   9.054   9.826   2.585  0.9391 -0.6352 -0.2607
  103MOL0     C13810   9.168   9.866   2.683 -0.3770  0.0189 -0.4739
  103MOL0     C13811   9.180   9.767   2.798  0.9644 -0.3516  0.0512
  103MOL0     C13812   9.279   9.828   2.898 -0.9561 -0.4524  0.8726
  103MOL0     C13813   9.328   9.739   3.008 -0.3380 -0.5397 -0.3046
  103MOL0    Cl13814   9.451   9.631   2.933 -0.3168  0.2136  0.4210
  103MOL0     C13815   8.586   9.769   2.198  0.1621  0.4705 -0.2040
  103MOL0     C13816   8.594   9.692   2.084  0.8519  0.6935 -0.8417
  103MOL0     O13817   8.534   9.609   1.799 -0.3752 -0.6713 -0.2871
  103MOL0     C13818   8.826   9.404   1.726 -0.9733 -0.1531 -0.4319
  103MOL0     C13819   8.864   9.305   1.632 -1.1334 -0.1028 -0.7460
  103MOL0     N13820   9.096   8.613   1.311  0.1185 -0.8993 -0.2238
  103MOL0     N13821   9.081   8.491   1.339 -0.3951 -0.4195  0.1404
  103MOL0     C13822   8.831   9.213   2.061  0.0409 -0.4827  0.6209
  103MOL0     C13823   8.895   9.343   2.079 -0.7445  0.4367  0.1471
  103MOL0     C13824   9.191   9.639   2.175 -0.0851  0.1138 -0.1924
  103MOL0     C13825   9.232   9.675   2.307 -0.5708  0.6401  0.0882
  103MOL0     C13826   9.321   9.778   2.335  0.7094 -0.2793  0.4678
  103MOL0     C13827   9.375   9.856   2.235  0.8274  0.0821 -0.8761
  103MOL0     O13828   9.438   9.969   2.281 -0.4224  0.3166  0.2424
  103MOL0     C13829   9.505  10.048   2.189 -0.2463 -0.3057  0.4938
  103MOL0     C13830   9.606  10.128   2.265 -0.3901  1.3569  0.5107
  103MOL0     C13831   9.718  10.178   2.169  0.4764 -0.2752 -0.4181
  103MOL0     C13832   9.690  10.301   2.089 -0.3600  0.6227 -0.1144
  103MOL0     C13833   9.694  10.426   2.172 -0.1661  0.5207 -0.1547
  103MOL0     C13834   9.689  10.516   2.241 -0.2335 -0.6133  0.8403
  103MOL0     C13835   9.334   9.833   2.101 -0.5871  0.2308 -0.4615
  103MOL0     C13836   9.256   9.725   2.071  0.7456 -0.1452 -0.6996
  103MOL0     C13837   9.223   9.712   1.924  0.2568  0.2530  0.1460
  103MOL0     H13838   9.171   9.269   1.908  0.2347  1.0980 -0.3776
  103MOL0     H13839   9.054   9.069   1.848  1.7479 -0.4449  1.8349
  103MOL0     H13840   8.984   8.890   1.908 -0.3691  2.0395 -0.2388
  103MOL0     H13841   8.890   8.851   2.061 -0.7639 -3.8654 -1.0688
  103MOL0     H13842   8.765   8.838   1.787 -0.0085 -1.7947 -1.1233
  103MOL0     H13843   8.700   8.775   1.931 -2.9266  2.5613 -3.4148
  103MOL0     H13844   8.939   8.641   1.934 -0.3504 -2.2961 -0.0704
  103MOL0     H13845   8.955   8.685   1.770 -0.5560  0.2899 -0.6377
  103MOL0     H13846   8.711   8.544   1.877  0.5118  1.5676  1.3628
  103MOL0     H13847   8.721   8.601   1.717  4.5927  1.5765 -2.8395
  103MOL0     H13848   8.940   8.421   1.809  2.6584 -4.5371 -4.1827
  103MOL0     H13849   8.769   8.354   1.771 -0.3277  0.4283 -1.7355
  103MOL0     H13850   8.940   8.535   1.588  2.8048 -0.8946 -0.9673
  103MOL0     H13851   8.998   8.371   1.614 -0.4061 -0.8072 -1.1785
  103MOL0     H13852   8.733   8.426   1.503  2.2526  2.4328 -0.1502
  103MOL0     H13853   8.785   8.260   1.548  6.2598 -3.2331 -2.2046
  103MOL0     H13854   8.973   8.269   1.406  1.0166  2.4079  1.7366
  103MOL0     H13855   8.821   8.287   1.318 -0.3253 -0.9172  0.9602
  103MOL0     H13856   8.768   8.599   1.313  0.1550 -0.6185 -4.1418
  103MOL0     H13857   9.020   8.844   1.192  0.9515 -2.3130  0.9985
  103MOL0     H13858   8.852   8.858   1.233  1.5022  3.5081 -1.4991
  103MOL0     H13859   9.068   8.900   1.453 -0.3698 -0.1592  0.4860
  103MOL0     H13860   9.013   9.018   1.346 -1.9393 -0.0485 -1.2368
  103MOL0     H13861   8.883   9.023   1.573 -3.3759 -0.4234  1.0392
  103MOL0     H13862   8.802   8.881   1.507 -1.6784  1.7040 -3.0475
  103MOL0     H13863   8.675   9.068   1.451 -0.3559 -0.8015  0.6604
  103MOL0     H13864   8.767   9.049   1.297  1.2822 -0.1836  0.4132
  103MOL0     H13865   8.610   9.333   1.413 -0.5252  2.9787 -0.2530
  103MOL0     H13866   8.520   9.486   1.587  0.1481  0.5615  5.1765
  103MOL0     H13867   8.918   9.674   2.023  0.1668  1.9202 -0.6748
  103MOL0     H13868   8.919   9.815   2.229 -0.5985  0.0721  0.2134
  103MOL0     H13869   8.884   9.975   2.392 -1.7505  1.8057 -1.4620
  103MOL0     H13870   8.754  10.025   2.493 -1.7729  0.8365 -3.1826
  103MOL0     H13871   8.710   9.803   2.593 -0.2818  1.4857 -0.4922
  103MOL0     H13872   8.841   9.743   2.482  3.7736 -0.0676  1.1477
  103MOL0     H13873   8.914   9.967   2.668 -0.7807  0.3641 -1.0469
  103MOL0     H13874   8.902   9.809   2.740  0.9813  0.8227  0.8469
  103MOL0     H13875   9.065   9.883   2.492 -0.8748  1.2870  0.6182
  103MOL0     H13876   9.069   9.719   2.567  0.8415 -0.6028 -0.5437
  103MOL0     H13877   9.138   9.967   2.710 -1.1592 -0.3616  0.1098
  103MOL0     H13878   9.267   9.882   2.638  0.9694 -1.6781  1.6975
  103MOL0     H13879   9.087   9.734   2.845  1.1379 -0.9197  0.0075
  103MOL0     H13880   9.226   9.678   2.753 -0.7372 -1.5240  0.5203
  103MOL0     H13881   9.246   9.929   2.926  1.2979  0.2050  1.2973
  103MOL0     H13882   9.367   9.852   2.838 -0.5997 -1.1125  1.1155
  103MOL0     H13883   9.392   9.796   3.076 -2.5599  1.9074 -0.1209
  103MOL0     H13884   9.255   9.689   3.072  0.1015  0.4405  1.0119
  103MOL0     H13885   8.494   9.804   2.245  0.4138  0.0325  0.6383
  103MOL0     H13886   8.505   9.647   2.040  1.0920  0.5461 -1.1808
  103MOL0     H13887   8.889   9.446   1.804 -4.9225  2.3399  1.8108
  103MOL0     H13888   8.968   9.274   1.633 -0.5775  1.5028 -2.2236
  103MOL0     H13889   8.734   9.201   2.108 -0.5550 -0.6352 -0.5957
  103MOL0     H13890   8.846   9.415   2.143  0.1051  0.1536  1.1392
  103MOL0     H13891   9.183   9.620   2.387  0.3406  1.6039  1.3671
  103MOL0     H13892   9.341   9.788   2.441  1.6044  0.3398  0.2537
  103MOL0     H13893   9.431  10.111   2.137  2.1823  2.1484 -0.2086
  103MOL0     H13894   9.555   9.987   2.113 -0.2614 -0.0604  0.2843
  103MOL0     H13895   9.648  10.056   2.336  0.0050 -0.9034 -1.8731
  103MOL0     H13896   9.568  10.218   2.315 -0.4148  2.3768 -1.2465
  103MOL0     H13897   9.734  10.103   2.091 -1.7673 -0.8432 -0.4018
  103MOL0     H13898   9.801  10.188   2.240  1.3632  0.1391 -1.4959
  103MOL0     H13899   9.768  10.317   2.014 -1.2130  0.6848 -0.9993
  103MOL0     H13900   9.596  10.303   2.034  0.1225  0.2936 -0.9727
  103MOL0     H13901   9.671  10.600   2.305  1.1352  0.9456 -0.7249
  103MOL0     H13902   9.360   9.905   2.024  0.6911 -0.2630 -0.5161
  103MOL0     H13903   9.117   9.687   1.924  0.8957 -2.8787  0.4973
  103MOL0     H13904   9.253   9.798   1.863 -0.1277  0.6531  0.5179
  103MOL0     H13905   9.268   9.618   1.888 -0.5419 -1.6215  3.6526
  104MOL0     O13906   2.711   6.871   6.233  0.5801 -0.3036 -0.8103
  104MOL0     C13907   2.809   6.928   6.266  0.3049  0.0395 -0.4916
  104MOL0     O13908   2.811   7.057   6.306  0.9385  0.1310 -0.0998
  104MOL0     C13909   2.686   7.105   6.350 -0.7309 -0.9795  0.1989
  104MOL0     C13910   2.633   7.052   6.470  0.0821  0.1607  0.0267
  104MOL0     C13911   2.514   7.107   6.521 -0.2185  0.8618 -0.4804
  104MOL0     C13912   2.450   7.202   6.442  0.7383  1.1194 -0.0807
  104MOL0     O13913   2.317   7.242   6.478 -0.8467  1.1382  0.3720
  104MOL0     C13914   2.229   7.306   6.376  0.0439  0.3012  0.4119
  104MOL0     C13915   2.076   7.310   6.438 -0.6645  0.7877  0.8196
  104MOL0     C13916   1.977   7.365   6.343  0.8536 -0.9731 -0.0576
  104MOL0     C13917   1.835   7.380   6.425  0.2863 -0.3276  0.2676
  104MOL0     C13918   1.719   7.390   6.330 -0.7600  0.0101  0.0944
  104MOL0     C13919   1.679   7.272   6.239 -0.4884  0.1646  0.2789
  104MOL0     C13920   1.638   7.144   6.315 -0.0360 -0.2055 -0.4207
  104MOL0     C13921   1.502   7.093   6.286  0.6247  0.2439 -0.2103
  104MOL0     N13922   1.385   7.138   6.368 -0.1175 -0.7581 -0.9929
  104MOL0     C13923   1.386   7.131   6.505 -0.2090  0.4926 -0.7128
  104MOL0     C13924   1.266   7.191   6.536  0.4272 -0.5468 -0.1833
  104MOL0     C13925   1.224   7.226   6.674  0.3345  0.8847  0.0277
  104MOL0     C13926   1.289   7.345   6.740  0.0497  0.5427 -0.4197
  104MOL0     C13927   1.243   7.478   6.685 -0.3173  0.0153  0.6211
  104MOL0     C13928   1.353   7.585   6.691  0.0868  0.3574  0.8409
  104MOL0     O13929   1.369   7.643   6.816 -0.0582  0.3534 -0.3871
  104MOL0     C13930   1.263   7.719   6.861 -0.1157  0.6686 -0.1186
  104MOL0     C13931   1.245   7.752   7.000 -0.5412  0.3510 -0.4441
  104MOL0     C13932   1.137   7.839   7.041  1.2356 -0.2216  0.0675
  104MOL0     C13933   1.042   7.879   6.950  0.4886 -0.5007  0.0933
  104MOL0     C13934   0.911   7.934   7.010 -0.5115 -0.3966  0.2480
  104MOL0     O13935   0.808   7.987   6.914 -0.1874  0.3652  0.5120
  104MOL0     C13936   0.725   8.068   6.983 -0.3408 -0.0607  0.5976
  104MOL0     C13937   0.721   8.203   6.970 -0.9332 -0.4449  0.3168
  104MOL0     C13938   0.627   8.280   7.023 -0.5046 -0.0126 -0.0547
  104MOL0     C13939   0.530   8.227   7.107  0.4541  0.3349  0.5903
  104MOL0     O13940   0.448   8.316   7.166  1.0866 -0.3061  1.1113
  104MOL0     C13941   0.372   8.291   7.285  0.0707  0.2683 -0.6961
  104MOL0     C13942   0.228   8.247   7.239  0.9507  0.1419  0.5889
  104MOL0     C13943   0.141   8.238   7.368  0.1052  0.0945  0.2125
  104MOL0     C13944   0.151   8.096   7.426 -0.1351  0.8024  0.1995
  104MOL0     C13945   0.125   8.086   7.579 -0.7208 -0.4739  0.5610
  104MOL0     C13946   0.123   7.944   7.620  0.3730  0.6011  1.0560
  104MOL0     C13947   0.015   7.911   7.726 -0.4700 -0.8564  0.4351
  104MOL0     C13948   0.046   7.984   7.862 -0.1343  0.5695  0.1534
  104MOL0    Cl13949  -0.077   7.937   7.985  0.0058  0.0315  0.4864
  104MOL0     C13950   0.530   8.085   7.127  0.2365 -0.6601 -1.1355
  104MOL0     C13951   0.629   8.010   7.069 -0.9584  0.8239 -0.0929
  104MOL0     O13952   0.906   7.951   7.135  0.1272 -0.5098  0.2917
  104MOL0     C13953   1.062   7.852   6.823  0.6126 -0.5569 -0.7978
  104MOL0     C13954   1.165   7.779   6.774  0.2066 -0.7290 -0.1040
  104MOL0     N13955   1.203   7.235   6.420 -0.9582 -0.1964 -1.3570
  104MOL0     N13956   1.276   7.212   6.322  0.2401 -0.0140 -0.2418
  104MOL0     C13957   2.511   7.246   6.325 -0.1778  0.0103 -0.1141
  104MOL0     C13958   2.630   7.205   6.280 -0.9823  0.4121 -1.0413
  104MOL0     C13959   2.930   6.833   6.278 -0.5729  0.0442  0.0502
  104MOL0     C13960   2.923   6.698   6.262 -0.0581 -0.0068  0.4239
  104MOL0     C13961   3.024   6.614   6.293  0.1007  0.8764  0.6774
  104MOL0     C13962   3.147   6.665   6.317 -0.5801 -0.2020 -0.4822
  104MOL0     O13963   3.255   6.574   6.327 -0.1404 -1.1649  0.3634
  104MOL0     C13964   3.351   6.607   6.426 -0.4811  0.0451  0.1451
  104MOL0     C13965   3.478   6.531   6.398  0.6923 -0.5386  0.7810
  104MOL0     C13966   3.476   6.382   6.440 -1.0358 -0.6501  0.6594
  104MOL0     C13967   3.538   6.314   6.323  0.0803 -0.5456 -0.0301
  104MOL0     C13968   3.524   6.168   6.341 -0.2226 -0.7346 -0.2294
  104MOL0     C13969   3.507   6.049   6.340  0.0301  0.0832 -0.4514
  104MOL0     C13970   3.164   6.805   6.334 -0.0545  0.5961  0.0163
  104MOL0     C13971   3.053   6.889   6.324 -0.0549  0.3806 -0.1042
  104MOL0     C13972   3.074   7.039   6.357 -0.4800 -0.5841 -0.4368
  104MOL0     H13973   2.683   6.975   6.528 -0.3590 -0.8595 -0.9251
  104MOL0     H13974   2.469   7.079   6.615 -1.4204  5.3837  0.5500
  104MOL0     H13975   2.249   7.412   6.358 -0.0822  0.1491 -0.6817
  104MOL0     H13976   2.232   7.252   6.281 -0.5357  4.1891 -2.0229
  104MOL0     H13977   2.101   7.372   6.525  2.6198  0.3350  0.3586
  104MOL0     H13978   2.053   7.212   6.479 -1.7168  1.1310  1.0649
  104MOL0     H13979   1.970   7.291   6.262 -0.8390  0.2256 -1.0651
  104MOL0     H13980   2.003   7.461   6.299 -4.8926  0.6781 -0.7643
  104MOL0     H13981   1.836   7.303   6.503  2.7886  0.0109  0.6312
  104MOL0     H13982   1.838   7.474   6.480 -1.0257  0.8569 -1.5598
  104MOL0     H13983   1.635   7.419   6.394 -1.3986  2.0314 -1.5429
  104MOL0     H13984   1.744   7.473   6.263  1.5212  0.7096  1.6697
  104MOL0     H13985   1.606   7.300   6.162  1.0163  1.5328 -0.7229
  104MOL0     H13986   1.766   7.240   6.180 -0.7006 -0.3935  0.2645
  104MOL0     H13987   1.657   7.170   6.419  0.4369  3.8042 -1.3618
  104MOL0     H13988   1.710   7.066   6.290  1.4877  1.7320 -2.4801
  104MOL0     H13989   1.473   7.088   6.180 -2.7602 -3.0341  0.6571
  104MOL0     H13990   1.510   6.986   6.307 -0.3309  0.1299 -0.3880
  104MOL0     H13991   1.466   7.093   6.568 -0.3623 -1.7862 -1.8046
  104MOL0     H13992   1.117   7.246   6.683  0.2957 -0.1046  2.6624
  104MOL0     H13993   1.218   7.140   6.741 -3.0743 -0.0531 -1.2927
  104MOL0     H13994   1.242   7.340   6.839 -1.1842 -2.3243 -1.0390
  104MOL0     H13995   1.398   7.341   6.747 -0.0430 -2.1037  0.4136
  104MOL0     H13996   1.163   7.514   6.750  1.6658  2.1080  2.0513
  104MOL0     H13997   1.204   7.481   6.582 -0.8632 -0.4804  0.8037
  104MOL0     H13998   1.335   7.651   6.606  1.0377  1.5585  1.5505
  104MOL0     H13999   1.446   7.532   6.670 -0.8591 -1.0512  0.0196
  104MOL0     H14000   1.318   7.713   7.071 -1.4702  0.3154  0.5082
  104MOL0     H14001   1.135   7.860   7.148 -0.6960  1.3631 -0.2133
  104MOL0     H14002   0.790   8.250   6.901 -0.0650 -2.0819  0.0171
  104MOL0     H14003   0.630   8.386   6.997  0.7793 -0.3936 -1.6762
  104MOL0     H14004   0.429   8.219   7.346 -3.1993 -1.2227  0.8234
  104MOL0     H14005   0.363   8.381   7.345  1.4004 -0.6202  0.9363
  104MOL0     H14006   0.172   8.321   7.181  0.2314 -1.4611 -0.8153
  104MOL0     H14007   0.237   8.150   7.190  5.1982  0.7128 -0.1808
  104MOL0     H14008   0.180   8.315   7.434 -1.2351  1.0480 -0.0655
  104MOL0     H14009   0.036   8.256   7.343 -0.1246  0.8317  1.6425
  104MOL0     H14010   0.241   8.034   7.418 -1.3670 -1.2432  1.2247
  104MOL0     H14011   0.073   8.036   7.378  0.2336  0.7673 -0.3752
  104MOL0     H14012   0.032   8.139   7.596 -2.4995 -1.6321 -3.9473
  104MOL0     H14013   0.207   8.134   7.633 -1.8605  0.8196  1.2003
  104MOL0     H14014   0.112   7.881   7.531  0.1257  3.2160 -0.8872
  104MOL0     H14015   0.220   7.917   7.662  1.1734 -1.8826 -2.0180
  104MOL0     H14016   0.013   7.802   7.736  0.4402 -1.1222 -1.7852
  104MOL0     H14017  -0.080   7.941   7.681 -1.4091 -2.6273  1.1383
  104MOL0     H14018   0.146   7.976   7.905  1.6196  1.6600 -3.3727
  104MOL0     H14019   0.039   8.092   7.847  0.3130  0.8324  1.7042
  104MOL0     H14020   0.465   8.042   7.203 -0.2123  2.1149  0.1886
  104MOL0     H14021   0.635   7.908   7.105 -0.7119  0.2511 -1.6897
  104MOL0     H14022   0.988   7.897   6.757 -1.2924  1.3132  2.3383
  104MOL0     H14023   1.171   7.766   6.666  1.7722  1.7560 -0.4074
  104MOL0     H14024   2.460   7.316   6.259 -1.5887 -0.8713  0.0048
  104MOL0     H14025   2.672   7.256   6.194  0.0553  2.2538  0.4965
  104MOL0     H14026   2.836   6.645   6.225 -0.5090  0.2318  1.1183
  104MOL0     H14027   3.011   6.508   6.272  0.6554  1.0399 -0.5365
  104MOL0     H14028   3.311   6.580   6.524  1.2079 -3.2836  0.0692
  104MOL0     H14029   3.371   6.715   6.428 -1.4904  0.2318  1.0940
  104MOL0     H14030   3.563   6.583   6.443  2.2417 -0.9115 -1.5718
  104MOL0     H14031   3.484   6.540   6.289 -0.3274 -1.3306  0.6407
  104MOL0     H14032   3.374   6.345   6.448 -1.0600 -0.5972  0.5884
  104MOL0     H14033   3.540   6.363   6.527 -0.7189  0.2535  0.6353
  104MOL0     H14034   3.492   6.352   6.231 -1.1141  2.2733  1.5931
  104MOL0     H14035   3.642   6.346   6.316 -0.0625 -0.2095 -0.8801
  104MOL0     H14036   3.491   5.943   6.336 -1.1998  0.2922 -2.0590
  104MOL0     H14037   3.265   6.839   6.352  0.4209 -1.4338  1.4838
  104MOL0     H14038   3.050   7.109   6.276 -0.2153 -0.0287 -0.0394
  104MOL0     H14039   3.015   7.070   6.443  0.6241 -0.4541  0.2984
  104MOL0     H14040   3.180   7.055   6.380 -0.5195  0.4645 -0.9408
  105MOL0     O14041  10.354   1.370   2.148 -0.1009  0.0958 -0.0075
  105MOL0     C14042  10.314   1.482   2.124  0.0135  0.0942 -0.4392
  105MOL0     O14043  10.297   1.578   2.213 -0.1793 -0.4833 -0.3424
  105MOL0     C14044  10.400   1.611   2.308  0.0125 -0.2455  0.5499
  105MOL0     C14045  10.530   1.567   2.318 -0.1064 -1.0782 -0.0819
  105MOL0     C14046  10.624   1.613   2.407  0.1160 -0.2002  0.3550
  105MOL0     C14047  10.591   1.716   2.491  0.3039 -0.3626  0.2558
  105MOL0     O14048  10.693   1.770   2.569 -0.1001 -0.1107  0.7329
  105MOL0     C14049  10.672   1.876   2.661  0.4363  0.2904 -0.1200
  105MOL0     C14050  10.796   1.947   2.717  0.5019  0.8605  0.1834
  105MOL0     C14051  10.912   1.953   2.617 -0.5983 -0.3404  1.0303
  105MOL0     C14052  11.040   2.001   2.694  1.0625  0.5612 -0.1081
  105MOL0     C14053  11.145   2.052   2.600  0.5402  0.0728  0.0559
  105MOL0     C14054  11.267   2.079   2.692  0.1456 -0.8936 -0.4704
  105MOL0     C14055  11.374   2.150   2.601 -0.1663  0.3603  0.3666
  105MOL0     C14056  11.519   2.159   2.671  0.1744 -0.5590  0.5681
  105MOL0     N14057  11.518   2.226   2.801  0.4823  1.0105 -0.2174
  105MOL0     C14058  11.551   2.174   2.924  0.1580 -0.9135  0.6014
  105MOL0     C14059  11.559   2.284   3.005 -0.1179  0.3539  0.2325
  105MOL0     C14060  11.603   2.293   3.147  0.7568  0.6474  0.2547
  105MOL0     C14061  11.743   2.357   3.144  0.0147 -0.5150 -1.2230
  105MOL0     C14062  11.747   2.507   3.144  0.0322 -0.2696  0.4587
  105MOL0     C14063  11.678   2.560   3.269  0.1685  0.2495  0.1305
  105MOL0     O14064  11.735   2.501   3.386 -0.0716  0.0004 -0.4461
  105MOL0     C14065  11.669   2.536   3.500 -0.1908 -0.4744  0.6786
  105MOL0     C14066  11.548   2.480   3.523  0.2412  0.9328 -0.2915
  105MOL0     C14067  11.484   2.506   3.643  0.4103  0.2630 -0.1627
  105MOL0     C14068  11.530   2.594   3.740  0.2118 -0.5238  0.3249
  105MOL0     C14069  11.456   2.606   3.868 -0.3064 -0.5186  1.1080
  105MOL0     O14070  11.532   2.645   3.975  0.2389  0.2317 -0.4356
  105MOL0     C14071  11.467   2.679   4.095  0.7044  0.1160  0.6184
  105MOL0     C14072  11.338   2.744   4.101 -0.4240 -0.5370  0.6919
  105MOL0     C14073  11.280   2.780   4.226  0.8232 -0.0554 -0.2272
  105MOL0     C14074  11.353   2.757   4.348  0.6481  0.2941 -0.4139
  105MOL0     O14075  11.293   2.765   4.471 -0.1648 -0.5560 -0.6150
  105MOL0     C14076  11.258   2.898   4.524 -0.1868  0.9449 -0.5619
  105MOL0     C14077  11.199   2.888   4.667  0.0623 -0.1634 -0.0059
  105MOL0     C14078  11.049   2.934   4.676  0.4695 -0.0892  0.3567
  105MOL0     C14079  11.016   2.974   4.829 -0.3824 -0.8026 -0.5731
  105MOL0     C14080  10.879   2.909   4.869  0.6092 -0.3099 -0.7120
  105MOL0     C14081  10.839   2.921   5.019  0.4192  0.2390 -0.0184
  105MOL0     C14082  10.691   2.874   5.056 -0.4234  0.2937  0.2017
  105MOL0     C14083  10.657   2.909   5.200  0.3519 -0.3438 -0.2150
  105MOL0    Cl14084  10.768   2.826   5.314 -0.1950 -0.1689 -0.4151
  105MOL0     C14085  11.478   2.697   4.343 -0.2587 -0.3226  1.1173
  105MOL0     C14086  11.528   2.652   4.220  1.1247  0.6002  0.4701
  105MOL0     O14087  11.337   2.574   3.871  0.2468  0.5627  0.0584
  105MOL0     C14088  11.651   2.662   3.706 -0.9343  0.6311  0.0036
  105MOL0     C14089  11.720   2.630   3.586 -0.0751 -1.3681  0.0026
  105MOL0     N14090  11.538   2.405   2.936  0.4965 -0.1884 -0.6878
  105MOL0     N14091  11.518   2.365   2.807  0.8606 -0.3793 -0.2486
  105MOL0     C14092  10.461   1.758   2.495 -0.5285 -0.6499  0.4367
  105MOL0     C14093  10.365   1.710   2.403 -0.2923  0.0807 -0.1975
  105MOL0     C14094  10.280   1.511   1.985  0.6078 -0.5584  0.1020
  105MOL0     C14095  10.367   1.598   1.910  1.2026  0.8822 -0.2136
  105MOL0     C14096  10.316   1.648   1.786 -0.7232  0.4346 -0.3679
  105MOL0     C14097  10.199   1.601   1.725  0.7347 -0.1258  0.3339
  105MOL0     O14098  10.134   1.635   1.610  0.0796 -0.5636 -0.2615
  105MOL0     C14099  10.214   1.708   1.509  0.1288  0.0347  0.7946
  105MOL0     C14100  10.162   1.690   1.360  0.5136 -0.6759  0.5456
  105MOL0     C14101  10.034   1.781   1.337  0.7190  0.2346 -0.5123
  105MOL0     C14102   9.993   1.783   1.187  0.5542  0.1232 -0.4272
  105MOL0     C14103  10.095   1.837   1.107 -0.4362 -0.1661  1.6387
  105MOL0     C14104  10.178   1.898   1.038  0.4226  0.0455 -0.0870
  105MOL0     C14105  10.125   1.504   1.796  0.8976  0.7853 -0.4717
  105MOL0     C14106  10.163   1.464   1.930  0.4909 -0.6662  0.2452
  105MOL0     C14107  10.084   1.353   2.001 -0.1026 -0.0187 -0.6291
  105MOL0     H14108  10.565   1.498   2.241  2.3698  0.6730 -0.6494
  105MOL0     H14109  10.727   1.577   2.408  0.1075 -0.2177  0.9262
  105MOL0     H14110  10.611   1.949   2.607 -0.7668 -0.9309 -0.4711
  105MOL0     H14111  10.613   1.826   2.738  0.9486 -0.6295 -0.3119
  105MOL0     H14112  10.828   1.897   2.809  1.7002  2.3007  0.5886
  105MOL0     H14113  10.784   2.047   2.758  2.4797  0.8964  0.7819
  105MOL0     H14114  10.893   2.033   2.545  0.1499 -0.5366  0.6001
  105MOL0     H14115  10.922   1.853   2.572 -1.5593 -2.3416  4.8846
  105MOL0     H14116  11.014   2.080   2.764 -0.9550 -0.2797  0.1748
  105MOL0     H14117  11.084   1.916   2.746 -0.0336  0.2681  0.3790
  105MOL0     H14118  11.160   1.991   2.510 -1.7609 -1.1498  0.4246
  105MOL0     H14119  11.100   2.142   2.557 -0.2166 -0.8049 -1.0620
  105MOL0     H14120  11.250   2.148   2.775 -2.0696 -0.3755 -1.2877
  105MOL0     H14121  11.301   1.984   2.735 -0.2864 -0.9718 -0.3041
  105MOL0     H14122  11.339   2.247   2.563  0.2654  0.7308  0.8934
  105MOL0     H14123  11.382   2.083   2.515 -3.1753  0.6851 -0.2871
  105MOL0     H14124  11.561   2.059   2.676 -0.9929 -1.1705 -0.8575
  105MOL0     H14125  11.581   2.217   2.603  0.1793  0.8867  1.7540
  105MOL0     H14126  11.604   2.083   2.948  4.2081  1.0740 -0.0345
  105MOL0     H14127  11.530   2.335   3.217  1.0292  2.1650 -0.3246
  105MOL0     H14128  11.604   2.192   3.188 -0.2841 -0.3379 -1.9879
  105MOL0     H14129  11.791   2.326   3.238  1.1303  1.7432 -0.9722
  105MOL0     H14130  11.805   2.316   3.064  1.3983 -2.7356  0.8520
  105MOL0     H14131  11.694   2.550   3.059 -0.0455  2.7781  1.9193
  105MOL0     H14132  11.850   2.543   3.152 -0.4303  0.7195  2.5208
  105MOL0     H14133  11.571   2.541   3.268 -0.1325  1.8403 -0.5927
  105MOL0     H14134  11.680   2.670   3.270 -0.8879  0.2717  0.4888
  105MOL0     H14135  11.492   2.404   3.468 -2.0135  1.1406  1.5419
  105MOL0     H14136  11.394   2.453   3.670  1.2359 -0.2197  1.8531
  105MOL0     H14137  11.306   2.775   4.002  2.1539 -1.1157 -0.4120
  105MOL0     H14138  11.178   2.816   4.221  0.8711 -0.0079 -0.9293
  105MOL0     H14139  11.349   2.959   4.533 -1.5532  3.0339 -0.3431
  105MOL0     H14140  11.185   2.949   4.461  1.9488  0.7456 -3.3644
  105MOL0     H14141  11.200   2.782   4.693  1.4017 -0.2123 -0.2103
  105MOL0     H14142  11.271   2.939   4.730  0.0350  2.2300 -1.7726
  105MOL0     H14143  11.042   3.022   4.611  2.4069  0.2092  0.5135
  105MOL0     H14144  10.982   2.855   4.640  0.5347  0.0771 -0.1320
  105MOL0     H14145  11.015   3.082   4.844  0.3287 -0.6556 -1.4650
  105MOL0     H14146  11.090   2.939   4.901  2.1497  2.4484 -1.3808
  105MOL0     H14147  10.895   2.804   4.844  1.8888 -0.1560 -0.6454
  105MOL0     H14148  10.798   2.952   4.809  0.7006  3.5691  1.5589
  105MOL0     H14149  10.920   2.889   5.084  1.6333  3.2896  0.1421
  105MOL0     H14150  10.834   3.029   5.036  0.6748  0.2868 -0.2312
  105MOL0     H14151  10.696   2.765   5.054  1.5205  0.3521 -0.1731
  105MOL0     H14152  10.623   2.906   4.977 -2.2619 -1.2518  1.0692
  105MOL0     H14153  10.671   3.017   5.216 -2.1919 -0.0729  0.5252
  105MOL0     H14154  10.555   2.882   5.225  0.8107 -2.1324 -0.1970
  105MOL0     H14155  11.533   2.689   4.436 -2.7866  2.4497  3.0662
  105MOL0     H14156  11.618   2.591   4.217  0.0010 -1.0817 -0.0831
  105MOL0     H14157  11.695   2.735   3.772 -0.7731  0.4185  0.1329
  105MOL0     H14158  11.805   2.690   3.558 -1.6952  2.8081  3.0675
  105MOL0     H14159  10.425   1.833   2.565 -1.2351  0.1335 -0.7190
  105MOL0     H14160  10.264   1.746   2.414 -0.7158 -0.0221 -3.1173
  105MOL0     H14161  10.460   1.631   1.955  1.9664 -0.3777 -0.7995
  105MOL0     H14162  10.374   1.737   1.763  0.4211  1.0023  3.8114
  105MOL0     H14163  10.319   1.675   1.509  0.5662  1.2854 -0.7235
  105MOL0     H14164  10.218   1.816   1.525 -0.6491  0.3449 -0.8963
  105MOL0     H14165  10.142   1.583   1.351  2.5069 -1.2714  2.2449
  105MOL0     H14166  10.240   1.715   1.287 -1.5403 -0.0337 -1.5482
  105MOL0     H14167  10.048   1.882   1.378  3.9479 -0.5527  0.5759
  105MOL0     H14168   9.946   1.738   1.387  0.3486  0.0139 -1.3410
  105MOL0     H14169   9.964   1.682   1.156  0.5933  0.1956 -0.6961
  105MOL0     H14170   9.904   1.846   1.174 -1.7244 -2.2046  2.2662
  105MOL0     H14171  10.249   1.940   0.969  1.1657  0.3167  0.8203
  105MOL0     H14172  10.025   1.471   1.770 -0.0377  0.1920  3.3281
  105MOL0     H14173  10.141   1.261   1.988  0.7513  0.6822 -2.2211
  105MOL0     H14174  10.064   1.372   2.107 -1.4939  2.1850 -1.2178
  105MOL0     H14175   9.987   1.342   1.950 -0.0031  0.0827 -0.8411
  106MOL0     O14176   3.159   2.708   8.622 -0.9471  0.6135  0.3448
  106MOL0     C14177   3.252   2.748   8.694  1.1504  0.5858  0.9656
  106MOL0     O14178   3.291   2.689   8.798 -0.0272  0.6370 -0.8833
  106MOL0     C14179   3.301   2.551   8.812 -1.6629 -0.3195  0.1249
  106MOL0     C14180   3.297   2.457   8.707  0.1013 -0.8715 -0.1759
  106MOL0     C14181   3.304   2.321   8.733  0.3334 -0.3894  0.9417
  106MOL0     C14182   3.323   2.274   8.859  0.0223  0.3392  0.1978
  106MOL0     O14183   3.337   2.136   8.881 -0.5680 -0.0823  1.3259
  106MOL0     C14184   3.384   2.044   8.774  0.1161  0.1587  0.6428
  106MOL0     C14185   3.321   1.908   8.802 -0.7362  0.6833  0.5741
  106MOL0     C14186   3.177   1.893   8.839 -0.0777  0.7046  0.1896
  106MOL0     C14187   3.106   1.771   8.777 -0.0058  0.7525 -0.1541
  106MOL0     C14188   2.955   1.774   8.806  0.1664 -0.8548  0.5969
  106MOL0     C14189   2.880   1.685   8.706 -0.3454  0.0674  0.1497
  106MOL0     C14190   2.731   1.687   8.731  0.2969  0.4805  0.8936
  106MOL0     C14191   2.654   1.621   8.616  0.0758 -0.1121 -0.3017
  106MOL0     N14192   2.677   1.471   8.597 -0.4947 -0.6786 -0.5001
  106MOL0     C14193   2.617   1.412   8.494 -0.2180  0.3993 -0.0134
  106MOL0     C14194   2.652   1.290   8.499  0.6405  0.9135 -0.1134
  106MOL0     C14195   2.603   1.189   8.389  0.6501 -0.4538 -0.6224
  106MOL0     C14196   2.690   1.157   8.270  0.3141 -0.0132 -0.5715
  106MOL0     C14197   2.708   1.268   8.179  0.4148 -0.8276  0.1146
  106MOL0     C14198   2.841   1.346   8.205 -1.2466  0.1144  0.4350
  106MOL0     O14199   2.846   1.444   8.099 -0.2238 -0.1273  0.2521
  106MOL0     C14200   2.972   1.448   8.054 -0.0827 -0.1686  0.9855
  106MOL0     C14201   3.004   1.359   7.952  0.0209 -0.9816  0.6398
  106MOL0     C14202   3.143   1.343   7.918  0.2457 -0.0950 -0.2440
  106MOL0     C14203   3.253   1.413   7.975  1.7089  0.6684 -0.0112
  106MOL0     C14204   3.395   1.372   7.960  0.6536  0.0176  0.0480
  106MOL0     O14205   3.482   1.419   8.053 -0.0607  0.1408 -0.3098
  106MOL0     C14206   3.614   1.379   8.054  0.4411 -0.5217  0.6920
  106MOL0     C14207   3.711   1.453   7.985 -0.0915  0.2144 -0.1823
  106MOL0     C14208   3.837   1.399   7.975  0.1710  0.1511 -0.4408
  106MOL0     C14209   3.888   1.295   8.049 -0.1970  0.4166 -0.8595
  106MOL0     O14210   4.026   1.277   8.070 -0.5384 -0.2238  0.0161
  106MOL0     C14211   4.093   1.197   7.977 -0.2286 -0.2171  0.1038
  106MOL0     C14212   4.243   1.213   7.978 -0.5513  0.4193  0.4238
  106MOL0     C14213   4.303   1.178   8.121 -0.0293 -0.5513 -0.3762
  106MOL0     C14214   4.323   1.311   8.191  0.1987  0.1943  0.1596
  106MOL0     C14215   4.396   1.286   8.317 -0.2774 -0.0325  0.1260
  106MOL0     C14216   4.394   1.403   8.420 -0.4814  0.1102  1.4078
  106MOL0     C14217   4.467   1.379   8.552 -0.8336  0.9791 -0.2981
  106MOL0     C14218   4.499   1.509   8.625  0.8766 -0.2574 -0.7648
  106MOL0    Cl14219   4.342   1.570   8.704 -0.4305  0.2779  0.3216
  106MOL0     C14220   3.796   1.225   8.128  0.6519 -0.1636  0.4917
  106MOL0     C14221   3.663   1.263   8.122  0.8632  0.3333  0.0777
  106MOL0     O14222   3.422   1.296   7.870 -0.0448 -0.4476  0.0991
  106MOL0     C14223   3.204   1.503   8.070  0.5314  0.0399  0.0549
  106MOL0     C14224   3.066   1.527   8.101 -0.2862  0.3035 -0.3165
  106MOL0     N14225   2.730   1.273   8.613  0.2564  0.5415  0.0294
  106MOL0     N14226   2.757   1.388   8.668  0.2386 -0.1121 -0.3794
  106MOL0     C14227   3.320   2.365   8.963 -0.2603 -0.0290 -0.2259
  106MOL0     C14228   3.317   2.505   8.937 -0.0649 -0.0351  0.5435
  106MOL0     C14229   3.304   2.886   8.669  0.4350 -1.0472  0.8169
  106MOL0     C14230   3.338   2.965   8.779  0.1384 -0.6426 -0.1878
  106MOL0     C14231   3.398   3.095   8.758  0.1019  0.2844 -0.8818
  106MOL0     C14232   3.426   3.142   8.625 -0.0785  0.3595  0.2675
  106MOL0     O14233   3.474   3.277   8.614  0.9594  0.5736 -0.7751
  106MOL0     C14234   3.454   3.360   8.500 -0.0490  0.3564  0.1122
  106MOL0     C14235   3.539   3.491   8.501  0.0721  0.6382  0.1002
  106MOL0     C14236   3.686   3.463   8.456  0.2953  0.1608 -0.0001
  106MOL0     C14237   3.760   3.608   8.461  0.7957  0.4602  1.4413
  106MOL0     C14238   3.780   3.653   8.593 -0.0945  1.1011 -0.3009
  106MOL0     C14239   3.796   3.710   8.697  0.1636 -0.2122 -0.4382
  106MOL0     C14240   3.398   3.064   8.521 -0.6513 -0.1774 -0.5033
  106MOL0     C14241   3.336   2.937   8.539  0.2413 -0.1784  0.7637
  106MOL0     C14242   3.297   2.849   8.417  0.2735  0.9373 -0.1010
  106MOL0     H14243   3.271   2.502   8.611 -1.2184  1.1172  1.0345
  106MOL0     H14244   3.299   2.258   8.645  1.6655  2.9659 -1.7494
  106MOL0     H14245   3.348   2.068   8.674  0.7943 -1.1324  0.0728
  106MOL0     H14246   3.493   2.034   8.769  0.2011  0.4609  1.5404
  106MOL0     H14247   3.379   1.863   8.883 -1.9946  2.2795  2.4544
  106MOL0     H14248   3.339   1.856   8.707  0.4773  3.6044 -0.9223
  106MOL0     H14249   3.115   1.982   8.825  0.9855  1.6366  1.1756
  106MOL0     H14250   3.178   1.896   8.948 -0.3886 -1.8823  0.3362
  106MOL0     H14251   3.120   1.773   8.668  5.1157  2.0591  0.2700
  106MOL0     H14252   3.145   1.675   8.810  0.3054  1.3830  1.3601
  106MOL0     H14253   2.944   1.746   8.911  2.3343  2.4685  1.8564
  106MOL0     H14254   2.912   1.873   8.789 -0.0146 -1.2291 -1.3411
  106MOL0     H14255   2.895   1.704   8.600 -0.1396 -2.3750 -0.3075
  106MOL0     H14256   2.919   1.585   8.722  1.0739  0.5077 -0.4672
  106MOL0     H14257   2.681   1.780   8.761  1.0814  0.4963  2.2507
  106MOL0     H14258   2.713   1.623   8.818 -2.8850 -2.2662 -1.5384
  106MOL0     H14259   2.550   1.645   8.640  0.8919  1.5857  1.9048
  106MOL0     H14260   2.689   1.672   8.526  4.0789 -1.8963  0.0175
  106MOL0     H14261   2.555   1.461   8.420 -0.0591  3.1968  1.5484
  106MOL0     H14262   2.598   1.088   8.432 -1.4787 -1.8211 -3.6750
  106MOL0     H14263   2.502   1.222   8.363 -0.5731 -1.0130  2.8334
  106MOL0     H14264   2.782   1.120   8.317 -0.8159 -2.2860  0.0152
  106MOL0     H14265   2.640   1.074   8.218  1.1271 -0.2284 -1.0224
  106MOL0     H14266   2.627   1.341   8.189  1.1845 -0.2725  3.6860
  106MOL0     H14267   2.705   1.232   8.075 -2.7957  1.1437 -0.6099
  106MOL0     H14268   2.934   1.290   8.220  1.1673  4.2265  2.4831
  106MOL0     H14269   2.835   1.402   8.299 -1.7151  0.2527  0.3275
  106MOL0     H14270   2.934   1.288   7.910  1.9879 -2.5924 -0.0732
  106MOL0     H14271   3.173   1.275   7.839 -1.3040 -0.2750 -0.7156
  106MOL0     H14272   3.693   1.545   7.930  1.6821  1.2283  0.8461
  106MOL0     H14273   3.910   1.461   7.924 -0.0078  0.5288 -0.2377
  106MOL0     H14274   4.054   1.095   7.987  0.5753 -0.5156  0.1955
  106MOL0     H14275   4.054   1.222   7.878 -1.5708  1.1805  0.9408
  106MOL0     H14276   4.273   1.137   7.906  0.1380 -0.2018  1.3304
  106MOL0     H14277   4.287   1.309   7.950  2.6440 -1.0360 -0.0612
  106MOL0     H14278   4.244   1.106   8.179  1.0450 -0.2571  1.1399
  106MOL0     H14279   4.402   1.133   8.109  1.2729  1.7198  1.0590
  106MOL0     H14280   4.225   1.353   8.216 -1.2947 -2.2629 -1.2337
  106MOL0     H14281   4.378   1.386   8.132  0.7100  3.0944  3.9364
  106MOL0     H14282   4.500   1.255   8.304 -0.5269  0.0939 -2.6782
  106MOL0     H14283   4.344   1.201   8.362  0.6393 -0.6291  0.0761
  106MOL0     H14284   4.442   1.487   8.368 -0.0752 -0.1247  1.4005
  106MOL0     H14285   4.290   1.430   8.438 -0.0440  1.0626  2.6320
  106MOL0     H14286   4.557   1.318   8.541 -2.3031 -1.3330 -0.0648
  106MOL0     H14287   4.411   1.321   8.626 -0.0995  1.0165  0.3047
  106MOL0     H14288   4.573   1.482   8.701 -0.2247  0.2308  0.5108
  106MOL0     H14289   4.527   1.580   8.546  0.4876 -3.9586 -4.6147
  106MOL0     H14290   3.831   1.143   8.190 -0.0968 -0.0481  1.0931
  106MOL0     H14291   3.587   1.197   8.164 -0.5469 -1.0069 -4.0922
  106MOL0     H14292   3.285   1.550   8.125 -0.0864  0.0159  1.0003
  106MOL0     H14293   3.045   1.593   8.185  0.6840 -0.1244  0.2842
  106MOL0     H14294   3.317   2.333   9.067 -0.0579 -0.7811 -0.4417
  106MOL0     H14295   3.330   2.570   9.023  1.0152 -1.4114  1.4840
  106MOL0     H14296   3.310   2.928   8.877 -2.7320  1.5388 -0.0572
  106MOL0     H14297   3.414   3.150   8.851  3.8075 -1.4233 -0.3090
  106MOL0     H14298   3.347   3.381   8.498 -0.3388 -1.0502  0.2683
  106MOL0     H14299   3.470   3.301   8.409 -3.0165  1.3767 -1.1851
  106MOL0     H14300   3.540   3.538   8.600  1.1093 -1.2478  1.0395
  106MOL0     H14301   3.511   3.570   8.431  2.3079  0.5049 -1.0282
  106MOL0     H14302   3.698   3.423   8.355  4.8300  0.9117  0.0436
  106MOL0     H14303   3.720   3.394   8.535 -3.1451 -0.9756  0.6622
  106MOL0     H14304   3.852   3.599   8.404 -0.3840 -1.0509 -0.3697
  106MOL0     H14305   3.700   3.683   8.410  0.2812 -0.4030  0.7397
  106MOL0     H14306   3.807   3.763   8.790  2.3049  0.3782 -0.9678
  106MOL0     H14307   3.422   3.095   8.420  1.0744 -1.0453 -0.3838
  106MOL0     H14308   3.341   2.895   8.327 -0.6120  0.7462 -0.6375
  106MOL0     H14309   3.303   2.740   8.423 -2.5574  0.6545 -1.0534
  106MOL0     H14310   3.195   2.886   8.406  1.0668  3.5613  0.4257
  107MOL0     O14311   7.637   6.950   9.212  0.3327  0.5312  0.1736
  107MOL0     C14312   7.517   6.953   9.180  0.6219 -1.1796  0.1253
  107MOL0     O14313   7.415   7.022   9.246  0.0678 -0.2230  0.2634
  107MOL0     C14314   7.439   7.070   9.366  0.2119  0.4376  0.4234
  107MOL0     C14315   7.492   6.988   9.471  0.3709  0.1240  0.1330
  107MOL0     C14316   7.512   7.048   9.598  0.5350 -0.9957  0.0458
  107MOL0     C14317   7.483   7.181   9.614  0.1857 -0.4832 -0.7300
  107MOL0     O14318   7.489   7.234   9.742 -0.3902 -0.3292 -0.0419
  107MOL0     C14319   7.590   7.200   9.826  0.0821  0.7116  0.1974
  107MOL0     C14320   7.569   7.291   9.944 -0.5875  0.0476 -0.1083
  107MOL0     C14321   7.673   7.271  10.060 -0.1494  0.1504  0.4884
  107MOL0     C14322   7.658   7.143  10.131  0.5865  0.2969  1.0884
  107MOL0     C14323   7.777   7.129  10.232  0.1832 -0.8935  1.2824
  107MOL0     C14324   7.778   7.008  10.331 -0.4805  0.6186  0.2365
  107MOL0     C14325   7.908   7.012  10.426  1.0865 -0.3086  0.5159
  107MOL0     C14326   7.903   6.907  10.534  0.4044  0.2530  0.4637
  107MOL0     N14327   8.037   6.894  10.605 -0.6807 -0.6051 -0.1017
  107MOL0     C14328   8.060   6.891  10.741 -1.3984 -1.0102  0.0591
  107MOL0     C14329   8.195   6.854  10.745  0.4800 -0.5344  0.0332
  107MOL0     C14330   8.283   6.826  10.866 -0.2277 -0.1366 -0.2516
  107MOL0     C14331   8.221   6.891  10.993 -0.7773  0.0848  1.2528
  107MOL0     C14332   8.331   6.930  11.096 -0.1617 -0.2645 -0.1022
  107MOL0     C14333   8.387   6.803  11.161  0.4458 -0.3467 -0.8888
  107MOL0     O14334   8.463   6.717  11.068  0.0551 -0.2649 -0.6346
  107MOL0     C14335   8.586   6.742  11.037  0.2659  0.3402 -0.0028
  107MOL0     C14336   8.671   6.828  11.112 -0.4969  0.6819 -0.2773
  107MOL0     C14337   8.808   6.839  11.083  0.6659 -0.1459 -0.4708
  107MOL0     C14338   8.870   6.766  10.988 -0.8810  0.0288 -0.4163
  107MOL0     C14339   9.011   6.778  10.970  0.9433  0.1365  0.5349
  107MOL0     O14340   9.060   6.737  10.849  0.8647  0.4344  0.5721
  107MOL0     C14341   9.192   6.727  10.821 -0.2557 -0.5268 -0.1129
  107MOL0     C14342   9.277   6.680  10.921 -0.7393 -0.2705  0.3044
  107MOL0     C14343   9.417   6.672  10.913  0.2337  1.2194  0.3804
  107MOL0     C14344   9.468   6.719  10.794 -0.2621  0.1570 -0.7692
  107MOL0     O14345   9.604   6.733  10.787 -0.3570 -0.4235 -0.2355
  107MOL0     C14346   9.654   6.852  10.717  1.0877  0.3787 -0.2329
  107MOL0     C14347   9.748   6.810  10.606  0.7464  0.2212  1.0125
  107MOL0     C14348   9.690   6.710  10.505 -0.2115 -0.9017 -0.4205
  107MOL0     C14349   9.803   6.664  10.405  0.3309 -0.1058 -0.3397
  107MOL0     C14350   9.792   6.531  10.346  0.4605  0.9209  0.5923
  107MOL0     C14351   9.849   6.526  10.204 -0.9881  0.3967  0.3932
  107MOL0     C14352   9.799   6.412  10.122  0.0169  0.4963 -1.2112
  107MOL0     C14353   9.895   6.298  10.100  0.3602 -0.3625 -0.4862
  107MOL0    Cl14354   9.986   6.241  10.235  0.0618  0.2896 -0.4818
  107MOL0     C14355   9.380   6.746  10.686 -0.1197 -0.5256  0.3756
  107MOL0     C14356   9.242   6.760  10.695 -0.0996 -0.2761  0.0704
  107MOL0     O14357   9.076   6.828  11.059 -0.6375 -0.5909 -0.1182
  107MOL0     C14358   8.783   6.699  10.898 -0.0570 -0.2381  0.5197
  107MOL0     C14359   8.641   6.690  10.924  0.0666 -0.3446 -0.0036
  107MOL0     N14360   8.245   6.828  10.618  0.7771 -0.5273  0.6994
  107MOL0     N14361   8.149   6.846  10.535 -0.4134 -0.5440  0.1113
  107MOL0     C14362   7.436   7.259   9.512  0.0148  0.1092 -0.5831
  107MOL0     C14363   7.408   7.208   9.386  0.0539  0.2951 -0.1896
  107MOL0     C14364   7.482   6.881   9.055  0.2948  0.1723  0.2348
  107MOL0     C14365   7.589   6.818   8.981 -1.0364  0.2769  1.2385
  107MOL0     C14366   7.569   6.751   8.867 -1.1291 -0.3491  0.0032
  107MOL0     C14367   7.445   6.732   8.821  0.5687  0.2575  0.0183
  107MOL0     O14368   7.434   6.631   8.723  0.0900  0.2688  0.7169
  107MOL0     C14369   7.439   6.498   8.778 -0.3564 -0.3143  0.2911
  107MOL0     C14370   7.395   6.403   8.675 -0.6565 -0.6060  0.4779
  107MOL0     C14371   7.370   6.264   8.720  0.4597  0.4155 -0.9731
  107MOL0     C14372   7.500   6.191   8.764  0.8480 -0.4638  0.0334
  107MOL0     C14373   7.461   6.049   8.789  0.4098  0.2684 -0.5260
  107MOL0     C14374   7.442   5.934   8.812  0.2295  0.6134  0.0269
  107MOL0     C14375   7.329   6.782   8.886  0.2410  0.0883  0.0361
  107MOL0     C14376   7.347   6.873   8.995  0.7040 -0.0073  0.6439
  107MOL0     C14377   7.227   6.943   9.048  0.5037  0.3923  0.5625
  107MOL0     H14378   7.527   6.887   9.453 -1.2020 -0.5574  0.7767
  107MOL0     H14379   7.550   6.990   9.681  0.6346 -0.9572  0.0279
  107MOL0     H14380   7.593   7.097   9.864  2.6136  1.4352  2.3351
  107MOL0     H14381   7.688   7.226   9.784 -0.4658  0.6546 -1.1639
  107MOL0     H14382   7.466   7.279   9.980 -0.5506 -2.4007 -0.6819
  107MOL0     H14383   7.564   7.394   9.905  2.3888 -0.0205 -0.8757
  107MOL0     H14384   7.664   7.345  10.140 -0.1487 -0.3059  0.9200
  107MOL0     H14385   7.772   7.280  10.015 -0.8874  1.1494 -0.9921
  107MOL0     H14386   7.557   7.136  10.173 -0.3136 -0.4595 -1.0827
  107MOL0     H14387   7.677   7.059  10.064  1.8966 -1.0859  3.0610
  107MOL0     H14388   7.872   7.118  10.179 -1.7151 -2.6854 -2.1346
  107MOL0     H14389   7.789   7.218  10.294 -2.1816  0.2650  0.2106
  107MOL0     H14390   7.688   7.007  10.393 -1.9764 -3.9375 -1.6077
  107MOL0     H14391   7.764   6.915  10.275 -3.6023  0.5908  0.8747
  107MOL0     H14392   7.913   7.110  10.474  0.6207  0.7336 -1.4768
  107MOL0     H14393   7.992   6.985  10.362  0.4045 -2.9982  0.6103
  107MOL0     H14394   7.821   6.925  10.604 -0.7894  0.1914 -0.8900
  107MOL0     H14395   7.877   6.807  10.497  2.5603 -0.2564  0.1780
  107MOL0     H14396   7.992   6.914  10.822 -1.6576  1.5660 -0.7915
  107MOL0     H14397   8.284   6.718  10.883  2.5137 -0.0305  0.9044
  107MOL0     H14398   8.389   6.847  10.851 -0.0173 -1.9202 -1.5088
  107MOL0     H14399   8.169   6.985  10.971  2.6464  2.2358  1.6730
  107MOL0     H14400   8.157   6.818  11.044  1.0015 -1.2072  1.7393
  107MOL0     H14401   8.285   6.992  11.173  0.8767  4.1161 -2.6141
  107MOL0     H14402   8.417   6.985  11.057 -0.2570  0.2019  0.3414
  107MOL0     H14403   8.306   6.733  11.185  2.7589 -2.4411  1.3716
  107MOL0     H14404   8.438   6.833  11.252 -0.5254  0.0401 -0.4525
  107MOL0     H14405   8.636   6.878  11.201  0.7289  0.0257  0.6097
  107MOL0     H14406   8.863   6.903  11.151 -1.3395  1.0660  0.0913
  107MOL0     H14407   9.243   6.650  11.020  0.3138 -0.3719  0.6510
  107MOL0     H14408   9.481   6.633  10.991 -0.6255 -0.7069  0.1814
  107MOL0     H14409   9.569   6.904  10.673 -0.5350 -1.0032  1.1068
  107MOL0     H14410   9.695   6.927  10.787 -1.8494  1.2555  0.6849
  107MOL0     H14411   9.777   6.907  10.563 -0.4322 -0.1014 -0.6002
  107MOL0     H14412   9.844   6.767  10.636  2.8752  2.5729 -1.8579
  107MOL0     H14413   9.643   6.634  10.567  0.8390  0.3830  2.0899
  107MOL0     H14414   9.611   6.766  10.454 -1.5043  0.9494  3.2584
  107MOL0     H14415   9.899   6.662  10.459 -0.7403 -0.3924  1.6747
  107MOL0     H14416   9.816   6.739  10.326 -1.2565 -0.1196 -0.6458
  107MOL0     H14417   9.684   6.523  10.332  0.5889  1.5909 -0.9735
  107MOL0     H14418   9.838   6.451  10.404 -1.2478 -0.0168  0.7124
  107MOL0     H14419   9.816   6.613  10.146  1.1586  1.8210  1.1544
  107MOL0     H14420   9.958   6.527  10.199 -0.9713  1.7183  0.6130
  107MOL0     H14421   9.761   6.446  10.026  0.6131 -1.4149 -2.1828
  107MOL0     H14422   9.720   6.362  10.180  0.1120  2.3008  0.6042
  107MOL0     H14423   9.841   6.210  10.063 -0.5624 -2.1324  4.2764
  107MOL0     H14424   9.966   6.330  10.024  2.4509  2.1280  2.2898
  107MOL0     H14425   9.429   6.777  10.594  0.4567  0.2863  0.9371
  107MOL0     H14426   9.174   6.792  10.617 -0.3244  1.6171  1.0002
  107MOL0     H14427   8.817   6.665  10.801  2.1076 -3.8764  2.3317
  107MOL0     H14428   8.572   6.647  10.852 -0.0594  1.9874 -1.3694
  107MOL0     H14429   7.397   7.358   9.536 -0.0525 -0.0977  0.2138
  107MOL0     H14430   7.356   7.261   9.306 -0.0274  2.7386  1.3724
  107MOL0     H14431   7.693   6.821   9.012 -0.1762  0.8898 -1.4780
  107MOL0     H14432   7.654   6.700   8.823 -2.4126 -0.5254 -2.4472
  107MOL0     H14433   7.366   6.499   8.859 -2.3951  1.9692 -1.4298
  107MOL0     H14434   7.535   6.477   8.827 -0.1769  2.8764  1.5937
  107MOL0     H14435   7.472   6.409   8.598  0.8071 -0.2518  1.9034
  107MOL0     H14436   7.303   6.429   8.622 -1.4171 -2.6756  0.7123
  107MOL0     H14437   7.316   6.198   8.650 -0.0986 -1.4130  1.0871
  107MOL0     H14438   7.305   6.266   8.808 -1.6533  0.6341 -2.4602
  107MOL0     H14439   7.572   6.188   8.682  0.0723  1.2014 -0.7385
  107MOL0     H14440   7.546   6.234   8.854 -0.2079 -2.7536  1.7948
  107MOL0     H14441   7.439   5.828   8.827  1.3001  0.4899 -0.6063
  107MOL0     H14442   7.230   6.774   8.842 -0.1648  1.7137  0.5815
  107MOL0     H14443   7.264   7.044   9.068 -0.7882  0.6818  1.5967
  107MOL0     H14444   7.156   6.943   8.965  3.6296  0.7779 -2.3649
  107MOL0     H14445   7.191   6.907   9.145 -0.6471  0.7571  0.2820
  108MOL0     O14446  10.258   9.023   8.259  0.6406  0.4223 -0.6516
  108MOL0     C14447  10.373   9.060   8.256  0.8780  0.7305 -0.0491
  108MOL0     O14448  10.448   9.105   8.148  0.3644 -0.1319  0.1877
  108MOL0     C14449  10.413   9.069   8.023  0.0808  0.3916 -0.2094
  108MOL0     C14450  10.466   9.138   7.921 -0.4389 -0.5900  0.0073
  108MOL0     C14451  10.421   9.126   7.789  0.0947  0.1651  0.8406
  108MOL0     C14452  10.331   9.027   7.760  0.3212  1.1900  0.3777
  108MOL0     O14453  10.271   9.008   7.631 -0.8462 -0.1650  0.3683
  108MOL0     C14454  10.324   9.075   7.513  0.2812  0.4615 -0.3693
  108MOL0     C14455  10.446   8.991   7.455 -0.5421 -0.5445  0.6170
  108MOL0     C14456  10.417   8.847   7.417 -0.1455 -0.1235 -0.3482
  108MOL0     C14457  10.486   8.788   7.295 -0.8773  0.4436 -0.5145
  108MOL0     C14458  10.430   8.847   7.163 -0.8255 -0.5173 -0.3993
  108MOL0     C14459  10.281   8.814   7.130 -1.3685  0.4083 -0.6370
  108MOL0     C14460  10.261   8.801   6.979  0.0557  0.0313 -1.3258
  108MOL0     C14461  10.110   8.788   6.928 -0.3582  0.6956  0.7830
  108MOL0     N14462  10.049   8.663   6.966 -0.0528 -0.3978 -0.5812
  108MOL0     C14463  10.088   8.543   6.921 -0.2701  0.0473 -0.9633
  108MOL0     C14464  10.032   8.456   7.008 -0.3119 -0.0921  0.1130
  108MOL0     C14465  10.010   8.309   6.988  0.1273  0.0362 -0.3701
  108MOL0     C14466  10.033   8.225   7.114  0.4855 -0.2673  0.1095
  108MOL0     C14467  10.074   8.082   7.079  1.0548 -0.5031 -0.0738
  108MOL0     C14468  10.111   7.985   7.200  0.1258 -0.7932 -0.1896
  108MOL0     O14469  10.003   7.911   7.261  0.1253  0.0373  0.0824
  108MOL0     C14470  10.021   7.851   7.383  0.4090  0.3172  0.0645
  108MOL0     C14471  10.142   7.857   7.451  0.8503  0.5216 -1.7340
  108MOL0     C14472  10.151   7.797   7.578  0.8699 -0.1354  0.4304
  108MOL0     C14473  10.043   7.718   7.617 -0.8114  0.5343 -0.0336
  108MOL0     C14474  10.047   7.638   7.747  0.3138 -0.6143  0.1957
  108MOL0     O14475  10.123   7.698   7.841  0.2345 -0.1816  0.8723
  108MOL0     C14476  10.131   7.621   7.951  0.9891 -0.6664 -0.3205
  108MOL0     C14477  10.023   7.619   8.053  0.8070  0.1339  0.7138
  108MOL0     C14478  10.015   7.518   8.149  0.4048 -0.1816 -0.3989
  108MOL0     C14479  10.123   7.425   8.160 -0.1779  0.1813  0.3740
  108MOL0     O14480  10.117   7.340   8.266  0.0063 -0.0469 -0.6189
  108MOL0     C14481  10.228   7.246   8.291 -0.4637 -0.1563  0.1713
  108MOL0     C14482  10.339   7.313   8.381  0.1285  0.5210 -0.0703
  108MOL0     C14483  10.278   7.411   8.494 -0.8272 -0.0402 -0.1388
  108MOL0     C14484  10.338   7.385   8.620 -0.9999  0.4545 -0.4889
  108MOL0     C14485  10.325   7.501   8.716  1.0899  0.1311  0.5102
  108MOL0     C14486  10.431   7.504   8.832  0.8141  0.1808  0.5267
  108MOL0     C14487  10.394   7.388   8.932 -1.2781 -0.8249 -0.1130
  108MOL0     C14488  10.494   7.370   9.039 -0.4464  0.1678  0.0717
  108MOL0    Cl14489  10.430   7.230   9.147 -0.1964  0.2742 -0.0924
  108MOL0     C14490  10.234   7.440   8.068  1.1733 -1.2142 -0.5054
  108MOL0     C14491  10.237   7.530   7.958 -0.2645 -0.2578 -0.0344
  108MOL0     O14492   9.986   7.531   7.747  0.1562 -0.2295 -0.6134
  108MOL0     C14493   9.927   7.711   7.539 -0.3768  1.2929 -0.5212
  108MOL0     C14494   9.919   7.775   7.421  0.5340 -0.1987  0.0327
  108MOL0     N14495   9.952   8.527   7.098  0.3019  0.5138 -0.2780
  108MOL0     N14496   9.952   8.654   7.064  0.2668  0.1873  0.3940
  108MOL0     C14497  10.271   8.943   7.862  0.6073  0.5608  0.5819
  108MOL0     C14498  10.315   8.962   7.992 -1.5275 -0.0747  0.0581
  108MOL0     C14499  10.446   9.060   8.387  0.3867 -1.0237  1.2104
  108MOL0     C14500  10.554   9.153   8.393  0.3672  0.3813 -0.4406
  108MOL0     C14501  10.638   9.156   8.503  0.2732 -0.3328 -0.2764
  108MOL0     C14502  10.613   9.065   8.611  0.2436 -0.2134  1.1784
  108MOL0     O14503  10.688   9.055   8.725  0.6500 -0.1966 -0.4893
  108MOL0     C14504  10.628   9.142   8.829 -0.4895 -1.3556 -0.8747
  108MOL0     C14505  10.722   9.171   8.946  0.2398  0.8901  0.2841
  108MOL0     C14506  10.649   9.227   9.066  0.4168  0.0317 -0.1959
  108MOL0     C14507  10.754   9.293   9.156  0.8857 -0.1156 -0.2242
  108MOL0     C14508  10.850   9.194   9.197 -1.1723 -0.3248 -0.0712
  108MOL0     C14509  10.927   9.108   9.226 -0.0878  1.6060  0.1975
  108MOL0     C14510  10.510   8.967   8.596 -0.4952  0.9759  0.6114
  108MOL0     C14511  10.425   8.960   8.481 -0.6066 -0.6215  0.3755
  108MOL0     C14512  10.338   8.835   8.461  0.2237 -0.0409  0.2645
  108MOL0     H14513  10.529   9.224   7.941 -0.0377 -0.1789 -2.6826
  108MOL0     H14514  10.473   9.193   7.720  1.7496 -1.2425  0.6660
  108MOL0     H14515  10.247   9.069   7.436 -0.5311  0.9549  0.3831
  108MOL0     H14516  10.339   9.183   7.524 -3.2477  0.9640  0.8375
  108MOL0     H14517  10.529   8.995   7.526  0.2730  0.6684 -0.3606
  108MOL0     H14518  10.484   9.044   7.367  0.5089  0.4698  1.6490
  108MOL0     H14519  10.309   8.841   7.398 -0.5016 -2.0765  1.8205
  108MOL0     H14520  10.431   8.777   7.500 -1.2392  0.8978  0.7454
  108MOL0     H14521  10.594   8.806   7.297 -0.8091  0.5107 -2.3440
  108MOL0     H14522  10.478   8.679   7.288 -2.3934  0.5370 -0.5717
  108MOL0     H14523  10.445   8.955   7.158 -0.3442 -0.3838  2.2431
  108MOL0     H14524  10.495   8.809   7.084 -1.8418  1.5253 -2.3350
  108MOL0     H14525  10.267   8.711   7.166 -0.9133  0.6037  0.1129
  108MOL0     H14526  10.213   8.886   7.174  2.8691  3.4060  1.7680
  108MOL0     H14527  10.315   8.711   6.946  2.0298 -0.2188  2.1442
  108MOL0     H14528  10.306   8.891   6.936 -0.3386  0.3258 -1.1208
  108MOL0     H14529  10.061   8.878   6.968  0.1541  0.7672  1.2710
  108MOL0     H14530  10.112   8.799   6.820  1.2367  2.8508  0.9610
  108MOL0     H14531  10.146   8.517   6.833  1.3498  0.9505 -0.2140
  108MOL0     H14532   9.915   8.288   6.938 -0.0382  2.4942 -1.2554
  108MOL0     H14533  10.087   8.278   6.917 -2.7764 -2.6842 -2.6039
  108MOL0     H14534  10.111   8.278   7.170  0.2593 -0.6698  0.8230
  108MOL0     H14535   9.948   8.228   7.183  0.4471 -0.1836  0.0580
  108MOL0     H14536  10.159   8.097   7.012  1.6068  2.2669  1.1019
  108MOL0     H14537   9.994   8.035   7.021  0.3639  0.3195  0.1915
  108MOL0     H14538  10.166   8.042   7.276  0.1528 -4.3421  2.7809
  108MOL0     H14539  10.180   7.909   7.163  0.6368 -0.5680  0.2853
  108MOL0     H14540  10.230   7.910   7.417  3.2674 -0.7192  1.9599
  108MOL0     H14541  10.251   7.793   7.620  1.8306 -0.0459 -1.6958
  108MOL0     H14542   9.937   7.684   8.036  1.6798  1.5610  1.5504
  108MOL0     H14543   9.931   7.509   8.217 -2.6985  0.7342 -3.7630
  108MOL0     H14544  10.183   7.168   8.353  1.9782  0.0515  2.3672
  108MOL0     H14545  10.271   7.209   8.197  1.1142  0.8805  0.4287
  108MOL0     H14546  10.404   7.243   8.435  0.2109  0.8243  0.2274
  108MOL0     H14547  10.400   7.369   8.310  0.6619 -1.8728 -1.6061
  108MOL0     H14548  10.297   7.514   8.462  0.5415  0.0106  0.7306
  108MOL0     H14549  10.171   7.402   8.511 -1.0587  1.7265 -0.4796
  108MOL0     H14550  10.444   7.355   8.619 -1.6007 -1.9238  0.0324
  108MOL0     H14551  10.305   7.289   8.661  0.7616 -2.4690 -5.0629
  108MOL0     H14552  10.223   7.496   8.753  0.6804  1.8858 -0.2838
  108MOL0     H14553  10.332   7.597   8.663 -0.8551 -0.0846 -0.2152
  108MOL0     H14554  10.532   7.492   8.793 -0.1439 -1.2540 -1.7691
  108MOL0     H14555  10.421   7.597   8.889 -0.0203 -0.6479  1.7947
  108MOL0     H14556  10.378   7.290   8.888  0.2649 -1.6611  1.0829
  108MOL0     H14557  10.301   7.423   8.979 -0.8490  2.0906 -1.2152
  108MOL0     H14558  10.597   7.343   9.013 -0.6791  0.1723 -0.8906
  108MOL0     H14559  10.503   7.466   9.092 -1.4032  1.6733 -2.3334
  108MOL0     H14560  10.317   7.370   8.071  0.5498 -1.9313  0.7777
  108MOL0     H14561  10.316   7.520   7.884 -0.2049 -1.8929  0.2287
  108MOL0     H14562   9.856   7.638   7.576  2.2218 -1.0530  0.1906
  108MOL0     H14563   9.829   7.774   7.361 -0.4161  0.4290  1.4059
  108MOL0     H14564  10.218   8.850   7.848 -0.8608  1.1383  1.9209
  108MOL0     H14565  10.276   8.890   8.063 -0.7200 -0.2091  0.3776
  108MOL0     H14566  10.579   9.209   8.303  0.3344  0.4962 -0.3776
  108MOL0     H14567  10.722   9.225   8.506  0.3161 -0.4010  1.2155
  108MOL0     H14568  10.537   9.095   8.866 -0.5158  1.3374  3.1313
  108MOL0     H14569  10.599   9.243   8.799  1.9517  0.3956  2.0274
  108MOL0     H14570  10.803   9.240   8.921  2.1493 -0.2443  2.8792
  108MOL0     H14571  10.770   9.076   8.972  0.0301  0.3238 -1.2448
  108MOL0     H14572  10.614   9.139   9.122  1.2057  1.9288  3.6525
  108MOL0     H14573  10.565   9.290   9.035 -1.0094 -2.1551 -1.0370
  108MOL0     H14574  10.806   9.374   9.105  2.3419  0.4294  1.9726
  108MOL0     H14575  10.699   9.331   9.243  1.2988  0.0249 -0.0228
  108MOL0     H14576  10.995   9.027   9.246  0.5543  2.4155  1.4101
  108MOL0     H14577  10.513   8.890   8.673  1.2377 -0.0704 -0.4236
  108MOL0     H14578  10.234   8.869   8.464  0.6816  1.5691 -0.5509
  108MOL0     H14579  10.358   8.793   8.362 -2.0799 -0.1409 -0.2133
  108MOL0     H14580  10.365   8.752   8.526 -0.1431 -1.0511 -0.8352
  109MOL0     O14581   2.076  10.805  11.460  0.1923  0.0455  0.2757
  109MOL0     C14582   2.098  10.801  11.579 -0.4923 -0.7251  0.0794
  109MOL0     O14583   2.078  10.908  11.657  0.6993  0.0482 -0.0921
  109MOL0     C14584   2.071  11.032  11.607 -0.5792  0.1368  0.4069
  109MOL0     C14585   2.135  11.083  11.487  0.0908 -0.3321 -0.3370
  109MOL0     C14586   2.129  11.219  11.449  0.7197  0.0395  0.0971
  109MOL0     C14587   2.061  11.311  11.526 -0.5528  0.2588 -0.2701
  109MOL0     O14588   2.044  11.431  11.467  0.0932 -0.7148  0.2532
  109MOL0     C14589   1.936  11.524  11.494  0.0972  0.3588  0.1456
  109MOL0     C14590   1.850  11.558  11.370 -0.3208 -0.0561  0.4971
  109MOL0     C14591   1.934  11.623  11.256 -0.0136 -0.2997 -0.8269
  109MOL0     C14592   1.854  11.648  11.129  0.0965 -0.0116 -0.5063
  109MOL0     C14593   1.941  11.657  11.005 -0.4243 -0.3334  0.0186
  109MOL0     C14594   2.068  11.750  11.016 -0.7314  0.8066 -0.1245
  109MOL0     C14595   2.131  11.757  10.887  0.6026  0.2650  0.8275
  109MOL0     C14596   2.244  11.848  10.891  0.0790 -0.2353 -0.4005
  109MOL0     N14597   2.315  11.842  10.756 -0.1643  0.3439 -0.7569
  109MOL0     C14598   2.362  11.734  10.689 -0.3169 -0.6492 -0.1511
  109MOL0     C14599   2.399  11.772  10.560 -0.6626 -0.2188 -0.0831
  109MOL0     C14600   2.446  11.674  10.455  0.0256 -0.0751  0.2710
  109MOL0     C14601   2.339  11.643  10.350  0.1101  0.9308 -0.0936
  109MOL0     C14602   2.400  11.557  10.241  0.0936 -0.2824 -0.2010
  109MOL0     C14603   2.304  11.570  10.123  0.1390 -0.0801 -1.3630
  109MOL0     O14604   2.313  11.451  10.038 -0.1043 -0.0246 -0.3927
  109MOL0     C14605   2.421  11.422   9.959  0.5591  0.3867  0.7699
  109MOL0     C14606   2.526  11.506   9.915  0.0052  1.3116 -1.3039
  109MOL0     C14607   2.642  11.452   9.856 -0.1725 -0.9072 -0.1886
  109MOL0     C14608   2.656  11.319   9.810 -0.1186 -0.0786  0.1179
  109MOL0     C14609   2.786  11.265   9.760  0.9488  0.0765 -0.1602
  109MOL0     O14610   2.782  11.145   9.713 -0.6476 -0.1166  0.8136
  109MOL0     C14611   2.896  11.088   9.664 -0.4031  0.1725 -0.8956
  109MOL0     C14612   2.955  11.105   9.534  0.0977 -0.5218  0.2867
  109MOL0     C14613   3.070  11.028   9.504  0.7574  0.1627  0.1859
  109MOL0     C14614   3.121  10.938   9.587 -0.8484 -0.3852 -1.0819
  109MOL0     O14615   3.233  10.879   9.547 -0.2606 -0.0125 -0.2689
  109MOL0     C14616   3.322  10.841   9.654 -0.6768  0.3157 -1.5348
  109MOL0     C14617   3.460  10.855   9.597  0.1773  0.3928  0.0371
  109MOL0     C14618   3.481  10.763   9.480 -0.0965  0.2907  0.2301
  109MOL0     C14619   3.457  10.829   9.344 -0.1370 -0.2128 -0.0260
  109MOL0     C14620   3.579  10.816   9.257 -0.4970  0.4331  1.1003
  109MOL0     C14621   3.564  10.896   9.122  0.0510  0.2493  0.3949
  109MOL0     C14622   3.551  11.042   9.137  0.4635 -0.3421 -0.6414
  109MOL0     C14623   3.618  11.120   9.027 -0.1409  0.9081 -0.7373
  109MOL0    Cl14624   3.572  11.291   9.030 -0.2252 -0.6547  0.1533
  109MOL0     C14625   3.051  10.908   9.706 -0.4903  0.0610 -0.6928
  109MOL0     C14626   2.947  10.986   9.750  0.4206  0.0834 -0.8710
  109MOL0     O14627   2.889  11.334   9.780 -0.6764  0.1650  0.2412
  109MOL0     C14628   2.539  11.241   9.826  0.5950 -0.4729 -0.4496
  109MOL0     C14629   2.431  11.291   9.899  0.8272  0.3826 -0.4666
  109MOL0     N14630   2.368  11.908  10.556  0.1678 -0.5285 -0.0740
  109MOL0     N14631   2.336  11.945  10.668  0.8701 -0.3527  0.0476
  109MOL0     C14632   1.998  11.260  11.639  0.5544 -0.3289  0.4277
  109MOL0     C14633   2.002  11.125  11.679 -0.2132  0.1573 -0.1641
  109MOL0     C14634   2.145  10.682  11.642 -0.6624  0.0560 -0.1984
  109MOL0     C14635   2.162  10.569  11.563 -0.4754 -0.1356  0.7219
  109MOL0     C14636   2.208  10.447  11.603  0.6318  0.5726 -0.5400
  109MOL0     C14637   2.239  10.432  11.741 -0.9249  0.0190  0.3885
  109MOL0     O14638   2.278  10.305  11.785 -0.2504 -0.8165 -0.4747
  109MOL0     C14639   2.274  10.274  11.926 -0.2033  0.1024  0.0517
  109MOL0     C14640   2.306  10.130  11.949 -0.4154 -0.1213 -1.1512
  109MOL0     C14641   2.455  10.112  11.919 -1.0342 -0.4145 -0.4430
  109MOL0     C14642   2.494   9.964  11.962 -0.5241 -0.4470  0.5570
  109MOL0     C14643   2.629   9.937  11.914 -0.3007  0.3788  0.5345
  109MOL0     C14644   2.751   9.922  11.904  0.3097 -0.1787 -0.1931
  109MOL0     C14645   2.228  10.544  11.823  0.3956 -0.0327  0.0541
  109MOL0     C14646   2.179  10.669  11.777 -0.5557 -0.2773 -0.5014
  109MOL0     C14647   2.158  10.770  11.894  0.2892  0.3535  0.1449
  109MOL0     H14648   2.196  11.011  11.433 -0.3495 -0.6257 -0.4481
  109MOL0     H14649   2.187  11.252  11.364  2.1497 -0.5789  0.7984
  109MOL0     H14650   1.872  11.488  11.575 -0.6676  3.1488  0.8593
  109MOL0     H14651   1.982  11.620  11.520  1.8888 -0.6508  0.9547
  109MOL0     H14652   1.780  11.631  11.412 -2.0058  0.0485 -2.2373
  109MOL0     H14653   1.797  11.471  11.329 -0.2163 -0.4558  1.1900
  109MOL0     H14654   2.027  11.565  11.247 -0.6201 -2.2826  3.1732
  109MOL0     H14655   1.995  11.708  11.289 -1.2782 -0.3497  1.8859
  109MOL0     H14656   1.781  11.572  11.100  0.7091 -0.7614 -0.1482
  109MOL0     H14657   1.798  11.741  11.143  3.1074  1.9671 -0.7117
  109MOL0     H14658   1.966  11.553  10.983 -1.2637 -0.9289  1.6733
  109MOL0     H14659   1.876  11.697  10.927  0.8758  2.6159  0.2756
  109MOL0     H14660   2.048  11.842  11.070  0.9045 -1.5364  5.1437
  109MOL0     H14661   2.141  11.698  11.079  1.0221 -1.2148 -3.5001
  109MOL0     H14662   2.065  11.786  10.805 -0.0946 -2.4464  0.3343
  109MOL0     H14663   2.156  11.653  10.866  0.1457  0.8341 -3.1854
  109MOL0     H14664   2.211  11.949  10.918 -2.0102 -1.0836  0.4026
  109MOL0     H14665   2.313  11.831  10.974 -0.8969  0.6756  0.6268
  109MOL0     H14666   2.365  11.636  10.734 -2.1557 -0.9188 -0.5320
  109MOL0     H14667   2.536  11.720  10.413  0.5532 -1.5744 -0.3127
  109MOL0     H14668   2.483  11.585  10.507  1.5403 -0.7582 -1.7947
  109MOL0     H14669   2.251  11.593  10.391  0.5483  0.5001  0.3364
  109MOL0     H14670   2.320  11.739  10.301  0.5898  0.0761 -2.0638
  109MOL0     H14671   2.418  11.459  10.287 -4.7657 -0.8321  1.1422
  109MOL0     H14672   2.499  11.594  10.214  0.5518 -1.6491 -0.4975
  109MOL0     H14673   2.314  11.666  10.072  0.5120 -0.6693 -2.4346
  109MOL0     H14674   2.204  11.572  10.167  0.5099  0.5741 -0.5233
  109MOL0     H14675   2.531  11.610   9.945 -3.4599  1.6257 -1.3851
  109MOL0     H14676   2.732  11.509   9.835  1.3015 -3.2767 -0.6800
  109MOL0     H14677   2.908  11.174   9.464  0.3963  2.4579  2.7899
  109MOL0     H14678   3.111  11.045   9.405  1.2385  0.3805  0.4225
  109MOL0     H14679   3.309  10.908   9.740  2.3739 -0.4655 -0.3359
  109MOL0     H14680   3.296  10.741   9.688 -3.6366  1.4597 -0.1013
  109MOL0     H14681   3.473  10.957   9.561 -1.6427 -0.1766 -2.4839
  109MOL0     H14682   3.535  10.829   9.672 -0.6304  1.3645  1.2252
  109MOL0     H14683   3.578  10.712   9.482 -0.5909 -0.6662  0.8029
  109MOL0     H14684   3.410  10.680   9.482 -1.0211  0.9147 -2.6771
  109MOL0     H14685   3.430  10.933   9.361  2.0292  0.0775  2.1977
  109MOL0     H14686   3.371  10.779   9.299  0.5660  0.4798 -2.3220
  109MOL0     H14687   3.580  10.710   9.230 -1.8193  1.2193 -2.7115
  109MOL0     H14688   3.671  10.840   9.310  0.3130  0.7952 -0.4068
  109MOL0     H14689   3.657  10.876   9.067  0.6803  0.8844  1.2149
  109MOL0     H14690   3.479  10.854   9.067  1.4748 -0.7376 -1.1525
  109MOL0     H14691   3.597  11.068   9.233 -0.9234  2.4522 -0.6483
  109MOL0     H14692   3.449  11.080   9.138 -0.4513 -2.6325  0.4389
  109MOL0     H14693   3.726  11.117   9.042 -0.1408 -2.2246 -0.7137
  109MOL0     H14694   3.596  11.073   8.930  2.8947 -1.3819 -0.4622
  109MOL0     H14695   3.096  10.837   9.775  1.8707  0.7264 -1.4438
  109MOL0     H14696   2.907  10.980   9.851 -0.6837  1.0165 -1.2282
  109MOL0     H14697   2.546  11.139   9.791  1.8723 -1.4071  2.2639
  109MOL0     H14698   2.355  11.222   9.933  2.9084 -1.9777 -0.3364
  109MOL0     H14699   1.943  11.328  11.703 -0.0258  2.9188 -3.1808
  109MOL0     H14700   1.972  11.097  11.780 -0.0826 -0.1648 -0.2138
  109MOL0     H14701   2.109  10.561  11.468  1.8764  1.6945 -0.8743
  109MOL0     H14702   2.191  10.354  11.550 -1.1455 -0.0791  1.0850
  109MOL0     H14703   2.171  10.297  11.956 -0.5472  0.4422 -1.3375
  109MOL0     H14704   2.343  10.338  11.982  0.4785 -2.5273  2.4453
  109MOL0     H14705   2.243  10.056  11.899 -0.1870 -0.1323 -1.4269
  109MOL0     H14706   2.303  10.101  12.055  2.0684 -1.4762 -1.3762
  109MOL0     H14707   2.504  10.189  11.978 -6.4241  2.1381  1.2960
  109MOL0     H14708   2.477  10.138  11.815  0.8910 -1.3855 -0.3336
  109MOL0     H14709   2.480   9.945  12.069 -0.3194 -0.1602  0.6344
  109MOL0     H14710   2.419   9.897  11.918 -1.9744  0.7145  1.1675
  109MOL0     H14711   2.855   9.920  11.880  0.2674 -0.8174 -0.3536
  109MOL0     H14712   2.257  10.533  11.927  1.4221 -3.1200 -0.4470
  109MOL0     H14713   2.086  10.850  11.878  2.4016  2.3679  0.1849
  109MOL0     H14714   2.134  10.729  11.992  0.6420  3.0731  1.4550
  109MOL0     H14715   2.248  10.828  11.916  0.5366 -0.1040  0.3565
  110MOL0     O14716   0.093   0.669  11.166  0.1422 -0.9584  0.5816
  110MOL0     C14717   0.143   0.692  11.274 -0.0517 -0.0436  0.6428
  110MOL0     O14718   0.275   0.688  11.304 -0.5584 -0.2775 -0.6489
  110MOL0     C14719   0.361   0.645  11.209  0.0917 -0.2342 -0.7399
  110MOL0     C14720   0.378   0.711  11.083 -0.8601 -0.9313 -0.2460
  110MOL0     C14721   0.483   0.665  10.996 -0.0021  0.4309 -0.6043
  110MOL0     C14722   0.575   0.567  11.043  0.6040  0.9793 -0.5378
  110MOL0     O14723   0.694   0.550  10.963  0.9340  0.0279 -0.3851
  110MOL0     C14724   0.811   0.570  11.038  0.3095  0.2023  0.0424
  110MOL0     C14725   0.926   0.635  10.963 -0.2789  0.2351 -0.0553
  110MOL0     C14726   1.065   0.601  11.037 -0.6817 -0.0062  0.7746
  110MOL0     C14727   1.165   0.702  10.973 -0.0975  0.3186 -0.2222
  110MOL0     C14728   1.309   0.674  11.020 -0.0260  1.4759  0.2219
  110MOL0     C14729   1.353   0.716  11.165 -0.4778 -0.7465 -0.4224
  110MOL0     C14730   1.508   0.714  11.179 -0.0910 -0.1004 -0.0264
  110MOL0     C14731   1.554   0.788  11.314 -0.2241  0.0840  0.5610
  110MOL0     N14732   1.697   0.804  11.356  0.8364  0.2139 -0.2489
  110MOL0     C14733   1.762   0.693  11.392 -0.1096  0.4997 -0.7617
  110MOL0     C14734   1.887   0.733  11.419  0.0696 -0.5610  0.9829
  110MOL0     C14735   2.001   0.650  11.478 -0.1556  0.2920 -0.5493
  110MOL0     C14736   2.092   0.588  11.369  0.3271  0.2095 -0.6547
  110MOL0     C14737   2.228   0.535  11.424  0.2300 -0.0728  0.1638
  110MOL0     C14738   2.340   0.522  11.318  0.2428 -0.5460  0.9076
  110MOL0     O14739   2.470   0.507  11.375 -0.6132 -0.7485  0.2710
  110MOL0     C14740   2.531   0.633  11.411  0.9589  0.3170 -0.9533
  110MOL0     C14741   2.553   0.738  11.319 -0.1736  0.0150  0.0400
  110MOL0     C14742   2.638   0.846  11.349  0.2119 -0.1964 -0.2255
  110MOL0     C14743   2.691   0.861  11.476  0.8821  0.4428 -0.3361
  110MOL0     C14744   2.773   0.974  11.512  0.4637 -0.6052  0.8767
  110MOL0     O14745   2.837   0.961  11.629  0.1929  0.3775  1.0579
  110MOL0     C14746   2.912   1.066  11.672 -0.6980  0.1580  0.4719
  110MOL0     C14747   3.040   1.085  11.624 -0.0561 -0.0580 -0.6692
  110MOL0     C14748   3.120   1.195  11.676  0.1469  0.0180  0.3958
  110MOL0     C14749   3.057   1.297  11.752 -0.2816  0.4771 -0.8676
  110MOL0     O14750   3.128   1.404  11.809 -0.8963 -0.1161  0.6714
  110MOL0     C14751   3.116   1.515  11.728 -0.2217 -0.1298  0.0626
  110MOL0     C14752   3.222   1.617  11.777 -0.1374 -0.0103  0.2839
  110MOL0     C14753   3.307   1.673  11.658 -1.0749 -1.0624  0.1391
  110MOL0     C14754   3.416   1.773  11.697 -0.0596 -0.2033  0.0945
  110MOL0     C14755   3.495   1.834  11.576  0.7159 -0.4086 -0.1034
  110MOL0     C14756   3.563   1.958  11.613  0.7579  0.8891 -0.6966
  110MOL0     C14757   3.636   2.023  11.488  0.5355  0.5731  0.3991
  110MOL0     C14758   3.685   2.159  11.520 -0.1984  0.7744 -0.0867
  110MOL0    Cl14759   3.800   2.152  11.664 -0.2116 -0.2576  0.3128
  110MOL0     C14760   2.923   1.274  11.787  0.3923 -0.2393  0.2853
  110MOL0     C14761   2.859   1.161  11.759  0.2746  0.7641  0.2168
  110MOL0     O14762   2.767   1.081  11.453 -0.1079 -0.1713  0.5155
  110MOL0     C14763   2.664   0.758  11.575  0.7287 -0.0221 -0.2514
  110MOL0     C14764   2.592   0.639  11.538 -0.2187  0.2536 -0.5671
  110MOL0     N14765   1.892   0.866  11.396 -0.8574  0.0610  0.6637
  110MOL0     N14766   1.777   0.915  11.364 -0.6112 -1.6073 -0.7866
  110MOL0     C14767   0.552   0.506  11.170 -0.3297 -0.5530  0.3093
  110MOL0     C14768   0.441   0.531  11.248  0.0287 -0.3793  0.0244
  110MOL0     C14769   0.063   0.718  11.388 -0.6191 -0.5492 -0.9543
  110MOL0     C14770  -0.048   0.639  11.401  0.6909  0.2183  0.1310
  110MOL0     C14771  -0.141   0.668  11.497 -0.2436 -0.6527 -0.0130
  110MOL0     C14772  -0.115   0.765  11.594 -0.3389 -0.7642  0.0056
  110MOL0     O14773  -0.221   0.783  11.677  0.3339 -0.8230 -0.3104
  110MOL0     C14774  -0.223   0.888  11.772  0.4701 -0.3774 -0.2745
  110MOL0     C14775  -0.274   1.015  11.711  0.3032 -0.2381  0.6636
  110MOL0     C14776  -0.401   0.992  11.627 -0.3583 -0.2822 -0.3425
  110MOL0     C14777  -0.462   1.124  11.600 -0.3066 -0.0302 -0.3559
  110MOL0     C14778  -0.570   1.096  11.501  0.3649  0.2725  0.6091
  110MOL0     C14779  -0.664   1.109  11.431 -0.0641  1.0337 -0.2969
  110MOL0     C14780   0.011   0.835  11.589  0.2419 -0.6802 -0.1451
  110MOL0     C14781   0.095   0.825  11.484  0.8483 -0.3230 -0.3522
  110MOL0     C14782   0.205   0.921  11.468  0.2130 -0.6798 -1.1806
  110MOL0     H14783   0.312   0.787  11.042 -1.3897 -1.3962 -0.2605
  110MOL0     H14784   0.495   0.712  10.899 -1.7933  1.6294 -0.2913
  110MOL0     H14785   0.785   0.630  11.126 -2.6845  2.3447 -2.0992
  110MOL0     H14786   0.835   0.469  11.073 -2.1117 -0.6056 -0.4404
  110MOL0     H14787   0.919   0.743  10.952  0.9926  0.5466  1.8055
  110MOL0     H14788   0.926   0.585  10.865  4.0269  2.1285 -1.2347
  110MOL0     H14789   1.098   0.498  11.021  3.7675  1.1808  0.9709
  110MOL0     H14790   1.037   0.606  11.143 -0.4809  0.0375  0.8255
  110MOL0     H14791   1.179   0.708  10.865  1.6671  1.2185  0.0202
  110MOL0     H14792   1.128   0.799  11.008 -2.3370 -1.5573  3.2156
  110MOL0     H14793   1.335   0.569  11.002  1.0829  2.2013 -3.3136
  110MOL0     H14794   1.383   0.711  10.948 -0.6311 -2.7718 -3.0547
  110MOL0     H14795   1.318   0.818  11.183  3.4800  0.4280  2.0046
  110MOL0     H14796   1.315   0.645  11.240 -0.6253 -0.7423 -0.4919
  110MOL0     H14797   1.555   0.758  11.090  2.6631 -3.5648 -0.5309
  110MOL0     H14798   1.552   0.614  11.172  2.1562  0.7883  0.4581
  110MOL0     H14799   1.521   0.892  11.316  2.6117  1.0999 -0.4867
  110MOL0     H14800   1.514   0.737  11.403  1.9644 -0.2280  1.4166
  110MOL0     H14801   1.726   0.590  11.398 -0.3248  0.5933 -0.4228
  110MOL0     H14802   2.058   0.719  11.541 -0.5581  0.8295 -0.7653
  110MOL0     H14803   1.961   0.573  11.544  5.8256 -1.9529  1.0943
  110MOL0     H14804   2.041   0.505  11.318 -0.8156  0.5529 -0.1109
  110MOL0     H14805   2.112   0.670  11.300  0.4851  0.6627 -0.0799
  110MOL0     H14806   2.212   0.433  11.463  1.2492  0.5037  2.2605
  110MOL0     H14807   2.252   0.586  11.518 -1.5677 -1.5814  1.5503
  110MOL0     H14808   2.324   0.603  11.246  1.6366 -0.9724  0.0764
  110MOL0     H14809   2.324   0.428  11.265 -0.4271 -1.1300  2.1154
  110MOL0     H14810   2.507   0.736  11.221  0.3263 -2.1088 -0.1897
  110MOL0     H14811   2.651   0.911  11.263 -0.6801 -1.3978 -1.3065
  110MOL0     H14812   3.079   1.018  11.549 -0.9989 -0.5249 -0.7546
  110MOL0     H14813   3.223   1.205  11.642  0.0532 -0.0577  0.0935
  110MOL0     H14814   3.118   1.502  11.619 -0.7313 -4.9214  0.4148
  110MOL0     H14815   3.019   1.564  11.740 -0.2887 -0.2024 -0.1677
  110MOL0     H14816   3.168   1.694  11.832 -0.7840  0.7478 -1.3756
  110MOL0     H14817   3.295   1.570  11.844  1.4835 -1.0914 -2.1113
  110MOL0     H14818   3.352   1.586  11.610  1.2135 -0.5295  1.1822
  110MOL0     H14819   3.244   1.723  11.584  1.3372  2.3145  0.1398
  110MOL0     H14820   3.484   1.723  11.766 -3.2423 -1.7554  2.4023
  110MOL0     H14821   3.382   1.855  11.761 -0.6741 -0.7607  0.5076
  110MOL0     H14822   3.430   1.854  11.491 -3.2149 -0.0798  2.6837
  110MOL0     H14823   3.578   1.768  11.550  1.7224  1.2305 -1.2142
  110MOL0     H14824   3.501   2.022  11.677  0.5935 -1.2460  1.4584
  110MOL0     H14825   3.644   1.932  11.683  0.8368  2.6963 -0.0651
  110MOL0     H14826   3.567   2.032  11.403 -0.9990  1.8755  1.7051
  110MOL0     H14827   3.725   1.966  11.462  1.9544  2.9762 -0.2938
  110MOL0     H14828   3.733   2.199  11.430 -0.5485 -0.9572 -1.1126
  110MOL0     H14829   3.591   2.212  11.537 -1.2913 -0.1049 -2.7520
  110MOL0     H14830   2.856   1.339  11.842  0.5438 -1.0720  1.5074
  110MOL0     H14831   2.758   1.147  11.794  0.1866  0.8117 -0.0141
  110MOL0     H14832   2.705   0.754  11.676 -1.1907  0.1442  0.5716
  110MOL0     H14833   2.574   0.562  11.611  2.1664  1.1869  1.1157
  110MOL0     H14834   0.619   0.436  11.218  0.9944 -1.0009 -2.0062
  110MOL0     H14835   0.423   0.474  11.339  2.1036  1.1997  1.5190
  110MOL0     H14836  -0.077   0.560  11.332  1.6102  0.2583 -0.3236
  110MOL0     H14837  -0.228   0.603  11.490 -0.5614 -0.2164 -0.1498
  110MOL0     H14838  -0.125   0.894  11.820  0.2863  1.1264 -0.0351
  110MOL0     H14839  -0.289   0.868  11.858  2.5157 -0.7097  1.2830
  110MOL0     H14840  -0.205   1.061  11.640 -1.1476 -1.2080 -1.4631
  110MOL0     H14841  -0.302   1.089  11.786 -0.3830  2.0348 -1.6926
  110MOL0     H14842  -0.479   0.937  11.681  0.7847  0.4726  2.2860
  110MOL0     H14843  -0.370   0.931  11.542 -0.9266  0.2221 -0.9244
  110MOL0     H14844  -0.499   1.177  11.688  2.9399  1.8332  0.0448
  110MOL0     H14845  -0.385   1.182  11.548  2.3993 -3.3670 -0.4273
  110MOL0     H14846  -0.755   1.119  11.374 -0.2498 -0.1708 -0.2358
  110MOL0     H14847   0.016   0.908  11.669  1.1096  0.1196 -0.8999
  110MOL0     H14848   0.274   0.920  11.553  1.0884  1.3554 -1.8101
  110MOL0     H14849   0.260   0.909  11.374  0.0090 -2.2881 -1.1281
  110MOL0     H14850   0.160   1.020  11.457  1.0074 -0.3895 -1.9512
  111MOL0     O14851   8.873   7.661   8.553  0.1907  0.3331 -0.0273
  111MOL0     C14852   8.750   7.628   8.556 -0.9012  0.6379  0.3391
  111MOL0     O14853   8.647   7.715   8.553  0.5197  0.0923 -0.9878
  111MOL0     C14854   8.699   7.849   8.540  0.1855  0.1740  0.0415
  111MOL0     C14855   8.765   7.912   8.428 -0.8595  0.5175  0.0700
  111MOL0     C14856   8.815   8.038   8.438 -0.5915  0.9670  0.4314
  111MOL0     C14857   8.801   8.107   8.557 -0.0049 -1.3399 -0.5375
  111MOL0     O14858   8.868   8.227   8.572 -0.2396  0.0951 -0.0084
  111MOL0     C14859   9.008   8.249   8.538  0.0804  0.7000 -0.1270
  111MOL0     C14860   9.111   8.160   8.614 -0.6033 -0.7832  0.3932
  111MOL0     C14861   9.114   8.203   8.762  0.0832 -0.2325 -0.6461
  111MOL0     C14862   9.256   8.223   8.808  0.2513 -0.1748 -0.1148
  111MOL0     C14863   9.261   8.265   8.959 -0.3840  0.5172 -0.7767
  111MOL0     C14864   9.412   8.260   8.998 -0.7263  0.8470 -0.3740
  111MOL0     C14865   9.440   8.313   9.140  0.2087  0.5078  0.2452
  111MOL0     C14866   9.368   8.242   9.265 -0.0432  0.0402 -0.0511
  111MOL0     N14867   9.412   8.314   9.387  0.5934 -1.4788 -0.0554
  111MOL0     C14868   9.532   8.287   9.450 -0.0797 -0.5223 -0.2663
  111MOL0     C14869   9.548   8.391   9.532 -0.1545  0.5729 -0.2657
  111MOL0     C14870   9.681   8.412   9.606  0.6576  0.1001 -0.1436
  111MOL0     C14871   9.701   8.342   9.750 -0.9631  0.5910 -0.7432
  111MOL0     C14872   9.599   8.387   9.837  0.0761 -0.0885 -0.5224
  111MOL0     C14873   9.613   8.356   9.986  0.0118  0.0060 -0.1521
  111MOL0     O14874   9.626   8.217  10.007  0.1722  0.8635  0.9033
  111MOL0     C14875   9.662   8.160  10.128 -0.2672 -0.4120  0.4617
  111MOL0     C14876   9.658   8.021  10.137  0.8089  0.0010  0.5802
  111MOL0     C14877   9.691   7.950  10.251 -0.7726 -0.5088 -0.6230
  111MOL0     C14878   9.716   8.021  10.371  0.3113  0.0220  0.1113
  111MOL0     C14879   9.748   7.953  10.498  0.7312  0.5323  0.2302
  111MOL0     O14880   9.738   8.024  10.614 -0.5886 -0.4627  0.1742
  111MOL0     C14881   9.739   7.960  10.738 -0.2161 -0.5826  0.3901
  111MOL0     C14882   9.782   8.041  10.849 -0.5166  0.4682  0.4725
  111MOL0     C14883   9.793   7.990  10.980  0.7073 -0.1849 -0.7518
  111MOL0     C14884   9.768   7.857  11.000 -0.8579 -0.1689 -0.5836
  111MOL0     O14885   9.794   7.797  11.120  0.6232 -0.5373  0.6851
  111MOL0     C14886   9.850   7.857  11.239  0.4552 -0.0343 -0.0815
  111MOL0     C14887  10.000   7.885  11.231 -0.4407 -0.5154  0.2855
  111MOL0     C14888  10.082   7.812  11.116  0.2567 -0.4353  0.1169
  111MOL0     C14889  10.234   7.812  11.149 -0.0433  0.1834  0.2893
  111MOL0     C14890  10.302   7.731  11.046 -0.6162  0.5236  1.1392
  111MOL0     C14891  10.431   7.661  11.075 -0.0960 -0.6665  0.2563
  111MOL0     C14892  10.535   7.765  11.110 -0.1133 -0.6380 -0.0467
  111MOL0     C14893  10.668   7.696  11.153  0.1003  0.0046 -0.4111
  111MOL0    Cl14894  10.662   7.667  11.340  0.4531 -0.2493  0.2064
  111MOL0     C14895   9.730   7.774  10.896  0.4702 -0.6209 -0.2026
  111MOL0     C14896   9.715   7.819  10.765  0.9117 -0.3963 -0.0282
  111MOL0     O14897   9.770   7.833  10.491  0.9007  0.7439  0.5391
  111MOL0     C14898   9.719   8.162  10.368 -0.3173 -0.3129  0.1609
  111MOL0     C14899   9.686   8.233  10.248 -0.0823 -0.4588  0.0521
  111MOL0     N14900   9.438   8.478   9.525  0.1655 -0.0262  0.0543
  111MOL0     N14901   9.352   8.428   9.435  0.8731 -0.1686  0.6384
  111MOL0     C14902   8.734   8.062   8.666  1.1648 -1.0189 -0.4664
  111MOL0     C14903   8.681   7.936   8.653 -0.8603  0.6034  0.5922
  111MOL0     C14904   8.711   7.483   8.572  0.0059  0.6146 -1.0842
  111MOL0     C14905   8.784   7.394   8.498  0.0141  0.1494 -0.1679
  111MOL0     C14906   8.749   7.261   8.500  0.9595  0.3731  0.3936
  111MOL0     C14907   8.643   7.208   8.577 -0.9705  0.8929 -0.6472
  111MOL0     O14908   8.587   7.077   8.584  0.0186 -0.4695 -0.4799
  111MOL0     C14909   8.638   6.965   8.502  0.9724 -0.0141  0.7459
  111MOL0     C14910   8.755   6.896   8.559  0.4503  0.1343  0.0278
  111MOL0     C14911   8.778   6.898   8.714  1.3477  0.0538  1.3134
  111MOL0     C14912   8.896   6.807   8.749  1.1849  0.0865  0.9928
  111MOL0     C14913   8.938   6.816   8.891 -1.1856 -0.4280 -0.1194
  111MOL0     C14914   8.998   6.844   8.996 -0.6941 -0.2427  0.2514
  111MOL0     C14915   8.581   7.295   8.666  0.0971 -0.4600 -1.4962
  111MOL0     C14916   8.616   7.432   8.664 -0.4069 -0.3124  0.3670
  111MOL0     C14917   8.551   7.527   8.757 -0.1265  1.0126  0.2824
  111MOL0     H14918   8.782   7.860   8.334  0.5563 -0.4602  0.8149
  111MOL0     H14919   8.859   8.078   8.348 -2.8671  1.4742 -0.5247
  111MOL0     H14920   9.015   8.243   8.429 -1.5399  0.7077 -0.2522
  111MOL0     H14921   9.011   8.352   8.574 -1.7881  0.9237 -0.4690
  111MOL0     H14922   9.210   8.171   8.568 -0.5456 -1.0983  0.4342
  111MOL0     H14923   9.085   8.054   8.605 -1.1574 -0.5662 -0.7035
  111MOL0     H14924   9.060   8.121   8.812 -1.8756  1.7947  0.7925
  111MOL0     H14925   9.064   8.297   8.790 -0.0083 -0.7577  1.0675
  111MOL0     H14926   9.311   8.131   8.786 -2.1813 -1.1898 -2.4464
  111MOL0     H14927   9.295   8.299   8.740 -1.3950  0.9070  0.0995
  111MOL0     H14928   9.226   8.366   8.985 -0.0499  0.0255  1.8504
  111MOL0     H14929   9.201   8.195   9.017  1.2765  1.7622  2.7367
  111MOL0     H14930   9.446   8.155   8.996 -1.4166  0.6152 -0.1096
  111MOL0     H14931   9.476   8.315   8.928  0.9336  1.2846  1.3829
  111MOL0     H14932   9.422   8.420   9.138  1.5365  0.8166  2.0649
  111MOL0     H14933   9.549   8.304   9.151  0.3158 -0.6098 -1.3119
  111MOL0     H14934   9.259   8.238   9.250  0.0573  1.2763 -1.2581
  111MOL0     H14935   9.406   8.140   9.270  1.5709  0.5926 -0.5765
  111MOL0     H14936   9.599   8.204   9.427 -0.4900 -0.8475 -0.2976
  111MOL0     H14937   9.765   8.378   9.544  0.5647  2.1477 -1.4667
  111MOL0     H14938   9.676   8.521   9.608 -0.3095  0.0571  0.4135
  111MOL0     H14939   9.709   8.233   9.741 -0.9182  0.6026 -0.8624
  111MOL0     H14940   9.805   8.346   9.786 -1.7163 -2.9365  2.5289
  111MOL0     H14941   9.504   8.347   9.803  0.2822 -3.2199  2.1521
  111MOL0     H14942   9.589   8.496   9.826  0.1767  0.1420  1.3254
  111MOL0     H14943   9.519   8.392  10.030 -1.2564  0.8656 -3.2667
  111MOL0     H14944   9.692   8.418  10.030  0.8736 -2.1349  1.4624
  111MOL0     H14945   9.634   7.967  10.045  0.5142  0.4519  0.3866
  111MOL0     H14946   9.682   7.842  10.262 -2.4183 -0.1831  2.2588
  111MOL0     H14947   9.814   8.144  10.840  0.7737 -0.0623 -1.6511
  111MOL0     H14948   9.832   8.055  11.058  1.2220 -0.1096 -1.0633
  111MOL0     H14949   9.802   7.955  11.246  0.5535  0.2145 -2.1950
  111MOL0     H14950   9.845   7.804  11.335  2.4294  2.4242  1.5100
  111MOL0     H14951  10.018   7.990  11.205 -0.5131  0.1109  2.4819
  111MOL0     H14952  10.050   7.872  11.328  2.4126 -0.7289 -1.1091
  111MOL0     H14953  10.034   7.714  11.112  0.9325 -0.8120  0.9008
  111MOL0     H14954  10.061   7.843  11.014  0.2104 -0.8119  0.0124
  111MOL0     H14955  10.239   7.754  11.242  1.2652  0.6112  0.4955
  111MOL0     H14956  10.286   7.908  11.161  0.3214  0.0318 -0.0869
  111MOL0     H14957  10.306   7.796  10.958 -1.2863  0.2155  0.8662
  111MOL0     H14958  10.234   7.654  11.006 -1.0375  3.1460 -4.0808
  111MOL0     H14959  10.427   7.582  11.151  1.2544  0.2323  1.3099
  111MOL0     H14960  10.465   7.614  10.982  0.6623 -3.6792  1.9040
  111MOL0     H14961  10.504   7.821  11.199  1.5722  0.8595 -0.3254
  111MOL0     H14962  10.551   7.831  11.024 -1.1715  0.6648  0.7141
  111MOL0     H14963  10.700   7.614  11.088  0.8583  1.7398 -2.3379
  111MOL0     H14964  10.746   7.771  11.136 -1.2336  1.5319 -0.0574
  111MOL0     H14965   9.712   7.671  10.925  0.5716  0.0086  2.3088
  111MOL0     H14966   9.667   7.751  10.695 -3.3570  0.8730  1.3933
  111MOL0     H14967   9.755   8.207  10.461 -0.4409 -0.6789  0.3873
  111MOL0     H14968   9.684   8.341  10.254  3.3331 -0.3721  2.7108
  111MOL0     H14969   8.719   8.117   8.758 -2.2455 -0.8795 -0.9963
  111MOL0     H14970   8.629   7.885   8.733  0.2885 -1.7380 -0.0442
  111MOL0     H14971   8.850   7.435   8.422 -0.5228  0.8345 -0.2725
  111MOL0     H14972   8.795   7.186   8.436 -0.8049  0.9421 -1.6498
  111MOL0     H14973   8.670   7.002   8.405 -1.1137  0.2931  0.1193
  111MOL0     H14974   8.558   6.890   8.494 -1.3297  1.9628  3.3728
  111MOL0     H14975   8.846   6.937   8.513  1.3723 -1.0276  0.7454
  111MOL0     H14976   8.747   6.791   8.529  0.0036  0.2221 -0.1580
  111MOL0     H14977   8.691   6.876   8.777 -0.7715 -0.4484 -1.5790
  111MOL0     H14978   8.797   7.002   8.743 -2.9514  2.1528 -2.2225
  111MOL0     H14979   8.871   6.703   8.725 -0.7028  1.5415 -5.2898
  111MOL0     H14980   8.983   6.832   8.689  2.6948  1.7206  3.6667
  111MOL0     H14981   9.037   6.849   9.096 -1.9710 -0.3346  0.7696
  111MOL0     H14982   8.502   7.259   8.732  1.0720 -2.1108 -1.1980
  111MOL0     H14983   8.498   7.477   8.839  0.4291 -3.1877 -1.6893
  111MOL0     H14984   8.615   7.602   8.804  0.1955 -0.0471  1.5891
  111MOL0     H14985   8.483   7.586   8.695  2.2797  4.1634  0.3719
  112MOL0     O14986   7.621   8.951   4.471 -0.1907 -0.0066  0.8837
  112MOL0     C14987   7.562   8.852   4.512  0.1870  0.2585 -0.3424
  112MOL0     O14988   7.539   8.819   4.653  0.1447 -0.3639 -0.0404
  112MOL0     C14989   7.556   8.924   4.742  0.4977  0.4304 -0.1084
  112MOL0     C14990   7.675   8.950   4.814 -0.2784 -0.1133 -0.5432
  112MOL0     C14991   7.682   9.051   4.915 -0.1633  0.2943 -1.1308
  112MOL0     C14992   7.571   9.126   4.945  0.1145 -0.5061 -0.3462
  112MOL0     O14993   7.591   9.231   5.038  0.9921  0.6965 -0.2676
  112MOL0     C14994   7.629   9.363   4.989 -0.4217  1.1990  0.0594
  112MOL0     C14995   7.515   9.441   4.918 -0.0567  0.1078  0.2566
  112MOL0     C14996   7.414   9.491   5.017  0.3434  0.1876 -0.3452
  112MOL0     C14997   7.287   9.536   4.942  0.0779  0.2742 -0.7265
  112MOL0     C14998   7.189   9.614   5.034 -0.0180  0.0045  0.7810
  112MOL0     C14999   7.067   9.636   4.952 -0.0432 -0.1142  0.0963
  112MOL0     C15000   6.976   9.739   5.019  0.0783 -0.2969  0.8458
  112MOL0     C15001   6.899   9.840   4.932  0.5210 -0.8962  0.4571
  112MOL0     N15002   6.983   9.951   4.864  0.2042  0.9964 -0.1472
  112MOL0     C15003   7.093   9.921   4.781  0.3169 -0.3321 -0.0511
  112MOL0     C15004   7.145  10.038   4.754 -0.2659  1.4037  0.5524
  112MOL0     C15005   7.257  10.075   4.662 -0.4133 -0.0205 -0.4040
  112MOL0     C15006   7.392  10.002   4.696  0.4082 -0.0682  0.1599
  112MOL0     C15007   7.418   9.919   4.834 -0.5968 -0.8885 -0.0817
  112MOL0     C15008   7.395   9.987   4.969  0.3600 -0.2934 -0.3747
  112MOL0     O15009   7.502  10.087   4.984  0.0654 -0.1377 -0.8753
  112MOL0     C15010   7.482  10.189   5.073  0.1461  0.4339  0.0239
  112MOL0     C15011   7.472  10.166   5.213 -0.6775  0.3351  0.4556
  112MOL0     C15012   7.457  10.271   5.305 -0.7838 -0.1895 -0.6008
  112MOL0     C15013   7.452  10.402   5.261 -0.5539  0.6053 -0.3661
  112MOL0     C15014   7.432  10.511   5.360  0.0351 -0.2026  0.9380
  112MOL0     O15015   7.449  10.636   5.302 -0.1151 -0.3978 -0.0959
  112MOL0     C15016   7.402  10.739   5.390 -0.1230  0.4758  0.9084
  112MOL0     C15017   7.469  10.796   5.495 -0.1762  1.0645 -0.2142
  112MOL0     C15018   7.422  10.896   5.573  0.5466  1.2958  0.5108
  112MOL0     C15019   7.303  10.954   5.537 -0.7219  0.1071 -0.9673
  112MOL0     O15020   7.247  11.066   5.600  0.1156 -0.2354 -0.2184
  112MOL0     C15021   7.237  11.072   5.742  0.4032  0.2202  0.4347
  112MOL0     C15022   7.365  11.140   5.794 -0.0883 -0.7036  0.1077
  112MOL0     C15023   7.410  11.109   5.938 -0.3768 -0.0791  0.0912
  112MOL0     C15024   7.559  11.147   5.960 -0.4852 -0.0395 -0.4935
  112MOL0     C15025   7.582  11.296   5.992  0.1495 -0.7428  0.5449
  112MOL0     C15026   7.700  11.329   6.082 -0.3642 -0.2621  0.1502
  112MOL0     C15027   7.837  11.257   6.056 -0.2347 -1.2473  0.3664
  112MOL0     C15028   7.962  11.320   6.123  0.6763 -0.1027 -0.7722
  112MOL0    Cl15029   8.105  11.250   6.039 -0.0757  0.0307  0.1848
  112MOL0     C15030   7.239  10.910   5.419  0.8741  0.3401  0.8184
  112MOL0     C15031   7.289  10.798   5.350  0.0558 -0.0070 -0.4057
  112MOL0     O15032   7.403  10.487   5.474 -0.0657  0.0327 -0.1428
  112MOL0     C15033   7.468  10.425   5.122  0.0401 -0.0305  0.3189
  112MOL0     C15034   7.479  10.322   5.028 -0.4972  0.8132  0.5964
  112MOL0     N15035   7.069  10.127   4.818  0.2300 -0.3906 -0.0001
  112MOL0     N15036   6.971  10.080   4.880  0.3910 -0.5363  0.3706
  112MOL0     C15037   7.454   9.092   4.882  0.1401  0.9522 -0.1905
  112MOL0     C15038   7.444   8.995   4.784 -0.2231 -0.2701 -0.4970
  112MOL0     C15039   7.519   8.761   4.413 -0.9833 -0.4482  0.2857
  112MOL0     C15040   7.541   8.627   4.448 -0.1829  0.3192 -0.4253
  112MOL0     C15041   7.512   8.522   4.358 -0.1588  0.5613 -0.1498
  112MOL0     C15042   7.464   8.548   4.228 -0.2413 -0.5363  0.3912
  112MOL0     O15043   7.432   8.444   4.142 -0.2396  0.2633 -0.8338
  112MOL0     C15044   7.332   8.456   4.037 -0.7977 -0.5046 -0.7211
  112MOL0     C15045   7.190   8.493   4.081 -0.0291  0.4792 -0.1426
  112MOL0     C15046   7.128   8.403   4.187  0.6142  0.3728 -0.2292
  112MOL0     C15047   6.973   8.435   4.222  0.3479  0.5369  0.1289
  112MOL0     C15048   6.953   8.567   4.295 -0.5744  0.9338 -0.3157
  112MOL0     C15049   6.946   8.676   4.344  0.1890  0.3844 -0.0554
  112MOL0     C15050   7.453   8.680   4.190  0.9719 -0.4762 -0.7664
  112MOL0     C15051   7.479   8.788   4.280  0.3128 -0.5322  0.5365
  112MOL0     C15052   7.457   8.923   4.225  0.1396 -0.0822  0.6749
  112MOL0     H15053   7.768   8.899   4.788 -1.8242 -2.5477 -1.7584
  112MOL0     H15054   7.773   9.063   4.973 -1.4468  0.9051  0.9028
  112MOL0     H15055   7.669   9.423   5.071 -2.7377  1.8341  0.8194
  112MOL0     H15056   7.711   9.345   4.919 -0.2145  2.9565 -0.2123
  112MOL0     H15057   7.467   9.388   4.836  1.4446  0.9896 -1.2593
  112MOL0     H15058   7.563   9.532   4.880 -1.3137  0.6358 -0.1506
  112MOL0     H15059   7.458   9.581   5.061  0.3972 -0.2361  0.4941
  112MOL0     H15060   7.394   9.417   5.095 -3.1294 -0.7012 -1.8733
  112MOL0     H15061   7.319   9.602   4.861  1.5443 -0.3231 -0.6670
  112MOL0     H15062   7.241   9.444   4.904  1.3551 -0.6835 -0.0231
  112MOL0     H15063   7.161   9.560   5.125 -0.1815  1.0208  1.3391
  112MOL0     H15064   7.243   9.708   5.051 -0.3415  0.5503 -0.9613
  112MOL0     H15065   7.087   9.660   4.847 -1.9974 -0.7772 -0.4697
  112MOL0     H15066   7.024   9.538   4.932  1.3238 -0.7805  0.2877
  112MOL0     H15067   7.031   9.790   5.098  1.6670 -1.4594  0.5426
  112MOL0     H15068   6.903   9.690   5.084  1.2122  1.5014  3.6542
  112MOL0     H15069   6.847   9.788   4.851  2.4851  0.8259 -2.0977
  112MOL0     H15070   6.830   9.898   4.993 -1.9192  0.4782 -3.3021
  112MOL0     H15071   7.115   9.828   4.731  3.2223  0.7827 -1.0653
  112MOL0     H15072   7.226  10.054   4.559 -4.1528  1.7279  0.1675
  112MOL0     H15073   7.269  10.184   4.670  1.9820 -0.2872  0.6299
  112MOL0     H15074   7.415   9.930   4.618  4.3495 -0.7906  1.7538
  112MOL0     H15075   7.476  10.073   4.695 -3.3753  4.9452 -1.1369
  112MOL0     H15076   7.524   9.890   4.829 -0.2727 -0.5619  2.9193
  112MOL0     H15077   7.354   9.830   4.825 -0.1869 -1.0833 -1.2048
  112MOL0     H15078   7.382   9.913   5.048 -1.4216  0.8453  0.4659
  112MOL0     H15079   7.302  10.044   4.956  0.7878  1.0819  2.0143
  112MOL0     H15080   7.480  10.071   5.263  2.2526  1.1981  1.8546
  112MOL0     H15081   7.452  10.253   5.412  0.5781  0.2179 -0.4474
  112MOL0     H15082   7.558  10.737   5.514  0.3221  1.4559 -1.2000
  112MOL0     H15083   7.486  10.927   5.655  0.1735  2.0786  0.5154
  112MOL0     H15084   7.145  11.130   5.759 -0.7194 -1.8067  1.7295
  112MOL0     H15085   7.229  10.972   5.786  0.1702  0.8503  1.9036
  112MOL0     H15086   7.452  11.118   5.732 -1.5449  0.2981 -2.4541
  112MOL0     H15087   7.373  11.247   5.771 -0.4347 -0.2300  1.9731
  112MOL0     H15088   7.346  11.177   5.994  0.6349 -0.5604  1.9382
  112MOL0     H15089   7.378  11.008   5.966  0.1006 -0.1348  0.4524
  112MOL0     H15090   7.617  11.106   5.877  2.8369  0.8171  1.2489
  112MOL0     H15091   7.594  11.097   6.051 -0.7025  1.2990  0.3577
  112MOL0     H15092   7.495  11.341   6.041 -0.7404 -1.7752 -0.0431
  112MOL0     H15093   7.598  11.337   5.892  1.0934 -3.3940 -0.4979
  112MOL0     H15094   7.715  11.437   6.095  1.5247 -0.2477 -1.6775
  112MOL0     H15095   7.675  11.295   6.183 -0.3220  1.1757  0.6680
  112MOL0     H15096   7.850  11.247   5.948  1.7446  4.3051 -0.2573
  112MOL0     H15097   7.843  11.157   6.100 -0.5646 -0.4277  2.3855
  112MOL0     H15098   7.974  11.428   6.129  0.0452 -0.0873  4.0844
  112MOL0     H15099   7.967  11.293   6.229 -0.3488  0.9468 -0.4409
  112MOL0     H15100   7.143  10.951   5.387 -0.5201 -3.3850 -0.2644
  112MOL0     H15101   7.250  10.759   5.257  3.1944 -1.3559 -1.2838
  112MOL0     H15102   7.475  10.531   5.100  0.1498 -0.1654 -0.3287
  112MOL0     H15103   7.487  10.346   4.922 -1.0999  1.1478  0.6201
  112MOL0     H15104   7.362   9.134   4.924 -0.6049  2.4289 -3.0285
  112MOL0     H15105   7.345   8.966   4.750 -0.8850  0.0543  1.1093
  112MOL0     H15106   7.573   8.590   4.545  1.0251  0.9343 -0.5679
  112MOL0     H15107   7.527   8.418   4.385  0.1730 -0.1501 -2.7849
  112MOL0     H15108   7.313   8.362   3.985 -0.7577 -0.9308  0.0263
  112MOL0     H15109   7.374   8.535   3.974 -1.1041 -0.5273 -0.9604
  112MOL0     H15110   7.126   8.490   3.992  0.3897 -1.6799 -0.4289
  112MOL0     H15111   7.184   8.592   4.126 -0.7314  1.5738 -2.4822
  112MOL0     H15112   7.185   8.418   4.279  0.6771  0.5209 -0.2915
  112MOL0     H15113   7.127   8.299   4.153 -0.4505 -0.0459  1.0099
  112MOL0     H15114   6.904   8.432   4.138  2.6251  4.0302 -2.1559
  112MOL0     H15115   6.944   8.359   4.295  1.0912  1.7208  1.7442
  112MOL0     H15116   6.928   8.766   4.400  0.5712  2.7363 -3.4127
  112MOL0     H15117   7.423   8.714   4.091 -1.1939  0.2978  0.0875
  112MOL0     H15118   7.551   8.951   4.177 -1.1625  3.4591 -0.1640
  112MOL0     H15119   7.379   8.928   4.148  1.7333  1.5433 -0.9351
  112MOL0     H15120   7.420   8.992   4.301 -2.1287  1.1819 -1.4200
  113MOL0     O15121   1.089   1.339   4.757  0.3523 -0.0321  0.6788
  113MOL0     C15122   1.072   1.457   4.796  0.9985 -0.6794  0.6851
  113MOL0     O15123   1.058   1.568   4.706 -0.1855  0.2247  0.4205
  113MOL0     C15124   1.067   1.534   4.575  0.3472  0.2909 -0.3910
  113MOL0     C15125   0.957   1.488   4.500 -0.3122 -1.1162 -0.3071
  113MOL0     C15126   0.961   1.482   4.364 -0.8819  0.3909 -0.1382
  113MOL0     C15127   1.079   1.516   4.287 -0.2684 -0.2513 -0.2090
  113MOL0     O15128   1.076   1.508   4.154  0.1456  0.3281  0.3799
  113MOL0     C15129   1.154   1.601   4.083 -0.7474  0.3263  0.2578
  113MOL0     C15130   1.108   1.603   3.938  0.8353  0.1912 -0.2410
  113MOL0     C15131   1.218   1.680   3.870  0.4002 -0.6216 -0.1575
  113MOL0     C15132   1.173   1.755   3.736 -0.3980  0.7887 -1.1458
  113MOL0     C15133   1.274   1.851   3.662  0.5447  0.2958 -0.0555
  113MOL0     C15134   1.313   1.974   3.749 -0.6644 -0.0814 -0.2819
  113MOL0     C15135   1.394   2.076   3.656 -0.0075  0.8197 -0.5577
  113MOL0     C15136   1.539   2.014   3.621 -0.0403  0.4387 -1.1396
  113MOL0     N15137   1.617   1.989   3.745  0.0505  0.4587 -0.1290
  113MOL0     C15138   1.726   2.065   3.777  0.2162 -0.3112  0.1558
  113MOL0     C15139   1.785   1.995   3.880  0.9132 -1.0801  0.6642
  113MOL0     C15140   1.917   2.038   3.927  0.3069 -0.0975  0.6459
  113MOL0     C15141   1.918   2.148   4.044  0.9960  0.2961  0.4969
  113MOL0     C15142   1.829   2.279   4.017  0.0902 -0.7223  0.3436
  113MOL0     C15143   1.856   2.387   4.120  0.0561 -0.5537  0.5816
  113MOL0     O15144   1.836   2.523   4.062 -0.3793  0.2893  0.7670
  113MOL0     C15145   1.777   2.609   4.148  1.6301 -0.2198 -0.0611
  113MOL0     C15146   1.637   2.590   4.149 -0.7153  0.3961  0.0199
  113MOL0     C15147   1.565   2.668   4.233 -0.1135 -0.0961 -0.2220
  113MOL0     C15148   1.630   2.765   4.322  0.3873  0.5736 -0.3364
  113MOL0     C15149   1.545   2.860   4.402  0.5285  0.4558 -0.8794
  113MOL0     O15150   1.417   2.825   4.451 -0.9406  0.0017 -0.8311
  113MOL0     C15151   1.350   2.927   4.511  0.3785 -0.1308  0.8267
  113MOL0     C15152   1.275   2.901   4.624 -0.0739  0.3414 -0.5165
  113MOL0     C15153   1.186   2.994   4.670 -0.2863 -0.0267 -0.8668
  113MOL0     C15154   1.166   3.115   4.600 -0.1051 -0.6899  1.1936
  113MOL0     O15155   1.078   3.204   4.654  0.0582 -1.6321 -0.0618
  113MOL0     C15156   1.088   3.341   4.610  0.4946  0.3337  0.0352
  113MOL0     C15157   1.034   3.439   4.703 -0.0058  0.6290 -0.0134
  113MOL0     C15158   1.056   3.580   4.644 -0.7089 -0.5157  0.6032
  113MOL0     C15159   1.015   3.698   4.737 -0.3273  0.7520  0.7040
  113MOL0     C15160   1.095   3.706   4.862  0.6121  1.1838  1.2200
  113MOL0     C15161   1.095   3.847   4.926  0.0508  0.5505 -0.5232
  113MOL0     C15162   1.132   3.836   5.075  0.2789  0.1206 -0.7572
  113MOL0     C15163   1.175   3.972   5.128  0.6175 -0.3305  0.6043
  113MOL0    Cl15164   1.333   3.997   5.057  0.2910  0.3776  0.1753
  113MOL0     C15165   1.242   3.135   4.485  0.3036 -0.7416  0.5363
  113MOL0     C15166   1.336   3.051   4.445 -0.2602  0.4610 -0.1990
  113MOL0     O15167   1.606   2.960   4.444 -0.3662  0.4509  0.4052
  113MOL0     C15168   1.769   2.777   4.314 -0.1300  0.1492  0.7586
  113MOL0     C15169   1.840   2.696   4.225  0.2904 -0.4281  0.2286
  113MOL0     N15170   1.714   1.879   3.900 -1.0094 -1.1462 -0.2400
  113MOL0     N15171   1.609   1.871   3.818  0.7193 -0.3772 -0.3661
  113MOL0     C15172   1.195   1.562   4.361 -0.1930  0.3411 -0.1435
  113MOL0     C15173   1.186   1.560   4.501  0.6394 -0.8450 -0.6296
  113MOL0     C15174   1.075   1.490   4.941 -1.1381 -0.1171  0.7041
  113MOL0     C15175   1.169   1.410   5.013 -1.7256  0.0450 -0.2399
  113MOL0     C15176   1.175   1.405   5.152 -0.6992 -0.3983  0.0914
  113MOL0     C15177   1.079   1.478   5.224 -0.7135  0.3366 -0.4231
  113MOL0     O15178   1.072   1.475   5.360 -0.4562  0.4618 -0.9676
  113MOL0     C15179   1.178   1.424   5.435 -0.1637  0.8018 -0.6005
  113MOL0     C15180   1.145   1.464   5.582  0.1881  0.9419  0.2348
  113MOL0     C15181   1.248   1.389   5.677  0.1706  0.0079  0.4589
  113MOL0     C15182   1.233   1.428   5.820 -0.1248 -0.2650 -0.3439
  113MOL0     C15183   1.281   1.341   5.926  0.4554  0.2326  0.7147
  113MOL0     C15184   1.309   1.259   6.006  0.0368  0.0862 -1.1906
  113MOL0     C15185   0.982   1.561   5.155 -0.9527  0.3011 -0.3186
  113MOL0     C15186   0.982   1.561   5.014 -0.3771 -0.6522 -0.7739
  113MOL0     C15187   0.856   1.617   4.954  0.7120  0.4686  0.0393
  113MOL0     H15188   0.857   1.467   4.535 -1.5208  1.3696 -2.0294
  113MOL0     H15189   0.869   1.464   4.310 -1.3577  2.2645 -0.0106
  113MOL0     H15190   1.144   1.703   4.122 -1.2610 -0.5401  2.5650
  113MOL0     H15191   1.255   1.562   4.074 -1.5888 -2.1490  0.7322
  113MOL0     H15192   1.008   1.648   3.933  1.2569  1.5077  1.9629
  113MOL0     H15193   1.114   1.499   3.905 -0.5163 -0.1086  0.4012
  113MOL0     H15194   1.296   1.607   3.847  1.0323  0.1225 -0.3793
  113MOL0     H15195   1.249   1.755   3.942  2.1790 -2.8359  1.5244
  113MOL0     H15196   1.152   1.682   3.658 -1.6945  0.3844 -0.4435
  113MOL0     H15197   1.081   1.804   3.768 -0.1118 -0.8451  2.9125
  113MOL0     H15198   1.359   1.788   3.633 -2.6483 -2.6244 -4.3820
  113MOL0     H15199   1.224   1.869   3.566 -0.8060 -3.3042 -0.1730
  113MOL0     H15200   1.223   2.031   3.775  1.9290  3.1699  2.5553
  113MOL0     H15201   1.352   1.943   3.846 -4.6089 -3.8328  0.3876
  113MOL0     H15202   1.407   2.170   3.709 -0.0910 -0.6851  2.3109
  113MOL0     H15203   1.343   2.094   3.561  1.9216  2.0139 -1.4240
  113MOL0     H15204   1.517   1.923   3.566 -1.5024  0.4520 -0.6231
  113MOL0     H15205   1.592   2.086   3.558  0.3774  1.1668  0.0097
  113MOL0     H15206   1.779   2.134   3.713 -0.4375 -1.6446 -1.9497
  113MOL0     H15207   1.983   1.955   3.954  1.3444  0.9694  1.4872
  113MOL0     H15208   1.964   2.086   3.841  0.6900 -0.0809  0.8614
  113MOL0     H15209   1.880   2.102   4.136  4.1784 -2.8151  0.4539
  113MOL0     H15210   2.020   2.187   4.050  0.9827  0.8473 -1.9281
  113MOL0     H15211   1.725   2.247   4.024  0.2815 -1.3639  0.3125
  113MOL0     H15212   1.870   2.301   3.918 -0.2111 -0.2609  0.3209
  113MOL0     H15213   1.961   2.382   4.152  0.8691  0.1562 -1.7774
  113MOL0     H15214   1.788   2.372   4.205  1.2367  1.2173  1.9169
  113MOL0     H15215   1.600   2.529   4.067 -1.5441  0.1469  0.5663
  113MOL0     H15216   1.458   2.666   4.220 -0.0850  0.0991 -0.5326
  113MOL0     H15217   1.280   2.803   4.670 -0.0249 -0.0902 -1.4195
  113MOL0     H15218   1.145   2.976   4.769  0.2161 -0.8354 -0.8046
  113MOL0     H15219   1.194   3.364   4.597  0.8507 -0.6672  0.9733
  113MOL0     H15220   1.043   3.339   4.510  0.3458  0.2944  0.1031
  113MOL0     H15221   0.927   3.428   4.722 -0.0442  1.1356  0.0849
  113MOL0     H15222   1.076   3.436   4.804  0.5373 -1.1898 -0.2591
  113MOL0     H15223   1.163   3.584   4.619 -0.2580 -3.7059  1.6189
  113MOL0     H15224   1.001   3.601   4.552  4.6227  2.4245 -2.4604
  113MOL0     H15225   0.913   3.684   4.774  0.0447  3.5755  3.1141
  113MOL0     H15226   1.029   3.788   4.677  0.0177  2.4367  3.2131
  113MOL0     H15227   1.194   3.665   4.841 -1.1936 -2.5973 -0.8909
  113MOL0     H15228   1.044   3.643   4.935 -0.6013 -0.8350 -1.2267
  113MOL0     H15229   1.178   3.904   4.883  2.4632 -2.9659 -0.9572
  113MOL0     H15230   1.004   3.902   4.901 -0.1028 -1.0363 -4.2296
  113MOL0     H15231   1.207   3.759   5.097  1.6158  0.4136 -3.7833
  113MOL0     H15232   1.041   3.799   5.122  1.3302 -3.6757 -1.3654
  113MOL0     H15233   1.107   4.055   5.105  2.2395 -0.2604 -5.6374
  113MOL0     H15234   1.179   3.962   5.237 -2.1496  0.7408  0.8796
  113MOL0     H15235   1.215   3.209   4.410  3.4174 -2.5010 -2.6818
  113MOL0     H15236   1.403   3.076   4.363  0.3838  0.6034  0.3677
  113MOL0     H15237   1.827   2.845   4.376  2.0022 -1.3365  0.5099
  113MOL0     H15238   1.948   2.687   4.221  0.1106 -2.8484 -0.8200
  113MOL0     H15239   1.288   1.583   4.309  0.5912 -0.2048  0.9986
  113MOL0     H15240   1.269   1.595   4.561 -1.5059  2.8778  0.5231
  113MOL0     H15241   1.241   1.355   4.954 -0.0154  2.2019 -0.2702
  113MOL0     H15242   1.253   1.346   5.200  1.4779  2.2394  0.0154
  113MOL0     H15243   1.272   1.470   5.402  2.7174 -3.1935  1.1978
  113MOL0     H15244   1.188   1.316   5.422 -2.1978  0.7074 -1.8746
  113MOL0     H15245   1.049   1.424   5.614  0.5375  2.5254  3.6079
  113MOL0     H15246   1.145   1.572   5.595 -0.9691  1.1803 -1.4466
  113MOL0     H15247   1.348   1.406   5.636  1.2378  0.0936  2.9430
  113MOL0     H15248   1.219   1.284   5.665  1.6673 -0.1760 -2.7404
  113MOL0     H15249   1.276   1.528   5.828  0.0447 -0.1747 -1.9441
  113MOL0     H15250   1.125   1.440   5.838 -0.4273 -0.8481 -1.6203
  113MOL0     H15251   1.305   1.190   6.088  0.4906  2.2443  0.7823
  113MOL0     H15252   0.914   1.604   5.229  1.1995  0.8317  1.4377
  113MOL0     H15253   0.879   1.690   4.876  0.3485  0.4079 -0.1300
  113MOL0     H15254   0.800   1.532   4.915  0.8244  0.5789 -0.3681
  113MOL0     H15255   0.802   1.661   5.038  0.7003 -1.5843  1.1617
  114MOL0     O15256   5.647   4.468   5.754  0.7397  0.2607 -0.9719
  114MOL0     C15257   5.687   4.549   5.672 -1.1427 -0.3194  1.3314
  114MOL0     O15258   5.750   4.520   5.554  1.0060 -0.5236 -1.0049
  114MOL0     C15259   5.806   4.391   5.558  0.5587  0.7104  0.4852
  114MOL0     C15260   5.727   4.291   5.497  0.0821 -0.2921  0.6156
  114MOL0     C15261   5.770   4.163   5.493 -0.6118  0.1137 -0.3359
  114MOL0     C15262   5.896   4.125   5.551  1.4114  0.0504  0.3960
  114MOL0     O15263   5.950   3.997   5.529  0.5048  0.0207  0.0335
  114MOL0     C15264   6.077   3.966   5.583  0.3111  0.3497 -0.4051
  114MOL0     C15265   6.093   3.817   5.569 -0.3106 -0.4291 -0.6758
  114MOL0     C15266   6.014   3.730   5.674  0.7818 -0.6483  0.1320
  114MOL0     C15267   6.044   3.577   5.642  0.4086 -0.7907 -0.2200
  114MOL0     C15268   5.948   3.475   5.707 -0.1669  0.1231  0.1546
  114MOL0     C15269   5.956   3.466   5.866  0.6282 -0.4492  1.4335
  114MOL0     C15270   5.870   3.344   5.921 -1.0828  1.2669 -0.3954
  114MOL0     C15271   5.866   3.337   6.076 -0.0827 -0.8306 -0.2380
  114MOL0     N15272   5.781   3.436   6.143  0.0550 -0.0612 -0.4167
  114MOL0     C15273   5.646   3.426   6.149 -0.5569 -0.5109  0.7212
  114MOL0     C15274   5.606   3.512   6.240 -0.1030  0.1809 -0.7762
  114MOL0     C15275   5.463   3.523   6.287  1.0176  0.2114 -0.2582
  114MOL0     C15276   5.418   3.667   6.282  0.1929  0.0867 -0.6516
  114MOL0     C15277   5.275   3.698   6.255  0.0320 -0.1700  0.1870
  114MOL0     C15278   5.257   3.844   6.218  0.0522  0.7023 -0.0536
  114MOL0     O15279   5.116   3.853   6.183 -0.5038  0.6680  0.2996
  114MOL0     C15280   5.053   3.975   6.174  0.7140 -0.2687  0.4522
  114MOL0     C15281   4.932   3.987   6.108  0.3662  1.2885  0.5057
  114MOL0     C15282   4.858   4.099   6.097 -0.0934 -0.5111 -0.0028
  114MOL0     C15283   4.911   4.223   6.147  0.0968 -0.3057 -0.0393
  114MOL0     C15284   4.833   4.343   6.154  0.1009  0.8708  0.0089
  114MOL0     O15285   4.700   4.322   6.117  0.9344  0.0478 -0.3210
  114MOL0     C15286   4.631   4.432   6.081 -1.1142 -0.2944 -0.1996
  114MOL0     C15287   4.506   4.460   6.140  0.0044  0.0085 -0.4173
  114MOL0     C15288   4.433   4.572   6.087 -0.7712 -0.5969  0.6086
  114MOL0     C15289   4.478   4.648   5.981  0.6550  0.3367  0.3131
  114MOL0     O15290   4.399   4.756   5.941  0.2834  0.6060  1.4724
  114MOL0     C15291   4.268   4.715   5.889 -0.4846  0.4852 -0.8600
  114MOL0     C15292   4.182   4.824   5.846  0.2228 -0.7917 -0.1609
  114MOL0     C15293   4.237   4.900   5.724 -0.5876 -0.0256 -0.4078
  114MOL0     C15294   4.138   5.000   5.665  0.6861 -0.7467  0.4528
  114MOL0     C15295   4.150   5.010   5.509  0.0526 -0.0335 -0.1315
  114MOL0     C15296   4.097   4.903   5.413 -0.3176 -0.6331  0.5267
  114MOL0     C15297   4.136   4.939   5.269 -0.2344  0.3404  0.4299
  114MOL0     C15298   4.034   4.882   5.170 -0.1636 -0.2341 -0.0888
  114MOL0    Cl15299   4.082   4.929   5.012 -0.0170 -0.2523  0.0261
  114MOL0     C15300   4.603   4.627   5.922 -0.9614 -1.0215  0.1895
  114MOL0     C15301   4.673   4.509   5.973 -0.0033 -0.9721 -0.5288
  114MOL0     O15302   4.894   4.449   6.178  0.0685  0.2528  1.2113
  114MOL0     C15303   5.039   4.208   6.211  0.1256  0.2197  0.5529
  114MOL0     C15304   5.113   4.095   6.215  0.7445 -0.3780 -0.7494
  114MOL0     N15305   5.709   3.578   6.284 -0.0448 -0.8595  0.3816
  114MOL0     N15306   5.822   3.535   6.230 -0.5600  0.4010 -0.1651
  114MOL0     C15307   5.967   4.223   5.615  0.0407  0.9827 -0.2751
  114MOL0     C15308   5.918   4.353   5.624  0.1570 -0.4790  0.6901
  114MOL0     C15309   5.672   4.697   5.694  0.6802  0.4976  0.2121
  114MOL0     C15310   5.761   4.779   5.628 -1.6326 -0.7403 -0.5432
  114MOL0     C15311   5.750   4.916   5.656 -0.3942  0.3178  0.4048
  114MOL0     C15312   5.650   4.976   5.736  0.2479  0.0474 -0.4654
  114MOL0     O15313   5.633   5.106   5.766 -0.0495  0.2677  0.2496
  114MOL0     C15314   5.713   5.216   5.731 -0.8864  0.1796 -0.2973
  114MOL0     C15315   5.833   5.230   5.827  0.1963 -0.3933 -0.1372
  114MOL0     C15316   5.873   5.376   5.865 -0.3762  0.7142 -0.0142
  114MOL0     C15317   5.788   5.428   5.978  0.2437  0.2971 -0.5183
  114MOL0     C15318   5.848   5.550   6.032 -0.6185  0.1944 -0.4961
  114MOL0     C15319   5.868   5.652   6.095  0.5842  0.2502  0.2710
  114MOL0     C15320   5.550   4.892   5.788  0.2667  0.1426  0.8734
  114MOL0     C15321   5.565   4.756   5.765  0.9699  1.4138 -0.6484
  114MOL0     C15322   5.450   4.669   5.825 -0.5270 -0.1862 -0.7471
  114MOL0     H15323   5.635   4.329   5.455 -0.3716  1.6557  3.1074
  114MOL0     H15324   5.714   4.090   5.435 -1.5738  0.9601 -0.5043
  114MOL0     H15325   6.148   4.022   5.522  0.7853 -2.1975 -2.3791
  114MOL0     H15326   6.090   3.984   5.690  1.9037 -2.2586 -0.0764
  114MOL0     H15327   6.200   3.808   5.588  0.4256  0.2741 -3.9834
  114MOL0     H15328   6.075   3.781   5.467 -1.4631  1.5044 -1.2089
  114MOL0     H15329   5.906   3.743   5.670  0.9276  0.3461 -0.7233
  114MOL0     H15330   6.045   3.754   5.776 -1.6831 -1.3562  1.1200
  114MOL0     H15331   6.029   3.567   5.535 -5.0348 -1.2662  0.3092
  114MOL0     H15332   6.145   3.547   5.672 -0.3263 -0.6467  2.7691
  114MOL0     H15333   5.846   3.503   5.679  0.6312 -0.7114 -4.2663
  114MOL0     H15334   5.973   3.373   5.677 -0.3770 -0.2379  1.1613
  114MOL0     H15335   6.057   3.443   5.901  1.2431 -1.2021 -0.6793
  114MOL0     H15336   5.926   3.558   5.918  1.5150  1.2280 -0.8235
  114MOL0     H15337   5.905   3.247   5.885 -0.8796  0.6439  1.4214
  114MOL0     H15338   5.766   3.341   5.888 -1.6149 -0.2530  1.2831
  114MOL0     H15339   5.855   3.236   6.116 -0.6354 -0.1506  1.3888
  114MOL0     H15340   5.966   3.360   6.115  0.4012 -1.2570 -1.1908
  114MOL0     H15341   5.579   3.361   6.095 -0.7381  1.1803 -1.2267
  114MOL0     H15342   5.400   3.453   6.231 -1.1474  3.1916 -1.8537
  114MOL0     H15343   5.453   3.490   6.391 -2.1118  1.6190  0.0033
  114MOL0     H15344   5.447   3.709   6.379 -0.4175 -2.9574  1.0053
  114MOL0     H15345   5.474   3.712   6.201  0.0631 -2.2988 -2.1782
  114MOL0     H15346   5.212   3.671   6.340 -0.9962  3.4341  0.7104
  114MOL0     H15347   5.241   3.642   6.167 -0.9584 -0.1136  0.5241
  114MOL0     H15348   5.316   3.895   6.141 -1.4771  2.3302 -0.2273
  114MOL0     H15349   5.293   3.908   6.300  1.5507  0.9966 -0.9056
  114MOL0     H15350   4.889   3.894   6.071  1.1666 -0.0692  2.7970
  114MOL0     H15351   4.753   4.094   6.067 -0.4009  1.1512  0.6831
  114MOL0     H15352   4.463   4.393   6.214 -0.3774  2.2952  1.5489
  114MOL0     H15353   4.333   4.593   6.123 -1.5810  0.7246 -2.1073
  114MOL0     H15354   4.278   4.643   5.808  0.1205 -0.7010  0.2275
  114MOL0     H15355   4.201   4.663   5.958 -1.7420  0.2183 -2.2403
  114MOL0     H15356   4.082   4.790   5.821 -0.4775  2.1506 -1.8311
  114MOL0     H15357   4.178   4.909   5.915  0.6483  1.7389 -2.9986
  114MOL0     H15358   4.324   4.962   5.745  0.0160 -1.6699  2.2998
  114MOL0     H15359   4.258   4.825   5.647  3.2804  1.4386 -0.9984
  114MOL0     H15360   4.147   5.095   5.719 -2.2239 -1.2792  2.0637
  114MOL0     H15361   4.033   4.971   5.677  0.0212  1.8859  1.6880
  114MOL0     H15362   4.252   5.042   5.486 -0.5197  1.4466 -0.6876
  114MOL0     H15363   4.084   5.087   5.471  1.4649 -1.0169 -5.3549
  114MOL0     H15364   4.134   4.803   5.437 -1.6296 -1.2814 -0.0369
  114MOL0     H15365   3.987   4.896   5.410 -0.4382  1.0796 -0.5293
  114MOL0     H15366   4.240   4.907   5.258 -0.6355 -1.1872  0.9003
  114MOL0     H15367   4.123   5.046   5.251 -1.0645 -0.1501 -2.3699
  114MOL0     H15368   4.032   4.774   5.188 -2.0575 -0.3352 -0.6871
  114MOL0     H15369   3.938   4.927   5.194  0.7444  1.1819  1.1055
  114MOL0     H15370   4.622   4.692   5.838 -2.3169 -0.2107  0.4896
  114MOL0     H15371   4.768   4.485   5.927 -0.5711  1.7376 -3.5014
  114MOL0     H15372   5.083   4.298   6.253  0.1308 -0.1057  1.2692
  114MOL0     H15373   5.212   4.095   6.259 -0.3316 -0.1469  1.9359
  114MOL0     H15374   6.067   4.198   5.652 -0.8111 -1.0054  0.8741
  114MOL0     H15375   5.981   4.428   5.671 -0.4557 -0.8244  2.1010
  114MOL0     H15376   5.849   4.765   5.565 -1.6262  0.1848 -0.7477
  114MOL0     H15377   5.827   4.974   5.607  0.5363 -1.8664 -0.8514
  114MOL0     H15378   5.652   5.305   5.744 -3.6585 -1.7337  0.7145
  114MOL0     H15379   5.751   5.211   5.628  0.1578 -1.2790  0.1221
  114MOL0     H15380   5.910   5.192   5.759  0.0902 -0.2319 -0.3491
  114MOL0     H15381   5.810   5.170   5.915 -1.5268 -0.0706 -0.3168
  114MOL0     H15382   5.861   5.444   5.781 -0.7702  1.4410  0.6141
  114MOL0     H15383   5.978   5.376   5.894 -0.0819 -1.9144 -0.8107
  114MOL0     H15384   5.693   5.434   5.926 -0.8513  1.7683  1.4911
  114MOL0     H15385   5.791   5.354   6.058  0.7583 -0.9219 -1.6270
  114MOL0     H15386   5.875   5.745   6.148 -2.3259 -0.1225  1.4870
  114MOL0     H15387   5.471   4.932   5.851  1.2085 -1.6258  3.3362
  114MOL0     H15388   5.429   4.582   5.762 -0.7341  0.2414 -1.2705
  114MOL0     H15389   5.477   4.642   5.928 -0.3790  2.4150 -0.0379
  114MOL0     H15390   5.362   4.734   5.831  1.9586  3.7806 -3.0007
  115MOL0     O15391   3.187   4.404   6.861 -0.4001 -0.7302  0.3500
  115MOL0     C15392   3.238   4.495   6.794 -0.7150  0.4171 -0.9815
  115MOL0     O15393   3.254   4.624   6.833 -0.1782 -0.7793  0.4840
  115MOL0     C15394   3.220   4.665   6.961 -0.3762  1.8500 -0.4823
  115MOL0     C15395   3.105   4.745   6.974  0.2333 -0.5423 -1.0862
  115MOL0     C15396   3.076   4.801   7.098 -0.6119  0.1646 -0.2262
  115MOL0     C15397   3.157   4.771   7.207 -0.0774  0.2815  0.2558
  115MOL0     O15398   3.142   4.825   7.334  0.7625 -0.1345  0.5284
  115MOL0     C15399   3.008   4.860   7.370 -0.1843  0.3323 -0.7043
  115MOL0     C15400   3.000   4.896   7.511  0.5804  0.4256  0.2177
  115MOL0     C15401   2.847   4.934   7.539  0.1052 -0.7607 -0.4173
  115MOL0     C15402   2.826   4.998   7.682  0.1942  0.1954 -0.2891
  115MOL0     C15403   2.679   5.048   7.695  0.7813 -0.6355  0.1977
  115MOL0     C15404   2.667   5.074   7.851  0.4652 -0.0567  0.6814
  115MOL0     C15405   2.515   5.095   7.889  0.2726 -0.2553 -0.1840
  115MOL0     C15406   2.426   4.971   7.880 -1.0855 -0.4058  0.0458
  115MOL0     N15407   2.481   4.877   7.979  0.2159  1.0785  0.0586
  115MOL0     C15408   2.569   4.772   7.952 -1.0938 -0.2044  0.1336
  115MOL0     C15409   2.590   4.711   8.085  0.2472 -0.5797 -0.9356
  115MOL0     C15410   2.685   4.596   8.124 -0.0445  0.2923 -0.6489
  115MOL0     C15411   2.603   4.463   8.101  0.0355 -0.8844  0.3684
  115MOL0     C15412   2.489   4.442   8.202  0.2464  0.1665  1.2934
  115MOL0     C15413   2.425   4.289   8.194 -0.2240 -0.8950 -0.1132
  115MOL0     O15414   2.527   4.203   8.262  0.6374 -0.2094 -0.0427
  115MOL0     C15415   2.534   4.071   8.242 -0.6923 -0.2613 -0.7348
  115MOL0     C15416   2.631   3.995   8.304 -0.1355  0.1444  0.3307
  115MOL0     C15417   2.652   3.856   8.271 -0.4025 -1.1968  0.2951
  115MOL0     C15418   2.560   3.784   8.191  0.7531  0.4448  0.3530
  115MOL0     C15419   2.588   3.644   8.137 -0.6697  0.5466  0.2425
  115MOL0     O15420   2.690   3.576   8.204 -0.0889 -0.1804  0.1412
  115MOL0     C15421   2.729   3.450   8.171  0.3924  0.3253 -0.3015
  115MOL0     C15422   2.791   3.385   8.272  0.0473  0.1522  0.1916
  115MOL0     C15423   2.837   3.255   8.259  0.6585 -0.1413  0.1250
  115MOL0     C15424   2.838   3.189   8.133 -0.1067  0.3013  0.8260
  115MOL0     O15425   2.896   3.068   8.103  0.5667  0.3583 -0.1981
  115MOL0     C15426   2.979   3.003   8.199  0.5185 -0.6918 -0.4851
  115MOL0     C15427   3.022   2.861   8.156 -0.8916  0.2782 -0.1634
  115MOL0     C15428   3.098   2.862   8.024 -0.7061  0.0608  0.2471
  115MOL0     C15429   3.200   2.743   8.030 -1.0641 -0.2341  0.4977
  115MOL0     C15430   3.267   2.700   7.895  0.4844 -1.2835 -0.9928
  115MOL0     C15431   3.345   2.568   7.910  0.1397 -0.7498  0.6311
  115MOL0     C15432   3.411   2.512   7.788  0.3534  0.2509  0.8102
  115MOL0     C15433   3.543   2.595   7.760 -0.9448 -0.2747  0.2708
  115MOL0    Cl15434   3.640   2.526   7.627 -0.4267  0.3670  0.2441
  115MOL0     C15435   2.793   3.269   8.029 -0.5352 -0.7020  0.4210
  115MOL0     C15436   2.735   3.397   8.039 -0.2493  0.2935 -0.7194
  115MOL0     O15437   2.533   3.602   8.040  0.3402 -0.4206  0.1071
  115MOL0     C15438   2.457   3.861   8.139  0.1402 -0.1391  0.1515
  115MOL0     C15439   2.444   4.000   8.159  0.0997  0.4277 -0.3791
  115MOL0     N15440   2.507   4.781   8.169  0.5065 -0.4674  0.3623
  115MOL0     N15441   2.440   4.880   8.103 -0.0574  0.1010  0.6073
  115MOL0     C15442   3.277   4.704   7.193  0.2131  0.3240 -0.3935
  115MOL0     C15443   3.307   4.644   7.067 -0.1448 -0.2478 -0.6816
  115MOL0     C15444   3.280   4.466   6.657  0.3628 -0.2606 -0.6445
  115MOL0     C15445   3.234   4.551   6.553 -0.3321  0.2073 -0.4306
  115MOL0     C15446   3.287   4.542   6.419  0.5462  0.0301  0.8114
  115MOL0     C15447   3.389   4.460   6.385  0.1611 -0.5718 -0.0064
  115MOL0     O15448   3.456   4.460   6.263 -0.1476  0.5128 -0.0999
  115MOL0     C15449   3.591   4.455   6.242 -0.0208  0.8322 -1.1024
  115MOL0     C15450   3.666   4.581   6.294  0.6876 -0.6137  0.1609
  115MOL0     C15451   3.622   4.711   6.229  0.4422 -0.5058 -0.0639
  115MOL0     C15452   3.684   4.833   6.293  0.9062 -1.0269  0.1647
  115MOL0     C15453   3.627   4.962   6.257 -0.3919  0.7894 -0.2901
  115MOL0     C15454   3.577   5.068   6.222  0.0041  0.7520 -1.4143
  115MOL0     C15455   3.423   4.366   6.478 -0.2509 -1.0059  1.4188
  115MOL0     C15456   3.377   4.370   6.620 -0.1590  0.2124  1.0345
  115MOL0     C15457   3.423   4.266   6.723 -0.3426  0.1595 -1.7574
  115MOL0     H15458   3.035   4.770   6.896  0.7938  0.8612 -1.1720
  115MOL0     H15459   2.977   4.844   7.107 -1.3118 -1.0697 -1.6078
  115MOL0     H15460   2.982   4.953   7.317 -0.7244  0.5463 -0.0699
  115MOL0     H15461   2.945   4.775   7.345 -0.0459 -0.1928  0.6597
  115MOL0     H15462   3.064   4.982   7.535  1.7256 -0.9099  2.1536
  115MOL0     H15463   3.039   4.818   7.576 -0.2605  0.8547  1.2620
  115MOL0     H15464   2.784   4.845   7.525 -3.4190  1.7343 -1.8699
  115MOL0     H15465   2.816   5.013   7.470 -0.8182  0.3102  1.1423
  115MOL0     H15466   2.857   4.929   7.761  2.1196 -1.1402 -2.1093
  115MOL0     H15467   2.895   5.082   7.678  1.3155 -0.7295 -0.9460
  115MOL0     H15468   2.665   5.138   7.635  1.3062 -2.2973 -2.6386
  115MOL0     H15469   2.616   4.967   7.656 -0.2987  0.2070  0.1485
  115MOL0     H15470   2.717   5.005   7.920 -0.8232  0.0839  1.7948
  115MOL0     H15471   2.711   5.171   7.876 -1.2408  1.0202 -0.2745
  115MOL0     H15472   2.474   5.175   7.826 -1.3542 -1.7080 -1.0553
  115MOL0     H15473   2.503   5.121   7.995 -1.8198  0.5652 -0.5691
  115MOL0     H15474   2.331   5.009   7.918  0.1878 -0.2726  3.5552
  115MOL0     H15475   2.413   4.932   7.779 -4.7262 -0.5541  0.4585
  115MOL0     H15476   2.631   4.757   7.864  2.2479  3.1429  1.6573
  115MOL0     H15477   2.769   4.604   8.055  1.2343  0.7025  0.8820
  115MOL0     H15478   2.723   4.603   8.227  2.1135 -0.9454 -1.2924
  115MOL0     H15479   2.553   4.452   8.004 -0.8456 -4.7722  1.0909
  115MOL0     H15480   2.670   4.378   8.113  2.0020  0.7002  1.0790
  115MOL0     H15481   2.402   4.507   8.194  1.4820  1.8430  0.8387
  115MOL0     H15482   2.530   4.465   8.301  1.6341  0.8905  0.5866
  115MOL0     H15483   2.397   4.266   8.091  0.6926 -2.1708 -0.0922
  115MOL0     H15484   2.336   4.281   8.258 -1.1510  0.9557 -1.0872
  115MOL0     H15485   2.696   4.042   8.376 -1.0219  1.0609  0.5547
  115MOL0     H15486   2.739   3.813   8.318 -0.0140  0.5782  1.2749
  115MOL0     H15487   2.783   3.420   8.374 -0.5803  0.6333 -0.0136
  115MOL0     H15488   2.841   3.207   8.357 -4.7959 -0.6440  0.4416
  115MOL0     H15489   3.067   3.064   8.219 -1.0863  0.6911  3.2776
  115MOL0     H15490   2.913   2.997   8.286  0.7257  1.2967 -0.1451
  115MOL0     H15491   3.077   2.812   8.236  2.6903  1.4561 -1.7030
  115MOL0     H15492   2.933   2.797   8.146 -0.5303 -0.1286 -0.8436
  115MOL0     H15493   3.029   2.847   7.941 -1.7759  0.3275  1.0754
  115MOL0     H15494   3.150   2.959   8.014 -2.2983  1.1777  2.1702
  115MOL0     H15495   3.147   2.651   8.057 -2.7885  0.0117 -1.7569
  115MOL0     H15496   3.273   2.760   8.110 -0.9596 -1.8209  0.7698
  115MOL0     H15497   3.339   2.780   7.874 -0.6300  0.7940  2.3099
  115MOL0     H15498   3.213   2.710   7.801  1.7957  0.7294 -1.6000
  115MOL0     H15499   3.419   2.572   7.991  0.6978  1.1689  0.0681
  115MOL0     H15500   3.270   2.500   7.950  0.7914  0.1665  3.6103
  115MOL0     H15501   3.340   2.520   7.706 -1.2552  0.5965  2.1788
  115MOL0     H15502   3.422   2.404   7.805 -2.4005 -0.2974 -0.2829
  115MOL0     H15503   3.519   2.694   7.720 -5.2054 -1.9854 -2.0360
  115MOL0     H15504   3.609   2.599   7.848  1.4486  1.6278 -1.4733
  115MOL0     H15505   2.778   3.224   7.931 -0.0874  1.0731 -0.5208
  115MOL0     H15506   2.691   3.453   7.957 -1.5425  1.1605  0.4979
  115MOL0     H15507   2.389   3.824   8.063  0.0695 -0.4009  0.3415
  115MOL0     H15508   2.366   4.042   8.096 -1.8174 -1.8786  0.3164
  115MOL0     H15509   3.341   4.694   7.281  0.2555  2.2805 -0.1570
  115MOL0     H15510   3.389   4.576   7.046 -2.1488 -2.5874 -1.3322
  115MOL0     H15511   3.152   4.619   6.573 -1.9340 -2.2774  2.3874
  115MOL0     H15512   3.260   4.621   6.350  0.5004  1.5606  2.5021
  115MOL0     H15513   3.600   4.444   6.133  0.8605  1.2213 -1.0749
  115MOL0     H15514   3.651   4.370   6.277  1.7716  2.6182  0.3662
  115MOL0     H15515   3.775   4.570   6.299  0.7944  0.6836  3.2499
  115MOL0     H15516   3.643   4.589   6.401  3.6127 -1.4230  0.9530
  115MOL0     H15517   3.515   4.714   6.249 -0.2807  1.7676 -3.4765
  115MOL0     H15518   3.643   4.711   6.122 -2.6895 -0.0119 -0.7802
  115MOL0     H15519   3.686   4.828   6.402 -0.9141  0.6859  0.3432
  115MOL0     H15520   3.790   4.832   6.267  1.8617 -1.4831  3.6542
  115MOL0     H15521   3.546   5.166   6.192  3.4441  2.2518 -0.4887
  115MOL0     H15522   3.495   4.291   6.445 -0.0877  0.3897 -1.7353
  115MOL0     H15523   3.330   4.238   6.773  1.0145 -1.4414  0.0300
  115MOL0     H15524   3.475   4.185   6.670  0.9843  0.3461 -0.8085
  115MOL0     H15525   3.494   4.307   6.796  0.3770 -1.5477 -1.4488
  116MOL0     O15526   9.572   0.982   7.307 -0.0935 -0.6132  0.2141
  116MOL0     C15527   9.532   1.017   7.415  0.4534  0.0542  0.1621
  116MOL0     O15528   9.561   1.130   7.488 -0.4209  0.2046  0.7526
  116MOL0     C15529   9.632   1.223   7.421 -0.6737  0.9010 -0.6313
  116MOL0     C15530   9.764   1.205   7.372 -0.2712 -0.6952 -0.3389
  116MOL0     C15531   9.828   1.317   7.321  0.0095 -0.1850  0.1277
  116MOL0     C15532   9.779   1.447   7.312  0.2440  0.2998 -0.0265
  116MOL0     O15533   9.856   1.540   7.258  0.4213  0.9265 -0.2660
  116MOL0     C15534   9.869   1.657   7.333  0.4115 -0.4086 -1.3695
  116MOL0     C15535  10.009   1.708   7.313  0.3602 -0.0113  0.9225
  116MOL0     C15536  10.022   1.825   7.409 -1.5334  0.5272  0.4358
  116MOL0     C15537  10.163   1.870   7.401  0.2405  0.3391 -0.6469
  116MOL0     C15538  10.165   2.015   7.443 -0.3761 -0.4851 -0.3413
  116MOL0     C15539  10.287   2.059   7.530 -0.0582  0.0120  0.0739
  116MOL0     C15540  10.413   2.044   7.437 -0.8822  0.7739  0.3390
  116MOL0     C15541  10.528   2.131   7.479  0.9226  0.4306 -0.5495
  116MOL0     N15542  10.626   2.042   7.551  0.0584 -0.1149 -0.1590
  116MOL0     C15543  10.611   1.981   7.678 -0.1408  0.1105 -0.3693
  116MOL0     C15544  10.707   1.892   7.679  0.4186 -0.4041  0.3987
  116MOL0     C15545  10.737   1.804   7.804  0.2620  0.3714  0.8092
  116MOL0     C15546  10.622   1.713   7.831 -0.3031 -0.4561  0.1661
  116MOL0     C15547  10.642   1.645   7.967  0.3074 -0.5814  0.4465
  116MOL0     C15548  10.538   1.549   8.003  0.2567  0.0128 -0.0968
  116MOL0     O15549  10.425   1.630   8.034  0.1399 -0.2940 -0.4416
  116MOL0     C15550  10.318   1.561   8.080  0.2187 -0.0515  0.4882
  116MOL0     C15551  10.324   1.470   8.188  0.0109  0.6755 -0.1531
  116MOL0     C15552  10.209   1.418   8.236  0.3968  0.6034  0.1791
  116MOL0     C15553  10.082   1.437   8.174  0.0986  0.2459 -0.4507
  116MOL0     C15554   9.958   1.385   8.234  0.3298 -0.8154  0.2731
  116MOL0     O15555   9.843   1.461   8.211 -0.0419 -0.5249 -1.0668
  116MOL0     C15556   9.724   1.408   8.238 -0.1298  0.1568 -0.3435
  116MOL0     C15557   9.628   1.416   8.140  0.1344 -0.0467 -0.5800
  116MOL0     C15558   9.498   1.362   8.155 -0.0806 -0.5186 -0.3364
  116MOL0     C15559   9.463   1.309   8.276 -0.0351  0.6678  0.2057
  116MOL0     O15560   9.338   1.251   8.293 -0.6630  0.2918 -0.6274
  116MOL0     C15561   9.265   1.295   8.407  0.7071 -0.3781  1.0436
  116MOL0     C15562   9.200   1.183   8.488  0.2600  0.6754 -0.0263
  116MOL0     C15563   9.293   1.079   8.532  0.5401 -0.1858  0.0900
  116MOL0     C15564   9.239   0.994   8.647 -0.1465 -0.2966 -0.8386
  116MOL0     C15565   9.340   0.891   8.710  0.3412 -0.5611  0.1338
  116MOL0     C15566   9.277   0.752   8.765 -0.2622  0.0167  0.7839
  116MOL0     C15567   9.395   0.664   8.818  0.2987 -0.7737  0.5959
  116MOL0     C15568   9.370   0.516   8.851 -0.0135 -0.2966  0.1938
  116MOL0    Cl15569   9.270   0.454   8.720 -0.2467  0.3496 -0.4983
  116MOL0     C15570   9.558   1.320   8.386 -0.1022  1.4711  0.5786
  116MOL0     C15571   9.692   1.358   8.363  1.0624  0.0413 -0.3176
  116MOL0     O15572   9.969   1.282   8.294  0.1547  0.0173  0.0986
  116MOL0     C15573  10.073   1.525   8.064 -0.4293 -0.3891 -0.2265
  116MOL0     C15574  10.194   1.586   8.023  0.3212  0.3501  0.1472
  116MOL0     N15575  10.783   1.896   7.563 -0.4676  0.2432  0.2554
  116MOL0     N15576  10.732   1.983   7.488 -0.0369 -0.0410 -0.6335
  116MOL0     C15577   9.653   1.459   7.358 -0.9034 -0.2505  0.5151
  116MOL0     C15578   9.577   1.349   7.407 -0.3406 -0.1154 -0.3623
  116MOL0     C15579   9.461   0.925   7.508  0.0069 -0.0127  1.0957
  116MOL0     C15580   9.369   0.981   7.604  0.2713  0.7833 -0.2070
  116MOL0     C15581   9.287   0.894   7.684 -0.1548  0.2165  0.0283
  116MOL0     C15582   9.301   0.756   7.675  0.3143 -0.2430  0.4747
  116MOL0     O15583   9.231   0.664   7.740  0.7392 -0.0254 -0.4419
  116MOL0     C15584   9.139   0.697   7.848 -0.5527  0.0802 -0.3637
  116MOL0     C15585   9.007   0.621   7.829 -0.4998 -0.7690 -1.5297
  116MOL0     C15586   9.016   0.477   7.817 -0.1881  0.0539  1.0810
  116MOL0     C15587   8.887   0.413   7.774 -0.9906  0.1985 -0.2973
  116MOL0     C15588   8.855   0.425   7.626 -0.1726 -0.2023 -0.4016
  116MOL0     C15589   8.798   0.428   7.519  0.5356 -0.4179 -0.9243
  116MOL0     C15590   9.398   0.700   7.589  0.6814 -0.4035  0.2455
  116MOL0     C15591   9.478   0.787   7.511 -0.7063  0.1747  0.5517
  116MOL0     C15592   9.582   0.710   7.419  0.5376 -0.6311  0.0815
  116MOL0     H15593   9.816   1.114   7.401  0.3069 -0.4629 -0.6350
  116MOL0     H15594   9.930   1.291   7.293  0.2718  1.6729 -0.7970
  116MOL0     H15595   9.798   1.728   7.289 -0.6037 -2.2315 -2.8234
  116MOL0     H15596   9.855   1.643   7.440 -1.2571 -1.8341 -1.7386
  116MOL0     H15597  10.011   1.747   7.211  1.1478 -1.4983  0.3361
  116MOL0     H15598  10.067   1.616   7.329 -2.7535 -2.9553 -2.9218
  116MOL0     H15599  10.006   1.790   7.511  4.7990  1.1444  2.0711
  116MOL0     H15600   9.953   1.909   7.403 -0.5170  1.4428  1.2611
  116MOL0     H15601  10.209   1.805   7.476  0.4234  0.0129 -1.0388
  116MOL0     H15602  10.219   1.846   7.310  1.1952 -0.1223  0.0415
  116MOL0     H15603  10.161   2.079   7.354  0.0306  0.1635  0.1018
  116MOL0     H15604  10.075   2.042   7.498 -1.8510 -4.2642 -0.5536
  116MOL0     H15605  10.272   2.164   7.557 -0.2919  0.4987 -1.8293
  116MOL0     H15606  10.289   1.997   7.621 -2.6396 -1.6089 -0.8567
  116MOL0     H15607  10.392   2.066   7.332 -0.6601 -1.0169 -0.1129
  116MOL0     H15608  10.446   1.940   7.443  0.7910  1.3589  2.8770
  116MOL0     H15609  10.580   2.188   7.401  0.0359  0.7920 -0.8803
  116MOL0     H15610  10.488   2.204   7.549  1.9180 -0.0147  0.5181
  116MOL0     H15611  10.524   1.983   7.743  0.7726 -0.2166  0.9207
  116MOL0     H15612  10.826   1.740   7.800 -0.1822 -0.2504  0.7169
  116MOL0     H15613  10.762   1.861   7.894  1.8412  0.7261  0.1796
  116MOL0     H15614  10.528   1.769   7.836 -1.5133 -1.7122 -4.2452
  116MOL0     H15615  10.622   1.636   7.754  1.4978 -3.7490  3.1249
  116MOL0     H15616  10.643   1.712   8.054 -0.8417 -1.1392  0.9127
  116MOL0     H15617  10.742   1.601   7.959 -0.4947 -2.5591  0.8657
  116MOL0     H15618  10.578   1.506   8.095 -0.2382 -0.8075 -0.2542
  116MOL0     H15619  10.507   1.466   7.939 -1.5278  0.0162  0.7029
  116MOL0     H15620  10.421   1.444   8.230  1.8362  1.8920 -3.2727
  116MOL0     H15621  10.227   1.341   8.311 -1.5203 -0.5330 -0.4418
  116MOL0     H15622   9.662   1.463   8.049  0.6081  1.7970  0.4961
  116MOL0     H15623   9.427   1.370   8.073  1.7131  1.5373 -1.8024
  116MOL0     H15624   9.319   1.361   8.476  1.8606 -1.1447  0.9027
  116MOL0     H15625   9.177   1.347   8.370  0.7971  0.9184  2.5358
  116MOL0     H15626   9.170   1.240   8.577  2.4846  0.0466  1.1984
  116MOL0     H15627   9.115   1.133   8.442  1.7943 -2.0625 -0.0725
  116MOL0     H15628   9.306   1.019   8.442 -3.1247 -0.1817 -0.6228
  116MOL0     H15629   9.391   1.114   8.564  1.5218 -4.3944  2.5596
  116MOL0     H15630   9.148   0.941   8.619  1.0064 -1.2647 -3.0292
  116MOL0     H15631   9.213   1.070   8.721 -0.6862  0.4329 -1.7485
  116MOL0     H15632   9.410   0.918   8.789 -2.6494 -0.1554  2.8312
  116MOL0     H15633   9.410   0.880   8.626  1.8790 -0.9875  1.4364
  116MOL0     H15634   9.216   0.771   8.854  1.0277  0.4308  1.5981
  116MOL0     H15635   9.218   0.706   8.685  0.3354 -0.4286  0.5955
  116MOL0     H15636   9.423   0.710   8.913 -0.9741  2.0560 -0.3086
  116MOL0     H15637   9.478   0.674   8.747 -0.0395 -0.0125  0.2964
  116MOL0     H15638   9.466   0.467   8.867  0.6431  1.2817  1.3440
  116MOL0     H15639   9.314   0.510   8.945  0.3812  2.8303  0.7192
  116MOL0     H15640   9.528   1.269   8.477 -3.0251  2.5611  0.3456
  116MOL0     H15641   9.766   1.367   8.442 -0.0434 -1.8960  1.0430
  116MOL0     H15642   9.980   1.568   8.029  0.0912  0.3823 -0.6737
  116MOL0     H15643  10.187   1.669   7.953 -0.5664  1.0890  1.0724
  116MOL0     H15644   9.617   1.562   7.357  3.2387  1.4285  1.7669
  116MOL0     H15645   9.480   1.373   7.449 -1.6713  0.5935 -3.4948
  116MOL0     H15646   9.370   1.085   7.635 -0.6923  0.5439  0.6655
  116MOL0     H15647   9.216   0.953   7.742  0.6401  0.3427  0.8934
  116MOL0     H15648   9.117   0.802   7.867 -4.1392 -1.3329  6.7569
  116MOL0     H15649   9.182   0.664   7.943 -3.0443  0.1271  0.8574
  116MOL0     H15650   8.947   0.662   7.747 -3.0818  0.6546  0.8971
  116MOL0     H15651   8.944   0.633   7.918  2.1521 -1.0338  0.5023
  116MOL0     H15652   9.033   0.432   7.915  0.0557 -2.1124  0.1169
  116MOL0     H15653   9.092   0.439   7.747 -1.8200  0.1393 -0.8143
  116MOL0     H15654   8.885   0.306   7.798 -1.0260  0.1405 -0.5574
  116MOL0     H15655   8.804   0.452   7.834 -1.5153  2.8414 -2.5449
  116MOL0     H15656   8.753   0.425   7.422 -3.4428 -1.6187  0.7457
  116MOL0     H15657   9.407   0.596   7.563  3.2008  0.6494 -4.0472
  116MOL0     H15658   9.684   0.749   7.412  0.1179  0.3400 -0.7765
  116MOL0     H15659   9.591   0.603   7.442  1.0263 -0.0417  2.9589
  116MOL0     H15660   9.541   0.718   7.318  1.9017 -0.2670 -0.4747
  117MOL0     O15661   2.933   7.627   6.755 -0.3249  0.5193  0.2582
  117MOL0     C15662   2.964   7.508   6.734  0.2984 -0.4129 -0.4834
  117MOL0     O15663   2.874   7.409   6.747  1.0179 -0.0057  0.0561
  117MOL0     C15664   2.740   7.425   6.792 -0.5765 -0.4843 -0.2760
  117MOL0     C15665   2.711   7.452   6.936  0.2508 -0.1007  0.7613
  117MOL0     C15666   2.578   7.445   6.986  0.8240  0.5515 -0.0389
  117MOL0     C15667   2.469   7.430   6.889 -0.4985 -0.3190 -0.1948
  117MOL0     O15668   2.341   7.429   6.949 -0.0227 -0.7261  0.0951
  117MOL0     C15669   2.231   7.377   6.860 -0.5296  0.8972 -0.2164
  117MOL0     C15670   2.096   7.424   6.918  1.3628  0.8179  0.5074
  117MOL0     C15671   1.978   7.398   6.827 -0.8251  0.9470  0.2397
  117MOL0     C15672   1.851   7.455   6.873  0.5702  0.0692  0.6196
  117MOL0     C15673   1.774   7.377   6.977  0.0491  0.5665  0.0498
  117MOL0     C15674   1.623   7.394   6.970 -0.4568 -0.2281 -0.4929
  117MOL0     C15675   1.549   7.290   7.043  0.8401  0.0480 -0.6993
  117MOL0     C15676   1.568   7.285   7.191  0.5163 -0.0072  0.7758
  117MOL0     N15677   1.524   7.415   7.234 -1.0153  0.3949 -1.0959
  117MOL0     C15678   1.397   7.428   7.284 -0.1630  0.1313 -0.2101
  117MOL0     C15679   1.386   7.549   7.331 -0.7294 -1.0869  0.1714
  117MOL0     C15680   1.263   7.618   7.390 -0.8684 -1.1948  0.5695
  117MOL0     C15681   1.205   7.554   7.522 -0.1562 -0.1784 -0.2728
  117MOL0     C15682   1.053   7.602   7.535  0.0490 -0.2792 -0.6559
  117MOL0     C15683   1.023   7.576   7.684 -0.7295 -0.2889 -1.0879
  117MOL0     O15684   0.890   7.625   7.705 -0.3449 -0.0110  0.6053
  117MOL0     C15685   0.834   7.636   7.826 -0.3670  0.0409 -0.3877
  117MOL0     C15686   0.706   7.596   7.863 -0.1343 -0.1687 -0.7195
  117MOL0     C15687   0.646   7.641   7.983  0.2623  0.4744  0.8724
  117MOL0     C15688   0.712   7.716   8.084 -0.4873 -0.2657 -0.2168
  117MOL0     C15689   0.667   7.740   8.213 -0.6923  0.6936  0.7298
  117MOL0     O15690   0.536   7.702   8.233 -0.0998 -0.3266 -0.1594
  117MOL0     C15691   0.494   7.696   8.367 -0.3997 -0.3035 -0.0360
  117MOL0     C15692   0.512   7.573   8.429 -0.3865  0.7751 -0.1117
  117MOL0     C15693   0.469   7.539   8.557  0.4409  0.9849 -0.0850
  117MOL0     C15694   0.403   7.646   8.629 -0.5250  0.4292  0.1180
  117MOL0     O15695   0.346   7.632   8.751  0.1512  0.2699 -0.1350
  117MOL0     C15696   0.396   7.548   8.862  0.0996 -0.3250  0.2014
  117MOL0     C15697   0.283   7.469   8.932  0.7344  0.1291  0.2255
  117MOL0     C15698   0.195   7.547   9.032  0.1903  0.6998 -0.3847
  117MOL0     C15699   0.127   7.662   8.959 -0.3316 -0.5201 -0.2637
  117MOL0     C15700   0.016   7.720   9.046 -0.6644  0.4757 -0.5721
  117MOL0     C15701  -0.072   7.818   8.979 -0.0285  0.1162 -0.1026
  117MOL0     C15702  -0.012   7.937   8.901  0.3482 -0.0379 -0.4699
  117MOL0     C15703   0.058   8.037   8.984 -1.0774 -0.1933 -0.2050
  117MOL0    Cl15704   0.116   8.166   8.882 -0.3138  0.0498  0.4200
  117MOL0     C15705   0.384   7.767   8.562  0.3507 -0.1787 -0.2518
  117MOL0     C15706   0.439   7.800   8.434  0.2963  0.3374  0.7714
  117MOL0     O15707   0.750   7.783   8.299  0.3370  0.1221  0.1322
  117MOL0     C15708   0.849   7.754   8.050  0.0968  0.1898  0.2593
  117MOL0     C15709   0.912   7.710   7.920  0.9326  0.0019 -0.3716
  117MOL0     N15710   1.513   7.603   7.323  0.1312 -0.0959  0.3115
  117MOL0     N15711   1.596   7.522   7.267 -0.0250 -0.0913 -0.3154
  117MOL0     C15712   2.507   7.417   6.745 -0.1055 -0.1759 -0.3867
  117MOL0     C15713   2.639   7.405   6.700  0.0767  0.1550  0.0227
  117MOL0     C15714   3.103   7.470   6.723  0.4401 -0.0022  0.0336
  117MOL0     C15715   3.188   7.576   6.674 -0.0507  0.2514 -0.2330
  117MOL0     C15716   3.317   7.538   6.633 -0.7905 -0.8150 -0.5329
  117MOL0     C15717   3.375   7.415   6.657  0.7485 -0.1321 -0.6992
  117MOL0     O15718   3.509   7.375   6.644 -0.0288 -0.0995 -0.6394
  117MOL0     C15719   3.604   7.479   6.608  0.5297 -0.0954 -0.3378
  117MOL0     C15720   3.734   7.410   6.597 -0.5954 -0.1553  0.6067
  117MOL0     C15721   3.781   7.331   6.723 -0.4078 -0.0106 -0.0823
  117MOL0     C15722   3.848   7.425   6.827  0.7236 -0.0352  0.3979
  117MOL0     C15723   3.891   7.366   6.959  0.2797  0.1560  0.4862
  117MOL0     C15724   3.913   7.329   7.073  0.1482  0.1045  0.8766
  117MOL0     C15725   3.283   7.319   6.704 -0.8945  0.2128  0.1693
  117MOL0     C15726   3.148   7.341   6.742 -1.0325 -0.6514 -0.5865
  117MOL0     C15727   3.082   7.223   6.810 -0.3472  0.5535  0.1673
  117MOL0     H15728   2.794   7.474   7.002 -0.2007  1.4580  0.8522
  117MOL0     H15729   2.559   7.448   7.092 -2.9846  0.2826 -0.5875
  117MOL0     H15730   2.245   7.422   6.762 -0.6988  1.5453  0.0483
  117MOL0     H15731   2.221   7.270   6.843 -1.0137  1.3304 -3.1341
  117MOL0     H15732   2.117   7.527   6.948  5.9504 -0.0299  0.9737
  117MOL0     H15733   2.073   7.366   7.007 -4.0113 -0.4829 -1.3691
  117MOL0     H15734   1.961   7.291   6.811  0.2932  0.5079  1.7879
  117MOL0     H15735   2.007   7.434   6.728 -1.7366  3.8395  0.9104
  117MOL0     H15736   1.861   7.556   6.914 -0.1906  2.0266 -3.5279
  117MOL0     H15737   1.793   7.459   6.781  2.8610 -0.3152 -0.9212
  117MOL0     H15738   1.794   7.271   6.958 -1.9857  0.1329  0.1476
  117MOL0     H15739   1.815   7.406   7.074  0.4201 -2.4835  0.9184
  117MOL0     H15740   1.593   7.488   7.015  0.2471 -0.2345  0.0150
  117MOL0     H15741   1.594   7.397   6.864  1.4913  0.4735 -1.0620
  117MOL0     H15742   1.560   7.189   7.001  0.3494 -0.3442  0.1061
  117MOL0     H15743   1.445   7.321   7.031  1.4297  1.6819 -2.0664
  117MOL0     H15744   1.500   7.207   7.227 -0.6907  0.1986 -0.9300
  117MOL0     H15745   1.675   7.279   7.215  0.9057  0.3528 -0.7452
  117MOL0     H15746   1.309   7.365   7.275 -0.4041  0.0174  2.3845
  117MOL0     H15747   1.287   7.723   7.411  3.3091 -1.4474 -1.7837
  117MOL0     H15748   1.189   7.621   7.310 -0.6879  1.2764  0.4146
  117MOL0     H15749   1.207   7.446   7.503  0.1955  0.2484 -3.0735
  117MOL0     H15750   1.274   7.584   7.602  0.2492 -0.1942 -0.6151
  117MOL0     H15751   0.989   7.547   7.465 -2.5008 -3.1023  3.4625
  117MOL0     H15752   1.035   7.708   7.516  2.5190  0.2539 -0.3586
  117MOL0     H15753   1.094   7.620   7.755 -2.7644 -0.6178  1.3202
  117MOL0     H15754   1.028   7.468   7.705  0.0629  0.2251  1.8318
  117MOL0     H15755   0.643   7.542   7.793 -2.1963 -0.3528  1.1610
  117MOL0     H15756   0.550   7.599   8.012  0.3250 -0.9927 -0.8796
  117MOL0     H15757   0.556   7.504   8.358  1.1200  0.2920  1.2544
  117MOL0     H15758   0.478   7.437   8.593  0.5714  0.4065 -1.6729
  117MOL0     H15759   0.463   7.469   8.825 -1.3765 -0.6944 -1.8609
  117MOL0     H15760   0.457   7.605   8.932 -0.3003 -0.5262  0.7248
  117MOL0     H15761   0.221   7.425   8.853  3.0187 -2.0065 -0.4782
  117MOL0     H15762   0.313   7.377   8.984 -2.6018 -0.2898  1.7359
  117MOL0     H15763   0.123   7.472   9.066 -1.9346  2.4145 -0.9241
  117MOL0     H15764   0.259   7.582   9.113 -0.9626  1.4937  0.2086
  117MOL0     H15765   0.094   7.643   8.856  1.5783  4.1827 -2.0344
  117MOL0     H15766   0.198   7.745   8.954 -1.9652  0.9267 -0.4410
  117MOL0     H15767   0.061   7.760   9.138 -0.8996  0.1118 -0.2919
  117MOL0     H15768  -0.055   7.644   9.080  0.9996 -1.0897 -0.4218
  117MOL0     H15769  -0.133   7.757   8.912 -2.4641  0.5120  1.6163
  117MOL0     H15770  -0.139   7.859   9.055 -0.5505  2.9016 -1.9359
  117MOL0     H15771  -0.089   7.997   8.852 -1.9302 -0.7321  2.0179
  117MOL0     H15772   0.057   7.910   8.820  1.5075  2.4667 -0.4084
  117MOL0     H15773  -0.015   8.083   9.051 -0.1869  0.3593  0.4139
  117MOL0     H15774   0.143   7.989   9.034 -0.4609 -0.7879 -1.7437
  117MOL0     H15775   0.336   7.847   8.618 -1.5930 -1.2819 -0.2775
  117MOL0     H15776   0.435   7.897   8.385  2.4300 -0.8151 -1.9616
  117MOL0     H15777   0.919   7.806   8.115  0.9070 -0.8225  0.2166
  117MOL0     H15778   1.013   7.739   7.895  1.1182 -0.9855 -0.8122
  117MOL0     H15779   2.421   7.408   6.680  0.1755 -3.4854 -0.5035
  117MOL0     H15780   2.654   7.405   6.593 -2.7312 -1.4751 -0.4749
  117MOL0     H15781   3.151   7.677   6.660 -0.3311  0.4543  1.7164
  117MOL0     H15782   3.372   7.619   6.586 -1.0802 -0.8951 -1.0245
  117MOL0     H15783   3.617   7.551   6.689 -0.0562  0.6736 -0.9103
  117MOL0     H15784   3.558   7.539   6.529 -2.9418 -1.5018  0.4619
  117MOL0     H15785   3.800   7.492   6.567 -1.2773  0.3568  0.5038
  117MOL0     H15786   3.734   7.345   6.509 -0.0406 -0.0193  0.5016
  117MOL0     H15787   3.837   7.240   6.700 -0.5981 -0.6401  1.7656
  117MOL0     H15788   3.685   7.289   6.754 -3.2948  3.0642 -3.8105
  117MOL0     H15789   3.939   7.428   6.767  0.3187  0.0042 -0.2152
  117MOL0     H15790   3.799   7.522   6.836  2.1718  0.8674 -0.9754
  117MOL0     H15791   3.902   7.317   7.179 -3.5696  1.0636  0.7324
  117MOL0     H15792   3.312   7.214   6.713 -3.1557 -0.6846 -1.8397
  117MOL0     H15793   3.016   7.178   6.734 -0.4574  1.5754 -0.3571
  117MOL0     H15794   3.155   7.153   6.853  0.1549  0.6405 -0.5298
  117MOL0     H15795   3.013   7.255   6.888 -4.2453  0.2550 -2.8451
  118MOL0     O15796   2.547   2.498  11.039 -0.0008 -0.2123  0.2711
  118MOL0     C15797   2.483   2.423  10.969  0.0117  0.9876  0.2973
  118MOL0     O15798   2.415   2.310  11.010 -1.0060  0.4991  0.1634
  118MOL0     C15799   2.490   2.220  11.086  0.1303  0.1581 -1.0257
  118MOL0     C15800   2.621   2.192  11.073 -0.4055  0.6459  0.5133
  118MOL0     C15801   2.675   2.096  11.159 -0.2081  0.4587  0.3445
  118MOL0     C15802   2.609   2.037  11.257  0.2981 -0.2435  0.1764
  118MOL0     O15803   2.675   1.951  11.330 -0.2615  0.0129  0.1711
  118MOL0     C15804   2.612   1.817  11.345  0.7689 -0.3803 -0.9578
  118MOL0     C15805   2.690   1.740  11.453 -0.4769 -0.2909 -0.8798
  118MOL0     C15806   2.599   1.646  11.507  0.3851  0.5189 -0.0614
  118MOL0     C15807   2.681   1.540  11.589 -0.3287  0.3838  0.0051
  118MOL0     C15808   2.615   1.406  11.626  0.3731  0.1485  0.6761
  118MOL0     C15809   2.465   1.425  11.654 -0.2341  0.5479  0.3785
  118MOL0     C15810   2.417   1.369  11.793 -0.5167  0.1766  0.1906
  118MOL0     C15811   2.266   1.356  11.787  0.0227 -0.2201 -0.0882
  118MOL0     N15812   2.190   1.471  11.822  0.3381 -0.5622 -0.0705
  118MOL0     C15813   2.153   1.570  11.736 -0.0320 -0.1606  0.1243
  118MOL0     C15814   2.100   1.671  11.812 -0.3025  0.0286 -0.0957
  118MOL0     C15815   2.042   1.803  11.767  0.5464 -0.0292 -0.2742
  118MOL0     C15816   1.950   1.776  11.655 -0.4472  0.1299  0.3364
  118MOL0     C15817   1.802   1.732  11.678 -0.3626 -0.4945 -0.4128
  118MOL0     C15818   1.707   1.746  11.557  0.3701 -0.8352 -0.4903
  118MOL0     O15819   1.756   1.654  11.462 -0.1876  0.1006  1.0391
  118MOL0     C15820   1.723   1.675  11.323 -0.4563  0.9310  1.2671
  118MOL0     C15821   1.771   1.584  11.219  0.0681 -0.6801 -0.8576
  118MOL0     C15822   1.759   1.610  11.081 -0.4061 -0.1719  0.1823
  118MOL0     C15823   1.708   1.731  11.036  0.0258  0.3104 -0.3891
  118MOL0     C15824   1.709   1.754  10.890 -1.0413 -0.6425 -0.4830
  118MOL0     O15825   1.825   1.711  10.822 -0.0833 -0.8682 -0.0035
  118MOL0     C15826   1.821   1.698  10.684 -2.1047  0.4033  0.6248
  118MOL0     C15827   1.778   1.793  10.591 -0.0847  0.1786 -1.1447
  118MOL0     C15828   1.801   1.777  10.451  0.1637 -0.3444  0.1201
  118MOL0     C15829   1.861   1.658  10.400  0.2473  0.7551  0.6903
  118MOL0     O15830   1.897   1.655  10.270 -0.0522 -0.5679 -0.0072
  118MOL0     C15831   1.892   1.525  10.207 -0.1947 -0.8613 -0.5488
  118MOL0     C15832   1.935   1.540  10.060 -0.3139 -1.1175  0.3517
  118MOL0     C15833   1.875   1.424   9.977  1.0795  0.2305 -0.1308
  118MOL0     C15834   1.942   1.410   9.834 -0.4827  0.0233 -0.0548
  118MOL0     C15835   1.916   1.275   9.772  0.4465 -0.1656 -0.4712
  118MOL0     C15836   1.965   1.283   9.617 -0.3600 -0.4331 -0.6138
  118MOL0     C15837   1.905   1.171   9.537  0.3776  0.8438  0.4859
  118MOL0     C15838   1.876   1.203   9.393 -0.5006 -1.2518 -0.3733
  118MOL0    Cl15839   2.026   1.202   9.308 -0.3614 -0.0148  0.0805
  118MOL0     C15840   1.897   1.559  10.494  0.1396 -0.2784  0.8004
  118MOL0     C15841   1.876   1.577  10.626  0.1097  0.0428 -0.0600
  118MOL0     O15842   1.615   1.822  10.846  0.0481  0.0645  0.0742
  118MOL0     C15843   1.646   1.810  11.135  0.4629 -0.0268  0.3763
  118MOL0     C15844   1.644   1.775  11.266 -0.5049  0.2560 -0.2995
  118MOL0     N15845   2.127   1.639  11.946 -0.1229  0.5310 -0.1047
  118MOL0     N15846   2.184   1.523  11.947 -0.7142  0.0783 -1.5696
  118MOL0     C15847   2.479   2.073  11.279 -0.4932  0.1763  0.2749
  118MOL0     C15848   2.413   2.162  11.190 -1.0962 -1.0212 -0.9459
  118MOL0     C15849   2.453   2.464  10.831 -0.1077  0.3846 -1.3847
  118MOL0     C15850   2.408   2.364  10.738 -0.3095  0.1129  0.1700
  118MOL0     C15851   2.372   2.396  10.603 -0.4733 -0.1075 -0.4719
  118MOL0     C15852   2.397   2.529  10.554  0.7418 -0.4698 -0.3090
  118MOL0     O15853   2.369   2.574  10.428  0.2012  0.1895  0.4104
  118MOL0     C15854   2.359   2.464  10.334 -0.0038  0.3860  1.1279
  118MOL0     C15855   2.311   2.513  10.198 -0.5927  0.2601 -0.8390
  118MOL0     C15856   2.329   2.414  10.089  0.4170 -0.7072 -0.6415
  118MOL0     C15857   2.233   2.458   9.983 -0.1292  0.0763  0.1987
  118MOL0     C15858   2.093   2.419  10.009  0.1678 -0.0645 -0.0454
  118MOL0     C15859   1.976   2.389  10.015  0.2307  0.4565 -0.9240
  118MOL0     C15860   2.453   2.621  10.645  0.3798  0.8473  0.9943
  118MOL0     C15861   2.468   2.594  10.780  0.0078  0.3673 -0.7577
  118MOL0     C15862   2.524   2.708  10.863 -0.3991  0.0449 -0.3795
  118MOL0     H15863   2.686   2.241  11.002 -1.3891 -1.6511 -2.1628
  118MOL0     H15864   2.779   2.072  11.138 -0.9551 -2.4679 -0.5839
  118MOL0     H15865   2.511   1.833  11.386  0.4445  0.3632 -2.0009
  118MOL0     H15866   2.590   1.758  11.256 -1.0271 -0.6605 -0.3750
  118MOL0     H15867   2.727   1.803  11.535  0.4395 -0.0112 -1.4973
  118MOL0     H15868   2.772   1.698  11.395 -0.0327 -1.6423  0.6754
  118MOL0     H15869   2.549   1.608  11.417  1.4001  1.6237 -1.1323
  118MOL0     H15870   2.526   1.691  11.574  0.6707 -0.6473  1.0778
  118MOL0     H15871   2.768   1.506  11.531  1.4318 -0.3672  2.8615
  118MOL0     H15872   2.716   1.569  11.689  1.5785 -2.6206  0.3487
  118MOL0     H15873   2.639   1.329  11.552  3.7842  0.6170  1.0973
  118MOL0     H15874   2.663   1.382  11.722  0.0093 -0.0114  0.8175
  118MOL0     H15875   2.451   1.533  11.654  0.7959  0.7433 -1.7414
  118MOL0     H15876   2.402   1.387  11.573 -1.2628  0.3928  1.2452
  118MOL0     H15877   2.447   1.448  11.862  0.9029  0.3983 -0.6600
  118MOL0     H15878   2.468   1.279  11.828 -3.9936 -2.0616 -0.0211
  118MOL0     H15879   2.236   1.329  11.685 -2.0970  2.5004 -0.3007
  118MOL0     H15880   2.233   1.279  11.857  0.6880 -0.7397 -0.3289
  118MOL0     H15881   2.145   1.570  11.627 -4.0600 -1.2642  0.2411
  118MOL0     H15882   1.997   1.866  11.845 -0.8394 -1.0569 -0.2157
  118MOL0     H15883   2.121   1.868  11.728 -0.0583  1.3666  0.7398
  118MOL0     H15884   1.942   1.871  11.601  0.0999  0.3511  0.6398
  118MOL0     H15885   2.000   1.710  11.583  2.6220  2.1687  0.4237
  118MOL0     H15886   1.757   1.802  11.750  1.5432  1.9800 -1.4838
  118MOL0     H15887   1.799   1.631  11.720 -1.0611  0.1870  1.2630
  118MOL0     H15888   1.700   1.850  11.524 -1.4217  0.0359  2.3254
  118MOL0     H15889   1.606   1.721  11.589 -0.2816  1.9876 -0.1006
  118MOL0     H15890   1.835   1.502  11.251  0.3015  0.2252  1.1595
  118MOL0     H15891   1.797   1.534  11.013  2.5667 -0.9263  2.4583
  118MOL0     H15892   1.736   1.890  10.615  3.2546  1.4189  0.3326
  118MOL0     H15893   1.775   1.851  10.376 -0.9041  0.0572  0.8524
  118MOL0     H15894   1.970   1.457  10.242  2.8794  1.2967 -2.6186
  118MOL0     H15895   1.791   1.485  10.213 -1.8352  2.7421 -1.2619
  118MOL0     H15896   1.888   1.623  10.007 -3.9340 -2.6370  0.8196
  118MOL0     H15897   2.042   1.561  10.056 -0.6440  1.1031  1.4923
  118MOL0     H15898   1.883   1.330  10.031 -0.9104 -1.3679 -2.3892
  118MOL0     H15899   1.771   1.450   9.955  0.9596  0.6068  0.8409
  118MOL0     H15900   2.049   1.423   9.853 -0.4253 -1.0302  0.4320
  118MOL0     H15901   1.902   1.489   9.770  2.3395  0.3539 -1.5808
  118MOL0     H15902   1.809   1.253   9.776  0.2258  0.6733 -1.4177
  118MOL0     H15903   1.970   1.196   9.824 -1.6782 -0.6216  1.1645
  118MOL0     H15904   1.922   1.371   9.568 -1.8335 -0.4242  0.6303
  118MOL0     H15905   2.074   1.280   9.612 -0.1446  0.5241  2.2849
  118MOL0     H15906   1.804   1.151   9.573 -0.8790  1.2268 -2.5058
  118MOL0     H15907   1.963   1.078   9.541  1.7043  1.6045 -0.3156
  118MOL0     H15908   1.817   1.122   9.349 -0.4821 -1.0346 -0.7957
  118MOL0     H15909   1.821   1.298   9.392  0.7091 -0.4746  1.1937
  118MOL0     H15910   1.936   1.462  10.466 -0.0946  0.0684 -0.8121
  118MOL0     H15911   1.920   1.501  10.689  0.1003 -0.2146 -0.3649
  118MOL0     H15912   1.590   1.898  11.103  0.6243  1.5816  4.0673
  118MOL0     H15913   1.602   1.844  11.339  0.9331 -0.9318  1.7632
  118MOL0     H15914   2.432   2.010  11.354  3.3371 -3.5488 -0.0736
  118MOL0     H15915   2.305   2.177  11.197 -1.0366 -1.1342  0.4660
  118MOL0     H15916   2.380   2.262  10.765 -1.5597  0.0048 -1.3428
  118MOL0     H15917   2.316   2.322  10.547 -3.3764  0.1847  1.7811
  118MOL0     H15918   2.279   2.391  10.353  0.6923 -0.2183  1.8116
  118MOL0     H15919   2.448   2.402  10.318 -0.3637  0.5138 -1.9403
  118MOL0     H15920   2.374   2.599  10.172 -2.0857  1.3234 -1.0258
  118MOL0     H15921   2.207   2.545  10.209 -0.5984 -0.3780  1.2211
  118MOL0     H15922   2.293   2.316  10.121 -1.1270  0.1134  0.2573
  118MOL0     H15923   2.430   2.405  10.048 -0.0370  0.3543 -2.0553
  118MOL0     H15924   2.234   2.567   9.973  0.8493 -0.0562 -1.6058
  118MOL0     H15925   2.271   2.417   9.888 -1.0145 -1.0065  0.2976
  118MOL0     H15926   1.873   2.363  10.028  0.0927  1.4628  0.1867
  118MOL0     H15927   2.473   2.724  10.615  1.1160  0.1980 -0.8809
  118MOL0     H15928   2.485   2.709  10.965  1.6773 -1.5285  0.5124
  118MOL0     H15929   2.632   2.696  10.879 -0.8669 -3.0935  1.2907
  118MOL0     H15930   2.490   2.800  10.815 -0.2646 -0.0944 -0.7401
  119MOL0     O15931   5.408   9.428   4.489  0.0181  0.0318 -0.5300
  119MOL0     C15932   5.311   9.431   4.571  0.4650  0.6562  0.0911
  119MOL0     O15933   5.281   9.331   4.652  0.0583 -0.6352 -0.0526
  119MOL0     C15934   5.359   9.220   4.658  0.3499  0.1675 -0.2756
  119MOL0     C15935   5.479   9.219   4.725 -0.9702  0.4173 -0.0871
  119MOL0     C15936   5.543   9.091   4.736 -0.2262 -0.3294 -0.4465
  119MOL0     C15937   5.481   8.976   4.676 -1.1719 -0.8969 -0.4576
  119MOL0     O15938   5.557   8.863   4.658 -0.0811 -0.6666 -0.2410
  119MOL0     C15939   5.511   8.732   4.686 -0.6034  0.1270  0.2299
  119MOL0     C15940   5.542   8.720   4.835  0.8562  0.5852 -0.4527
  119MOL0     C15941   5.549   8.575   4.897 -0.0119  0.5649  0.1448
  119MOL0     C15942   5.534   8.585   5.056 -0.0898  0.4393 -0.0833
  119MOL0     C15943   5.648   8.664   5.124 -0.2558 -0.4516  0.4091
  119MOL0     C15944   5.643   8.664   5.276  1.6031 -0.0654  0.5297
  119MOL0     C15945   5.759   8.743   5.339  0.6519  0.2876 -0.2525
  119MOL0     C15946   5.799   8.711   5.480  0.9218 -0.2002  0.7608
  119MOL0     N15947   5.907   8.796   5.515 -1.5817  0.4877 -0.6628
  119MOL0     C15948   5.900   8.927   5.559  0.4641 -0.3494  0.3384
  119MOL0     C15949   6.022   8.961   5.599 -1.2469 -0.2203 -0.9400
  119MOL0     C15950   6.050   9.096   5.678 -0.5405  0.2352  0.1609
  119MOL0     C15951   5.926   9.186   5.714  0.4918 -0.3944 -0.1662
  119MOL0     C15952   5.836   9.123   5.816  0.1790 -0.6289 -0.4293
  119MOL0     C15953   5.890   9.074   5.947  0.0383  0.0317 -0.0061
  119MOL0     O15954   5.933   9.180   6.032 -0.2011  0.0917 -0.0249
  119MOL0     C15955   5.974   9.141   6.152  0.5387  0.1037 -1.0960
  119MOL0     C15956   6.103   9.101   6.182  0.2457  0.1862  0.3254
  119MOL0     C15957   6.152   9.052   6.304 -0.2381  0.4589 -0.0342
  119MOL0     C15958   6.056   9.057   6.410  0.1058  0.3167  0.2275
  119MOL0     C15959   6.105   9.029   6.544  0.7151 -0.3068 -0.1401
  119MOL0     O15960   6.203   8.930   6.564 -0.0242 -0.4306 -0.0834
  119MOL0     C15961   6.240   8.881   6.688 -0.7577  0.2997 -0.2006
  119MOL0     C15962   6.379   8.846   6.701 -1.7251 -0.0577  1.2684
  119MOL0     C15963   6.442   8.812   6.814 -0.4615 -0.2577 -0.9055
  119MOL0     C15964   6.355   8.809   6.930  0.9392 -0.0034 -0.7615
  119MOL0     O15965   6.393   8.774   7.055 -0.0347  0.6318  0.6838
  119MOL0     C15966   6.512   8.692   7.057  0.4895 -0.0727 -0.0011
  119MOL0     C15967   6.547   8.645   7.192  0.6023  0.0298  0.7259
  119MOL0     C15968   6.427   8.556   7.254 -0.9403  0.8512  0.8027
  119MOL0     C15969   6.458   8.416   7.196  0.0641  0.0726 -0.0019
  119MOL0     C15970   6.345   8.319   7.246 -0.4524 -0.6931 -0.1746
  119MOL0     C15971   6.323   8.292   7.400 -0.7574  0.5997 -0.5207
  119MOL0     C15972   6.227   8.166   7.432 -0.2184  0.2102 -0.1812
  119MOL0     C15973   6.243   8.126   7.579 -0.6528 -0.8363 -0.6686
  119MOL0    Cl15974   6.120   8.010   7.620 -0.0591 -0.0293  0.0059
  119MOL0     C15975   6.219   8.841   6.922  0.3372  0.2527  0.1470
  119MOL0     C15976   6.161   8.879   6.804 -0.4130  0.0617  0.5638
  119MOL0     O15977   6.030   9.080   6.634 -0.8152  0.1771  1.3037
  119MOL0     C15978   5.918   9.098   6.388 -0.5173  0.3341 -0.3090
  119MOL0     C15979   5.883   9.142   6.257  0.3954 -0.0568  0.1703
  119MOL0     N15980   6.106   8.853   5.578 -0.5561 -0.6051  0.8742
  119MOL0     N15981   6.038   8.756   5.521  0.7385  0.3947 -0.5759
  119MOL0     C15982   5.361   8.985   4.611 -0.0917  0.5869  0.0273
  119MOL0     C15983   5.291   9.109   4.601 -0.2015 -0.4041 -0.6142
  119MOL0     C15984   5.209   9.542   4.575 -0.5945  0.6371  0.4806
  119MOL0     C15985   5.259   9.674   4.570  0.2474  1.2885  0.3720
  119MOL0     C15986   5.169   9.778   4.579 -0.2829 -0.3860  0.1514
  119MOL0     C15987   5.032   9.767   4.603  0.3976 -0.7398  0.3268
  119MOL0     O15988   4.953   9.881   4.606 -0.0508 -0.2685  0.8359
  119MOL0     C15989   4.821   9.863   4.653  1.1563  0.2693 -0.5518
  119MOL0     C15990   4.764   9.987   4.731  0.6867  0.6643  0.3075
  119MOL0     C15991   4.728  10.103   4.638 -0.1491 -0.3947 -0.1428
  119MOL0     C15992   4.661  10.219   4.718 -0.0309 -0.6815 -0.1781
  119MOL0     C15993   4.603  10.324   4.628 -0.9446  0.0810  0.1949
  119MOL0     C15994   4.585  10.407   4.541  1.0076 -0.1581  0.8868
  119MOL0     C15995   4.983   9.640   4.602  0.4004 -0.2218 -0.5231
  119MOL0     C15996   5.066   9.528   4.583  0.3859  0.7755  0.2503
  119MOL0     C15997   5.000   9.397   4.586  0.4211  0.7305  0.1371
  119MOL0     H15998   5.512   9.309   4.777 -2.6779  0.5108  0.9011
  119MOL0     H15999   5.640   9.085   4.783 -0.4476 -1.2598 -0.0882
  119MOL0     H16000   5.406   8.713   4.659 -0.0987  0.9196 -2.5470
  119MOL0     H16001   5.573   8.658   4.635 -1.5301 -0.3577 -0.2365
  119MOL0     H16002   5.462   8.772   4.890 -0.4792 -1.4002 -0.4334
  119MOL0     H16003   5.636   8.774   4.848 -0.0196  1.6806  1.9059
  119MOL0     H16004   5.644   8.531   4.866 -1.2716  0.6438 -4.6065
  119MOL0     H16005   5.475   8.509   4.850 -0.9997  0.1560  2.1506
  119MOL0     H16006   5.439   8.628   5.088  0.4803  2.8646 -1.4272
  119MOL0     H16007   5.552   8.484   5.094 -1.4911  0.6917  1.3397
  119MOL0     H16008   5.746   8.633   5.088  0.8735  0.7111  2.2950
  119MOL0     H16009   5.634   8.768   5.091 -0.3008 -0.0982  1.4870
  119MOL0     H16010   5.546   8.705   5.303  1.0480 -1.6851  1.1250
  119MOL0     H16011   5.635   8.559   5.308 -1.1554  0.1278  0.6601
  119MOL0     H16012   5.736   8.850   5.337  0.1809  0.2629  1.8968
  119MOL0     H16013   5.844   8.713   5.277  1.5841 -1.2751  1.6941
  119MOL0     H16014   5.724   8.729   5.558  3.2454 -0.5327  3.2114
  119MOL0     H16015   5.830   8.607   5.491  1.0953 -0.2994 -0.5692
  119MOL0     H16016   5.806   8.982   5.559  1.8784  2.2924 -1.5581
  119MOL0     H16017   6.101   9.069   5.770 -1.9741  0.0640  0.9297
  119MOL0     H16018   6.133   9.153   5.634  0.0273  1.2610  2.4430
  119MOL0     H16019   5.961   9.281   5.755  1.2372  1.6727 -4.8348
  119MOL0     H16020   5.880   9.221   5.621 -1.5408  1.9738  1.6130
  119MOL0     H16021   5.787   9.034   5.777 -1.7426 -1.0673  2.6482
  119MOL0     H16022   5.761   9.200   5.837 -1.2816 -1.7162 -1.5055
  119MOL0     H16023   5.973   9.004   5.927  2.4635  2.0746  2.2205
  119MOL0     H16024   5.806   9.012   5.982  1.5175 -2.9234 -1.2891
  119MOL0     H16025   6.172   9.091   6.099 -0.2034 -2.8023  0.2122
  119MOL0     H16026   6.252   9.013   6.323  0.1749  0.1045 -2.5793
  119MOL0     H16027   6.428   8.834   6.605 -2.9968  1.8787  0.3121
  119MOL0     H16028   6.548   8.788   6.820  0.5497  3.5314 -1.0526
  119MOL0     H16029   6.500   8.602   6.996 -0.0006  0.5708 -0.8771
  119MOL0     H16030   6.602   8.746   7.026  1.0317 -1.3880 -0.8169
  119MOL0     H16031   6.634   8.589   7.157  0.9931  1.9601 -1.6726
  119MOL0     H16032   6.570   8.722   7.265 -5.6467  1.7683  1.4765
  119MOL0     H16033   6.429   8.551   7.363 -1.3697  1.7838  0.8613
  119MOL0     H16034   6.323   8.587   7.241 -1.1765 -0.1665  0.1336
  119MOL0     H16035   6.561   8.393   7.225  0.7596  0.4145 -2.0324
  119MOL0     H16036   6.462   8.426   7.088  1.1111  0.6535  0.0773
  119MOL0     H16037   6.358   8.221   7.198 -0.8438 -1.9727  2.1862
  119MOL0     H16038   6.244   8.351   7.218 -0.0822  0.4614 -0.2570
  119MOL0     H16039   6.421   8.261   7.438 -1.7508 -1.7644  0.2479
  119MOL0     H16040   6.297   8.390   7.441  1.7345  1.1990 -0.2242
  119MOL0     H16041   6.261   8.088   7.363  2.6297  2.5211 -1.6462
  119MOL0     H16042   6.123   8.190   7.407  0.0604 -0.0714 -1.7040
  119MOL0     H16043   6.347   8.097   7.600 -0.0911  1.7586  0.5701
  119MOL0     H16044   6.224   8.207   7.650 -0.8271  0.2848 -1.9469
  119MOL0     H16045   6.162   8.845   7.015 -2.5724  2.0931 -1.5475
  119MOL0     H16046   6.059   8.912   6.819 -1.6961 -4.3275  3.9704
  119MOL0     H16047   5.842   9.090   6.464  0.2768 -2.4542  0.3359
  119MOL0     H16048   5.778   9.172   6.259  1.0857  2.8370  3.2443
  119MOL0     H16049   5.311   8.897   4.571 -0.5184  1.1764 -0.7699
  119MOL0     H16050   5.192   9.113   4.557 -0.7240  0.7081  0.5849
  119MOL0     H16051   5.366   9.696   4.569  1.0312 -1.9032 -1.4407
  119MOL0     H16052   5.213   9.876   4.595  0.1374 -0.5272 -0.1299
  119MOL0     H16053   4.812   9.782   4.725  0.2994  2.5868  2.1386
  119MOL0     H16054   4.751   9.845   4.571 -1.0768 -0.8920  1.5054
  119MOL0     H16055   4.844  10.013   4.802  0.7257 -0.4497  0.6976
  119MOL0     H16056   4.674   9.952   4.783 -0.9057  2.8146 -0.8870
  119MOL0     H16057   4.663  10.053   4.566 -0.0682 -2.0636  0.8842
  119MOL0     H16058   4.811  10.141   4.579  0.6511 -1.6840  0.1129
  119MOL0     H16059   4.591  10.196   4.800  0.0711  1.0166  0.4196
  119MOL0     H16060   4.744  10.271   4.767  1.0037 -1.1308 -1.3909
  119MOL0     H16061   4.581  10.497   4.482 -1.6481 -0.9922 -0.3361
  119MOL0     H16062   4.875   9.634   4.596  0.4875 -0.6618 -2.9408
  119MOL0     H16063   4.900   9.406   4.542 -0.6567  0.9643  2.4519
  119MOL0     H16064   5.050   9.317   4.533 -1.5797 -1.1772  0.9612
  119MOL0     H16065   4.991   9.358   4.688 -0.2824 -0.4882 -0.3742
  120MOL0     O16066   7.636   4.583  10.394  0.5220 -0.4716  0.3207
  120MOL0     C16067   7.708   4.563  10.494  0.1211 -0.2772  0.4540
  120MOL0     O16068   7.671   4.584  10.621 -0.0759  0.8663 -0.0493
  120MOL0     C16069   7.546   4.634  10.647  0.2465 -0.3005 -0.0609
  120MOL0     C16070   7.542   4.769  10.683 -0.2740  1.1577 -0.5954
  120MOL0     C16071   7.423   4.812  10.746  0.2971  0.4384 -0.5540
  120MOL0     C16072   7.307   4.733  10.757  0.1565 -0.7760  0.3501
  120MOL0     O16073   7.188   4.803  10.787  0.4831  0.5210 -0.0072
  120MOL0     C16074   7.095   4.807  10.682 -0.5538 -0.5714  0.5724
  120MOL0     C16075   7.110   4.937  10.597  0.2263 -0.6814  0.6000
  120MOL0     C16076   7.070   5.050  10.685 -0.3716 -0.5338  0.3136
  120MOL0     C16077   7.076   5.180  10.602 -0.1242 -0.2324 -0.8580
  120MOL0     C16078   7.082   5.313  10.688 -0.0542  0.0250 -0.1392
  120MOL0     C16079   6.961   5.334  10.775 -0.0531  0.2121  0.7005
  120MOL0     C16080   6.975   5.454  10.865 -0.6791 -0.0477 -0.1573
  120MOL0     C16081   6.873   5.454  10.972  0.1971 -0.7727 -0.5093
  120MOL0     N16082   6.892   5.561  11.080 -0.2831 -0.8634  0.3417
  120MOL0     C16083   6.899   5.697  11.072  0.2975  0.1842 -0.0016
  120MOL0     C16084   6.895   5.745  11.189  0.0153  1.3289 -0.5236
  120MOL0     C16085   6.898   5.888  11.230  0.8262  0.1045  0.8048
  120MOL0     C16086   6.739   5.937  11.229 -0.9679 -0.9668  0.1939
  120MOL0     C16087   6.721   6.084  11.201 -0.5691 -0.3149 -0.0426
  120MOL0     C16088   6.747   6.172  11.323 -0.0797  0.2464  0.0742
  120MOL0     O16089   6.893   6.170  11.344 -0.3631 -0.1440 -0.8149
  120MOL0     C16090   6.944   6.194  11.469  0.0408  0.3526 -0.3826
  120MOL0     C16091   6.874   6.205  11.592 -0.0601  1.1599 -0.5202
  120MOL0     C16092   6.941   6.181  11.720  0.0239 -0.0693  0.1019
  120MOL0     C16093   7.075   6.167  11.719  0.5409  0.1821 -0.2773
  120MOL0     C16094   7.139   6.154  11.853 -0.1634 -0.0215  0.3095
  120MOL0     O16095   7.276   6.146  11.840 -0.6769  0.1203  0.2443
  120MOL0     C16096   7.354   6.170  11.953  0.6728  0.1258 -1.1894
  120MOL0     C16097   7.329   6.276  12.046  0.2689 -0.2601  0.2277
  120MOL0     C16098   7.410   6.297  12.156 -0.0029 -0.0646 -0.0542
  120MOL0     C16099   7.518   6.207  12.166 -0.7312  0.3731  0.6315
  120MOL0     O16100   7.617   6.239  12.256  0.5571 -0.8521  0.1957
  120MOL0     C16101   7.575   6.221  12.390  0.3354  0.0011 -0.8773
  120MOL0     C16102   7.685   6.162  12.466 -0.4243  0.3272  0.2651
  120MOL0     C16103   7.631   6.119  12.607  1.2318 -0.5639  0.3829
  120MOL0     C16104   7.731   6.027  12.683 -0.1889 -0.4749  0.3510
  120MOL0     C16105   7.779   5.889  12.606  0.8394  0.4284 -0.3494
  120MOL0     C16106   7.836   5.796  12.709  0.0152  0.7184 -0.6995
  120MOL0     C16107   7.839   5.650  12.682 -0.1499  0.5344 -0.4130
  120MOL0     C16108   7.913   5.574  12.790 -0.5957 -0.2370  0.3359
  120MOL0    Cl16109   7.875   5.618  12.963 -0.1064  0.3302  0.3146
  120MOL0     C16110   7.555   6.114  12.074  0.1287  0.3138 -0.2554
  120MOL0     C16111   7.483   6.098  11.961  0.9705 -0.5876  0.8059
  120MOL0     O16112   7.080   6.146  11.960  0.1835  0.3296 -0.3872
  120MOL0     C16113   7.139   6.173  11.602 -0.7206  0.1389  0.8660
  120MOL0     C16114   7.078   6.180  11.478  0.2043  1.2590  0.6723
  120MOL0     N16115   6.877   5.639  11.278  0.6775  0.6523  0.3782
  120MOL0     N16116   6.868   5.532  11.211  0.0441  0.3777 -0.3044
  120MOL0     C16117   7.318   4.595  10.713  0.5246 -0.6743  0.4155
  120MOL0     C16118   7.442   4.545  10.674 -0.5123 -0.0168  0.2275
  120MOL0     C16119   7.836   4.492  10.470  0.9123 -0.0482 -0.6725
  120MOL0     C16120   7.919   4.548  10.377 -0.4449  0.9585 -0.2619
  120MOL0     C16121   8.031   4.471  10.336 -0.8631 -0.4254  1.1088
  120MOL0     C16122   8.078   4.358  10.401 -0.1095  0.1697 -0.9005
  120MOL0     O16123   8.182   4.283  10.351  0.1689  0.0581  0.4143
  120MOL0     C16124   8.236   4.293  10.217  0.4266 -0.8090 -0.7894
  120MOL0     C16125   8.244   4.156  10.167  0.2394  0.2780 -0.1271
  120MOL0     C16126   8.105   4.096  10.171 -0.1308 -0.7045 -0.3011
  120MOL0     C16127   8.059   4.013  10.290  0.2367  0.1391  1.2158
  120MOL0     C16128   8.155   3.921  10.348  0.0245 -0.6352  0.6026
  120MOL0     C16129   8.227   3.838  10.395  0.5766 -0.0390  0.2286
  120MOL0     C16130   7.995   4.305  10.510  0.2946  0.3340  0.8898
  120MOL0     C16131   7.880   4.375  10.543  0.2742  0.9457  0.4503
  120MOL0     C16132   7.788   4.322  10.651 -0.0015  0.1551 -0.4509
  120MOL0     H16133   7.635   4.825  10.679  0.4826  0.4004  2.8542
  120MOL0     H16134   7.419   4.912  10.788 -0.1802 -0.3454  1.3674
  120MOL0     H16135   7.113   4.721  10.616  1.1833  0.6705 -0.6971
  120MOL0     H16136   6.989   4.810  10.708 -1.1351 -2.8677 -1.1439
  120MOL0     H16137   7.036   4.934  10.516 -0.0583  2.7632  0.6147
  120MOL0     H16138   7.206   4.937  10.544 -1.0650 -1.0297 -1.9037
  120MOL0     H16139   7.139   5.044  10.769  1.7189 -2.6055 -1.4185
  120MOL0     H16140   6.973   5.037  10.733 -1.2661 -0.3343 -1.3478
  120MOL0     H16141   7.166   5.168  10.543  0.0320 -2.7664 -0.2216
  120MOL0     H16142   6.988   5.186  10.536  0.7645  1.2536 -1.9701
  120MOL0     H16143   7.169   5.316  10.755  0.0881 -1.1869 -0.2590
  120MOL0     H16144   7.069   5.402  10.625 -2.9881  1.0249  1.7032
  120MOL0     H16145   6.876   5.353  10.709  1.8741 -0.1902 -2.0899
  120MOL0     H16146   6.957   5.239  10.829  1.6612 -0.6246 -0.5766
  120MOL0     H16147   6.964   5.547  10.808 -0.8781  1.5337  2.3058
  120MOL0     H16148   7.073   5.455  10.913 -0.9075 -0.4250  0.3244
  120MOL0     H16149   6.776   5.454  10.921  0.3312 -2.4528 -0.8475
  120MOL0     H16150   6.883   5.358  11.024  1.0203 -0.1854  0.4401
  120MOL0     H16151   6.898   5.747  10.976 -3.9218 -0.6641 -0.6085
  120MOL0     H16152   6.928   5.896  11.335 -0.3112  0.7779  1.0934
  120MOL0     H16153   6.968   5.949  11.173  3.2980 -1.3770  2.0615
  120MOL0     H16154   6.692   5.886  11.144  1.1095  1.2437 -2.4902
  120MOL0     H16155   6.689   5.906  11.322 -0.5937  0.8277  1.0415
  120MOL0     H16156   6.614   6.104  11.189 -0.1496  1.6695 -0.8175
  120MOL0     H16157   6.769   6.115  11.108  0.3835 -1.2229  0.1289
  120MOL0     H16158   6.681   6.156  11.409 -1.5059 -0.3189 -1.0780
  120MOL0     H16159   6.724   6.277  11.304 -0.8908 -0.1498 -1.2418
  120MOL0     H16160   6.766   6.212  11.600 -0.1802  2.7754 -2.6980
  120MOL0     H16161   6.881   6.159  11.808  0.8226 -0.2613  0.6115
  120MOL0     H16162   7.244   6.342  12.031  1.6953  1.4197 -0.8505
  120MOL0     H16163   7.397   6.374  12.231  3.5297 -1.2160  1.9762
  120MOL0     H16164   7.534   6.314  12.431  0.0455  0.8830 -3.0394
  120MOL0     H16165   7.494   6.148  12.397 -0.1250  0.4248 -1.5871
  120MOL0     H16166   7.708   6.071  12.409 -1.9198  0.7092 -1.0324
  120MOL0     H16167   7.769   6.231  12.472  1.6455 -2.1888  1.9565
  120MOL0     H16168   7.613   6.209  12.666 -0.0122 -1.5810  1.6365
  120MOL0     H16169   7.535   6.071  12.585  0.6185  0.6242  0.4171
  120MOL0     H16170   7.693   6.002  12.783  0.7157 -1.6306  0.4214
  120MOL0     H16171   7.824   6.083  12.695 -1.3058  1.3044  1.0940
  120MOL0     H16172   7.851   5.922  12.530 -0.7077  0.6646 -1.7694
  120MOL0     H16173   7.699   5.833  12.558 -2.6302  2.0375  3.0276
  120MOL0     H16174   7.941   5.822  12.721  0.2156 -0.3493  0.0798
  120MOL0     H16175   7.783   5.827  12.799 -0.3775  2.3742 -1.4619
  120MOL0     H16176   7.896   5.631  12.590 -0.1569  0.2573 -0.3607
  120MOL0     H16177   7.741   5.605  12.665 -0.1578  0.8114 -1.1685
  120MOL0     H16178   7.906   5.467  12.770 -1.0737 -0.2276  0.4455
  120MOL0     H16179   8.022   5.590  12.792 -0.6958  1.0399  4.1288
  120MOL0     H16180   7.645   6.054  12.091 -0.0048  0.7464  2.4870
  120MOL0     H16181   7.518   6.044  11.874  5.0067  1.1566  1.1515
  120MOL0     H16182   7.248   6.168  11.602 -0.5565 -0.2141 -3.5898
  120MOL0     H16183   7.151   6.176  11.398  1.2576 -0.4743  1.6462
  120MOL0     H16184   7.227   4.538  10.702 -0.1054  0.4945 -0.8302
  120MOL0     H16185   7.455   4.441  10.646 -2.5604 -0.0772 -0.6501
  120MOL0     H16186   7.883   4.635  10.323  1.5487  0.2930 -2.8642
  120MOL0     H16187   8.092   4.519  10.260  0.0604  1.6050  3.0208
  120MOL0     H16188   8.330   4.346  10.234  0.8037 -0.7914 -2.6783
  120MOL0     H16189   8.171   4.356  10.155 -0.2951  0.1755  0.8946
  120MOL0     H16190   8.310   4.083  10.215 -1.8192 -1.7211 -0.1430
  120MOL0     H16191   8.273   4.156  10.061 -3.7907 -4.1532 -1.6057
  120MOL0     H16192   8.105   4.021  10.091 -4.4680 -1.4036  0.1163
  120MOL0     H16193   8.033   4.171  10.136  0.2127 -0.5779 -0.7439
  120MOL0     H16194   8.028   4.082  10.370 -0.4783  1.7435 -0.3818
  120MOL0     H16195   7.972   3.956  10.256  0.9509  0.0019 -0.4511
  120MOL0     H16196   8.282   3.761  10.445 -1.0721 -0.7721  0.9924
  120MOL0     H16197   8.022   4.218  10.570  0.8368  0.1537  0.3905
  120MOL0     H16198   7.801   4.218  10.683  0.2278 -0.3990 -2.2557
  120MOL0     H16199   7.794   4.385  10.740 -2.7875  0.9991 -0.7609
  120MOL0     H16200   7.690   4.344  10.608 -0.0626  1.8813  0.4509
  121MOL0     O16201   6.804  11.216   2.539 -0.2041  0.4052 -0.4764
  121MOL0     C16202   6.846  11.271   2.640  0.3300 -0.9990  0.1803
  121MOL0     O16203   6.900  11.398   2.644  0.6707 -0.3086 -0.1304
  121MOL0     C16204   6.966  11.436   2.532 -0.3057 -1.2249 -0.6200
  121MOL0     C16205   6.905  11.449   2.407  0.8052 -1.4647 -0.2890
  121MOL0     C16206   6.987  11.496   2.301  0.1797  0.3554  0.0435
  121MOL0     C16207   7.117  11.549   2.315  0.3534 -0.3777  0.2056
  121MOL0     O16208   7.199  11.593   2.216 -0.0336  0.1676  0.3916
  121MOL0     C16209   7.231  11.486   2.132 -0.8116  0.6903 -0.1737
  121MOL0     C16210   7.349  11.516   2.050 -0.1389  0.3248  0.7065
  121MOL0     C16211   7.307  11.581   1.916 -0.2565  0.0493  0.1286
  121MOL0     C16212   7.415  11.568   1.814  0.3984  0.1265  0.5006
  121MOL0     C16213   7.543  11.642   1.850  0.4317 -1.0410  0.0141
  121MOL0     C16214   7.669  11.609   1.762  1.0628 -0.1299  0.3390
  121MOL0     C16215   7.786  11.677   1.830 -0.4682  0.5891 -0.3242
  121MOL0     C16216   7.912  11.588   1.806 -0.4154  0.0653  0.2536
  121MOL0     N16217   8.042  11.660   1.827  1.1354  0.4429  0.6610
  121MOL0     C16218   8.115  11.667   1.940 -0.4186 -0.7645  1.0707
  121MOL0     C16219   8.204  11.766   1.908 -0.3906  0.2730 -0.6706
  121MOL0     C16220   8.317  11.821   1.994 -0.4210 -0.6043 -0.3752
  121MOL0     C16221   8.356  11.965   1.953 -0.7364  0.0924 -0.5131
  121MOL0     C16222   8.254  12.060   2.015  0.0517 -0.8490 -0.5348
  121MOL0     C16223   8.267  12.199   1.960  0.5117 -0.6868 -0.7063
  121MOL0     O16224   8.375  12.271   2.020  0.3244 -0.1793  0.3044
  121MOL0     C16225   8.406  12.393   1.969 -0.4032 -0.1791 -0.8064
  121MOL0     C16226   8.475  12.486   2.053  1.5439  0.2715 -0.1389
  121MOL0     C16227   8.506  12.618   2.024  0.3341 -0.6767 -0.0128
  121MOL0     C16228   8.477  12.660   1.890  0.1320 -0.5433 -0.0952
  121MOL0     C16229   8.522  12.788   1.843  0.1510  0.6039  0.3754
  121MOL0     O16230   8.593  12.862   1.924 -0.2599  0.4755 -0.1043
  121MOL0     C16231   8.652  12.974   1.874 -0.0998  0.5298  0.5300
  121MOL0     C16232   8.584  13.077   1.821  0.3669 -0.5611  0.9961
  121MOL0     C16233   8.649  13.198   1.779  1.3967  0.2484  0.1943
  121MOL0     C16234   8.784  13.219   1.790 -0.6312  0.7015  0.4699
  121MOL0     O16235   8.850  13.335   1.746  0.1885  0.2050 -1.1252
  121MOL0     C16236   8.787  13.451   1.815  0.0044 -0.0473 -0.4671
  121MOL0     C16237   8.876  13.563   1.799 -0.8758 -0.5345  0.6405
  121MOL0     C16238   8.790  13.690   1.823  0.0992  0.0964  0.1861
  121MOL0     C16239   8.800  13.725   1.966 -0.4778 -0.1451 -1.1446
  121MOL0     C16240   8.935  13.787   2.012 -0.5563  0.0529  0.3979
  121MOL0     C16241   8.981  13.928   1.973  0.5333 -0.3483  0.3331
  121MOL0     C16242   9.079  13.985   2.075 -0.9818  0.6933  1.4109
  121MOL0     C16243   9.090  14.137   2.043 -0.1763 -0.4687 -0.8641
  121MOL0    Cl16244   9.213  14.181   1.919 -0.3632  0.1789  0.0621
  121MOL0     C16245   8.859  13.118   1.842  0.3196  0.3668  0.1563
  121MOL0     C16246   8.795  12.993   1.876 -0.4511 -0.2156  0.2399
  121MOL0     O16247   8.503  12.813   1.722 -0.3455 -0.6448  0.7082
  121MOL0     C16248   8.401  12.581   1.807 -0.9420 -0.2539 -1.1254
  121MOL0     C16249   8.366  12.444   1.848  0.1127 -0.5698 -0.2598
  121MOL0     N16250   8.192  11.803   1.775  0.5939 -0.7511 -0.4860
  121MOL0     N16251   8.090  11.729   1.727  0.3396  0.1311 -0.0913
  121MOL0     C16252   7.180  11.519   2.438  0.3905  0.1261 -0.6402
  121MOL0     C16253   7.102  11.476   2.550 -1.6272  1.6374  0.4970
  121MOL0     C16254   6.824  11.220   2.783  0.7545  0.4955 -0.6731
  121MOL0     C16255   6.813  11.305   2.898  0.2830  0.7099 -0.4818
  121MOL0     C16256   6.803  11.257   3.031  1.1469 -0.2550  0.4544
  121MOL0     C16257   6.773  11.121   3.052 -0.0212  0.8951 -0.6844
  121MOL0     O16258   6.760  11.068   3.180 -0.0509 -0.2472 -0.1297
  121MOL0     C16259   6.695  11.138   3.284 -0.2068 -0.1051  0.5067
  121MOL0     C16260   6.549  11.188   3.245 -0.3115  0.4628  0.0922
  121MOL0     C16261   6.452  11.077   3.183 -0.3000  0.0186 -0.2397
  121MOL0     C16262   6.396  10.978   3.292 -0.4960 -0.2211 -0.4893
  121MOL0     C16263   6.261  11.003   3.317 -0.0823 -0.2918  1.0029
  121MOL0     C16264   6.149  11.032   3.347 -0.0711 -0.5229  0.0334
  121MOL0     C16265   6.787  11.035   2.937  0.1391  0.4208 -0.6432
  121MOL0     C16266   6.810  11.083   2.807 -0.5810 -0.1051  0.0813
  121MOL0     C16267   6.821  10.981   2.699 -1.5755 -0.6075 -0.4603
  121MOL0     H16268   6.799  11.430   2.389  0.7943  0.0032 -2.0466
  121MOL0     H16269   6.937  11.502   2.205 -2.7878 -1.9854  1.2903
  121MOL0     H16270   7.250  11.406   2.205 -0.4611  0.5913 -0.3667
  121MOL0     H16271   7.147  11.458   2.068 -0.7282  0.6161 -0.2522
  121MOL0     H16272   7.411  11.426   2.058  4.1843  3.1682  2.3216
  121MOL0     H16273   7.412  11.587   2.103  0.7401 -0.4983  0.7865
  121MOL0     H16274   7.265  11.678   1.944 -2.8341 -1.4659  1.9383
  121MOL0     H16275   7.227  11.516   1.879  1.2647 -0.6332 -2.1224
  121MOL0     H16276   7.435  11.463   1.792  0.3355  0.1852  0.1522
  121MOL0     H16277   7.384  11.608   1.716 -1.8753 -3.2297 -0.3370
  121MOL0     H16278   7.514  11.746   1.866 -0.1377 -1.3761  1.2655
  121MOL0     H16279   7.575  11.601   1.947  3.3395 -0.4471 -0.5896
  121MOL0     H16280   7.669  11.500   1.752 -2.4481 -0.1971 -0.4264
  121MOL0     H16281   7.648  11.643   1.660  0.2956 -2.6037 -0.4159
  121MOL0     H16282   7.766  11.692   1.936  1.1432 -1.1561  0.2695
  121MOL0     H16283   7.806  11.772   1.779  3.5239 -0.1635 -0.5288
  121MOL0     H16284   7.905  11.487   1.848 -1.2028  0.7090  1.7393
  121MOL0     H16285   7.922  11.564   1.700 -0.0115  1.0968  0.0505
  121MOL0     H16286   8.103  11.623   2.038 -2.1677 -0.8879  0.8388
  121MOL0     H16287   8.291  11.808   2.100  0.0206 -1.3249 -0.3497
  121MOL0     H16288   8.416  11.775   1.982  0.6595  2.1354 -3.4266
  121MOL0     H16289   8.442  11.995   2.013 -0.0003  3.9427 -3.1116
  121MOL0     H16290   8.376  11.986   1.847 -1.1969  0.4371 -0.5335
  121MOL0     H16291   8.262  12.053   2.124 -0.2700 -0.1381 -0.4648
  121MOL0     H16292   8.154  12.018   2.000 -0.4645  0.6273 -1.4205
  121MOL0     H16293   8.175  12.250   1.987  0.7186 -0.3297 -0.6708
  121MOL0     H16294   8.265  12.206   1.851 -2.1844  1.5729 -0.5997
  121MOL0     H16295   8.513  12.458   2.151  0.5406  1.3379  0.5785
  121MOL0     H16296   8.557  12.694   2.082  2.2633 -1.4790 -0.5671
  121MOL0     H16297   8.476  13.071   1.813  0.3344  0.3976  0.5709
  121MOL0     H16298   8.586  13.273   1.732 -2.0185 -1.1541  2.1199
  121MOL0     H16299   8.690  13.472   1.769 -0.4885  1.2096  1.0454
  121MOL0     H16300   8.774  13.435   1.923 -0.2578  2.6921 -0.0367
  121MOL0     H16301   8.956  13.551   1.872 -1.3250  2.8378  1.8841
  121MOL0     H16302   8.913  13.579   1.697 -3.6254  1.9124 -0.1277
  121MOL0     H16303   8.827  13.762   1.750  0.9899 -2.8126 -2.4623
  121MOL0     H16304   8.687  13.672   1.791 -1.0003  2.4452  2.0547
  121MOL0     H16305   8.787  13.633   2.024 -1.0546  1.0953  0.7912
  121MOL0     H16306   8.723  13.790   2.008  0.0710 -1.2309  1.8028
  121MOL0     H16307   9.014  13.720   1.975 -0.7730  0.3429 -0.6180
  121MOL0     H16308   8.942  13.780   2.121 -0.3469  0.8287  0.4363
  121MOL0     H16309   9.032  13.950   1.878  2.1940 -0.9720  1.0380
  121MOL0     H16310   8.882  13.973   1.971  0.5333 -0.2013 -3.1104
  121MOL0     H16311   9.176  13.936   2.062 -1.8248 -1.2752  2.1880
  121MOL0     H16312   9.048  13.979   2.180 -2.2524  3.6975  1.3296
  121MOL0     H16313   8.991  14.175   2.015 -0.1073  0.4760  0.1219
  121MOL0     H16314   9.123  14.182   2.137  0.1556 -1.6072 -0.4189
  121MOL0     H16315   8.967  13.112   1.849  0.3246 -0.0171 -0.2597
  121MOL0     H16316   8.867  12.920   1.911 -1.7848 -2.5555 -1.6058
  121MOL0     H16317   8.379  12.601   1.702 -0.8364 -2.2759 -1.5604
  121MOL0     H16318   8.330  12.385   1.764 -0.3661  0.0883 -0.5213
  121MOL0     H16319   7.286  11.540   2.449 -0.3803  3.1912  4.0860
  121MOL0     H16320   7.156  11.464   2.643 -0.0914  0.3161 -0.5149
  121MOL0     H16321   6.827  11.411   2.880  1.8323  0.5274 -0.4534
  121MOL0     H16322   6.799  11.338   3.103  1.3615  0.6610 -0.5275
  121MOL0     H16323   6.746  11.222   3.332  1.5943 -0.3275 -0.9068
  121MOL0     H16324   6.677  11.062   3.360 -1.1206 -0.1742  0.2286
  121MOL0     H16325   6.554  11.273   3.176  0.3600 -0.7870 -1.4499
  121MOL0     H16326   6.498  11.222   3.336  0.0508  2.6468 -0.4754
  121MOL0     H16327   6.505  11.030   3.099 -1.1904  2.5635 -2.3540
  121MOL0     H16328   6.380  11.120   3.112  2.1721 -0.3183 -3.1829
  121MOL0     H16329   6.403  10.877   3.250  1.8134 -0.5924  0.6302
  121MOL0     H16330   6.456  10.978   3.383 -0.2017 -2.5306 -0.6050
  121MOL0     H16331   6.044  11.050   3.360 -0.3634  1.1839 -3.4473
  121MOL0     H16332   6.779  10.928   2.959 -0.0613  0.7400  1.0150
  121MOL0     H16333   6.906  11.006   2.635 -0.2458 -2.5506  0.4459
  121MOL0     H16334   6.867  10.894   2.747  1.3597  0.0560 -1.8690
  121MOL0     H16335   6.732  10.948   2.643 -0.3441 -3.8429 -0.7410
  122MOL0     O16336   0.421   2.248   8.909  0.0136  0.3423  0.0573
  122MOL0     C16337   0.359   2.188   8.827  0.7962 -0.6645  1.3257
  122MOL0     O16338   0.407   2.163   8.706  1.2915  0.0687 -0.2032
  122MOL0     C16339   0.542   2.154   8.698  0.0977  0.1625 -0.1498
  122MOL0     C16340   0.637   2.254   8.685 -0.2868  0.5752 -0.9652
  122MOL0     C16341   0.778   2.224   8.657 -0.1128 -0.1245  0.6261
  122MOL0     C16342   0.820   2.093   8.635  0.4307 -0.3541 -0.1566
  122MOL0     O16343   0.945   2.075   8.582 -0.5238 -0.1540 -0.4239
  122MOL0     C16344   1.006   1.945   8.617  0.3407  0.0408 -0.5694
  122MOL0     C16345   1.153   1.951   8.570 -0.2185 -0.0474 -0.3106
  122MOL0     C16346   1.250   2.046   8.646  1.0190  0.1579 -0.4688
  122MOL0     C16347   1.279   1.992   8.791 -0.5471  0.3720 -0.4335
  122MOL0     C16348   1.361   2.102   8.862 -0.6801  0.2598 -0.0269
  122MOL0     C16349   1.404   2.053   9.003  0.4093  0.0020  0.0925
  122MOL0     C16350   1.441   2.171   9.086 -0.1253 -0.1688  0.1773
  122MOL0     C16351   1.565   2.131   9.176  0.1474  0.3094  0.3501
  122MOL0     N16352   1.532   2.017   9.264 -0.4446 -0.9989  1.5864
  122MOL0     C16353   1.460   2.035   9.385 -0.7147  0.1458  0.8477
  122MOL0     C16354   1.448   1.910   9.431 -0.1826  0.4893 -0.0404
  122MOL0     C16355   1.394   1.869   9.560  1.0548 -0.3450  0.1249
  122MOL0     C16356   1.248   1.932   9.584 -0.7254  0.7037 -0.3044
  122MOL0     C16357   1.156   1.849   9.682 -0.2018 -0.0051 -0.4911
  122MOL0     C16358   1.009   1.892   9.687  0.4736  0.5181  0.3587
  122MOL0     O16359   0.999   2.016   9.757  0.1812 -0.5733  0.3124
  122MOL0     C16360   1.021   2.007   9.886  0.1348  0.1449 -0.4917
  122MOL0     C16361   0.933   1.928   9.973 -0.6153  0.6707  0.4824
  122MOL0     C16362   0.954   1.935  10.105 -0.4260  0.5171 -0.1651
  122MOL0     C16363   1.032   2.033  10.167 -0.0520  0.2281  0.0826
  122MOL0     C16364   1.027   2.050  10.310 -0.5694  0.2514 -0.0591
  122MOL0     O16365   0.969   1.950  10.380 -0.3088  0.5158  0.2153
  122MOL0     C16366   0.939   1.962  10.513  0.5274  0.5859 -0.4788
  122MOL0     C16367   0.943   1.841  10.586  0.5970 -0.5112 -0.0413
  122MOL0     C16368   0.913   1.846  10.727  0.8807 -0.1872 -1.2874
  122MOL0     C16369   0.890   1.972  10.789 -0.3689 -0.8057 -0.3923
  122MOL0     O16370   0.878   1.995  10.927  0.6853  0.8616  0.5635
  122MOL0     C16371   0.911   1.893  11.018 -0.0239  0.4023  1.0007
  122MOL0     C16372   0.874   1.929  11.158  0.0256 -0.3391  0.5946
  122MOL0     C16373   0.919   1.821  11.254  0.1491 -0.1206  0.0276
  122MOL0     C16374   0.859   1.845  11.393  0.4552  0.0871 -0.4711
  122MOL0     C16375   0.886   1.723  11.494  0.4604 -0.4803  0.5530
  122MOL0     C16376   0.784   1.728  11.608  1.0798 -0.1631  0.7348
  122MOL0     C16377   0.797   1.600  11.701  0.8468 -0.9448 -0.0689
  122MOL0     C16378   0.693   1.604  11.809  0.6963  0.1107  1.0899
  122MOL0    Cl16379   0.532   1.578  11.738 -0.2845 -0.2011  0.1737
  122MOL0     C16380   0.882   2.088  10.718  0.8560  0.2999  0.6067
  122MOL0     C16381   0.905   2.086  10.579 -0.0209  0.6311  0.9407
  122MOL0     O16382   1.051   2.161  10.357  0.0820 -0.5811 -0.2092
  122MOL0     C16383   1.119   2.108  10.082 -0.3759  1.1051 -0.4918
  122MOL0     C16384   1.107   2.103   9.944  0.2787  0.2705  0.0632
  122MOL0     N16385   1.500   1.825   9.338 -1.4880  0.0858  0.0567
  122MOL0     N16386   1.549   1.889   9.237  0.5017  0.4261  0.0682
  122MOL0     C16387   0.728   1.985   8.647  0.0673 -0.3330  0.1715
  122MOL0     C16388   0.591   2.020   8.668  0.4041  0.0011 -0.6186
  122MOL0     C16389   0.223   2.152   8.852 -0.2759 -1.2887 -0.6757
  122MOL0     C16390   0.169   2.211   8.969 -0.3940 -0.8666 -0.0331
  122MOL0     C16391   0.041   2.194   9.006  0.4045 -0.2777 -0.0814
  122MOL0     C16392  -0.045   2.113   8.925  0.3706 -0.3399 -0.3131
  122MOL0     O16393  -0.173   2.077   8.955 -0.0543  0.5717 -0.4252
  122MOL0     C16394  -0.223   2.105   9.086  0.1471 -0.0586  0.4761
  122MOL0     C16395  -0.276   2.256   9.093 -0.4367 -0.6788  0.8741
  122MOL0     C16396  -0.401   2.278   9.016  0.3424 -0.2284  0.2747
  122MOL0     C16397  -0.437   2.431   9.034 -0.7308 -0.1282  0.7383
  122MOL0     C16398  -0.543   2.463   8.949  0.5438 -0.6483 -0.6261
  122MOL0     C16399  -0.640   2.490   8.879  0.1746 -0.4595  1.0055
  122MOL0     C16400   0.011   2.052   8.810 -0.5117 -0.1066 -0.2981
  122MOL0     C16401   0.147   2.064   8.768  0.2430  0.0202  0.2285
  122MOL0     C16402   0.202   2.004   8.646 -0.3310  0.0365 -0.6521
  122MOL0     H16403   0.606   2.357   8.699  2.1908  1.1114  1.4720
  122MOL0     H16404   0.846   2.305   8.632  1.6757 -2.1923 -1.6449
  122MOL0     H16405   0.983   1.929   8.723  0.8584 -0.6410 -0.5557
  122MOL0     H16406   0.978   1.865   8.547  2.0646 -0.2873 -0.9262
  122MOL0     H16407   1.149   1.973   8.463 -0.8620 -0.8882 -0.4728
  122MOL0     H16408   1.194   1.849   8.572  1.6567  0.4882 -3.8753
  122MOL0     H16409   1.203   2.144   8.660  0.7537  0.3297 -2.2150
  122MOL0     H16410   1.342   2.063   8.589 -0.4315  0.7165 -2.7796
  122MOL0     H16411   1.191   1.976   8.854 -0.7717  1.2697 -0.5054
  122MOL0     H16412   1.334   1.899   8.772  3.2579  2.6385 -1.4342
  122MOL0     H16413   1.445   2.132   8.798 -1.7933 -1.3813 -2.4386
  122MOL0     H16414   1.298   2.191   8.872  1.8136  2.1052  0.4778
  122MOL0     H16415   1.323   1.993   9.045  0.1209  1.3330  1.5255
  122MOL0     H16416   1.486   1.985   8.979  0.2458  0.1812 -1.0445
  122MOL0     H16417   1.358   2.208   9.147  0.3862  3.4215 -1.0624
  122MOL0     H16418   1.467   2.251   9.016 -0.1775  1.1802  1.6440
  122MOL0     H16419   1.645   2.102   9.108 -0.3442  1.6596 -0.8591
  122MOL0     H16420   1.592   2.216   9.240  1.6279 -1.6640  2.5163
  122MOL0     H16421   1.420   2.128   9.425 -0.2365  0.7617 -0.0688
  122MOL0     H16422   1.386   1.760   9.568 -3.9241 -0.0684  4.2762
  122MOL0     H16423   1.463   1.905   9.637  0.2006  2.2781 -0.2397
  122MOL0     H16424   1.264   2.033   9.622  2.6188  0.3067 -0.3398
  122MOL0     H16425   1.195   1.946   9.490  0.0912 -1.7539 -1.2130
  122MOL0     H16426   1.204   1.842   9.780  0.7825  2.9442 -0.6681
  122MOL0     H16427   1.158   1.745   9.648  1.5860  0.6471 -2.6876
  122MOL0     H16428   0.938   1.825   9.737  2.3572 -1.0889  1.0423
  122MOL0     H16429   0.975   1.883   9.583 -2.4604  1.8757  1.1062
  122MOL0     H16430   0.856   1.858   9.945  2.2386 -2.2718 -0.7301
  122MOL0     H16431   0.895   1.875  10.173  2.9561 -1.7350  1.0493
  122MOL0     H16432   0.968   1.746  10.540  0.6996  0.2614 -1.6855
  122MOL0     H16433   0.920   1.754  10.783 -0.5788 -0.3229 -1.2727
  122MOL0     H16434   0.863   1.795  11.006  1.5108 -0.3889  1.1727
  122MOL0     H16435   1.018   1.876  11.027  0.4044 -0.9175 -3.8844
  122MOL0     H16436   0.922   2.023  11.190  1.4385 -1.6723  2.6426
  122MOL0     H16437   0.768   1.955  11.165  0.2563  1.1759 -0.9269
  122MOL0     H16438   0.894   1.726  11.207  1.3735  0.9834 -3.1503
  122MOL0     H16439   1.027   1.818  11.272 -0.1870  0.0657  2.3428
  122MOL0     H16440   0.752   1.861  11.381  0.5047  0.3518 -0.5521
  122MOL0     H16441   0.897   1.934  11.444 -1.8928 -0.4862  2.5745
  122MOL0     H16442   0.979   1.750  11.545 -1.4645  3.0191  2.5950
  122MOL0     H16443   0.887   1.638  11.425  2.0501  1.8683 -2.5550
  122MOL0     H16444   0.791   1.817  11.671 -0.3152 -1.0004  2.1357
  122MOL0     H16445   0.687   1.725  11.556  0.7664  1.6221  1.1382
  122MOL0     H16446   0.885   1.606  11.765  1.0988 -3.5104 -0.0713
  122MOL0     H16447   0.799   1.507  11.643 -1.8287 -1.1093 -0.0294
  122MOL0     H16448   0.710   1.513  11.867  0.6848 -0.5997  0.0170
  122MOL0     H16449   0.690   1.684  11.884  2.3650  1.7449 -0.4693
  122MOL0     H16450   0.858   2.182  10.765 -1.3867 -0.3679  0.9166
  122MOL0     H16451   0.891   2.181  10.529  2.9928  2.7702  3.7815
  122MOL0     H16452   1.193   2.175  10.125 -0.4858  0.4857  0.7052
  122MOL0     H16453   1.167   2.176   9.890  1.6284  0.5628  1.8794
  122MOL0     H16454   0.764   1.884   8.631  3.3940  0.4977  1.5788
  122MOL0     H16455   0.520   1.939   8.677  2.3354 -1.5543  1.6908
  122MOL0     H16456   0.218   2.280   9.037 -0.5365  0.0872 -0.8814
  122MOL0     H16457   0.003   2.257   9.086  0.3576  1.6939 -1.5716
  122MOL0     H16458  -0.149   2.092   9.165  0.8484  1.8294  0.1835
  122MOL0     H16459  -0.303   2.033   9.106 -0.3244  0.7630  1.6931
  122MOL0     H16460  -0.194   2.316   9.053 -1.3645  0.3398  0.4645
  122MOL0     H16461  -0.293   2.275   9.199 -0.1780  0.5002  0.7099
  122MOL0     H16462  -0.485   2.216   9.049  0.9876 -2.1212 -1.4696
  122MOL0     H16463  -0.384   2.269   8.908  1.0454 -0.1023  0.3692
  122MOL0     H16464  -0.452   2.457   9.139 -1.2136 -0.4416  0.7487
  122MOL0     H16465  -0.350   2.490   9.003  0.6324 -1.7643  1.2564
  122MOL0     H16466  -0.713   2.508   8.804  2.0503 -0.6539 -0.9601
  122MOL0     H16467  -0.049   1.986   8.748 -2.1422  1.1187 -0.0794
  122MOL0     H16468   0.293   1.946   8.667 -1.0337 -2.0478 -2.8686
  122MOL0     H16469   0.134   1.927   8.607 -1.4243  0.2034  0.8519
  122MOL0     H16470   0.212   2.076   8.564  0.7197  2.3596  1.4238
  123MOL0     O16471   9.079   4.135   9.954 -0.0174 -0.3039  0.6503
  123MOL0     C16472   9.198   4.175   9.953  0.2943  0.2204  0.4029
  123MOL0     O16473   9.254   4.253  10.046 -0.7360 -0.2831  0.0565
  123MOL0     C16474   9.179   4.273  10.155  0.0747 -0.5835 -0.5999
  123MOL0     C16475   9.220   4.216  10.273 -0.8084  0.0711  0.3273
  123MOL0     C16476   9.140   4.232  10.388  0.4603 -0.8623 -0.7493
  123MOL0     C16477   9.021   4.309  10.382 -0.1282 -0.8610  0.0554
  123MOL0     O16478   8.932   4.309  10.480 -0.1925  0.0035 -0.2553
  123MOL0     C16479   8.981   4.282  10.613 -0.2858 -0.4070 -0.1657
  123MOL0     C16480   9.072   4.385  10.684 -0.6663  0.9071  0.3665
  123MOL0     C16481   8.995   4.511  10.697 -0.3561  0.7195 -0.8697
  123MOL0     C16482   9.066   4.622  10.787  0.0855  0.0463  1.1583
  123MOL0     C16483   8.983   4.755  10.762 -0.3513  0.0381  0.2714
  123MOL0     C16484   8.853   4.763  10.848  0.2759  0.9626  0.0799
  123MOL0     C16485   8.817   4.903  10.890 -1.2538  0.7874  0.0363
  123MOL0     C16486   8.675   4.911  10.944  0.1301 -0.4164  0.3291
  123MOL0     N16487   8.634   5.049  10.955  0.4140 -0.1031  0.7595
  123MOL0     C16488   8.524   5.105  10.901 -0.7493  0.3248  0.0201
  123MOL0     C16489   8.532   5.241  10.916 -0.7682 -0.3675 -0.3372
  123MOL0     C16490   8.430   5.348  10.869 -0.1393  0.7213  0.6013
  123MOL0     C16491   8.501   5.473  10.823  0.4701  0.1709 -0.0987
  123MOL0     C16492   8.603   5.442  10.714  0.6220 -0.1419 -0.0527
  123MOL0     C16493   8.554   5.460  10.575  0.7699  0.1587 -0.1684
  123MOL0     O16494   8.467   5.354  10.535  0.0684 -1.4318 -0.7563
  123MOL0     C16495   8.503   5.215  10.533  0.0573 -0.5445 -0.2402
  123MOL0     C16496   8.630   5.176  10.527 -0.3756  0.5885 -0.2922
  123MOL0     C16497   8.656   5.035  10.532  0.0960 -0.2189 -0.4004
  123MOL0     C16498   8.556   4.936  10.557 -0.1099  0.4986 -0.3981
  123MOL0     C16499   8.588   4.801  10.553  0.2346  0.2102  0.0513
  123MOL0     O16500   8.492   4.727  10.619 -0.7841  0.4423  0.3337
  123MOL0     C16501   8.495   4.583  10.608  0.0555 -0.2191 -0.1655
  123MOL0     C16502   8.598   4.500  10.562  0.5191 -0.9115  0.3550
  123MOL0     C16503   8.594   4.362  10.588 -0.6210  0.1312 -0.1265
  123MOL0     C16504   8.479   4.301  10.636  0.5084  0.5661 -1.2247
  123MOL0     O16505   8.495   4.166  10.661  0.5827  0.2443 -0.5444
  123MOL0     C16506   8.378   4.092  10.712 -0.6201 -0.1663  0.3658
  123MOL0     C16507   8.415   3.942  10.719  0.3308  0.5319 -0.4606
  123MOL0     C16508   8.312   3.853  10.782  0.0132 -0.2563  0.2063
  123MOL0     C16509   8.325   3.708  10.759 -0.4119 -0.0254  0.3303
  123MOL0     C16510   8.210   3.625  10.807  0.1556 -0.1399 -0.5163
  123MOL0     C16511   8.229   3.484  10.765 -0.7862 -0.0751  0.6049
  123MOL0     C16512   8.110   3.405  10.790  0.2043  0.5879 -0.7499
  123MOL0     C16513   8.130   3.262  10.747 -1.4144  1.1596  0.2924
  123MOL0    Cl16514   7.972   3.174  10.783  0.0776 -0.0752  0.2214
  123MOL0     C16515   8.366   4.374  10.667  0.4329 -0.2186  0.3915
  123MOL0     C16516   8.376   4.514  10.654  0.4470 -0.3655  0.8830
  123MOL0     O16517   8.687   4.766  10.492 -0.4624  0.1524  0.6286
  123MOL0     C16518   8.419   4.984  10.558 -0.4666  0.5643 -0.4186
  123MOL0     C16519   8.402   5.120  10.555 -0.0551 -0.8211 -0.1438
  123MOL0     N16520   8.648   5.262  10.986 -0.0033 -0.0987 -0.6110
  123MOL0     N16521   8.705   5.151  11.014 -0.7550 -0.3842  0.5507
  123MOL0     C16522   8.986   4.370  10.266  0.7902  0.7854 -0.0346
  123MOL0     C16523   9.065   4.354  10.149  0.2666 -0.1319  1.0413
  123MOL0     C16524   9.272   4.126   9.833 -0.1944 -0.0303 -0.8961
  123MOL0     C16525   9.198   4.086   9.720  0.6417 -0.2309  0.0791
  123MOL0     C16526   9.258   4.055   9.601  0.7607  0.0311  0.3788
  123MOL0     C16527   9.394   4.057   9.589 -0.2803 -0.9530 -0.0646
  123MOL0     O16528   9.440   4.006   9.476  0.6184  0.2830  0.4853
  123MOL0     C16529   9.425   3.871   9.450  0.8593  0.7907 -0.0096
  123MOL0     C16530   9.348   3.857   9.316 -0.4845  0.4517  0.1521
  123MOL0     C16531   9.333   3.708   9.262  0.2175 -0.1528  0.2995
  123MOL0     C16532   9.309   3.706   9.109 -0.8289 -0.6380 -0.5386
  123MOL0     C16533   9.205   3.622   9.052  0.2771 -0.0060 -1.0962
  123MOL0     C16534   9.125   3.551   9.002 -0.3646  0.1122 -0.3925
  123MOL0     C16535   9.478   4.095   9.694 -0.4016 -0.0451 -0.6934
  123MOL0     C16536   9.415   4.120   9.819 -0.6584 -1.0782 -0.8675
  123MOL0     C16537   9.508   4.149   9.933 -0.8954 -0.2623 -0.8938
  123MOL0     H16538   9.314   4.163  10.280  2.7028  5.4783  0.1563
  123MOL0     H16539   9.148   4.170  10.476 -0.5015  2.9036  2.2617
  123MOL0     H16540   8.897   4.274  10.683  1.8455 -1.6465  2.3998
  123MOL0     H16541   9.018   4.180  10.606 -0.4594 -0.5408  0.8229
  123MOL0     H16542   9.168   4.391  10.632 -0.4665 -2.9293 -0.0558
  123MOL0     H16543   9.093   4.356  10.788  1.1900  0.7163 -0.0294
  123MOL0     H16544   8.899   4.481  10.742 -0.8381 -0.1704 -2.4073
  123MOL0     H16545   8.972   4.549  10.597 -2.9242 -2.3589 -1.6453
  123MOL0     H16546   9.084   4.601  10.893  2.0759 -0.5478  0.7410
  123MOL0     H16547   9.164   4.634  10.740  0.9558 -1.3885  2.4972
  123MOL0     H16548   9.047   4.844  10.766 -0.7042  0.4152 -1.4705
  123MOL0     H16549   8.941   4.756  10.661  0.6827  1.9416 -0.1862
  123MOL0     H16550   8.771   4.720  10.790  1.0244  0.9116 -0.9542
  123MOL0     H16551   8.850   4.718  10.948  1.7381 -0.9831 -0.7065
  123MOL0     H16552   8.829   4.971  10.805  0.6841  1.3366  0.6736
  123MOL0     H16553   8.883   4.944  10.968 -0.4175 -1.9469  0.8566
  123MOL0     H16554   8.609   4.851  10.880  0.0955 -0.6080  0.5409
  123MOL0     H16555   8.676   4.877  11.048 -1.8470  1.4364  1.0325
  123MOL0     H16556   8.453   5.041  10.848  0.0513 -0.1156 -0.5433
  123MOL0     H16557   8.380   5.313  10.778  2.2236  2.9844 -1.7633
  123MOL0     H16558   8.366   5.365  10.956 -1.4464  0.2068 -0.2286
  123MOL0     H16559   8.432   5.549  10.786  1.2107  1.5776  1.3003
  123MOL0     H16560   8.558   5.519  10.904 -1.6963  5.8313 -1.3810
  123MOL0     H16561   8.645   5.342  10.725  1.1531  0.1101  0.3127
  123MOL0     H16562   8.686   5.513  10.720 -1.9946  3.0919  2.4440
  123MOL0     H16563   8.641   5.461  10.509  1.8834 -0.2005  1.2335
  123MOL0     H16564   8.515   5.562  10.565  2.9310  1.1534  0.9185
  123MOL0     H16565   8.699   5.260  10.518 -1.2970  1.2231 -2.1343
  123MOL0     H16566   8.759   5.002  10.519 -0.3157 -1.5153 -0.5451
  123MOL0     H16567   8.687   4.543  10.519 -0.5183 -0.6721 -1.6613
  123MOL0     H16568   8.686   4.308  10.570 -0.1001  0.4283  1.4936
  123MOL0     H16569   8.355   4.128  10.813  0.8496  0.1239  0.6192
  123MOL0     H16570   8.293   4.108  10.645  1.1078  3.9117 -1.1562
  123MOL0     H16571   8.442   3.902  10.621  0.6331 -0.6014  0.0699
  123MOL0     H16572   8.507   3.939  10.779 -1.0247  2.7726  1.9696
  123MOL0     H16573   8.317   3.871  10.890  0.7385 -2.7258  0.6438
  123MOL0     H16574   8.213   3.887  10.751  0.2151  0.9133  0.7863
  123MOL0     H16575   8.426   3.685  10.795 -0.4312  4.2132  4.0287
  123MOL0     H16576   8.319   3.688  10.651  0.6964 -2.3851  0.6545
  123MOL0     H16577   8.115   3.655  10.761 -2.2569 -3.8189  1.5732
  123MOL0     H16578   8.195   3.629  10.915 -1.4507 -1.2975 -0.6622
  123MOL0     H16579   8.256   3.466  10.661 -0.7490 -1.4341  0.8372
  123MOL0     H16580   8.309   3.460  10.836  0.8171  2.2988 -0.2904
  123MOL0     H16581   8.024   3.442  10.733  0.1260 -0.9827 -1.6837
  123MOL0     H16582   8.069   3.396  10.891 -1.3623  0.0302 -1.4003
  123MOL0     H16583   8.152   3.259  10.640 -3.5071 -1.7214 -0.1563
  123MOL0     H16584   8.206   3.210  10.804 -1.8501 -0.4010 -0.5107
  123MOL0     H16585   8.283   4.321  10.712  1.6093 -2.4413  0.0881
  123MOL0     H16586   8.290   4.570  10.689 -1.2968 -0.4469 -2.7695
  123MOL0     H16587   8.335   4.916  10.556  3.0419 -4.3067 -1.8287
  123MOL0     H16588   8.302   5.162  10.559  0.6513  1.3585 -2.3955
  123MOL0     H16589   8.895   4.428  10.251 -0.2517 -0.5755  0.7691
  123MOL0     H16590   9.025   4.407  10.063 -2.2237 -0.6010  1.8172
  123MOL0     H16591   9.090   4.073   9.713  0.3456  0.2950  2.5314
  123MOL0     H16592   9.202   4.029   9.512  2.3963  4.4722 -2.2928
  123MOL0     H16593   9.362   3.828   9.528 -1.7658  1.0795 -1.8689
  123MOL0     H16594   9.522   3.819   9.447 -0.6017 -2.0249 -2.0681
  123MOL0     H16595   9.409   3.915   9.245 -0.3057  2.9355  2.1996
  123MOL0     H16596   9.253   3.911   9.319 -0.8959 -0.3054  1.3356
  123MOL0     H16597   9.236   3.678   9.304 -0.7096 -1.7262 -2.6958
  123MOL0     H16598   9.415   3.643   9.294  0.9152  0.3882 -0.3663
  123MOL0     H16599   9.307   3.806   9.066  2.9335  0.5068  1.4720
  123MOL0     H16600   9.405   3.674   9.065  0.7885  3.3321 -0.3287
  123MOL0     H16601   9.063   3.482   8.949 -1.3575  2.9119 -3.2136
  123MOL0     H16602   9.584   4.103   9.674 -0.1748  0.9529  0.8229
  123MOL0     H16603   9.462   4.130  10.031  1.6788 -1.7416  0.1343
  123MOL0     H16604   9.597   4.087   9.917 -1.4545 -0.6100 -2.9244
  123MOL0     H16605   9.546   4.252   9.932  1.1915 -0.9657 -0.3406
  124MOL0     O16606   1.250   3.822   4.241 -0.6438 -0.1526 -0.9751
  124MOL0     C16607   1.240   3.774   4.360  0.3703 -0.0430 -0.4862
  124MOL0     O16608   1.287   3.649   4.401 -0.6341  0.7902 -1.1108
  124MOL0     C16609   1.330   3.573   4.293  1.1522  1.4441 -0.7024
  124MOL0     C16610   1.247   3.472   4.242 -0.4148  0.1360  1.2527
  124MOL0     C16611   1.292   3.396   4.126 -0.0748 -1.1041 -1.0712
  124MOL0     C16612   1.429   3.410   4.076 -0.1533 -0.5294 -0.3387
  124MOL0     O16613   1.484   3.350   3.964 -0.4563  0.1008 -0.3719
  124MOL0     C16614   1.385   3.290   3.884  0.4693 -0.4456  0.2928
  124MOL0     C16615   1.447   3.227   3.770 -0.6277 -0.3307  0.7147
  124MOL0     C16616   1.351   3.151   3.681  0.5160 -0.2279 -0.3517
  124MOL0     C16617   1.252   3.241   3.604  0.5290 -0.3502 -0.0324
  124MOL0     C16618   1.118   3.174   3.588 -0.0163  0.0125 -0.3950
  124MOL0     C16619   1.126   3.032   3.534  0.7001  0.2442 -0.3810
  124MOL0     C16620   1.162   3.032   3.385 -0.3726  0.6996 -0.1855
  124MOL0     C16621   1.185   2.890   3.337 -0.6916  0.0458 -0.3728
  124MOL0     N16622   1.303   2.824   3.403  0.1932  0.1081 -0.6639
  124MOL0     C16623   1.438   2.855   3.395 -0.1931 -0.2176 -0.3955
  124MOL0     C16624   1.499   2.766   3.476 -0.2144  0.6875  0.1549
  124MOL0     C16625   1.640   2.755   3.527 -0.7267  0.4883  0.8992
  124MOL0     C16626   1.681   2.890   3.583 -0.6580  0.1563  0.0704
  124MOL0     C16627   1.807   2.876   3.669 -0.1805 -0.4936  0.6946
  124MOL0     C16628   1.799   2.790   3.791 -0.1113 -0.8653  0.1448
  124MOL0     O16629   1.694   2.850   3.871  0.4795 -0.6160 -0.7612
  124MOL0     C16630   1.724   2.961   3.948  0.3337  0.0562 -0.0654
  124MOL0     C16631   1.845   3.032   3.945  0.1743 -0.3682 -0.6295
  124MOL0     C16632   1.869   3.141   4.024  0.4626 -0.1731 -0.3027
  124MOL0     C16633   1.774   3.188   4.107  0.0510 -0.3421 -0.1405
  124MOL0     C16634   1.793   3.294   4.206  0.1951  0.2965 -0.5661
  124MOL0     O16635   1.707   3.292   4.324 -0.8055 -0.1989  1.3490
  124MOL0     C16636   1.719   3.383   4.418 -0.4990  0.2772  0.5853
  124MOL0     C16637   1.768   3.517   4.409  0.6389 -0.4235 -0.1678
  124MOL0     C16638   1.788   3.591   4.531  0.8788 -1.0590  0.2004
  124MOL0     C16639   1.725   3.550   4.646 -0.5887  1.7925  0.1134
  124MOL0     O16640   1.734   3.632   4.747  0.3103  1.4048  0.0208
  124MOL0     C16641   1.677   3.762   4.727  1.7098 -0.2964 -0.5072
  124MOL0     C16642   1.752   3.849   4.809  0.1227  0.6471  0.4925
  124MOL0     C16643   1.721   3.822   4.965  0.0294 -0.9705 -1.0717
  124MOL0     C16644   1.820   3.905   5.044 -0.6002 -0.2231  0.0214
  124MOL0     C16645   1.785   3.898   5.199 -0.4029 -0.4688  0.0833
  124MOL0     C16646   1.823   3.778   5.270 -0.8770  0.2392 -0.4547
  124MOL0     C16647   1.776   3.795   5.416 -1.3638  0.8498  0.1478
  124MOL0     C16648   1.786   3.656   5.492  0.2217 -0.0681  0.4943
  124MOL0    Cl16649   1.745   3.704   5.655  0.1871  0.3528 -0.4700
  124MOL0     C16650   1.682   3.416   4.656  0.1748 -0.2916  0.5194
  124MOL0     C16651   1.670   3.332   4.540  0.4495 -0.2149 -0.5042
  124MOL0     O16652   1.894   3.364   4.181  0.3449 -0.1127 -0.6853
  124MOL0     C16653   1.656   3.123   4.112  0.0219 -0.0696  0.3732
  124MOL0     C16654   1.632   3.011   4.031 -0.5423 -0.8331  0.8886
  124MOL0     N16655   1.397   2.679   3.525 -0.3611  0.1073 -0.1531
  124MOL0     N16656   1.289   2.716   3.472  0.0930  0.0899  0.2559
  124MOL0     C16657   1.509   3.510   4.139  0.3126 -0.1523  0.0131
  124MOL0     C16658   1.460   3.586   4.239 -0.3745 -1.1280 -0.5477
  124MOL0     C16659   1.184   3.871   4.445 -0.8237  0.5781 -0.2582
  124MOL0     C16660   1.075   3.944   4.399  0.3735  0.9227  0.1247
  124MOL0     C16661   1.036   4.062   4.464  0.0568  0.3487  0.4737
  124MOL0     C16662   1.098   4.110   4.579  0.5363 -1.1993 -0.6710
  124MOL0     O16663   1.029   4.212   4.644 -0.9481 -0.2342  0.9058
  124MOL0     C16664   1.101   4.278   4.750 -0.4500  0.2745  0.2432
  124MOL0     C16665   1.010   4.349   4.840  0.0118 -0.3930 -0.6435
  124MOL0     C16666   1.077   4.412   4.970 -0.5427  0.8695 -0.1852
  124MOL0     C16667   1.209   4.484   4.934 -0.3779  0.5648  0.1429
  124MOL0     C16668   1.242   4.575   5.037 -0.0372 -0.5214  0.0208
  124MOL0     C16669   1.286   4.644   5.132  0.5007  0.0302  0.2560
  124MOL0     C16670   1.222   4.046   4.616 -0.2131  0.2638  0.0092
  124MOL0     C16671   1.264   3.926   4.550  0.7727  0.3549 -0.4746
  124MOL0     C16672   1.386   3.846   4.601 -0.5169 -0.0782  0.1676
  124MOL0     H16673   1.140   3.472   4.260 -1.1691 -3.9485 -1.6947
  124MOL0     H16674   1.220   3.324   4.089  0.5248 -1.2927 -1.9054
  124MOL0     H16675   1.341   3.217   3.952  3.1228  1.1935  4.1897
  124MOL0     H16676   1.305   3.360   3.858 -0.5486 -1.7877 -0.2552
  124MOL0     H16677   1.520   3.160   3.816 -1.7650  0.2124  3.5230
  124MOL0     H16678   1.489   3.312   3.716 -0.0239 -1.8844 -1.3874
  124MOL0     H16679   1.289   3.099   3.754  0.6987  1.6448  1.2227
  124MOL0     H16680   1.387   3.083   3.603  3.6476  2.6299 -1.6456
  124MOL0     H16681   1.239   3.335   3.658  0.0070 -1.1488  1.3070
  124MOL0     H16682   1.296   3.267   3.508 -1.2380  0.3301 -0.7017
  124MOL0     H16683   1.084   3.177   3.693  1.4015  0.1610  0.0788
  124MOL0     H16684   1.046   3.237   3.535 -0.5698  0.2034  0.5576
  124MOL0     H16685   1.194   2.968   3.591 -2.6809 -1.0078  2.6783
  124MOL0     H16686   1.035   2.973   3.536  1.1240 -0.6417 -3.0609
  124MOL0     H16687   1.245   3.099   3.363  2.3925 -1.5828  2.3416
  124MOL0     H16688   1.079   3.082   3.334 -0.9681  0.3605  0.4261
  124MOL0     H16689   1.101   2.823   3.358  0.5150 -1.6125 -0.6581
  124MOL0     H16690   1.194   2.890   3.228  3.3357  2.1862 -0.2499
  124MOL0     H16691   1.476   2.942   3.343  2.1557  0.6541  2.5055
  124MOL0     H16692   1.647   2.661   3.584 -3.4343 -2.1358 -2.6174
  124MOL0     H16693   1.704   2.729   3.442  0.9061  0.0671  2.1962
  124MOL0     H16694   1.696   2.938   3.486  2.1660 -3.5768 -1.5659
  124MOL0     H16695   1.593   2.938   3.628 -1.4856 -0.6223 -0.6597
  124MOL0     H16696   1.835   2.977   3.703 -0.4376  0.8327 -2.5910
  124MOL0     H16697   1.890   2.849   3.603  0.9551 -0.5296  2.1061
  124MOL0     H16698   1.895   2.775   3.841 -0.4009 -2.2040  0.3183
  124MOL0     H16699   1.772   2.689   3.761 -2.4615 -0.1495 -0.4006
  124MOL0     H16700   1.923   2.986   3.884  1.8077 -1.7300  2.2816
  124MOL0     H16701   1.970   3.179   4.017  0.8736 -0.2844  3.3252
  124MOL0     H16702   1.802   3.562   4.316 -1.1707  0.1918 -0.5725
  124MOL0     H16703   1.836   3.688   4.528 -0.7222 -0.2501 -0.4032
  124MOL0     H16704   1.668   3.789   4.621 -0.4004 -0.6875 -0.4688
  124MOL0     H16705   1.574   3.776   4.761  1.3700 -1.0019 -1.2261
  124MOL0     H16706   1.858   3.834   4.786  0.5671  2.9494  0.7949
  124MOL0     H16707   1.724   3.948   4.772  0.7191 -0.1315 -2.3294
  124MOL0     H16708   1.622   3.861   4.991  0.9648  1.8830 -1.4159
  124MOL0     H16709   1.724   3.718   4.996  0.2867 -0.3130  1.3134
  124MOL0     H16710   1.813   4.008   5.010  1.0625  0.2492  0.9732
  124MOL0     H16711   1.923   3.869   5.029 -1.1865 -1.5492 -1.1264
  124MOL0     H16712   1.679   3.921   5.212  0.3189  1.7979  2.8559
  124MOL0     H16713   1.821   3.988   5.250 -3.5831  0.8055  0.2949
  124MOL0     H16714   1.774   3.692   5.225  1.1565 -1.8829  1.1363
  124MOL0     H16715   1.931   3.769   5.281 -0.9032  1.3524  1.1360
  124MOL0     H16716   1.671   3.825   5.420 -1.1704  1.4714  0.6745
  124MOL0     H16717   1.841   3.867   5.467 -1.7201  1.0679  0.2960
  124MOL0     H16718   1.715   3.590   5.441 -0.9820  0.5488  1.3354
  124MOL0     H16719   1.882   3.604   5.486  0.9411  1.3198 -1.3050
  124MOL0     H16720   1.647   3.389   4.755  0.0061  0.1742  0.5846
  124MOL0     H16721   1.613   3.240   4.545 -1.4239  0.9181 -0.0781
  124MOL0     H16722   1.580   3.142   4.187  0.6389  0.5617  0.8524
  124MOL0     H16723   1.545   2.946   4.038  0.1172 -1.6851  1.3287
  124MOL0     H16724   1.606   3.539   4.100  0.1840  2.2461  1.3185
  124MOL0     H16725   1.522   3.662   4.284  1.4195 -3.0202  0.3445
  124MOL0     H16726   1.032   3.907   4.306  0.8013 -0.0397  0.3036
  124MOL0     H16727   0.950   4.120   4.430  0.3217  0.4491 -0.0278
  124MOL0     H16728   1.161   4.353   4.698  3.3423 -1.3345  1.9159
  124MOL0     H16729   1.173   4.217   4.805  1.7619  0.0916 -2.5821
  124MOL0     H16730   0.927   4.285   4.872 -0.6935  0.2257 -1.2071
  124MOL0     H16731   0.954   4.420   4.779 -2.8086 -2.8358 -1.1278
  124MOL0     H16732   1.094   4.330   5.041 -3.8527 -0.1960 -0.4343
  124MOL0     H16733   1.001   4.483   5.004 -2.9883 -0.5632 -2.2591
  124MOL0     H16734   1.293   4.417   4.913  1.6062  2.0607  2.7368
  124MOL0     H16735   1.187   4.548   4.849 -0.9189 -0.4586 -0.5102
  124MOL0     H16736   1.311   4.694   5.224  1.4129 -1.2267  0.7238
  124MOL0     H16737   1.287   4.086   4.692  0.6966  1.0026 -1.1341
  124MOL0     H16738   1.438   3.907   4.676 -0.2169  0.9390 -0.8389
  124MOL0     H16739   1.367   3.759   4.664  2.1134 -1.0659 -0.2541
  124MOL0     H16740   1.452   3.813   4.520 -0.5680 -3.0463  1.2250
  125MOL0     O16741   6.682   9.906   7.804 -0.6170 -0.4567 -0.5514
  125MOL0     C16742   6.798   9.854   7.812  0.0178  0.3260  1.0502
  125MOL0     O16743   6.840   9.729   7.766 -0.2160  0.2102  0.0105
  125MOL0     C16744   6.749   9.626   7.763  0.1908  0.1593 -0.7522
  125MOL0     C16745   6.800   9.513   7.701 -0.7561  0.1660 -0.9542
  125MOL0     C16746   6.730   9.397   7.675 -0.7821  0.9319 -0.0472
  125MOL0     C16747   6.595   9.388   7.718 -0.2805  0.1510 -0.1637
  125MOL0     O16748   6.507   9.282   7.723  0.1477 -0.7959  0.1267
  125MOL0     C16749   6.563   9.164   7.774  0.3359  0.6910  0.3331
  125MOL0     C16750   6.488   9.042   7.705 -0.3942 -0.5852  0.0253
  125MOL0     C16751   6.593   8.963   7.619  1.1214  0.0219  0.0985
  125MOL0     C16752   6.623   9.050   7.490 -0.0732  0.8951 -0.4379
  125MOL0     C16753   6.747   9.001   7.412 -0.2262 -0.4605 -0.3385
  125MOL0     C16754   6.789   9.093   7.293  0.3937  0.2627 -0.5654
  125MOL0     C16755   6.856   9.004   7.185 -0.2121 -0.0064 -0.2743
  125MOL0     C16756   6.993   8.972   7.234 -0.1400  0.0869  0.2009
  125MOL0     N16757   7.054   8.875   7.143 -0.1373 -0.0288 -0.1886
  125MOL0     C16758   7.039   8.745   7.161  0.1883  0.4840 -1.0973
  125MOL0     C16759   7.103   8.694   7.050  0.3329  0.2636  0.7576
  125MOL0     C16760   7.120   8.541   7.011  0.6111 -1.2577 -0.5955
  125MOL0     C16761   6.992   8.507   6.922 -0.1271  0.0849 -0.2340
  125MOL0     C16762   6.885   8.419   6.988  0.4429 -0.2296  0.3694
  125MOL0     C16763   6.765   8.398   6.904 -0.0174 -0.3235  0.0385
  125MOL0     O16764   6.677   8.301   6.968  0.6329  0.1345  0.2254
  125MOL0     C16765   6.568   8.250   6.902 -0.1369  0.1817  0.5695
  125MOL0     C16766   6.516   8.129   6.964  1.0588 -0.2748  0.2369
  125MOL0     C16767   6.398   8.069   6.910  0.4522  0.2021 -0.2866
  125MOL0     C16768   6.341   8.111   6.788  0.6089  0.7052  0.4599
  125MOL0     C16769   6.233   8.045   6.717  0.2820  0.2762 -0.0077
  125MOL0     O16770   6.179   8.110   6.608 -0.1087 -0.9155 -0.3123
  125MOL0     C16771   6.053   8.076   6.568 -0.1456 -0.0570 -1.7054
  125MOL0     C16772   5.942   8.164   6.570 -1.0101  0.3906 -0.4092
  125MOL0     C16773   5.811   8.130   6.548  0.3189 -0.0059 -0.1860
  125MOL0     C16774   5.773   8.002   6.531 -0.3955 -0.0680  0.3385
  125MOL0     O16775   5.639   7.973   6.516 -0.6445  0.3975 -0.3602
  125MOL0     C16776   5.604   7.882   6.410  0.0788 -0.1040  0.7618
  125MOL0     C16777   5.672   7.895   6.263 -0.1076 -0.7025 -0.0037
  125MOL0     C16778   5.689   7.756   6.189  0.6127 -0.8587 -0.5819
  125MOL0     C16779   5.768   7.757   6.069  0.6429 -0.4075  0.1132
  125MOL0     C16780   5.704   7.652   5.976  0.0720 -1.4500  0.5790
  125MOL0     C16781   5.725   7.506   6.027  0.0292 -0.2713  0.2092
  125MOL0     C16782   5.669   7.410   5.929  0.1828 -0.2210 -1.5998
  125MOL0     C16783   5.694   7.268   5.993  0.4228  1.4169 -0.1839
  125MOL0    Cl16784   5.564   7.248   6.117 -0.1250 -0.0939  0.1621
  125MOL0     C16785   5.877   7.905   6.521  0.2711 -0.1711  0.2608
  125MOL0     C16786   6.017   7.944   6.528 -0.1491  0.5730 -0.5517
  125MOL0     O16787   6.186   7.946   6.773  0.4935 -0.6652 -0.6343
  125MOL0     C16788   6.406   8.224   6.731 -0.0699  0.2115  0.2697
  125MOL0     C16789   6.513   8.301   6.788  0.6763  0.6733 -0.3981
  125MOL0     N16790   7.150   8.801   6.970  0.9009  0.1623  0.3726
  125MOL0     N16791   7.123   8.906   7.024  0.7711 -0.6228  0.4509
  125MOL0     C16792   6.542   9.499   7.780 -0.3022 -0.2776  0.1838
  125MOL0     C16793   6.616   9.619   7.795 -0.4684 -0.2728 -0.1770
  125MOL0     C16794   6.891   9.940   7.881 -0.2160 -0.7527  0.7334
  125MOL0     C16795   7.015   9.965   7.820  0.0097 -0.8607  0.0603
  125MOL0     C16796   7.116  10.025   7.904 -0.3286 -0.4271  0.7053
  125MOL0     C16797   7.083  10.085   8.025  0.1796 -0.4233  0.1344
  125MOL0     O16798   7.172  10.156   8.100  0.6132 -1.2174 -0.4724
  125MOL0     C16799   7.308  10.162   8.071  0.5337  0.4859  0.0737
  125MOL0     C16800   7.385  10.229   8.180  0.8414 -0.2971  0.0491
  125MOL0     C16801   7.537  10.211   8.167 -0.6731 -0.1100  0.0751
  125MOL0     C16802   7.589  10.285   8.038  0.0412 -0.2520  0.6708
  125MOL0     C16803   7.727  10.246   8.033 -0.4146  0.0491  0.5648
  125MOL0     C16804   7.845  10.206   8.026  0.5435  0.3363 -0.9530
  125MOL0     C16805   6.961  10.064   8.076 -0.1808 -0.1402 -0.3063
  125MOL0     C16806   6.865   9.984   8.010 -0.0059  0.3229  0.0498
  125MOL0     C16807   6.731   9.957   8.087  0.0523 -0.3624 -0.4081
  125MOL0     H16808   6.903   9.518   7.666 -1.1825 -0.9023 -2.4758
  125MOL0     H16809   6.788   9.316   7.633  0.1065  2.0701 -1.1057
  125MOL0     H16810   6.672   9.164   7.764  0.3992 -0.3601  0.8378
  125MOL0     H16811   6.559   9.159   7.883 -2.1709 -3.8695  0.2925
  125MOL0     H16812   6.405   9.075   7.642  0.5011 -0.9345 -1.4029
  125MOL0     H16813   6.449   8.968   7.775  0.4148 -1.8291 -0.7958
  125MOL0     H16814   6.556   8.863   7.595  4.5664 -0.8517 -2.3556
  125MOL0     H16815   6.688   8.949   7.672  0.5388  2.4618  1.9946
  125MOL0     H16816   6.548   9.054   7.410  0.1727  1.0639 -0.6615
  125MOL0     H16817   6.654   9.150   7.519  0.5759  0.2260  1.2982
  125MOL0     H16818   6.831   8.991   7.481 -0.9834  1.5288  0.9588
  125MOL0     H16819   6.733   8.900   7.371  0.5460 -1.3889  1.5897
  125MOL0     H16820   6.696   9.130   7.249 -0.2536  0.1499  0.6963
  125MOL0     H16821   6.846   9.182   7.320  0.9481  0.2883 -1.7589
  125MOL0     H16822   6.863   9.077   7.103 -0.4631  0.4651  0.1200
  125MOL0     H16823   6.799   8.914   7.162 -1.5218  0.2986  1.5737
  125MOL0     H16824   7.054   9.060   7.257 -1.7952  0.7728  2.1350
  125MOL0     H16825   6.971   8.919   7.327 -1.4187  1.7982  0.9172
  125MOL0     H16826   6.988   8.691   7.240  0.1093  0.2573 -1.3028
  125MOL0     H16827   7.216   8.526   6.961  1.3293  4.9932 -1.9493
  125MOL0     H16828   7.112   8.491   7.108  0.2512 -1.5805 -0.7884
  125MOL0     H16829   6.947   8.604   6.899 -1.7607  0.7178  4.5139
  125MOL0     H16830   7.031   8.459   6.831 -1.0893 -1.6330  0.2214
  125MOL0     H16831   6.863   8.448   7.091  1.2068 -1.9471  1.0480
  125MOL0     H16832   6.929   8.319   6.996 -1.1527 -1.2267 -2.1415
  125MOL0     H16833   6.800   8.354   6.811  0.9841  1.1101 -0.2988
  125MOL0     H16834   6.718   8.497   6.895 -0.6578 -0.6715 -0.5763
  125MOL0     H16835   6.560   8.101   7.059 -1.2254 -1.5655  0.9701
  125MOL0     H16836   6.361   7.976   6.954  1.5770 -1.2017 -2.1711
  125MOL0     H16837   5.974   8.264   6.597  1.4864 -0.1015 -1.2965
  125MOL0     H16838   5.731   8.203   6.558 -0.8708 -1.5951  5.4323
  125MOL0     H16839   5.628   7.783   6.450  2.0764  0.9341  2.3365
  125MOL0     H16840   5.503   7.895   6.370  0.4056 -2.5358 -1.1222
  125MOL0     H16841   5.608   7.963   6.204 -3.6412 -2.7218  1.2212
  125MOL0     H16842   5.771   7.932   6.290  0.0095 -1.1558  0.1844
  125MOL0     H16843   5.731   7.681   6.257 -1.3985 -1.5206  0.0154
  125MOL0     H16844   5.588   7.733   6.154  0.1760  0.5170 -0.2788
  125MOL0     H16845   5.870   7.723   6.092 -1.0389 -3.6403  4.0768
  125MOL0     H16846   5.772   7.858   6.027  2.0604 -0.2986  0.4500
  125MOL0     H16847   5.743   7.657   5.874 -0.2409  0.0651  0.5024
  125MOL0     H16848   5.599   7.683   5.970  0.6114  0.9444  2.1091
  125MOL0     H16849   5.826   7.465   6.040  0.4322  1.2664  2.5655
  125MOL0     H16850   5.676   7.504   6.125 -1.3147  0.2610 -0.4342
  125MOL0     H16851   5.720   7.412   5.832  0.5788 -0.2151 -1.3914
  125MOL0     H16852   5.560   7.421   5.927  0.1189 -0.8506 -1.8129
  125MOL0     H16853   5.692   7.188   5.918  2.3000  2.6550 -1.6359
  125MOL0     H16854   5.790   7.263   6.046  0.4021  2.6485 -0.0021
  125MOL0     H16855   5.844   7.805   6.496 -3.1306  1.2524 -1.6275
  125MOL0     H16856   6.100   7.875   6.535 -0.1678  0.7083  3.4509
  125MOL0     H16857   6.378   8.254   6.631  0.1712 -1.0899 -0.2062
  125MOL0     H16858   6.566   8.380   6.736  1.9345  1.9942  2.6501
  125MOL0     H16859   6.439   9.518   7.808  0.1140  0.0025  1.5937
  125MOL0     H16860   6.567   9.704   7.840  3.0860  2.2640 -0.6317
  125MOL0     H16861   7.051   9.920   7.728  4.0727  3.8164 -1.1089
  125MOL0     H16862   7.219  10.022   7.870 -0.0155 -1.8615  1.7194
  125MOL0     H16863   7.311  10.192   7.966 -3.0408 -0.8232 -0.5323
  125MOL0     H16864   7.331  10.055   8.066  0.6360  0.5633 -3.1231
  125MOL0     H16865   7.357  10.186   8.277  1.7028  0.1199  0.4956
  125MOL0     H16866   7.354  10.334   8.185 -0.4689 -0.6820  0.5552
  125MOL0     H16867   7.550  10.104   8.145  0.9448  0.8884 -5.4612
  125MOL0     H16868   7.592  10.247   8.254  1.6334 -3.5666  0.2794
  125MOL0     H16869   7.541  10.260   7.944 -2.3633  2.2514  1.1119
  125MOL0     H16870   7.588  10.394   8.047  2.0650 -0.0062 -1.0912
  125MOL0     H16871   7.952  10.198   8.022  0.5351 -0.1044 -0.3574
  125MOL0     H16872   6.944  10.101   8.177 -0.7859  0.2065 -0.5340
  125MOL0     H16873   6.699   9.856   8.060  0.1108 -1.1819  2.2593
  125MOL0     H16874   6.747   9.967   8.195  1.5191 -0.7948 -0.5526
  125MOL0     H16875   6.652  10.027   8.058 -0.1112 -0.2843  0.2109
  126MOL0     O16876   3.347   0.230   0.854 -0.1367 -0.1647  1.0058
  126MOL0     C16877   3.296   0.211   0.743 -0.6260 -0.2246 -0.5975
  126MOL0     O16878   3.312   0.092   0.677  0.2245  0.6683 -0.6657
  126MOL0     C16879   3.373  -0.012   0.747  0.0136  0.2798 -0.9890
  126MOL0     C16880   3.489  -0.065   0.698 -0.2251  0.2754 -0.5091
  126MOL0     C16881   3.557  -0.174   0.762 -0.1424  0.3059 -0.3424
  126MOL0     C16882   3.500  -0.235   0.878  0.2345  0.7552  0.0697
  126MOL0     O16883   3.563  -0.343   0.932  0.0324 -0.0005  0.4372
  126MOL0     C16884   3.501  -0.419   1.032  0.5864  0.8628  0.1195
  126MOL0     C16885   3.550  -0.569   1.023 -0.1956  0.2962 -0.2825
  126MOL0     C16886   3.679  -0.583   1.101  1.1088 -0.5861  0.3111
  126MOL0     C16887   3.730  -0.719   1.067 -0.2691  1.0917 -0.1628
  126MOL0     C16888   3.845  -0.769   1.148 -0.0579 -0.0254 -0.0433
  126MOL0     C16889   3.915  -0.886   1.090  0.4057 -0.3158 -0.3262
  126MOL0     C16890   3.993  -0.952   1.192 -0.0242 -0.9584 -0.0846
  126MOL0     C16891   4.065  -1.069   1.126  0.0970  0.5570 -0.5577
  126MOL0     N16892   4.157  -1.129   1.217 -0.1698  0.9067  0.3631
  126MOL0     C16893   4.131  -1.181   1.337 -0.0685 -0.5496 -0.0158
  126MOL0     C16894   4.246  -1.239   1.374 -0.0251 -0.5172  0.9904
  126MOL0     C16895   4.266  -1.328   1.498 -0.3225  0.2997 -1.0337
  126MOL0     C16896   4.152  -1.427   1.516  1.0779  1.3568  0.6052
  126MOL0     C16897   4.180  -1.527   1.625 -0.3886 -0.1735 -0.3012
  126MOL0     C16898   4.195  -1.474   1.767  0.0433 -0.1975 -0.2422
  126MOL0     O16899   4.070  -1.434   1.830  0.1130 -0.1849 -0.9123
  126MOL0     C16900   3.964  -1.511   1.862 -0.8255  0.3317  1.1980
  126MOL0     C16901   3.857  -1.449   1.909 -0.2176  0.1870  0.5562
  126MOL0     C16902   3.751  -1.527   1.948  0.7708  0.4040  0.1657
  126MOL0     C16903   3.750  -1.671   1.946 -0.0116 -0.1731 -1.3956
  126MOL0     C16904   3.638  -1.748   1.999 -0.3351  0.2081 -0.4163
  126MOL0     O16905   3.645  -1.884   2.005  0.8952  0.3687 -0.1623
  126MOL0     C16906   3.576  -1.959   2.093  1.2711  1.2497  0.5563
  126MOL0     C16907   3.526  -2.086   2.069 -0.1071  0.0349  0.2743
  126MOL0     C16908   3.452  -2.156   2.167 -0.3754  0.1970 -0.0429
  126MOL0     C16909   3.441  -2.111   2.300 -0.1227  0.0910  0.2448
  126MOL0     O16910   3.372  -2.186   2.386 -0.3102 -0.4713  0.0195
  126MOL0     C16911   3.417  -2.200   2.519 -0.0141 -0.5187  0.2915
  126MOL0     C16912   3.541  -2.287   2.519 -0.4032  0.7123  0.4754
  126MOL0     C16913   3.519  -2.438   2.479 -0.0164  0.0400 -0.5776
  126MOL0     C16914   3.637  -2.497   2.390 -0.0624 -0.0711 -0.7358
  126MOL0     C16915   3.598  -2.635   2.333 -0.0498  0.9679  0.2275
  126MOL0     C16916   3.637  -2.755   2.425 -0.5754 -0.5037 -0.8206
  126MOL0     C16917   3.586  -2.886   2.368  0.4508  0.3905 -0.2240
  126MOL0     C16918   3.592  -3.001   2.468 -0.7611  0.5763  0.4722
  126MOL0    Cl16919   3.511  -3.160   2.402 -0.0596  0.0021 -0.4425
  126MOL0     C16920   3.506  -1.995   2.328  0.0387 -0.7004 -0.5227
  126MOL0     C16921   3.567  -1.914   2.229  1.1587  0.4761 -0.1090
  126MOL0     O16922   3.557  -1.677   2.058  0.6139  0.0146 -0.3313
  126MOL0     C16923   3.867  -1.736   1.891  0.8012 -0.8699 -0.2179
  126MOL0     C16924   3.965  -1.659   1.850  0.3888 -0.6010 -0.0171
  126MOL0     N16925   4.334  -1.230   1.268 -0.2590 -0.1247  0.4713
  126MOL0     N16926   4.289  -1.158   1.179 -0.0285 -1.2382  0.7680
  126MOL0     C16927   3.395  -0.163   0.940 -0.9036  0.8412  0.6148
  126MOL0     C16928   3.328  -0.058   0.873  0.0631 -0.0732 -0.0687
  126MOL0     C16929   3.209   0.311   0.682  1.2877  1.0813  0.6259
  126MOL0     C16930   3.147   0.272   0.561  0.4542 -0.8371  0.2103
  126MOL0     C16931   3.068   0.368   0.485 -0.3789  0.7300  0.0869
  126MOL0     C16932   3.038   0.498   0.524  0.5093  0.6475 -0.5526
  126MOL0     O16933   2.955   0.580   0.445  0.0690  0.3182 -0.3245
  126MOL0     C16934   2.989   0.719   0.424  0.3754  0.4584 -0.2331
  126MOL0     C16935   3.140   0.749   0.395  0.7632 -0.2616  0.1401
  126MOL0     C16936   3.206   0.646   0.301  0.2514  0.3656  0.2559
  126MOL0     C16937   3.184   0.709   0.152  0.6332 -0.4708 -0.0581
  126MOL0     C16938   3.237   0.606   0.060  0.3026  0.0728  0.8279
  126MOL0     C16939   3.284   0.522  -0.022 -0.3027  0.0283  0.5816
  126MOL0     C16940   3.102   0.540   0.637  0.1422 -0.0105 -0.8941
  126MOL0     C16941   3.186   0.447   0.723  0.1324 -0.9622  1.0533
  126MOL0     C16942   3.242   0.507   0.843  0.1011  0.6299  0.1493
  126MOL0     H16943   3.541  -0.013   0.618  1.4226  1.5953  1.3349
  126MOL0     H16944   3.645  -0.214   0.712  0.0043 -0.7879  0.7518
  126MOL0     H16945   3.530  -0.369   1.125 -1.3896  0.6527  0.9185
  126MOL0     H16946   3.391  -0.417   1.029  0.5488  1.0381  1.2344
  126MOL0     H16947   3.557  -0.592   0.916 -0.5251  3.1166 -1.0008
  126MOL0     H16948   3.475  -0.637   1.064 -0.4590 -0.0409 -1.2932
  126MOL0     H16949   3.664  -0.581   1.209  1.8813 -0.0220  0.4146
  126MOL0     H16950   3.751  -0.506   1.073 -0.6030  0.6273 -1.0190
  126MOL0     H16951   3.655  -0.796   1.088  1.0820  0.0151  0.9249
  126MOL0     H16952   3.754  -0.721   0.960 -0.0805  3.1619 -0.1917
  126MOL0     H16953   3.909  -0.683   1.170 -0.3764 -0.0809  1.1833
  126MOL0     H16954   3.804  -0.797   1.246 -2.0516  0.5110 -0.6659
  126MOL0     H16955   3.845  -0.967   1.066 -0.7670 -0.8785  4.1014
  126MOL0     H16956   3.977  -0.847   1.008 -0.2390 -0.8333 -1.0759
  126MOL0     H16957   3.933  -0.974   1.281  0.9627  1.3264  1.2380
  126MOL0     H16958   4.070  -0.880   1.220 -1.6152  0.9540 -0.3540
  126MOL0     H16959   3.997  -1.143   1.082  1.3464 -0.8433 -0.1871
  126MOL0     H16960   4.122  -1.036   1.039  1.7421  2.1348  1.0227
  126MOL0     H16961   4.031  -1.189   1.380  0.4695  2.6398  2.1723
  126MOL0     H16962   4.357  -1.389   1.490  0.8323  2.0047 -1.5735
  126MOL0     H16963   4.274  -1.267   1.588  1.6961 -0.1646 -0.8536
  126MOL0     H16964   4.059  -1.377   1.545  0.8040  1.3923 -0.3021
  126MOL0     H16965   4.129  -1.477   1.421 -1.3701  2.6655  0.4477
  126MOL0     H16966   4.273  -1.578   1.598 -0.5645 -3.7057  4.3499
  126MOL0     H16967   4.101  -1.602   1.619  2.0584 -3.0753  0.8953
  126MOL0     H16968   4.264  -1.389   1.775 -0.9228  0.4178  3.3991
  126MOL0     H16969   4.238  -1.539   1.844  1.7326  2.3485  1.1217
  126MOL0     H16970   3.863  -1.341   1.908  2.3839  0.1381 -1.2655
  126MOL0     H16971   3.663  -1.473   1.982  1.1429  0.5553  0.9241
  126MOL0     H16972   3.532  -2.128   1.969  1.3110 -0.4768  0.5556
  126MOL0     H16973   3.400  -2.243   2.128 -0.7449  0.6958 -0.6711
  126MOL0     H16974   3.425  -2.102   2.569 -3.2366 -0.9300  1.8912
  126MOL0     H16975   3.340  -2.244   2.583 -0.5764  1.9189  1.4104
  126MOL0     H16976   3.614  -2.236   2.456  1.7817 -1.4078  1.1299
  126MOL0     H16977   3.574  -2.281   2.623 -0.7899  1.8670  0.5451
  126MOL0     H16978   3.489  -2.491   2.570 -1.8468 -1.5436 -2.0189
  126MOL0     H16979   3.432  -2.440   2.413  0.4936 -1.4189 -1.2296
  126MOL0     H16980   3.726  -2.498   2.454 -1.7419  0.6438  1.7602
  126MOL0     H16981   3.660  -2.432   2.306 -0.7787 -0.4373 -1.2245
  126MOL0     H16982   3.640  -2.658   2.235 -4.3097  1.3874 -1.9412
  126MOL0     H16983   3.491  -2.636   2.311  0.7203  0.6850 -4.4998
  126MOL0     H16984   3.745  -2.755   2.443 -0.4854 -1.0070 -1.3128
  126MOL0     H16985   3.590  -2.741   2.523  0.7100 -0.6939 -0.1544
  126MOL0     H16986   3.628  -2.905   2.268 -0.9113  0.8198 -0.9069
  126MOL0     H16987   3.482  -2.871   2.337 -0.5242  0.8742  2.9428
  126MOL0     H16988   3.694  -3.026   2.498  0.0332 -0.3643 -2.6550
  126MOL0     H16989   3.539  -2.966   2.557 -0.7018  3.7869 -0.6131
  126MOL0     H16990   3.503  -1.945   2.424 -1.7741  0.7200 -1.2583
  126MOL0     H16991   3.600  -1.816   2.261 -1.1331  0.8016  1.5265
  126MOL0     H16992   3.882  -1.843   1.890  0.3911 -0.9484  0.8749
  126MOL0     H16993   4.059  -1.706   1.822 -0.8234 -3.9816  1.1017
  126MOL0     H16994   3.352  -0.203   1.031 -2.2638 -2.1741 -1.1771
  126MOL0     H16995   3.240  -0.020   0.923  0.8097 -1.5512  2.5623
  126MOL0     H16996   3.172   0.180   0.509  2.4550  1.1336 -2.6041
  126MOL0     H16997   3.015   0.349   0.392  0.3877  1.4713 -0.5150
  126MOL0     H16998   2.960   0.776   0.513  0.8396  1.1186 -0.4956
  126MOL0     H16999   2.937   0.765   0.340  1.1175  2.8984  0.5528
  126MOL0     H17000   3.201   0.741   0.485  1.2059 -0.5123 -0.1788
  126MOL0     H17001   3.152   0.851   0.355  0.2172 -0.7678 -1.3969
  126MOL0     H17002   3.164   0.546   0.297  0.5229  0.2844 -1.9672
  126MOL0     H17003   3.311   0.641   0.330  0.3878  0.4517 -0.2074
  126MOL0     H17004   3.080   0.733   0.128  1.0646  0.5135 -1.0399
  126MOL0     H17005   3.237   0.804   0.153 -1.6252  0.8694 -0.4336
  126MOL0     H17006   3.297   0.450  -0.101  1.7597 -0.4937  1.3328
  126MOL0     H17007   3.082   0.641   0.672 -4.6257 -0.8539 -0.4706
  126MOL0     H17008   3.232   0.616   0.845  3.2991  1.0242  3.4022
  126MOL0     H17009   3.180   0.461   0.920  0.6163 -2.9286 -1.3628
  126MOL0     H17010   3.351   0.502   0.846  0.3069  1.4457 -2.6765
  127MOL0     O17011   2.700   1.231   1.462  0.0250 -0.8669 -0.3196
  127MOL0     C17012   2.669   1.131   1.402  0.3156  0.4252 -0.6202
  127MOL0     O17013   2.616   1.115   1.276  0.9471 -0.6020 -0.0971
  127MOL0     C17014   2.629   1.224   1.194  0.3841  0.8783  0.0425
  127MOL0     C17015   2.510   1.290   1.188  0.2070 -0.6712  0.1747
  127MOL0     C17016   2.503   1.370   1.069  0.2627  0.3143  0.3852
  127MOL0     C17017   2.608   1.391   0.981  0.2952  0.1390 -0.5959
  127MOL0     O17018   2.583   1.477   0.876 -0.3670 -0.6926  0.5372
  127MOL0     C17019   2.692   1.550   0.826 -0.3453  0.5635 -0.0257
  127MOL0     C17020   2.657   1.676   0.745 -0.9807 -0.3826 -0.1943
  127MOL0     C17021   2.602   1.631   0.609  0.0984 -0.7290  0.3978
  127MOL0     C17022   2.523   1.757   0.553  0.1425 -0.7230  0.4210
  127MOL0     C17023   2.506   1.750   0.399  1.0414  0.1438 -0.9128
  127MOL0     C17024   2.430   1.856   0.326  0.8234  0.0985 -0.6274
  127MOL0     C17025   2.510   1.976   0.312 -0.4192  0.8657 -0.6546
  127MOL0     C17026   2.406   2.080   0.251  0.0765  0.0293  0.4982
  127MOL0     N17027   2.472   2.209   0.249  0.5397 -0.3227  0.1605
  127MOL0     C17028   2.476   2.297   0.134 -0.0522 -0.2816 -0.3226
  127MOL0     C17029   2.542   2.406   0.172  0.0817  0.7308 -0.0988
  127MOL0     C17030   2.579   2.522   0.081 -0.3038  0.5644 -0.1526
  127MOL0     C17031   2.539   2.508  -0.064 -0.0323 -0.3782  0.7989
  127MOL0     C17032   2.629   2.397  -0.129  0.7768  0.4536 -0.1984
  127MOL0     C17033   2.773   2.433  -0.154  0.3165 -1.2942 -0.2699
  127MOL0     O17034   2.856   2.424  -0.037 -0.1438  0.2608  0.1620
  127MOL0     C17035   2.871   2.303   0.027  0.7631  0.9254  0.4821
  127MOL0     C17036   2.880   2.317   0.167  0.7797  0.1728 -0.2249
  127MOL0     C17037   2.886   2.202   0.242  1.0459  0.1460  0.3975
  127MOL0     C17038   2.888   2.078   0.190  0.0757  0.1972 -0.5649
  127MOL0     C17039   2.901   1.964   0.278  0.0179 -0.2689  0.1051
  127MOL0     O17040   2.944   1.987   0.405 -0.2100 -0.8075 -0.2326
  127MOL0     C17041   2.967   1.887   0.494 -0.6269  0.2903 -0.6308
  127MOL0     C17042   2.925   1.751   0.483 -0.4448  0.1389  0.3366
  127MOL0     C17043   2.949   1.658   0.581 -0.2922  0.2239  0.4200
  127MOL0     C17044   3.027   1.689   0.692  0.3563  0.1010 -0.9640
  127MOL0     O17045   3.042   1.610   0.806 -0.5367 -0.1413  0.6467
  127MOL0     C17046   3.062   1.469   0.774 -0.0827  0.8663 -0.0889
  127MOL0     C17047   3.167   1.430   0.658 -0.0612 -0.5651  0.4817
  127MOL0     C17048   3.301   1.442   0.729 -0.4184  0.9459  1.0144
  127MOL0     C17049   3.411   1.408   0.634 -0.4293  0.5002  0.5680
  127MOL0     C17050   3.554   1.466   0.652  0.6447  1.0673  0.2141
  127MOL0     C17051   3.562   1.617   0.615 -0.3452 -0.5666 -0.7532
  127MOL0     C17052   3.707   1.661   0.655  0.9242 -0.0118 -0.6668
  127MOL0     C17053   3.748   1.801   0.607 -0.3035 -0.1647  0.5482
  127MOL0    Cl17054   3.614   1.929   0.587 -0.3693  0.5483  0.1756
  127MOL0     C17055   3.079   1.821   0.700  0.2843  0.6118  0.4893
  127MOL0     C17056   3.054   1.908   0.598 -0.2919 -0.2768  0.7543
  127MOL0     O17057   2.886   1.854   0.224 -0.5762 -0.2187 -0.3394
  127MOL0     C17058   2.870   2.063   0.051 -0.9951 -0.3024 -0.1122
  127MOL0     C17059   2.865   2.178  -0.033 -0.5805 -0.4436 -0.2078
  127MOL0     N17060   2.554   2.392   0.311  0.7014 -0.7451 -0.5079
  127MOL0     N17061   2.526   2.276   0.357 -0.4155 -0.8852  1.5728
  127MOL0     C17062   2.729   1.328   1.006  0.1309  1.0240 -0.3540
  127MOL0     C17063   2.740   1.234   1.106  1.2776 -0.1273 -0.2851
  127MOL0     C17064   2.681   0.995   1.484 -0.5816  0.5627  0.9422
  127MOL0     C17065   2.652   0.877   1.402 -0.6963 -0.3522 -1.1211
  127MOL0     C17066   2.636   0.751   1.467  0.4344 -0.0010  0.0004
  127MOL0     C17067   2.644   0.745   1.610  0.1424  0.0192  0.7259
  127MOL0     O17068   2.609   0.619   1.646 -0.0415  0.4686 -0.0059
  127MOL0     C17069   2.617   0.595   1.786  0.4163 -0.1785  0.7814
  127MOL0     C17070   2.605   0.448   1.825  0.0074 -0.9609 -0.8609
  127MOL0     C17071   2.732   0.369   1.796  0.4100  0.2527  0.5093
  127MOL0     C17072   2.724   0.229   1.857  0.1767 -0.2210 -0.9582
  127MOL0     C17073   2.828   0.153   1.799 -0.4162 -0.4331 -0.1147
  127MOL0     C17074   2.922   0.108   1.741 -0.5116  0.4338  0.2029
  127MOL0     C17075   2.696   0.856   1.684 -0.4072 -0.4887 -0.4266
  127MOL0     C17076   2.711   0.982   1.621  0.7947 -0.1959 -0.2114
  127MOL0     C17077   2.774   1.100   1.703 -0.1707 -0.2671 -0.3529
  127MOL0     H17078   2.424   1.272   1.251 -1.9373 -2.1224 -2.9134
  127MOL0     H17079   2.415   1.424   1.035  0.0366 -0.4543 -0.2947
  127MOL0     H17080   2.763   1.573   0.905 -0.6437  2.8241 -0.3580
  127MOL0     H17081   2.750   1.482   0.763  0.8830 -1.3389  2.9647
  127MOL0     H17082   2.744   1.742   0.739  0.2103 -0.9746  5.3558
  127MOL0     H17083   2.577   1.733   0.792  0.4966  1.8517 -0.2748
  127MOL0     H17084   2.530   1.550   0.620  0.6059 -0.8732  3.8816
  127MOL0     H17085   2.681   1.616   0.534  0.9757  0.8914  0.9532
  127MOL0     H17086   2.427   1.772   0.603  0.1997  2.2996 -0.1855
  127MOL0     H17087   2.586   1.846   0.566 -1.4652  0.5139  0.1651
  127MOL0     H17088   2.609   1.742   0.360  1.5048 -3.8682  0.6428
  127MOL0     H17089   2.453   1.656   0.382 -2.7206  1.4188  2.2918
  127MOL0     H17090   2.398   1.818   0.229 -1.4773  1.9604 -0.6712
  127MOL0     H17091   2.337   1.880   0.378 -0.1618  0.8361 -2.6185
  127MOL0     H17092   2.595   1.961   0.246  0.7598 -0.1523  1.0101
  127MOL0     H17093   2.544   2.001   0.413 -2.4331  1.8338 -0.1408
  127MOL0     H17094   2.367   2.043   0.155 -1.0208 -0.2068  1.0165
  127MOL0     H17095   2.321   2.095   0.319  0.2861  0.9508  0.5666
  127MOL0     H17096   2.456   2.259   0.034 -1.2169 -2.2382  0.6006
  127MOL0     H17097   2.535   2.614   0.121  2.6513  0.8313  3.0123
  127MOL0     H17098   2.686   2.546   0.088 -0.4033  0.9517  0.0906
  127MOL0     H17099   2.432   2.505  -0.086  0.5761 -0.5427 -2.8511
  127MOL0     H17100   2.581   2.594  -0.118 -2.1468 -0.7200 -1.6153
  127MOL0     H17101   2.591   2.389  -0.231  0.9516  2.4333 -0.4576
  127MOL0     H17102   2.615   2.292  -0.100  0.5981  1.1848  2.6278
  127MOL0     H17103   2.788   2.536  -0.190  2.6947 -1.5732 -0.1707
  127MOL0     H17104   2.806   2.366  -0.234  3.3953 -1.2541  0.8578
  127MOL0     H17105   2.896   2.416   0.210 -0.6164  1.3955 -2.3525
  127MOL0     H17106   2.903   2.217   0.348  2.1143 -0.3758  0.3095
  127MOL0     H17107   2.858   1.725   0.402 -0.2036  0.3595  0.0681
  127MOL0     H17108   2.893   1.565   0.579 -1.3356  0.8030  1.4277
  127MOL0     H17109   3.098   1.410   0.859  2.1792  0.6364 -1.1200
  127MOL0     H17110   2.967   1.420   0.753 -0.0104  0.2106  1.0138
  127MOL0     H17111   3.145   1.325   0.634  1.0748 -1.2892  2.3747
  127MOL0     H17112   3.157   1.498   0.573  1.1768 -1.1091 -0.1314
  127MOL0     H17113   3.312   1.545   0.764  1.1259  2.8482 -4.1485
  127MOL0     H17114   3.295   1.373   0.814  0.4008 -2.0723 -1.2052
  127MOL0     H17115   3.388   1.438   0.531 -0.5114 -1.4164 -0.0157
  127MOL0     H17116   3.418   1.300   0.622 -1.0275  0.2039  2.5502
  127MOL0     H17117   3.611   1.416   0.573 -0.3334  2.8038 -1.6878
  127MOL0     H17118   3.607   1.441   0.745  2.1081  0.5993 -0.7155
  127MOL0     H17119   3.541   1.618   0.508 -3.7520 -1.4578 -0.2297
  127MOL0     H17120   3.489   1.670   0.677  2.3276 -0.5090  2.6620
  127MOL0     H17121   3.777   1.589   0.611 -1.2959 -1.2909 -2.3095
  127MOL0     H17122   3.712   1.647   0.763  0.6834  1.4189 -0.4564
  127MOL0     H17123   3.835   1.837   0.664  0.0512  0.0866 -0.1343
  127MOL0     H17124   3.794   1.788   0.508 -0.1971 -1.7162  0.7820
  127MOL0     H17125   3.146   1.848   0.781  1.7312 -0.1277 -0.4205
  127MOL0     H17126   3.096   2.008   0.599  1.5066 -0.7549 -3.7707
  127MOL0     H17127   2.862   1.960   0.018  0.3634 -0.7164  0.8148
  127MOL0     H17128   2.865   2.159  -0.140 -1.0661 -1.8815  0.0171
  127MOL0     H17129   2.808   1.327   0.931  1.4878 -0.1845  1.0501
  127MOL0     H17130   2.822   1.167   1.125 -0.0665 -2.3576 -1.8974
  127MOL0     H17131   2.646   0.883   1.293 -1.9994  1.3526 -1.0046
  127MOL0     H17132   2.613   0.661   1.411  1.4110  0.9803 -2.1179
  127MOL0     H17133   2.523   0.626   1.833 -1.6741 -2.7926 -1.3529
  127MOL0     H17134   2.706   0.646   1.825  0.6692 -0.5676  0.7295
  127MOL0     H17135   2.515   0.399   1.786 -2.5720  0.9146  2.2198
  127MOL0     H17136   2.580   0.452   1.931  0.5577 -0.7027 -0.7378
  127MOL0     H17137   2.825   0.408   1.839 -0.0948 -0.3495  2.2169
  127MOL0     H17138   2.740   0.364   1.687  3.8472  2.5846  0.4876
  127MOL0     H17139   2.743   0.238   1.964  1.3609  1.1325 -1.2563
  127MOL0     H17140   2.629   0.178   1.835 -0.3948  0.7036 -0.7121
  127MOL0     H17141   3.005   0.071   1.684 -0.5290 -0.3184  0.6478
  127MOL0     H17142   2.710   0.860   1.792  2.0346 -0.0348 -0.6984
  127MOL0     H17143   2.698   1.178   1.722  2.0553  1.8707  0.3083
  127MOL0     H17144   2.819   1.055   1.791  0.9203 -1.3792 -1.4418
  127MOL0     H17145   2.860   1.151   1.659 -2.2342  2.5746 -1.4369
  128MOL0     O17146   8.476  11.240   5.129  1.0355 -1.0135  0.6758
  128MOL0     C17147   8.356  11.217   5.114  0.3697  0.0155 -0.6647
  128MOL0     O17148   8.261  11.265   5.200  0.0211 -0.6720 -0.3282
  128MOL0     C17149   8.293  11.323   5.320 -0.6727 -0.4613  0.0090
  128MOL0     C17150   8.236  11.260   5.432  0.5066 -0.8182  0.2431
  128MOL0     C17151   8.266  11.318   5.554  0.4047 -0.5138 -1.2279
  128MOL0     C17152   8.338  11.439   5.580 -0.4857  0.6524  0.1147
  128MOL0     O17153   8.366  11.481   5.705  0.2049  0.7269  0.5637
  128MOL0     C17154   8.489  11.556   5.735  0.0725 -0.4736  0.0719
  128MOL0     C17155   8.536  11.552   5.883  0.0522 -0.0986 -0.2695
  128MOL0     C17156   8.426  11.606   5.979 -0.1723  0.9596 -0.5200
  128MOL0     C17157   8.451  11.557   6.123  0.2083 -0.2041 -0.3443
  128MOL0     C17158   8.364  11.618   6.240  0.2840  0.2872  0.1171
  128MOL0     C17159   8.348  11.772   6.253 -0.3893 -0.4510 -0.4822
  128MOL0     C17160   8.217  11.804   6.327 -0.0430 -0.0687 -0.7114
  128MOL0     C17161   8.178  11.962   6.328 -0.0226  0.2316 -0.1008
  128MOL0     N17162   8.229  12.033   6.448 -0.0218 -0.1307  0.1450
  128MOL0     C17163   8.351  12.096   6.451 -0.0096  0.4307 -1.1703
  128MOL0     C17164   8.373  12.121   6.580  0.4778 -0.2455  0.7778
  128MOL0     C17165   8.486  12.181   6.638 -0.7609 -0.0973 -0.0553
  128MOL0     C17166   8.593  12.078   6.659 -0.6070  0.2789 -0.0769
  128MOL0     C17167   8.709  12.146   6.726 -0.4661  0.6151 -1.1806
  128MOL0     C17168   8.802  12.034   6.788 -0.1962 -0.2793 -1.0179
  128MOL0     O17169   8.891  11.987   6.688  0.3561  0.5767 -0.3593
  128MOL0     C17170   8.961  11.874   6.711 -0.6841  0.4518  0.1610
  128MOL0     C17171   8.926  11.758   6.780 -0.6182 -0.2889  0.0964
  128MOL0     C17172   9.010  11.641   6.777 -0.4305  0.0079 -0.2231
  128MOL0     C17173   9.138  11.637   6.720 -0.3906 -1.0150 -0.6860
  128MOL0     C17174   9.236  11.526   6.738 -0.2045 -0.5229  0.2966
  128MOL0     O17175   9.180  11.412   6.778  0.4911  0.3256 -0.4653
  128MOL0     C17176   9.259  11.295   6.795 -0.0682 -0.5472 -0.4930
  128MOL0     C17177   9.381  11.295   6.856 -0.5162 -0.1754 -0.6988
  128MOL0     C17178   9.450  11.168   6.850  0.2192 -0.4719 -0.1038
  128MOL0     C17179   9.402  11.050   6.792  0.2378  0.2282 -0.0930
  128MOL0     O17180   9.470  10.940   6.814  0.2067 -0.0177  0.3643
  128MOL0     C17181   9.455  10.829   6.734 -0.2575  0.0614  0.4545
  128MOL0     C17182   9.519  10.722   6.806 -0.0876 -1.2218 -0.0463
  128MOL0     C17183   9.530  10.592   6.731  0.7535  0.5872  0.7729
  128MOL0     C17184   9.556  10.472   6.819  0.4666  0.3238  0.2529
  128MOL0     C17185   9.679  10.502   6.911  0.3314 -0.6952 -0.1292
  128MOL0     C17186   9.764  10.381   6.928 -1.0409 -0.1337 -0.0206
  128MOL0     C17187   9.851  10.328   6.806  1.0424  0.6745  0.1365
  128MOL0     C17188   9.897  10.179   6.827 -0.2141  0.1780  0.3010
  128MOL0    Cl17189   9.758  10.064   6.806 -0.7399 -0.0950 -0.0818
  128MOL0     C17190   9.282  11.061   6.726  0.2722 -0.0403 -0.0744
  128MOL0     C17191   9.211  11.184   6.731  0.2557 -0.3041  1.1312
  128MOL0     O17192   9.351  11.545   6.701 -0.2409  0.1357  0.3591
  128MOL0     C17193   9.174  11.757   6.653 -0.3611 -0.1015  0.3664
  128MOL0     C17194   9.094  11.875   6.652 -0.3364 -0.4456  0.3882
  128MOL0     N17195   8.254  12.097   6.652 -0.5240  0.2416  0.5906
  128MOL0     N17196   8.166  12.048   6.571 -0.9922  0.1350  0.1789
  128MOL0     C17197   8.392  11.495   5.468 -0.2057 -0.0201  0.8023
  128MOL0     C17198   8.371  11.441   5.340 -0.4440 -0.6205  1.0906
  128MOL0     C17199   8.298  11.133   5.003  0.1350 -0.5426 -0.1075
  128MOL0     C17200   8.162  11.088   5.009  0.1321  0.0146 -0.1901
  128MOL0     C17201   8.110  11.009   4.905 -0.0672  0.2817 -0.3184
  128MOL0     C17202   8.174  10.983   4.792 -0.5552  0.6451  0.0445
  128MOL0     O17203   8.124  10.893   4.708  0.8851  0.0734  0.8052
  128MOL0     C17204   8.060  10.943   4.586 -0.8240  0.3422  0.0580
  128MOL0     C17205   8.101  10.853   4.455 -0.3669 -0.4126 -0.3360
  128MOL0     C17206   8.254  10.858   4.422  0.3020 -0.3080 -0.3092
  128MOL0     C17207   8.265  10.796   4.280 -0.2056 -0.7087  0.7227
  128MOL0     C17208   8.393  10.814   4.221 -0.2032 -0.2447  0.6969
  128MOL0     C17209   8.505  10.822   4.171  0.0977  0.9384  0.0642
  128MOL0     C17210   8.306  11.028   4.781 -0.1211 -0.2085  0.7577
  128MOL0     C17211   8.362  11.112   4.878  0.0340 -0.4196 -0.0730
  128MOL0     C17212   8.500  11.156   4.843  0.9485 -0.1349 -0.1340
  128MOL0     H17213   8.181  11.166   5.426 -2.8176  1.0033 -0.4512
  128MOL0     H17214   8.236  11.280   5.651  0.3431  2.2126 -0.0761
  128MOL0     H17215   8.570  11.528   5.667 -0.9222 -0.9671 -0.9281
  128MOL0     H17216   8.474  11.660   5.705  2.0084 -0.3580 -0.6168
  128MOL0     H17217   8.630  11.606   5.896 -0.6020  1.5622 -1.9474
  128MOL0     H17218   8.547  11.449   5.919 -0.5554 -0.3577 -0.7998
  128MOL0     H17219   8.324  11.575   5.954 -0.8421  1.1290  1.7781
  128MOL0     H17220   8.433  11.715   5.973  2.5288  0.9914  1.3188
  128MOL0     H17221   8.428  11.450   6.122 -1.7934  0.0602  2.7870
  128MOL0     H17222   8.556  11.581   6.145 -0.3862  3.5516 -0.9599
  128MOL0     H17223   8.261  11.582   6.230 -0.9513  3.1922  1.4739
  128MOL0     H17224   8.399  11.576   6.335  2.3073  0.2187 -0.6006
  128MOL0     H17225   8.429  11.821   6.308 -0.9102  1.3749 -1.2805
  128MOL0     H17226   8.345  11.802   6.148  0.1373 -0.6654 -0.5607
  128MOL0     H17227   8.213  11.767   6.429 -1.2912  3.3911  0.6588
  128MOL0     H17228   8.140  11.753   6.269 -2.3336  1.6780  0.6317
  128MOL0     H17229   8.212  12.023   6.244 -2.3707  0.9187 -0.6036
  128MOL0     H17230   8.069  11.961   6.324 -0.0450 -2.7112 -1.6579
  128MOL0     H17231   8.414  12.107   6.364  1.0385  0.8922 -0.3683
  128MOL0     H17232   8.524  12.263   6.575 -1.1029 -0.2600 -0.4736
  128MOL0     H17233   8.464  12.225   6.736 -1.5961 -1.4440  0.3823
  128MOL0     H17234   8.565  11.988   6.714  0.7727  0.5199  1.0841
  128MOL0     H17235   8.630  12.047   6.561  0.4440  1.1856  0.0098
  128MOL0     H17236   8.690  12.212   6.811  3.1730  0.0862  0.2180
  128MOL0     H17237   8.770  12.207   6.659  1.7380  0.8300  0.8835
  128MOL0     H17238   8.739  11.951   6.823 -2.1755  1.1142 -1.0670
  128MOL0     H17239   8.852  12.071   6.877 -2.3674  2.6405 -0.8714
  128MOL0     H17240   8.832  11.764   6.834 -1.4982  1.8524 -1.5256
  128MOL0     H17241   8.989  11.562   6.848  0.3593  0.5315  0.6188
  128MOL0     H17242   9.416  11.377   6.918  1.2121 -1.4820  0.1554
  128MOL0     H17243   9.537  11.165   6.914  0.8826  4.7944 -0.3360
  128MOL0     H17244   9.349  10.815   6.710 -0.3647 -0.5181  1.2218
  128MOL0     H17245   9.517  10.846   6.646 -2.0033 -3.6209 -1.7329
  128MOL0     H17246   9.619  10.741   6.847 -0.1456 -0.6968 -0.1371
  128MOL0     H17247   9.450  10.701   6.888 -1.3507 -4.2952 -1.7236
  128MOL0     H17248   9.433  10.581   6.683  1.1435  4.1846 -1.2147
  128MOL0     H17249   9.600  10.607   6.648  1.9650  0.8715  1.8240
  128MOL0     H17250   9.585  10.388   6.755  4.6921  1.4686  0.3462
  128MOL0     H17251   9.465  10.449   6.875 -1.4198  2.6872 -1.5841
  128MOL0     H17252   9.640  10.530   7.009  0.4782 -0.0471 -0.2531
  128MOL0     H17253   9.743  10.586   6.883  0.5752 -0.6881  0.4446
  128MOL0     H17254   9.838  10.388   7.008 -1.6702 -2.9214  0.9287
  128MOL0     H17255   9.687  10.307   6.952 -1.8060  0.6814  0.0949
  128MOL0     H17256   9.933  10.398   6.795 -0.7450  2.7730 -0.4794
  128MOL0     H17257   9.794  10.343   6.715  0.2421  0.9885  0.6770
  128MOL0     H17258   9.979  10.161   6.758 -0.3308  0.7392  0.0078
  128MOL0     H17259   9.939  10.167   6.928  1.3848  1.5086 -0.1567
  128MOL0     H17260   9.230  10.984   6.669 -1.3631  1.0710 -0.1250
  128MOL0     H17261   9.113  11.189   6.686  0.3547  3.4227  0.9973
  128MOL0     H17262   9.260  11.769   6.586 -2.6400 -2.9420 -3.4894
  128MOL0     H17263   9.117  11.964   6.594 -2.5139  1.3993  2.1634
  128MOL0     H17264   8.452  11.585   5.469 -0.6977  0.5128 -3.0509
  128MOL0     H17265   8.399  11.501   5.254 -0.7328 -0.8229  0.8540
  128MOL0     H17266   8.101  11.111   5.095 -0.9801 -2.0986 -0.3368
  128MOL0     H17267   8.010  10.966   4.902  0.0686 -0.1131  0.7815
  128MOL0     H17268   8.089  11.045   4.557 -1.8910  0.5271 -0.4247
  128MOL0     H17269   7.952  10.940   4.604 -0.6220  2.5052  2.2249
  128MOL0     H17270   8.045  10.895   4.370  0.3839 -0.4912 -0.8744
  128MOL0     H17271   8.073  10.750   4.478 -1.7039  0.1499  0.6762
  128MOL0     H17272   8.307  10.799   4.497 -0.8225  0.6727  1.3126
  128MOL0     H17273   8.286  10.962   4.428  2.3836 -0.7850 -1.8528
  128MOL0     H17274   8.233  10.692   4.290  1.8221 -1.2550  2.1430
  128MOL0     H17275   8.202  10.858   4.215  3.0866  1.3600 -0.7330
  128MOL0     H17276   8.594  10.834   4.112  0.8448  0.8012  1.1354
  128MOL0     H17277   8.365  11.004   4.694 -3.5748  1.7103 -2.3631
  128MOL0     H17278   8.518  11.246   4.902  0.9321 -0.1509 -0.1061
  128MOL0     H17279   8.574  11.077   4.860  2.5845  0.9443 -1.7422
  128MOL0     H17280   8.508  11.192   4.739  0.6840 -1.1518 -0.5123
  129MOL0     O17281   0.311   6.603   8.801 -0.9791  0.0028 -0.6563
  129MOL0     C17282   0.361   6.625   8.912  0.3159  0.1446 -0.5920
  129MOL0     O17283   0.292   6.602   9.024  0.0310 -0.2727 -0.0808
  129MOL0     C17284   0.162   6.558   9.034 -1.3753  1.0032  0.2081
  129MOL0     C17285   0.116   6.534   9.164  0.2644 -0.1888 -0.7256
  129MOL0     C17286  -0.011   6.481   9.198  0.2367 -0.2601 -0.3920
  129MOL0     C17287  -0.109   6.471   9.095  0.6027  0.0889  0.1367
  129MOL0     O17288  -0.236   6.432   9.128  0.2061  0.6282  0.4287
  129MOL0     C17289  -0.320   6.360   9.035  0.5955 -0.3123  0.3230
  129MOL0     C17290  -0.396   6.251   9.098  0.4602  0.4248 -0.3655
  129MOL0     C17291  -0.307   6.118   9.124 -0.1421 -0.7526 -0.1037
  129MOL0     C17292  -0.179   6.138   9.202  0.1982  0.3505  0.0634
  129MOL0     C17293  -0.108   6.009   9.208 -0.3840  0.3414  0.5649
  129MOL0     C17294   0.020   6.028   9.295 -0.4951 -0.1302 -0.4951
  129MOL0     C17295   0.093   5.899   9.329  0.6023  0.2586 -0.9127
  129MOL0     C17296   0.172   5.854   9.205 -0.5541 -0.6655  0.4798
  129MOL0     N17297   0.259   5.736   9.239  1.0822 -0.1871  0.4924
  129MOL0     C17298   0.296   5.635   9.155  0.0378  0.9379  0.3215
  129MOL0     C17299   0.372   5.546   9.229 -0.5739 -0.2165 -1.0173
  129MOL0     C17300   0.436   5.414   9.187 -0.1647  0.3744 -0.5054
  129MOL0     C17301   0.340   5.300   9.132 -0.5644 -0.5646  0.7620
  129MOL0     C17302   0.225   5.256   9.220 -0.3591 -0.3366 -0.4578
  129MOL0     C17303   0.265   5.197   9.361  0.3142  0.1835 -0.0271
  129MOL0     O17304   0.331   5.067   9.330  0.0751  0.8947 -0.2702
  129MOL0     C17305   0.361   4.980   9.428 -0.3606  0.6408 -0.0755
  129MOL0     C17306   0.417   4.860   9.398 -0.0801  0.0614  0.1619
  129MOL0     C17307   0.417   4.753   9.499  0.4853 -0.6600  0.8887
  129MOL0     C17308   0.391   4.780   9.631  0.3393 -0.0876 -0.6009
  129MOL0     C17309   0.365   4.664   9.733  0.5829  0.0025  0.0053
  129MOL0     O17310   0.307   4.681   9.853  1.5968 -1.2008 -0.4795
  129MOL0     C17311   0.218   4.597   9.901 -0.0150  0.7401 -0.1987
  129MOL0     C17312   0.210   4.577  10.037 -0.0937 -0.6938 -0.1754
  129MOL0     C17313   0.129   4.487  10.104  0.7030 -0.0479 -0.0938
  129MOL0     C17314   0.029   4.421  10.037 -0.6612  0.7946  0.3044
  129MOL0     O17315  -0.063   4.358  10.113  1.0478 -0.4835 -0.5456
  129MOL0     C17316  -0.097   4.226  10.067  0.1964 -0.7118 -0.0376
  129MOL0     C17317  -0.142   4.130  10.182 -0.5113  0.1124  0.0983
  129MOL0     C17318  -0.291   4.138  10.218  0.3679 -0.3765  0.8420
  129MOL0     C17319  -0.325   4.164  10.364  0.0300  0.5269 -0.3752
  129MOL0     C17320  -0.302   4.038  10.440 -0.2975  0.5216  0.2208
  129MOL0     C17321  -0.403   3.924  10.415 -1.1636 -0.2631 -0.0154
  129MOL0     C17322  -0.361   3.797  10.490 -0.2837  0.2246  0.7256
  129MOL0     C17323  -0.451   3.681  10.452 -0.5830 -0.3677  0.5094
  129MOL0    Cl17324  -0.370   3.550  10.506 -0.1802 -0.2157 -0.4595
  129MOL0     C17325   0.038   4.429   9.897  0.4635  0.1975  0.2119
  129MOL0     C17326   0.129   4.514   9.835 -1.4231  0.1644  0.1294
  129MOL0     O17327   0.404   4.554   9.687 -0.3565 -0.0868 -0.1979
  129MOL0     C17328   0.352   4.911   9.663  0.2774 -0.3913  0.1795
  129MOL0     C17329   0.338   5.007   9.570 -0.4481  0.6392  1.2463
  129MOL0     N17330   0.374   5.595   9.359  0.2576  0.6031  0.5557
  129MOL0     N17331   0.323   5.712   9.364 -0.3319 -0.0489  0.5534
  129MOL0     C17332  -0.071   6.513   8.961  0.0944 -1.1710 -0.3410
  129MOL0     C17333   0.062   6.545   8.931 -1.0286 -0.1317  0.7653
  129MOL0     C17334   0.501   6.676   8.928  0.3285 -0.6966  0.2543
  129MOL0     C17335   0.567   6.648   9.052  1.0758 -0.4064  0.3325
  129MOL0     C17336   0.696   6.690   9.072  0.7719  0.0701 -0.1512
  129MOL0     C17337   0.757   6.765   8.967  0.3365  0.3436 -0.0907
  129MOL0     O17338   0.890   6.797   8.989  0.8284 -0.4930  0.5850
  129MOL0     C17339   0.976   6.684   8.968  0.5360 -0.0860 -0.8341
  129MOL0     C17340   0.986   6.627   8.824 -0.6937  0.0642 -0.2133
  129MOL0     C17341   1.082   6.717   8.728 -0.6072 -0.7128 -0.5284
  129MOL0     C17342   1.223   6.723   8.784 -0.6478  0.6141 -0.4574
  129MOL0     C17343   1.277   6.582   8.781 -0.4220  0.5268  0.2761
  129MOL0     C17344   1.320   6.466   8.790  0.3614 -0.0076 -1.3715
  129MOL0     C17345   0.700   6.798   8.844 -0.5881 -0.3695 -0.0131
  129MOL0     C17346   0.566   6.754   8.823 -0.0526  0.2323 -0.0786
  129MOL0     C17347   0.506   6.804   8.696  0.6066  0.6189  0.5129
  129MOL0     H17348   0.189   6.548   9.243  1.7187 -2.2705 -1.5973
  129MOL0     H17349  -0.047   6.449   9.296 -0.1862 -1.5092 -0.9289
  129MOL0     H17350  -0.395   6.419   8.981  0.1025 -2.4594 -1.4898
  129MOL0     H17351  -0.258   6.313   8.958  0.3810  3.0968 -2.2043
  129MOL0     H17352  -0.485   6.221   9.042 -1.6788 -2.1279  3.9320
  129MOL0     H17353  -0.442   6.288   9.189  0.9620 -1.2655  0.6251
  129MOL0     H17354  -0.279   6.079   9.025  1.2318  2.2677 -1.0432
  129MOL0     H17355  -0.365   6.042   9.176 -2.8418  0.2542 -1.4543
  129MOL0     H17356  -0.119   6.210   9.146  3.5279 -1.8109  0.5435
  129MOL0     H17357  -0.206   6.164   9.305  2.2361 -1.3451  1.1195
  129MOL0     H17358  -0.169   5.929   9.252 -0.4451 -0.9338 -1.6763
  129MOL0     H17359  -0.091   5.991   9.101 -0.9820 -1.6026  0.7522
  129MOL0     H17360   0.078   6.114   9.258  1.5160 -1.3941 -0.3989
  129MOL0     H17361  -0.006   6.068   9.393  0.7729 -1.0589  0.2514
  129MOL0     H17362   0.027   5.818   9.362  0.3113  0.7792 -0.1973
  129MOL0     H17363   0.171   5.916   9.405  1.7883  1.1228 -2.2691
  129MOL0     H17364   0.100   5.819   9.131 -0.5849 -2.2290  1.2108
  129MOL0     H17365   0.238   5.930   9.163 -2.0394  1.7284  2.1690
  129MOL0     H17366   0.267   5.605   9.055  1.6702 -2.1459  0.6682
  129MOL0     H17367   0.525   5.429   9.124  0.6568 -3.4993 -0.5185
  129MOL0     H17368   0.480   5.376   9.280  0.3856 -0.9959 -1.2980
  129MOL0     H17369   0.312   5.337   9.033 -0.0810  0.5393  1.0228
  129MOL0     H17370   0.408   5.217   9.110  0.8846  0.4251  1.2999
  129MOL0     H17371   0.153   5.191   9.168 -1.8974  1.3342 -0.5091
  129MOL0     H17372   0.166   5.346   9.240 -0.1807 -0.9385  3.5201
  129MOL0     H17373   0.170   5.192   9.416  1.3624  1.9264  2.0498
  129MOL0     H17374   0.335   5.258   9.418  1.4304  0.7206 -1.8993
  129MOL0     H17375   0.444   4.834   9.296  0.7041  1.6071 -0.0459
  129MOL0     H17376   0.439   4.653   9.461 -1.4901 -0.9450  0.3573
  129MOL0     H17377   0.277   4.633  10.101 -0.6136  1.6290 -1.5535
  129MOL0     H17378   0.118   4.482  10.212 -1.7096  0.1519 -0.2642
  129MOL0     H17379  -0.172   4.238   9.988 -0.8094 -0.5714  0.9161
  129MOL0     H17380  -0.012   4.183  10.014  0.6019  1.9821 -1.7882
  129MOL0     H17381  -0.116   4.024  10.173  1.9772  0.7523 -1.2012
  129MOL0     H17382  -0.083   4.176  10.262 -1.4264  0.9021  0.3462
  129MOL0     H17383  -0.328   4.224  10.161  4.0199 -0.0306 -1.3361
  129MOL0     H17384  -0.334   4.042  10.188  2.3622 -0.5608 -1.8679
  129MOL0     H17385  -0.431   4.192  10.370  0.0286  0.5372 -0.4539
  129MOL0     H17386  -0.270   4.247  10.410 -2.0249  0.2438  2.9504
  129MOL0     H17387  -0.305   4.074  10.544  0.3166 -2.4261  1.3457
  129MOL0     H17388  -0.203   3.996  10.423  0.3042  2.6374 -2.0300
  129MOL0     H17389  -0.503   3.953  10.450 -1.5205 -0.2185 -1.0262
  129MOL0     H17390  -0.409   3.903  10.308  0.3250  0.7266 -0.3095
  129MOL0     H17391  -0.362   3.804  10.599 -0.3755 -2.1036  0.9337
  129MOL0     H17392  -0.262   3.767  10.455  1.3469  1.3369  3.9687
  129MOL0     H17393  -0.549   3.695  10.498  0.5986 -4.7744  5.2200
  129MOL0     H17394  -0.455   3.692  10.343  1.1238  0.6686  0.5234
  129MOL0     H17395  -0.036   4.374   9.840  1.4687 -2.6034  1.4235
  129MOL0     H17396   0.120   4.511   9.727  2.4985  1.4505 -0.3833
  129MOL0     H17397   0.317   4.944   9.760 -0.7154  1.3890 -0.7267
  129MOL0     H17398   0.318   5.107   9.606  0.0916  2.2509 -2.4520
  129MOL0     H17399  -0.138   6.530   8.877 -1.6517  3.2105  1.6282
  129MOL0     H17400   0.081   6.589   8.834 -0.5913 -2.5473 -0.2913
  129MOL0     H17401   0.518   6.588   9.128  0.8674 -0.7757 -0.0925
  129MOL0     H17402   0.745   6.660   9.164  1.7335 -1.4759 -1.1385
  129MOL0     H17403   0.935   6.600   9.024  0.7861  1.4277  1.8235
  129MOL0     H17404   1.074   6.698   9.013  0.3518 -0.1910 -0.3927
  129MOL0     H17405   0.892   6.628   8.768 -0.4926 -1.5682 -0.6343
  129MOL0     H17406   1.020   6.523   8.821 -1.5708 -0.2237 -2.3473
  129MOL0     H17407   1.045   6.820   8.729  1.7421  0.1771  0.2686
  129MOL0     H17408   1.084   6.676   8.627  0.3325 -0.3868 -0.6518
  129MOL0     H17409   1.266   6.789   8.708 -3.3911  2.5960 -0.4297
  129MOL0     H17410   1.235   6.763   8.885  1.9334  1.7119 -1.1194
  129MOL0     H17411   1.340   6.361   8.788 -0.4750 -0.1672 -2.3298
  129MOL0     H17412   0.761   6.847   8.769 -1.3126 -1.0593 -1.0813
  129MOL0     H17413   0.410   6.857   8.701  0.3539  0.1638  0.5925
  129MOL0     H17414   0.577   6.865   8.640 -0.5797 -1.4549 -3.7403
  129MOL0     H17415   0.476   6.710   8.649 -1.0082 -0.5262  3.5711
  130MOL0     O17416   2.813   5.351   9.267 -0.4496  0.2352 -0.4787
  130MOL0     C17417   2.757   5.275   9.356 -0.3745  0.3159 -0.0625
  130MOL0     O17418   2.808   5.169   9.415  0.1142  0.1760  0.2541
  130MOL0     C17419   2.937   5.128   9.379  0.5957  0.5762  0.7235
  130MOL0     C17420   3.006   5.131   9.258  0.2913  0.7225 -0.8422
  130MOL0     C17421   3.142   5.084   9.253 -0.1632 -1.0174  0.3746
  130MOL0     C17422   3.210   5.037   9.354  0.0998 -0.4383 -0.9918
  130MOL0     O17423   3.346   5.018   9.342  0.4673 -0.1817 -0.0374
  130MOL0     C17424   3.366   4.886   9.288 -0.1401  0.1962 -0.1029
  130MOL0     C17425   3.469   4.880   9.181  0.2172  0.2296  0.1416
  130MOL0     C17426   3.603   4.933   9.229  0.1517  0.0227  0.6511
  130MOL0     C17427   3.716   4.925   9.126  0.1717  0.1269 -0.0857
  130MOL0     C17428   3.851   4.908   9.194 -0.5612 -0.1809 -1.1590
  130MOL0     C17429   3.873   4.758   9.224 -0.3361  1.1331  0.1771
  130MOL0     C17430   3.992   4.745   9.329  0.3930  1.1223  0.6903
  130MOL0     C17431   3.997   4.609   9.396  0.6118 -0.2161 -0.3629
  130MOL0     N17432   4.115   4.614   9.480 -0.2804 -0.5412  0.6243
  130MOL0     C17433   4.149   4.671   9.598  0.3855  0.0119  0.1303
  130MOL0     C17434   4.281   4.656   9.614  0.0830 -0.0396  0.3166
  130MOL0     C17435   4.346   4.714   9.736 -0.0285  0.3248 -1.0076
  130MOL0     C17436   4.472   4.794   9.688 -0.2949  0.3914 -0.2440
  130MOL0     C17437   4.430   4.933   9.637  0.0413  0.0680 -0.5383
  130MOL0     C17438   4.393   5.036   9.754 -0.0804  0.2938  0.0541
  130MOL0     O17439   4.464   5.045   9.875  0.4678 -0.0497 -0.2320
  130MOL0     C17440   4.598   5.075   9.878 -0.2688 -0.6862  0.3892
  130MOL0     C17441   4.676   5.120   9.769  0.1063 -0.0725 -0.0951
  130MOL0     C17442   4.816   5.144   9.787 -0.1041  0.9215  0.0632
  130MOL0     C17443   4.872   5.079   9.898 -0.6848 -0.1812 -0.6241
  130MOL0     C17444   5.018   5.073   9.903  0.3470 -0.9407 -0.2063
  130MOL0     O17445   5.071   5.006  10.013  0.0481  0.3212 -0.5590
  130MOL0     C17446   5.208   5.015  10.037  0.4507 -0.6762  0.8417
  130MOL0     C17447   5.260   5.093  10.144  0.7821  0.1823 -0.2344
  130MOL0     C17448   5.399   5.113  10.149 -0.2217 -0.0548  0.4820
  130MOL0     C17449   5.486   5.088  10.041  0.8316  0.0710  1.0440
  130MOL0     O17450   5.622   5.123  10.031  0.7258 -0.0087  0.9307
  130MOL0     C17451   5.660   5.254   9.973 -0.4851  0.8659  0.1796
  130MOL0     C17452   5.706   5.347  10.077 -0.2271 -0.6018 -0.9818
  130MOL0     C17453   5.752   5.487  10.030 -0.4767  0.3338  0.0276
  130MOL0     C17454   5.825   5.570  10.140 -0.7001  0.4120  0.1311
  130MOL0     C17455   5.852   5.717  10.099 -0.3705 -0.8745 -0.9456
  130MOL0     C17456   5.736   5.813  10.126 -0.5120 -0.4819  0.3658
  130MOL0     C17457   5.755   5.948  10.052 -0.9184  0.5676  0.2782
  130MOL0     C17458   5.648   6.031  10.105 -0.0531  0.2012  0.2816
  130MOL0    Cl17459   5.670   6.207  10.060  0.0264  0.1293 -0.0823
  130MOL0     C17460   5.424   5.015   9.933 -0.0307 -0.0327  0.1401
  130MOL0     C17461   5.290   4.973   9.935 -0.0476 -1.3173  0.7834
  130MOL0     O17462   5.083   5.135   9.814  0.1746  0.9042 -0.1343
  130MOL0     C17463   4.799   5.023   9.999  0.7032  1.1140  0.4227
  130MOL0     C17464   4.663   5.025   9.992  0.2574  0.0413 -0.6140
  130MOL0     N17465   4.322   4.554   9.526  0.5500 -0.1698 -0.3550
  130MOL0     N17466   4.225   4.533   9.442 -0.1500  0.3577 -0.2733
  130MOL0     C17467   3.141   5.034   9.484 -0.5137 -0.1641 -0.0061
  130MOL0     C17468   3.008   5.076   9.486  0.2344 -0.3829  0.6063
  130MOL0     C17469   2.621   5.317   9.389  0.6357 -0.1198  1.0353
  130MOL0     C17470   2.574   5.308   9.523 -0.2571 -0.5305 -0.9609
  130MOL0     C17471   2.443   5.341   9.555  0.3309  0.2059 -0.7284
  130MOL0     C17472   2.348   5.373   9.453 -0.5758 -0.1414 -0.8959
  130MOL0     O17473   2.222   5.405   9.492  0.3756 -0.0726  0.0968
  130MOL0     C17474   2.124   5.321   9.422 -0.8007  0.4128 -0.6037
  130MOL0     C17475   1.985   5.374   9.448  0.3530 -0.1968 -0.0273
  130MOL0     C17476   1.956   5.519   9.406  0.0407 -1.6591  1.2257
  130MOL0     C17477   1.835   5.566   9.492 -0.6698  0.1042 -0.1495
  130MOL0     C17478   1.769   5.687   9.441 -0.5168  0.3673  0.8145
  130MOL0     C17479   1.710   5.779   9.389  0.7508 -0.0095 -0.3854
  130MOL0     C17480   2.399   5.392   9.329 -0.3839  0.3831 -0.1000
  130MOL0     C17481   2.532   5.358   9.284  1.4330  0.8989  0.1916
  130MOL0     C17482   2.560   5.388   9.139 -0.1549 -0.9368 -1.1129
  130MOL0     H17483   2.974   5.187   9.170  0.8853  2.0355 -0.2554
  130MOL0     H17484   3.187   5.114   9.158  0.4909  1.6784  1.4463
  130MOL0     H17485   3.397   4.813   9.363  0.9185  2.3058  1.6132
  130MOL0     H17486   3.275   4.856   9.236  0.4003 -0.9598 -0.4173
  130MOL0     H17487   3.429   4.947   9.104  1.5316 -0.0921 -0.8528
  130MOL0     H17488   3.472   4.771   9.173  1.3009  0.3014 -0.6375
  130MOL0     H17489   3.628   4.867   9.313 -3.8622 -3.1439 -0.3549
  130MOL0     H17490   3.584   5.038   9.256  1.7980  1.1464 -2.1367
  130MOL0     H17491   3.700   4.842   9.056 -0.8157  1.4090 -1.4624
  130MOL0     H17492   3.717   5.020   9.072  0.8705 -0.2072 -0.6821
  130MOL0     H17493   3.929   4.942   9.125 -0.7375 -1.2832 -1.9371
  130MOL0     H17494   3.856   4.963   9.288 -2.0141  0.7280 -1.5798
  130MOL0     H17495   3.781   4.719   9.269  0.4021 -0.5565  0.2871
  130MOL0     H17496   3.891   4.692   9.139  2.5131  0.5043  1.1674
  130MOL0     H17497   3.990   4.827   9.401  5.0489  1.7650  0.3687
  130MOL0     H17498   4.084   4.772   9.277  0.2107  3.0942  1.3003
  130MOL0     H17499   3.918   4.590   9.468  2.3515  3.7507  3.0434
  130MOL0     H17500   4.004   4.529   9.322 -1.5324 -2.9995  2.1927
  130MOL0     H17501   4.081   4.734   9.655 -0.7844  0.6266 -1.8280
  130MOL0     H17502   4.280   4.780   9.794 -3.2571 -2.2191 -1.4900
  130MOL0     H17503   4.380   4.637   9.805 -0.0786 -0.4146 -1.7939
  130MOL0     H17504   4.543   4.813   9.768  0.1507  2.3977 -1.0632
  130MOL0     H17505   4.534   4.740   9.616 -1.5961 -1.4003 -0.1144
  130MOL0     H17506   4.337   4.931   9.579  1.0432  0.6388 -2.2297
  130MOL0     H17507   4.509   4.976   9.575  0.0787 -1.5623 -1.6667
  130MOL0     H17508   4.285   5.023   9.770 -0.0793  3.2384  4.3188
  130MOL0     H17509   4.398   5.137   9.711 -0.1597  0.6839  0.9310
  130MOL0     H17510   4.617   5.145   9.681 -0.0559 -0.6714 -0.1605
  130MOL0     H17511   4.880   5.172   9.704  0.0838  1.7074  0.4712
  130MOL0     H17512   5.203   5.140  10.223 -0.2335  1.4169 -1.6340
  130MOL0     H17513   5.420   5.161  10.244 -0.7102  0.6475  0.2462
  130MOL0     H17514   5.736   5.244   9.895 -3.7279  0.8377 -3.2437
  130MOL0     H17515   5.568   5.289   9.925 -1.2905  2.3930  2.6822
  130MOL0     H17516   5.617   5.372  10.136  0.4857  1.9238 -0.8291
  130MOL0     H17517   5.783   5.305  10.140 -0.0501  1.5922  0.3735
  130MOL0     H17518   5.824   5.468   9.950  3.0752 -0.6392  3.1780
  130MOL0     H17519   5.667   5.536   9.981  0.1685  2.2492  0.7404
  130MOL0     H17520   5.924   5.524  10.147 -0.8757  0.1489  1.2459
  130MOL0     H17521   5.787   5.550  10.241 -1.7787  1.2750 -0.0808
  130MOL0     H17522   5.867   5.718   9.990 -1.6939 -0.9199 -1.1449
  130MOL0     H17523   5.942   5.750  10.152  1.0687 -0.9530 -3.1829
  130MOL0     H17524   5.634   5.776  10.113 -0.8372 -0.3370  2.1892
  130MOL0     H17525   5.745   5.831  10.234  1.9878 -0.9068  0.2809
  130MOL0     H17526   5.761   5.929   9.945  0.9767 -0.4341  0.5067
  130MOL0     H17527   5.849   5.992  10.087  0.1602 -0.6253 -1.0127
  130MOL0     H17528   5.555   5.996  10.060  0.9732 -2.2606 -0.0898
  130MOL0     H17529   5.652   6.036  10.214  1.8583 -0.3959  0.2767
  130MOL0     H17530   5.470   4.983   9.840 -2.2431 -0.8734 -0.7354
  130MOL0     H17531   5.246   4.927   9.847  1.4928  0.1061 -0.8255
  130MOL0     H17532   4.843   4.956  10.071 -1.4427  0.2648  1.0247
  130MOL0     H17533   4.608   4.980  10.074  2.7500 -0.2798  1.0002
  130MOL0     H17534   3.195   5.007   9.575 -2.5498 -0.8185  1.0710
  130MOL0     H17535   2.953   5.073   9.580  1.0777 -3.6073  1.1096
  130MOL0     H17536   2.640   5.267   9.599  0.0322  2.1428  0.3437
  130MOL0     H17537   2.420   5.318   9.659  2.6639 -0.5948 -0.3147
  130MOL0     H17538   2.127   5.216   9.453 -0.3193 -0.1657 -2.4712
  130MOL0     H17539   2.131   5.327   9.313 -0.2246  0.6827 -0.5555
  130MOL0     H17540   1.950   5.345   9.547 -1.4546 -2.4909 -1.2549
  130MOL0     H17541   1.919   5.311   9.387  0.3464 -2.6841  2.3834
  130MOL0     H17542   1.944   5.521   9.297  0.1005  1.7253  1.1741
  130MOL0     H17543   2.043   5.583   9.423  0.2079 -1.1534 -1.1434
  130MOL0     H17544   1.761   5.486   9.487  3.1825 -3.8415 -0.0996
  130MOL0     H17545   1.872   5.568   9.595 -0.8185  4.0470 -0.0169
  130MOL0     H17546   1.638   5.855   9.367  1.1463  0.3879 -0.3371
  130MOL0     H17547   2.333   5.444   9.259  1.0105 -0.1893 -1.9012
  130MOL0     H17548   2.474   5.382   9.072  0.0313  1.2575 -1.6279
  130MOL0     H17549   2.607   5.486   9.128 -0.3136 -0.6579  0.4545
  130MOL0     H17550   2.638   5.315   9.113  2.2375  1.4654 -1.1068
  131MOL0     O17551   1.986   5.646   2.254 -0.4382  0.0114  0.5519
  131MOL0     C17552   2.086   5.709   2.251 -0.8183  0.6127  0.6897
  131MOL0     O17553   2.192   5.689   2.161 -0.3164 -0.1981  0.2053
  131MOL0     C17554   2.188   5.596   2.070 -0.2268  0.6761 -1.1979
  131MOL0     C17555   2.194   5.456   2.081  0.7711  0.5106 -0.9514
  131MOL0     C17556   2.180   5.366   1.970  0.0263  0.3473 -0.3495
  131MOL0     C17557   2.154   5.419   1.841 -0.5976  0.5661  0.0548
  131MOL0     O17558   2.136   5.339   1.731  0.6534  0.4208 -1.2024
  131MOL0     C17559   2.081   5.396   1.602 -0.1785 -0.1873  0.3875
  131MOL0     C17560   2.077   5.299   1.491 -0.8023 -0.6960 -0.3437
  131MOL0     C17561   1.966   5.327   1.384 -0.6480  0.2689  0.3575
  131MOL0     C17562   1.892   5.456   1.389 -0.4439 -0.7625  0.1397
  131MOL0     C17563   1.806   5.472   1.261 -0.8170 -0.4231  0.3608
  131MOL0     C17564   1.694   5.569   1.284  0.7497  0.0832 -1.2158
  131MOL0     C17565   1.620   5.585   1.145 -0.2519  0.5562  0.8286
  131MOL0     C17566   1.494   5.663   1.167  0.5248 -0.9704 -1.0424
  131MOL0     N17567   1.446   5.732   1.043  0.0715 -0.3979  0.6696
  131MOL0     C17568   1.323   5.720   0.968  0.5869 -0.1274 -0.4334
  131MOL0     C17569   1.336   5.835   0.891  0.4436 -0.8725 -0.3010
  131MOL0     C17570   1.242   5.869   0.777  0.7423  1.0316  0.1172
  131MOL0     C17571   1.098   5.893   0.821 -0.2716 -0.5388 -0.2398
  131MOL0     C17572   1.010   5.915   0.697  0.7319 -0.3865  0.8543
  131MOL0     C17573   0.870   5.960   0.739 -0.4357  0.2167 -0.1823
  131MOL0     O17574   0.793   5.978   0.620 -0.2018 -0.1107 -0.1275
  131MOL0     C17575   0.661   6.007   0.627 -0.2275  0.0868 -0.5124
  131MOL0     C17576   0.591   6.044   0.512 -0.7815 -0.3218  0.4775
  131MOL0     C17577   0.460   6.075   0.508  0.2706 -0.4960  0.4039
  131MOL0     C17578   0.381   6.055   0.625 -1.0028  0.3497  0.4137
  131MOL0     C17579   0.236   6.072   0.620  0.2397 -0.1616  1.1359
  131MOL0     O17580   0.164   6.072   0.738  0.4124 -1.2072  0.5748
  131MOL0     C17581   0.037   6.126   0.736 -0.8010 -0.2488 -1.0959
  131MOL0     C17582   0.019   6.208   0.848 -0.0361  0.7643  0.8941
  131MOL0     C17583  -0.107   6.271   0.867  0.2764 -0.1936 -0.1528
  131MOL0     C17584  -0.217   6.242   0.785  0.4868 -0.4925  0.4154
  131MOL0     O17585  -0.337   6.307   0.791 -0.5660 -0.3795  0.4057
  131MOL0     C17586  -0.420   6.252   0.895 -0.1804 -0.3968 -0.2643
  131MOL0     C17587  -0.561   6.279   0.864 -0.5224 -0.0588  0.2380
  131MOL0     C17588  -0.628   6.192   0.762 -0.9131 -0.0750  0.6382
  131MOL0     C17589  -0.784   6.210   0.783 -0.0164 -0.2108  0.6014
  131MOL0     C17590  -0.830   6.360   0.775 -0.2447  0.5458  0.1153
  131MOL0     C17591  -0.982   6.381   0.753 -0.6946  1.1165  0.3463
  131MOL0     C17592  -1.017   6.533   0.760 -0.1779 -0.3368 -0.2640
  131MOL0     C17593  -1.146   6.553   0.835 -0.0095 -0.0242  0.1937
  131MOL0    Cl17594  -1.203   6.719   0.804 -0.3134  0.2389 -0.4571
  131MOL0     C17595  -0.193   6.158   0.676  1.0439  0.0286 -0.3895
  131MOL0     C17596  -0.075   6.101   0.654 -0.3351  0.4100  0.4819
  131MOL0     O17597   0.184   6.103   0.510  0.9010 -0.3058 -0.4087
  131MOL0     C17598   0.435   6.011   0.742 -0.3062 -0.6874 -0.1069
  131MOL0     C17599   0.572   5.985   0.746 -0.0243 -0.8708 -0.1620
  131MOL0     N17600   1.460   5.893   0.903  0.4981  0.7859 -0.3804
  131MOL0     N17601   1.522   5.824   0.986 -0.0362 -0.9352  0.5699
  131MOL0     C17602   2.145   5.563   1.832  0.6007  0.3855 -0.1724
  131MOL0     C17603   2.157   5.647   1.944 -0.2744  0.4979  0.0464
  131MOL0     C17604   2.112   5.821   2.361  0.1777 -0.5549  0.0607
  131MOL0     C17605   2.242   5.880   2.376 -0.7868  0.3714 -0.5505
  131MOL0     C17606   2.270   5.991   2.457  0.6731  0.5422  0.2824
  131MOL0     C17607   2.162   6.038   2.539 -1.4999 -0.2326 -1.0013
  131MOL0     O17608   2.180   6.138   2.630 -0.5565 -0.2311  0.0694
  131MOL0     C17609   2.306   6.144   2.699 -0.3056 -0.5029  0.1995
  131MOL0     C17610   2.283   6.263   2.798 -0.4788  0.5795  0.2194
  131MOL0     C17611   2.203   6.215   2.918  0.7317  0.0625 -0.7399
  131MOL0     C17612   2.134   6.331   2.989 -0.0790 -0.4612  0.3853
  131MOL0     C17613   2.221   6.408   3.077  0.9312 -0.0145  0.2905
  131MOL0     C17614   2.306   6.465   3.144 -0.0993 -0.0769  0.1022
  131MOL0     C17615   2.039   5.982   2.529  0.2655  0.4090 -0.3231
  131MOL0     C17616   2.009   5.882   2.433  0.2921  0.2303  0.0027
  131MOL0     C17617   1.861   5.847   2.434 -0.0816  0.3672 -0.6886
  131MOL0     H17618   2.225   5.421   2.179 -1.5838  1.7956  0.3348
  131MOL0     H17619   2.191   5.260   1.991  0.2914  1.0504  3.9515
  131MOL0     H17620   1.981   5.432   1.627  0.1342  0.9798  0.0462
  131MOL0     H17621   2.131   5.481   1.555 -2.5907  1.2944  0.3178
  131MOL0     H17622   2.055   5.199   1.531 -2.4137  0.1919  1.1511
  131MOL0     H17623   2.177   5.280   1.452 -0.3896 -3.4359  1.7006
  131MOL0     H17624   1.887   5.252   1.374 -3.0102  2.8458 -1.6897
  131MOL0     H17625   2.018   5.310   1.289  3.6067  0.6674  2.3533
  131MOL0     H17626   1.820   5.452   1.471 -0.1657 -2.9616  0.3154
  131MOL0     H17627   1.958   5.541   1.410 -3.5964  2.3497 -1.4200
  131MOL0     H17628   1.870   5.503   1.178  0.8453  1.3875  2.2016
  131MOL0     H17629   1.767   5.372   1.237 -3.1382  0.3255  0.7591
  131MOL0     H17630   1.629   5.515   1.353  0.5778  1.2294 -0.4622
  131MOL0     H17631   1.730   5.659   1.336  3.1525 -3.5135  4.3037
  131MOL0     H17632   1.584   5.488   1.111 -0.3184  0.1702  1.9422
  131MOL0     H17633   1.687   5.632   1.073 -2.2576  1.6906 -0.4059
  131MOL0     H17634   1.421   5.598   1.215  0.2068 -0.5666 -0.9732
  131MOL0     H17635   1.514   5.741   1.241  0.6850 -0.9210 -1.1372
  131MOL0     H17636   1.242   5.648   0.978 -0.0003  0.3542 -1.6112
  131MOL0     H17637   1.275   5.960   0.726 -0.1968  1.5380  0.3894
  131MOL0     H17638   1.246   5.786   0.706  1.9723  0.4056  0.8935
  131MOL0     H17639   1.069   5.806   0.881 -1.3386  0.7198  1.1396
  131MOL0     H17640   1.087   5.979   0.887  1.4367  0.3549 -1.0589
  131MOL0     H17641   1.007   5.822   0.639  2.6055  1.9082 -3.4449
  131MOL0     H17642   1.059   5.993   0.638 -0.1752  2.3067  3.4354
  131MOL0     H17643   0.885   6.052   0.795  0.0341  0.4915 -0.7535
  131MOL0     H17644   0.832   5.901   0.824  2.0480 -0.9492  0.1916
  131MOL0     H17645   0.649   6.060   0.421  3.0555  0.5158  2.8642
  131MOL0     H17646   0.424   6.122   0.418 -0.5144 -1.8109  0.0005
  131MOL0     H17647   0.095   6.230   0.923 -1.0610  0.3737  2.0762
  131MOL0     H17648  -0.129   6.353   0.934 -1.0030  1.3231 -2.2990
  131MOL0     H17649  -0.408   6.143   0.901  0.6071 -0.2543  2.4641
  131MOL0     H17650  -0.401   6.299   0.992  1.1015  1.9430 -1.5579
  131MOL0     H17651  -0.616   6.275   0.959  1.6968  2.3753  1.7786
  131MOL0     H17652  -0.561   6.383   0.831 -1.2060  0.4718  1.7976
  131MOL0     H17653  -0.598   6.202   0.657 -0.3699  2.8468  0.9948
  131MOL0     H17654  -0.604   6.088   0.788  4.0827  0.9340  1.0982
  131MOL0     H17655  -0.812   6.170   0.881 -3.4318 -2.3462 -1.0396
  131MOL0     H17656  -0.837   6.148   0.709  0.1416  1.0778 -0.6474
  131MOL0     H17657  -0.767   6.407   0.700  0.7751 -0.1817  0.4972
  131MOL0     H17658  -0.780   6.402   0.863  2.2318 -0.3172 -0.7849
  131MOL0     H17659  -0.988   6.336   0.653 -0.0756  2.2173 -0.2181
  131MOL0     H17660  -1.040   6.320   0.823  1.2736 -1.9171 -0.4703
  131MOL0     H17661  -1.023   6.578   0.661  1.9990 -0.0758 -0.3133
  131MOL0     H17662  -0.937   6.588   0.810 -1.4529  0.7374  0.6877
  131MOL0     H17663  -1.214   6.481   0.788  2.8529 -2.1001 -1.0137
  131MOL0     H17664  -1.152   6.509   0.935 -1.2157  0.1113  0.2063
  131MOL0     H17665  -0.274   6.152   0.604 -1.5427 -0.6212  2.3460
  131MOL0     H17666  -0.054   6.030   0.574  2.0668 -0.1280  1.4827
  131MOL0     H17667   0.383   6.006   0.837 -1.3349 -4.6944 -0.7052
  131MOL0     H17668   0.619   5.958   0.840  0.1669 -3.1643 -0.8362
  131MOL0     H17669   2.110   5.600   1.737  3.4838  3.2555 -0.2714
  131MOL0     H17670   2.142   5.753   1.930  0.0574  0.9516  2.7221
  131MOL0     H17671   2.320   5.844   2.310 -1.9131 -1.4482 -0.9619
  131MOL0     H17672   2.372   6.028   2.457  0.7988  0.1998  0.2187
  131MOL0     H17673   2.395   6.150   2.636 -0.5038 -2.9532 -0.4300
  131MOL0     H17674   2.320   6.059   2.766  3.3826  0.3893  0.7300
  131MOL0     H17675   2.223   6.343   2.751 -0.7008  0.3813  0.1609
  131MOL0     H17676   2.381   6.304   2.824  0.5256 -1.2522 -0.5012
  131MOL0     H17677   2.268   6.174   2.997  1.2166  1.3886 -0.4187
  131MOL0     H17678   2.129   6.138   2.896  1.7077 -0.7924 -1.1182
  131MOL0     H17679   2.077   6.391   2.918 -1.9180 -2.7222 -0.1726
  131MOL0     H17680   2.068   6.286   3.064 -0.5176  0.7764  0.7665
  131MOL0     H17681   2.383   6.510   3.203 -0.2767 -0.7092  0.8358
  131MOL0     H17682   1.961   6.028   2.589 -1.7794 -3.0124 -0.0541
  131MOL0     H17683   1.837   5.748   2.474  2.9766  0.9642  3.2608
  131MOL0     H17684   1.801   5.923   2.487 -0.9129 -1.7037  1.5204
  131MOL0     H17685   1.834   5.849   2.328  0.1126  4.1018 -0.8083
  132MOL0     O17686   3.210  10.981   0.372 -0.0131  0.9410 -0.6727
  132MOL0     C17687   3.256  11.085   0.334 -0.3046 -0.1069 -0.0751
  132MOL0     O17688   3.386  11.116   0.347 -0.4367  0.2424 -0.4088
  132MOL0     C17689   3.459  11.023   0.422 -0.0967 -0.5416  0.8509
  132MOL0     C17690   3.506  10.912   0.360  0.0240 -0.5636  0.6202
  132MOL0     C17691   3.578  10.822   0.428 -0.5603 -0.8008  0.1484
  132MOL0     C17692   3.628  10.857   0.561 -0.5546 -0.3581  0.0936
  132MOL0     O17693   3.726  10.776   0.624  0.6393  0.2496  0.4198
  132MOL0     C17694   3.845  10.769   0.538 -0.0731 -0.1335  0.1890
  132MOL0     C17695   3.886  10.624   0.511  0.1002 -0.4621 -0.0704
  132MOL0     C17696   3.961  10.575   0.632  0.1916  0.7843 -0.4856
  132MOL0     C17697   4.101  10.531   0.589  0.6800 -0.6979 -0.2832
  132MOL0     C17698   4.190  10.453   0.688  0.0778 -1.0779  0.0609
  132MOL0     C17699   4.168  10.306   0.697  0.0106  0.0152 -0.2927
  132MOL0     C17700   4.227  10.253   0.827  0.1098  0.1763  0.5309
  132MOL0     C17701   4.293  10.115   0.796  0.0641  0.3843 -0.2767
  132MOL0     N17702   4.441  10.150   0.809 -0.3385  0.9138 -0.7869
  132MOL0     C17703   4.509  10.146   0.921  0.1224 -0.2723 -1.0873
  132MOL0     C17704   4.636  10.165   0.878  0.1357  0.0630 -0.5192
  132MOL0     C17705   4.756  10.163   0.965 -0.7393 -0.4387 -0.4157
  132MOL0     C17706   4.769  10.295   1.047  0.3654 -0.5500 -0.0377
  132MOL0     C17707   4.772  10.434   0.977  0.0495 -0.5403 -1.5785
  132MOL0     C17708   4.862  10.440   0.866 -0.7109  0.8022 -0.6667
  132MOL0     O17709   4.862  10.574   0.813 -0.0451  0.3918  0.3597
  132MOL0     C17710   4.757  10.613   0.739 -0.6780  0.4265 -0.5685
  132MOL0     C17711   4.667  10.533   0.650 -0.6879 -0.4678  0.9793
  132MOL0     C17712   4.575  10.608   0.571  0.3829 -0.7094 -1.2921
  132MOL0     C17713   4.577  10.751   0.579 -0.2058 -0.0624 -0.5936
  132MOL0     C17714   4.477  10.820   0.505  0.0369  0.1958  0.7364
  132MOL0     O17715   4.373  10.742   0.454  0.7142  0.6553  0.4525
  132MOL0     C17716   4.277  10.787   0.379  0.2810 -0.2061 -0.2076
  132MOL0     C17717   4.198  10.907   0.405 -0.6220 -0.2945 -0.8459
  132MOL0     C17718   4.085  10.936   0.331  0.3940 -0.4099  0.4796
  132MOL0     C17719   4.047  10.856   0.228 -0.3811 -0.3752  0.1623
  132MOL0     O17720   3.942  10.863   0.146  0.5090 -0.8546 -0.2533
  132MOL0     C17721   3.888  10.997   0.129  0.7901  0.0766  0.3672
  132MOL0     C17722   3.753  10.982   0.056  0.3030  0.2898 -0.5215
  132MOL0     C17723   3.673  11.110   0.041  1.0239  0.3003  1.3081
  132MOL0     C17724   3.531  11.085  -0.010 -1.0943 -0.9964  0.4507
  132MOL0     C17725   3.469  11.218  -0.033  0.9894  0.6078 -0.6585
  132MOL0     C17726   3.322  11.205  -0.068  0.0571 -0.1638  0.7386
  132MOL0     C17727   3.309  11.158  -0.209  0.6916  0.0041 -0.4817
  132MOL0     C17728   3.155  11.161  -0.229  0.0074 -0.1662 -0.4447
  132MOL0    Cl17729   3.125  11.094  -0.399 -0.0490 -0.1778 -0.0019
  132MOL0     C17730   4.125  10.749   0.193  0.6983 -0.4319 -0.4153
  132MOL0     C17731   4.224  10.706   0.276  0.0827  0.4846 -0.0910
  132MOL0     O17732   4.482  10.942   0.506  0.5502  0.4102  0.4307
  132MOL0     C17733   4.673  10.815   0.657 -0.0026  0.5946  0.3491
  132MOL0     C17734   4.763  10.749   0.726 -0.5910 -0.1340  0.2667
  132MOL0     N17735   4.642  10.171   0.746 -0.2554 -0.3935 -0.0971
  132MOL0     N17736   4.524  10.177   0.703  0.1250 -0.1594  0.2369
  132MOL0     C17737   3.569  10.963   0.626 -0.0062  0.0492 -1.1039
  132MOL0     C17738   3.488  11.044   0.554  0.0440  0.1170  0.6097
  132MOL0     C17739   3.164  11.183   0.271 -0.4228 -0.6092  0.1073
  132MOL0     C17740   3.185  11.317   0.308 -0.6141  0.7387 -0.3278
  132MOL0     C17741   3.106  11.426   0.262 -0.3185  0.1618 -0.3315
  132MOL0     C17742   3.007  11.398   0.166 -0.9098 -0.5875 -0.2611
  132MOL0     O17743   2.936  11.493   0.098  0.3723 -0.0554  0.2650
  132MOL0     C17744   2.939  11.627   0.140 -0.2846 -0.4800 -0.1875
  132MOL0     C17745   2.812  11.693   0.071 -0.3415  0.7880 -0.4301
  132MOL0     C17746   2.800  11.835   0.120  0.0804  0.5413 -0.2052
  132MOL0     C17747   2.917  11.930   0.072  0.9108 -0.0344 -0.0301
  132MOL0     C17748   2.927  11.943  -0.072 -0.0947 -0.2613  0.3558
  132MOL0     C17749   2.928  11.960  -0.191 -0.8649 -0.4467 -0.4043
  132MOL0     C17750   2.978  11.263   0.139  0.4733  0.6983  0.3249
  132MOL0     C17751   3.056  11.156   0.188 -0.6063  0.2555  0.2741
  132MOL0     C17752   3.018  11.026   0.142  0.4120  0.4884  0.4155
  132MOL0     H17753   3.496  10.906   0.252  0.5468 -2.6791  0.6506
  132MOL0     H17754   3.625  10.736   0.381  2.9944  1.3064 -0.5132
  132MOL0     H17755   3.817  10.812   0.441 -1.8604 -2.7924 -0.5854
  132MOL0     H17756   3.938  10.818   0.569  0.5470 -0.5107 -1.0068
  132MOL0     H17757   3.952  10.606   0.425  0.4270  0.0745  0.0688
  132MOL0     H17758   3.794  10.565   0.497  1.2889 -2.9618  1.8231
  132MOL0     H17759   3.903  10.491   0.671  1.9048 -0.7931 -1.1939
  132MOL0     H17760   3.959  10.648   0.713 -1.8021  3.6748 -2.9075
  132MOL0     H17761   4.089  10.463   0.505 -1.0316 -2.5998  1.3739
  132MOL0     H17762   4.159  10.620   0.563 -1.7812  0.1259 -3.4551
  132MOL0     H17763   4.292  10.483   0.665  0.8258 -2.9984  0.6126
  132MOL0     H17764   4.177  10.493   0.789  2.6629 -2.9849  1.2717
  132MOL0     H17765   4.066  10.274   0.674  0.5256  0.5088 -3.7391
  132MOL0     H17766   4.232  10.270   0.616  1.0929  0.8314  0.1848
  132MOL0     H17767   4.154  10.224   0.903 -0.5745 -1.4412 -0.6933
  132MOL0     H17768   4.305  10.323   0.861  3.6322 -1.6149 -3.0063
  132MOL0     H17769   4.280  10.035   0.868  3.2910 -1.1674 -1.2017
  132MOL0     H17770   4.271  10.076   0.696  2.5162 -1.0905 -0.3209
  132MOL0     H17771   4.472  10.133   1.023 -1.6280 -0.9196 -1.7531
  132MOL0     H17772   4.758  10.077   1.032 -0.5430  2.2309  3.3721
  132MOL0     H17773   4.841  10.166   0.897  1.2203  1.1042  1.9239
  132MOL0     H17774   4.683  10.300   1.115  0.1583  4.1120 -0.3524
  132MOL0     H17775   4.856  10.290   1.113 -0.4829 -4.6237  1.0670
  132MOL0     H17776   4.798  10.511   1.050 -0.0224 -1.0786 -0.9717
  132MOL0     H17777   4.671  10.464   0.947  0.3955  2.1177 -0.3868
  132MOL0     H17778   4.839  10.368   0.788  2.2244 -0.4624 -0.4801
  132MOL0     H17779   4.961  10.415   0.904 -2.1863 -1.0488  2.3741
  132MOL0     H17780   4.675  10.425   0.638 -1.5613 -0.4631  0.1928
  132MOL0     H17781   4.504  10.555   0.509 -2.4448  1.8235 -0.4489
  132MOL0     H17782   4.224  10.960   0.496  0.7167 -0.5745 -1.0424
  132MOL0     H17783   4.023  11.016   0.369  0.6550 -0.0353  0.1347
  132MOL0     H17784   3.874  11.044   0.227 -1.1068 -1.4328  0.8801
  132MOL0     H17785   3.940  11.069   0.065 -1.6102 -0.2935 -2.2072
  132MOL0     H17786   3.788  10.944  -0.040 -0.6631  0.9341 -1.1522
  132MOL0     H17787   3.691  10.915   0.116 -1.0710  0.2260 -1.9438
  132MOL0     H17788   3.662  11.162   0.136 -0.0257  2.6841 -0.0526
  132MOL0     H17789   3.728  11.170  -0.032  3.6941 -2.7028  0.6314
  132MOL0     H17790   3.478  11.027   0.066 -0.6897  0.0041  1.5319
  132MOL0     H17791   3.522  11.026  -0.102 -5.6454  1.5811 -1.0341
  132MOL0     H17792   3.536  11.270  -0.101 -0.7184  4.0777  0.1046
  132MOL0     H17793   3.472  11.265   0.066  1.5109 -1.1132  0.1816
  132MOL0     H17794   3.270  11.141   0.004 -1.4418 -0.3823 -0.4772
  132MOL0     H17795   3.286  11.307  -0.051  1.7058  0.6027 -0.1892
  132MOL0     H17796   3.352  11.058  -0.223 -1.3053 -1.2527  1.5881
  132MOL0     H17797   3.351  11.232  -0.277  0.6262 -0.9718 -1.6255
  132MOL0     H17798   3.109  11.093  -0.156 -0.6782 -1.7754 -2.2861
  132MOL0     H17799   3.105  11.258  -0.227 -0.8600 -0.6155  0.7207
  132MOL0     H17800   4.108  10.681   0.110 -3.2506  0.2910 -0.3693
  132MOL0     H17801   4.273  10.614   0.243  0.2275 -0.1512  1.7881
  132MOL0     H17802   4.675  10.922   0.669  3.2237  0.3375  4.6941
  132MOL0     H17803   4.841  10.807   0.774 -0.3064  0.3018 -0.7021
  132MOL0     H17804   3.603  11.002   0.722 -0.2857 -1.1774 -0.4845
  132MOL0     H17805   3.452  11.135   0.602  1.1360 -0.8743  3.4663
  132MOL0     H17806   3.270  11.330   0.375 -1.3551  0.3583  0.7195
  132MOL0     H17807   3.128  11.529   0.286 -1.6167  0.8236 -1.8344
  132MOL0     H17808   3.033  11.673   0.108 -1.5053  1.1076 -1.6737
  132MOL0     H17809   2.930  11.644   0.248  2.4919  2.4692 -0.2874
  132MOL0     H17810   2.721  11.639   0.099  0.9033 -0.8148  0.7063
  132MOL0     H17811   2.833  11.677  -0.035 -0.1830 -0.5753 -0.2101
  132MOL0     H17812   2.795  11.844   0.229 -0.6052 -0.1652 -0.1707
  132MOL0     H17813   2.709  11.870   0.071 -0.5872 -1.9529 -0.8544
  132MOL0     H17814   2.900  12.026   0.121 -4.4461 -0.1098 -1.1407
  132MOL0     H17815   3.010  11.889   0.113  1.3815 -2.2804 -3.0161
  132MOL0     H17816   2.932  12.001  -0.289  1.3355  2.8930  0.9165
  132MOL0     H17817   2.895  11.256   0.070  0.2388  1.7390  0.4835
  132MOL0     H17818   2.970  10.961   0.216  1.1955 -1.6371 -0.8712
  132MOL0     H17819   2.940  11.039   0.067  1.7663 -1.9913 -1.5915
  132MOL0     H17820   3.101  10.969   0.099  0.3838 -0.4599  1.5580
  133MOL0     O17821   2.735   9.836   9.010 -0.6531  0.3031 -0.5212
  133MOL0     C17822   2.656   9.743   9.029 -0.2364  0.4814 -0.2926
  133MOL0     O17823   2.675   9.636   9.109  0.6584 -0.0944  0.7031
  133MOL0     C17824   2.791   9.627   9.181  0.2336 -0.5960  0.0915
  133MOL0     C17825   2.922   9.652   9.144 -0.8763  0.3108  0.3241
  133MOL0     C17826   3.030   9.633   9.234 -0.0922  0.4407 -0.5097
  133MOL0     C17827   3.014   9.593   9.366 -0.2566  0.1512 -0.0540
  133MOL0     O17828   3.114   9.576   9.463 -0.3244  0.7307 -0.3567
  133MOL0     C17829   3.249   9.541   9.410 -0.2257 -0.7722 -1.0608
  133MOL0     C17830   3.334   9.671   9.414 -0.3804  0.8703  1.1619
  133MOL0     C17831   3.453   9.652   9.323  0.7508 -0.3607  0.3115
  133MOL0     C17832   3.543   9.540   9.376 -0.1815  0.4498 -0.2179
  133MOL0     C17833   3.685   9.560   9.323 -0.0992  0.8561 -0.1571
  133MOL0     C17834   3.763   9.436   9.367  0.1960  0.5753  0.5124
  133MOL0     C17835   3.913   9.442   9.339 -0.2422  0.3079 -0.6656
  133MOL0     C17836   3.963   9.429   9.187  0.7597 -0.1921  1.0341
  133MOL0     N17837   3.897   9.320   9.112  0.0427  0.1378 -0.2118
  133MOL0     C17838   3.915   9.184   9.131  0.8824 -0.2873 -0.9901
  133MOL0     C17839   3.817   9.130   9.060  0.0507 -0.5661 -0.5746
  133MOL0     C17840   3.770   8.985   9.043  0.4934 -0.2190  0.4848
  133MOL0     C17841   3.775   8.911   9.182 -0.3674 -0.4027 -0.7508
  133MOL0     C17842   3.906   8.853   9.211 -0.1504  0.7552  0.5004
  133MOL0     C17843   3.900   8.798   9.350 -0.1281 -0.0747 -0.2383
  133MOL0     O17844   4.003   8.712   9.388  0.6482  0.4569  0.0074
  133MOL0     C17845   4.127   8.753   9.433  0.5872 -0.8807 -0.7679
  133MOL0     C17846   4.158   8.889   9.462  0.3893 -0.1789 -0.0081
  133MOL0     C17847   4.285   8.912   9.530 -0.8686  0.8374 -0.7026
  133MOL0     C17848   4.380   8.808   9.561 -0.1610  1.0450  0.0959
  133MOL0     C17849   4.515   8.827   9.620 -0.6660 -0.5830 -0.0146
  133MOL0     O17850   4.539   8.943   9.687 -0.2697 -0.2981 -0.1946
  133MOL0     C17851   4.665   8.972   9.743 -0.1422  0.0926  0.2515
  133MOL0     C17852   4.779   8.975   9.665 -0.7352  0.3775  0.3434
  133MOL0     C17853   4.903   9.018   9.716 -0.0813 -0.2289 -0.8361
  133MOL0     C17854   4.916   9.087   9.836  0.0235 -0.2093 -0.6252
  133MOL0     O17855   5.029   9.155   9.892  0.1247  0.0483  0.7521
  133MOL0     C17856   5.130   9.202   9.799  0.7796 -0.4045  0.7357
  133MOL0     C17857   5.087   9.323   9.719  0.0542 -0.1705  0.2026
  133MOL0     C17858   5.184   9.349   9.607  0.1260  0.2136  1.2847
  133MOL0     C17859   5.150   9.479   9.531 -0.2777  0.1147 -0.5724
  133MOL0     C17860   5.228   9.498   9.407  1.0749  0.0657  0.0978
  133MOL0     C17861   5.381   9.504   9.430 -0.1523 -0.1405 -0.2610
  133MOL0     C17862   5.456   9.536   9.302 -0.3792  0.2271  0.2931
  133MOL0     C17863   5.447   9.432   9.195  0.5758  0.1700  0.8128
  133MOL0    Cl17864   5.531   9.268   9.230 -0.0907  0.0831 -0.3868
  133MOL0     C17865   4.807   9.086   9.918  0.1535 -0.9647  0.2754
  133MOL0     C17866   4.685   9.022   9.870 -0.3466 -0.5612 -0.1691
  133MOL0     O17867   4.603   8.742   9.598  0.5716  0.0044  0.4089
  133MOL0     C17868   4.343   8.681   9.520  1.3597  0.0575 -0.3845
  133MOL0     C17869   4.212   8.649   9.470 -0.7192 -0.6410  0.4652
  133MOL0     N17870   3.748   9.222   8.985  1.0342  0.6493  0.3877
  133MOL0     N17871   3.799   9.335   9.017 -0.2707 -0.9630  0.0165
  133MOL0     C17872   2.878   9.564   9.405  0.2595 -0.3201 -0.0479
  133MOL0     C17873   2.774   9.580   9.309  0.1891  0.5618  0.1325
  133MOL0     C17874   2.536   9.747   8.965 -0.4868  0.7994 -0.0390
  133MOL0     C17875   2.438   9.662   9.013 -0.6095  0.8639  0.6492
  133MOL0     C17876   2.321   9.650   8.955 -0.0909  0.9648 -0.2701
  133MOL0     C17877   2.281   9.732   8.850 -0.4527 -0.2859  0.1587
  133MOL0     O17878   2.162   9.707   8.801  0.0619 -0.3446  0.1176
  133MOL0     C17879   2.134   9.744   8.663 -0.1593 -0.1783 -0.8046
  133MOL0     C17880   2.062   9.626   8.595  0.0767 -0.0653  0.4386
  133MOL0     C17881   2.010   9.648   8.454  0.1151 -0.2661  0.1753
  133MOL0     C17882   2.074   9.555   8.352 -0.0595 -0.0253  0.4938
  133MOL0     C17883   2.005   9.429   8.373 -0.1364 -0.0079 -0.0454
  133MOL0     C17884   1.944   9.331   8.415  0.3139  0.4140  0.2793
  133MOL0     C17885   2.370   9.832   8.812  0.3493  0.6163  0.5311
  133MOL0     C17886   2.498   9.839   8.863 -0.5147 -0.3635  0.3225
  133MOL0     C17887   2.584   9.959   8.809 -0.7215 -0.9602  0.1404
  133MOL0     H17888   2.939   9.681   9.041 -1.5287 -1.4355 -0.3129
  133MOL0     H17889   3.131   9.628   9.196  0.3792 -1.8119  0.8322
  133MOL0     H17890   3.293   9.467   9.478 -0.4349 -3.1979 -3.3796
  133MOL0     H17891   3.250   9.496   9.311 -0.3973  1.6710 -2.2309
  133MOL0     H17892   3.368   9.705   9.512  0.0479  0.2475  1.2372
  133MOL0     H17893   3.272   9.752   9.375  1.1792  1.1218 -0.9693
  133MOL0     H17894   3.504   9.749   9.323  2.3474 -1.1084 -2.0551
  133MOL0     H17895   3.429   9.637   9.217  1.0599  2.6581 -0.2657
  133MOL0     H17896   3.545   9.545   9.485  0.3558 -0.8407 -0.1477
  133MOL0     H17897   3.490   9.448   9.348 -0.6677  0.0950  1.7422
  133MOL0     H17898   3.680   9.565   9.213  0.6840  0.2785 -0.2271
  133MOL0     H17899   3.731   9.650   9.365 -0.0649  1.0837 -0.6763
  133MOL0     H17900   3.751   9.438   9.476  2.2450  3.3593  0.7857
  133MOL0     H17901   3.713   9.352   9.317  0.7111  2.1616 -2.9327
  133MOL0     H17902   3.975   9.364   9.384 -0.5634  1.1562  1.3278
  133MOL0     H17903   3.950   9.533   9.388 -0.6857 -0.1876  0.6140
  133MOL0     H17904   3.935   9.525   9.143 -0.9773 -0.9579  0.3843
  133MOL0     H17905   4.072   9.418   9.193  1.0946  1.0222 -1.4049
  133MOL0     H17906   3.979   9.129   9.200 -1.6142  1.2589  2.9213
  133MOL0     H17907   3.674   8.997   8.992  0.3225  2.8707  1.3417
  133MOL0     H17908   3.833   8.931   8.971 -0.1582  0.0168 -0.2756
  133MOL0     H17909   3.747   8.977   9.265  1.0279 -1.7769  0.8999
  133MOL0     H17910   3.695   8.836   9.175 -3.4328  2.1853  2.5280
  133MOL0     H17911   3.990   8.922   9.202  2.0542 -1.5310  2.3767
  133MOL0     H17912   3.918   8.763   9.151 -0.7681  0.2775  1.0665
  133MOL0     H17913   3.799   8.760   9.372 -0.4207 -0.0365 -1.4853
  133MOL0     H17914   3.899   8.886   9.416  0.5450  0.3381 -0.7670
  133MOL0     H17915   4.100   8.975   9.429  0.3212 -0.0419  0.4559
  133MOL0     H17916   4.309   9.012   9.563 -1.1592  0.1453  1.7782
  133MOL0     H17917   4.780   8.934   9.565  1.1100  0.5228  0.2574
  133MOL0     H17918   4.995   9.003   9.660 -0.2517 -3.1435 -0.5080
  133MOL0     H17919   5.223   9.231   9.847  1.5736  0.4815 -1.2362
  133MOL0     H17920   5.149   9.122   9.726 -4.5032  0.3453 -1.9447
  133MOL0     H17921   4.995   9.297   9.667  0.4265 -0.3591 -0.3767
  133MOL0     H17922   5.063   9.410   9.780 -0.0600  0.3539 -0.5757
  133MOL0     H17923   5.280   9.361   9.656 -0.1141  1.3729  1.5031
  133MOL0     H17924   5.187   9.267   9.535 -3.0481 -0.3533  1.6057
  133MOL0     H17925   5.167   9.573   9.583  1.2259  0.9735 -2.5092
  133MOL0     H17926   5.043   9.483   9.506 -0.7701  2.6202  1.4929
  133MOL0     H17927   5.189   9.591   9.364 -0.6707 -1.3873 -1.6194
  133MOL0     H17928   5.211   9.417   9.336 -2.8027 -2.2202  3.1819
  133MOL0     H17929   5.410   9.576   9.508  0.2008 -1.3153  0.7354
  133MOL0     H17930   5.410   9.400   9.450  1.3323  0.5131  1.2443
  133MOL0     H17931   5.559   9.553   9.331 -0.4296  0.7390  0.1757
  133MOL0     H17932   5.412   9.627   9.259  1.9747  1.3169  0.0576
  133MOL0     H17933   5.344   9.405   9.170  0.5335 -0.5639  1.7310
  133MOL0     H17934   5.498   9.470   9.106 -1.0911 -1.9644 -1.1736
  133MOL0     H17935   4.801   9.125  10.019 -3.5142 -0.8850  0.1391
  133MOL0     H17936   4.611   9.037   9.948  0.5295 -0.8845  0.7445
  133MOL0     H17937   4.417   8.602   9.526  3.7134  2.1155 -0.4879
  133MOL0     H17938   4.178   8.547   9.457 -1.4093 -0.1759 -1.9214
  133MOL0     H17939   2.866   9.529   9.507  2.2838 -0.1117  0.3089
  133MOL0     H17940   2.673   9.551   9.335 -0.3745  1.8523 -0.5164
  133MOL0     H17941   2.446   9.588   9.092  0.5483 -1.1179 -1.1985
  133MOL0     H17942   2.251   9.574   8.986 -1.0032  2.1991  0.8323
  133MOL0     H17943   2.221   9.783   8.610 -0.6124  0.7594 -0.8719
  133MOL0     H17944   2.068   9.831   8.671  0.9568  0.5523  1.1540
  133MOL0     H17945   1.981   9.599   8.662 -0.0392 -0.3653  0.1826
  133MOL0     H17946   2.131   9.542   8.601 -0.7237 -0.6593  1.5688
  133MOL0     H17947   2.027   9.754   8.429 -0.5928 -0.5937 -1.8893
  133MOL0     H17948   1.902   9.640   8.441  0.2156 -0.4669 -0.5890
  133MOL0     H17949   2.059   9.600   8.253  3.6246  2.1766  0.7623
  133MOL0     H17950   2.182   9.556   8.370  0.5193 -1.6274 -2.3371
  133MOL0     H17951   1.901   9.241   8.452  0.1407  1.0426  1.6739
  133MOL0     H17952   2.334   9.900   8.736 -4.6170  1.3110  3.0484
  133MOL0     H17953   2.545  10.018   8.726  4.5814 -0.5456 -2.4970
  133MOL0     H17954   2.606  10.031   8.888  0.1787 -0.3228 -0.6754
  133MOL0     H17955   2.670   9.911   8.762 -0.4892 -0.7762  0.3789
  134MOL0     O17956   1.259   9.432   3.058  0.3681 -0.6017  0.8562
  134MOL0     C17957   1.292   9.333   3.117  1.1072 -0.4122 -1.2767
  134MOL0     O17958   1.417   9.292   3.152  0.0694 -0.7299  0.6117
  134MOL0     C17959   1.523   9.371   3.117  1.0739  0.1911  0.5058
  134MOL0     C17960   1.623   9.332   3.030 -0.0649 -0.9476 -1.2198
  134MOL0     C17961   1.729   9.416   2.996 -0.4133  0.1537  0.3997
  134MOL0     C17962   1.734   9.554   3.049  0.1414  0.0960  0.4491
  134MOL0     O17963   1.813   9.657   2.997 -0.4635  0.5052  0.0597
  134MOL0     C17964   1.936   9.648   3.073  1.0158 -0.3917 -0.0329
  134MOL0     C17965   2.055   9.714   3.006  0.3081 -0.1202  0.5819
  134MOL0     C17966   2.158   9.747   3.102  0.1353 -0.0163 -0.5843
  134MOL0     C17967   2.291   9.763   3.017  0.2435 -0.1050 -0.0818
  134MOL0     C17968   2.407   9.814   3.113 -0.4934 -0.3381  0.0329
  134MOL0     C17969   2.533   9.826   3.024 -0.0691  0.4825 -0.6979
  134MOL0     C17970   2.651   9.874   3.101  0.4424  0.4074 -0.6459
  134MOL0     C17971   2.626   9.988   3.189 -0.5282  0.5968  0.4783
  134MOL0     N17972   2.740  10.046   3.259  0.1162 -0.0111  0.1403
  134MOL0     C17973   2.794  10.168   3.247 -0.0608  0.3184 -0.2499
  134MOL0     C17974   2.899  10.163   3.338 -0.3484 -0.7684 -0.4346
  134MOL0     C17975   2.999  10.274   3.381 -0.1647  0.6673 -0.0971
  134MOL0     C17976   2.994  10.298   3.539 -0.4647  0.6635 -0.1735
  134MOL0     C17977   2.909  10.419   3.575 -0.3865  0.0555  0.1142
  134MOL0     C17978   2.906  10.432   3.736 -0.2637  0.0511 -0.6114
  134MOL0     O17979   2.850  10.309   3.786 -0.1873  0.3400 -0.4606
  134MOL0     C17980   2.723  10.280   3.766  0.9994 -0.8629  0.6329
  134MOL0     C17981   2.680  10.161   3.714 -0.4632  0.8739 -0.9439
  134MOL0     C17982   2.541  10.136   3.719  0.2189  0.1437 -0.7027
  134MOL0     C17983   2.447  10.224   3.770 -1.3842 -0.4300 -0.1557
  134MOL0     C17984   2.315  10.180   3.797  0.4940  0.1760 -0.1758
  134MOL0     O17985   2.254  10.096   3.715 -0.8144  0.4035  0.0675
  134MOL0     C17986   2.124  10.056   3.744  0.3827 -0.2914 -0.4879
  134MOL0     C17987   2.111   9.924   3.776 -0.5625 -0.6783  0.5543
  134MOL0     C17988   1.988   9.879   3.830 -0.0283 -0.8528  0.0788
  134MOL0     C17989   1.879   9.959   3.835 -0.2142  0.2827 -0.6069
  134MOL0     O17990   1.757   9.905   3.873  0.1352 -0.0996  0.7314
  134MOL0     C17991   1.746   9.833   4.000 -0.0967 -1.0513 -1.1312
  134MOL0     C17992   1.601   9.832   4.047 -0.6296 -0.7224  0.2636
  134MOL0     C17993   1.588   9.783   4.189 -0.9517 -0.7220 -0.5982
  134MOL0     C17994   1.443   9.797   4.226  0.3776  0.2010 -0.7878
  134MOL0     C17995   1.423   9.800   4.375 -0.0132  0.6899 -1.3774
  134MOL0     C17996   1.282   9.794   4.412  0.3164 -0.1293 -0.2258
  134MOL0     C17997   1.270   9.852   4.551  0.4431 -0.0133  0.2506
  134MOL0     C17998   1.121   9.856   4.593  1.5136 -0.0037 -0.1822
  134MOL0    Cl17999   1.067   9.691   4.620  0.1471  0.9373 -0.0978
  134MOL0     C18000   1.889  10.095   3.811  0.7411 -1.2693  0.3941
  134MOL0     C18001   2.017  10.139   3.764  0.1671 -0.2945  0.3009
  134MOL0     O18002   2.264  10.235   3.892  0.2493  0.3861 -0.4440
  134MOL0     C18003   2.497  10.345   3.811  0.3432  0.0699  1.0928
  134MOL0     C18004   2.628  10.370   3.830 -0.5927  0.8984  1.6049
  134MOL0     N18005   2.892  10.042   3.405  0.2767 -0.0912 -0.6562
  134MOL0     N18006   2.791   9.970   3.363  0.0607 -0.6760  0.6690
  134MOL0     C18007   1.632   9.592   3.139 -0.7104  0.3900  0.0485
  134MOL0     C18008   1.534   9.495   3.185 -0.5567 -0.1365  0.3509
  134MOL0     C18009   1.184   9.245   3.178  0.9945  0.0053  0.4186
  134MOL0     C18010   1.085   9.312   3.240 -0.5091 -0.4375 -1.0038
  134MOL0     C18011   0.972   9.233   3.285  0.0211  0.1618 -0.5703
  134MOL0     C18012   0.984   9.091   3.298  0.3469 -0.8152  0.0825
  134MOL0     O18013   0.905   9.013   3.380 -0.0521  1.6616  0.4598
  134MOL0     C18014   0.764   9.035   3.366 -0.8537  0.2096 -0.1415
  134MOL0     C18015   0.693   8.945   3.471 -0.6377  1.4157 -1.2494
  134MOL0     C18016   0.633   8.806   3.418  0.1494 -1.0500  0.0134
  134MOL0     C18017   0.524   8.742   3.518 -0.1470 -0.5284 -0.2745
  134MOL0     C18018   0.391   8.747   3.458 -0.7291 -0.0270  0.7323
  134MOL0     C18019   0.278   8.755   3.428 -1.0501 -0.3676 -1.1040
  134MOL0     C18020   1.075   9.030   3.229 -0.0233  0.3353  1.0797
  134MOL0     C18021   1.174   9.100   3.159 -0.0926 -0.1625 -0.1614
  134MOL0     C18022   1.262   9.024   3.079  0.6673 -0.6712  0.1472
  134MOL0     H18023   1.612   9.227   3.003 -0.1954 -1.1089 -0.5418
  134MOL0     H18024   1.796   9.389   2.916 -0.1364  2.2478 -0.1289
  134MOL0     H18025   1.912   9.685   3.173  0.8679  1.3461 -0.6784
  134MOL0     H18026   1.956   9.542   3.087 -0.9085 -0.9927 -1.3589
  134MOL0     H18027   2.024   9.802   2.950  0.1585 -0.7521 -0.3601
  134MOL0     H18028   2.092   9.644   2.931  1.0956  0.2224  0.6393
  134MOL0     H18029   2.171   9.675   3.183 -0.4365  0.7546  0.2120
  134MOL0     H18030   2.134   9.839   3.156 -3.9639 -1.8193  1.0548
  134MOL0     H18031   2.322   9.666   2.975 -3.2047 -0.5618 -1.9404
  134MOL0     H18032   2.278   9.831   2.932 -2.1092  4.3629  3.4752
  134MOL0     H18033   2.378   9.910   3.158 -0.2256 -0.1285 -0.2366
  134MOL0     H18034   2.417   9.744   3.197  2.3880  0.8293  0.8004
  134MOL0     H18035   2.555   9.726   2.986  2.2308 -0.8858  3.5396
  134MOL0     H18036   2.510   9.906   2.954  0.4011  3.6056  2.4441
  134MOL0     H18037   2.741   9.893   3.042  0.4035 -0.5118 -1.0200
  134MOL0     H18038   2.658   9.799   3.181 -1.5488  1.0099  0.1535
  134MOL0     H18039   2.583  10.060   3.119  1.0170  1.2950  0.2105
  134MOL0     H18040   2.546   9.967   3.261 -0.0809  1.8490  1.3726
  134MOL0     H18041   2.777  10.249   3.176  2.0171  0.9372 -0.1185
  134MOL0     H18042   3.103  10.245   3.364 -0.4396 -0.1467 -0.4607
  134MOL0     H18043   2.976  10.371   3.336 -0.5312 -0.4946 -2.6081
  134MOL0     H18044   2.954  10.205   3.582 -1.8063  1.1981 -0.2150
  134MOL0     H18045   3.094  10.299   3.583 -0.2958 -0.3048 -0.4898
  134MOL0     H18046   2.805  10.414   3.539 -0.5194  0.9651  0.3483
  134MOL0     H18047   2.949  10.507   3.524  1.1209  0.0230  1.1863
  134MOL0     H18048   2.853  10.527   3.754  0.5427  0.5516 -0.8217
  134MOL0     H18049   3.011  10.441   3.764  0.9466 -3.0376 -3.4922
  134MOL0     H18050   2.747  10.085   3.677 -0.1114  1.6744 -2.0039
  134MOL0     H18051   2.505  10.042   3.677 -1.3474  0.6965 -0.6810
  134MOL0     H18052   2.190   9.854   3.751 -0.8739 -0.1501 -2.2895
  134MOL0     H18053   1.976   9.775   3.857 -0.0717  0.2276  5.4407
  134MOL0     H18054   1.771   9.728   3.983 -3.0112 -2.0897  0.2517
  134MOL0     H18055   1.809   9.887   4.072 -2.5696  3.8211 -2.1865
  134MOL0     H18056   1.567   9.936   4.049 -1.1680 -0.8583 -0.9304
  134MOL0     H18057   1.543   9.777   3.972 -1.9073  0.2945  0.4638
  134MOL0     H18058   1.624   9.681   4.180 -1.0246 -0.5874 -4.3458
  134MOL0     H18059   1.658   9.846   4.245 -0.7946 -0.0293 -1.5280
  134MOL0     H18060   1.395   9.706   4.188  2.5105  0.2060 -3.8569
  134MOL0     H18061   1.406   9.889   4.181  1.6896  0.6657 -0.9666
  134MOL0     H18062   1.468   9.892   4.413  0.8409  0.6146 -2.1691
  134MOL0     H18063   1.472   9.712   4.417 -1.2495  0.5334 -0.1918
  134MOL0     H18064   1.231   9.850   4.334  3.8987  2.7759 -0.7495
  134MOL0     H18065   1.249   9.690   4.414 -3.0375  0.7387 -2.1562
  134MOL0     H18066   1.325   9.944   4.572 -1.8119  1.0925  1.7972
  134MOL0     H18067   1.302   9.772   4.619 -0.3272  1.0301  1.9140
  134MOL0     H18068   1.107   9.906   4.689  2.5305 -0.9216  0.4621
  134MOL0     H18069   1.056   9.894   4.513  1.0950 -1.4177 -0.5426
  134MOL0     H18070   1.812  10.171   3.821  3.1951  1.1782  2.0797
  134MOL0     H18071   2.043  10.244   3.770  0.0890 -0.3388  2.4073
  134MOL0     H18072   2.441  10.426   3.855  1.1582  0.7358  0.9187
  134MOL0     H18073   2.672  10.457   3.878  0.0678  1.1083  0.6542
  134MOL0     H18074   1.626   9.690   3.186 -0.2814 -0.1983  1.3717
  134MOL0     H18075   1.460   9.542   3.249  0.3412  3.1405 -0.7916
  134MOL0     H18076   1.085   9.421   3.234 -3.2355 -0.3922 -1.4515
  134MOL0     H18077   0.882   9.278   3.326 -0.9756  0.5936 -3.0524
  134MOL0     H18078   0.723   9.009   3.268 -2.1956  0.0965  0.4291
  134MOL0     H18079   0.736   9.140   3.382  2.7463  1.6649 -2.0965
  134MOL0     H18080   0.607   8.995   3.517 -1.2992 -1.4243  0.9140
  134MOL0     H18081   0.761   8.931   3.556 -0.8775  1.0436 -1.1143
  134MOL0     H18082   0.718   8.737   3.411 -1.6277 -3.1980 -1.4157
  134MOL0     H18083   0.586   8.833   3.323 -0.7388  1.5093  1.0755
  134MOL0     H18084   0.556   8.642   3.545 -0.5188 -0.7530 -0.6540
  134MOL0     H18085   0.523   8.813   3.601 -0.5752  0.4284 -1.0745
  134MOL0     H18086   0.174   8.775   3.411 -0.9371 -0.0291 -1.4306
  134MOL0     H18087   1.064   8.923   3.212 -0.3014  0.8592 -3.4869
  134MOL0     H18088   1.203   8.942   3.037  0.5578  0.0845 -1.2249
  134MOL0     H18089   1.303   9.087   3.000  1.1435 -0.7309  0.3465
  134MOL0     H18090   1.346   8.993   3.141  0.4168  2.5985  2.3834
  135MOL0     O18091   8.077   7.756   8.830  0.1255 -0.1857  0.6778
  135MOL0     C18092   8.137   7.784   8.724 -0.7180  0.5300 -0.2364
  135MOL0     O18093   8.163   7.911   8.672 -1.4567 -0.4227  0.6338
  135MOL0     C18094   8.133   8.022   8.744  0.0866 -0.1922 -0.0014
  135MOL0     C18095   8.230   8.115   8.770 -0.8593  0.8554  0.3692
  135MOL0     C18096   8.196   8.240   8.823 -0.2726 -0.8497 -0.7796
  135MOL0     C18097   8.061   8.271   8.862 -0.1015 -0.9462  0.0855
  135MOL0     O18098   8.037   8.399   8.910  0.1388 -0.6067  0.0409
  135MOL0     C18099   7.934   8.417   9.004 -0.0149  0.0893 -0.2397
  135MOL0     C18100   8.001   8.377   9.135 -1.2681 -0.0277 -0.4646
  135MOL0     C18101   7.893   8.380   9.252  0.1143 -1.2465  0.9490
  135MOL0     C18102   7.946   8.332   9.388 -0.5773  0.9111  0.1238
  135MOL0     C18103   7.917   8.178   9.407  0.4486 -0.2094 -1.0633
  135MOL0     C18104   7.754   8.139   9.435 -1.2064 -0.1705 -0.6417
  135MOL0     C18105   7.721   8.008   9.362 -0.1417  0.2489  0.4998
  135MOL0     C18106   7.574   7.970   9.379 -0.8444  0.7443 -0.7310
  135MOL0     N18107   7.465   8.022   9.294 -0.9539 -0.8352 -0.0186
  135MOL0     C18108   7.381   7.947   9.223 -0.2349  0.5548 -0.0248
  135MOL0     C18109   7.282   8.031   9.176 -0.4342 -0.2924  0.1863
  135MOL0     C18110   7.152   7.991   9.111 -0.8058 -1.1280 -0.0236
  135MOL0     C18111   7.162   7.895   8.994 -0.5078 -0.5473  1.3399
  135MOL0     C18112   7.021   7.885   8.926  0.1870  0.0288  0.3473
  135MOL0     C18113   7.014   7.775   8.817  0.5960 -0.1715 -0.2100
  135MOL0     O18114   7.018   7.653   8.887 -0.1624  0.1795 -0.5858
  135MOL0     C18115   7.002   7.534   8.822 -0.3526 -0.4807  0.8981
  135MOL0     C18116   6.949   7.516   8.695  0.9310  0.0065  0.3713
  135MOL0     C18117   6.919   7.384   8.633  0.0066  0.3249 -0.3381
  135MOL0     C18118   6.952   7.269   8.704  0.0021 -0.1255 -0.8309
  135MOL0     C18119   6.931   7.133   8.649 -0.3479 -0.6725  0.3419
  135MOL0     O18120   6.948   7.029   8.747  0.6906  0.6393  0.6587
  135MOL0     C18121   6.968   6.895   8.706  0.0995 -0.0249  0.8932
  135MOL0     C18122   6.913   6.792   8.781  0.1339 -0.3695  0.0565
  135MOL0     C18123   6.945   6.663   8.747  0.2250  0.2573  0.6548
  135MOL0     C18124   7.034   6.623   8.647 -0.1026  1.0043 -0.2654
  135MOL0     O18125   7.060   6.492   8.612 -0.5053  0.1203  0.1866
  135MOL0     C18126   6.976   6.450   8.509  0.8214 -0.5508  0.2982
  135MOL0     C18127   7.053   6.341   8.433  0.2354  0.0789  0.4015
  135MOL0     C18128   7.058   6.209   8.512  0.0056  0.0743 -0.5817
  135MOL0     C18129   7.161   6.120   8.449  0.1844 -0.5288 -0.3176
  135MOL0     C18130   7.181   5.982   8.518 -0.0396  0.6416 -0.3002
  135MOL0     C18131   7.310   5.912   8.467 -0.6654  0.2008  0.5058
  135MOL0     C18132   7.309   5.758   8.471  0.3997 -0.6776 -0.0895
  135MOL0     C18133   7.427   5.701   8.399  0.2327  0.0099  0.0060
  135MOL0    Cl18134   7.452   5.526   8.422  0.0893 -0.3962  0.4472
  135MOL0     C18135   7.088   6.726   8.573 -0.8225 -0.9717 -0.1833
  135MOL0     C18136   7.047   6.861   8.596  0.6310 -0.8563  0.6067
  135MOL0     O18137   6.902   7.117   8.530 -0.4517  0.3852  1.0396
  135MOL0     C18138   7.016   7.291   8.832  0.1426  0.0644  0.3732
  135MOL0     C18139   7.031   7.415   8.890 -0.2157 -0.5559 -0.4600
  135MOL0     N18140   7.322   8.157   9.210  1.2743  0.0605  0.1890
  135MOL0     N18141   7.425   8.150   9.293 -0.0120 -0.1196 -0.3078
  135MOL0     C18142   7.969   8.164   8.848  0.7012  0.3620 -0.2936
  135MOL0     C18143   8.000   8.043   8.793  0.3552 -0.2126  0.4046
  135MOL0     C18144   8.191   7.667   8.657  0.5142  0.1413 -0.2381
  135MOL0     C18145   8.261   7.691   8.529 -0.4616 -0.4733 -0.1682
  135MOL0     C18146   8.310   7.586   8.454  0.0752  0.0997 -0.3565
  135MOL0     C18147   8.299   7.450   8.496 -0.9305 -0.5080 -0.8038
  135MOL0     O18148   8.336   7.344   8.424 -0.5366  0.1066 -0.0817
  135MOL0     C18149   8.418   7.353   8.303  1.0301 -0.2058 -0.7456
  135MOL0     C18150   8.440   7.217   8.244 -0.4813 -0.7070  0.3847
  135MOL0     C18151   8.327   7.149   8.165  0.2389 -0.3217  0.1606
  135MOL0     C18152   8.300   7.223   8.035 -0.4516  0.1798 -0.4470
  135MOL0     C18153   8.400   7.195   7.934  0.4787 -0.1092 -0.5635
  135MOL0     C18154   8.484   7.194   7.846 -0.0109  0.4889  0.5591
  135MOL0     C18155   8.229   7.430   8.623 -0.1120  0.3831  0.7227
  135MOL0     C18156   8.182   7.530   8.706  0.8963 -0.7248  0.2401
  135MOL0     C18157   8.143   7.485   8.852  0.2165 -0.0437 -0.5390
  135MOL0     H18158   8.329   8.084   8.739 -1.1309 -0.0670  0.3959
  135MOL0     H18159   8.262   8.323   8.846 -2.1162  0.6967 -0.7545
  135MOL0     H18160   7.904   8.522   9.012 -1.4648 -0.3574  0.4723
  135MOL0     H18161   7.839   8.376   8.967  0.7547 -0.1037 -2.1395
  135MOL0     H18162   8.086   8.446   9.139 -1.3390  0.5893 -4.6799
  135MOL0     H18163   8.036   8.274   9.123  2.1577  0.7905  1.2470
  135MOL0     H18164   7.810   8.315   9.224 -1.6536  0.3848  2.1854
  135MOL0     H18165   7.860   8.483   9.266  2.4681 -0.4404  1.0371
  135MOL0     H18166   8.054   8.335   9.403 -0.8969  2.1438  2.5641
  135MOL0     H18167   7.906   8.392   9.470 -1.1451  0.9779 -0.1949
  135MOL0     H18168   7.937   8.130   9.311 -0.7114 -1.6088 -0.6406
  135MOL0     H18169   7.980   8.139   9.487 -1.8968 -2.7202 -0.2988
  135MOL0     H18170   7.756   8.105   9.539 -1.4530 -0.7958 -0.8336
  135MOL0     H18171   7.684   8.221   9.420  0.9669  1.8042 -0.4896
  135MOL0     H18172   7.785   7.929   9.402 -0.5437 -1.0976 -1.4022
  135MOL0     H18173   7.740   8.020   9.255  1.1170 -0.8294  0.5703
  135MOL0     H18174   7.571   7.862   9.359 -1.8173  0.7931 -0.9065
  135MOL0     H18175   7.542   7.985   9.482  2.8255  0.8489  0.5468
  135MOL0     H18176   7.368   7.839   9.220 -0.9448  0.6585 -1.3820
  135MOL0     H18177   7.103   7.945   9.197 -2.8415  2.2910  0.8513
  135MOL0     H18178   7.103   8.087   9.088  2.5685  0.9036  0.5971
  135MOL0     H18179   7.225   7.926   8.910 -1.8936 -1.2028  0.0189
  135MOL0     H18180   7.202   7.799   9.028 -1.0246 -0.5763  1.8932
  135MOL0     H18181   6.995   7.980   8.878 -5.1190 -1.3895 -0.1870
  135MOL0     H18182   6.948   7.874   9.006 -1.8858  2.9971 -0.9610
  135MOL0     H18183   7.095   7.760   8.744 -0.2821  0.3901 -1.3363
  135MOL0     H18184   6.925   7.786   8.754  0.2143 -1.6969  0.0133
  135MOL0     H18185   6.930   7.609   8.640  5.1355  0.2438 -1.0877
  135MOL0     H18186   6.870   7.376   8.537 -4.3399 -0.3121  1.7286
  135MOL0     H18187   6.849   6.821   8.864  1.5480  0.0565  1.0513
  135MOL0     H18188   6.886   6.585   8.795 -0.1196 -0.6135 -1.1200
  135MOL0     H18189   6.872   6.429   8.537 -0.6292  1.5101 -2.9955
  135MOL0     H18190   6.968   6.540   8.447  2.9483 -0.4665  0.0709
  135MOL0     H18191   7.013   6.328   8.333  1.4039  0.5165 -0.1430
  135MOL0     H18192   7.151   6.389   8.421 -0.0801  1.1989  2.0327
  135MOL0     H18193   7.096   6.223   8.614  0.4499  4.6418 -1.1643
  135MOL0     H18194   6.957   6.167   8.511 -1.0960  2.4117  1.2001
  135MOL0     H18195   7.258   6.171   8.443  1.6440 -2.8234  1.6206
  135MOL0     H18196   7.142   6.105   8.342 -1.1084 -0.0382 -0.1700
  135MOL0     H18197   7.094   5.919   8.495  0.3975 -0.6410  1.3778
  135MOL0     H18198   7.190   5.968   8.626  1.4468 -3.3485 -0.8086
  135MOL0     H18199   7.329   5.943   8.364  1.1237  1.1980  1.1023
  135MOL0     H18200   7.389   5.963   8.522  1.5620 -1.0760 -1.3291
  135MOL0     H18201   7.210   5.727   8.437 -1.5906  3.1074  1.5950
  135MOL0     H18202   7.312   5.729   8.577 -2.9683 -0.6520  0.1187
  135MOL0     H18203   7.413   5.708   8.290  2.0728 -0.7141 -0.3202
  135MOL0     H18204   7.518   5.755   8.425 -0.0076  1.0425 -1.1777
  135MOL0     H18205   7.168   6.704   8.503 -0.4272  0.1321 -0.1059
  135MOL0     H18206   7.087   6.938   8.531 -0.7385 -0.2862  0.4200
  135MOL0     H18207   7.038   7.199   8.886 -3.5125  0.2423  2.4860
  135MOL0     H18208   7.085   7.414   8.984 -0.9210  0.9428 -0.0180
  135MOL0     H18209   7.866   8.192   8.868 -0.3214 -0.9978 -3.1731
  135MOL0     H18210   7.921   7.974   8.764 -0.1214  0.8031 -0.7935
  135MOL0     H18211   8.281   7.796   8.506 -1.7690 -0.8717 -3.7077
  135MOL0     H18212   8.360   7.616   8.362 -1.9784  2.8714 -0.7262
  135MOL0     H18213   8.514   7.398   8.328  1.3664  0.0683 -2.4104
  135MOL0     H18214   8.378   7.425   8.231 -1.7716  0.1058  1.0084
  135MOL0     H18215   8.458   7.149   8.329 -2.7496 -3.1317 -0.9259
  135MOL0     H18216   8.537   7.228   8.193  0.3994  0.1294  2.1421
  135MOL0     H18217   8.227   7.151   8.210 -0.5976 -0.7245 -1.5625
  135MOL0     H18218   8.354   7.044   8.149 -1.6193 -1.0480  1.4320
  135MOL0     H18219   8.202   7.191   7.997 -0.0998 -0.3735 -0.9065
  135MOL0     H18220   8.291   7.332   8.036 -1.6143  0.1237 -1.5900
  135MOL0     H18221   8.550   7.179   7.763 -3.0531  0.2369 -2.0436
  135MOL0     H18222   8.220   7.327   8.656 -0.7686 -0.3541 -1.5633
  135MOL0     H18223   8.162   7.382   8.882 -2.5742  0.4452  3.8160
  135MOL0     H18224   8.195   7.550   8.923 -0.6907  2.8993 -2.3875
  135MOL0     H18225   8.040   7.508   8.881  1.1098 -0.2250  3.4021
  136MOL0     O18226  10.243   6.686   6.551 -0.2847 -0.5477  0.1000
  136MOL0     C18227  10.192   6.723   6.658 -0.9285  0.7033  0.6029
  136MOL0     O18228  10.258   6.721   6.783  0.6162  0.3479  0.1294
  136MOL0     C18229  10.394   6.729   6.769  1.1238 -0.0691 -1.3087
  136MOL0     C18230  10.459   6.848   6.757 -0.9980 -0.4956 -0.5639
  136MOL0     C18231  10.596   6.864   6.732 -0.2895  0.0869  0.3734
  136MOL0     C18232  10.670   6.744   6.713 -0.1277 -0.9673 -0.4632
  136MOL0     O18233  10.804   6.736   6.687 -0.2881 -0.0454  0.8802
  136MOL0     C18234  10.888   6.856   6.672 -0.0052  0.3217  0.2489
  136MOL0     C18235  11.036   6.812   6.670 -1.2540 -0.0208 -0.7609
  136MOL0     C18236  11.065   6.677   6.597  0.3584 -0.8116 -0.2584
  136MOL0     C18237  11.212   6.638   6.626  0.2771  0.0316 -1.0650
  136MOL0     C18238  11.306   6.734   6.560 -1.3491 -1.1908 -0.2170
  136MOL0     C18239  11.454   6.683   6.573  0.5739  0.1246  1.4290
  136MOL0     C18240  11.557   6.791   6.564  0.2549  0.2616 -0.4586
  136MOL0     C18241  11.618   6.801   6.424 -0.1967  0.1582 -0.0549
  136MOL0     N18242  11.683   6.940   6.396 -0.1126 -0.2433  0.4411
  136MOL0     C18243  11.786   6.980   6.473 -0.7486  0.8137  0.4014
  136MOL0     C18244  11.792   7.111   6.446  0.8849 -0.3727 -0.1118
  136MOL0     C18245  11.880   7.221   6.500 -0.7997 -0.6417  0.3091
  136MOL0     C18246  11.805   7.320   6.588  0.1739 -0.0905 -0.4694
  136MOL0     C18247  11.882   7.429   6.665  0.2700  0.7301 -0.0855
  136MOL0     C18248  11.807   7.536   6.745  0.0045  0.5368 -0.8124
  136MOL0     O18249  11.904   7.624   6.810  0.6310  0.4784  0.0310
  136MOL0     C18250  11.974   7.569   6.918  0.1513 -0.4457  0.0267
  136MOL0     C18251  12.085   7.647   6.958 -0.1834 -0.0299  0.5802
  136MOL0     C18252  12.175   7.589   7.049  0.3417 -1.3473  0.1263
  136MOL0     C18253  12.147   7.464   7.106 -0.5930 -0.0030  0.0745
  136MOL0     C18254  12.243   7.415   7.210 -0.3388 -0.5039  0.1530
  136MOL0     O18255  12.215   7.294   7.268  0.7255  0.1255  0.0588
  136MOL0     C18256  12.269   7.276   7.396  0.0022 -0.0884 -0.2862
  136MOL0     C18257  12.196   7.309   7.516  0.6764 -0.7477  0.3347
  136MOL0     C18258  12.263   7.292   7.635  0.7122 -0.2387  1.0738
  136MOL0     C18259  12.391   7.233   7.641 -0.2409  0.2392 -0.6939
  136MOL0     O18260  12.447   7.203   7.762 -0.2726 -0.0762  0.1612
  136MOL0     C18261  12.381   7.103   7.848 -0.5211 -0.5208  0.2720
  136MOL0     C18262  12.292   7.167   7.959  0.0049 -0.2563  0.7484
  136MOL0     C18263  12.369   7.207   8.083  0.2422 -0.5121 -0.3371
  136MOL0     C18264  12.407   7.360   8.085 -0.2114  0.3535  0.9330
  136MOL0     C18265  12.468   7.408   8.217 -0.5673 -0.4203  0.7442
  136MOL0     C18266  12.358   7.433   8.322  0.2197  0.0354 -0.3851
  136MOL0     C18267  12.422   7.509   8.448 -0.0264  0.1119 -0.1886
  136MOL0     C18268  12.438   7.420   8.570 -0.5122  0.2257  0.2088
  136MOL0    Cl18269  12.443   7.516   8.715 -0.1803 -0.4635 -0.6586
  136MOL0     C18270  12.457   7.203   7.523  0.7284  0.2495 -0.2530
  136MOL0     C18271  12.391   7.209   7.401  0.0857  0.6023 -0.8960
  136MOL0     O18272  12.334   7.488   7.245 -0.7201  0.5698  0.8898
  136MOL0     C18273  12.034   7.399   7.072 -0.7239 -1.0612  0.3546
  136MOL0     C18274  11.951   7.448   6.984  0.0170  0.7662 -0.4761
  136MOL0     N18275  11.695   7.143   6.356 -0.8348  0.4426  0.6051
  136MOL0     N18276  11.624   7.042   6.331  0.3483  0.8356 -0.8376
  136MOL0     C18277  10.604   6.623   6.733 -0.7107  0.3725  0.6052
  136MOL0     C18278  10.469   6.611   6.758 -0.7206  0.2886 -0.1830
  136MOL0     C18279  10.056   6.769   6.661  0.5257 -0.0816  0.0517
  136MOL0     C18280   9.982   6.761   6.784  0.0873 -0.4698  0.4692
  136MOL0     C18281   9.846   6.798   6.781  0.8712  0.6065  0.3151
  136MOL0     C18282   9.776   6.832   6.663  0.1035  0.4040  0.3982
  136MOL0     O18283   9.635   6.856   6.665 -0.7925  0.4018 -0.1295
  136MOL0     C18284   9.561   6.796   6.556  0.4179 -0.0279  0.2346
  136MOL0     C18285   9.414   6.824   6.596 -0.2866  0.4340 -0.3344
  136MOL0     C18286   9.329   6.721   6.523 -0.3418  0.4772 -0.9086
  136MOL0     C18287   9.186   6.729   6.559  0.1247  0.5308  0.2353
  136MOL0     C18288   9.138   6.860   6.599 -0.5139 -0.8803  0.1676
  136MOL0     C18289   9.102   6.976   6.630 -0.1798  0.0140  0.6049
  136MOL0     C18290   9.853   6.855   6.550  0.1164  0.0753 -0.1465
  136MOL0     C18291   9.990   6.828   6.547  0.6705 -0.0914  0.1839
  136MOL0     C18292  10.049   6.855   6.413  0.4897  0.2888 -0.1073
  136MOL0     H18293  10.401   6.940   6.761  0.7059  0.6036 -0.3501
  136MOL0     H18294  10.635   6.964   6.717 -1.1199  0.4410  0.5394
  136MOL0     H18295  10.870   6.896   6.572  0.4570 -0.3654 -0.1166
  136MOL0     H18296  10.873   6.940   6.741 -0.7561  0.6749 -0.3228
  136MOL0     H18297  11.054   6.802   6.777 -4.0841 -2.4464 -0.3744
  136MOL0     H18298  11.101   6.889   6.628  1.6159 -0.2862  2.7439
  136MOL0     H18299  11.053   6.688   6.489 -3.0380 -1.3529 -0.0289
  136MOL0     H18300  10.989   6.602   6.620  0.3247 -0.6042  0.3075
  136MOL0     H18301  11.217   6.633   6.735 -2.9802 -5.2602 -0.7825
  136MOL0     H18302  11.236   6.538   6.586  0.7599 -0.0052 -0.6967
  136MOL0     H18303  11.294   6.767   6.456  1.5299  0.7656 -0.0545
  136MOL0     H18304  11.294   6.822   6.624  0.2900 -2.4969  1.9907
  136MOL0     H18305  11.463   6.644   6.675  2.1004 -2.0643  0.5283
  136MOL0     H18306  11.479   6.594   6.514 -0.2720 -3.1247  5.4811
  136MOL0     H18307  11.635   6.753   6.630 -1.7023 -2.1785  0.6281
  136MOL0     H18308  11.512   6.886   6.595  1.2997 -0.2513  2.9963
  136MOL0     H18309  11.695   6.723   6.423 -0.6099 -0.8462  6.3915
  136MOL0     H18310  11.541   6.797   6.347  1.9342  1.0173 -2.3678
  136MOL0     H18311  11.853   6.929   6.542 -0.8987  0.5797  0.3735
  136MOL0     H18312  11.973   7.187   6.547  0.5354 -0.9632 -2.3718
  136MOL0     H18313  11.924   7.272   6.414  1.0624  0.4977  1.8588
  136MOL0     H18314  11.724   7.363   6.529  1.4505  0.6667 -1.7271
  136MOL0     H18315  11.750   7.276   6.671 -0.9834  1.6349 -0.2540
  136MOL0     H18316  11.953   7.466   6.590  0.4903  0.2326 -0.1255
  136MOL0     H18317  11.948   7.370   6.730 -0.8110  0.1360  0.4918
  136MOL0     H18318  11.742   7.496   6.823  0.5745  1.6389  0.2513
  136MOL0     H18319  11.743   7.585   6.671  0.5956 -1.4422 -2.7523
  136MOL0     H18320  12.101   7.743   6.910 -2.4321 -1.2990 -3.2027
  136MOL0     H18321  12.262   7.649   7.075 -2.0522  2.2303  0.6150
  136MOL0     H18322  12.094   7.347   7.518  1.0369  0.1943  1.0505
  136MOL0     H18323  12.207   7.324   7.722 -0.1984  0.4694  0.2484
  136MOL0     H18324  12.327   7.029   7.789  0.3448  1.0333 -2.7173
  136MOL0     H18325  12.466   7.046   7.887  1.0007 -0.3415 -2.5298
  136MOL0     H18326  12.239   7.254   7.918  1.2292 -0.2878 -1.0325
  136MOL0     H18327  12.220   7.090   7.988  0.3201 -1.7287 -2.0823
  136MOL0     H18328  12.305   7.198   8.171  0.4553  1.1795  0.0205
  136MOL0     H18329  12.452   7.138   8.102  0.7475  0.8073  2.9536
  136MOL0     H18330  12.310   7.403   8.060  0.3678  0.3124 -1.6611
  136MOL0     H18331  12.478   7.382   8.005 -1.6064 -1.0341 -0.7749
  136MOL0     H18332  12.514   7.503   8.187  1.2987 -1.8648 -1.3487
  136MOL0     H18333  12.547   7.348   8.262 -0.2193  0.2559  1.0573
  136MOL0     H18334  12.279   7.491   8.274 -0.8108 -1.4702 -0.5775
  136MOL0     H18335  12.306   7.346   8.363 -2.8068  2.7898  2.1529
  136MOL0     H18336  12.362   7.598   8.472  1.0822  0.1379  2.8816
  136MOL0     H18337  12.514   7.557   8.414  0.8277 -2.4133 -1.7397
  136MOL0     H18338  12.359   7.345   8.584  1.5864 -1.8076  2.1726
  136MOL0     H18339  12.530   7.362   8.574  0.4925  1.8417  1.2819
  136MOL0     H18340  12.552   7.151   7.513 -1.9339 -4.7542 -3.3106
  136MOL0     H18341  12.433   7.158   7.315  4.6242  1.0140  0.8344
  136MOL0     H18342  12.002   7.313   7.131 -1.1054  0.1784  2.0101
  136MOL0     H18343  11.858   7.397   6.959 -0.2177  1.8852 -2.0151
  136MOL0     H18344  10.665   6.534   6.719 -0.0483  1.2969 -3.4435
  136MOL0     H18345  10.426   6.513   6.774 -1.0665  0.5627  0.6417
  136MOL0     H18346  10.025   6.744   6.882  0.0837 -1.2859  0.3379
  136MOL0     H18347   9.789   6.795   6.873  3.0943  0.7456  1.7832
  136MOL0     H18348   9.574   6.687   6.552 -1.0389 -0.2369 -3.7722
  136MOL0     H18349   9.572   6.839   6.456  0.0596 -3.9250 -1.6522
  136MOL0     H18350   9.389   6.922   6.555  2.4884  0.8241 -1.3273
  136MOL0     H18351   9.395   6.815   6.703  0.3747  0.3350 -0.2198
  136MOL0     H18352   9.380   6.627   6.544  1.2837  1.9971  2.7746
  136MOL0     H18353   9.340   6.733   6.415 -0.0432  0.7815 -0.8462
  136MOL0     H18354   9.118   6.680   6.490  0.5911  2.0730 -1.3953
  136MOL0     H18355   9.173   6.664   6.646 -2.2754  1.2622  0.4938
  136MOL0     H18356   9.062   7.072   6.655  1.1820  2.5871 -5.3224
  136MOL0     H18357   9.811   6.882   6.454  1.0737 -2.8035 -1.4790
  136MOL0     H18358   9.987   6.928   6.360 -0.8633 -0.7308  0.0233
  136MOL0     H18359  10.152   6.890   6.422  0.1026  1.5477 -0.4070
  136MOL0     H18360  10.048   6.767   6.349 -2.9607  1.7394 -2.3608
  137MOL0     O18361   4.407   2.213   9.516  0.1274 -0.2354  0.0665
  137MOL0     C18362   4.411   2.214   9.639  0.1019 -1.8825  1.0515
  137MOL0     O18363   4.459   2.124   9.726 -1.1812  1.0204 -0.4694
  137MOL0     C18364   4.500   2.007   9.677 -0.9337  0.8949  0.2808
  137MOL0     C18365   4.426   1.934   9.575  0.3175 -0.0036 -0.3448
  137MOL0     C18366   4.474   1.807   9.541  0.5005  0.1465 -0.1143
  137MOL0     C18367   4.593   1.752   9.595 -0.1010 -0.1603 -0.9725
  137MOL0     O18368   4.623   1.620   9.595 -0.7189 -0.3584  0.3011
  137MOL0     C18369   4.611   1.551   9.471 -0.0615  0.1317 -0.0973
  137MOL0     C18370   4.746   1.485   9.428  1.2620 -0.1726 -0.5687
  137MOL0     C18371   4.764   1.360   9.521  0.3621  1.3303 -0.4375
  137MOL0     C18372   4.862   1.261   9.462 -0.3227  0.1423 -0.8993
  137MOL0     C18373   4.998   1.322   9.456  0.1525 -1.0955 -0.8768
  137MOL0     C18374   5.109   1.223   9.407 -0.7927  0.5829 -0.3966
  137MOL0     C18375   5.229   1.305   9.347  0.3967  0.8833 -0.4608
  137MOL0     C18376   5.327   1.222   9.260  1.3922 -0.2442 -1.0146
  137MOL0     N18377   5.374   1.092   9.317 -0.8531 -0.6621 -0.3980
  137MOL0     C18378   5.470   1.066   9.408  0.3549  0.2216 -0.2742
  137MOL0     C18379   5.486   0.932   9.419  0.6645 -0.9930  0.1667
  137MOL0     C18380   5.582   0.853   9.507  0.4524  0.0412 -0.8562
  137MOL0     C18381   5.487   0.803   9.623  0.8348  0.3185 -0.7258
  137MOL0     C18382   5.470   0.913   9.729  0.4324 -0.4463  0.1273
  137MOL0     C18383   5.349   0.902   9.819  0.8621  1.2625  0.0227
  137MOL0     O18384   5.354   0.771   9.886 -0.0666  0.3366 -0.1826
  137MOL0     C18385   5.241   0.725   9.959  0.2544 -0.8042 -0.3406
  137MOL0     C18386   5.149   0.811  10.013  0.0919 -0.7015  0.5081
  137MOL0     C18387   5.041   0.770  10.087  0.3491  0.1415 -0.0454
  137MOL0     C18388   5.019   0.624  10.098 -0.2611  0.3669 -0.3961
  137MOL0     C18389   4.903   0.568  10.176  0.7234 -0.0796 -0.1857
  137MOL0     O18390   4.804   0.660  10.188 -0.1001  0.0263  0.7614
  137MOL0     C18391   4.694   0.608  10.243  0.0662  0.4144  0.1500
  137MOL0     C18392   4.685   0.547  10.370  0.8107  0.6579 -0.3264
  137MOL0     C18393   4.559   0.483  10.404 -0.7558  0.6369 -0.3171
  137MOL0     C18394   4.442   0.478  10.321  0.6205 -0.7496 -0.9328
  137MOL0     O18395   4.329   0.423  10.374  0.1736 -0.5469  0.4726
  137MOL0     C18396   4.205   0.449  10.297  0.6507  0.5839  0.8173
  137MOL0     C18397   4.102   0.408  10.404 -0.3818  0.2594  0.2986
  137MOL0     C18398   3.958   0.398  10.360  0.0477 -0.4169  0.6648
  137MOL0     C18399   3.908   0.528  10.295 -0.4088 -0.1176  0.0600
  137MOL0     C18400   3.766   0.511  10.243 -0.6304 -0.0635  0.2082
  137MOL0     C18401   3.712   0.609  10.136  0.1885 -0.7937  1.0107
  137MOL0     C18402   3.755   0.601   9.992  0.5837 -0.1085 -0.3799
  137MOL0     C18403   3.774   0.736   9.929  0.3857 -0.2055 -1.0879
  137MOL0    Cl18404   3.741   0.725   9.757 -0.2648  0.3528  0.4240
  137MOL0     C18405   4.459   0.531  10.196  0.6657 -0.0040 -0.5840
  137MOL0     C18406   4.584   0.593  10.158  0.4705  0.4656  0.8052
  137MOL0     O18407   4.905   0.445  10.208 -0.3873 -0.4110  0.5054
  137MOL0     C18408   5.117   0.540  10.033  0.0825 -0.6167  0.5770
  137MOL0     C18409   5.229   0.591   9.972  0.9463 -0.2166  0.0680
  137MOL0     N18410   5.409   0.869   9.320 -0.5242 -0.6950 -0.2102
  137MOL0     N18411   5.351   0.968   9.260 -0.3227 -0.2800  0.4520
  137MOL0     C18412   4.670   1.833   9.681 -0.2124 -0.9497 -0.1963
  137MOL0     C18413   4.632   1.962   9.717  0.0681  0.2873 -0.5734
  137MOL0     C18414   4.357   2.329   9.704 -0.0423 -1.6952  0.2047
  137MOL0     C18415   4.422   2.380   9.825  0.5323 -0.2226  0.2063
  137MOL0     C18416   4.391   2.505   9.877  0.2352  0.1331 -0.0478
  137MOL0     C18417   4.291   2.587   9.818  0.7208  0.4261 -0.0461
  137MOL0     O18418   4.259   2.713   9.870  0.5912  0.3577  0.1560
  137MOL0     C18419   4.361   2.782   9.938 -0.5716  0.9285 -0.0986
  137MOL0     C18420   4.321   2.932   9.926 -0.0184 -0.3323 -0.5542
  137MOL0     C18421   4.448   3.000   9.877  0.2553  0.8889 -0.5647
  137MOL0     C18422   4.418   3.152   9.871 -0.0196 -0.0517  0.2621
  137MOL0     C18423   4.323   3.190   9.763 -0.0802  0.3692 -0.5507
  137MOL0     C18424   4.253   3.232   9.675 -0.1219  0.1973  0.4741
  137MOL0     C18425   4.220   2.543   9.705 -0.0496  0.6724  0.0099
  137MOL0     C18426   4.252   2.414   9.648 -0.6755 -0.0626 -0.6730
  137MOL0     C18427   4.177   2.365   9.529  0.5439 -0.4744 -0.8336
  137MOL0     H18428   4.329   1.956   9.530 -2.2678 -4.9906  1.9699
  137MOL0     H18429   4.409   1.746   9.480 -0.6525  0.5887  0.6270
  137MOL0     H18430   4.532   1.476   9.468 -0.5107  0.5804  0.4105
  137MOL0     H18431   4.579   1.624   9.396 -1.7436  0.1450  0.6050
  137MOL0     H18432   4.824   1.555   9.458  3.2479 -3.3341  2.4583
  137MOL0     H18433   4.751   1.465   9.321  0.7521  0.3852 -0.7060
  137MOL0     H18434   4.672   1.310   9.551  2.0484 -1.1495  0.9593
  137MOL0     H18435   4.814   1.396   9.612 -0.5270 -0.3095  0.7382
  137MOL0     H18436   4.862   1.176   9.532  1.7018  0.3436 -0.5880
  137MOL0     H18437   4.824   1.227   9.366 -2.5259  3.0016 -1.1494
  137MOL0     H18438   4.993   1.417   9.401 -1.0274 -1.1727 -0.9319
  137MOL0     H18439   5.019   1.353   9.559 -4.5960  0.2263 -0.0840
  137MOL0     H18440   5.155   1.177   9.494 -1.7297  0.5025  0.0652
  137MOL0     H18441   5.075   1.159   9.325  0.3637  1.9367 -1.9990
  137MOL0     H18442   5.285   1.361   9.422 -2.5606  1.5250  1.4723
  137MOL0     H18443   5.194   1.378   9.272  0.1952  2.0918  0.7728
  137MOL0     H18444   5.286   1.198   9.162  0.4265 -1.8573 -0.2610
  137MOL0     H18445   5.421   1.276   9.249 -0.1742  2.7557 -0.7915
  137MOL0     H18446   5.518   1.142   9.469  0.9992 -1.7576  1.8465
  137MOL0     H18447   5.637   0.775   9.453  3.6786  1.9557 -0.5824
  137MOL0     H18448   5.653   0.930   9.538 -0.4482  1.4447 -2.1158
  137MOL0     H18449   5.395   0.754   9.591  3.4326 -1.8544 -6.1362
  137MOL0     H18450   5.539   0.713   9.658  0.0845 -1.3687 -3.6683
  137MOL0     H18451   5.477   1.008   9.675  2.8435  0.4009  1.7800
  137MOL0     H18452   5.558   0.909   9.794  0.3787  1.9511  0.4133
  137MOL0     H18453   5.257   0.908   9.761  0.1380 -1.3609  0.7558
  137MOL0     H18454   5.352   0.980   9.896  0.5706 -1.0571  2.5390
  137MOL0     H18455   5.163   0.915   9.986 -0.2682 -0.7101  0.2797
  137MOL0     H18456   4.981   0.843  10.140 -1.7153  0.8778 -3.1501
  137MOL0     H18457   4.775   0.549  10.431 -0.0314  1.0345  0.9505
  137MOL0     H18458   4.545   0.434  10.500 -0.1799 -0.4406 -0.7586
  137MOL0     H18459   4.210   0.554  10.265  0.8690  0.4810  0.5037
  137MOL0     H18460   4.192   0.376  10.216  0.1088  1.2436  0.2904
  137MOL0     H18461   4.132   0.317  10.457  0.1806  2.5819  4.3792
  137MOL0     H18462   4.117   0.481  10.484  1.9923  0.7760 -0.5489
  137MOL0     H18463   3.952   0.311  10.294 -1.2644 -0.6182  1.0396
  137MOL0     H18464   3.889   0.371  10.440 -1.9126 -0.9141 -1.1258
  137MOL0     H18465   3.973   0.556  10.211 -2.2548  2.2438 -0.6755
  137MOL0     H18466   3.915   0.613  10.364  1.8919 -3.7112  4.8072
  137MOL0     H18467   3.701   0.520  10.330 -0.7437 -0.0033  0.1176
  137MOL0     H18468   3.755   0.409  10.206  3.2029  0.5057 -3.2179
  137MOL0     H18469   3.604   0.606  10.150  0.2097  2.6625  3.4154
  137MOL0     H18470   3.732   0.709  10.176 -1.7764  0.7009 -1.4432
  137MOL0     H18471   3.683   0.540   9.936  2.4702 -1.9145 -0.9439
  137MOL0     H18472   3.850   0.547   9.982  0.4914 -0.0762 -1.5239
  137MOL0     H18473   3.691   0.798   9.963 -1.9410 -3.6452  0.0709
  137MOL0     H18474   3.870   0.784   9.950 -0.4556  1.9097 -1.8483
  137MOL0     H18475   4.388   0.524  10.114  1.5726  1.3123 -1.5212
  137MOL0     H18476   4.595   0.615  10.053  0.8864  0.7509  0.9077
  137MOL0     H18477   5.089   0.435  10.033 -4.2388  0.2893 -1.2892
  137MOL0     H18478   5.309   0.535   9.925  0.4288 -1.2307  0.3558
  137MOL0     H18479   4.765   1.795   9.718  1.1983  3.1143  0.9260
  137MOL0     H18480   4.690   2.011   9.795 -2.5457  0.2874  1.5377
  137MOL0     H18481   4.503   2.324   9.871 -0.3211 -0.0253  2.0279
  137MOL0     H18482   4.449   2.555   9.954 -0.3398  1.7827 -0.6485
  137MOL0     H18483   4.463   2.756   9.907 -0.9883  0.3297 -1.0123
  137MOL0     H18484   4.345   2.745  10.040  0.0814 -0.4758 -0.4811
  137MOL0     H18485   4.288   2.965  10.025 -1.6951  0.1046 -1.2211
  137MOL0     H18486   4.241   2.951   9.854 -0.1918 -0.7066 -0.4628
  137MOL0     H18487   4.487   2.967   9.781 -2.4306 -0.5032 -1.2683
  137MOL0     H18488   4.516   2.960   9.953 -1.3325 -5.4133 -1.8854
  137MOL0     H18489   4.385   3.192   9.968 -0.7661  1.5635 -0.6214
  137MOL0     H18490   4.512   3.200   9.842  1.0915 -1.8059  0.7869
  137MOL0     H18491   4.204   3.278   9.591  1.2054  5.0084  2.0101
  137MOL0     H18492   4.137   2.606   9.673 -1.0294 -0.3656  0.4549
  137MOL0     H18493   4.100   2.437   9.500  2.2573  1.7692 -0.1142
  137MOL0     H18494   4.236   2.360   9.437  1.3717 -2.7850 -0.2338
  137MOL0     H18495   4.140   2.265   9.553 -0.7797  0.9326  4.1994
  138MOL0     O18496   8.449   2.217   8.176  1.4271  0.5475  0.6135
  138MOL0     C18497   8.439   2.341   8.179 -0.4402 -0.9950  0.2215
  138MOL0     O18498   8.541   2.427   8.169  1.0485 -0.7625  0.2330
  138MOL0     C18499   8.662   2.397   8.224 -1.7255 -0.3890 -0.5468
  138MOL0     C18500   8.741   2.292   8.173  0.3935 -0.0956  0.0363
  138MOL0     C18501   8.874   2.274   8.200 -0.1039  0.2045 -0.6818
  138MOL0     C18502   8.936   2.372   8.278  0.9120 -0.0096 -0.5636
  138MOL0     O18503   9.065   2.359   8.315 -0.3207 -0.3731 -0.9618
  138MOL0     C18504   9.126   2.240   8.371  0.0755 -1.0145 -0.3636
  138MOL0     C18505   9.240   2.184   8.290  1.6930  0.4439  0.6918
  138MOL0     C18506   9.362   2.275   8.265 -0.2377 -0.0893 -0.6233
  138MOL0     C18507   9.480   2.198   8.216 -0.4808  0.4725 -0.7126
  138MOL0     C18508   9.612   2.265   8.176  0.3118 -0.6678  0.8109
  138MOL0     C18509   9.583   2.374   8.084  0.6854  0.3395 -0.1766
  138MOL0     C18510   9.690   2.431   8.004  0.0176  0.4884  0.0703
  138MOL0     C18511   9.677   2.394   7.855  0.7009 -0.3591  0.0213
  138MOL0     N18512   9.809   2.399   7.781 -0.2969  0.4387 -0.1890
  138MOL0     C18513   9.925   2.484   7.778  0.4930  0.0594  0.1959
  138MOL0     C18514  10.006   2.441   7.692 -0.4629 -0.2298 -0.7191
  138MOL0     C18515  10.143   2.495   7.657  0.8922  0.0509  1.0473
  138MOL0     C18516  10.253   2.423   7.739  0.5394  0.0664  0.0862
  138MOL0     C18517  10.395   2.467   7.694 -0.3438  0.6727  0.7939
  138MOL0     C18518  10.423   2.609   7.709 -0.7820  0.9677  0.7925
  138MOL0     O18519  10.558   2.609   7.670  0.4368  0.3400 -0.1066
  138MOL0     C18520  10.627   2.723   7.682 -0.1477 -0.6294 -0.2808
  138MOL0     C18521  10.578   2.846   7.731  0.2040  0.3722 -0.2616
  138MOL0     C18522  10.648   2.961   7.753 -0.4364 -0.4698 -0.8295
  138MOL0     C18523  10.793   2.952   7.743 -0.0834  0.0387 -0.4774
  138MOL0     C18524  10.883   3.060   7.775 -0.9215 -0.3781 -0.3732
  138MOL0     O18525  11.015   3.033   7.806  0.4295  0.8523 -0.2535
  138MOL0     C18526  11.088   3.149   7.832  0.7752 -0.0002  0.6492
  138MOL0     C18527  11.191   3.170   7.737 -0.2431 -0.5922  0.3598
  138MOL0     C18528  11.268   3.287   7.749 -0.1297 -1.8057  0.5764
  138MOL0     C18529  11.236   3.380   7.847  0.6830  0.6066 -0.4040
  138MOL0     O18530  11.293   3.501   7.851  0.0383  0.3354  0.4728
  138MOL0     C18531  11.246   3.583   7.744  1.0591  0.1769 -0.1416
  138MOL0     C18532  11.345   3.694   7.726  0.0684 -0.2109 -0.7341
  138MOL0     C18533  11.333   3.803   7.828  0.8203 -0.8329 -0.0294
  138MOL0     C18534  11.429   3.918   7.805 -0.4375  0.5158 -0.8424
  138MOL0     C18535  11.389   4.038   7.898 -0.2655 -0.5796 -0.0491
  138MOL0     C18536  11.495   4.159   7.881  0.5020 -0.2030  0.4613
  138MOL0     C18537  11.467   4.287   7.959  0.1540  0.0823  0.4222
  138MOL0     C18538  11.566   4.395   7.940 -0.2229 -0.0593  0.3233
  138MOL0    Cl18539  11.711   4.316   8.011  0.3950 -0.1959  0.2615
  138MOL0     C18540  11.146   3.346   7.945  0.4544 -0.1550  0.1208
  138MOL0     C18541  11.072   3.232   7.937 -0.3292 -0.5791 -0.3343
  138MOL0     O18542  10.833   3.170   7.778  0.1655 -0.2293  0.5053
  138MOL0     C18543  10.842   2.826   7.697  0.6788  0.6510 -0.1217
  138MOL0     C18544  10.756   2.716   7.665 -0.5047 -0.0448  0.0862
  138MOL0     N18545   9.956   2.328   7.628 -0.7865  0.4996  0.4792
  138MOL0     N18546   9.846   2.304   7.688  0.3109 -0.0837 -0.9019
  138MOL0     C18547   8.856   2.481   8.318 -0.0888  0.2500 -0.8848
  138MOL0     C18548   8.722   2.496   8.298 -0.4830  0.0388 -0.5911
  138MOL0     C18549   8.300   2.401   8.195 -0.2752 -0.4923 -0.4373
  138MOL0     C18550   8.189   2.311   8.190 -0.0617  0.8452 -0.2110
  138MOL0     C18551   8.057   2.347   8.212  0.6277 -0.0436  1.0451
  138MOL0     C18552   8.020   2.474   8.228 -0.1227 -1.3649  0.6236
  138MOL0     O18553   7.888   2.508   8.251 -0.1263 -0.4683  0.2110
  138MOL0     C18554   7.859   2.644   8.292 -0.0277  0.0599  1.6251
  138MOL0     C18555   7.725   2.637   8.355  0.3665  0.4241 -0.3197
  138MOL0     C18556   7.597   2.597   8.269  0.7968 -0.1467  0.1919
  138MOL0     C18557   7.566   2.689   8.147  0.1868 -0.3520 -0.4594
  138MOL0     C18558   7.536   2.828   8.195 -0.5131  0.4452 -0.8973
  138MOL0     C18559   7.537   2.942   8.236  0.5983 -0.0625  0.0353
  138MOL0     C18560   8.127   2.571   8.231  0.3071  0.3460 -0.4533
  138MOL0     C18561   8.261   2.544   8.221 -1.2816 -0.5304  0.3976
  138MOL0     C18562   8.354   2.668   8.237 -0.4113 -0.0947 -0.1148
  138MOL0     H18563   8.702   2.218   8.104  1.5447 -1.2793  0.6146
  138MOL0     H18564   8.928   2.188   8.161 -1.4161 -1.0564  0.1784
  138MOL0     H18565   9.169   2.274   8.465  2.2406  2.8291 -2.4946
  138MOL0     H18566   9.054   2.160   8.394  1.9482 -2.7346 -0.2579
  138MOL0     H18567   9.214   2.156   8.188 -0.3965  1.3836  0.9184
  138MOL0     H18568   9.263   2.090   8.342 -1.4854  0.1298  1.7227
  138MOL0     H18569   9.402   2.328   8.351 -1.4077  1.1220 -0.7954
  138MOL0     H18570   9.327   2.348   8.191 -7.8431  0.5306  2.6330
  138MOL0     H18571   9.523   2.137   8.296  0.8458  2.4496  0.1280
  138MOL0     H18572   9.451   2.135   8.130 -2.8999 -0.2017  0.5055
  138MOL0     H18573   9.661   2.300   8.267  2.2719  0.8935 -0.7653
  138MOL0     H18574   9.683   2.199   8.126 -0.8204  0.3500 -2.4025
  138MOL0     H18575   9.511   2.324   8.019  0.7422  0.1100 -0.0626
  138MOL0     H18576   9.529   2.447   8.144 -2.5995 -2.2075  0.2600
  138MOL0     H18577   9.784   2.410   8.055 -0.7019  0.6434  1.5189
  138MOL0     H18578   9.679   2.540   8.005 -1.5223  0.3606  0.4422
  138MOL0     H18579   9.626   2.297   7.853 -1.1267  0.5355  1.0183
  138MOL0     H18580   9.606   2.469   7.820 -1.7653 -3.0975 -1.2385
  138MOL0     H18581   9.951   2.564   7.846 -1.7242  0.3855  0.7293
  138MOL0     H18582  10.153   2.483   7.549  0.4500  2.1554  0.7333
  138MOL0     H18583  10.153   2.603   7.669 -0.3869  0.7339 -2.7849
  138MOL0     H18584  10.243   2.458   7.842  0.6486  0.5791 -0.0707
  138MOL0     H18585  10.238   2.315   7.729  1.2029  0.0794 -1.4056
  138MOL0     H18586  10.402   2.420   7.596 -1.0743  1.4262  0.3738
  138MOL0     H18587  10.468   2.410   7.752  2.6861  2.2988 -1.1804
  138MOL0     H18588  10.409   2.631   7.815  2.8203 -4.2801  2.8077
  138MOL0     H18589  10.366   2.677   7.645  1.8223  1.0540 -1.6322
  138MOL0     H18590  10.471   2.853   7.749  0.3939 -0.2749  1.2887
  138MOL0     H18591  10.618   3.060   7.783 -0.2799 -0.7433  0.2622
  138MOL0     H18592  11.203   3.105   7.651  0.7362  0.8491 -0.6404
  138MOL0     H18593  11.354   3.320   7.693 -0.8229 -0.4076  0.2847
  138MOL0     H18594  11.249   3.529   7.649 -1.2584 -2.2295  1.0230
  138MOL0     H18595  11.141   3.615   7.753  0.5691 -1.1624 -0.8173
  138MOL0     H18596  11.446   3.651   7.722  1.9077  3.4179  1.5640
  138MOL0     H18597  11.320   3.737   7.629 -1.2294  0.2859 -0.2003
  138MOL0     H18598  11.233   3.844   7.818  0.8283 -0.5535  0.9300
  138MOL0     H18599  11.336   3.761   7.929 -1.1070 -0.3562  0.2504
  138MOL0     H18600  11.429   3.958   7.703  0.4384  1.1669 -0.5987
  138MOL0     H18601  11.529   3.875   7.819  1.1016  2.4111 -4.5458
  138MOL0     H18602  11.388   4.011   8.004  1.3879  2.4945  0.8702
  138MOL0     H18603  11.291   4.085   7.884  0.2336  2.5901  4.5769
  138MOL0     H18604  11.595   4.122   7.908 -0.1241 -1.0450  1.7026
  138MOL0     H18605  11.481   4.190   7.777  0.0475 -2.5028 -0.2256
  138MOL0     H18606  11.468   4.257   8.065  0.1065 -2.6851 -0.2858
  138MOL0     H18607  11.365   4.321   7.941 -0.9357 -2.2603  1.6464
  138MOL0     H18608  11.590   4.420   7.836  0.3041  0.8348  0.6461
  138MOL0     H18609  11.537   4.487   7.992  0.4391  0.7157 -0.6612
  138MOL0     H18610  11.151   3.410   8.032  1.5809 -0.7186  0.4765
  138MOL0     H18611  11.004   3.212   8.019  0.1820  0.5560  0.3930
  138MOL0     H18612  10.949   2.808   7.694  0.6459  0.5435 -1.6438
  138MOL0     H18613  10.786   2.613   7.643 -1.2023 -0.5037  1.2389
  138MOL0     H18614   8.896   2.568   8.369  0.4574 -1.9295  2.7416
  138MOL0     H18615   8.674   2.588   8.330 -1.3084 -0.8946  1.0035
  138MOL0     H18616   8.194   2.203   8.181  1.6116  0.5310  3.1323
  138MOL0     H18617   7.981   2.271   8.223  2.9343 -2.5830  0.5407
  138MOL0     H18618   7.845   2.724   8.218  1.3429 -0.0645  1.2022
  138MOL0     H18619   7.930   2.695   8.357 -0.3144  2.6089  0.0968
  138MOL0     H18620   7.713   2.727   8.416  2.3360 -0.4177  1.4592
  138MOL0     H18621   7.749   2.561   8.430  3.0128  0.7246 -0.7653
  138MOL0     H18622   7.507   2.612   8.329  1.6350  0.9062  1.2441
  138MOL0     H18623   7.602   2.491   8.245 -1.3723  0.0243 -1.2315
  138MOL0     H18624   7.652   2.685   8.079  0.6445  2.3680 -0.1505
  138MOL0     H18625   7.483   2.647   8.090  1.3096 -0.7168 -1.8921
  138MOL0     H18626   7.555   3.048   8.244  1.1664  0.0605 -2.2508
  138MOL0     H18627   8.100   2.675   8.247  0.4554  0.4183 -0.6668
  138MOL0     H18628   8.298   2.759   8.260 -3.1432 -2.3393  3.3926
  138MOL0     H18629   8.422   2.634   8.316  0.7007 -1.1234 -1.4660
  138MOL0     H18630   8.410   2.671   8.143  2.0592 -0.9877  1.2312
  139MOL0     O18631   8.832  10.667   9.143  0.8079 -0.1321 -0.6023
  139MOL0     C18632   8.843  10.577   9.061  0.1434 -0.6139  0.2603
  139MOL0     O18633   8.778  10.565   8.947  0.1610  0.1132 -1.4160
  139MOL0     C18634   8.702  10.675   8.904  0.1488 -0.8080  0.2065
  139MOL0     C18635   8.578  10.706   8.947  0.5281  0.4756 -0.8983
  139MOL0     C18636   8.512  10.814   8.889  0.4896 -0.1622  0.6537
  139MOL0     C18637   8.565  10.895   8.775  0.3057  0.4138 -0.2976
  139MOL0     O18638   8.491  10.993   8.713  0.2224  0.1659  0.3026
  139MOL0     C18639   8.354  11.012   8.738  0.5463 -0.4309  0.2702
  139MOL0     C18640   8.310  11.094   8.614  0.3776  0.1955 -0.2955
  139MOL0     C18641   8.297  10.993   8.491 -0.0969 -0.2693 -0.3951
  139MOL0     C18642   8.151  10.951   8.450  0.2860  0.1584  0.4513
  139MOL0     C18643   8.147  10.880   8.313  0.1831 -0.0768  0.4268
  139MOL0     C18644   8.235  10.923   8.197 -0.2127 -0.3554  0.1850
  139MOL0     C18645   8.198  10.828   8.079 -0.4776 -0.3688 -0.1001
  139MOL0     C18646   8.305  10.839   7.982  0.2975 -0.0343  0.4118
  139MOL0     N18647   8.294  10.743   7.877 -0.1330 -0.1602 -0.2305
  139MOL0     C18648   8.248  10.780   7.753 -0.5651 -0.7635  0.1018
  139MOL0     C18649   8.321  10.706   7.664  0.1508 -0.6354  0.3941
  139MOL0     C18650   8.313  10.714   7.515  0.3675  0.0516 -0.5674
  139MOL0     C18651   8.179  10.658   7.473 -0.3855  0.1977  0.4008
  139MOL0     C18652   8.141  10.513   7.507  0.2610 -0.2282  0.9401
  139MOL0     C18653   7.994  10.474   7.523 -0.8969  0.2115 -0.3708
  139MOL0     O18654   8.008  10.334   7.550 -0.2089  0.1557  0.4981
  139MOL0     C18655   7.897  10.263   7.578  0.7817  0.7699 -0.8036
  139MOL0     C18656   7.772  10.317   7.614 -0.2373 -0.5353 -0.0928
  139MOL0     C18657   7.674  10.232   7.661  0.1726  0.2479  0.1011
  139MOL0     C18658   7.690  10.091   7.686 -0.4379 -0.1035  0.1093
  139MOL0     C18659   7.584  10.011   7.749  0.1571 -0.1887  0.9716
  139MOL0     O18660   7.626   9.889   7.787  0.1723  0.1994 -0.6734
  139MOL0     C18661   7.551   9.816   7.879  0.0408  0.0696 -0.1013
  139MOL0     C18662   7.603   9.807   8.012  0.8351 -1.0159  0.2545
  139MOL0     C18663   7.538   9.725   8.104  0.8394 -0.1960 -0.1832
  139MOL0     C18664   7.411   9.657   8.060  0.1361 -0.4756 -1.3568
  139MOL0     O18665   7.329   9.582   8.145 -0.7101 -0.1605  0.6179
  139MOL0     C18666   7.238   9.652   8.228  0.2248  0.5760  0.0742
  139MOL0     C18667   7.107   9.701   8.166  0.2218  0.4466  0.6165
  139MOL0     C18668   7.008   9.583   8.107 -0.3508 -0.6791 -0.7033
  139MOL0     C18669   7.003   9.449   8.184  0.2581  0.0309 -0.1423
  139MOL0     C18670   6.889   9.360   8.114 -0.6875 -0.7199 -0.5638
  139MOL0     C18671   6.740   9.396   8.135 -1.1671  0.1494  0.8135
  139MOL0     C18672   6.708   9.430   8.279  1.0263 -1.1402  0.5752
  139MOL0     C18673   6.563   9.474   8.294  0.2278  0.1328  0.9488
  139MOL0    Cl18674   6.545   9.628   8.225 -0.4400 -0.0983 -0.1335
  139MOL0     C18675   7.362   9.670   7.925  0.1978 -0.5904  0.6628
  139MOL0     C18676   7.433   9.748   7.835 -0.4823 -0.2641  0.2538
  139MOL0     O18677   7.473  10.063   7.770 -0.5557 -0.0009 -0.5604
  139MOL0     C18678   7.819  10.046   7.665  0.2733  0.0267 -0.7378
  139MOL0     C18679   7.915  10.124   7.598 -0.7157  0.3636 -0.4229
  139MOL0     N18680   8.398  10.619   7.736 -0.5600 -0.2753  0.6187
  139MOL0     N18681   8.393  10.649   7.865 -0.0123 -0.2963  0.3794
  139MOL0     C18682   8.692  10.856   8.737 -0.1393  0.4980 -0.0955
  139MOL0     C18683   8.764  10.760   8.804 -0.5894 -0.0484 -0.1873
  139MOL0     C18684   8.942  10.471   9.105 -0.2845  0.8635  0.9770
  139MOL0     C18685   8.995  10.472   9.237  0.1742  0.4746 -0.4742
  139MOL0     C18686   9.074  10.372   9.298 -0.0342  0.9762 -0.0574
  139MOL0     C18687   9.109  10.261   9.220 -0.1829 -0.4943  0.2744
  139MOL0     O18688   9.199  10.156   9.247 -0.3044 -0.8394 -0.6718
  139MOL0     C18689   9.270  10.154   9.368 -0.3645 -0.3763  0.1510
  139MOL0     C18690   9.176  10.103   9.479  0.5693  0.4816  0.5480
  139MOL0     C18691   9.116   9.967   9.446 -0.6355 -0.7083 -0.0946
  139MOL0     C18692   8.996   9.938   9.537  0.4559 -0.6217 -1.5062
  139MOL0     C18693   9.037   9.919   9.671  0.0138 -0.4907 -0.0648
  139MOL0     C18694   9.045   9.922   9.795 -0.2903 -0.3912 -0.5004
  139MOL0     C18695   9.059  10.258   9.082  0.0031 -0.9431 -0.6219
  139MOL0     C18696   8.986  10.367   9.025  0.8242 -0.3164  0.6528
  139MOL0     C18697   8.937  10.350   8.879 -0.6834  0.8227  0.3573
  139MOL0     H18698   8.523  10.665   9.031 -0.1809 -1.3271 -2.1771
  139MOL0     H18699   8.409  10.841   8.910 -0.3979 -1.2491 -1.8686
  139MOL0     H18700   8.308  10.913   8.742  1.2195 -0.7120  1.7786
  139MOL0     H18701   8.331  11.082   8.819  1.3643  3.4904 -2.5824
  139MOL0     H18702   8.384  11.173   8.598 -0.6671  1.3440  0.3280
  139MOL0     H18703   8.216  11.147   8.631 -0.2170  0.3379 -3.3479
  139MOL0     H18704   8.357  10.904   8.510  1.8728  1.2047  0.8280
  139MOL0     H18705   8.343  11.042   8.404 -0.8661 -1.0729 -1.2696
  139MOL0     H18706   8.110  10.896   8.535  0.7666  1.1538  1.3508
  139MOL0     H18707   8.086  11.039   8.454  1.8701  1.3379  3.3066
  139MOL0     H18708   8.174  10.776   8.337  0.1485 -0.1055  0.3378
  139MOL0     H18709   8.044  10.880   8.276  1.0112  0.1362 -2.0799
  139MOL0     H18710   8.214  11.028   8.174 -0.7096  0.1529  2.7055
  139MOL0     H18711   8.339  10.906   8.225  0.0498  2.1826  0.9161
  139MOL0     H18712   8.102  10.865   8.040 -0.4200  2.7284  2.2765
  139MOL0     H18713   8.187  10.725   8.114 -3.5046  0.6507  2.4582
  139MOL0     H18714   8.305  10.939   7.937  2.4915 -0.2801 -0.2589
  139MOL0     H18715   8.397  10.820   8.040 -0.1232  0.0451  1.1177
  139MOL0     H18716   8.172  10.856   7.738 -0.7812 -1.0091 -0.0496
  139MOL0     H18717   8.313  10.818   7.482 -0.9004  0.5967  1.0205
  139MOL0     H18718   8.397  10.666   7.465 -0.2277 -2.5656  0.7687
  139MOL0     H18719   8.104  10.728   7.514 -1.3118 -0.8183  0.4886
  139MOL0     H18720   8.179  10.678   7.366 -1.0821  0.2835  0.4113
  139MOL0     H18721   8.191  10.496   7.604  2.5131  0.0263 -0.1039
  139MOL0     H18722   8.185  10.447   7.432 -0.0673 -0.2148  0.7346
  139MOL0     H18723   7.932  10.495   7.435 -0.0297  0.9964 -0.8145
  139MOL0     H18724   7.948  10.533   7.604 -0.8249 -0.1684 -0.0484
  139MOL0     H18725   7.758  10.424   7.611  0.5732 -0.1190  4.1479
  139MOL0     H18726   7.580  10.274   7.694  0.7217  0.0845  2.0168
  139MOL0     H18727   7.700   9.849   8.036 -0.9887  2.7660  1.8658
  139MOL0     H18728   7.563   9.694   8.205 -2.7017  1.7880  1.5058
  139MOL0     H18729   7.202   9.593   8.313 -5.0800  1.8458 -0.9251
  139MOL0     H18730   7.290   9.737   8.272  1.0622  0.2945 -0.3404
  139MOL0     H18731   7.055   9.760   8.242  0.5968 -1.5817  2.5434
  139MOL0     H18732   7.140   9.772   8.089  0.9189 -0.3918  0.1270
  139MOL0     H18733   6.906   9.621   8.120  0.2757  0.8683 -0.1312
  139MOL0     H18734   7.033   9.582   8.001  0.7110  1.4920 -0.5169
  139MOL0     H18735   6.990   9.484   8.287  3.1007 -0.7372  0.5778
  139MOL0     H18736   7.100   9.404   8.160  0.3139  0.6393 -1.1343
  139MOL0     H18737   6.898   9.262   8.162  1.5943  0.7365  2.3074
  139MOL0     H18738   6.910   9.352   8.007  0.4955  0.1045 -0.4026
  139MOL0     H18739   6.724   9.472   8.058  3.0050 -0.1222 -0.6120
  139MOL0     H18740   6.672   9.318   8.098 -0.6170 -0.0058  0.0879
  139MOL0     H18741   6.762   9.521   8.307 -1.8532  1.1942 -0.9445
  139MOL0     H18742   6.729   9.335   8.330 -2.1398 -3.4004 -1.9212
  139MOL0     H18743   6.495   9.397   8.256 -1.0992  1.4523  0.5713
  139MOL0     H18744   6.542   9.485   8.401 -0.8825  1.8233  0.5939
  139MOL0     H18745   7.272   9.623   7.887  0.2300  1.5815 -2.5828
  139MOL0     H18746   7.398   9.756   7.733  0.1029  1.0079  0.1219
  139MOL0     H18747   7.849   9.946   7.694  1.1410  0.9606  1.8396
  139MOL0     H18748   8.007  10.074   7.571 -1.6619 -5.0052  4.2943
  139MOL0     H18749   8.732  10.917   8.656 -1.3945  2.3469  0.6086
  139MOL0     H18750   8.868  10.749   8.777 -0.2016  2.7547 -0.1622
  139MOL0     H18751   8.975  10.556   9.304  1.1345  0.5393 -0.2508
  139MOL0     H18752   9.107  10.389   9.399  0.4222  3.4034 -0.5543
  139MOL0     H18753   9.309  10.244   9.416 -1.6909 -0.2365  1.0276
  139MOL0     H18754   9.354  10.087   9.346  1.7639  2.5266 -1.1491
  139MOL0     H18755   9.097  10.172   9.511  3.4172  3.3210  2.0174
  139MOL0     H18756   9.235  10.103   9.571 -2.2046  3.6029  2.5768
  139MOL0     H18757   9.199   9.896   9.453 -1.3002 -1.3460  1.8465
  139MOL0     H18758   9.090   9.971   9.340  4.2745  0.0880 -1.5279
  139MOL0     H18759   8.923  10.019   9.534 -0.4394 -1.3404  0.0746
  139MOL0     H18760   8.949   9.845   9.503  1.1648 -2.2761  1.6596
  139MOL0     H18761   9.059   9.924   9.902  1.5182 -0.4237 -0.6990
  139MOL0     H18762   9.086  10.172   9.023  0.0085 -0.6335 -1.0733
  139MOL0     H18763   8.935  10.435   8.810 -1.0056 -1.7580 -3.0180
  139MOL0     H18764   8.996  10.270   8.834 -0.1169  0.4583  1.6995
  139MOL0     H18765   8.834  10.317   8.892  0.0275 -1.5009  0.4465
  140MOL0     O18766   0.695   4.591   3.118 -0.0753  0.3303  0.0654
  140MOL0     C18767   0.716   4.501   3.205 -0.0596  0.3162 -0.2477
  140MOL0     O18768   0.832   4.480   3.264 -0.6325 -0.3125  0.1472
  140MOL0     C18769   0.949   4.502   3.205 -0.4686 -0.1025 -0.3831
  140MOL0     C18770   1.057   4.565   3.270  0.0078 -0.0888  0.1085
  140MOL0     C18771   1.190   4.572   3.211  0.6301 -1.1501 -0.5881
  140MOL0     C18772   1.206   4.525   3.079  0.7885 -1.6102 -0.3270
  140MOL0     O18773   1.336   4.554   3.021  0.0967  0.5949  0.1425
  140MOL0     C18774   1.448   4.615   3.085  0.0574 -0.5967  0.7690
  140MOL0     C18775   1.562   4.595   2.990  0.9370  0.2521  0.0104
  140MOL0     C18776   1.700   4.623   3.061  1.3586  1.0497  0.7426
  140MOL0     C18777   1.802   4.625   2.947  0.0440 -0.9048 -0.3097
  140MOL0     C18778   1.933   4.657   3.024 -0.5672  0.8039 -0.3219
  140MOL0     C18779   2.066   4.605   2.954  0.8363 -0.4992 -0.7702
  140MOL0     C18780   2.078   4.662   2.818  0.5685  0.0875  0.6112
  140MOL0     C18781   2.146   4.800   2.810  0.3987 -0.6445 -1.0120
  140MOL0     N18782   2.288   4.796   2.812  0.5942  0.3419 -0.3364
  140MOL0     C18783   2.375   4.752   2.716 -0.2307 -0.2065 -0.5982
  140MOL0     C18784   2.497   4.747   2.777  0.3726 -0.0329 -0.4322
  140MOL0     C18785   2.622   4.683   2.727 -0.2964 -0.3213  0.4720
  140MOL0     C18786   2.645   4.717   2.577  0.6732  0.3212 -0.5149
  140MOL0     C18787   2.660   4.871   2.543  1.0563  0.3652 -0.3236
  140MOL0     C18788   2.609   4.904   2.394  0.0772 -0.1271  0.4494
  140MOL0     O18789   2.472   4.859   2.365 -0.4337 -0.1063 -0.3558
  140MOL0     C18790   2.466   4.778   2.257 -0.3980  0.4396  0.6198
  140MOL0     C18791   2.517   4.809   2.133  0.3721 -0.8508  1.1922
  140MOL0     C18792   2.496   4.725   2.023  0.1306  0.4510 -0.7190
  140MOL0     C18793   2.437   4.603   2.042  1.2540  0.4443 -0.2409
  140MOL0     C18794   2.417   4.502   1.929  1.1238  0.1996  0.3661
  140MOL0     O18795   2.321   4.403   1.950 -0.2547  0.4808  0.5869
  140MOL0     C18796   2.272   4.343   1.835  0.0356  0.0020 -0.1477
  140MOL0     C18797   2.311   4.216   1.790 -0.5653 -0.3746 -0.2837
  140MOL0     C18798   2.257   4.156   1.678  0.6361  0.3060 -0.2565
  140MOL0     C18799   2.147   4.219   1.607 -0.2660  0.4067  0.3016
  140MOL0     O18800   2.065   4.173   1.501 -0.3430 -0.3333 -1.0685
  140MOL0     C18801   2.107   4.045   1.453 -1.0785  0.4063  0.7082
  140MOL0     C18802   1.999   3.973   1.371  0.3706  0.1104  0.3420
  140MOL0     C18803   1.905   4.077   1.306 -0.2208 -0.8299 -0.8206
  140MOL0     C18804   1.849   4.018   1.172  0.4443 -0.8041 -0.3754
  140MOL0     C18805   1.719   4.086   1.138  0.0683 -0.6439  0.5831
  140MOL0     C18806   1.654   4.018   1.017  0.0412 -0.5374 -0.4411
  140MOL0     C18807   1.512   4.071   0.984  0.5235 -0.0226  0.9231
  140MOL0     C18808   1.406   4.005   1.074  0.1774 -0.4478 -0.3301
  140MOL0    Cl18809   1.424   3.824   1.093  0.1229 -0.2763  0.4890
  140MOL0     C18810   2.111   4.350   1.653 -0.1624 -0.2939  0.8001
  140MOL0     C18811   2.168   4.409   1.763  0.3643 -0.3894  0.4983
  140MOL0     O18812   2.494   4.512   1.836 -0.4955 -0.6391  0.7193
  140MOL0     C18813   2.388   4.566   2.167 -0.7965  0.1974  0.1374
  140MOL0     C18814   2.403   4.654   2.269  0.4429 -0.1082  0.5547
  140MOL0     N18815   2.480   4.776   2.913  0.0428  0.2029  0.4172
  140MOL0     N18816   2.353   4.807   2.931  0.7284 -0.0046  0.0885
  140MOL0     C18817   1.101   4.465   3.008  0.3684 -0.2230 -0.5935
  140MOL0     C18818   0.970   4.456   3.076 -0.0617  0.5497  1.3767
  140MOL0     C18819   0.605   4.438   3.273  0.6518 -0.0959  0.7218
  140MOL0     C18820   0.625   4.301   3.313 -0.2283  0.6076 -0.0565
  140MOL0     C18821   0.529   4.218   3.363  0.1972  0.1243 -0.9685
  140MOL0     C18822   0.406   4.273   3.385  0.1931  0.1926 -0.7208
  140MOL0     O18823   0.310   4.209   3.467  0.2887 -0.2266  0.0845
  140MOL0     C18824   0.217   4.120   3.402  0.4764  0.8205  0.0246
  140MOL0     C18825   0.123   4.051   3.501  0.2621  0.3088 -0.1910
  140MOL0     C18826   0.185   4.007   3.635  0.2962  0.7052 -0.4033
  140MOL0     C18827   0.245   3.861   3.639 -0.5691  0.0715 -0.2628
  140MOL0     C18828   0.164   3.780   3.723 -0.2900  1.1996  0.0215
  140MOL0     C18829   0.117   3.694   3.796  0.4666 -0.7596 -0.1161
  140MOL0     C18830   0.379   4.415   3.362  0.0496  0.0034 -0.0503
  140MOL0     C18831   0.480   4.499   3.312 -0.3823 -0.5432 -0.4935
  140MOL0     C18832   0.444   4.636   3.272  0.1123  0.0445 -0.0316
  140MOL0     H18833   1.041   4.610   3.367 -0.7826 -1.9698  0.8942
  140MOL0     H18834   1.258   4.630   3.272 -0.4938 -0.6508  0.2247
  140MOL0     H18835   1.429   4.723   3.084 -1.2199 -0.7749 -1.7478
  140MOL0     H18836   1.470   4.572   3.183  0.5241  1.8215  1.8073
  140MOL0     H18837   1.547   4.666   2.908  3.5629 -0.2452 -1.0047
  140MOL0     H18838   1.564   4.491   2.955 -0.0565  0.9756 -2.4367
  140MOL0     H18839   1.715   4.538   3.128 -0.1651 -0.3619 -0.6014
  140MOL0     H18840   1.699   4.716   3.118  1.6975  0.4895  1.6917
  140MOL0     H18841   1.823   4.532   2.892  0.0112 -2.2853  1.8650
  140MOL0     H18842   1.788   4.709   2.879 -0.3909 -0.1184  0.7291
  140MOL0     H18843   1.942   4.761   3.054  1.5714  0.3413  0.8405
  140MOL0     H18844   1.931   4.600   3.117 -0.1477  2.0190  0.4432
  140MOL0     H18845   2.146   4.627   3.025 -0.9609 -0.0051  1.2177
  140MOL0     H18846   2.065   4.496   2.945 -0.1390 -0.3377 -3.7468
  140MOL0     H18847   1.983   4.669   2.765 -0.6497  2.0750  2.8067
  140MOL0     H18848   2.141   4.598   2.757  1.4304  0.3023  1.2526
  140MOL0     H18849   2.119   4.854   2.719 -0.1627 -0.2895 -0.6439
  140MOL0     H18850   2.127   4.857   2.902  1.1817 -0.8951 -0.6813
  140MOL0     H18851   2.376   4.729   2.610  1.9761  4.9742 -2.0344
  140MOL0     H18852   2.706   4.710   2.792  1.4215 -2.7489 -0.5701
  140MOL0     H18853   2.611   4.574   2.732 -0.1211 -0.3729 -0.1740
  140MOL0     H18854   2.726   4.648   2.553 -1.0122 -1.6449 -0.8572
  140MOL0     H18855   2.568   4.666   2.519  0.8745  0.8000 -1.2130
  140MOL0     H18856   2.767   4.891   2.552  1.6071 -2.7168  1.8505
  140MOL0     H18857   2.601   4.928   2.616 -3.1537 -3.7569 -0.0050
  140MOL0     H18858   2.683   4.862   2.326  1.4221  2.0843  0.4671
  140MOL0     H18859   2.618   5.012   2.378  2.9844 -0.1040  1.6425
  140MOL0     H18860   2.570   4.901   2.109 -0.4983  0.6522  4.4876
  140MOL0     H18861   2.551   4.750   1.933  3.0626 -0.5025  0.6787
  140MOL0     H18862   2.387   4.161   1.844 -2.4688 -2.7075  0.2232
  140MOL0     H18863   2.288   4.056   1.650 -1.1873  0.2762 -2.5487
  140MOL0     H18864   2.192   4.062   1.386  0.5988  0.7493  2.8027
  140MOL0     H18865   2.148   3.973   1.524  2.5995 -1.8388 -3.2251
  140MOL0     H18866   2.043   3.907   1.296  3.4573  0.3655  1.7503
  140MOL0     H18867   1.949   3.905   1.440  1.8009 -1.5373 -0.1711
  140MOL0     H18868   1.823   4.110   1.370  1.3921  1.9869 -0.0136
  140MOL0     H18869   1.959   4.170   1.288 -1.7886  0.4612  0.8588
  140MOL0     H18870   1.838   3.910   1.185 -0.1213 -0.9293 -1.7574
  140MOL0     H18871   1.921   4.030   1.091  0.8045 -1.5613 -0.1813
  140MOL0     H18872   1.746   4.191   1.130  0.7404 -0.6972  1.8849
  140MOL0     H18873   1.652   4.066   1.223 -2.3507  0.6237 -0.9141
  140MOL0     H18874   1.715   4.044   0.930 -1.8443  0.4749 -1.5348
  140MOL0     H18875   1.653   3.910   1.031  0.9452 -0.2923  2.0245
  140MOL0     H18876   1.485   4.061   0.879  1.0152 -1.4469  0.9198
  140MOL0     H18877   1.512   4.178   1.007 -1.9547 -0.2272  2.2212
  140MOL0     H18878   1.432   4.042   1.174 -0.8325  0.4656 -0.3733
  140MOL0     H18879   1.305   4.038   1.047 -0.0293 -2.1556 -1.8285
  140MOL0     H18880   2.043   4.409   1.592  0.8509 -0.3349 -0.4213
  140MOL0     H18881   2.130   4.504   1.797 -0.3199 -1.1166  1.8445
  140MOL0     H18882   2.336   4.478   2.203  2.9738 -1.6293  1.5752
  140MOL0     H18883   2.371   4.628   2.369 -2.7668 -0.9245 -0.5835
  140MOL0     H18884   1.109   4.422   2.909 -0.4916 -0.9032 -0.3820
  140MOL0     H18885   0.892   4.396   3.030  1.6242 -0.2356 -0.6002
  140MOL0     H18886   0.719   4.253   3.288 -0.0087  1.6174 -1.2616
  140MOL0     H18887   0.544   4.116   3.397 -0.7178  0.2011 -0.3015
  140MOL0     H18888   0.272   4.045   3.345 -1.5551 -2.5904  2.1937
  140MOL0     H18889   0.162   4.169   3.321 -0.5497  2.4156  1.5828
  140MOL0     H18890   0.086   3.962   3.449  1.1005  1.4236 -2.9168
  140MOL0     H18891   0.044   4.124   3.519  0.6929  0.0669  3.4373
  140MOL0     H18892   0.105   4.017   3.709  0.8867 -1.8908  0.7072
  140MOL0     H18893   0.259   4.081   3.666  2.2041 -0.5453 -1.7163
  140MOL0     H18894   0.272   3.825   3.540  2.7744  0.8939  0.2427
  140MOL0     H18895   0.344   3.847   3.682 -0.8776  1.0280  0.7990
  140MOL0     H18896   0.073   3.619   3.859  0.6650 -2.5298 -1.9634
  140MOL0     H18897   0.283   4.455   3.395  0.3640 -1.5566  3.1855
  140MOL0     H18898   0.512   4.711   3.313 -0.2724  1.3987 -1.7528
  140MOL0     H18899   0.452   4.648   3.163 -0.7414  0.6101 -0.0373
  140MOL0     H18900   0.339   4.649   3.296 -1.1044 -3.5231 -2.5065
  141MOL0     O18901   6.021   8.855  10.858  0.8144  0.1954  0.3375
  141MOL0     C18902   6.041   8.975  10.829  0.1542  0.3870  0.3130
  141MOL0     O18903   6.162   9.018  10.784 -0.3798 -0.7208  0.2130
  141MOL0     C18904   6.272   8.939  10.763  0.7479 -0.0275 -0.5338
  141MOL0     C18905   6.339   8.958  10.649 -0.0621 -1.0017 -0.0573
  141MOL0     C18906   6.449   8.884  10.606  0.0926 -0.5011  0.1152
  141MOL0     C18907   6.496   8.800  10.699 -0.2071  0.8013 -0.2268
  141MOL0     O18908   6.609   8.728  10.673  0.4715  0.2783 -0.2477
  141MOL0     C18909   6.623   8.591  10.722  0.7802 -0.8193 -0.4725
  141MOL0     C18910   6.745   8.536  10.652 -0.5800  0.3959 -0.9079
  141MOL0     C18911   6.741   8.536  10.495  1.2243 -0.6871  0.6194
  141MOL0     C18912   6.862   8.462  10.446 -0.4716  1.4083 -0.5373
  141MOL0     C18913   6.887   8.461  10.298 -0.0640  1.0429  0.3188
  141MOL0     C18914   6.999   8.367  10.266 -1.0384 -0.5292 -0.2867
  141MOL0     C18915   7.043   8.351  10.116 -0.2772 -0.4909  0.5017
  141MOL0     C18916   6.920   8.299  10.039 -0.1032  0.1232 -0.1035
  141MOL0     N18917   6.962   8.259   9.903  0.2419  0.0350 -0.5028
  141MOL0     C18918   7.051   8.323   9.813  0.3764 -0.1264 -0.3244
  141MOL0     C18919   7.078   8.230   9.717 -0.3930 -0.5009 -0.0241
  141MOL0     C18920   7.164   8.227   9.589  0.2902  0.1057 -0.0714
  141MOL0     C18921   7.101   8.323   9.485 -0.1604 -0.4499  0.3751
  141MOL0     C18922   6.949   8.306   9.471  1.2777 -0.8512  0.5102
  141MOL0     C18923   6.911   8.161   9.417 -0.5927 -1.0538 -0.6397
  141MOL0     O18924   6.784   8.153   9.358 -0.5929  0.2410  0.0534
  141MOL0     C18925   6.763   8.121   9.225 -0.4997 -0.0900  0.2739
  141MOL0     C18926   6.844   8.158   9.115 -0.2770 -0.7346 -0.1310
  141MOL0     C18927   6.807   8.134   8.981 -0.0214  0.1930  0.0215
  141MOL0     C18928   6.684   8.085   8.947  0.5518 -0.6699  0.2415
  141MOL0     C18929   6.633   8.084   8.806 -0.4910 -0.4755 -0.5094
  141MOL0     O18930   6.503   8.085   8.780 -0.6954 -0.2603 -0.5690
  141MOL0     C18931   6.460   8.023   8.672 -0.2862  0.1542  2.5052
  141MOL0     C18932   6.424   7.888   8.681  0.1297  1.0071 -0.0314
  141MOL0     C18933   6.422   7.812   8.564  0.0162 -0.4337 -0.5668
  141MOL0     C18934   6.447   7.874   8.440 -0.1004 -1.1041  0.7172
  141MOL0     O18935   6.421   7.806   8.325 -0.1290 -1.1559  0.2625
  141MOL0     C18936   6.411   7.871   8.196 -0.0322 -0.5357  0.1335
  141MOL0     C18937   6.337   7.802   8.086 -0.0518 -1.7872  0.4526
  141MOL0     C18938   6.192   7.773   8.132 -0.1573  0.2094 -0.5706
  141MOL0     C18939   6.124   7.702   8.017  0.8169 -0.1612  0.8548
  141MOL0     C18940   6.031   7.792   7.947  0.0204  0.2887  0.8933
  141MOL0     C18941   5.897   7.813   8.016 -0.5065  0.2368  0.7448
  141MOL0     C18942   5.777   7.878   7.932 -0.1695  0.5435  0.6015
  141MOL0     C18943   5.818   7.994   7.844  0.5906 -0.8440 -0.2509
  141MOL0    Cl18944   5.920   8.107   7.945  0.4652  0.1298  0.2805
  141MOL0     C18945   6.480   8.016   8.430 -0.2344  1.2850 -0.0901
  141MOL0     C18946   6.491   8.087   8.547 -0.0554 -0.2997 -0.5031
  141MOL0     O18947   6.728   8.066   8.731  0.2639  0.6416 -0.5026
  141MOL0     C18948   6.597   8.063   9.053  0.1364 -0.0276  0.5591
  141MOL0     C18949   6.635   8.073   9.198  0.7338  0.0599  0.5521
  141MOL0     N18950   6.992   8.122   9.745 -0.6442 -0.2424 -0.1062
  141MOL0     N18951   6.928   8.134   9.855  0.0796 -0.0438  0.1627
  141MOL0     C18952   6.434   8.785  10.823  0.0418 -0.2870 -0.6182
  141MOL0     C18953   6.319   8.862  10.858 -0.3048 -0.8804 -0.1983
  141MOL0     C18954   5.933   9.060  10.793  0.7033  0.1522  0.5047
  141MOL0     C18955   5.965   9.188  10.745  0.3662 -0.4656 -0.1330
  141MOL0     C18956   5.859   9.278  10.719  0.2451 -0.3046  0.0404
  141MOL0     C18957   5.725   9.251  10.729 -0.1808 -1.3647  0.6564
  141MOL0     O18958   5.628   9.344  10.706  0.0676  0.1925 -0.3259
  141MOL0     C18959   5.661   9.482  10.717  1.0491 -0.6552  0.9114
  141MOL0     C18960   5.527   9.560  10.691  0.7897  0.1156  0.9304
  141MOL0     C18961   5.501   9.578  10.539  0.2742  0.4643  0.2669
  141MOL0     C18962   5.531   9.457  10.455  0.4545 -0.5568  0.3208
  141MOL0     C18963   5.443   9.468  10.334 -0.7526 -0.0577  0.0666
  141MOL0     C18964   5.368   9.484  10.236  0.9058 -0.1843 -0.1628
  141MOL0     C18965   5.697   9.128  10.773  0.6779  0.4617  0.8583
  141MOL0     C18966   5.792   9.031  10.805  0.2236  0.1116  0.2865
  141MOL0     C18967   5.742   8.898  10.836  0.9143  0.3243 -0.0670
  141MOL0     H18968   6.309   9.035  10.579  1.7091 -0.0787  0.1523
  141MOL0     H18969   6.491   8.904  10.508 -0.0122  0.5597  0.2696
  141MOL0     H18970   6.642   8.576  10.829  1.1104 -1.3272 -0.5974
  141MOL0     H18971   6.531   8.535  10.701  0.6276 -1.4841  1.6459
  141MOL0     H18972   6.757   8.437  10.696 -1.9616  0.0462 -1.2722
  141MOL0     H18973   6.833   8.593  10.682  0.3547 -0.8688 -1.1910
  141MOL0     H18974   6.740   8.639  10.459  3.4440 -0.4391  1.0925
  141MOL0     H18975   6.646   8.483  10.484  0.7376  0.3551 -0.4655
  141MOL0     H18976   6.945   8.513  10.497 -0.7055  1.9666 -0.7100
  141MOL0     H18977   6.851   8.358  10.476  1.1684  0.9052 -1.5331
  141MOL0     H18978   6.796   8.422  10.253 -0.3707  1.0016  0.9731
  141MOL0     H18979   6.919   8.555  10.250  2.9715 -0.1027 -0.1201
  141MOL0     H18980   7.081   8.408  10.325 -0.9925 -0.3885 -0.4456
  141MOL0     H18981   6.975   8.268  10.306  0.8247 -0.0952  2.1989
  141MOL0     H18982   7.135   8.292  10.109 -0.4162 -0.8264  1.3777
  141MOL0     H18983   7.063   8.450  10.075 -3.8425  0.4799  0.7549
  141MOL0     H18984   6.883   8.209  10.088  2.1584 -0.1736  1.1674
  141MOL0     H18985   6.841   8.374  10.027 -0.5107  0.2203  2.5973
  141MOL0     H18986   7.079   8.428   9.812  0.6128 -0.0798  2.3134
  141MOL0     H18987   7.264   8.268   9.606  0.6121  1.8580 -4.6737
  141MOL0     H18988   7.168   8.128   9.543 -3.1156 -1.1565  1.9762
  141MOL0     H18989   7.127   8.429   9.495 -3.3534  0.6279 -1.1280
  141MOL0     H18990   7.152   8.307   9.390  1.8510 -3.0035  1.7650
  141MOL0     H18991   6.911   8.384   9.405  2.1531  0.7898  1.8672
  141MOL0     H18992   6.902   8.333   9.566 -4.3570  0.5171 -2.2290
  141MOL0     H18993   6.918   8.105   9.511  1.9469 -0.8113 -0.6057
  141MOL0     H18994   6.981   8.113   9.348 -1.8231 -0.4289 -2.3875
  141MOL0     H18995   6.940   8.199   9.143 -0.3481  0.5241 -1.5846
  141MOL0     H18996   6.881   8.166   8.908  0.3385  2.5946  1.3397
  141MOL0     H18997   6.416   7.836   8.775  1.7181  0.8285  0.0248
  141MOL0     H18998   6.379   7.714   8.581 -0.8192 -0.2110 -1.3346
  141MOL0     H18999   6.361   7.968   8.209  0.7960 -0.0522 -0.1940
  141MOL0     H19000   6.503   7.893   8.142  1.4785 -1.8809  2.0448
  141MOL0     H19001   6.340   7.858   7.992 -1.7280 -4.2041 -1.1612
  141MOL0     H19002   6.391   7.715   8.048 -0.1393 -1.3335 -0.7440
  141MOL0     H19003   6.210   7.706   8.217  1.3947 -0.6073 -1.4900
  141MOL0     H19004   6.144   7.868   8.157  0.0366  0.3922 -0.8828
  141MOL0     H19005   6.067   7.612   8.044  1.3712 -1.2152 -1.2755
  141MOL0     H19006   6.201   7.656   7.955 -1.5773 -4.5500  0.7192
  141MOL0     H19007   6.022   7.741   7.851  4.7122  1.1102 -0.2335
  141MOL0     H19008   6.078   7.886   7.917  2.1047 -1.5948 -2.4348
  141MOL0     H19009   5.871   7.720   8.066  1.1608 -1.4898 -1.4220
  141MOL0     H19010   5.906   7.884   8.100  0.7520 -0.4065  1.1774
  141MOL0     H19011   5.691   7.913   7.992 -0.1229  2.4343 -0.3466
  141MOL0     H19012   5.728   7.800   7.874 -1.5257 -0.2723  2.6949
  141MOL0     H19013   5.879   7.949   7.765 -2.4407  0.3226 -3.5220
  141MOL0     H19014   5.738   8.052   7.798  2.2863  1.6274 -0.2684
  141MOL0     H19015   6.515   8.056   8.335  1.2216 -1.8571 -1.0023
  141MOL0     H19016   6.504   8.194   8.556 -1.4261 -0.2082  0.8533
  141MOL0     H19017   6.495   8.032   9.032 -0.0131  0.3045  0.7741
  141MOL0     H19018   6.567   8.045   9.278 -1.0093 -1.0958 -1.2220
  141MOL0     H19019   6.481   8.724  10.899  0.2279  1.5872  0.8366
  141MOL0     H19020   6.272   8.854  10.956 -1.0965  1.7867 -0.2870
  141MOL0     H19021   6.064   9.232  10.733  0.8757 -1.2116  1.1691
  141MOL0     H19022   5.895   9.376  10.690 -0.5853  0.2422  0.8066
  141MOL0     H19023   5.738   9.501  10.642  0.7977  0.8689  1.0135
  141MOL0     H19024   5.706   9.494  10.817  7.1611 -3.5141 -0.9903
  141MOL0     H19025   5.531   9.661  10.732  0.1572  0.9528 -0.9344
  141MOL0     H19026   5.439   9.514  10.737 -0.5592  0.8638 -0.7809
  141MOL0     H19027   5.559   9.662  10.503 -0.6807  0.7321 -0.6868
  141MOL0     H19028   5.397   9.610  10.525  0.7149  2.0529  0.4854
  141MOL0     H19029   5.638   9.440  10.436  0.5905 -0.0478  0.6058
  141MOL0     H19030   5.497   9.367  10.507  1.5772 -1.3193 -0.2259
  141MOL0     H19031   5.304   9.499  10.151 -0.8335 -1.2800  0.8829
  141MOL0     H19032   5.590   9.107  10.780  0.8978 -0.6464  1.0562
  141MOL0     H19033   5.755   8.816  10.765  0.1856 -1.4016  1.6849
  141MOL0     H19034   5.788   8.867  10.930  0.5852 -1.8103 -0.5642
  141MOL0     H19035   5.634   8.900  10.858  0.8898 -4.9134  1.7489
  142MOL0     O19036   4.634   2.759   5.061 -0.4599 -0.3897  0.2736
  142MOL0     C19037   4.568   2.851   5.017  0.7031  0.4342  0.5489
  142MOL0     O19038   4.445   2.848   4.958 -0.3428  0.2334  0.3111
  142MOL0     C19039   4.392   2.724   4.939  0.7539  0.5029 -0.3461
  142MOL0     C19040   4.257   2.709   4.982 -0.6495 -0.8993 -0.0561
  142MOL0     C19041   4.180   2.608   4.934 -0.1959  0.8557  0.9230
  142MOL0     C19042   4.232   2.508   4.848 -0.0720  0.0114 -0.5924
  142MOL0     O19043   4.175   2.402   4.779  0.3847  0.2357  0.2966
  142MOL0     C19044   4.027   2.398   4.758 -0.4983  0.8117 -0.4390
  142MOL0     C19045   3.989   2.263   4.709 -0.8932 -0.1016  0.5712
  142MOL0     C19046   3.859   2.274   4.626 -0.2425  0.0915  0.4395
  142MOL0     C19047   3.840   2.151   4.534  0.1736  0.2786 -0.1232
  142MOL0     C19048   3.703   2.158   4.477  0.0134 -0.1120  0.3939
  142MOL0     C19049   3.693   2.059   4.358 -0.5145 -0.1201  0.3499
  142MOL0     C19050   3.554   2.102   4.300 -0.6029  0.6297  0.1888
  142MOL0     C19051   3.483   1.985   4.219  0.1236 -0.5842  0.3478
  142MOL0     N19052   3.376   1.924   4.296  0.5952  0.4707  0.3043
  142MOL0     C19053   3.359   1.797   4.349  0.1972  0.1500  0.3076
  142MOL0     C19054   3.237   1.801   4.419 -1.2604 -0.4063  0.5674
  142MOL0     C19055   3.171   1.685   4.474  0.1189 -0.1650  0.5188
  142MOL0     C19056   3.032   1.732   4.538 -0.3057  0.5789  0.5755
  142MOL0     C19057   2.964   1.609   4.606  0.2011  0.1503 -0.3118
  142MOL0     C19058   2.828   1.655   4.670 -0.4948 -1.0346 -0.9173
  142MOL0     O19059   2.859   1.731   4.792  0.2633  0.3626  0.0120
  142MOL0     C19060   2.776   1.841   4.815 -0.6348  0.7899  0.1933
  142MOL0     C19061   2.638   1.863   4.776  0.0726  0.3034 -0.8165
  142MOL0     C19062   2.563   1.967   4.828 -1.0264 -1.4827 -0.6892
  142MOL0     C19063   2.629   2.054   4.922  0.8781  0.5386 -0.8931
  142MOL0     C19064   2.550   2.159   4.992 -0.4830  0.8592 -1.1846
  142MOL0     O19065   2.611   2.197   5.112 -0.6128 -0.5348  0.5246
  142MOL0     C19066   2.554   2.298   5.187 -0.0191 -1.3943  0.8657
  142MOL0     C19067   2.649   2.338   5.278 -0.0337  0.7431  0.4596
  142MOL0     C19068   2.635   2.442   5.373  0.2110  0.9382 -0.4476
  142MOL0     C19069   2.514   2.516   5.369  0.0472 -0.1750 -1.0650
  142MOL0     O19070   2.505   2.636   5.441 -0.6398  0.6167  0.2531
  142MOL0     C19071   2.423   2.636   5.556  0.5430 -0.3242 -0.7338
  142MOL0     C19072   2.488   2.581   5.688 -0.2331 -0.9062  0.1559
  142MOL0     C19073   2.382   2.596   5.802 -0.1685  0.2562 -0.4964
  142MOL0     C19074   2.429   2.521   5.921  0.0970  0.1366  0.1037
  142MOL0     C19075   2.329   2.526   6.041  0.8048 -0.1764  0.0174
  142MOL0     C19076   2.244   2.398   6.052 -0.0591  0.1219 -0.5803
  142MOL0     C19077   2.321   2.255   6.060  0.1472  0.3408  0.0925
  142MOL0     C19078   2.209   2.146   6.071 -0.4363 -0.6229  0.0809
  142MOL0    Cl19079   2.271   1.997   6.099  0.2196  0.5022 -0.5361
  142MOL0     C19080   2.416   2.479   5.272 -0.3667  0.1578  0.4255
  142MOL0     C19081   2.437   2.370   5.186  0.2262  0.3256 -0.3141
  142MOL0     O19082   2.449   2.204   4.940 -0.5202  0.3161  0.4126
  142MOL0     C19083   2.762   2.046   4.962 -0.2801 -0.1979  0.3964
  142MOL0     C19084   2.826   1.934   4.911 -0.0674 -0.6177  0.6263
  142MOL0     N19085   3.171   1.921   4.386 -0.1860 -0.2363  0.1711
  142MOL0     N19086   3.266   1.996   4.335  0.5896  0.4204  0.3938
  142MOL0     C19087   4.364   2.523   4.806 -0.2727 -0.5259  0.0182
  142MOL0     C19088   4.444   2.634   4.851  0.1852 -0.9205  0.9200
  142MOL0     C19089   4.622   2.983   5.011 -0.7847 -0.3271 -0.3713
  142MOL0     C19090   4.633   3.053   4.891  0.7073  0.2105 -0.1804
  142MOL0     C19091   4.713   3.169   4.884  0.8930  0.4211  0.3452
  142MOL0     C19092   4.794   3.217   4.989  0.0136 -0.1905  0.2121
  142MOL0     O19093   4.852   3.338   4.995 -0.7056  0.3114 -0.8593
  142MOL0     C19094   4.855   3.431   4.878 -0.2792 -0.3025 -0.9990
  142MOL0     C19095   4.932   3.551   4.925  0.1273  0.3210  0.1435
  142MOL0     C19096   5.085   3.536   4.922  0.3700 -0.3749 -0.1459
  142MOL0     C19097   5.161   3.539   4.784 -0.1491  0.5419 -0.4481
  142MOL0     C19098   5.304   3.529   4.818 -0.2808  0.2959 -0.5493
  142MOL0     C19099   5.419   3.512   4.847 -1.4972  0.0291  0.2924
  142MOL0     C19100   4.778   3.153   5.115 -0.6283  0.0422  0.4805
  142MOL0     C19101   4.691   3.039   5.124 -0.2731 -0.6679  0.5047
  142MOL0     C19102   4.674   2.982   5.257 -0.0161  0.8080  0.3479
  142MOL0     H19103   4.213   2.777   5.054  0.9110 -0.7398  0.7713
  142MOL0     H19104   4.080   2.602   4.975  0.1716  0.3182  1.7731
  142MOL0     H19105   3.968   2.431   4.845 -2.6407 -2.4679 -0.4130
  142MOL0     H19106   3.995   2.468   4.680  0.0674  2.2176  0.5554
  142MOL0     H19107   3.983   2.194   4.793  0.4359  0.4312  1.1178
  142MOL0     H19108   4.073   2.223   4.651  0.1962  3.2547 -0.3941
  142MOL0     H19109   3.845   2.365   4.567 -2.3272  1.3160  2.6610
  142MOL0     H19110   3.789   2.284   4.708  1.3333  1.4596  1.6841
  142MOL0     H19111   3.918   2.156   4.458  0.0294  2.5344 -0.1818
  142MOL0     H19112   3.857   2.062   4.596  2.5104  0.7793  0.0450
  142MOL0     H19113   3.639   2.120   4.556 -0.8082  0.7191  0.1515
  142MOL0     H19114   3.679   2.263   4.455 -1.9883 -0.7208 -0.5146
  142MOL0     H19115   3.782   2.056   4.294 -0.8185 -1.1939 -0.0284
  142MOL0     H19116   3.688   1.957   4.396 -1.8102 -0.1132  0.2228
  142MOL0     H19117   3.578   2.189   4.238  0.8385  1.1980  1.4905
  142MOL0     H19118   3.483   2.133   4.377  0.5710  1.8355  0.8353
  142MOL0     H19119   3.427   2.025   4.134  0.1464  4.3738  2.3483
  142MOL0     H19120   3.543   1.901   4.180 -0.2769 -1.1471  0.9176
  142MOL0     H19121   3.414   1.705   4.332 -2.8483 -1.7002 -0.2724
  142MOL0     H19122   3.153   1.616   4.391 -0.6437  1.8530 -1.0852
  142MOL0     H19123   3.223   1.646   4.562  1.3599 -1.0308 -0.5604
  142MOL0     H19124   3.048   1.811   4.611  2.5414 -0.9023  1.6962
  142MOL0     H19125   2.972   1.771   4.455 -0.2826  0.0755  0.3143
  142MOL0     H19126   3.026   1.574   4.689 -1.7148 -4.0296 -0.4054
  142MOL0     H19127   2.952   1.521   4.542 -0.9976  0.4134 -0.4677
  142MOL0     H19128   2.767   1.571   4.703  0.7058 -1.5544  0.0653
  142MOL0     H19129   2.772   1.706   4.591 -2.4577 -1.6012  0.0506
  142MOL0     H19130   2.588   1.799   4.703 -1.8985 -0.7516  1.3113
  142MOL0     H19131   2.463   1.972   4.785  0.2588  0.5513 -3.7463
  142MOL0     H19132   2.743   2.284   5.284 -0.0325  0.8693  2.3979
  142MOL0     H19133   2.718   2.470   5.437  2.4023  0.9603 -3.1006
  142MOL0     H19134   2.407   2.743   5.571  0.0070 -0.3477 -1.1141
  142MOL0     H19135   2.331   2.581   5.534  1.4275 -1.3829 -1.9763
  142MOL0     H19136   2.513   2.479   5.661  2.0173 -0.2029 -0.6619
  142MOL0     H19137   2.582   2.628   5.720  0.6643 -3.5901  1.7288
  142MOL0     H19138   2.364   2.699   5.835  1.4606  0.1447  0.8340
  142MOL0     H19139   2.293   2.539   5.772  0.2622 -0.4022 -0.5469
  142MOL0     H19140   2.525   2.564   5.952  1.0536  0.6976 -3.2627
  142MOL0     H19141   2.468   2.420   5.904  2.3810  1.1671 -1.2756
  142MOL0     H19142   2.273   2.620   6.042  1.5709  0.3967 -2.8058
  142MOL0     H19143   2.384   2.539   6.136 -2.1756  0.9607  1.7240
  142MOL0     H19144   2.183   2.419   6.141  1.2315  0.8280  0.1649
  142MOL0     H19145   2.169   2.402   5.973 -1.1338  4.2916  0.4186
  142MOL0     H19146   2.383   2.255   6.149 -2.9108 -2.1202  2.4327
  142MOL0     H19147   2.378   2.233   5.969 -0.6016  0.8658 -0.5142
  142MOL0     H19148   2.146   2.176   6.155 -1.9728 -0.3469 -1.1364
  142MOL0     H19149   2.146   2.153   5.983 -1.1201  3.2608  0.6998
  142MOL0     H19150   2.331   2.547   5.271  1.2722  2.4462  2.8939
  142MOL0     H19151   2.358   2.355   5.112  0.2604 -1.6141 -0.0274
  142MOL0     H19152   2.805   2.110   5.039 -1.0885  0.5564  0.2294
  142MOL0     H19153   2.931   1.919   4.932  0.8934  2.8747 -0.8273
  142MOL0     H19154   4.408   2.440   4.752 -0.9029 -0.5201 -0.5249
  142MOL0     H19155   4.538   2.664   4.804 -0.5803 -2.6232 -1.9506
  142MOL0     H19156   4.584   3.007   4.806 -0.8838  1.1938  0.1573
  142MOL0     H19157   4.726   3.222   4.790 -3.9397  1.5357  0.0239
  142MOL0     H19158   4.758   3.456   4.835  0.6397  1.3805 -2.1656
  142MOL0     H19159   4.900   3.383   4.791  0.9773 -0.5922 -0.2167
  142MOL0     H19160   4.904   3.589   5.024  1.6534 -0.5608  0.9604
  142MOL0     H19161   4.921   3.622   4.843  3.9336 -0.1797 -0.9972
  142MOL0     H19162   5.107   3.443   4.974  0.2878 -1.9048 -2.6432
  142MOL0     H19163   5.137   3.603   4.990 -0.7402 -2.5167  3.0363
  142MOL0     H19164   5.133   3.464   4.709 -4.2535  2.3109 -0.9357
  142MOL0     H19165   5.158   3.642   4.747 -0.0349  1.5650  2.1695
  142MOL0     H19166   5.522   3.489   4.866 -2.1214 -1.5853  2.0231
  142MOL0     H19167   4.824   3.198   5.202  1.4926 -2.9369  1.0413
  142MOL0     H19168   4.739   3.033   5.329  3.3015 -2.6493  0.1138
  142MOL0     H19169   4.573   2.985   5.298  1.6628  0.3429  5.0996
  142MOL0     H19170   4.720   2.883   5.261  2.2389  1.6624 -1.5280
  143MOL0     O19171  11.069   6.080   1.835 -0.6935 -0.3822 -0.0880
  143MOL0     C19172  11.136   6.151   1.913  0.7704 -1.3298  1.1289
  143MOL0     O19173  11.181   6.108   2.031  0.6645 -0.8588 -0.3212
  143MOL0     C19174  11.149   5.980   2.064 -0.3540 -0.8046  0.1998
  143MOL0     C19175  11.200   5.868   2.004  0.4545  1.2420 -0.1663
  143MOL0     C19176  11.174   5.742   2.056 -0.6169 -0.3543 -0.0825
  143MOL0     C19177  11.082   5.731   2.160 -0.5053  0.2805  0.0518
  143MOL0     O19178  11.050   5.607   2.213 -1.4836  0.3603 -0.9370
  143MOL0     C19179  11.069   5.484   2.144  0.0894 -0.3346  0.6346
  143MOL0     C19180  11.021   5.368   2.236  0.2930  0.0166 -0.0467
  143MOL0     C19181  11.144   5.284   2.280  0.1935  0.8303 -0.6783
  143MOL0     C19182  11.197   5.176   2.179  0.6803 -0.0769 -0.3017
  143MOL0     C19183  11.323   5.104   2.234  0.0387  0.2513  0.1263
  143MOL0     C19184  11.393   5.035   2.117  0.2491 -1.0950  0.9850
  143MOL0     C19185  11.303   4.941   2.028 -0.8902  1.1636  0.4205
  143MOL0     C19186  11.378   4.863   1.923 -0.3853 -0.7987 -0.3370
  143MOL0     N19187  11.410   4.733   1.980  0.1211 -0.4213  0.3343
  143MOL0     C19188  11.487   4.712   2.089  0.6776 -0.4577 -0.7425
  143MOL0     C19189  11.511   4.581   2.088 -1.0982  0.0969  0.3738
  143MOL0     C19190  11.613   4.511   2.172  0.2267 -1.5435  0.2176
  143MOL0     C19191  11.699   4.414   2.099  0.4410  0.7034 -0.1452
  143MOL0     C19192  11.712   4.431   1.943  0.8530  0.9461 -0.8743
  143MOL0     C19193  11.830   4.363   1.873  0.2508  0.1834  0.4451
  143MOL0     O19194  11.838   4.220   1.890 -0.0129  0.4010  0.7086
  143MOL0     C19195  11.952   4.172   1.947 -0.5145  0.4386  0.4084
  143MOL0     C19196  11.945   4.039   1.981  0.3767  0.1888  0.8591
  143MOL0     C19197  12.049   3.970   2.042 -0.2493 -1.5558  0.2864
  143MOL0     C19198  12.177   4.034   2.050  0.9208  1.5473 -0.7834
  143MOL0     C19199  12.297   3.963   2.101 -0.2911 -0.0134  0.6156
  143MOL0     O19200  12.414   4.032   2.119  0.5836 -0.1006  0.3161
  143MOL0     C19201  12.518   3.967   2.188 -0.2300  0.1657 -0.3885
  143MOL0     C19202  12.503   3.909   2.320  0.9129 -1.1065 -0.2617
  143MOL0     C19203  12.609   3.842   2.383 -0.1672 -0.9568 -0.0888
  143MOL0     C19204  12.734   3.846   2.324  0.2247  0.2084 -0.1153
  143MOL0     O19205  12.829   3.790   2.404  0.9446  0.2609 -0.0029
  143MOL0     C19206  12.947   3.737   2.338 -0.2893 -0.8316 -0.4238
  143MOL0     C19207  13.026   3.660   2.441 -0.3574  0.2723 -0.9360
  143MOL0     C19208  13.172   3.621   2.394  0.4703  0.1396 -0.3385
  143MOL0     C19209  13.252   3.571   2.515  0.0208 -0.4659  0.2002
  143MOL0     C19210  13.388   3.495   2.470 -0.4532  1.1031  0.6258
  143MOL0     C19211  13.495   3.583   2.419  0.2820  0.2904  0.6193
  143MOL0     C19212  13.623   3.501   2.384  0.1043 -0.6841  0.3338
  143MOL0     C19213  13.628   3.459   2.235 -0.4950 -1.0182 -0.1787
  143MOL0    Cl19214  13.796   3.406   2.188 -0.0275 -0.5907 -0.0752
  143MOL0     C19215  12.756   3.903   2.203 -0.5771 -0.4531  0.0360
  143MOL0     C19216  12.649   3.959   2.129  0.1627  0.1681 -0.1154
  143MOL0     O19217  12.271   3.851   2.147 -0.5517  0.3421 -0.3041
  143MOL0     C19218  12.181   4.171   2.009  0.2334 -0.2241  0.4209
  143MOL0     C19219  12.074   4.239   1.951  0.8258  0.1138 -0.0347
  143MOL0     N19220  11.435   4.515   1.987 -1.2481  0.1946 -0.3663
  143MOL0     N19221  11.379   4.610   1.929  0.2070  0.0176  0.1775
  143MOL0     C19222  11.034   5.845   2.223 -0.6600  0.9932  0.5528
  143MOL0     C19223  11.074   5.961   2.173 -0.6786 -0.8765  0.4242
  143MOL0     C19224  11.194   6.270   1.861 -0.0727 -0.1381  0.6763
  143MOL0     C19225  11.329   6.316   1.900  0.9646  0.0795  0.6056
  143MOL0     C19226  11.368   6.435   1.855 -0.2377 -0.5284 -0.4679
  143MOL0     C19227  11.293   6.528   1.781 -0.0653  0.8775 -0.7257
  143MOL0     O19228  11.352   6.653   1.743  0.3248  0.0692 -0.6766
  143MOL0     C19229  11.317   6.706   1.612 -0.9476 -0.2773 -0.4586
  143MOL0     C19230  11.401   6.826   1.582  0.0944  0.2662 -0.2596
  143MOL0     C19231  11.546   6.783   1.534  0.4406 -0.3460 -0.2700
  143MOL0     C19232  11.640   6.903   1.521 -0.3787  0.7808 -0.7322
  143MOL0     C19233  11.591   7.027   1.470 -0.1369  0.1839  0.1030
  143MOL0     C19234  11.553   7.133   1.434  0.1661  0.3524 -0.1260
  143MOL0     C19235  11.173   6.487   1.737  0.1981  0.9142 -0.7133
  143MOL0     C19236  11.109   6.365   1.788 -0.3038 -1.1699  0.4187
  143MOL0     C19237  10.970   6.358   1.752 -0.0759  0.3431 -0.4943
  143MOL0     H19238  11.260   5.875   1.913 -0.9467  1.8903 -1.0682
  143MOL0     H19239  11.218   5.654   2.010  0.0090  0.4654 -1.0865
  143MOL0     H19240  11.014   5.480   2.049 -3.6507 -0.0078  2.6169
  143MOL0     H19241  11.175   5.482   2.115 -0.2981 -0.5510 -0.8564
  143MOL0     H19242  10.947   5.308   2.182 -0.4948  0.3179  0.6766
  143MOL0     H19243  10.966   5.411   2.320 -2.6218 -1.4893 -1.0253
  143MOL0     H19244  11.118   5.237   2.375 -1.2400  0.1799 -1.3641
  143MOL0     H19245  11.227   5.351   2.305  1.4826 -0.0652 -2.3844
  143MOL0     H19246  11.118   5.102   2.168  0.7448  0.1909 -3.0257
  143MOL0     H19247  11.212   5.213   2.078 -2.1517  0.8093 -0.4829
  143MOL0     H19248  11.411   5.161   2.266  0.8989  0.1029 -1.8370
  143MOL0     H19249  11.283   5.039   2.312  1.7167 -0.1083  0.7303
  143MOL0     H19250  11.447   5.103   2.050 -0.3843 -0.1871  1.3836
  143MOL0     H19251  11.478   4.987   2.167  1.6018  1.7048  1.5701
  143MOL0     H19252  11.216   4.985   1.978  0.7898  4.5816  0.1573
  143MOL0     H19253  11.248   4.865   2.083 -1.2504  0.8681 -0.3226
  143MOL0     H19254  11.338   4.849   1.822 -1.0674  2.0417 -0.5391
  143MOL0     H19255  11.467   4.924   1.909 -2.1950  1.7269 -1.7090
  143MOL0     H19256  11.538   4.784   2.152 -4.2880  0.0585  3.3998
  143MOL0     H19257  11.670   4.591   2.220 -1.9701 -0.5191  1.2663
  143MOL0     H19258  11.563   4.460   2.255 -2.3870  3.4949  2.1661
  143MOL0     H19259  11.796   4.428   2.147 -0.2331  1.4594  1.0440
  143MOL0     H19260  11.669   4.314   2.130  0.8266 -0.2010 -2.5149
  143MOL0     H19261  11.715   4.538   1.920 -0.2755  1.7032  2.1060
  143MOL0     H19262  11.618   4.395   1.899  1.3920 -1.2158 -0.3699
  143MOL0     H19263  11.918   4.420   1.903  0.8221 -1.9256  3.2073
  143MOL0     H19264  11.810   4.389   1.769 -0.1258 -6.0076 -1.4157
  143MOL0     H19265  11.851   3.987   1.969  0.4804  0.1156  0.3494
  143MOL0     H19266  12.025   3.868   2.071 -1.2410 -1.2521  0.5812
  143MOL0     H19267  12.404   3.911   2.364  1.1613 -2.5917  0.4255
  143MOL0     H19268  12.589   3.795   2.478  1.7579 -2.0676 -0.1937
  143MOL0     H19269  12.918   3.676   2.252  1.7083 -0.3900 -1.4528
  143MOL0     H19270  13.006   3.822   2.302 -3.4227  0.6617 -2.4673
  143MOL0     H19271  13.034   3.737   2.519 -1.7565  0.4012 -0.8907
  143MOL0     H19272  12.979   3.565   2.467  2.0125 -1.2726 -2.0123
  143MOL0     H19273  13.154   3.538   2.325 -0.4016 -0.1458  0.2187
  143MOL0     H19274  13.216   3.702   2.334 -0.8250  0.7173 -0.5510
  143MOL0     H19275  13.196   3.503   2.581 -1.3215  0.9198  0.5356
  143MOL0     H19276  13.277   3.649   2.587 -2.5814  0.7087 -0.0790
  143MOL0     H19277  13.369   3.412   2.402 -1.5519  0.5425  1.5820
  143MOL0     H19278  13.438   3.451   2.557  0.6524 -0.8125 -0.8995
  143MOL0     H19279  13.458   3.631   2.328  1.1838  0.5949  0.4029
  143MOL0     H19280  13.505   3.662   2.494 -1.1938  0.3090  0.8182
  143MOL0     H19281  13.621   3.409   2.443  3.1595  0.0713  1.8264
  143MOL0     H19282  13.714   3.553   2.416  0.7347 -2.1402  1.0065
  143MOL0     H19283  13.558   3.376   2.227 -0.6631 -0.7125 -2.3335
  143MOL0     H19284  13.599   3.544   2.173 -0.9161  1.2481  2.8630
  143MOL0     H19285  12.846   3.877   2.147  1.1207 -0.5841  2.6697
  143MOL0     H19286  12.675   4.000   2.032  1.7921 -2.1497 -0.7472
  143MOL0     H19287  12.279   4.216   2.014 -0.6369  1.6789  1.5391
  143MOL0     H19288  12.102   4.342   1.928  0.2688  0.3698  0.4270
  143MOL0     H19289  10.985   5.841   2.319 -3.7082  0.4341 -0.8975
  143MOL0     H19290  11.040   6.047   2.231 -0.8067 -0.6258 -0.0185
  143MOL0     H19291  11.391   6.263   1.972 -0.4873 -2.4307  0.1430
  143MOL0     H19292  11.466   6.474   1.882 -0.5062  0.7895 -1.2972
  143MOL0     H19293  11.213   6.739   1.622 -0.7616  0.4397 -0.8106
  143MOL0     H19294  11.326   6.632   1.533  0.6687  0.3404 -0.9010
  143MOL0     H19295  11.407   6.892   1.669 -0.8053  1.2531 -0.9335
  143MOL0     H19296  11.348   6.879   1.502 -2.2199 -1.5306 -0.0175
  143MOL0     H19297  11.536   6.735   1.436  1.3325  0.8629 -0.9755
  143MOL0     H19298  11.590   6.714   1.606  0.8373 -1.9404 -1.9500
  143MOL0     H19299  11.673   6.911   1.625  0.8727 -1.4656 -0.8997
  143MOL0     H19300  11.721   6.871   1.455 -0.2284  0.4469 -0.3899
  143MOL0     H19301  11.527   7.234   1.408  0.3215  0.3776 -0.1862
  143MOL0     H19302  11.108   6.546   1.672 -0.9181 -0.2767 -0.7194
  143MOL0     H19303  10.936   6.457   1.721  3.2437  1.8826  0.3591
  143MOL0     H19304  10.951   6.282   1.675 -3.5648  1.8822 -1.3574
  143MOL0     H19305  10.911   6.324   1.838 -0.8484  0.4727 -0.9579
  144MOL0     O19306   8.045   8.983   1.999 -0.5472 -0.0124 -1.0950
  144MOL0     C19307   8.037   9.072   2.079  0.5392 -1.2512 -0.3430
  144MOL0     O19308   8.146   9.130   2.151  0.1895 -0.2958  0.3779
  144MOL0     C19309   8.255   9.048   2.150  0.5444 -1.5604  0.0011
  144MOL0     C19310   8.358   9.048   2.052  0.0340 -0.7561 -0.8299
  144MOL0     C19311   8.465   8.961   2.076 -0.3651  0.0749 -0.5659
  144MOL0     C19312   8.475   8.884   2.190 -0.5585  0.8480 -0.1014
  144MOL0     O19313   8.583   8.798   2.216 -0.0795 -0.2660 -0.0290
  144MOL0     C19314   8.559   8.665   2.180 -0.4295  0.4595 -0.1582
  144MOL0     C19315   8.692   8.586   2.171 -0.4057 -0.5737 -0.5225
  144MOL0     C19316   8.742   8.558   2.313  0.1536  1.0070  1.3066
  144MOL0     C19317   8.777   8.411   2.320 -0.1997  1.5161  0.2177
  144MOL0     C19318   8.836   8.369   2.452  1.3759 -0.1713  0.4151
  144MOL0     C19319   8.870   8.227   2.474  0.1006  0.0388 -0.0855
  144MOL0     C19320   8.979   8.209   2.590 -0.3102 -0.1604  0.2444
  144MOL0     C19321   9.002   8.070   2.637 -0.0534 -0.1985  0.1861
  144MOL0     N19322   8.888   7.994   2.689  0.5254 -1.3119  0.3981
  144MOL0     C19323   8.794   8.066   2.750  0.4642 -0.9689  0.5053
  144MOL0     C19324   8.675   8.007   2.729  0.7175  0.3369  0.2619
  144MOL0     C19325   8.537   8.061   2.772 -0.5842 -0.5757 -0.4367
  144MOL0     C19326   8.485   8.012   2.920  0.4173 -0.9181 -0.3197
  144MOL0     C19327   8.506   7.856   2.945  0.2563  0.0986  0.4138
  144MOL0     C19328   8.437   7.793   3.078 -0.3212  0.6910  0.5658
  144MOL0     O19329   8.478   7.655   3.097  0.5677 -0.0836 -0.0382
  144MOL0     C19330   8.379   7.591   3.163 -0.0124  0.0497  0.4755
  144MOL0     C19331   8.295   7.498   3.097  0.3427 -0.6198  0.7027
  144MOL0     C19332   8.193   7.437   3.162  0.1089 -0.7225 -0.2506
  144MOL0     C19333   8.178   7.457   3.304 -0.7433  0.4486 -0.0566
  144MOL0     C19334   8.078   7.370   3.374  0.5290  0.0782  1.2533
  144MOL0     O19335   8.006   7.425   3.474  0.6608  0.1296  0.0099
  144MOL0     C19336   7.903   7.345   3.536 -0.9578 -0.0392 -0.7918
  144MOL0     C19337   7.932   7.226   3.616 -1.2587  0.4170  0.4329
  144MOL0     C19338   7.838   7.153   3.680 -0.2548  0.5985  0.0076
  144MOL0     C19339   7.703   7.193   3.671 -0.2588  1.0656  0.0769
  144MOL0     O19340   7.618   7.109   3.724  0.3730 -0.0976 -0.0681
  144MOL0     C19341   7.502   7.157   3.787 -1.1934 -0.3238 -0.2753
  144MOL0     C19342   7.421   7.058   3.868 -0.3535 -0.6029 -0.0796
  144MOL0     C19343   7.288   7.112   3.919  0.9082  0.4548 -0.5265
  144MOL0     C19344   7.190   7.175   3.814 -0.3731  0.5973  0.1799
  144MOL0     C19345   7.060   7.207   3.876 -0.6571  0.8813 -0.6634
  144MOL0     C19346   6.974   7.090   3.931 -0.5396 -0.6026 -0.5330
  144MOL0     C19347   6.981   6.971   3.833  0.0256  0.3531  0.6125
  144MOL0     C19348   6.858   6.870   3.848 -0.6586 -0.7479  0.1790
  144MOL0    Cl19349   6.716   6.947   3.816 -0.1319  0.1104 -0.3592
  144MOL0     C19350   7.679   7.298   3.573  0.6370  1.0896 -0.8203
  144MOL0     C19351   7.778   7.378   3.513 -0.4909 -0.2407 -0.2260
  144MOL0     O19352   8.053   7.255   3.332  0.4407 -0.4682  0.3947
  144MOL0     C19353   8.266   7.536   3.379 -0.2304 -0.2270 -1.1127
  144MOL0     C19354   8.363   7.607   3.306  0.4832 -0.0883  0.0403
  144MOL0     N19355   8.698   7.890   2.657  0.4206 -0.4003  0.3920
  144MOL0     N19356   8.824   7.888   2.633 -0.1615 -0.4748  0.0493
  144MOL0     C19357   8.385   8.899   2.289  0.4024 -0.4471  0.2962
  144MOL0     C19358   8.272   8.978   2.268  0.6402  1.1262 -0.3738
  144MOL0     C19359   7.903   9.144   2.086  0.1589  0.9813  0.2516
  144MOL0     C19360   7.833   9.188   1.973 -0.2737  0.4744  0.0379
  144MOL0     C19361   7.724   9.270   1.990  0.1057 -0.3827 -0.4458
  144MOL0     C19362   7.672   9.314   2.119 -0.3649 -0.2470  0.3740
  144MOL0     O19363   7.571   9.402   2.132 -0.2145 -0.5756  0.1648
  144MOL0     C19364   7.513   9.463   2.009  0.4064 -0.4882 -0.6482
  144MOL0     C19365   7.414   9.561   2.066 -0.3354 -0.0908  0.3949
  144MOL0     C19366   7.285   9.481   2.100 -1.0815  0.4322  0.3179
  144MOL0     C19367   7.186   9.566   2.187  0.7498 -0.5638  0.0237
  144MOL0     C19368   7.135   9.680   2.114  0.8514 -0.0044 -0.7390
  144MOL0     C19369   7.101   9.786   2.077 -0.2293  0.4081  0.1618
  144MOL0     C19370   7.743   9.263   2.231 -1.3891 -0.1045  0.8219
  144MOL0     C19371   7.858   9.179   2.218 -0.3090 -0.2005  0.3505
  144MOL0     C19372   7.932   9.134   2.350 -0.6178  0.3449  0.7916
  144MOL0     H19373   8.337   9.097   1.957  0.4971 -0.2605 -0.6830
  144MOL0     H19374   8.529   8.954   1.990  0.7820 -1.7867  0.3833
  144MOL0     H19375   8.502   8.607   2.253  0.5866  0.9161  1.0444
  144MOL0     H19376   8.518   8.657   2.079  0.1305 -2.4750 -0.2434
  144MOL0     H19377   8.771   8.628   2.108  0.6289 -2.5765 -0.6378
  144MOL0     H19378   8.673   8.495   2.114 -1.7681  0.3092 -1.5467
  144MOL0     H19379   8.677   8.587   2.396  0.9378  1.6648  1.7076
  144MOL0     H19380   8.833   8.619   2.322  0.2264  0.8843  1.4019
  144MOL0     H19381   8.690   8.345   2.320 -0.3121  1.4751  3.5318
  144MOL0     H19382   8.845   8.385   2.239  1.1868  4.9110  0.1242
  144MOL0     H19383   8.935   8.413   2.466  3.2669 -4.7140  4.5954
  144MOL0     H19384   8.761   8.388   2.530  1.5494 -3.8943  1.7064
  144MOL0     H19385   8.771   8.193   2.507 -0.3254  3.0323  2.1380
  144MOL0     H19386   8.898   8.174   2.382 -1.3978 -1.4627  0.2654
  144MOL0     H19387   8.950   8.281   2.667 -1.9162  1.1847 -1.5091
  144MOL0     H19388   9.078   8.247   2.562 -0.5032  1.8344  2.0389
  144MOL0     H19389   9.035   8.014   2.549 -4.0223 -2.5804 -0.0306
  144MOL0     H19390   9.085   8.066   2.708  0.3662 -1.0458 -0.3386
  144MOL0     H19391   8.801   8.165   2.795 -3.2371 -0.3141 -0.0630
  144MOL0     H19392   8.542   8.170   2.762 -1.2121 -0.4347  0.5784
  144MOL0     H19393   8.470   8.036   2.690 -0.6249  1.3661 -1.0262
  144MOL0     H19394   8.535   8.079   2.991  0.2013 -0.1585 -0.8721
  144MOL0     H19395   8.379   8.038   2.924  0.5910 -0.2825  0.2521
  144MOL0     H19396   8.614   7.843   2.946  0.2828  0.2314 -0.0836
  144MOL0     H19397   8.459   7.806   2.860 -0.2699 -0.2127  0.8791
  144MOL0     H19398   8.328   7.800   3.076 -0.5666 -2.1245 -0.7865
  144MOL0     H19399   8.476   7.847   3.165  2.5670 -1.5135  0.8129
  144MOL0     H19400   8.311   7.482   2.991  1.8067 -0.6798  0.9233
  144MOL0     H19401   8.128   7.379   3.098 -1.0117  0.4029 -0.1759
  144MOL0     H19402   8.036   7.197   3.630 -0.6265  3.2338  2.3724
  144MOL0     H19403   7.875   7.070   3.740  0.1869 -0.1693 -1.2954
  144MOL0     H19404   7.530   7.250   3.839  3.0798 -0.2750 -2.2080
  144MOL0     H19405   7.447   7.199   3.703  0.3283  0.9862 -0.6742
  144MOL0     H19406   7.395   6.981   3.795 -0.8027  1.1119 -1.8071
  144MOL0     H19407   7.487   7.025   3.948 -0.7252 -0.8844  0.1182
  144MOL0     H19408   7.238   7.023   3.960 -0.7924  0.8951 -1.5192
  144MOL0     H19409   7.301   7.179   4.004 -1.3016  3.1779 -2.1573
  144MOL0     H19410   7.180   7.103   3.733 -0.1991  1.0544 -0.2578
  144MOL0     H19411   7.238   7.262   3.767 -0.2708  0.7059  0.4805
  144MOL0     H19412   6.990   7.255   3.808 -2.7322  0.8832  1.3266
  144MOL0     H19413   7.069   7.277   3.961  1.6077 -0.8450  0.6290
  144MOL0     H19414   7.011   7.060   4.030  0.6069  0.7773 -0.5088
  144MOL0     H19415   6.869   7.119   3.935 -0.4310  0.0025  5.0284
  144MOL0     H19416   7.066   6.907   3.859 -0.7346 -0.9184  0.0743
  144MOL0     H19417   6.978   7.002   3.728 -0.0430 -0.4971  0.3597
  144MOL0     H19418   6.881   6.795   3.772  1.7381  0.6331 -0.5871
  144MOL0     H19419   6.855   6.806   3.937  3.9498 -1.9624 -0.2847
  144MOL0     H19420   7.581   7.332   3.542 -0.3866  1.1180  2.1251
  144MOL0     H19421   7.746   7.446   3.435 -5.2347 -3.7010 -1.8151
  144MOL0     H19422   8.259   7.547   3.487 -0.1319  0.1429 -1.1441
  144MOL0     H19423   8.428   7.672   3.365  0.7680 -0.9663  0.7134
  144MOL0     H19424   8.394   8.840   2.380 -2.9354 -2.2514 -0.3811
  144MOL0     H19425   8.197   8.967   2.346 -0.0952 -0.9660 -1.3033
  144MOL0     H19426   7.876   9.161   1.877 -0.3577 -0.3058  0.2131
  144MOL0     H19427   7.676   9.311   1.902 -0.9107  1.1252  0.7606
  144MOL0     H19428   7.458   9.391   1.948 -0.6279 -0.9628  0.7850
  144MOL0     H19429   7.589   9.510   1.946 -0.1245  1.2127 -0.0693
  144MOL0     H19430   7.385   9.639   1.995  2.1572  1.8764  1.3796
  144MOL0     H19431   7.453   9.602   2.160 -0.4971 -2.4910  1.5890
  144MOL0     H19432   7.316   9.390   2.151 -0.5428  0.4523  0.0279
  144MOL0     H19433   7.233   9.462   2.006 -1.9855  1.9368  0.4725
  144MOL0     H19434   7.102   9.504   2.219 -0.6405  1.3569  0.2094
  144MOL0     H19435   7.241   9.599   2.275  0.1212  0.1962  0.1328
  144MOL0     H19436   7.063   9.876   2.032 -1.6983 -1.5284 -2.7686
  144MOL0     H19437   7.702   9.279   2.330  2.0785  0.8521  2.2330
  144MOL0     H19438   8.022   9.197   2.352 -0.5375  0.3048  4.5047
  144MOL0     H19439   7.888   9.178   2.440  0.3953  1.1811  0.8933
  144MOL0     H19440   7.948   9.026   2.348  0.0826  0.4319 -1.7599
  145MOL0     O19441   4.039   9.452  11.163  0.3832  0.5400  0.3447
  145MOL0     C19442   4.141   9.417  11.234  0.3385  0.5156  0.3129
  145MOL0     O19443   4.258   9.480  11.245  0.4284  0.5455  0.2423
  145MOL0     C19444   4.296   9.585  11.164  0.5082  0.5883 -0.2646
  145MOL0     C19445   4.375   9.566  11.046  0.2743  0.0231  0.0809
  145MOL0     C19446   4.407   9.686  10.973  0.1637  0.2524  0.2081
  145MOL0     C19447   4.375   9.818  11.017 -0.1830 -1.4674  0.2463
  145MOL0     O19448   4.413   9.933  10.952  0.9476  0.0410  0.3028
  145MOL0     C19449   4.551   9.945  10.915  0.3472 -0.1754  0.5373
  145MOL0     C19450   4.650   9.934  11.028 -0.3298 -0.9360 -0.1880
  145MOL0     C19451   4.746   9.819  11.019 -0.8994 -0.5643  0.1476
  145MOL0     C19452   4.845   9.852  11.131 -0.2119  0.1410 -0.0821
  145MOL0     C19453   4.961   9.750  11.149  0.0352  0.3607  0.3225
  145MOL0     C19454   5.086   9.790  11.050  0.3321  0.3881 -0.3815
  145MOL0     C19455   5.209   9.729  11.118 -0.3092 -0.7117  0.8615
  145MOL0     C19456   5.318   9.737  11.003  0.2720  0.3856 -0.7734
  145MOL0     N19457   5.441   9.658  11.053 -0.2833 -0.1069  0.1312
  145MOL0     C19458   5.471   9.527  11.032  0.6115  0.0011 -0.4451
  145MOL0     C19459   5.591   9.503  11.090 -0.9692 -1.2913 -0.6052
  145MOL0     C19460   5.658   9.374  11.098  0.0886 -0.6469  0.1577
  145MOL0     C19461   5.807   9.393  11.132 -0.6488  0.0555 -0.0034
  145MOL0     C19462   5.898   9.269  11.107 -0.2718  0.2749  0.1302
  145MOL0     C19463   6.042   9.311  11.097  0.8043  0.0858 -0.8148
  145MOL0     O19464   6.135   9.206  11.060  0.1449  0.0975  0.2521
  145MOL0     C19465   6.268   9.235  11.091  0.1434 -1.1485 -0.5442
  145MOL0     C19466   6.318   9.367  11.094  0.1123 -1.0997 -0.2300
  145MOL0     C19467   6.455   9.395  11.119  0.5690  0.5184 -0.8450
  145MOL0     C19468   6.547   9.289  11.139 -0.8071  0.4693  0.5147
  145MOL0     C19469   6.697   9.315  11.167 -0.1592 -0.4045 -0.7748
  145MOL0     O19470   6.729   9.432  11.234  0.3724  0.2742  0.4874
  145MOL0     C19471   6.859   9.473  11.230 -0.7403 -0.1688 -0.4053
  145MOL0     C19472   6.913   9.553  11.336  0.3825  0.7608 -0.3048
  145MOL0     C19473   7.045   9.601  11.333 -0.1473  0.4363 -0.5382
  145MOL0     C19474   7.121   9.576  11.224 -0.0967  0.0475 -0.2715
  145MOL0     O19475   7.258   9.610  11.203  0.0316  0.4868 -0.4532
  145MOL0     C19476   7.286   9.729  11.270 -0.4602 -0.1186  0.9298
  145MOL0     C19477   7.423   9.776  11.234  0.3347  0.2780 -0.5489
  145MOL0     C19478   7.451   9.908  11.304  0.5229  0.1832  1.3034
  145MOL0     C19479   7.535   9.894  11.418 -0.7294 -0.3651  0.1409
  145MOL0     C19480   7.582  10.028  11.467 -0.1441  0.3271  0.1446
  145MOL0     C19481   7.642  10.004  11.607 -0.5232  0.6290  0.5328
  145MOL0     C19482   7.675  10.141  11.658  0.5044  0.3855 -0.2811
  145MOL0     C19483   7.752  10.144  11.788 -0.0206 -0.6557  0.7217
  145MOL0    Cl19484   7.921  10.044  11.772  1.0062 -0.1020  0.0155
  145MOL0     C19485   7.070   9.506  11.112 -0.0505 -0.0396  0.2101
  145MOL0     C19486   6.941   9.455  11.117 -0.0574 -0.6870  1.0508
  145MOL0     O19487   6.774   9.222  11.146  0.3411  0.3509 -0.7282
  145MOL0     C19488   6.496   9.161  11.139 -0.7942  0.1236  0.0620
  145MOL0     C19489   6.364   9.137  11.118  0.1987  0.3186  0.4774
  145MOL0     N19490   5.627   9.622  11.150 -0.0396  0.6680  0.6285
  145MOL0     N19491   5.537   9.715  11.132  0.1022  0.2580  0.7353
  145MOL0     C19492   4.287   9.827  11.127  0.4527  0.8778 -0.2998
  145MOL0     C19493   4.252   9.713  11.199  0.3962 -0.6928  0.1114
  145MOL0     C19494   4.126   9.301  11.323  1.3498 -0.9306  0.2616
  145MOL0     C19495   4.222   9.284  11.423 -0.5259  0.2895 -0.5652
  145MOL0     C19496   4.198   9.180  11.521 -0.4484 -0.6685  0.1128
  145MOL0     C19497   4.083   9.105  11.518 -1.0596  0.3039  0.1372
  145MOL0     O19498   4.063   9.014  11.621 -0.6018 -0.1758 -0.5025
  145MOL0     C19499   3.972   8.904  11.615  0.4636 -0.1237  0.1299
  145MOL0     C19500   3.841   8.953  11.684  0.2205 -0.9028 -0.5735
  145MOL0     C19501   3.759   8.846  11.746  0.2090 -0.3441 -0.4401
  145MOL0     C19502   3.647   8.893  11.846  0.1135  0.9189 -0.8907
  145MOL0     C19503   3.544   8.795  11.865  1.2145  0.4198  0.1439
  145MOL0     C19504   3.465   8.705  11.895  0.1785 -0.8850 -0.3207
  145MOL0     C19505   3.994   9.120  11.412  0.2235  0.0575  0.4575
  145MOL0     C19506   4.019   9.211  11.313 -0.1633  0.1129  0.4605
  145MOL0     C19507   3.940   9.180  11.187 -0.1270 -0.6531 -0.7846
  145MOL0     H19508   4.409   9.473  11.003  0.9001 -1.0238  2.6209
  145MOL0     H19509   4.474   9.681  10.888  0.1204  1.3242  0.0901
  145MOL0     H19510   4.581   9.879  10.834 -1.7312  0.2106 -0.6319
  145MOL0     H19511   4.555  10.048  10.877 -0.9783 -0.8468 -1.5979
  145MOL0     H19512   4.585   9.919  11.115  1.3539 -1.7094  0.9892
  145MOL0     H19513   4.692  10.034  11.044 -1.3699 -0.2575 -1.5655
  145MOL0     H19514   4.793   9.823  10.920  3.1613  0.4226  1.9640
  145MOL0     H19515   4.693   9.730  11.055  1.1425 -1.5596  0.8166
  145MOL0     H19516   4.891   9.951  11.126  1.7880 -0.5643  2.3209
  145MOL0     H19517   4.785   9.855  11.222 -0.8023 -2.8567 -0.3006
  145MOL0     H19518   4.993   9.771  11.252 -0.7939 -0.5254  0.7688
  145MOL0     H19519   4.937   9.644  11.161  1.5020 -0.0039  0.2036
  145MOL0     H19520   5.071   9.738  10.955  5.2106  0.2743 -1.3570
  145MOL0     H19521   5.099   9.897  11.031  0.7159  0.2926 -0.6803
  145MOL0     H19522   5.184   9.624  11.137  3.4361 -1.6736  1.1716
  145MOL0     H19523   5.242   9.775  11.212 -0.8830 -2.5361  1.9951
  145MOL0     H19524   5.286   9.693  10.908 -0.6046  0.0872 -0.3524
  145MOL0     H19525   5.341   9.843  10.991 -1.8550  1.2394  1.6991
  145MOL0     H19526   5.411   9.457  10.975  1.2000 -1.3657  0.5741
  145MOL0     H19527   5.620   9.304  11.173 -0.6181  1.7796  2.1826
  145MOL0     H19528   5.651   9.339  10.994  2.7230  1.1297 -0.7241
  145MOL0     H19529   5.853   9.466  11.065  1.2626 -0.7313  0.3745
  145MOL0     H19530   5.813   9.435  11.233  0.0256  0.9161 -0.3874
  145MOL0     H19531   5.869   9.223  11.012  0.5619  0.0473 -0.0192
  145MOL0     H19532   5.888   9.194  11.187  0.8701 -0.1739 -0.1340
  145MOL0     H19533   6.073   9.352  11.194 -0.3973  0.5994 -0.6311
  145MOL0     H19534   6.045   9.395  11.026  0.9531 -0.2662 -1.2288
  145MOL0     H19535   6.252   9.453  11.086 -0.7321 -1.8194 -1.1389
  145MOL0     H19536   6.487   9.495  11.146 -0.2574  0.6660 -0.3845
  145MOL0     H19537   6.846   9.585  11.416  0.4130 -0.0727  0.0644
  145MOL0     H19538   7.068   9.665  11.417  0.3811 -1.5456  0.8940
  145MOL0     H19539   7.219   9.808  11.235  0.7509 -0.3024 -2.1376
  145MOL0     H19540   7.277   9.728  11.379 -0.9714 -4.8874  1.0630
  145MOL0     H19541   7.494   9.698  11.263  0.9204  0.3638 -1.6965
  145MOL0     H19542   7.434   9.788  11.126  2.4795 -0.8916 -0.5155
  145MOL0     H19543   7.504   9.977  11.238  0.7144 -0.5325  0.6947
  145MOL0     H19544   7.361   9.949  11.350 -0.0042 -0.1224  0.5669
  145MOL0     H19545   7.625   9.845  11.380 -0.4718  2.4601 -3.4284
  145MOL0     H19546   7.477   9.838  11.492 -0.9381  1.3824  1.3545
  145MOL0     H19547   7.503  10.103  11.478 -0.8118 -0.4454  0.6982
  145MOL0     H19548   7.660  10.073  11.404 -0.3865 -0.6680 -0.9123
  145MOL0     H19549   7.570   9.957  11.675  1.6497  1.1473  3.3763
  145MOL0     H19550   7.741   9.958  11.601  0.5683  2.9721 -0.4073
  145MOL0     H19551   7.584  10.202  11.668 -0.1963 -0.5737 -0.6663
  145MOL0     H19552   7.734  10.180  11.575  0.2371 -2.3224 -1.8347
  145MOL0     H19553   7.757  10.249  11.818  0.8679 -0.8251  1.1933
  145MOL0     H19554   7.684  10.101  11.862 -1.8773 -0.5863 -0.8671
  145MOL0     H19555   7.128   9.505  11.020 -0.9560 -0.7576 -0.3671
  145MOL0     H19556   6.911   9.403  11.026  0.1943  1.5341 -0.3899
  145MOL0     H19557   6.561   9.078  11.166 -1.9804 -0.3169  1.7825
  145MOL0     H19558   6.335   9.032  11.111  0.2153  0.3922 -1.0326
  145MOL0     H19559   4.261   9.924  11.168 -1.4656  1.8616 -3.5165
  145MOL0     H19560   4.197   9.742  11.289  0.3943  0.3420 -0.2025
  145MOL0     H19561   4.304   9.355  11.428 -2.5758  2.7804 -0.1109
  145MOL0     H19562   4.284   9.145  11.576  0.4839 -3.6204 -2.8954
  145MOL0     H19563   4.006   8.812  11.664  1.3120 -1.4080 -2.6426
  145MOL0     H19564   3.951   8.865  11.515  3.0655 -1.2576 -0.0564
  145MOL0     H19565   3.786   8.997  11.600  1.1265  1.4602 -0.0016
  145MOL0     H19566   3.864   9.035  11.752  2.7525  0.4904 -2.8807
  145MOL0     H19567   3.828   8.777  11.796  0.2682  0.4152  0.5364
  145MOL0     H19568   3.711   8.787  11.666  0.6803 -0.7789 -0.4102
  145MOL0     H19569   3.686   8.908  11.947  1.6727  1.2163 -1.4982
  145MOL0     H19570   3.609   8.986  11.802 -1.8456 -0.1444 -1.5414
  145MOL0     H19571   3.386   8.638  11.924 -1.2673  0.9470  0.1976
  145MOL0     H19572   3.912   9.050  11.412 -0.9216  1.3614  0.1072
  145MOL0     H19573   4.013   9.188  11.106  1.8900  0.5631  1.0368
  145MOL0     H19574   3.894   9.081  11.190 -2.8901  0.5841  0.6722
  145MOL0     H19575   3.857   9.249  11.175  1.3483  1.3874  0.1924
  146MOL0     O19576   6.153   6.909   1.666 -0.3540 -0.2007  0.7062
  146MOL0     C19577   6.173   6.828   1.574 -0.7525  0.4692  0.3779
  146MOL0     O19578   6.097   6.828   1.453 -0.2626 -0.4759  0.1099
  146MOL0     C19579   6.032   6.950   1.426 -0.5982 -0.0733  0.7153
  146MOL0     C19580   5.895   6.962   1.460 -0.2306  0.4805  0.4227
  146MOL0     C19581   5.826   7.084   1.437  0.1012  0.2560 -0.4999
  146MOL0     C19582   5.890   7.191   1.372 -0.4799 -1.3101 -0.0413
  146MOL0     O19583   5.830   7.317   1.350  0.0816 -0.4321  0.6047
  146MOL0     C19584   5.703   7.335   1.398  0.3131  0.8951  1.3509
  146MOL0     C19585   5.675   7.480   1.384 -0.0857 -0.0744  0.4739
  146MOL0     C19586   5.530   7.512   1.426 -0.5208 -0.2097  0.3423
  146MOL0     C19587   5.545   7.637   1.499  0.2743  0.1404 -0.8102
  146MOL0     C19588   5.564   7.748   1.391 -0.9800 -0.2393 -0.4200
  146MOL0     C19589   5.612   7.890   1.452  0.3916 -0.7043  0.2231
  146MOL0     C19590   5.527   7.920   1.578 -1.1105  0.2033 -0.4941
  146MOL0     C19591   5.384   7.924   1.538  0.4593 -0.3793  0.5857
  146MOL0     N19592   5.305   7.935   1.657 -0.0192 -0.2831  0.0622
  146MOL0     C19593   5.301   8.035   1.744  0.1489 -0.4008 -0.4744
  146MOL0     C19594   5.215   8.001   1.840  0.1196  0.7991  0.6889
  146MOL0     C19595   5.180   8.083   1.958  0.9047 -0.0447 -0.6064
  146MOL0     C19596   5.078   8.189   1.923 -0.9649 -0.7633 -1.2262
  146MOL0     C19597   5.151   8.321   1.874  0.1163  0.4112 -0.5061
  146MOL0     C19598   5.046   8.418   1.827  0.1773  0.7107 -0.1115
  146MOL0     O19599   5.130   8.521   1.759  0.0995  0.6768  0.2717
  146MOL0     C19600   5.090   8.569   1.636  0.6349 -0.2313  0.8074
  146MOL0     C19601   5.181   8.628   1.554  0.0079  0.2321  0.1973
  146MOL0     C19602   5.154   8.681   1.425  0.2640 -0.7879 -0.2967
  146MOL0     C19603   5.025   8.668   1.375 -0.6828  0.0199  0.2897
  146MOL0     C19604   4.987   8.723   1.245 -0.7490 -0.1278 -0.9129
  146MOL0     O19605   4.866   8.690   1.194  0.2879  0.0318  0.2204
  146MOL0     C19606   4.835   8.743   1.071  0.3312  0.4177  0.2927
  146MOL0     C19607   4.863   8.881   1.047  1.0230 -0.7538  0.4898
  146MOL0     C19608   4.844   8.936   0.921  0.6601 -0.1395 -0.5221
  146MOL0     C19609   4.790   8.861   0.818 -0.4666  0.1282  0.0554
  146MOL0     O19610   4.752   8.926   0.702  0.5920  0.2747  0.1011
  146MOL0     C19611   4.661   9.036   0.726  0.6689 -0.1755  0.8153
  146MOL0     C19612   4.525   8.970   0.732  0.1134 -0.2078 -0.0076
  146MOL0     C19613   4.481   8.970   0.880 -0.2900  0.0506 -0.0181
  146MOL0     C19614   4.368   8.865   0.902 -0.7454 -0.3321  1.1176
  146MOL0     C19615   4.343   8.840   1.055 -0.9324  0.7091 -0.0475
  146MOL0     C19616   4.449   8.737   1.106  0.5742 -1.1699  0.5180
  146MOL0     C19617   4.405   8.678   1.236  0.3075 -0.4606  0.4380
  146MOL0     C19618   4.513   8.562   1.249  0.5660  0.9597 -0.0602
  146MOL0    Cl19619   4.494   8.432   1.119 -0.2941  0.0518  0.3612
  146MOL0     C19620   4.771   8.722   0.839 -0.5048 -0.0195  0.1798
  146MOL0     C19621   4.793   8.668   0.969  1.3302  0.0640  1.0879
  146MOL0     O19622   5.074   8.797   1.192  0.7849  0.3636 -0.3785
  146MOL0     C19623   4.929   8.618   1.461  0.2987  1.4554  0.3061
  146MOL0     C19624   4.957   8.563   1.586 -0.1607 -0.2780  0.5690
  146MOL0     N19625   5.183   7.867   1.827 -0.1687  0.2885  0.2474
  146MOL0     N19626   5.242   7.828   1.715  0.1271  0.2829  0.3317
  146MOL0     C19627   6.032   7.182   1.347  0.2230  0.3572  0.1462
  146MOL0     C19628   6.095   7.059   1.371  0.1525 -0.0487 -0.5091
  146MOL0     C19629   6.262   6.714   1.607  0.0504  0.3855  0.1733
  146MOL0     C19630   6.219   6.589   1.556 -0.1998  0.0803  1.5467
  146MOL0     C19631   6.287   6.468   1.578  0.3315 -0.0864 -0.6130
  146MOL0     C19632   6.410   6.475   1.640 -0.7078 -0.1711 -0.3677
  146MOL0     O19633   6.494   6.368   1.657 -0.5646 -0.2074 -0.7507
  146MOL0     C19634   6.486   6.321   1.792  0.0480 -0.5732 -0.3789
  146MOL0     C19635   6.332   6.283   1.821 -0.0951 -0.3696  1.1681
  146MOL0     C19636   6.323   6.197   1.946  0.1490  0.1020 -0.0394
  146MOL0     C19637   6.198   6.107   1.943  0.1304 -0.6214  0.5986
  146MOL0     C19638   6.227   5.971   1.901 -0.1131  0.3642  0.5522
  146MOL0     C19639   6.258   5.854   1.871 -0.1005  0.6073 -0.1953
  146MOL0     C19640   6.448   6.596   1.695  0.4330  0.1513  0.2600
  146MOL0     C19641   6.381   6.714   1.671 -0.5862 -0.4152 -0.9365
  146MOL0     C19642   6.431   6.835   1.746  0.6467 -0.7422 -0.3166
  146MOL0     H19643   5.844   6.877   1.504 -3.2994  0.7157 -2.3462
  146MOL0     H19644   5.722   7.082   1.467 -0.9993  0.8564 -3.8317
  146MOL0     H19645   5.623   7.289   1.340  0.5123 -2.3650  3.4290
  146MOL0     H19646   5.701   7.306   1.503  0.1788  1.0767  1.3992
  146MOL0     H19647   5.682   7.508   1.278 -1.4280 -1.2620  0.0491
  146MOL0     H19648   5.748   7.542   1.438 -0.9854 -0.3009  2.0028
  146MOL0     H19649   5.500   7.420   1.478 -1.4108 -0.7298 -1.0471
  146MOL0     H19650   5.471   7.510   1.334 -1.0422 -5.1084  0.5131
  146MOL0     H19651   5.450   7.639   1.554  1.7372 -1.4328  1.9151
  146MOL0     H19652   5.626   7.637   1.572 -0.5748 -1.6988  0.1680
  146MOL0     H19653   5.629   7.731   1.305  0.5498  2.3044  0.1231
  146MOL0     H19654   5.470   7.774   1.340 -1.6575 -0.1230  0.8537
  146MOL0     H19655   5.720   7.893   1.468  0.4983 -0.0348 -0.5704
  146MOL0     H19656   5.590   7.964   1.375 -0.9570  1.6590  2.6681
  146MOL0     H19657   5.556   8.017   1.619  0.8455 -0.4261 -0.2879
  146MOL0     H19658   5.551   7.854   1.662  1.3654  1.0862 -0.4197
  146MOL0     H19659   5.357   7.998   1.462 -1.6638  0.7863  2.3270
  146MOL0     H19660   5.361   7.823   1.503 -0.6565  0.4027 -1.0326
  146MOL0     H19661   5.332   8.139   1.733 -1.2838  0.1554  0.4813
  146MOL0     H19662   5.141   8.012   2.031  1.3012  0.1896 -0.1584
  146MOL0     H19663   5.263   8.137   2.004  1.1621  0.0211 -1.1348
  146MOL0     H19664   5.015   8.146   1.846 -0.7191 -0.0890 -1.8193
  146MOL0     H19665   5.027   8.218   2.016 -1.3084  1.2927 -1.9970
  146MOL0     H19666   5.218   8.302   1.790  2.6663 -0.4776  1.5771
  146MOL0     H19667   5.224   8.354   1.949 -0.6237 -1.3717  1.0893
  146MOL0     H19668   4.988   8.465   1.907  2.1748  0.0409  1.8292
  146MOL0     H19669   4.968   8.371   1.766 -0.6243  1.0983  0.5875
  146MOL0     H19670   5.283   8.641   1.587 -0.2180 -1.4524  1.7269
  146MOL0     H19671   5.235   8.732   1.372  0.2514  1.3667  1.6095
  146MOL0     H19672   4.885   8.949   1.128  1.7740 -0.2665 -0.1072
  146MOL0     H19673   4.872   9.041   0.912 -0.8217  0.0816 -3.9393
  146MOL0     H19674   4.678   9.109   0.805 -1.1735  1.4124 -0.1620
  146MOL0     H19675   4.672   9.092   0.632 -0.0130 -0.0550  0.8077
  146MOL0     H19676   4.461   9.051   0.695 -1.0321 -0.5118  1.2451
  146MOL0     H19677   4.521   8.870   0.687 -0.5922  0.1201 -0.6975
  146MOL0     H19678   4.567   8.953   0.946  0.5556 -0.2009 -1.1641
  146MOL0     H19679   4.444   9.071   0.901 -1.2870 -0.9102  3.6540
  146MOL0     H19680   4.392   8.773   0.848  0.8369 -0.5604  2.1635
  146MOL0     H19681   4.273   8.898   0.859 -1.4202 -2.2462  1.0605
  146MOL0     H19682   4.244   8.794   1.060 -0.2090 -1.1004 -1.4146
  146MOL0     H19683   4.352   8.932   1.113  0.6609 -0.9118  2.4905
  146MOL0     H19684   4.464   8.666   1.024 -1.8836 -0.6243 -0.5060
  146MOL0     H19685   4.550   8.776   1.117 -0.2661  0.7675  1.9273
  146MOL0     H19686   4.309   8.627   1.225 -0.6549  0.9246  1.9533
  146MOL0     H19687   4.414   8.756   1.313 -0.5030  0.3932 -0.3017
  146MOL0     H19688   4.617   8.593   1.248  0.1571  2.3935 -0.2385
  146MOL0     H19689   4.497   8.523   1.350 -0.4619  2.6700  0.4701
  146MOL0     H19690   4.737   8.679   0.745 -1.3587 -0.1505  0.5356
  146MOL0     H19691   4.755   8.568   0.987 -3.2929  1.4486  0.2033
  146MOL0     H19692   4.826   8.604   1.430  0.8862  0.5729 -1.3484
  146MOL0     H19693   4.880   8.505   1.635 -0.2454  0.7410  1.6878
  146MOL0     H19694   6.100   7.262   1.315  0.8732  0.2181  1.1314
  146MOL0     H19695   6.203   7.055   1.360  0.1358 -2.1098 -0.4620
  146MOL0     H19696   6.127   6.582   1.498  1.4912  0.9056 -1.4456
  146MOL0     H19697   6.243   6.376   1.541  0.2644 -0.6720  0.8614
  146MOL0     H19698   6.525   6.392   1.865  0.0062 -0.2935 -0.6284
  146MOL0     H19699   6.550   6.232   1.797 -1.5079 -1.7484 -0.4972
  146MOL0     H19700   6.286   6.239   1.732 -1.8692  1.2680  1.2086
  146MOL0     H19701   6.265   6.366   1.845 -1.5174 -0.5338 -1.8076
  146MOL0     H19702   6.328   6.262   2.034 -1.9829  0.0514  0.1603
  146MOL0     H19703   6.402   6.122   1.959  0.1701  0.1447  0.0889
  146MOL0     H19704   6.177   6.104   2.050 -1.0798 -2.0790  0.3568
  146MOL0     H19705   6.125   6.150   1.874  1.1051 -2.4874 -1.7810
  146MOL0     H19706   6.282   5.754   1.839 -0.3429  0.7271 -0.7644
  146MOL0     H19707   6.543   6.603   1.748  0.6305  1.1249 -0.2078
  146MOL0     H19708   6.420   6.928   1.689  1.5918 -0.2660  0.2512
  146MOL0     H19709   6.381   6.839   1.843 -0.2777  1.2461 -0.8261
  146MOL0     H19710   6.538   6.845   1.767  0.2746  1.5463  0.7416
  147MOL0     O19711   3.315   1.653   8.560  0.2765 -0.3609 -0.6919
  147MOL0     C19712   3.380   1.626   8.459 -0.2092  0.3046 -1.0099
  147MOL0     O19713   3.393   1.502   8.406 -0.0931 -0.3701 -0.5673
  147MOL0     C19714   3.299   1.405   8.427  0.7342  0.9003 -0.7173
  147MOL0     C19715   3.167   1.408   8.479  0.4162  0.4689  0.3101
  147MOL0     C19716   3.083   1.295   8.489 -0.0175  0.2788 -0.0155
  147MOL0     C19717   3.129   1.164   8.448  1.5251 -0.8100  0.4804
  147MOL0     O19718   3.054   1.052   8.439 -0.5156  0.2995 -0.5832
  147MOL0     C19719   3.069   0.977   8.564 -0.3729  0.0506 -1.1665
  147MOL0     C19720   2.943   0.902   8.596  0.1011  0.0046 -0.0076
  147MOL0     C19721   2.907   0.809   8.475  0.2205  0.5118 -0.2696
  147MOL0     C19722   2.819   0.696   8.489 -0.1880 -0.2666  0.0790
  147MOL0     C19723   2.795   0.606   8.371 -0.0904  0.0107  0.1890
  147MOL0     C19724   2.644   0.610   8.339  0.7329  0.1475 -0.0652
  147MOL0     C19725   2.593   0.502   8.237  0.4467  0.5065  0.7101
  147MOL0     C19726   2.607   0.363   8.288 -0.5002  0.5807  0.0873
  147MOL0     N19727   2.534   0.257   8.222  0.3192 -0.1956  0.2619
  147MOL0     C19728   2.545   0.126   8.254 -0.4374 -0.0293  0.3307
  147MOL0     C19729   2.478   0.057   8.158  0.7274 -0.5772  0.7036
  147MOL0     C19730   2.479  -0.089   8.129 -0.8938 -0.4758  0.1355
  147MOL0     C19731   2.480  -0.173   8.259  0.7929  0.0974 -0.2689
  147MOL0     C19732   2.453  -0.319   8.240  0.0404  0.0418 -0.2647
  147MOL0     C19733   2.330  -0.369   8.159 -0.7076 -0.0149 -0.0086
  147MOL0     O19734   2.305  -0.504   8.175  0.0528 -0.0002 -0.4162
  147MOL0     C19735   2.389  -0.599   8.124 -0.1116 -0.2651  0.4603
  147MOL0     C19736   2.484  -0.576   8.027  0.9295 -0.8414 -0.5018
  147MOL0     C19737   2.566  -0.678   7.969 -0.5873 -0.0386  0.2320
  147MOL0     C19738   2.537  -0.811   8.006  0.7030  0.5439 -0.4812
  147MOL0     C19739   2.614  -0.931   7.952 -0.1349 -0.1967  0.8062
  147MOL0     O19740   2.604  -1.042   8.029  0.1123  0.0431 -0.5368
  147MOL0     C19741   2.679  -1.159   8.020  0.0469 -0.4546 -0.1309
  147MOL0     C19742   2.607  -1.275   8.049 -0.1412 -0.9879 -0.5245
  147MOL0     C19743   2.682  -1.391   8.034  0.7462  0.4051 -0.4850
  147MOL0     C19744   2.814  -1.399   7.998 -0.7575  0.6022  0.5390
  147MOL0     O19745   2.861  -1.530   7.993 -0.4330 -0.6334  0.0344
  147MOL0     C19746   2.983  -1.571   7.927  0.7611 -0.1709 -0.0670
  147MOL0     C19747   3.029  -1.714   7.972 -0.3053  0.0726  0.3952
  147MOL0     C19748   3.028  -1.728   8.119 -0.0503  0.5946 -0.1804
  147MOL0     C19749   2.906  -1.807   8.176  0.7390 -0.0628 -1.3042
  147MOL0     C19750   2.923  -1.813   8.333  0.7906 -0.0852  0.7553
  147MOL0     C19751   2.797  -1.868   8.411 -0.8710 -0.1102  0.1650
  147MOL0     C19752   2.845  -1.884   8.555  0.1985 -0.8570 -0.7715
  147MOL0     C19753   2.748  -1.961   8.642  0.2873  0.4616  0.3061
  147MOL0    Cl19754   2.808  -1.969   8.811 -0.0466 -0.0269  0.1436
  147MOL0     C19755   2.881  -1.282   7.958  0.1597 -0.3305 -0.8343
  147MOL0     C19756   2.812  -1.157   7.977 -0.3599 -0.2730  0.0063
  147MOL0     O19757   2.684  -0.911   7.853 -1.2264  0.1293  0.6339
  147MOL0     C19758   2.441  -0.831   8.113 -0.5935 -0.7527  0.1778
  147MOL0     C19759   2.366  -0.726   8.168 -0.3809 -0.1143 -0.4285
  147MOL0     N19760   2.428   0.152   8.069 -0.5998 -0.0886  0.4995
  147MOL0     N19761   2.462   0.262   8.107  0.0299 -0.2099  0.2439
  147MOL0     C19762   3.257   1.161   8.412 -0.8643  0.0759 -0.9236
  147MOL0     C19763   3.340   1.276   8.399 -0.8185 -0.0552  0.0345
  147MOL0     C19764   3.457   1.727   8.380  0.6445  0.5141 -0.7629
  147MOL0     C19765   3.583   1.691   8.325  0.1032 -0.1634 -0.6103
  147MOL0     C19766   3.661   1.782   8.253 -0.6220 -0.4587 -0.0780
  147MOL0     C19767   3.612   1.908   8.236 -0.4901 -0.1964 -0.1699
  147MOL0     O19768   3.676   1.989   8.143 -0.2772  0.9721  0.2293
  147MOL0     C19769   3.661   2.124   8.144  0.1865  0.3907  0.3134
  147MOL0     C19770   3.734   2.181   8.028 -0.0182  0.9796 -0.2828
  147MOL0     C19771   3.750   2.333   8.029  0.2696  0.4351  1.2069
  147MOL0     C19772   3.826   2.381   7.902  0.0225 -0.5765  0.9668
  147MOL0     C19773   3.973   2.351   7.912  0.6471 -0.1427  0.5565
  147MOL0     C19774   4.087   2.338   7.933 -0.1211  0.4633  0.0633
  147MOL0     C19775   3.497   1.949   8.304  0.3707  0.1286 -0.9161
  147MOL0     C19776   3.417   1.862   8.374 -0.7108 -0.0972 -0.0968
  147MOL0     C19777   3.275   1.900   8.409 -0.1963  0.0561  0.2176
  147MOL0     H19778   3.129   1.506   8.507  3.6772  1.5066  1.5877
  147MOL0     H19779   2.978   1.299   8.517  0.1176  3.5040  0.4447
  147MOL0     H19780   3.145   0.899   8.549 -1.5354 -1.1737 -0.9803
  147MOL0     H19781   3.104   1.036   8.649  0.9774  0.3127 -1.8737
  147MOL0     H19782   2.866   0.976   8.618 -0.6603 -0.4629 -1.0243
  147MOL0     H19783   2.951   0.850   8.692 -3.3730  1.1050  1.0531
  147MOL0     H19784   3.001   0.769   8.436  0.4404  1.5779 -0.8737
  147MOL0     H19785   2.864   0.879   8.402 -0.0295  0.0529 -0.5621
  147MOL0     H19786   2.875   0.632   8.559  1.6753 -1.3118 -2.2145
  147MOL0     H19787   2.724   0.722   8.535 -1.8921 -2.8629 -1.6752
  147MOL0     H19788   2.852   0.635   8.282  0.2052 -0.7475  0.1215
  147MOL0     H19789   2.820   0.504   8.403 -3.6884 -0.7156  1.0651
  147MOL0     H19790   2.590   0.605   8.434 -0.0315 -0.4454 -0.5189
  147MOL0     H19791   2.630   0.714   8.308 -0.3596 -0.1071 -0.4664
  147MOL0     H19792   2.643   0.524   8.142  0.5782 -1.6716  0.2269
  147MOL0     H19793   2.488   0.519   8.212  0.9427  4.4105  0.6559
  147MOL0     H19794   2.713   0.338   8.278  0.7433  4.1290  2.3657
  147MOL0     H19795   2.574   0.365   8.392  0.2104  2.0102  0.3061
  147MOL0     H19796   2.608   0.078   8.328  0.6605 -2.0324 -1.7819
  147MOL0     H19797   2.387  -0.099   8.070 -1.0852  2.6045 -0.2556
  147MOL0     H19798   2.570  -0.103   8.069 -0.4989  1.7023  0.1452
  147MOL0     H19799   2.575  -0.163   8.313  0.4900 -3.9737  1.3400
  147MOL0     H19800   2.404  -0.130   8.325  0.6263  2.4878 -1.8811
  147MOL0     H19801   2.436  -0.362   8.339 -2.0919  1.2214 -0.0782
  147MOL0     H19802   2.548  -0.371   8.223  0.4874  0.1095  1.8142
  147MOL0     H19803   2.340  -0.352   8.051 -0.9649 -3.1518 -0.6248
  147MOL0     H19804   2.240  -0.308   8.179 -1.1357 -0.3502 -0.8440
  147MOL0     H19805   2.514  -0.476   8.000  1.9333 -1.7589 -3.1130
  147MOL0     H19806   2.654  -0.656   7.910  0.8713 -2.9731  1.1550
  147MOL0     H19807   2.511  -1.270   8.098  1.1575  3.1391  2.1360
  147MOL0     H19808   2.638  -1.488   8.059  1.1197  0.2633 -0.3711
  147MOL0     H19809   2.970  -1.560   7.819 -2.6332  2.1288  0.4148
  147MOL0     H19810   3.053  -1.499   7.969 -0.9300  1.4936  0.0447
  147MOL0     H19811   2.983  -1.800   7.923  1.4781 -0.8315  0.2263
  147MOL0     H19812   3.133  -1.726   7.942 -0.9381  0.6505 -2.3850
  147MOL0     H19813   3.115  -1.784   8.153 -0.3882 -1.0099 -1.8017
  147MOL0     H19814   3.026  -1.628   8.164  1.4791  0.6536 -0.2006
  147MOL0     H19815   2.912  -1.910   8.141  2.9252  0.0983 -1.4996
  147MOL0     H19816   2.816  -1.750   8.149 -1.9350 -1.3697  3.6496
  147MOL0     H19817   2.938  -1.709   8.363  0.7493  0.6722 -1.5742
  147MOL0     H19818   3.010  -1.872   8.364 -1.1450 -3.3214  0.4910
  147MOL0     H19819   2.717  -1.794   8.413 -2.5135 -1.8368  1.1852
  147MOL0     H19820   2.757  -1.965   8.378  0.0585 -0.6675  0.6181
  147MOL0     H19821   2.845  -1.783   8.597 -0.6677 -1.5594  1.0614
  147MOL0     H19822   2.944  -1.931   8.561  0.8583  0.6860  1.7837
  147MOL0     H19823   2.648  -1.918   8.635 -0.1152 -0.4859  0.0442
  147MOL0     H19824   2.738  -2.063   8.604  2.9717  0.1463  0.2598
  147MOL0     H19825   2.985  -1.282   7.929  0.7305 -0.5814  1.0494
  147MOL0     H19826   2.863  -1.068   7.943  3.4225 -2.6971 -1.3128
  147MOL0     H19827   2.429  -0.936   8.138  1.1098 -1.0992 -0.3305
  147MOL0     H19828   2.286  -0.752   8.237  0.0979 -1.7305 -0.4539
  147MOL0     H19829   3.299   1.062   8.398 -2.8139 -0.8380 -0.6721
  147MOL0     H19830   3.444   1.258   8.375 -0.4542  0.8158  0.8594
  147MOL0     H19831   3.625   1.592   8.317 -1.0138 -0.6240 -0.9598
  147MOL0     H19832   3.759   1.770   8.209 -0.2187  1.5182  0.2073
  147MOL0     H19833   3.703   2.156   8.239  2.2335 -0.2889 -0.3198
  147MOL0     H19834   3.554   2.147   8.141  0.4068  1.4553  0.4365
  147MOL0     H19835   3.676   2.162   7.938  0.5044  1.6582 -0.7710
  147MOL0     H19836   3.830   2.128   8.017 -1.0360 -2.3031  3.8326
  147MOL0     H19837   3.809   2.366   8.115  1.4468  0.4263  0.4316
  147MOL0     H19838   3.649   2.375   8.031 -0.6044 -1.0641 -2.6673
  147MOL0     H19839   3.784   2.331   7.814  3.6581 -0.2747 -1.1381
  147MOL0     H19840   3.826   2.490   7.900 -0.1906 -0.3261  5.1492
  147MOL0     H19841   4.189   2.333   7.963 -0.0906 -0.8813 -0.2060
  147MOL0     H19842   3.463   2.051   8.295 -0.2118  0.0841  0.4861
  147MOL0     H19843   3.201   1.823   8.386 -2.9455  2.4745  0.3061
  147MOL0     H19844   3.256   1.925   8.514 -1.3722 -0.9081  0.2499
  147MOL0     H19845   3.245   1.984   8.344 -2.8853 -0.5259  0.5866
  148MOL0     O19846   9.123   5.229   7.230  0.1799  0.4180  0.3188
  148MOL0     C19847   9.174   5.315   7.159 -0.0777 -1.0942 -0.1486
  148MOL0     O19848   9.296   5.374   7.188  0.8775 -0.0489 -0.5217
  148MOL0     C19849   9.310   5.421   7.316  0.2575  0.4023 -0.4446
  148MOL0     C19850   9.252   5.543   7.356 -0.1656 -1.1365 -0.4721
  148MOL0     C19851   9.287   5.612   7.474 -0.2190 -0.8722  0.0718
  148MOL0     C19852   9.382   5.549   7.559 -0.1453 -1.2123 -0.0598
  148MOL0     O19853   9.405   5.604   7.671  0.1324 -0.2523 -0.6986
  148MOL0     C19854   9.327   5.565   7.786 -0.9359  0.3782  0.0589
  148MOL0     C19855   9.243   5.681   7.837 -0.4272 -0.2693  0.5913
  148MOL0     C19856   9.121   5.646   7.918  0.6369 -0.3191 -0.6729
  148MOL0     C19857   9.091   5.719   8.047  0.9164  0.3133  0.0984
  148MOL0     C19858   9.180   5.679   8.155  0.2434 -0.5182 -0.6263
  148MOL0     C19859   9.142   5.766   8.279  0.8510 -0.3942 -0.2951
  148MOL0     C19860   9.250   5.745   8.390  0.3882  0.6700  1.0527
  148MOL0     C19861   9.339   5.879   8.416  0.9185  0.2508  0.2781
  148MOL0     N19862   9.436   5.910   8.315 -0.0092  0.5256 -0.0717
  148MOL0     C19863   9.574   5.885   8.337 -0.0601 -0.2253 -0.7858
  148MOL0     C19864   9.626   5.905   8.218  0.3735  0.0392  0.9543
  148MOL0     C19865   9.780   5.896   8.201  0.6564  0.0957  0.8412
  148MOL0     C19866   9.847   6.016   8.272 -0.3023  0.2809 -0.3923
  148MOL0     C19867   9.992   6.036   8.229  0.0191 -0.9154 -0.2409
  148MOL0     C19868  10.048   6.159   8.307 -0.5584 -0.0743  0.2871
  148MOL0     O19869  10.114   6.108   8.426 -0.3487 -0.2472  0.4538
  148MOL0     C19870  10.094   6.175   8.549 -0.4374  0.7155 -0.9763
  148MOL0     C19871  10.062   6.310   8.568  0.6897  0.0108 -0.4679
  148MOL0     C19872  10.018   6.355   8.687  0.2939 -0.5757 -1.0139
  148MOL0     C19873  10.008   6.277   8.801 -0.4382 -0.3159 -0.1948
  148MOL0     C19874   9.957   6.346   8.924  0.3814  0.1126 -0.5037
  148MOL0     O19875   9.928   6.478   8.917  0.3033 -0.0799 -0.5942
  148MOL0     C19876   9.895   6.546   9.026  0.3716  0.2153 -1.0640
  148MOL0     C19877   9.989   6.626   9.076 -0.6863 -0.1043 -1.1640
  148MOL0     C19878   9.948   6.710   9.184 -0.8118  0.7630 -0.5079
  148MOL0     C19879   9.824   6.699   9.239  0.8304  0.3260 -0.7980
  148MOL0     O19880   9.806   6.756   9.362  1.0038  0.7910  0.8263
  148MOL0     C19881   9.733   6.692   9.469  0.1021 -0.3090  0.6651
  148MOL0     C19882   9.680   6.811   9.560 -0.7535  0.0527  0.4289
  148MOL0     C19883   9.585   6.791   9.683 -0.0989 -0.2515 -0.7232
  148MOL0     C19884   9.462   6.702   9.655 -0.2638 -0.7459  0.2403
  148MOL0     C19885   9.341   6.740   9.745 -0.5198 -0.7645 -0.1162
  148MOL0     C19886   9.216   6.648   9.728 -0.1178  1.0463  0.2699
  148MOL0     C19887   9.255   6.499   9.735  0.8428  1.0831  0.0300
  148MOL0     C19888   9.129   6.409   9.769 -0.0268 -0.3587 -1.1109
  148MOL0    Cl19889   9.036   6.478   9.909  0.4172 -0.4281  0.4451
  148MOL0     C19890   9.724   6.625   9.174 -0.1048  0.2690 -0.2310
  148MOL0     C19891   9.762   6.546   9.071 -0.4495  0.4437 -0.1951
  148MOL0     O19892   9.945   6.274   9.025  0.7523 -0.0156  0.4249
  148MOL0     C19893  10.059   6.142   8.787  0.3605  0.0001  0.0674
  148MOL0     C19894  10.087   6.094   8.658 -0.2030  0.8408 -0.3498
  148MOL0     N19895   9.532   5.942   8.126  0.4580  0.4069  0.1779
  148MOL0     N19896   9.415   5.934   8.177 -0.5576  0.1861  0.0205
  148MOL0     C19897   9.442   5.431   7.515 -0.8929  0.7355  0.4830
  148MOL0     C19898   9.405   5.366   7.400  1.1386 -0.2999 -0.3518
  148MOL0     C19899   9.116   5.353   7.033 -0.5267 -0.2909  0.1007
  148MOL0     C19900   9.202   5.399   6.937  0.8804 -0.3574  0.2660
  148MOL0     C19901   9.149   5.440   6.813  0.5441 -0.7004 -1.1120
  148MOL0     C19902   9.019   5.429   6.777  0.3660 -0.8816 -0.5273
  148MOL0     O19903   8.962   5.449   6.652  0.4868 -0.1532 -0.2576
  148MOL0     C19904   9.029   5.541   6.557 -0.0822 -0.5307 -0.9033
  148MOL0     C19905   8.948   5.532   6.427 -0.8963  0.9056  0.8999
  148MOL0     C19906   8.964   5.386   6.375  0.4491 -0.0188  0.7437
  148MOL0     C19907   8.858   5.352   6.272 -0.4817  0.2117  0.1428
  148MOL0     C19908   8.731   5.321   6.341 -0.4261  0.6905  1.0094
  148MOL0     C19909   8.626   5.312   6.400  0.2824  0.2086  0.0243
  148MOL0     C19910   8.937   5.379   6.873  1.4248 -0.4212  0.1568
  148MOL0     C19911   8.977   5.351   7.005  0.1757 -0.1260 -0.0537
  148MOL0     C19912   8.874   5.303   7.105  0.5403 -1.4803  0.1092
  148MOL0     H19913   9.185   5.592   7.286  0.3845 -0.1267 -0.3138
  148MOL0     H19914   9.241   5.708   7.500  1.2870  0.4780 -1.9283
  148MOL0     H19915   9.272   5.473   7.765  0.8470 -0.7193  0.0057
  148MOL0     H19916   9.393   5.523   7.863  1.4847  1.1735 -1.4794
  148MOL0     H19917   9.222   5.738   7.746  3.7862  2.8415  1.2772
  148MOL0     H19918   9.303   5.752   7.894 -3.2906  3.4683 -0.6382
  148MOL0     H19919   9.113   5.538   7.931  0.5967 -0.3549 -0.9943
  148MOL0     H19920   9.030   5.659   7.859 -0.9681  1.5031  1.9763
  148MOL0     H19921   9.093   5.828   8.036 -2.5112  0.2724 -2.3561
  148MOL0     H19922   8.988   5.700   8.076  1.0384  1.9120  1.8178
  148MOL0     H19923   9.177   5.573   8.183 -1.5370 -0.5465 -0.8096
  148MOL0     H19924   9.284   5.701   8.129  0.2250 -1.6598 -1.8048
  148MOL0     H19925   9.141   5.869   8.242 -1.1605 -0.3071 -0.1116
  148MOL0     H19926   9.037   5.760   8.308 -0.1781  4.6266 -1.9686
  148MOL0     H19927   9.316   5.660   8.370 -1.5268 -1.3756  2.8323
  148MOL0     H19928   9.199   5.717   8.483 -0.5464  1.9319  0.9458
  148MOL0     H19929   9.274   5.966   8.430 -0.6378 -1.0893  1.9707
  148MOL0     H19930   9.391   5.862   8.511  0.3376 -2.3472  0.2164
  148MOL0     H19931   9.637   5.861   8.422 -1.8209 -0.2779  0.5766
  148MOL0     H19932   9.805   5.799   8.244 -0.8629 -0.8102 -0.2201
  148MOL0     H19933   9.792   5.899   8.093 -0.2532 -0.1757  0.7238
  148MOL0     H19934   9.796   6.113   8.266 -2.4446 -0.6225  1.8005
  148MOL0     H19935   9.842   5.977   8.374  1.9872  2.9833  0.8854
  148MOL0     H19936  10.000   6.047   8.121 -0.7549 -3.2821 -0.5823
  148MOL0     H19937  10.059   5.956   8.261  2.9618  1.8719  1.1774
  148MOL0     H19938   9.965   6.230   8.304 -2.1109 -1.8235 -1.8309
  148MOL0     H19939  10.132   6.206   8.254  1.5589 -1.1639  2.4751
  148MOL0     H19940  10.064   6.389   8.494 -0.1894  0.9659  0.4858
  148MOL0     H19941   9.965   6.449   8.672  1.7882  0.2557 -1.2649
  148MOL0     H19942  10.092   6.625   9.042  0.1578 -2.6304  1.1239
  148MOL0     H19943  10.005   6.793   9.227  1.3342  0.4717 -2.5532
  148MOL0     H19944   9.644   6.640   9.432  0.6340 -1.1516  0.5401
  148MOL0     H19945   9.776   6.618   9.536 -2.1120 -0.8226  1.6026
  148MOL0     H19946   9.778   6.847   9.596  0.0753 -2.3685  0.7683
  148MOL0     H19947   9.623   6.885   9.503 -0.3781 -1.1070 -1.5588
  148MOL0     H19948   9.637   6.766   9.776  0.2490  1.8384 -0.2939
  148MOL0     H19949   9.551   6.895   9.690 -1.0055 -0.4305 -2.1149
  148MOL0     H19950   9.496   6.599   9.668 -0.0916 -1.4993 -4.4966
  148MOL0     H19951   9.435   6.717   9.550  1.9829 -3.2708 -0.8328
  148MOL0     H19952   9.324   6.848   9.745  0.3188 -0.5775  2.0884
  148MOL0     H19953   9.381   6.720   9.845  0.9671  0.4859 -0.4193
  148MOL0     H19954   9.151   6.676   9.811 -0.0801 -2.3007  1.5714
  148MOL0     H19955   9.166   6.677   9.635 -3.5891 -0.4912  1.4980
  148MOL0     H19956   9.330   6.490   9.814  2.0418  3.8241 -0.6692
  148MOL0     H19957   9.289   6.459   9.639 -0.6291  2.4166 -1.1010
  148MOL0     H19958   9.065   6.410   9.680 -0.6165  0.7401 -0.6866
  148MOL0     H19959   9.155   6.307   9.799  2.9554 -0.0810 -2.4369
  148MOL0     H19960   9.626   6.618   9.220  0.3928 -0.3765  0.7440
  148MOL0     H19961   9.697   6.466   9.038  0.5109  0.1879 -1.5193
  148MOL0     H19962  10.072   6.087   8.880  0.8858 -0.0941 -0.0586
  148MOL0     H19963  10.118   5.991   8.641 -0.7538  0.2216  2.0106
  148MOL0     H19964   9.509   5.381   7.584 -3.7013 -1.5392  1.7761
  148MOL0     H19965   9.462   5.276   7.378 -0.3538 -1.1826 -0.7009
  148MOL0     H19966   9.309   5.405   6.952  0.8045  0.1164  0.6580
  148MOL0     H19967   9.222   5.469   6.738  0.9994  0.3184 -0.2978
  148MOL0     H19968   9.136   5.525   6.541  0.1432  1.1768 -1.2451
  148MOL0     H19969   9.012   5.643   6.591  0.5926 -0.9539  0.7781
  148MOL0     H19970   8.993   5.596   6.350 -0.9772  1.4457  1.3018
  148MOL0     H19971   8.844   5.564   6.440 -0.7620  2.3113 -0.9701
  148MOL0     H19972   8.963   5.311   6.455 -0.9129  0.7596  1.5007
  148MOL0     H19973   9.064   5.381   6.331  0.3691 -2.8437  0.6591
  148MOL0     H19974   8.856   5.427   6.192  1.1520  2.2139  1.8504
  148MOL0     H19975   8.886   5.262   6.216 -0.5771 -0.2679  0.8604
  148MOL0     H19976   8.535   5.298   6.455  0.8892  0.5164  1.1520
  148MOL0     H19977   8.833   5.368   6.843  1.6875 -0.4189 -0.8098
  148MOL0     H19978   8.773   5.323   7.070  0.9407  1.2201  0.2486
  148MOL0     H19979   8.889   5.196   7.124 -0.9992 -1.4770  1.5243
  148MOL0     H19980   8.888   5.358   7.199  0.8976  4.4351 -2.9409
  149MOL0     O19981   2.508   7.626   1.047 -0.5629  0.1960  0.2359
  149MOL0     C19982   2.598   7.581   0.983  0.0300  0.2308  0.2782
  149MOL0     O19983   2.707   7.517   1.039  0.4511 -0.2949 -0.2843
  149MOL0     C19984   2.696   7.452   1.156 -0.1071  0.0108 -0.5270
  149MOL0     C19985   2.813   7.443   1.237 -0.6417  0.3884 -0.1657
  149MOL0     C19986   2.811   7.369   1.358  0.4135  0.4008  0.0235
  149MOL0     C19987   2.707   7.283   1.394 -0.1957  0.3667 -0.1873
  149MOL0     O19988   2.723   7.209   1.513  0.4429 -0.5593 -0.4730
  149MOL0     C19989   2.599   7.159   1.573 -0.4293 -0.9031 -0.1903
  149MOL0     C19990   2.627   7.161   1.721 -0.2748 -0.2307  0.2869
  149MOL0     C19991   2.507   7.110   1.796 -0.5256  0.5504 -1.0915
  149MOL0     C19992   2.558   7.037   1.925 -0.0043  0.3956  0.2189
  149MOL0     C19993   2.584   6.897   1.914  0.0457 -0.7071  0.4017
  149MOL0     C19994   2.461   6.805   1.928 -0.3961 -0.3185  1.0150
  149MOL0     C19995   2.485   6.654   1.948 -0.3259 -0.0351  1.3056
  149MOL0     C19996   2.545   6.585   1.834 -0.5401  0.8708  0.2143
  149MOL0     N19997   2.588   6.453   1.899  0.1994  0.0031  0.7102
  149MOL0     C19998   2.698   6.436   1.982 -0.2024  0.3856 -0.7483
  149MOL0     C19999   2.667   6.313   2.041 -0.7478 -0.6262 -0.1547
  149MOL0     C20000   2.737   6.243   2.150  1.0023  0.2625  0.1470
  149MOL0     C20001   2.768   6.329   2.275 -0.1486  0.1358 -0.4848
  149MOL0     C20002   2.646   6.342   2.357  0.0428 -0.5630  0.2634
  149MOL0     C20003   2.637   6.460   2.456  0.0991 -0.5876 -1.3052
  149MOL0     O20004   2.751   6.454   2.538  0.1201 -0.4171 -0.1533
  149MOL0     C20005   2.742   6.460   2.679  1.6565  0.7440  0.1043
  149MOL0     C20006   2.859   6.475   2.750 -0.8722  0.1791 -0.8025
  149MOL0     C20007   2.863   6.480   2.885 -0.5515 -0.9126  0.5171
  149MOL0     C20008   2.748   6.467   2.962  0.0240 -0.6547 -0.5740
  149MOL0     C20009   2.753   6.480   3.112 -0.1981  0.5596  0.0728
  149MOL0     O20010   2.638   6.445   3.187  0.7222  0.1233 -0.4656
  149MOL0     C20011   2.646   6.464   3.326 -0.2716 -0.3135  0.3890
  149MOL0     C20012   2.712   6.374   3.401 -0.1505 -0.2924 -0.0648
  149MOL0     C20013   2.734   6.403   3.543 -0.4118 -1.0171  0.5778
  149MOL0     C20014   2.660   6.503   3.603 -0.3194  0.1398 -0.0574
  149MOL0     O20015   2.675   6.520   3.741 -0.4276 -0.3161 -0.0888
  149MOL0     C20016   2.577   6.599   3.812 -0.5913 -0.0121  0.0979
  149MOL0     C20017   2.610   6.573   3.957 -0.1861  0.0662 -0.1709
  149MOL0     C20018   2.747   6.618   3.995 -0.4232 -1.1279 -0.2593
  149MOL0     C20019   2.763   6.767   3.991  0.4907  0.4199  0.2943
  149MOL0     C20020   2.904   6.822   4.018 -0.5087 -0.0418 -0.0516
  149MOL0     C20021   2.904   6.971   4.026  0.9269 -0.0781  0.9341
  149MOL0     C20022   2.847   7.038   3.901 -0.1171 -0.1231  0.3170
  149MOL0     C20023   2.910   7.176   3.885 -0.7243 -0.9212 -0.1762
  149MOL0    Cl20024   3.081   7.158   3.823 -0.2294 -0.3482  0.2137
  149MOL0     C20025   2.595   6.593   3.524  0.2878 -0.1309  0.0277
  149MOL0     C20026   2.593   6.579   3.385 -0.1445 -0.8014  0.7790
  149MOL0     O20027   2.861   6.514   3.158  0.3366  0.1876 -0.1756
  149MOL0     C20028   2.630   6.465   2.895 -0.2011  0.1668  0.9751
  149MOL0     C20029   2.628   6.456   2.753  0.0372 -0.3702  0.1864
  149MOL0     N20030   2.546   6.268   1.994  0.5318  0.2340  0.4785
  149MOL0     N20031   2.506   6.349   1.907  0.3502  0.6824  0.0627
  149MOL0     C20032   2.607   7.276   1.301  0.8449  0.5825  0.4429
  149MOL0     C20033   2.586   7.375   1.191 -0.5249 -0.2884 -0.3737
  149MOL0     C20034   2.578   7.579   0.834  0.3787  0.3624 -0.1717
  149MOL0     C20035   2.507   7.681   0.770  0.2583  0.0812 -0.1772
  149MOL0     C20036   2.483   7.695   0.636  0.6556 -0.1042  0.2881
  149MOL0     C20037   2.534   7.590   0.554  0.6418 -0.0593 -0.1572
  149MOL0     O20038   2.537   7.578   0.416  0.0623 -0.7105 -0.6440
  149MOL0     C20039   2.439   7.655   0.350 -0.5374  0.3146 -0.6306
  149MOL0     C20040   2.445   7.634   0.194  0.2629 -0.3638  0.3466
  149MOL0     C20041   2.570   7.690   0.132 -0.6387 -0.3592  0.5680
  149MOL0     C20042   2.574   7.655  -0.018 -0.9231  0.0661  0.1728
  149MOL0     C20043   2.462   7.705  -0.104 -0.4848 -0.4742  0.3097
  149MOL0     C20044   2.379   7.750  -0.182 -0.7230 -0.6709  0.7725
  149MOL0     C20045   2.601   7.480   0.609 -0.3150 -0.0391  0.0195
  149MOL0     C20046   2.622   7.473   0.751  0.1976 -1.5090  0.8404
  149MOL0     C20047   2.713   7.367   0.802 -1.0427 -0.5240 -0.3145
  149MOL0     H20048   2.901   7.499   1.206 -0.5652 -0.5905 -1.8811
  149MOL0     H20049   2.901   7.363   1.419  1.5043  1.2388 -1.4389
  149MOL0     H20050   2.511   7.219   1.548  0.2449  0.0862 -0.2290
  149MOL0     H20051   2.578   7.060   1.532 -2.2485  0.2037 -2.0824
  149MOL0     H20052   2.641   7.259   1.767 -1.6156 -0.7978  2.0415
  149MOL0     H20053   2.708   7.094   1.753 -2.8695 -3.7090  0.1768
  149MOL0     H20054   2.454   7.038   1.733  0.4876 -0.1721 -1.1427
  149MOL0     H20055   2.431   7.186   1.817 -0.6728  0.5825 -1.7245
  149MOL0     H20056   2.644   7.093   1.963 -0.6654  1.0647  0.7549
  149MOL0     H20057   2.490   7.053   2.009 -0.1133  1.7319 -0.1025
  149MOL0     H20058   2.623   6.872   1.815 -3.2161  1.0206 -1.4893
  149MOL0     H20059   2.658   6.860   1.985 -2.2537 -0.9525  2.8319
  149MOL0     H20060   2.410   6.844   2.017 -3.2258  2.0940 -1.4439
  149MOL0     H20061   2.396   6.812   1.841  3.8987  3.2884 -2.4100
  149MOL0     H20062   2.385   6.612   1.967 -2.1741  1.6684 -3.2555
  149MOL0     H20063   2.552   6.647   2.035  3.3414  3.3376 -0.9182
  149MOL0     H20064   2.473   6.572   1.752  0.0861 -1.1492 -0.0559
  149MOL0     H20065   2.625   6.646   1.792 -1.4054  1.4238 -0.6775
  149MOL0     H20066   2.789   6.495   1.979 -0.4437  0.7450 -1.0875
  149MOL0     H20067   2.676   6.158   2.181 -0.3856  1.7091  1.4862
  149MOL0     H20068   2.831   6.204   2.109  0.9913 -1.0613  1.2802
  149MOL0     H20069   2.843   6.271   2.329  1.9970  0.1565 -3.1778
  149MOL0     H20070   2.811   6.426   2.250  0.9970  0.2999  1.8579
  149MOL0     H20071   2.635   6.256   2.423 -0.0490  0.9283  2.2716
  149MOL0     H20072   2.569   6.347   2.279  0.3448  0.5503  0.0147
  149MOL0     H20073   2.540   6.467   2.506  1.1865  4.3053  0.7634
  149MOL0     H20074   2.639   6.560   2.410  0.1278 -0.3412 -0.7775
  149MOL0     H20075   2.957   6.466   2.705 -0.4675  2.5066 -0.4985
  149MOL0     H20076   2.958   6.504   2.931 -0.7948  3.5566 -0.7933
  149MOL0     H20077   2.765   6.293   3.351  1.7611  1.8259 -1.6958
  149MOL0     H20078   2.809   6.352   3.603 -1.4387 -1.1772  1.7463
  149MOL0     H20079   2.580   6.706   3.789 -1.9391  0.3015  1.2278
  149MOL0     H20080   2.483   6.547   3.793 -0.0883 -1.9914  2.5609
  149MOL0     H20081   2.532   6.614   4.022  0.1026 -0.0228  0.2354
  149MOL0     H20082   2.599   6.471   3.995 -1.8832 -0.6232 -2.3255
  149MOL0     H20083   2.752   6.591   4.101 -0.9614  0.0865  0.0930
  149MOL0     H20084   2.828   6.576   3.936  0.5092 -0.7556  0.7060
  149MOL0     H20085   2.693   6.816   4.060  1.4380  0.7988  1.0166
  149MOL0     H20086   2.733   6.796   3.890 -0.2392 -0.0661  0.3625
  149MOL0     H20087   2.970   6.806   3.932  1.8174  3.0907  0.9366
  149MOL0     H20088   2.946   6.789   4.114 -0.1185  0.1411 -0.1582
  149MOL0     H20089   2.848   7.002   4.115 -0.2667  1.2086 -0.2187
  149MOL0     H20090   3.009   7.002   4.034  0.9856 -0.3200  1.1167
  149MOL0     H20091   2.740   7.050   3.921  0.2613 -1.5155  3.9692
  149MOL0     H20092   2.864   6.980   3.810 -0.8223 -0.3791  0.3422
  149MOL0     H20093   2.851   7.226   3.806  1.9808  1.1387 -1.0363
  149MOL0     H20094   2.897   7.232   3.978  0.0780 -2.2386  0.7528
  149MOL0     H20095   2.550   6.680   3.572  1.7768  0.2171  0.8285
  149MOL0     H20096   2.545   6.653   3.321 -0.3022  1.1102  2.9941
  149MOL0     H20097   2.536   6.463   2.950  0.6995  1.2230  2.6547
  149MOL0     H20098   2.538   6.432   2.699 -0.1916 -2.6879  1.4559
  149MOL0     H20099   2.537   7.194   1.307  2.3534 -0.8240 -0.2214
  149MOL0     H20100   2.497   7.372   1.130 -1.2944 -2.8913  0.7494
  149MOL0     H20101   2.464   7.758   0.833  2.1866  2.7161 -1.8436
  149MOL0     H20102   2.413   7.773   0.609  0.6544 -0.4311 -0.6904
  149MOL0     H20103   2.453   7.760   0.378 -1.1688  0.3640 -0.4947
  149MOL0     H20104   2.341   7.626   0.388 -0.2301 -1.1737 -0.9194
  149MOL0     H20105   2.362   7.689   0.149  1.4067  0.4924 -0.8015
  149MOL0     H20106   2.438   7.527   0.171  1.6964 -1.2075  3.2684
  149MOL0     H20107   2.653   7.635   0.176 -0.7843 -1.6900 -0.7631
  149MOL0     H20108   2.571   7.793   0.169 -2.0739 -0.2083  0.2583
  149MOL0     H20109   2.665   7.697  -0.061 -1.5942 -0.1136 -1.4918
  149MOL0     H20110   2.587   7.547  -0.019 -1.5546 -0.0461 -2.0541
  149MOL0     H20111   2.295   7.779  -0.242  0.6627  0.5785 -0.6821
  149MOL0     H20112   2.642   7.404   0.544 -1.1354 -0.7193  0.2848
  149MOL0     H20113   2.811   7.407   0.830 -1.2125 -0.4125  0.1304
  149MOL0     H20114   2.659   7.318   0.884  0.4205  1.1341  1.7743
  149MOL0     H20115   2.732   7.288   0.729  2.3936 -0.8172  0.6942
  150MOL0     O20116   1.773   0.025   8.924 -0.7003 -0.0261  0.3603
  150MOL0     C20117   1.801   0.040   9.045  1.3612 -0.3671  0.1940
  150MOL0     O20118   1.905   0.107   9.098 -0.4525 -0.2334 -0.3755
  150MOL0     C20119   1.994   0.190   9.030 -0.0114 -0.0355  0.5568
  150MOL0     C20120   2.063   0.144   8.916 -0.7053 -0.1293  0.1685
  150MOL0     C20121   2.159   0.229   8.842  0.0835  0.3397 -0.4572
  150MOL0     C20122   2.186   0.356   8.876  0.4933 -0.0890 -0.7898
  150MOL0     O20123   2.279   0.425   8.809  0.0438 -0.1794  0.5651
  150MOL0     C20124   2.409   0.358   8.815 -0.3450  0.2617  1.2123
  150MOL0     C20125   2.497   0.460   8.750  0.2767  0.6644 -0.7316
  150MOL0     C20126   2.487   0.592   8.837 -0.5145 -0.9631  1.1751
  150MOL0     C20127   2.625   0.652   8.845  0.4057  0.5764 -0.0261
  150MOL0     C20128   2.641   0.798   8.892  0.5230  1.1938 -0.4803
  150MOL0     C20129   2.788   0.823   8.933 -0.3232  0.2473  0.2640
  150MOL0     C20130   2.812   0.974   8.959 -0.4395  0.3530  0.0618
  150MOL0     C20131   2.956   1.025   8.978  0.3204  0.0367 -1.0890
  150MOL0     N20132   2.957   1.155   9.050 -0.5977 -0.4629  0.1119
  150MOL0     C20133   2.917   1.280   8.992  0.5413 -0.5538 -0.0270
  150MOL0     C20134   2.953   1.377   9.082 -0.1255  0.0398  0.0260
  150MOL0     C20135   2.932   1.529   9.081  0.6987 -0.1353  0.3364
  150MOL0     C20136   2.855   1.568   9.216 -1.2680 -0.0781  0.3768
  150MOL0     C20137   2.811   1.719   9.207  0.2682 -0.8312 -0.7967
  150MOL0     C20138   2.928   1.817   9.223  0.0868 -0.0845  0.3364
  150MOL0     O20139   3.004   1.777   9.339 -0.3427  0.9363 -0.2747
  150MOL0     C20140   2.963   1.820   9.464  0.9824  0.2412 -0.1183
  150MOL0     C20141   3.017   1.753   9.572  0.8075  1.3356  0.1042
  150MOL0     C20142   2.989   1.771   9.710  0.6139 -0.2677  0.0921
  150MOL0     C20143   2.899   1.875   9.733  0.2452 -0.3528 -0.0463
  150MOL0     C20144   2.862   1.896   9.869 -0.3814 -0.1100 -0.6189
  150MOL0     O20145   2.785   2.011   9.887 -0.1931 -0.5878  0.8206
  150MOL0     C20146   2.724   2.014  10.014  1.1925 -0.1795 -0.9997
  150MOL0     C20147   2.655   1.906  10.071 -0.2539  0.3188  0.1747
  150MOL0     C20148   2.564   1.919  10.180  0.2688  0.0353 -0.1965
  150MOL0     C20149   2.551   2.049  10.240 -0.1456  0.7155 -0.6273
  150MOL0     O20150   2.459   2.082  10.342  0.0363  0.3551 -0.4685
  150MOL0     C20151   2.457   1.986  10.452  0.7157  0.2096 -0.7648
  150MOL0     C20152   2.351   1.876  10.453 -0.4591  0.2102 -0.6537
  150MOL0     C20153   2.220   1.934  10.484  0.4872 -0.4041  0.0267
  150MOL0     C20154   2.226   1.998  10.627 -0.2687  0.3687  0.0543
  150MOL0     C20155   2.076   1.990  10.673 -0.7416  0.0800  0.6959
  150MOL0     C20156   2.059   2.067  10.801  0.8585 -0.6546  0.0840
  150MOL0     C20157   2.035   2.219  10.789  0.5638  1.0190 -0.3215
  150MOL0     C20158   2.012   2.289  10.933 -0.0886 -0.3545  0.0095
  150MOL0    Cl20159   1.997   2.470  10.902  0.2384  0.0766  0.0362
  150MOL0     C20160   2.610   2.151  10.180 -0.6042 -0.8559 -0.4310
  150MOL0     C20161   2.698   2.140  10.069 -0.1568 -0.4011  0.0329
  150MOL0     O20162   2.912   1.829   9.968 -0.9098  0.0605  0.1120
  150MOL0     C20163   2.847   1.957   9.628  0.6616  0.3632 -1.3030
  150MOL0     C20164   2.878   1.921   9.498  0.0282 -0.3009 -0.3741
  150MOL0     N20165   3.035   1.313   9.175 -1.0116  0.9317  0.6650
  150MOL0     N20166   3.043   1.180   9.149  0.3428 -0.4897 -0.1118
  150MOL0     C20167   2.113   0.408   8.986  0.3557  0.5588  0.8774
  150MOL0     C20168   2.020   0.324   9.062 -0.2062 -0.3198  0.0287
  150MOL0     C20169   1.676   0.015   9.126  0.0548  0.4782  0.6237
  150MOL0     C20170   1.600  -0.093   9.093 -0.7951  0.2554  0.0625
  150MOL0     C20171   1.479  -0.129   9.163 -1.3467  0.7393 -0.9889
  150MOL0     C20172   1.440  -0.053   9.274  0.1834  0.0887  0.1683
  150MOL0     O20173   1.322  -0.063   9.341 -0.3637  0.2060  0.4317
  150MOL0     C20174   1.235  -0.184   9.323  0.0449 -0.2250  0.0337
  150MOL0     C20175   1.288  -0.320   9.379  0.3885  0.3310  0.7726
  150MOL0     C20176   1.339  -0.292   9.514 -0.4233  0.1712  0.7313
  150MOL0     C20177   1.348  -0.408   9.608  0.0751 -0.0474  0.1833
  150MOL0     C20178   1.396  -0.350   9.733  0.0191 -0.1140  0.1944
  150MOL0     C20179   1.437  -0.301   9.835 -0.6564  0.0072  0.3073
  150MOL0     C20180   1.519   0.056   9.307  0.3780  0.2595 -0.0167
  150MOL0     C20181   1.636   0.091   9.243  0.3995 -0.7595 -0.4610
  150MOL0     C20182   1.705   0.220   9.279  0.0082  0.4754  0.3326
  150MOL0     H20183   2.041   0.045   8.877 -2.7837 -0.2914  1.6005
  150MOL0     H20184   2.208   0.189   8.754 -1.0760 -0.1231 -0.9247
  150MOL0     H20185   2.459   0.344   8.911  0.5032 -0.5860  0.6627
  150MOL0     H20186   2.409   0.263   8.761 -1.7775  0.5269  0.6933
  150MOL0     H20187   2.467   0.466   8.645  0.2647  1.7770 -0.6819
  150MOL0     H20188   2.601   0.431   8.733  0.1976 -0.1941  0.1665
  150MOL0     H20189   2.466   0.563   8.941  2.7053 -1.6724  1.7106
  150MOL0     H20190   2.409   0.662   8.804  0.0112  0.1822  2.2721
  150MOL0     H20191   2.674   0.586   8.918 -2.3507 -3.0569 -1.1238
  150MOL0     H20192   2.670   0.652   8.746  0.4937 -0.9420 -0.0089
  150MOL0     H20193   2.615   0.865   8.809  0.5356  1.1638 -0.5083
  150MOL0     H20194   2.571   0.810   8.975 -2.3070  0.3905 -2.5817
  150MOL0     H20195   2.807   0.776   9.030 -0.3928 -1.3827 -0.4821
  150MOL0     H20196   2.854   0.783   8.857  0.5900  1.6267  0.2868
  150MOL0     H20197   2.754   1.015   9.043 -0.2433 -0.9042  0.8432
  150MOL0     H20198   2.779   1.008   8.861 -2.0498 -1.2144  0.0065
  150MOL0     H20199   3.013   0.958   9.044  2.5670  1.2255 -1.7356
  150MOL0     H20200   3.015   1.030   8.886 -0.1744  1.2076 -1.3515
  150MOL0     H20201   2.856   1.295   8.903  0.3518 -2.6792 -0.3249
  150MOL0     H20202   3.024   1.585   9.064 -0.3269  1.1285 -1.3643
  150MOL0     H20203   2.860   1.540   8.999  0.3393 -2.2463  0.3170
  150MOL0     H20204   2.775   1.494   9.229 -1.0183 -0.6446 -1.0613
  150MOL0     H20205   2.929   1.559   9.296 -1.2430  2.5771  0.7427
  150MOL0     H20206   2.736   1.739   9.284  0.8511  1.8976 -0.8453
  150MOL0     H20207   2.768   1.728   9.107 -1.2980  1.5791 -0.0075
  150MOL0     H20208   2.884   1.917   9.233 -5.5968 -2.0644 -0.9520
  150MOL0     H20209   2.991   1.825   9.134  1.8128  0.5671  1.5754
  150MOL0     H20210   3.089   1.676   9.545 -2.2310 -1.4734 -0.5840
  150MOL0     H20211   3.036   1.707   9.784  0.1829 -0.1776  0.4486
  150MOL0     H20212   2.673   1.809  10.024 -0.8463 -0.2151  1.0436
  150MOL0     H20213   2.525   1.839  10.242  2.0840  1.3672  2.9058
  150MOL0     H20214   2.553   1.934  10.448 -0.6376 -2.4459 -1.3951
  150MOL0     H20215   2.455   2.032  10.551 -0.5497 -0.5664 -0.3998
  150MOL0     H20216   2.339   1.833  10.353  0.4130  1.9380 -1.5401
  150MOL0     H20217   2.361   1.797  10.527 -1.6896  1.2552  0.6744
  150MOL0     H20218   2.180   2.006  10.412  0.0573 -2.5393 -1.9794
  150MOL0     H20219   2.141   1.858  10.482 -2.3843  2.2049  2.5371
  150MOL0     H20220   2.262   2.101  10.624 -1.5886  0.8729  0.8096
  150MOL0     H20221   2.287   1.935  10.693  0.5955 -0.7629 -1.7493
  150MOL0     H20222   2.055   1.884  10.685 -0.7876 -0.0446 -0.3934
  150MOL0     H20223   2.004   2.032  10.602 -0.8144  1.2256  1.4249
  150MOL0     H20224   1.969   2.028  10.849  1.0670 -0.2287  0.8398
  150MOL0     H20225   2.142   2.045  10.869 -0.7778 -2.0402  1.7442
  150MOL0     H20226   1.959   2.234  10.711  1.0799  0.4537 -0.9437
  150MOL0     H20227   2.127   2.254  10.742  1.4598 -2.6077 -1.6133
  150MOL0     H20228   1.932   2.244  10.993 -2.5205 -1.5828 -3.8350
  150MOL0     H20229   2.092   2.264  11.004 -2.3789 -2.5934  1.9865
  150MOL0     H20230   2.580   2.254  10.199  0.9149 -0.3411 -0.6624
  150MOL0     H20231   2.738   2.231  10.025 -2.8577  1.2375  0.7375
  150MOL0     H20232   2.787   2.046   9.641  2.4938  1.3081  1.6940
  150MOL0     H20233   2.832   1.969   9.412 -2.7099 -0.8044  0.6959
  150MOL0     H20234   2.122   0.515   9.005  2.1315  0.8071 -0.9525
  150MOL0     H20235   1.978   0.376   9.148  0.9739  1.4973 -0.4331
  150MOL0     H20236   1.638  -0.159   9.015  0.4663  0.6897  0.2848
  150MOL0     H20237   1.414  -0.207   9.124 -1.7289  0.7385 -0.3722
  150MOL0     H20238   1.209  -0.196   9.217  1.5158  1.8504 -0.6373
  150MOL0     H20239   1.144  -0.145   9.368 -0.7472 -0.1004 -1.6129
  150MOL0     H20240   1.371  -0.362   9.322 -0.6553 -4.1139  2.1607
  150MOL0     H20241   1.212  -0.398   9.375  0.6359  0.0442 -4.6771
  150MOL0     H20242   1.280  -0.208   9.553 -0.8226 -0.3312  1.2368
  150MOL0     H20243   1.441  -0.255   9.508  1.3278 -3.9708  1.5113
  150MOL0     H20244   1.246  -0.445   9.622 -0.3275  0.4594 -1.2675
  150MOL0     H20245   1.423  -0.479   9.575  0.9937  1.0845 -0.2142
  150MOL0     H20246   1.465  -0.260   9.930  0.4135 -2.1008  0.9594
  150MOL0     H20247   1.485   0.118   9.389  0.8928  1.7070 -0.8434
  150MOL0     H20248   1.811   0.199   9.298 -0.8679 -2.8587  2.3526
  150MOL0     H20249   1.694   0.287   9.193  0.6862  0.7160  0.4228
  150MOL0     H20250   1.666   0.259   9.373 -2.7415 -0.6619 -0.2470
  151MOL0     O20251   0.670   1.653   4.638  0.4114 -0.2930  0.6778
  151MOL0     C20252   0.555   1.631   4.672 -0.3582  0.1403 -0.7121
  151MOL0     O20253   0.461   1.594   4.575 -0.3578 -0.2627  0.0447
  151MOL0     C20254   0.517   1.564   4.453  0.4417  1.1664 -1.0008
  151MOL0     C20255   0.515   1.654   4.338 -0.8030  0.2661  0.2769
  151MOL0     C20256   0.553   1.608   4.207 -0.0617 -0.1100  0.4864
  151MOL0     C20257   0.591   1.469   4.186 -0.6656  0.1283 -0.0235
  151MOL0     O20258   0.608   1.425   4.059 -0.2609 -0.0295  0.0464
  151MOL0     C20259   0.723   1.341   4.042 -0.2518 -0.0186  0.1332
  151MOL0     C20260   0.793   1.374   3.907  0.3283 -0.2703  0.1774
  151MOL0     C20261   0.689   1.370   3.797 -0.0748  0.0655 -0.1708
  151MOL0     C20262   0.766   1.326   3.675 -0.5902 -0.7342 -0.1998
  151MOL0     C20263   0.684   1.300   3.548  0.1888  0.5880 -0.0512
  151MOL0     C20264   0.570   1.191   3.557 -0.3550 -0.6615 -0.2937
  151MOL0     C20265   0.593   1.059   3.634  1.2776  0.3867 -0.4950
  151MOL0     C20266   0.471   0.968   3.626  0.5624  0.2718  0.2646
  151MOL0     N20267   0.444   0.922   3.491 -0.3903 -0.2491 -0.3908
  151MOL0     C20268   0.494   0.815   3.423 -0.2986 -0.3957 -0.1210
  151MOL0     C20269   0.443   0.830   3.301  0.0185  0.6240  0.0511
  151MOL0     C20270   0.447   0.733   3.185 -0.1071 -0.2052  0.2855
  151MOL0     C20271   0.327   0.760   3.083 -0.0724 -0.4214  0.0222
  151MOL0     C20272   0.195   0.731   3.159 -0.3550 -0.0485 -0.2977
  151MOL0     C20273   0.080   0.788   3.075 -0.1177  0.0848 -0.5241
  151MOL0     O20274  -0.044   0.788   3.145 -0.0785 -0.6714  0.4139
  151MOL0     C20275  -0.081   0.910   3.186  0.5373  0.4332 -0.4101
  151MOL0     C20276  -0.217   0.933   3.190  0.8623 -0.4036  0.2245
  151MOL0     C20277  -0.268   1.058   3.219  0.3111  0.3738 -0.2068
  151MOL0     C20278  -0.191   1.165   3.272 -0.3730  0.6857 -0.0892
  151MOL0     C20279  -0.255   1.283   3.326  0.0269  0.3603  0.0809
  151MOL0     O20280  -0.161   1.369   3.391 -0.8069  0.0909 -0.8269
  151MOL0     C20281  -0.201   1.466   3.478  0.7135  0.1920 -0.0127
  151MOL0     C20282  -0.152   1.471   3.604 -0.5284  0.4369  0.5261
  151MOL0     C20283  -0.189   1.564   3.705  0.0826  1.2601 -0.3379
  151MOL0     C20284  -0.266   1.669   3.679  1.1042 -0.6185  0.9589
  151MOL0     O20285  -0.296   1.766   3.772  0.5764  1.0642  0.2250
  151MOL0     C20286  -0.368   1.883   3.731 -0.1765  0.2126 -0.1539
  151MOL0     C20287  -0.317   2.007   3.810 -0.5751  0.3544 -0.2458
  151MOL0     C20288  -0.364   2.009   3.959 -0.7345 -0.1406 -0.2922
  151MOL0     C20289  -0.324   2.137   4.032 -0.3546  0.4467 -0.0745
  151MOL0     C20290  -0.366   2.147   4.175 -0.2818  0.3431  0.0800
  151MOL0     C20291  -0.277   2.258   4.237  0.1973  0.1885 -1.1839
  151MOL0     C20292  -0.295   2.298   4.391  0.1517 -0.0956 -0.5372
  151MOL0     C20293  -0.184   2.380   4.452  0.3527 -0.4875  0.6282
  151MOL0    Cl20294  -0.024   2.294   4.449  0.2758  0.0885  0.3237
  151MOL0     C20295  -0.330   1.666   3.544  0.8348  0.6467 -0.3485
  151MOL0     C20296  -0.299   1.562   3.448  0.1626 -0.5794 -0.7665
  151MOL0     O20297  -0.373   1.303   3.331 -0.6667  0.3853 -0.1393
  151MOL0     C20298  -0.049   1.141   3.277  0.4396  0.1974 -0.1187
  151MOL0     C20299   0.004   1.019   3.228 -0.8808 -0.7364 -0.3021
  151MOL0     N20300   0.369   0.945   3.290  0.2256 -1.1403 -0.7895
  151MOL0     N20301   0.360   0.995   3.414  0.4166  0.4438 -0.3220
  151MOL0     C20302   0.602   1.382   4.298  0.2385  0.5930 -0.1091
  151MOL0     C20303   0.560   1.431   4.424 -0.0108 -0.3896 -0.1905
  151MOL0     C20304   0.513   1.669   4.804  0.2004  0.1971  0.1389
  151MOL0     C20305   0.551   1.794   4.866 -0.1028 -0.2319 -0.0895
  151MOL0     C20306   0.484   1.833   4.977  0.2118 -0.6956  0.0374
  151MOL0     C20307   0.367   1.765   5.021  0.4276 -0.3200  0.0419
  151MOL0     O20308   0.291   1.809   5.120 -0.2203  0.1960 -0.3481
  151MOL0     C20309   0.266   1.951   5.136  0.5433  0.5464 -0.4804
  151MOL0     C20310   0.266   1.966   5.294  0.5315  0.7010  1.8547
  151MOL0     C20311   0.287   2.117   5.334 -0.2919  0.9846 -1.1514
  151MOL0     C20312   0.151   2.186   5.376 -0.4283  0.2137  0.2408
  151MOL0     C20313   0.053   2.212   5.268 -0.0709 -0.4939 -0.2391
  151MOL0     C20314  -0.022   2.237   5.170  0.5521 -0.4836 -0.5446
  151MOL0     C20315   0.351   1.634   4.974  0.0665  0.2099  0.2318
  151MOL0     C20316   0.434   1.579   4.876  0.7264 -0.5443 -0.5109
  151MOL0     C20317   0.422   1.439   4.825  0.3280  0.4181 -0.7189
  151MOL0     H20318   0.480   1.755   4.352  1.3499  0.7187  3.4408
  151MOL0     H20319   0.557   1.670   4.118 -0.6505  0.7969  1.0796
  151MOL0     H20320   0.798   1.329   4.121  2.9217 -0.0504 -2.6435
  151MOL0     H20321   0.677   1.242   4.031 -1.0217  0.5094 -1.9620
  151MOL0     H20322   0.875   1.305   3.889 -0.2063 -0.8675 -0.0125
  151MOL0     H20323   0.834   1.475   3.914 -0.9097  0.4142 -1.8173
  151MOL0     H20324   0.632   1.462   3.779  0.2016  0.0167 -1.3554
  151MOL0     H20325   0.620   1.289   3.821  0.1582 -0.3104 -0.7433
  151MOL0     H20326   0.833   1.408   3.645 -1.6870 -0.2484 -1.3920
  151MOL0     H20327   0.821   1.234   3.697 -1.0764 -1.2938 -1.2707
  151MOL0     H20328   0.634   1.389   3.509 -1.9950  0.4515  2.1382
  151MOL0     H20329   0.756   1.261   3.476  0.7482  2.6563 -0.6659
  151MOL0     H20330   0.491   1.255   3.600  0.9925  1.7510 -1.2249
  151MOL0     H20331   0.535   1.164   3.457 -2.0292 -1.9952  0.5993
  151MOL0     H20332   0.604   1.071   3.742  0.8680  0.1403 -0.4220
  151MOL0     H20333   0.674   0.998   3.592 -1.3698 -3.3835 -0.7227
  151MOL0     H20334   0.490   0.881   3.690 -1.2508 -2.7080 -2.9361
  151MOL0     H20335   0.385   1.029   3.658  1.2877  1.8212 -0.5933
  151MOL0     H20336   0.561   0.740   3.462  3.3083  1.2138 -2.7354
  151MOL0     H20337   0.538   0.749   3.126  0.3561 -0.4253  0.9378
  151MOL0     H20338   0.437   0.631   3.223  0.6745  0.3609  2.0814
  151MOL0     H20339   0.341   0.860   3.041 -1.2711  0.2524  1.1457
  151MOL0     H20340   0.329   0.696   2.994  1.4405  1.6027 -1.4841
  151MOL0     H20341   0.176   0.763   3.262 -2.2724 -1.5952 -0.1269
  151MOL0     H20342   0.178   0.623   3.167 -2.4624  0.2603 -0.0816
  151MOL0     H20343   0.068   0.713   2.995 -0.6529 -3.2106  2.3774
  151MOL0     H20344   0.098   0.889   3.038 -0.8373  1.1953  2.0058
  151MOL0     H20345  -0.285   0.854   3.157  0.6231 -0.2505  0.3539
  151MOL0     H20346  -0.374   1.067   3.198  0.4324 -3.4264 -3.5621
  151MOL0     H20347  -0.089   1.385   3.626 -0.8210 -0.2993 -1.3062
  151MOL0     H20348  -0.157   1.554   3.809  2.9613 -2.9361 -1.3637
  151MOL0     H20349  -0.350   1.900   3.624  2.5236 -1.9306 -0.1352
  151MOL0     H20350  -0.476   1.869   3.741 -0.3711 -1.2333 -3.1096
  151MOL0     H20351  -0.208   2.012   3.813 -0.6149  1.2095  1.1070
  151MOL0     H20352  -0.350   2.097   3.758 -0.0733  1.9070  1.9500
  151MOL0     H20353  -0.470   1.986   3.973 -0.6282 -0.7771 -0.4984
  151MOL0     H20354  -0.311   1.928   4.009 -0.9120  0.2654  0.5677
  151MOL0     H20355  -0.364   2.221   3.976 -0.4805 -0.6327 -1.6637
  151MOL0     H20356  -0.215   2.145   4.022 -0.1977  0.7106  1.5887
  151MOL0     H20357  -0.350   2.057   4.236 -0.3883 -0.6817 -1.3446
  151MOL0     H20358  -0.470   2.180   4.179 -0.5358 -0.0931 -1.9039
  151MOL0     H20359  -0.172   2.247   4.210  0.6158  2.7123 -0.8430
  151MOL0     H20360  -0.299   2.344   4.173  1.7720 -1.6588 -4.4648
  151MOL0     H20361  -0.291   2.211   4.458  1.4654  0.3857  0.0476
  151MOL0     H20362  -0.391   2.349   4.401  0.4064  0.3664 -0.4278
  151MOL0     H20363  -0.181   2.476   4.400 -1.4461 -0.1731  1.0322
  151MOL0     H20364  -0.207   2.405   4.556 -2.3026  0.1723 -0.0251
  151MOL0     H20365  -0.401   1.743   3.515  1.4912  0.0680 -3.9444
  151MOL0     H20366  -0.351   1.566   3.353  0.5579 -0.8547 -0.9991
  151MOL0     H20367   0.023   1.210   3.320  0.4245  0.8096 -1.0411
  151MOL0     H20368   0.110   1.001   3.235 -1.2582 -2.9734  0.5086
  151MOL0     H20369   0.636   1.279   4.305  0.5834  0.7560  0.7184
  151MOL0     H20370   0.558   1.364   4.509 -1.0356 -1.4596 -1.0202
  151MOL0     H20371   0.613   1.861   4.807 -1.6573  1.5797  0.2256
  151MOL0     H20372   0.511   1.929   5.018  4.4709 -2.4745  2.0834
  151MOL0     H20373   0.169   1.986   5.099 -0.8538 -3.3736 -1.0054
  151MOL0     H20374   0.346   2.013   5.095 -0.6203  0.7693 -2.5871
  151MOL0     H20375   0.344   1.905   5.339 -1.7223 -1.9487  2.4663
  151MOL0     H20376   0.175   1.924   5.337 -0.8245  1.2322 -0.2822
  151MOL0     H20377   0.339   2.188   5.270  1.1611  1.1216  0.1136
  151MOL0     H20378   0.352   2.110   5.423  0.0703 -0.1798 -1.4916
  151MOL0     H20379   0.120   2.148   5.474  0.4880 -1.0194  0.0723
  151MOL0     H20380   0.186   2.285   5.408 -0.2093 -0.4061  2.0439
  151MOL0     H20381  -0.096   2.249   5.093  1.0241  1.4605 -0.7426
  151MOL0     H20382   0.269   1.570   5.005 -0.3320 -0.0034 -1.1946
  151MOL0     H20383   0.518   1.392   4.802 -1.1325 -2.3487 -1.6545
  151MOL0     H20384   0.362   1.387   4.900  1.4503 -0.7464 -0.5909
  151MOL0     H20385   0.360   1.437   4.734  2.1628 -1.1005 -2.0215
  152MOL0     O20386   9.539   1.174   2.483 -0.4453 -0.3614  1.2962
  152MOL0     C20387   9.531   1.286   2.435 -0.7119 -0.3088  0.1486
  152MOL0     O20388   9.634   1.372   2.423  0.0338  0.4345 -0.8991
  152MOL0     C20389   9.756   1.321   2.455  0.0085 -0.5283 -0.3189
  152MOL0     C20390   9.803   1.341   2.587 -0.3347 -0.4140 -0.1468
  152MOL0     C20391   9.936   1.320   2.625 -1.2774 -0.1180  0.0155
  152MOL0     C20392  10.031   1.288   2.530 -0.3755  0.8983  2.0583
  152MOL0     O20393  10.159   1.281   2.578  0.0794 -0.1942  0.3841
  152MOL0     C20394  10.272   1.275   2.493  0.1583  0.0319  0.1993
  152MOL0     C20395  10.400   1.271   2.571  0.4275  0.6694  0.6201
  152MOL0     C20396  10.401   1.368   2.686 -0.1284  0.0813 -0.1684
  152MOL0     C20397  10.530   1.388   2.758 -0.1068  1.3308  0.1499
  152MOL0     C20398  10.586   1.266   2.829  0.3974  0.4125 -0.0292
  152MOL0     C20399  10.688   1.310   2.934 -0.9941 -0.6010  0.5944
  152MOL0     C20400  10.742   1.192   3.009  0.0454 -0.6521 -0.8094
  152MOL0     C20401  10.848   1.231   3.110  0.9892 -0.6507  0.6181
  152MOL0     N20402  10.790   1.281   3.234  1.1145 -0.7399  0.0233
  152MOL0     C20403  10.759   1.413   3.269 -0.1922  0.4938  0.1590
  152MOL0     C20404  10.688   1.396   3.379  0.7302  0.4315  0.6850
  152MOL0     C20405  10.623   1.512   3.454 -0.3884  0.4552 -0.4068
  152MOL0     C20406  10.721   1.604   3.536 -0.9104 -0.4909 -0.6008
  152MOL0     C20407  10.640   1.674   3.642 -0.4067  0.1031  0.7931
  152MOL0     C20408  10.739   1.754   3.729 -0.8050 -0.3606 -0.7360
  152MOL0     O20409  10.810   1.680   3.830  0.0247  1.1031 -0.5972
  152MOL0     C20410  10.714   1.630   3.923 -0.2115  0.3516  0.3870
  152MOL0     C20411  10.592   1.690   3.965 -0.3493  0.4762  1.0725
  152MOL0     C20412  10.513   1.632   4.055 -0.6645 -0.8042 -0.4465
  152MOL0     C20413  10.554   1.507   4.117  0.2293  1.1029 -0.1402
  152MOL0     C20414  10.463   1.442   4.204 -0.5037 -0.1629 -1.0500
  152MOL0     O20415  10.505   1.356   4.298 -0.0023 -0.7342  1.0816
  152MOL0     C20416  10.418   1.275   4.370  0.3462 -1.4742  0.2963
  152MOL0     C20417  10.422   1.139   4.344  0.0848 -0.2172 -0.2412
  152MOL0     C20418  10.346   1.060   4.434  0.1458  0.5021 -0.4580
  152MOL0     C20419  10.259   1.107   4.531 -0.1532 -0.1819 -0.2730
  152MOL0     O20420  10.189   1.019   4.611 -0.5140  0.4862 -0.7075
  152MOL0     C20421  10.155   1.067   4.746  0.1739  0.1879  0.3955
  152MOL0     C20422  10.274   1.075   4.850 -0.0001 -0.0580  0.5122
  152MOL0     C20423  10.372   0.966   4.829  0.1980  0.3146 -0.0298
  152MOL0     C20424  10.499   0.992   4.900 -0.5554 -0.5902 -1.6574
  152MOL0     C20425  10.591   0.874   4.862  0.2062  0.0736  0.2808
  152MOL0     C20426  10.729   0.851   4.938  0.9476  0.7092  0.3791
  152MOL0     C20427  10.799   0.727   4.877  0.4714  0.3339 -0.1708
  152MOL0     C20428  10.889   0.669   4.985 -0.3965  0.1427  0.5804
  152MOL0    Cl20429  10.971   0.539   4.909 -0.2646 -0.0330  0.2034
  152MOL0     C20430  10.257   1.243   4.546 -0.9702  0.3637 -0.5343
  152MOL0     C20431  10.349   1.329   4.475 -0.4433 -0.1289 -0.0958
  152MOL0     O20432  10.347   1.480   4.200 -0.8672 -0.2068 -0.0572
  152MOL0     C20433  10.671   1.445   4.071 -0.0531 -1.0825 -0.4682
  152MOL0     C20434  10.748   1.505   3.978  0.4370 -0.2564  0.1758
  152MOL0     N20435  10.678   1.267   3.419  0.6234  1.2489  0.2242
  152MOL0     N20436  10.757   1.203   3.338  0.8424 -0.5782 -0.0258
  152MOL0     C20437   9.987   1.252   2.400  0.0021 -0.4683  0.1137
  152MOL0     C20438   9.849   1.278   2.362 -0.8319  0.0597 -0.2364
  152MOL0     C20439   9.392   1.328   2.372 -0.6751 -0.6281 -1.0743
  152MOL0     C20440   9.380   1.441   2.295  0.9854 -0.8380 -0.3584
  152MOL0     C20441   9.254   1.499   2.259  0.5238  0.5842 -0.5080
  152MOL0     C20442   9.138   1.424   2.280 -0.2614 -0.1385 -0.0945
  152MOL0     O20443   9.017   1.445   2.230  0.9880  0.2329 -0.4856
  152MOL0     C20444   8.910   1.502   2.309  0.0112 -0.2367  0.9915
  152MOL0     C20445   8.794   1.546   2.223 -0.4553 -0.3940  0.3071
  152MOL0     C20446   8.714   1.661   2.288  1.4738  0.0895  0.1720
  152MOL0     C20447   8.789   1.799   2.280 -0.3235  0.6570  0.3440
  152MOL0     C20448   8.697   1.912   2.266 -0.5533  0.4650  0.9622
  152MOL0     C20449   8.628   2.009   2.240  0.2958  0.2749  1.7754
  152MOL0     C20450   9.161   1.311   2.351  0.8700  0.5280  0.1757
  152MOL0     C20451   9.269   1.260   2.400 -0.9221 -0.5689  0.6012
  152MOL0     C20452   9.251   1.140   2.490 -0.1274 -0.6275 -0.2447
  152MOL0     H20453   9.740   1.388   2.662  1.5307  1.9479  0.0723
  152MOL0     H20454   9.956   1.346   2.729 -0.4614 -2.1726  0.4262
  152MOL0     H20455  10.269   1.187   2.428 -0.3342  1.5581 -1.9632
  152MOL0     H20456  10.259   1.358   2.423 -2.4418 -0.4602  0.0039
  152MOL0     H20457  10.463   1.294   2.485 -1.6615 -3.3679 -2.3132
  152MOL0     H20458  10.410   1.164   2.589 -0.9321 -0.2858 -3.3851
  152MOL0     H20459  10.332   1.342   2.767  1.2996  0.7094  1.3026
  152MOL0     H20460  10.377   1.469   2.654 -0.0352 -0.4393 -1.9731
  152MOL0     H20461  10.598   1.438   2.689 -0.1746  2.5863  0.9672
  152MOL0     H20462  10.506   1.463   2.834  1.1690  2.0174 -0.0900
  152MOL0     H20463  10.509   1.210   2.883  0.1498  1.9563  1.2903
  152MOL0     H20464  10.636   1.196   2.761  0.0351 -2.8650  2.7986
  152MOL0     H20465  10.770   1.345   2.871 -0.7310  0.5609  1.5414
  152MOL0     H20466  10.650   1.387   3.002 -0.7724  0.3368 -0.3285
  152MOL0     H20467  10.779   1.126   2.930  0.0600 -0.1516 -1.2248
  152MOL0     H20468  10.655   1.145   3.057 -2.2188  3.1475 -0.7705
  152MOL0     H20469  10.915   1.145   3.120  2.2973 -0.2625 -3.2119
  152MOL0     H20470  10.906   1.311   3.062 -0.1402 -1.0150 -1.4381
  152MOL0     H20471  10.747   1.501   3.208 -3.1796  0.4271  0.4894
  152MOL0     H20472  10.579   1.582   3.383  1.9980  1.2729 -1.1498
  152MOL0     H20473  10.563   1.460   3.530  0.1671  1.5890  0.8512
  152MOL0     H20474  10.786   1.537   3.594 -0.1685  1.8294  1.4125
  152MOL0     H20475  10.781   1.673   3.476 -0.7856 -0.7078 -0.7271
  152MOL0     H20476  10.580   1.599   3.694  0.3480 -0.1487  1.3204
  152MOL0     H20477  10.576   1.748   3.592  0.6607 -0.6715 -1.9177
  152MOL0     H20478  10.709   1.851   3.771 -0.3739  0.2283 -1.7443
  152MOL0     H20479  10.809   1.799   3.658  0.4556  4.9521  3.1462
  152MOL0     H20480  10.571   1.784   3.917 -2.1737 -0.8381 -0.8820
  152MOL0     H20481  10.413   1.665   4.078 -1.2224 -3.0782  0.6664
  152MOL0     H20482  10.494   1.090   4.278  0.3592 -0.2683  0.0938
  152MOL0     H20483  10.338   0.952   4.430  1.2120  0.2652  2.0586
  152MOL0     H20484  10.103   1.163   4.751 -0.2562 -0.0425  0.3447
  152MOL0     H20485  10.094   0.997   4.803  0.5502  1.5118  2.5626
  152MOL0     H20486  10.329   1.166   4.825 -0.0746 -0.4993 -1.4174
  152MOL0     H20487  10.244   1.084   4.955  1.7008  0.0168  1.0181
  152MOL0     H20488  10.333   0.873   4.872  2.2715 -0.6492 -0.1404
  152MOL0     H20489  10.402   0.951   4.726 -0.1696  1.3710 -0.3088
  152MOL0     H20490  10.474   0.995   5.006 -0.0310  2.8666 -1.4893
  152MOL0     H20491  10.544   1.090   4.881  2.2995 -0.9897  1.8489
  152MOL0     H20492  10.618   0.885   4.757 -0.0398  0.8346  0.2900
  152MOL0     H20493  10.532   0.781   4.862  1.6586 -0.8836 -0.7241
  152MOL0     H20494  10.786   0.943   4.921  0.5882  0.9704  0.5901
  152MOL0     H20495  10.704   0.831   5.042 -1.6192 -0.7338 -0.4198
  152MOL0     H20496  10.836   0.746   4.776  0.3901 -0.8077 -0.4275
  152MOL0     H20497  10.725   0.649   4.857 -0.1480 -0.5985  4.5083
  152MOL0     H20498  10.964   0.739   5.023  0.8128 -1.9970  2.3924
  152MOL0     H20499  10.835   0.632   5.073  0.1987 -1.4549  0.3029
  152MOL0     H20500  10.190   1.290   4.617 -0.0549  2.5971 -1.0344
  152MOL0     H20501  10.344   1.437   4.485  0.8503 -0.0470 -0.1536
  152MOL0     H20502  10.711   1.350   4.108  2.0441  0.5067  1.6511
  152MOL0     H20503  10.843   1.463   3.946  0.4081 -0.8810  0.8862
  152MOL0     H20504  10.055   1.219   2.323 -2.1933  0.7077 -2.4959
  152MOL0     H20505   9.814   1.261   2.261 -2.2234  2.2489 -0.1948
  152MOL0     H20506   9.453   1.519   2.310 -0.8374  0.4916  2.6819
  152MOL0     H20507   9.233   1.598   2.220  2.3501  1.0641 -0.3734
  152MOL0     H20508   8.958   1.587   2.358  0.7222  0.3965 -0.7201
  152MOL0     H20509   8.885   1.440   2.396 -1.7487  0.2568  0.8806
  152MOL0     H20510   8.731   1.457   2.209  0.3378 -0.8607 -0.4069
  152MOL0     H20511   8.826   1.574   2.122  1.0915  1.4564  1.2673
  152MOL0     H20512   8.689   1.640   2.392 -0.0533 -2.5556 -0.6405
  152MOL0     H20513   8.617   1.671   2.239  0.8570  0.5720  1.4580
  152MOL0     H20514   8.851   1.805   2.370  2.2997  1.4819 -1.4146
  152MOL0     H20515   8.863   1.788   2.201 -1.8976 -1.1139 -0.9795
  152MOL0     H20516   8.563   2.091   2.215 -1.9971 -2.4928 -2.6164
  152MOL0     H20517   9.067   1.257   2.355  0.7433  0.7504  0.2102
  152MOL0     H20518   9.291   1.050   2.441  2.5375  0.4283 -0.1806
  152MOL0     H20519   9.297   1.150   2.589 -2.2962  1.2831  0.6605
  152MOL0     H20520   9.146   1.129   2.517  0.4786 -1.6971  1.9908
  153MOL0     O20521   3.877  11.257   3.076  0.8804 -0.4176 -0.6905
  153MOL0     C20522   3.938  11.157   3.117  0.0711 -0.2785  0.0343
  153MOL0     O20523   4.071  11.130   3.095 -0.0643  0.0594 -0.5534
  153MOL0     C20524   4.127  11.201   2.998 -0.2054 -0.4288 -0.4433
  153MOL0     C20525   4.066  11.233   2.876  0.4274  1.1505 -1.0347
  153MOL0     C20526   4.138  11.305   2.781 -0.0761  0.4850  0.7199
  153MOL0     C20527   4.282  11.332   2.804  0.3517  0.1870  0.7001
  153MOL0     O20528   4.357  11.418   2.718  0.5683  0.8134 -0.5718
  153MOL0     C20529   4.499  11.419   2.733  0.0599  0.6525  0.9801
  153MOL0     C20530   4.553  11.492   2.611 -0.4417 -0.0823 -0.5222
  153MOL0     C20531   4.708  11.494   2.629 -0.9119 -0.7163 -0.0597
  153MOL0     C20532   4.787  11.555   2.512  0.2996  0.3040  0.9417
  153MOL0     C20533   4.937  11.520   2.543  0.6112 -0.2133 -0.5149
  153MOL0     C20534   5.019  11.562   2.417 -0.7699  0.4620  0.2902
  153MOL0     C20535   5.168  11.594   2.464 -0.1404 -0.1671  0.2765
  153MOL0     C20536   5.251  11.630   2.336 -0.0689  0.0335 -0.2073
  153MOL0     N20537   5.231  11.768   2.269  0.4407  0.2192 -0.0356
  153MOL0     C20538   5.311  11.815   2.164 -0.7677 -0.6259 -0.9941
  153MOL0     C20539   5.275  11.952   2.154 -0.3113 -0.1243  0.2395
  153MOL0     C20540   5.347  12.062   2.076  0.0793  0.0601 -1.2262
  153MOL0     C20541   5.291  12.080   1.933  0.0852 -0.3868  0.2326
  153MOL0     C20542   5.365  12.195   1.857 -0.4857 -0.4245  0.8718
  153MOL0     C20543   5.517  12.180   1.853 -1.0775 -0.5905 -0.2732
  153MOL0     O20544   5.574  12.288   1.769  0.5386 -0.4462  0.1342
  153MOL0     C20545   5.704  12.269   1.730  0.2535 -0.5721  0.3834
  153MOL0     C20546   5.762  12.389   1.671  0.5392 -0.3225  0.4315
  153MOL0     C20547   5.888  12.382   1.616  0.2175 -1.1998  0.6354
  153MOL0     C20548   5.963  12.268   1.615  0.3345 -0.2005 -0.3630
  153MOL0     C20549   6.094  12.267   1.558  0.3270 -0.3962 -0.7043
  153MOL0     O20550   6.135  12.388   1.506 -0.2816  0.3726  0.8922
  153MOL0     C20551   6.266  12.408   1.471  0.0025 -0.0663 -0.3322
  153MOL0     C20552   6.373  12.401   1.569  0.9945  0.2240  0.7405
  153MOL0     C20553   6.505  12.412   1.532  0.0560  0.8720  1.0228
  153MOL0     C20554   6.542  12.427   1.397  0.2065 -0.5806 -1.4709
  153MOL0     O20555   6.676  12.452   1.364  0.0114 -0.0422 -0.2820
  153MOL0     C20556   6.716  12.469   1.225  0.6303 -0.1737 -0.5869
  153MOL0     C20557   6.868  12.478   1.232 -0.1830  0.6592  0.1662
  153MOL0     C20558   6.953  12.364   1.275  0.4123  0.6647 -0.1644
  153MOL0     C20559   7.095  12.360   1.206  0.2097 -0.0807  0.6640
  153MOL0     C20560   7.186  12.473   1.264 -0.4409 -0.4163  0.3122
  153MOL0     C20561   7.321  12.479   1.198 -0.1862  0.0372  1.2078
  153MOL0     C20562   7.421  12.577   1.269  0.0493  0.1827  0.3492
  153MOL0     C20563   7.563  12.539   1.232  0.2755  0.0918 -0.0607
  153MOL0    Cl20564   7.606  12.397   1.341  0.7788  0.2882 -0.6717
  153MOL0     C20565   6.437  12.449   1.309 -0.3410 -0.9459  0.0452
  153MOL0     C20566   6.302  12.443   1.346 -0.3913  0.6314  1.0357
  153MOL0     O20567   6.158  12.166   1.549  0.2911  0.0223 -0.1450
  153MOL0     C20568   5.920  12.152   1.684  0.2872 -0.4137 -0.3211
  153MOL0     C20569   5.791  12.154   1.743  0.0609 -0.7435 -0.4571
  153MOL0     N20570   5.168  11.976   2.231 -0.3957  0.5363  0.1332
  153MOL0     N20571   5.136  11.867   2.296  0.2795  0.1959  0.2479
  153MOL0     C20572   4.338  11.279   2.920 -0.5668 -0.9831  0.2373
  153MOL0     C20573   4.261  11.229   3.018  1.0071  0.1708  0.7376
  153MOL0     C20574   3.854  11.067   3.199 -0.1378  0.7248 -0.0087
  153MOL0     C20575   3.891  11.032   3.328 -0.0808  0.1190 -0.3447
  153MOL0     C20576   3.806  10.959   3.414 -0.3326  0.1901  0.2306
  153MOL0     C20577   3.693  10.899   3.364  0.0385  0.3362  0.2166
  153MOL0     O20578   3.618  10.838   3.455 -0.3501 -0.1211 -0.5477
  153MOL0     C20579   3.490  10.786   3.418 -0.6067 -0.1292  0.1474
  153MOL0     C20580   3.390  10.900   3.390 -1.3324 -1.0875  0.0911
  153MOL0     C20581   3.386  11.002   3.508  0.2251  0.2754  0.2469
  153MOL0     C20582   3.338  10.946   3.641 -0.2844 -0.5017  0.4926
  153MOL0     C20583   3.225  10.866   3.627 -0.1847 -0.4219 -0.3374
  153MOL0     C20584   3.126  10.801   3.622 -0.7582  0.0885  0.3810
  153MOL0     C20585   3.657  10.919   3.230  0.6276 -0.2503 -0.5717
  153MOL0     C20586   3.738  11.000   3.150 -0.0492  0.1504  0.2808
  153MOL0     C20587   3.693  11.025   3.002 -0.0956 -0.0425 -1.1869
  153MOL0     H20588   3.961  11.209   2.868  0.2664  1.8099 -0.9550
  153MOL0     H20589   4.092  11.335   2.688 -0.1750 -2.9570 -0.4898
  153MOL0     H20590   4.532  11.476   2.821 -0.7684  1.8978  0.5113
  153MOL0     H20591   4.535  11.316   2.726  1.8600  1.3224 -0.2689
  153MOL0     H20592   4.513  11.594   2.615 -1.5489 -0.4131 -2.1986
  153MOL0     H20593   4.521  11.444   2.518 -1.0713  1.4798 -1.1466
  153MOL0     H20594   4.750  11.397   2.660  2.7753  1.0322  1.0363
  153MOL0     H20595   4.725  11.555   2.719  1.9111  1.8553 -2.1381
  153MOL0     H20596   4.777  11.502   2.416  3.0782  1.9736 -0.4080
  153MOL0     H20597   4.763  11.661   2.510 -1.9557 -0.1516  1.5697
  153MOL0     H20598   4.964  11.573   2.635 -1.6040 -0.4693  0.3463
  153MOL0     H20599   4.960  11.416   2.566  3.1414  0.4547  0.2746
  153MOL0     H20600   5.027  11.478   2.348 -0.0497 -0.7557  1.7936
  153MOL0     H20601   4.979  11.652   2.369 -0.9780 -0.1627 -0.7365
  153MOL0     H20602   5.214  11.508   2.515 -1.5488 -1.4909 -0.5816
  153MOL0     H20603   5.170  11.677   2.535  1.3857 -0.2278  0.3262
  153MOL0     H20604   5.357  11.629   2.363 -0.4599 -1.2254  1.4833
  153MOL0     H20605   5.226  11.548   2.268  0.2851  0.4186 -0.8135
  153MOL0     H20606   5.398  11.763   2.125 -2.1607 -2.4249 -1.8699
  153MOL0     H20607   5.340  12.154   2.135 -0.7727 -2.0255  2.2633
  153MOL0     H20608   5.453  12.045   2.051 -0.1403  0.7567 -2.6994
  153MOL0     H20609   5.269  11.989   1.877 -0.9087 -1.7731  2.6777
  153MOL0     H20610   5.193  12.128   1.938  0.1983  0.0725 -1.5008
  153MOL0     H20611   5.353  12.299   1.887  0.0810  0.2640 -1.1141
  153MOL0     H20612   5.328  12.185   1.754  2.0797 -0.7138 -0.1187
  153MOL0     H20613   5.548  12.080   1.823 -0.9309 -0.1434 -1.6753
  153MOL0     H20614   5.548  12.202   1.956 -1.9357 -1.5081  0.1977
  153MOL0     H20615   5.719  12.487   1.684  2.2039  0.7137 -1.3474
  153MOL0     H20616   5.937  12.468   1.573 -1.7646 -1.9659 -3.6062
  153MOL0     H20617   6.343  12.373   1.669  0.6980  2.1511  1.2269
  153MOL0     H20618   6.582  12.394   1.607  0.9435 -0.1128 -0.1056
  153MOL0     H20619   6.687  12.376   1.174  4.1729 -1.1599 -1.0832
  153MOL0     H20620   6.674  12.550   1.166 -0.4669 -1.6434 -1.9205
  153MOL0     H20621   6.903  12.516   1.135  1.3657  1.7372  1.0967
  153MOL0     H20622   6.893  12.566   1.293 -4.4642  1.4956  1.0825
  153MOL0     H20623   6.957  12.368   1.384 -1.2836  1.4876 -0.1038
  153MOL0     H20624   6.904  12.267   1.258 -0.3461  1.2878 -1.7485
  153MOL0     H20625   7.087  12.371   1.098  0.1761 -1.6712  0.4820
  153MOL0     H20626   7.137  12.260   1.218 -2.1028 -1.2505 -0.3243
  153MOL0     H20627   7.201  12.480   1.372 -0.9173  5.1268  0.3003
  153MOL0     H20628   7.138  12.568   1.241  1.3756  0.3950 -0.3274
  153MOL0     H20629   7.352  12.374   1.199  0.8149  0.1878 -2.1610
  153MOL0     H20630   7.308  12.507   1.093 -1.8960 -1.9476  0.8137
  153MOL0     H20631   7.414  12.565   1.377 -1.3577 -1.2649  0.1167
  153MOL0     H20632   7.397  12.678   1.235  1.6487  0.7941  0.9172
  153MOL0     H20633   7.563  12.504   1.128 -0.9745 -1.8535  0.5300
  153MOL0     H20634   7.634  12.621   1.247  1.2000 -0.8525  0.9075
  153MOL0     H20635   6.468  12.460   1.206 -0.7329 -0.6795 -0.0489
  153MOL0     H20636   6.230  12.455   1.266  0.6391 -2.4402 -0.5252
  153MOL0     H20637   5.965  12.054   1.684 -3.9044 -2.5808 -1.3796
  153MOL0     H20638   5.754  12.069   1.801  1.5525 -1.8089 -1.0158
  153MOL0     H20639   4.442  11.294   2.949  0.2451 -2.1671 -1.8870
  153MOL0     H20640   4.311  11.205   3.111 -0.0821  0.6414  1.4560
  153MOL0     H20641   3.991  11.063   3.358  0.9112 -1.8518 -1.4482
  153MOL0     H20642   3.827  10.939   3.519  2.2947  0.2566 -0.2237
  153MOL0     H20643   3.452  10.734   3.506 -0.4506  2.6965  2.0045
  153MOL0     H20644   3.502  10.718   3.333 -0.1117  1.9643 -1.5301
  153MOL0     H20645   3.291  10.856   3.375 -0.7863 -2.2328 -0.1875
  153MOL0     H20646   3.409  10.962   3.301 -1.0458 -1.9917 -0.4834
  153MOL0     H20647   3.326  11.086   3.472  0.7671  0.1872 -0.8888
  153MOL0     H20648   3.483  11.052   3.523  1.5572 -1.9947 -0.3427
  153MOL0     H20649   3.419  10.892   3.689 -0.6925  0.9108  2.9679
  153MOL0     H20650   3.308  11.033   3.701 -0.0867  1.2113 -1.7719
  153MOL0     H20651   3.026  10.764   3.615 -0.6178 -0.3003  0.4435
  153MOL0     H20652   3.568  10.868   3.194 -2.3025  3.2608  0.9612
  153MOL0     H20653   3.638  11.119   2.990  1.1640  0.8040 -0.5476
  153MOL0     H20654   3.781  11.029   2.937  1.0857 -0.8568  0.2997
  153MOL0     H20655   3.624  10.949   2.965 -4.3751  2.4568  0.8602
  154MOL0     O20656   6.622  10.297   7.075  0.0281 -0.2838 -0.3153
  154MOL0     C20657   6.516  10.350   7.030 -0.0369  0.3073  0.4959
  154MOL0     O20658   6.429  10.296   6.941  0.1877  0.3208  0.3680
  154MOL0     C20659   6.434  10.159   6.944  0.9705 -0.6355 -0.9419
  154MOL0     C20660   6.508  10.092   6.844  0.9284 -0.3814 -0.9017
  154MOL0     C20661   6.518   9.950   6.849  0.8881 -0.4637  0.2504
  154MOL0     C20662   6.433   9.881   6.938 -0.2526  0.5914  0.4602
  154MOL0     O20663   6.408   9.743   6.943 -0.3643  0.2673 -0.3113
  154MOL0     C20664   6.512   9.655   6.893  0.4537  0.3430  0.1155
  154MOL0     C20665   6.448   9.514   6.899  0.5965  0.7840 -0.0427
  154MOL0     C20666   6.543   9.399   6.866 -0.0157  1.0419 -0.3930
  154MOL0     C20667   6.479   9.246   6.886 -0.4268 -0.2057 -0.3675
  154MOL0     C20668   6.587   9.142   6.916  0.0953  0.5190 -0.7567
  154MOL0     C20669   6.664   9.100   6.786  0.3872  0.1674  0.2220
  154MOL0     C20670   6.781   9.014   6.815  0.4735 -0.5682 -0.4212
  154MOL0     C20671   6.838   8.936   6.697 -0.1069 -0.4678  0.2277
  154MOL0     N20672   6.766   8.818   6.654 -0.2885 -0.4359 -0.3676
  154MOL0     C20673   6.693   8.789   6.537  0.5631  0.2656  0.6211
  154MOL0     C20674   6.672   8.657   6.544  0.3538  0.0808 -0.4055
  154MOL0     C20675   6.599   8.569   6.446 -1.5380  0.8569 -0.4270
  154MOL0     C20676   6.689   8.476   6.370  0.3885 -0.7686  0.1083
  154MOL0     C20677   6.768   8.363   6.453  0.7497  0.2344  0.5716
  154MOL0     C20678   6.802   8.236   6.371 -0.6830  0.0978 -0.4209
  154MOL0     O20679   6.682   8.173   6.318 -0.0746 -0.4495  0.4363
  154MOL0     C20680   6.670   8.123   6.190 -0.9118 -0.4255 -0.8865
  154MOL0     C20681   6.761   8.040   6.133  0.0256  0.1133 -0.2276
  154MOL0     C20682   6.749   7.994   5.997 -0.3318 -0.6017 -0.6438
  154MOL0     C20683   6.659   8.067   5.919 -0.6335  0.5171  0.1831
  154MOL0     C20684   6.643   8.039   5.773 -0.7094 -0.3326  0.5242
  154MOL0     O20685   6.730   7.956   5.716  0.1163 -0.1256 -0.3433
  154MOL0     C20686   6.711   7.919   5.584 -0.1109 -0.2853  0.3871
  154MOL0     C20687   6.732   7.788   5.558 -0.0598  0.5370  0.9328
  154MOL0     C20688   6.712   7.745   5.430  0.4604  1.4183  0.1048
  154MOL0     C20689   6.693   7.832   5.325 -0.0143 -0.2281  0.2537
  154MOL0     O20690   6.682   7.775   5.201  0.0527 -0.0154  0.1156
  154MOL0     C20691   6.567   7.690   5.178  0.3294 -0.3268  0.0843
  154MOL0     C20692   6.508   7.685   5.041  0.0608  1.0826  1.0145
  154MOL0     C20693   6.443   7.817   4.994 -0.4263  0.3991  0.4440
  154MOL0     C20694   6.312   7.786   4.925  0.2941  0.3431 -1.3542
  154MOL0     C20695   6.263   7.924   4.860  0.0151 -0.0005 -0.0523
  154MOL0     C20696   6.289   7.919   4.704 -0.4181  0.5813 -0.0968
  154MOL0     C20697   6.269   8.048   4.621 -0.4193  0.1056 -0.4681
  154MOL0     C20698   6.385   8.151   4.655 -1.1670  0.0071  1.3706
  154MOL0    Cl20699   6.555   8.088   4.606  0.1073 -0.1838  0.2091
  154MOL0     C20700   6.697   7.967   5.347  0.3223 -0.4448  0.7951
  154MOL0     C20701   6.706   8.013   5.476 -0.0801 -0.2673  0.1653
  154MOL0     O20702   6.552   8.092   5.715 -1.0975 -0.1933  0.0754
  154MOL0     C20703   6.570   8.146   5.983 -0.2138  0.3412 -0.1521
  154MOL0     C20704   6.570   8.174   6.113  0.1704 -0.8977 -0.3555
  154MOL0     N20705   6.717   8.605   6.661 -0.1616  0.6092 -0.3976
  154MOL0     N20706   6.769   8.710   6.725 -0.9705  0.2171 -0.5713
  154MOL0     C20707   6.356   9.944   7.033  0.4970 -0.2186  0.3773
  154MOL0     C20708   6.365  10.089   7.043  1.1684  1.0683 -0.3060
  154MOL0     C20709   6.499  10.492   7.052  0.3013  0.2960 -0.0265
  154MOL0     C20710   6.471  10.576   6.947 -0.0254 -0.5002  0.7189
  154MOL0     C20711   6.462  10.716   6.965  1.0264 -0.2090  0.6518
  154MOL0     C20712   6.472  10.770   7.093 -0.3228  0.7994  0.2962
  154MOL0     O20713   6.467  10.905   7.129 -0.8953  0.3003  0.6596
  154MOL0     C20714   6.386  11.004   7.058 -1.0794 -0.6838  0.1558
  154MOL0     C20715   6.248  10.977   7.112  0.6317  0.7326  0.2718
  154MOL0     C20716   6.233  10.968   7.260  0.1085 -0.2758 -0.3292
  154MOL0     C20717   6.087  10.958   7.310  0.3799  1.7416 -0.3292
  154MOL0     C20718   5.996  11.074   7.301 -0.3095  0.5850 -0.5048
  154MOL0     C20719   5.915  11.166   7.316 -0.5211  0.3391  1.5489
  154MOL0     C20720   6.515  10.686   7.196  0.3416 -0.1443  0.8700
  154MOL0     C20721   6.509  10.551   7.182 -0.5211 -0.1021  0.4605
  154MOL0     C20722   6.516  10.474   7.312 -0.5302 -0.3893 -0.6082
  154MOL0     H20723   6.567  10.144   6.769  2.6441 -1.9837 -0.7306
  154MOL0     H20724   6.582   9.892   6.784  0.8911 -0.5672  0.3467
  154MOL0     H20725   6.527   9.681   6.787  1.6853 -1.3877 -0.1812
  154MOL0     H20726   6.609   9.673   6.941  0.7977 -1.1483  0.0334
  154MOL0     H20727   6.359   9.492   6.839 -1.8317  0.0508  3.5706
  154MOL0     H20728   6.399   9.491   6.994 -0.9743 -2.0386 -1.3850
  154MOL0     H20729   6.633   9.408   6.927 -1.5785 -0.5757  2.4024
  154MOL0     H20730   6.575   9.401   6.762  0.7761 -3.2727 -0.3976
  154MOL0     H20731   6.416   9.242   6.975 -2.6569 -0.9275 -1.8630
  154MOL0     H20732   6.419   9.205   6.803  0.0899 -0.5002 -0.5986
  154MOL0     H20733   6.663   9.196   6.975  2.1637 -0.4941 -2.3523
  154MOL0     H20734   6.541   9.056   6.965  1.2128 -1.1427 -2.4730
  154MOL0     H20735   6.593   9.050   6.720  3.7461 -2.7165 -1.5167
  154MOL0     H20736   6.685   9.191   6.729 -2.8190  0.7673 -0.2204
  154MOL0     H20737   6.757   8.937   6.889  1.0114 -1.1959 -0.8894
  154MOL0     H20738   6.858   9.082   6.853  0.1809  0.1236 -1.0228
  154MOL0     H20739   6.836   9.006   6.614 -3.9745 -0.3927  0.2243
  154MOL0     H20740   6.943   8.912   6.719  0.3981 -0.2756 -1.8051
  154MOL0     H20741   6.676   8.851   6.449  3.0044  1.1837  0.6904
  154MOL0     H20742   6.531   8.510   6.508 -0.5391  2.4402  2.3576
  154MOL0     H20743   6.533   8.619   6.375 -1.1695 -0.3096 -1.6122
  154MOL0     H20744   6.628   8.433   6.290  0.4851  1.2542 -1.1470
  154MOL0     H20745   6.766   8.533   6.316 -0.3864  0.7241  0.5181
  154MOL0     H20746   6.696   8.322   6.523 -0.0812  0.4949 -0.1064
  154MOL0     H20747   6.855   8.409   6.501  1.6068  1.1471 -1.6637
  154MOL0     H20748   6.851   8.164   6.437  2.9692  2.0587 -0.7101
  154MOL0     H20749   6.868   8.255   6.286 -1.1116  1.3531 -0.4983
  154MOL0     H20750   6.845   8.012   6.197  1.0584  1.6323 -0.8589
  154MOL0     H20751   6.818   7.918   5.962  0.1142 -1.1683  1.2989
  154MOL0     H20752   6.749   7.719   5.640 -0.0816 -0.5106  0.0778
  154MOL0     H20753   6.719   7.638   5.415  3.5406  1.5796 -0.1787
  154MOL0     H20754   6.606   7.589   5.197  0.6423  0.3151  3.6654
  154MOL0     H20755   6.493   7.699   5.258 -0.9667 -1.4073 -0.9431
  154MOL0     H20756   6.577   7.673   4.957 -2.2454  3.0001 -1.2938
  154MOL0     H20757   6.441   7.599   5.049  0.9701  0.4041  1.6189
  154MOL0     H20758   6.407   7.872   5.081 -0.2053  2.0481 -0.4740
  154MOL0     H20759   6.509   7.890   4.947 -0.8094  0.2134 -0.4124
  154MOL0     H20760   6.245   7.742   5.000  0.4205  2.3433  0.0033
  154MOL0     H20761   6.328   7.713   4.845  0.3225 -3.0970  1.5208
  154MOL0     H20762   6.329   8.002   4.900  2.8839 -0.9249 -2.5660
  154MOL0     H20763   6.158   7.928   4.888 -1.1008 -1.6262 -3.4570
  154MOL0     H20764   6.391   7.882   4.689 -0.7174  0.1649 -1.1741
  154MOL0     H20765   6.214   7.851   4.662 -1.5032  0.9891  1.1007
  154MOL0     H20766   6.172   8.095   4.642 -0.6406  1.0099 -3.0996
  154MOL0     H20767   6.270   8.020   4.515  0.0327  1.4182 -0.8371
  154MOL0     H20768   6.363   8.247   4.608  2.7925  1.2814  1.7420
  154MOL0     H20769   6.369   8.166   4.762 -4.8680  0.5076  0.8760
  154MOL0     H20770   6.677   8.039   5.268  2.1231 -1.7482 -0.9407
  154MOL0     H20771   6.693   8.120   5.490 -0.5612 -0.3707  0.5177
  154MOL0     H20772   6.489   8.185   5.921 -2.1009  0.7220  2.3804
  154MOL0     H20773   6.485   8.236   6.142 -1.9546 -2.1367 -3.4075
  154MOL0     H20774   6.299   9.903   7.116  0.6164 -0.7977  0.1777
  154MOL0     H20775   6.303  10.143   7.114 -2.3830 -1.8522 -0.8404
  154MOL0     H20776   6.463  10.544   6.843  1.2486  0.4809  0.2895
  154MOL0     H20777   6.427  10.779   6.883  1.1889  0.7701  1.3257
  154MOL0     H20778   6.401  10.993   6.950  1.9681  2.6087  0.0732
  154MOL0     H20779   6.410  11.109   7.076  0.9562 -1.4666  2.5384
  154MOL0     H20780   6.212  10.887   7.063 -0.9424  1.5333 -0.1097
  154MOL0     H20781   6.176  11.049   7.073 -0.3933 -0.4841 -0.1362
  154MOL0     H20782   6.282  11.059   7.296 -2.0327  0.5168  0.7862
  154MOL0     H20783   6.283  10.878   7.297 -3.7544 -1.1528  3.5291
  154MOL0     H20784   6.036  10.880   7.254 -2.4674  0.7600  3.2573
  154MOL0     H20785   6.085  10.923   7.413  2.1956  0.4556 -0.6839
  154MOL0     H20786   5.857  11.255   7.325  0.6029  1.6480 -2.2230
  154MOL0     H20787   6.523  10.727   7.296  2.5815 -0.8058  1.0296
  154MOL0     H20788   6.606  10.506   7.365  0.0379 -3.5018  0.5087
  154MOL0     H20789   6.424  10.483   7.371  0.6676 -1.6550  1.5946
  154MOL0     H20790   6.518  10.366   7.291  1.8445 -0.6685  0.7147
  155MOL0     O20791   8.908   6.317   6.837 -0.5205  0.1257  0.1413
  155MOL0     C20792   8.881   6.435   6.817  0.5779 -0.9072 -0.1927
  155MOL0     O20793   8.810   6.478   6.708  0.7858 -0.1333 -0.2035
  155MOL0     C20794   8.722   6.394   6.641 -0.0758  0.4881 -0.5690
  155MOL0     C20795   8.608   6.338   6.697  0.7190  0.0953 -0.4345
  155MOL0     C20796   8.552   6.235   6.628 -0.5585 -0.4911  0.8357
  155MOL0     C20797   8.589   6.191   6.499  0.0471 -0.7521  0.0944
  155MOL0     O20798   8.515   6.097   6.433  0.1948 -0.2696 -0.1651
  155MOL0     C20799   8.376   6.106   6.439 -0.2599 -0.1435 -0.2478
  155MOL0     C20800   8.341   6.020   6.316 -0.7280 -0.5652  0.6917
  155MOL0     C20801   8.350   6.082   6.170  0.0144 -0.3642 -0.7431
  155MOL0     C20802   8.480   6.135   6.117 -1.1453 -0.3645  0.6175
  155MOL0     C20803   8.478   6.169   5.970 -0.4208 -0.2199  0.8545
  155MOL0     C20804   8.475   6.044   5.870 -0.2040  0.7678 -0.8505
  155MOL0     C20805   8.479   6.094   5.723 -0.9014 -0.5265  0.2370
  155MOL0     C20806   8.336   6.073   5.651  0.0037 -0.1378 -0.4389
  155MOL0     N20807   8.226   6.145   5.711 -0.7162 -0.7955  0.4262
  155MOL0     C20808   8.145   6.088   5.803  0.0893  0.7183  0.6752
  155MOL0     C20809   8.037   6.165   5.819 -0.6002 -0.4462 -0.1206
  155MOL0     C20810   7.929   6.153   5.926 -0.7861  0.6259  0.1397
  155MOL0     C20811   7.918   6.273   6.024  0.6170 -0.8068  0.7221
  155MOL0     C20812   8.048   6.312   6.088 -0.1152  1.2811 -1.1152
  155MOL0     C20813   8.028   6.457   6.152 -0.0152  0.6029 -0.0536
  155MOL0     O20814   8.111   6.553   6.086 -0.0214  0.1497 -0.4140
  155MOL0     C20815   8.247   6.555   6.106  0.3313  0.8486 -0.1347
  155MOL0     C20816   8.321   6.573   5.993  0.5159  0.1306  0.0547
  155MOL0     C20817   8.453   6.564   6.001 -0.2673  0.1636  1.2357
  155MOL0     C20818   8.526   6.520   6.105  0.0508  0.4957  0.2567
  155MOL0     C20819   8.667   6.510   6.094 -0.8170  0.6956 -0.7077
  155MOL0     O20820   8.743   6.550   6.210 -0.7971 -0.3547  0.6152
  155MOL0     C20821   8.880   6.554   6.195  0.4505 -0.3876  0.3631
  155MOL0     C20822   8.963   6.468   6.121  0.0463 -0.3872  1.1127
  155MOL0     C20823   9.098   6.486   6.108  0.1338 -0.0001  0.1937
  155MOL0     C20824   9.163   6.595   6.163 -0.7205  0.1827 -0.4091
  155MOL0     O20825   9.302   6.623   6.161  0.3796 -0.1092 -0.3155
  155MOL0     C20826   9.393   6.530   6.115  0.5962 -0.5708 -0.1862
  155MOL0     C20827   9.511   6.511   6.215 -0.3748 -0.0703  0.4421
  155MOL0     C20828   9.609   6.402   6.151 -0.2833 -0.8273  0.2939
  155MOL0     C20829   9.743   6.373   6.235 -0.5337  0.5954 -0.1573
  155MOL0     C20830   9.736   6.278   6.359  0.5132  0.3440 -0.2854
  155MOL0     C20831   9.695   6.355   6.494 -0.4622 -0.3479  0.2324
  155MOL0     C20832   9.802   6.462   6.541 -0.1400 -0.6688 -0.5872
  155MOL0     C20833   9.946   6.419   6.560 -0.5321 -0.0386 -0.4812
  155MOL0    Cl20834   9.971   6.324   6.710 -0.4603  0.6456  0.0170
  155MOL0     C20835   9.083   6.688   6.230 -0.1780  1.2672  0.5334
  155MOL0     C20836   8.945   6.664   6.256  0.3130 -0.4361 -0.4028
  155MOL0     O20837   8.719   6.486   5.985 -0.2270  0.7260 -0.3682
  155MOL0     C20838   8.458   6.495   6.223 -0.0998 -0.8474  0.4739
  155MOL0     C20839   8.313   6.519   6.223  0.5852  0.8474 -0.0058
  155MOL0     N20840   8.056   6.275   5.738 -0.6041  0.1957 -0.2919
  155MOL0     N20841   8.164   6.260   5.667  0.1361 -0.3168 -0.1567
  155MOL0     C20842   8.687   6.252   6.438 -0.0896  0.7728 -0.6874
  155MOL0     C20843   8.760   6.349   6.511 -0.0235  0.8932  0.4937
  155MOL0     C20844   8.954   6.537   6.911 -0.2267  1.3160 -0.8857
  155MOL0     C20845   9.044   6.490   7.003  0.8994  0.5449  0.5385
  155MOL0     C20846   9.115   6.566   7.092 -0.8032 -0.3656 -0.9069
  155MOL0     C20847   9.097   6.706   7.096 -1.1131 -0.5994 -0.8690
  155MOL0     O20848   9.168   6.815   7.156  0.4379  0.3335 -0.5729
  155MOL0     C20849   9.257   6.777   7.259 -0.5134  1.2164 -0.0141
  155MOL0     C20850   9.331   6.895   7.319 -0.0846  0.6267 -0.1489
  155MOL0     C20851   9.450   6.949   7.238  0.7372  0.2564 -0.5883
  155MOL0     C20852   9.407   7.016   7.104  1.1577  0.0088 -0.2235
  155MOL0     C20853   9.509   7.056   7.012  0.1084 -0.1707  0.3232
  155MOL0     C20854   9.589   7.086   6.918  1.4917 -0.5360 -0.0223
  155MOL0     C20855   9.011   6.758   7.005 -0.2492  0.6554  0.3510
  155MOL0     C20856   8.933   6.682   6.911 -1.3487  0.8358  0.7202
  155MOL0     C20857   8.843   6.752   6.804 -0.3759  0.3282 -0.6542
  155MOL0     H20858   8.586   6.372   6.797  0.0515  0.0436 -0.5558
  155MOL0     H20859   8.468   6.177   6.666 -1.7576 -1.8670 -3.3718
  155MOL0     H20860   8.326   6.068   6.528 -2.1099  0.0788 -1.1528
  155MOL0     H20861   8.338   6.209   6.437  0.0406  0.0900  2.2920
  155MOL0     H20862   8.237   5.987   6.315 -1.6209  1.6851 -3.6338
  155MOL0     H20863   8.401   5.929   6.305 -1.5753 -1.6703  4.0210
  155MOL0     H20864   8.278   6.164   6.157  1.0750  0.6499 -0.4779
  155MOL0     H20865   8.323   5.996   6.108  0.9163 -2.7333  1.9296
  155MOL0     H20866   8.508   6.227   6.169 -2.4891  1.0701 -1.0820
  155MOL0     H20867   8.556   6.059   6.136 -0.9923 -1.7028 -4.0395
  155MOL0     H20868   8.389   6.233   5.962 -0.9629 -0.7977  2.0166
  155MOL0     H20869   8.565   6.231   5.947 -0.5821  0.0518  0.9781
  155MOL0     H20870   8.560   5.982   5.898 -2.1884 -1.8194 -0.0805
  155MOL0     H20871   8.387   5.980   5.881 -0.4067  1.0721 -0.6691
  155MOL0     H20872   8.558   6.038   5.672  1.3505  2.0194  0.7133
  155MOL0     H20873   8.514   6.198   5.725  0.8552 -1.0783  1.8875
  155MOL0     H20874   8.339   6.104   5.546 -0.3043  1.0172 -0.1247
  155MOL0     H20875   8.319   5.965   5.652  2.3288 -0.5650 -1.4631
  155MOL0     H20876   8.163   5.991   5.848  1.4703  0.4741 -0.3324
  155MOL0     H20877   7.832   6.138   5.878 -0.4419 -2.2462  0.1422
  155MOL0     H20878   7.939   6.057   5.979 -0.7337  0.2199 -0.6015
  155MOL0     H20879   7.868   6.359   5.978 -0.0285 -1.9795 -0.8380
  155MOL0     H20880   7.846   6.236   6.098  1.3993  0.1349  2.0067
  155MOL0     H20881   8.128   6.312   6.014  0.1643 -0.5763 -0.8595
  155MOL0     H20882   8.070   6.248   6.174 -0.8012  1.9835 -0.3998
  155MOL0     H20883   8.051   6.460   6.259  0.0336 -0.7892 -0.0042
  155MOL0     H20884   7.922   6.482   6.143  0.0820  0.7669 -0.7511
  155MOL0     H20885   8.279   6.608   5.900  0.7419  0.6259  0.1357
  155MOL0     H20886   8.504   6.607   5.916 -0.3857  1.3165  1.7381
  155MOL0     H20887   8.921   6.377   6.079  0.3618 -1.0914  2.2969
  155MOL0     H20888   9.160   6.408   6.066 -0.8644 -0.0934 -1.1656
  155MOL0     H20889   9.352   6.439   6.071 -1.6361 -0.1537  0.8567
  155MOL0     H20890   9.431   6.582   6.027 -1.2242  1.0562 -0.0749
  155MOL0     H20891   9.566   6.603   6.233  0.0205 -0.2762  0.2901
  155MOL0     H20892   9.477   6.471   6.311  3.6457  0.3538  2.2225
  155MOL0     H20893   9.560   6.306   6.134 -0.0986 -0.7864 -0.5136
  155MOL0     H20894   9.631   6.453   6.056 -3.4205 -1.7262 -1.0338
  155MOL0     H20895   9.803   6.463   6.253 -1.5002  0.7053  3.0625
  155MOL0     H20896   9.806   6.315   6.167  1.7542  1.5818  0.9927
  155MOL0     H20897   9.825   6.215   6.366  0.1443 -0.3366 -1.4038
  155MOL0     H20898   9.664   6.199   6.336 -0.3261  1.9841 -4.0796
  155MOL0     H20899   9.592   6.387   6.482 -0.1063  0.3339 -1.1534
  155MOL0     H20900   9.682   6.288   6.580  0.4981  2.5229  2.8317
  155MOL0     H20901   9.768   6.498   6.638  1.4216  1.0898 -0.6184
  155MOL0     H20902   9.805   6.547   6.472  2.2625  0.0129  0.2427
  155MOL0     H20903   9.975   6.358   6.475 -3.0902  1.1737 -2.3608
  155MOL0     H20904  10.017   6.500   6.579  2.7574 -2.7674 -0.1817
  155MOL0     H20905   9.143   6.766   6.276 -1.1875  2.5161 -0.1867
  155MOL0     H20906   8.897   6.726   6.331 -2.4407  0.1904 -2.5205
  155MOL0     H20907   8.525   6.471   6.305  3.0511 -2.5058 -2.3010
  155MOL0     H20908   8.272   6.483   6.316  2.9027 -2.6810 -0.1610
  155MOL0     H20909   8.721   6.213   6.343  1.9722  2.4719 -0.7265
  155MOL0     H20910   8.851   6.379   6.460 -0.0765 -0.0198 -0.1764
  155MOL0     H20911   9.046   6.383   7.019  0.5263  1.0214  5.3047
  155MOL0     H20912   9.193   6.523   7.153 -0.3117 -1.0929 -2.0147
  155MOL0     H20913   9.338   6.713   7.222  0.3102  0.4771  2.8225
  155MOL0     H20914   9.205   6.718   7.335  0.2359  0.5112 -0.0332
  155MOL0     H20915   9.366   6.854   7.415  2.2603 -0.0072 -1.2105
  155MOL0     H20916   9.248   6.965   7.336 -1.2302 -0.6022 -0.4946
  155MOL0     H20917   9.523   6.871   7.216  1.0346  0.4468 -0.2748
  155MOL0     H20918   9.490   7.022   7.309 -1.1170  0.4571  0.3158
  155MOL0     H20919   9.349   6.938   7.053  0.9624 -1.6355  2.3209
  155MOL0     H20920   9.340   7.102   7.113 -0.7712 -1.1997 -2.0752
  155MOL0     H20921   9.636   7.110   6.825 -2.6406 -0.2430 -2.3033
  155MOL0     H20922   9.003   6.865   7.022  0.2385  0.6240  0.7968
  155MOL0     H20923   8.741   6.718   6.818  0.5840 -3.4042 -1.6572
  155MOL0     H20924   8.852   6.860   6.818 -0.2026 -0.1544  4.7530
  155MOL0     H20925   8.877   6.734   6.701 -1.8149 -1.3985 -0.8682
  156MOL0     O20926   7.093   5.112   0.155 -0.5497  0.2664 -0.1939
  156MOL0     C20927   7.068   5.069   0.044  0.5219 -0.1079  0.3010
  156MOL0     O20928   7.003   4.959   0.006  0.3246 -0.1470  0.0963
  156MOL0     C20929   6.985   4.850   0.085  0.2178 -0.2779  0.9608
  156MOL0     C20930   6.925   4.866   0.204  0.3092  0.3623  0.4600
  156MOL0     C20931   6.874   4.750   0.267  1.0699  0.4615 -0.1408
  156MOL0     C20932   6.886   4.623   0.213  1.1626 -0.0456 -0.1766
  156MOL0     O20933   6.844   4.514   0.284 -0.4315  0.0044  0.3334
  156MOL0     C20934   6.755   4.537   0.397 -0.5666  0.1302 -0.2328
  156MOL0     C20935   6.714   4.405   0.471  0.3403 -0.5658 -0.8075
  156MOL0     C20936   6.632   4.317   0.374  0.1407 -0.9814  0.4796
  156MOL0     C20937   6.647   4.177   0.419  1.1137 -0.2270 -0.3172
  156MOL0     C20938   6.558   4.095   0.332  0.2995  0.3963 -0.2355
  156MOL0     C20939   6.558   3.947   0.363 -0.4317  0.8394  0.0414
  156MOL0     C20940   6.462   3.857   0.278 -0.3135  0.1724  0.1749
  156MOL0     C20941   6.488   3.710   0.313 -0.2672  0.6017  0.1977
  156MOL0     N20942   6.605   3.651   0.246  0.5479 -0.2433  0.4390
  156MOL0     C20943   6.609   3.619   0.114  1.0627  0.1380 -0.1371
  156MOL0     C20944   6.723   3.548   0.100  0.1180 -0.0652  1.0126
  156MOL0     C20945   6.786   3.485  -0.027  0.6453  0.2359  0.3399
  156MOL0     C20946   6.824   3.598  -0.116  0.7176 -0.5502  0.3077
  156MOL0     C20947   6.883   3.722  -0.045 -0.0305 -0.4202  0.1112
  156MOL0     C20948   6.927   3.834  -0.152  0.5214 -0.4021 -0.3137
  156MOL0     O20949   6.953   3.958  -0.078  0.3397  0.9413 -0.4749
  156MOL0     C20950   6.850   4.044  -0.057 -0.4121 -0.6874 -0.5216
  156MOL0     C20951   6.719   4.028  -0.080  0.1759  0.1684  0.1669
  156MOL0     C20952   6.623   4.136  -0.061  0.6424 -0.3771  0.1457
  156MOL0     C20953   6.658   4.253   0.000 -0.4543  0.0318  0.5398
  156MOL0     C20954   6.565   4.358   0.034 -0.4298 -0.3214  0.3720
  156MOL0     O20955   6.612   4.483   0.055  0.6328  0.3459  0.0665
  156MOL0     C20956   6.539   4.588   0.109 -0.2723 -0.1215 -0.5330
  156MOL0     C20957   6.579   4.714   0.067 -0.3160  0.5150 -0.2227
  156MOL0     C20958   6.505   4.830   0.109  0.0343 -0.6615  0.5276
  156MOL0     C20959   6.411   4.819   0.209  0.1289  0.2105 -0.2704
  156MOL0     O20960   6.356   4.928   0.273 -0.1117 -0.8297  0.5335
  156MOL0     C20961   6.262   4.912   0.385 -0.5685  0.4121  0.1628
  156MOL0     C20962   6.205   5.048   0.405  0.3282 -0.4144 -0.1901
  156MOL0     C20963   6.076   5.036   0.475 -0.4920 -0.4761  0.4788
  156MOL0     C20964   6.002   5.170   0.465  0.3246 -0.2167 -0.0874
  156MOL0     C20965   5.914   5.206   0.584  0.7299 -0.0034  1.0742
  156MOL0     C20966   5.857   5.344   0.575  0.1706  0.5697 -0.4144
  156MOL0     C20967   5.776   5.377   0.448 -0.0310  0.1687 -0.1729
  156MOL0     C20968   5.687   5.500   0.476  0.3724 -0.6252 -0.6830
  156MOL0    Cl20969   5.784   5.635   0.555  0.4941 -0.3844  0.2986
  156MOL0     C20970   6.384   4.677   0.265  0.2506 -0.7168  0.2898
  156MOL0     C20971   6.442   4.571   0.207 -0.2613 -0.0816 -0.3797
  156MOL0     O20972   6.445   4.334   0.013 -0.2352  0.1935  0.1136
  156MOL0     C20973   6.794   4.268   0.031  0.2739  0.8341 -0.5181
  156MOL0     C20974   6.884   4.167   0.006  0.1462  0.3713 -0.2512
  156MOL0     N20975   6.784   3.549   0.229  0.2038  0.0318 -0.1064
  156MOL0     N20976   6.712   3.606   0.312 -0.4851 -0.0315 -0.0668
  156MOL0     C20977   6.960   4.612   0.094 -0.4964 -1.1996 -0.5539
  156MOL0     C20978   7.004   4.724   0.026 -0.0701 -0.3379  0.2367
  156MOL0     C20979   7.123   5.147  -0.066  0.2871 -0.1834  0.3306
  156MOL0     C20980   7.190   5.072  -0.158  0.3225  0.1647  0.5426
  156MOL0     C20981   7.237   5.121  -0.279 -1.0285  0.6659  0.9859
  156MOL0     C20982   7.204   5.255  -0.311 -1.0615  0.2525  0.4555
  156MOL0     O20983   7.246   5.327  -0.421 -0.0963  0.0406  0.6087
  156MOL0     C20984   7.371   5.291  -0.485  0.0444 -0.6431  0.7659
  156MOL0     C20985   7.455   5.413  -0.533  0.0681 -0.7696 -0.5570
  156MOL0     C20986   7.375   5.524  -0.609  1.1997 -0.5574 -0.7084
  156MOL0     C20987   7.457   5.630  -0.688 -0.0109  0.8255 -0.2462
  156MOL0     C20988   7.367   5.699  -0.781  0.6232 -0.3768  0.6977
  156MOL0     C20989   7.295   5.751  -0.871  0.3370  0.3265  0.0048
  156MOL0     C20990   7.126   5.330  -0.227  0.4714  0.0035 -0.4771
  156MOL0     C20991   7.094   5.281  -0.102  0.8688  0.3229 -0.6755
  156MOL0     C20992   6.992   5.363  -0.018 -0.5843  0.0979  0.3229
  156MOL0     H20993   6.899   4.965   0.240 -2.4007  0.5732 -1.7110
  156MOL0     H20994   6.826   4.767   0.362  0.2841 -0.8433 -0.2762
  156MOL0     H20995   6.810   4.596   0.472  1.5625  1.2070 -2.4822
  156MOL0     H20996   6.666   4.594   0.368 -0.0991  1.8865  1.4914
  156MOL0     H20997   6.650   4.430   0.555 -0.0185 -1.4021 -0.8169
  156MOL0     H20998   6.796   4.339   0.500  0.5367 -0.9224 -2.0849
  156MOL0     H20999   6.676   4.323   0.274  0.4432  2.4480  0.6989
  156MOL0     H21000   6.527   4.348   0.371  0.8718  1.6694 -2.0068
  156MOL0     H21001   6.751   4.143   0.408  0.9467 -0.6993 -0.4377
  156MOL0     H21002   6.609   4.175   0.522  1.9828  0.8909  0.0562
  156MOL0     H21003   6.453   4.128   0.336 -0.1467 -0.7879 -1.4073
  156MOL0     H21004   6.594   4.100   0.229  1.0419 -0.7992 -0.0528
  156MOL0     H21005   6.663   3.915   0.358 -0.4564  0.6296  0.7062
  156MOL0     H21006   6.541   3.942   0.471  3.2262  1.0070  0.7594
  156MOL0     H21007   6.466   3.888   0.173 -0.5709  1.4877  0.5337
  156MOL0     H21008   6.361   3.874   0.316 -0.9180 -2.0536 -0.3475
  156MOL0     H21009   6.506   3.703   0.421 -0.5946  4.9785  0.7130
  156MOL0     H21010   6.400   3.650   0.291  0.4326  0.2904 -1.9815
  156MOL0     H21011   6.533   3.652   0.043  0.1244 -0.3261  0.6207
  156MOL0     H21012   6.878   3.430  -0.006  0.3237 -0.7235 -0.6871
  156MOL0     H21013   6.712   3.417  -0.069 -0.4716  2.3229 -1.2641
  156MOL0     H21014   6.899   3.562  -0.187  0.7467  0.7927 -0.3713
  156MOL0     H21015   6.734   3.622  -0.173  0.4284 -0.5391  0.7681
  156MOL0     H21016   6.977   3.706   0.008  0.4687  3.2326  0.5990
  156MOL0     H21017   6.810   3.772   0.020  0.7248 -0.6989  1.1998
  156MOL0     H21018   6.864   3.858  -0.238  4.7729 -3.5569 -4.8531
  156MOL0     H21019   7.020   3.800  -0.197 -0.2374 -2.8258 -0.2506
  156MOL0     H21020   6.689   3.942  -0.138 -3.5907  1.4619 -0.0815
  156MOL0     H21021   6.519   4.118  -0.084  1.0467 -2.9331  0.0850
  156MOL0     H21022   6.654   4.730  -0.010 -0.5674  0.3791 -0.4968
  156MOL0     H21023   6.536   4.928   0.075 -1.3272  0.1602  1.5548
  156MOL0     H21024   6.181   4.846   0.354  0.1044 -0.4252  0.1416
  156MOL0     H21025   6.304   4.862   0.473 -0.2115  1.1656  0.4229
  156MOL0     H21026   6.275   5.117   0.453  1.3980 -1.4753 -0.1855
  156MOL0     H21027   6.198   5.098   0.308  1.5778  1.9638  0.8434
  156MOL0     H21028   6.009   4.972   0.417  1.3441 -0.6508 -1.5548
  156MOL0     H21029   6.092   5.002   0.578  0.7400 -0.2790  0.3687
  156MOL0     H21030   5.947   5.167   0.370  1.9893 -0.1234 -1.1028
  156MOL0     H21031   6.077   5.249   0.450  0.0149  0.3255  1.1169
  156MOL0     H21032   5.962   5.196   0.682 -1.5274 -1.3194  2.1357
  156MOL0     H21033   5.828   5.138   0.579  1.9172 -1.6128 -4.3245
  156MOL0     H21034   5.787   5.351   0.659  0.7255  2.7412 -0.0599
  156MOL0     H21035   5.933   5.419   0.598  0.0487  1.0934 -1.6431
  156MOL0     H21036   5.730   5.288   0.404  1.1318  0.5813 -2.4302
  156MOL0     H21037   5.856   5.397   0.375 -2.1260  0.5376 -2.5082
  156MOL0     H21038   5.649   5.540   0.382 -1.3827  1.3009  0.7262
  156MOL0     H21039   5.598   5.462   0.528  1.1545 -1.1523  0.3145
  156MOL0     H21040   6.308   4.676   0.342  1.1974  0.4763  1.2848
  156MOL0     H21041   6.407   4.484   0.260  2.9747 -0.5211  1.2906
  156MOL0     H21042   6.825   4.363   0.072  0.4514  0.3076  0.6235
  156MOL0     H21043   6.988   4.172   0.036  0.6737  3.2855 -2.1836
  156MOL0     H21044   6.992   4.518   0.049  2.3813 -0.4625 -0.2094
  156MOL0     H21045   7.050   4.711  -0.071 -0.2618  1.4853 -0.1461
  156MOL0     H21046   7.202   4.969  -0.126 -0.6823  0.3725  1.6685
  156MOL0     H21047   7.295   5.049  -0.335  0.0959  0.8288  1.9059
  156MOL0     H21048   7.348   5.229  -0.572  2.0578  0.0141 -0.3038
  156MOL0     H21049   7.433   5.230  -0.419  0.6622 -1.0740 -0.1869
  156MOL0     H21050   7.545   5.383  -0.588 -0.6585  2.4125 -3.8491
  156MOL0     H21051   7.489   5.463  -0.442  1.5688 -0.0507 -1.4644
  156MOL0     H21052   7.299   5.575  -0.548  1.3351  0.9011 -1.7091
  156MOL0     H21053   7.318   5.463  -0.679 -1.9416 -0.2441  1.3328
  156MOL0     H21054   7.510   5.692  -0.615  0.8380 -1.1592  0.9310
  156MOL0     H21055   7.536   5.585  -0.750  0.6743  0.0199  1.1476
  156MOL0     H21056   7.234   5.793  -0.949 -0.6195 -0.2541  0.4236
  156MOL0     H21057   7.101   5.429  -0.264  0.0580  0.5311  1.1445
  156MOL0     H21058   6.985   5.471  -0.039 -1.5051  0.7788  3.6124
  156MOL0     H21059   6.894   5.326  -0.049 -1.7545  2.7841  0.4687
  156MOL0     H21060   7.005   5.342   0.089 -0.3339 -2.3690 -0.1394
  157MOL0     O21061   5.001   0.864   4.315 -0.1195 -0.5939  0.8190
  157MOL0     C21062   5.074   0.949   4.259  0.4146 -0.3016  0.0355
  157MOL0     O21063   5.163   0.914   4.164 -0.3813  0.5361  0.3028
  157MOL0     C21064   5.202   0.783   4.165  0.1056  0.3644  0.1107
  157MOL0     C21065   5.129   0.695   4.093 -0.6440  0.0658 -0.2768
  157MOL0     C21066   5.165   0.554   4.085  0.0498 -0.2702 -0.5778
  157MOL0     C21067   5.278   0.515   4.134 -0.0874  0.4712 -0.4208
  157MOL0     O21068   5.326   0.383   4.117  0.8471  0.3572 -0.2934
  157MOL0     C21069   5.261   0.298   4.018  0.1754 -0.6916  0.6404
  157MOL0     C21070   5.312   0.332   3.873 -0.9478  0.2328 -0.2577
  157MOL0     C21071   5.263   0.463   3.812 -0.4246  0.1127 -0.1007
  157MOL0     C21072   5.276   0.464   3.661  1.0070 -0.2103  0.4409
  157MOL0     C21073   5.152   0.403   3.599  0.7719  0.0519 -0.7035
  157MOL0     C21074   5.169   0.356   3.462  0.3524  0.7442  0.7299
  157MOL0     C21075   5.205   0.457   3.354 -0.7911 -0.4409 -0.3203
  157MOL0     C21076   5.105   0.563   3.341  0.4295 -0.1433  0.1271
  157MOL0     N21077   5.151   0.671   3.254  0.1743  0.2217 -0.4564
  157MOL0     C21078   5.120   0.693   3.124 -0.7335  0.5758  0.4037
  157MOL0     C21079   5.199   0.790   3.086 -0.5039  0.8497 -0.5252
  157MOL0     C21080   5.199   0.858   2.949 -0.3370  0.1692 -0.7160
  157MOL0     C21081   5.092   0.970   2.952 -0.6178  0.3981 -0.0177
  157MOL0     C21082   5.135   1.101   3.014 -0.0942  0.1429 -0.5290
  157MOL0     C21083   5.015   1.191   3.022  0.7000  0.1982  0.1215
  157MOL0     O21084   4.975   1.237   2.890 -0.6914  0.0519 -0.1120
  157MOL0     C21085   4.877   1.321   2.882 -0.0889 -0.1096 -0.9491
  157MOL0     C21086   4.843   1.416   2.986  0.3307  0.7578  0.7558
  157MOL0     C21087   4.748   1.515   2.978  0.3163 -1.1509 -1.0022
  157MOL0     C21088   4.660   1.516   2.868  0.2459 -0.2873 -0.1405
  157MOL0     C21089   4.535   1.595   2.854 -0.0493 -0.0517  0.8575
  157MOL0     O21090   4.535   1.717   2.916 -0.2737  0.4724 -0.2716
  157MOL0     C21091   4.423   1.790   2.907  1.0863 -0.4636  0.1060
  157MOL0     C21092   4.403   1.852   2.785 -0.0810 -1.3405 -0.2188
  157MOL0     C21093   4.305   1.950   2.778  0.1520  0.9241 -0.0071
  157MOL0     C21094   4.215   1.984   2.885  0.8962 -0.2856 -0.2759
  157MOL0     O21095   4.109   2.062   2.872  1.2708 -0.4958 -0.1394
  157MOL0     C21096   4.055   2.065   2.739 -0.0107  0.9307  0.1566
  157MOL0     C21097   4.096   2.207   2.686  0.6047 -0.5303 -0.5717
  157MOL0     C21098   4.059   2.217   2.544  0.1068 -0.0650  0.7256
  157MOL0     C21099   4.083   2.351   2.463 -0.4550  0.0859  0.4759
  157MOL0     C21100   4.073   2.332   2.314  0.0142 -0.6564 -0.6418
  157MOL0     C21101   4.040   2.469   2.249 -0.1067 -0.3692  0.2461
  157MOL0     C21102   4.043   2.463   2.097  0.9872 -0.8771  0.2014
  157MOL0     C21103   4.024   2.595   2.030  0.7710 -0.8021  0.2085
  157MOL0    Cl21104   4.088   2.595   1.863  0.0233 -0.5576 -0.2261
  157MOL0     C21105   4.241   1.928   3.005  0.5601  0.8944  0.4083
  157MOL0     C21106   4.336   1.827   3.010 -0.7513 -0.5228 -0.4906
  157MOL0     O21107   4.442   1.539   2.804  0.2786  1.0217  0.0984
  157MOL0     C21108   4.693   1.427   2.760 -0.1362  0.4711 -0.5077
  157MOL0     C21109   4.810   1.347   2.768  0.4630 -0.1289  0.9364
  157MOL0     N21110   5.270   0.836   3.198  0.9827 -0.6519 -0.2920
  157MOL0     N21111   5.236   0.766   3.304  1.0772  0.2415 -0.1819
  157MOL0     C21112   5.355   0.597   4.203  0.3438 -0.6529 -0.3761
  157MOL0     C21113   5.323   0.734   4.216  0.0896  0.3059  0.4652
  157MOL0     C21114   5.047   1.092   4.305  0.0860 -0.2951  0.0063
  157MOL0     C21115   4.984   1.173   4.213  0.0905 -0.8678 -0.0079
  157MOL0     C21116   4.909   1.286   4.239 -0.0185 -0.5594  0.2808
  157MOL0     C21117   4.909   1.331   4.369  0.4731 -0.0675  1.2565
  157MOL0     O21118   4.840   1.445   4.411 -0.3227  0.2038  0.2801
  157MOL0     C21119   4.918   1.567   4.405  0.1801 -0.5446 -0.1408
  157MOL0     C21120   4.844   1.684   4.468 -0.0963  1.0381  0.6621
  157MOL0     C21121   4.836   1.680   4.620 -0.0649  0.0765  0.4005
  157MOL0     C21122   4.734   1.776   4.671  0.3119  0.2193 -0.1440
  157MOL0     C21123   4.774   1.919   4.653 -0.3850 -0.4798 -0.7279
  157MOL0     C21124   4.821   2.029   4.645 -0.2988  0.6792  0.2600
  157MOL0     C21125   4.988   1.262   4.467  0.3092  0.3428  0.7273
  157MOL0     C21126   5.050   1.135   4.440 -0.2086  0.7263  0.5349
  157MOL0     C21127   5.123   1.069   4.549 -0.0181  0.6264 -0.5050
  157MOL0     H21128   5.034   0.724   4.049 -1.6541  0.4914  2.0237
  157MOL0     H21129   5.096   0.499   4.021 -0.5772  1.0821 -1.1289
  157MOL0     H21130   5.308   0.201   4.034  1.4575 -0.3538 -0.9092
  157MOL0     H21131   5.152   0.287   4.021  0.1760 -0.9424 -0.0366
  157MOL0     H21132   5.273   0.253   3.809  1.6720 -3.1771  2.0014
  157MOL0     H21133   5.421   0.326   3.868 -0.5120  3.1130  2.2652
  157MOL0     H21134   5.325   0.542   3.855 -4.1287  1.5024  3.3599
  157MOL0     H21135   5.162   0.489   3.846  0.3226  0.7337  1.7727
  157MOL0     H21136   5.273   0.569   3.630 -2.0444 -0.8687 -2.0101
  157MOL0     H21137   5.358   0.406   3.618  1.3784  1.1254 -0.7422
  157MOL0     H21138   5.134   0.311   3.654  0.4472 -0.2280 -1.2675
  157MOL0     H21139   5.062   0.464   3.613  0.7463 -0.2618  0.6272
  157MOL0     H21140   5.243   0.276   3.463  0.4831  0.7682 -1.4093
  157MOL0     H21141   5.080   0.308   3.420  1.2004 -1.0523  0.8831
  157MOL0     H21142   5.215   0.398   3.263 -0.0589 -2.2699  0.8804
  157MOL0     H21143   5.295   0.511   3.383 -1.3461  0.2827  0.0958
  157MOL0     H21144   5.017   0.517   3.296  0.4887 -0.3946  0.2677
  157MOL0     H21145   5.081   0.597   3.442  0.5749 -0.1773  0.1730
  157MOL0     H21146   5.053   0.640   3.058  0.3100  0.0436 -0.2561
  157MOL0     H21147   5.304   0.882   2.929  1.0586 -2.4443  2.4713
  157MOL0     H21148   5.168   0.787   2.872 -0.9947  0.4673 -0.7289
  157MOL0     H21149   5.084   0.993   2.845  1.5325  0.6247 -0.1699
  157MOL0     H21150   5.005   0.929   3.003 -0.3318  0.1581  0.2785
  157MOL0     H21151   5.220   1.153   2.970  2.8355 -1.8675  2.3014
  157MOL0     H21152   5.168   1.071   3.114  0.8741 -1.6357 -1.3396
  157MOL0     H21153   5.045   1.272   3.089  0.2408 -0.0048  0.5840
  157MOL0     H21154   4.935   1.141   3.078  0.7251  3.0220  2.9622
  157MOL0     H21155   4.899   1.424   3.078  0.0022  1.3098  0.9130
  157MOL0     H21156   4.728   1.574   3.068  0.0194 -0.6382 -1.3968
  157MOL0     H21157   4.452   1.820   2.693 -0.2892  0.9108 -1.1707
  157MOL0     H21158   4.289   1.990   2.678 -0.8805  0.7423  0.0813
  157MOL0     H21159   4.081   1.990   2.664  2.9988  2.5803 -0.6362
  157MOL0     H21160   3.946   2.063   2.743 -0.0698  0.1514 -1.1294
  157MOL0     H21161   4.036   2.283   2.737 -1.9759 -2.3649 -0.6725
  157MOL0     H21162   4.203   2.224   2.704 -0.1983  2.9661  2.1034
  157MOL0     H21163   4.111   2.140   2.487  0.0105  0.5324 -0.1868
  157MOL0     H21164   3.952   2.195   2.533  0.2202 -1.3829  1.9878
  157MOL0     H21165   4.183   2.387   2.488 -0.5773 -1.7531  4.3593
  157MOL0     H21166   4.015   2.430   2.496  3.3602  3.5971  0.7151
  157MOL0     H21167   3.995   2.258   2.293 -0.5791 -0.0963 -0.4379
  157MOL0     H21168   4.173   2.298   2.283  0.3731 -1.5771  1.3741
  157MOL0     H21169   3.948   2.504   2.296 -0.6068  0.9793 -1.6170
  157MOL0     H21170   4.120   2.540   2.274 -0.2095 -0.0500 -0.3066
  157MOL0     H21171   3.958   2.398   2.072  1.7280 -1.9525  0.3825
  157MOL0     H21172   4.138   2.421   2.060  0.0411 -0.4739 -2.9583
  157MOL0     H21173   3.918   2.620   2.034  0.5249 -1.8198  0.3276
  157MOL0     H21174   4.076   2.668   2.092 -2.0151  0.5795  1.0841
  157MOL0     H21175   4.176   1.952   3.088 -2.4849  0.3848 -1.6733
  157MOL0     H21176   4.356   1.781   3.106  3.0290  0.2001 -0.7901
  157MOL0     H21177   4.637   1.458   2.672  0.2613  4.4954  0.4669
  157MOL0     H21178   4.838   1.289   2.681 -0.2748  2.7469 -1.3918
  157MOL0     H21179   5.452   0.554   4.223  1.7007  0.0240 -4.4519
  157MOL0     H21180   5.396   0.801   4.260  0.4305  1.0692 -1.1539
  157MOL0     H21181   4.987   1.137   4.110 -1.9287 -3.6456  0.8017
  157MOL0     H21182   4.866   1.346   4.160 -3.1123 -0.8044  1.6308
  157MOL0     H21183   4.929   1.596   4.300 -0.1459  1.7918  0.4051
  157MOL0     H21184   5.020   1.546   4.439 -0.5952 -0.9417  2.1344
  157MOL0     H21185   4.744   1.679   4.424  1.1454  1.6091 -2.4377
  157MOL0     H21186   4.903   1.774   4.448 -1.1913  1.8852  1.1471
  157MOL0     H21187   4.931   1.706   4.667 -0.1331  1.8076 -0.3441
  157MOL0     H21188   4.810   1.578   4.649 -1.7933  0.3083 -0.1839
  157MOL0     H21189   4.632   1.771   4.633  0.3189 -0.0943 -0.1258
  157MOL0     H21190   4.729   1.766   4.780 -0.1335  1.3073 -0.0541
  157MOL0     H21191   4.840   2.134   4.653 -0.0976  0.5600  1.5034
  157MOL0     H21192   4.995   1.297   4.569  0.9323  2.9746 -0.1380
  157MOL0     H21193   5.230   1.087   4.533  0.4629 -0.7045  0.9586
  157MOL0     H21194   5.097   1.126   4.638 -0.1505  0.6684 -0.5697
  157MOL0     H21195   5.095   0.963   4.550  0.5364  0.4819 -0.2185
  158MOL0     O21196   6.723   0.032   4.339 -0.2783 -0.1825  0.0349
  158MOL0     C21197   6.718   0.109   4.431  0.6801 -0.0088 -0.8543
  158MOL0     O21198   6.680   0.083   4.558 -0.0242 -0.1942 -0.5566
  158MOL0     C21199   6.624  -0.041   4.592 -0.3108 -0.4924  0.9922
  158MOL0     C21200   6.644  -0.103   4.718  0.3178 -0.6184 -0.0706
  158MOL0     C21201   6.585  -0.222   4.764  0.3468  0.9460  0.1271
  158MOL0     C21202   6.484  -0.281   4.676  0.9741 -0.2710 -0.6330
  158MOL0     O21203   6.428  -0.400   4.715  0.1130  0.2841 -0.0481
  158MOL0     C21204   6.419  -0.495   4.610  0.1034  0.4451  0.6733
  158MOL0     C21205   6.375  -0.627   4.660  0.4355 -1.3858  0.3706
  158MOL0     C21206   6.312  -0.715   4.545 -0.0797 -0.0283 -0.2367
  158MOL0     C21207   6.419  -0.783   4.467 -0.1990 -0.2645  0.2379
  158MOL0     C21208   6.364  -0.864   4.352 -0.1277 -0.2672 -0.7364
  158MOL0     C21209   6.478  -0.916   4.274 -0.0254 -0.4934  0.6596
  158MOL0     C21210   6.435  -0.982   4.137  0.4228 -0.2972 -0.0808
  158MOL0     C21211   6.566  -0.983   4.053  0.5181 -0.2946 -0.0340
  158MOL0     N21212   6.664  -1.076   4.095  0.0694 -0.1792 -0.2446
  158MOL0     C21213   6.764  -1.059   4.187  0.6558 -0.8343 -0.5452
  158MOL0     C21214   6.834  -1.176   4.194  0.1707 -0.7185  0.3961
  158MOL0     C21215   6.949  -1.196   4.291 -0.4201  0.6269 -0.2339
  158MOL0     C21216   6.897  -1.220   4.433  0.1776 -1.0880 -0.1078
  158MOL0     C21217   6.891  -1.365   4.488  0.2593  0.2629  0.8307
  158MOL0     C21218   6.828  -1.458   4.379  0.7090  0.2737  0.5776
  158MOL0     O21219   6.847  -1.589   4.430  0.4137 -0.0110  0.4085
  158MOL0     C21220   6.970  -1.661   4.440  1.0295 -0.3012 -1.1197
  158MOL0     C21221   7.082  -1.630   4.369  0.0271  0.2014 -0.5772
  158MOL0     C21222   7.200  -1.703   4.373  1.0727  0.4082  0.2332
  158MOL0     C21223   7.208  -1.824   4.450 -0.6086  0.0540  0.0129
  158MOL0     C21224   7.348  -1.881   4.461 -0.6405  0.0453  0.0167
  158MOL0     O21225   7.351  -1.994   4.537 -0.1554 -0.0060  0.2073
  158MOL0     C21226   7.473  -2.043   4.552  0.6226 -0.4186 -0.1629
  158MOL0     C21227   7.569  -1.965   4.623  0.3717  0.6403  0.3872
  158MOL0     C21228   7.699  -1.996   4.614  0.0568 -0.3157  0.4565
  158MOL0     C21229   7.738  -2.103   4.531 -0.5374 -0.5485  0.1968
  158MOL0     O21230   7.871  -2.132   4.498 -0.0911 -0.0277  0.0851
  158MOL0     C21231   7.971  -2.123   4.597  0.6794  0.5573 -0.2251
  158MOL0     C21232   8.097  -2.217   4.584 -0.4170 -0.3306  0.7081
  158MOL0     C21233   8.083  -2.362   4.639  0.3895 -0.5120 -0.0052
  158MOL0     C21234   8.019  -2.445   4.522  0.8300  0.0639 -0.1278
  158MOL0     C21235   7.971  -2.577   4.581  0.1980  0.2386 -0.0881
  158MOL0     C21236   7.948  -2.695   4.483  1.1274 -0.9844  0.1945
  158MOL0     C21237   7.895  -2.817   4.543  0.3613  0.1629  0.4954
  158MOL0     C21238   7.994  -2.891   4.635 -0.3416 -1.1739 -0.1904
  158MOL0    Cl21239   7.916  -3.048   4.671  0.3328  0.4910  0.2284
  158MOL0     C21240   7.648  -2.188   4.467  0.0740 -0.6870 -0.2600
  158MOL0     C21241   7.511  -2.154   4.470 -0.5027 -0.7091 -0.1973
  158MOL0     O21242   7.448  -1.819   4.425 -0.8335 -0.5118 -0.1463
  158MOL0     C21243   7.091  -1.860   4.530 -0.0577 -0.6392 -0.3876
  158MOL0     C21244   6.973  -1.775   4.523 -0.2177 -0.0013 -0.0047
  158MOL0     N21245   6.784  -1.255   4.090  1.0543  0.1356  0.2316
  158MOL0     N21246   6.685  -1.202   4.036  0.6022 -0.2314 -0.6256
  158MOL0     C21247   6.441  -0.208   4.565  0.0606  0.0946  0.4291
  158MOL0     C21248   6.514  -0.095   4.527 -0.5980 -0.8843  0.1164
  158MOL0     C21249   6.741   0.246   4.398  0.0312  0.9338 -0.6091
  158MOL0     C21250   6.664   0.344   4.462  0.6450  0.3379  0.1229
  158MOL0     C21251   6.671   0.479   4.425 -0.2662 -0.5013 -0.6351
  158MOL0     C21252   6.759   0.528   4.329  0.4826 -0.6940  0.0389
  158MOL0     O21253   6.756   0.668   4.301  0.0978  0.0598  0.3173
  158MOL0     C21254   6.849   0.715   4.201 -0.2290  0.2893 -0.0341
  158MOL0     C21255   6.883   0.859   4.232  0.0398  0.4098  0.7591
  158MOL0     C21256   6.936   0.889   4.377 -0.4753 -0.3698  1.4360
  158MOL0     C21257   6.962   1.032   4.405  0.1592  0.0155 -0.0223
  158MOL0     C21258   7.067   1.092   4.312 -0.4467 -0.7730  0.3724
  158MOL0     C21259   7.146   1.142   4.231 -0.5637 -0.0143  0.1652
  158MOL0     C21260   6.844   0.425   4.274 -0.7987 -0.0488  0.0353
  158MOL0     C21261   6.835   0.288   4.302  0.6706 -0.4079  0.1331
  158MOL0     C21262   6.911   0.196   4.214 -0.5197  0.0244 -0.1983
  158MOL0     H21263   6.712  -0.058   4.789  1.1941  1.3903 -2.0479
  158MOL0     H21264   6.617  -0.269   4.857  1.5366  3.0206  0.8249
  158MOL0     H21265   6.345  -0.460   4.537 -0.9854 -1.8745  0.5695
  158MOL0     H21266   6.520  -0.494   4.568  0.8621  3.5884  2.3161
  158MOL0     H21267   6.299  -0.601   4.734  1.2355  2.3161  0.1031
  158MOL0     H21268   6.451  -0.681   4.718  2.7929 -1.8616 -2.9012
  158MOL0     H21269   6.246  -0.658   4.480 -1.7642 -0.9945  0.5612
  158MOL0     H21270   6.249  -0.794   4.588 -2.1537  2.3510  1.4148
  158MOL0     H21271   6.488  -0.709   4.425  0.0097 -1.2387 -1.2364
  158MOL0     H21272   6.484  -0.850   4.524 -1.7259 -1.8185  0.2478
  158MOL0     H21273   6.295  -0.942   4.385  1.1443 -0.3647  1.9573
  158MOL0     H21274   6.309  -0.787   4.298  1.6545  2.8552  1.5807
  158MOL0     H21275   6.538  -0.827   4.248 -0.6913  0.0710  1.0196
  158MOL0     H21276   6.531  -0.986   4.339 -1.1348 -1.8142  0.1608
  158MOL0     H21277   6.356  -0.921   4.092 -2.0653 -2.1300  1.4950
  158MOL0     H21278   6.383  -1.078   4.149 -4.3840  2.0790  0.2876
  158MOL0     H21279   6.549  -1.005   3.947  1.2067  0.1236 -0.2411
  158MOL0     H21280   6.613  -0.884   4.055  0.8285 -0.4551  0.5967
  158MOL0     H21281   6.790  -0.968   4.240  0.6427 -0.5165 -1.0826
  158MOL0     H21282   7.020  -1.271   4.257 -0.9261  0.9744 -2.1702
  158MOL0     H21283   7.008  -1.103   4.289  1.5193 -0.5555 -0.7203
  158MOL0     H21284   6.957  -1.165   4.506 -2.9429  0.8247  1.2347
  158MOL0     H21285   6.802  -1.166   4.440  0.3562 -0.6760 -0.8054
  158MOL0     H21286   6.850  -1.380   4.588  2.0012  0.5935  1.6260
  158MOL0     H21287   6.989  -1.409   4.507 -0.1388 -0.7518  0.5966
  158MOL0     H21288   6.876  -1.456   4.281  0.3500  1.4540  0.4016
  158MOL0     H21289   6.725  -1.425   4.360  0.5960 -1.2078 -1.7499
  158MOL0     H21290   7.084  -1.547   4.299  2.1846  0.7504  0.0514
  158MOL0     H21291   7.285  -1.659   4.322 -1.1960  3.6180 -1.1433
  158MOL0     H21292   7.528  -1.881   4.678  1.8334  3.8921 -3.1085
  158MOL0     H21293   7.779  -1.948   4.669 -1.5474  0.7519  1.9564
  158MOL0     H21294   7.998  -2.017   4.593  0.7427  0.5648  0.2616
  158MOL0     H21295   7.920  -2.140   4.692 -3.1946  0.6235 -2.1017
  158MOL0     H21296   8.132  -2.214   4.480 -0.1249 -3.6337  0.6252
  158MOL0     H21297   8.174  -2.167   4.642 -2.2333  1.5665  1.6320
  158MOL0     H21298   8.186  -2.397   4.654  0.5299 -0.6454 -1.1710
  158MOL0     H21299   8.025  -2.366   4.731  3.2396 -3.3483  1.8855
  158MOL0     H21300   8.088  -2.452   4.437 -1.2524  1.0441 -1.9793
  158MOL0     H21301   7.937  -2.383   4.484  0.6304  0.1109  0.3738
  158MOL0     H21302   7.874  -2.548   4.621 -0.5383 -0.3741 -1.3443
  158MOL0     H21303   8.028  -2.618   4.665 -3.5158 -0.9546  2.0910
  158MOL0     H21304   7.888  -2.670   4.395  3.6816 -0.0054 -1.4139
  158MOL0     H21305   8.049  -2.717   4.446  0.4039 -1.8117 -1.3927
  158MOL0     H21306   7.878  -2.883   4.458  1.4778 -2.0394  1.8791
  158MOL0     H21307   7.806  -2.782   4.595 -0.4308  0.3005 -0.9123
  158MOL0     H21308   8.094  -2.891   4.592 -0.4737  1.2789 -0.6506
  158MOL0     H21309   7.997  -2.838   4.731 -0.0188 -2.8960  0.7928
  158MOL0     H21310   7.692  -2.280   4.429 -0.2617 -0.5113 -1.1062
  158MOL0     H21311   7.437  -2.218   4.424 -0.2108 -0.0573 -1.6379
  158MOL0     H21312   7.095  -1.943   4.600  1.7656  0.1982  0.5701
  158MOL0     H21313   6.887  -1.784   4.588  0.7265 -1.8069  1.0548
  158MOL0     H21314   6.359  -0.238   4.501 -1.3495  3.9049  0.2025
  158MOL0     H21315   6.482  -0.047   4.435 -2.7633 -2.7804 -0.1922
  158MOL0     H21316   6.583   0.321   4.531  0.3097  0.4933 -0.2129
  158MOL0     H21317   6.616   0.551   4.484 -2.9625 -2.7081 -0.2670
  158MOL0     H21318   6.802   0.706   4.102 -1.5376  0.4213  0.5485
  158MOL0     H21319   6.944   0.662   4.200 -0.9609 -1.1734  2.2236
  158MOL0     H21320   6.783   0.899   4.217  0.3306  0.0378 -3.1317
  158MOL0     H21321   6.954   0.898   4.158 -1.9390  0.6637 -1.1136
  158MOL0     H21322   7.027   0.830   4.390 -0.8871 -0.8442  2.2292
  158MOL0     H21323   6.857   0.850   4.442 -0.4104  0.3744  1.9712
  158MOL0     H21324   6.866   1.083   4.411  0.1290 -0.2016  2.1166
  158MOL0     H21325   7.011   1.031   4.503  0.4324 -1.3068 -0.1547
  158MOL0     H21326   7.201   1.186   4.149 -1.2168  0.9034  0.2118
  158MOL0     H21327   6.907   0.461   4.193 -2.5051  4.5267  0.4087
  158MOL0     H21328   6.970   0.125   4.272  2.1716  1.2296 -1.2558
  158MOL0     H21329   6.836   0.152   4.148 -0.8489  1.6933 -0.9956
  158MOL0     H21330   6.983   0.248   4.149  0.2089 -0.3367  0.3039
  159MOL0     O21331   4.058  11.237   0.452 -0.4393 -0.1794  0.0811
  159MOL0     C21332   4.015  11.259   0.564  0.5997 -0.0320 -0.1980
  159MOL0     O21333   3.895  11.325   0.600  0.0604 -0.0495  0.3796
  159MOL0     C21334   3.830  11.386   0.502  0.0850 -0.4405 -0.2856
  159MOL0     C21335   3.837  11.521   0.495 -0.5825 -0.7672  0.8768
  159MOL0     C21336   3.763  11.606   0.403  0.7039  0.2892 -0.1719
  159MOL0     C21337   3.671  11.538   0.322  1.3146 -0.4570  0.8881
  159MOL0     O21338   3.595  11.625   0.246  0.7014 -0.7035 -0.0852
  159MOL0     C21339   3.525  11.582   0.130 -0.2154 -0.4120  0.2110
  159MOL0     C21340   3.449  11.691   0.058  0.3741  0.2711 -0.2699
  159MOL0     C21341   3.409  11.661  -0.088 -0.8705  1.1596  0.6498
  159MOL0     C21342   3.519  11.724  -0.190  0.7583 -1.2835 -1.2087
  159MOL0     C21343   3.506  11.671  -0.328 -0.1902  0.5325  0.4759
  159MOL0     C21344   3.644  11.673  -0.399  0.1516 -0.4719 -0.0360
  159MOL0     C21345   3.691  11.824  -0.437 -0.6786  0.5404 -0.0405
  159MOL0     C21346   3.588  11.903  -0.518  0.5197  0.6115  0.3125
  159MOL0     N21347   3.526  11.830  -0.635 -0.2256  0.4919 -0.2667
  159MOL0     C21348   3.595  11.812  -0.748 -0.1922  0.4488 -0.1658
  159MOL0     C21349   3.521  11.718  -0.817 -0.1219  0.0894 -0.0999
  159MOL0     C21350   3.554  11.664  -0.951 -0.0384  0.0813 -1.5297
  159MOL0     C21351   3.460  11.565  -1.016 -0.7323  0.2649 -0.2218
  159MOL0     C21352   3.524  11.484  -1.128  0.5234  0.2345  0.8194
  159MOL0     C21353   3.611  11.570  -1.219 -0.3215  0.4599  0.5812
  159MOL0     O21354   3.520  11.644  -1.302 -0.2174  0.1125  0.1414
  159MOL0     C21355   3.570  11.684  -1.426 -0.1610  0.1108  0.1806
  159MOL0     C21356   3.470  11.694  -1.521 -0.0703 -0.8080 -1.1899
  159MOL0     C21357   3.499  11.755  -1.646 -0.8276 -0.2658  0.7284
  159MOL0     C21358   3.634  11.791  -1.680 -0.6136  0.0804 -0.1814
  159MOL0     C21359   3.667  11.846  -1.807  0.1509 -0.3610 -0.6246
  159MOL0     O21360   3.562  11.855  -1.899  0.1359  0.1995 -0.4051
  159MOL0     C21361   3.607  11.898  -2.020 -0.5144  0.5198  0.2231
  159MOL0     C21362   3.615  12.036  -2.041  0.1522  0.1350 -0.4354
  159MOL0     C21363   3.642  12.083  -2.163 -1.2427 -0.2507  0.2026
  159MOL0     C21364   3.669  11.991  -2.271 -0.2280  0.1536 -0.9601
  159MOL0     O21365   3.713  12.020  -2.396 -0.5018  0.1372  0.7045
  159MOL0     C21366   3.780  12.143  -2.411 -0.1672 -0.0363 -0.0152
  159MOL0     C21367   3.777  12.178  -2.563 -0.0267 -1.1223  0.5980
  159MOL0     C21368   3.865  12.075  -2.647 -0.7355  0.1264  0.5226
  159MOL0     C21369   4.021  12.102  -2.672  0.8911  0.3089  0.5458
  159MOL0     C21370   4.088  11.997  -2.767 -0.8482  0.1244  0.3065
  159MOL0     C21371   3.999  11.961  -2.886  0.4486  1.3005  0.2481
  159MOL0     C21372   4.090  11.871  -2.974 -0.6034  0.4000  0.2324
  159MOL0     C21373   4.004  11.790  -3.075  0.2289 -0.2116 -0.4101
  159MOL0    Cl21374   4.119  11.736  -3.205  0.0805 -0.0707 -0.2098
  159MOL0     C21375   3.657  11.857  -2.243  0.4414  0.2114 -0.1698
  159MOL0     C21376   3.629  11.800  -2.123 -0.1311  0.3383 -0.3843
  159MOL0     O21377   3.780  11.879  -1.816  0.1100 -0.4095  0.5183
  159MOL0     C21378   3.738  11.747  -1.591 -0.3303  0.1866 -0.4448
  159MOL0     C21379   3.707  11.700  -1.467  0.6732 -0.4643 -0.3319
  159MOL0     N21380   3.421  11.664  -0.739  0.1497  0.1140 -0.7654
  159MOL0     N21381   3.421  11.737  -0.629 -0.4688 -0.4032  0.3769
  159MOL0     C21382   3.663  11.401   0.323  0.7373  0.0389 -0.6215
  159MOL0     C21383   3.734  11.331   0.422 -0.2396 -1.0354 -0.3363
  159MOL0     C21384   4.085  11.181   0.666 -0.5900 -0.2115  1.4714
  159MOL0     C21385   4.223  11.181   0.666 -0.1401 -0.1273  0.2288
  159MOL0     C21386   4.283  11.104   0.762 -0.0479  0.3876  0.0437
  159MOL0     C21387   4.206  11.024   0.850  0.4615  0.4824 -1.0444
  159MOL0     O21388   4.258  10.937   0.944 -0.0053  0.2407 -0.3765
  159MOL0     C21389   4.353  10.842   0.888 -0.0724  0.2631 -0.3573
  159MOL0     C21390   4.427  10.758   0.997  0.0781 -0.0313 -0.2187
  159MOL0     C21391   4.328  10.727   1.107 -0.0644  1.3378  0.4976
  159MOL0     C21392   4.394  10.654   1.228  0.5042 -1.0512 -0.1509
  159MOL0     C21393   4.483  10.741   1.314  0.1214  0.6162 -0.2731
  159MOL0     C21394   4.537  10.838   1.349 -1.1571  0.4868 -0.0642
  159MOL0     C21395   4.071  11.036   0.850  0.4867  0.4811 -0.7822
  159MOL0     C21396   4.008  11.106   0.754  0.0009  1.0500  0.0876
  159MOL0     C21397   3.855  11.091   0.744 -0.5028 -0.4962 -0.6588
  159MOL0     H21398   3.907  11.563   0.565  0.6363 -2.3297  0.6583
  159MOL0     H21399   3.768  11.715   0.410 -2.6279  0.4646  2.7803
  159MOL0     H21400   3.584  11.520   0.062  0.3477  1.0496 -0.6674
  159MOL0     H21401   3.452  11.509   0.167  1.0810 -0.3512  3.1986
  159MOL0     H21402   3.501  11.787   0.055  3.7044 -1.2580  2.2502
  159MOL0     H21403   3.358  11.695   0.118  0.3607 -2.3647  0.0028
  159MOL0     H21404   3.315  11.703  -0.124 -0.7655  0.4579 -0.5157
  159MOL0     H21405   3.396  11.556  -0.118  2.0180  1.6531 -3.3106
  159MOL0     H21406   3.514  11.833  -0.182  0.4670 -1.2290 -2.0396
  159MOL0     H21407   3.616  11.688  -0.154  0.3855 -0.1877  1.0799
  159MOL0     H21408   3.475  11.566  -0.323 -1.1825  0.6996 -1.4309
  159MOL0     H21409   3.425  11.731  -0.371 -0.9450  0.6893  2.0035
  159MOL0     H21410   3.711  11.634  -0.322 -2.0438 -3.7800  0.3950
  159MOL0     H21411   3.648  11.610  -0.488  0.5969  3.0981 -2.7824
  159MOL0     H21412   3.768  11.805  -0.513 -0.0914 -0.0416  0.6813
  159MOL0     H21413   3.730  11.861  -0.342  3.6233  0.4316 -1.5237
  159MOL0     H21414   3.505  11.937  -0.457 -0.4729  0.1422 -0.7400
  159MOL0     H21415   3.624  11.998  -0.558 -0.8314  0.7166 -0.7301
  159MOL0     H21416   3.687  11.856  -0.785 -0.8808  2.7066  0.6141
  159MOL0     H21417   3.558  11.754  -1.012  1.9357  0.1953 -1.3049
  159MOL0     H21418   3.656  11.625  -0.939 -1.0169 -2.2003  0.1175
  159MOL0     H21419   3.430  11.484  -0.948 -0.3049 -0.3959 -0.7996
  159MOL0     H21420   3.371  11.614  -1.057  0.1024  0.5184 -1.8225
  159MOL0     H21421   3.442  11.445  -1.189  0.5437  0.5288  0.5951
  159MOL0     H21422   3.582  11.400  -1.091  3.4344  1.4002 -0.7272
  159MOL0     H21423   3.681  11.512  -1.280 -1.8175  1.1191 -1.8705
  159MOL0     H21424   3.672  11.646  -1.169 -3.4673  1.7939  2.6831
  159MOL0     H21425   3.370  11.658  -1.501 -0.2112 -1.2589 -2.6245
  159MOL0     H21426   3.422  11.753  -1.722 -0.6493 -0.8628  0.5531
  159MOL0     H21427   3.585  12.101  -1.960  0.7605  2.9169 -2.3069
  159MOL0     H21428   3.657  12.190  -2.171  2.4925 -0.5382  1.2398
  159MOL0     H21429   3.733  12.227  -2.359 -0.3019  0.0696 -0.3056
  159MOL0     H21430   3.878  12.124  -2.367 -1.3355 -2.5718  1.7582
  159MOL0     H21431   3.672  12.186  -2.591  0.6166  0.5905 -1.5877
  159MOL0     H21432   3.835  12.271  -2.567 -0.3615 -0.8447  1.8140
  159MOL0     H21433   3.881  11.980  -2.595  3.1226 -0.5686 -1.5556
  159MOL0     H21434   3.815  12.063  -2.743  0.8038  0.4539 -0.3585
  159MOL0     H21435   4.071  12.121  -2.576  0.1434 -0.3574  1.0832
  159MOL0     H21436   4.049  12.191  -2.729 -3.4930  0.9284 -1.0086
  159MOL0     H21437   4.104  11.899  -2.720  0.1925  0.1854  0.0925
  159MOL0     H21438   4.183  12.035  -2.803  0.1128 -2.6859 -0.3620
  159MOL0     H21439   3.912  11.906  -2.849 -1.2337  1.5950 -2.8661
  159MOL0     H21440   3.989  12.057  -2.938  1.8277  0.4040 -1.7892
  159MOL0     H21441   4.147  11.799  -2.915  0.4703  0.3022 -0.8857
  159MOL0     H21442   4.160  11.935  -3.029 -0.6451  0.9887  0.8499
  159MOL0     H21443   3.961  11.700  -3.030  0.2098 -0.8730 -1.7240
  159MOL0     H21444   3.919  11.847  -3.114 -2.4166 -2.4530  1.6150
  159MOL0     H21445   3.677  11.787  -2.324  1.4769 -0.2541  0.4624
  159MOL0     H21446   3.642  11.697  -2.092 -1.2622  1.2522  3.7170
  159MOL0     H21447   3.842  11.766  -1.615 -0.0853 -0.2822  0.2240
  159MOL0     H21448   3.786  11.681  -1.395 -0.1268  0.9736  0.9798
  159MOL0     H21449   3.593  11.352   0.255  1.3666 -2.8750  0.6784
  159MOL0     H21450   3.712  11.227   0.444  0.0345 -1.1663 -0.6880
  159MOL0     H21451   4.280  11.243   0.597  0.5463  2.1730  2.6662
  159MOL0     H21452   4.390  11.109   0.752 -0.2884  1.7035 -3.0380
  159MOL0     H21453   4.432  10.885   0.827 -0.5598  2.7603  0.6189
  159MOL0     H21454   4.297  10.780   0.818  0.0058 -1.2980  0.9135
  159MOL0     H21455   4.507  10.820   1.037 -0.4906 -0.3392  1.5054
  159MOL0     H21456   4.458  10.667   0.946  1.2893  0.2257  0.0294
  159MOL0     H21457   4.244  10.672   1.063  0.9961  0.0230  0.0209
  159MOL0     H21458   4.294  10.820   1.153 -1.9783 -0.0057  1.9237
  159MOL0     H21459   4.312  10.622   1.293  0.7659  0.8671  1.2152
  159MOL0     H21460   4.442  10.564   1.188  0.5225 -1.0856 -0.0525
  159MOL0     H21461   4.587  10.929   1.372 -1.0980  0.6134 -0.6708
  159MOL0     H21462   4.014  10.979   0.924  1.8376  1.6168  1.2360
  159MOL0     H21463   3.805  11.170   0.801 -1.2995  0.3644 -2.4455
  159MOL0     H21464   3.839  11.097   0.635  2.8054  0.4374 -1.2211
  159MOL0     H21465   3.828  10.993   0.783  0.9041  0.3183  2.6342
  160MOL0     O21466   4.328   5.950  11.408 -0.6426  0.3732 -0.0714
  160MOL0     C21467   4.339   5.944  11.528  0.9679  0.0008  0.8704
  160MOL0     O21468   4.419   5.856  11.592  0.2602  0.0869 -0.0738
  160MOL0     C21469   4.472   5.744  11.529 -0.2081  0.0855  0.1715
  160MOL0     C21470   4.464   5.628  11.606 -0.6834  0.6197 -0.0965
  160MOL0     C21471   4.519   5.510  11.554  0.5468  0.7622 -1.0504
  160MOL0     C21472   4.578   5.507  11.427  0.3985  0.3746  0.5625
  160MOL0     O21473   4.650   5.397  11.373  0.8752  0.5236 -0.2346
  160MOL0     C21474   4.680   5.282  11.452 -0.4350 -0.1335 -0.6992
  160MOL0     C21475   4.785   5.184  11.388  0.8019 -0.6477 -0.0446
  160MOL0     C21476   4.918   5.260  11.346  0.2914 -0.0687 -0.4922
  160MOL0     C21477   4.991   5.211  11.219  0.1522 -0.7263 -0.9311
  160MOL0     C21478   5.108   5.313  11.190 -0.3317  0.2913  0.6052
  160MOL0     C21479   5.162   5.298  11.047 -0.2109  0.5389 -0.0432
  160MOL0     C21480   5.277   5.395  11.015 -0.7471  0.2816 -0.0683
  160MOL0     C21481   5.240   5.543  11.019 -0.4376 -0.6680  0.3090
  160MOL0     N21482   5.305   5.630  10.927 -0.4373  0.1990  0.4419
  160MOL0     C21483   5.224   5.695  10.835 -0.0172  0.4435 -0.1285
  160MOL0     C21484   5.319   5.776  10.767  0.4236 -0.1950  0.4616
  160MOL0     C21485   5.290   5.874  10.658  0.1289  0.1122 -0.1066
  160MOL0     C21486   5.234   6.016  10.693 -0.5993 -0.5893  0.1993
  160MOL0     C21487   5.111   5.997  10.783 -0.3190  0.0967  0.0809
  160MOL0     C21488   4.988   5.936  10.721  0.4044  0.1502 -0.8856
  160MOL0     O21489   4.878   5.939  10.823  0.3100  0.1309  0.1588
  160MOL0     C21490   4.756   5.958  10.768  0.5180 -0.1176 -0.0709
  160MOL0     C21491   4.694   5.866  10.681  0.8282  0.1409  0.1356
  160MOL0     C21492   4.582   5.898  10.612 -0.9927 -0.5134  0.1500
  160MOL0     C21493   4.519   6.023  10.638 -0.1330  1.1011  0.1658
  160MOL0     C21494   4.399   6.066  10.560  0.7522 -0.1828 -0.5227
  160MOL0     O21495   4.388   6.006  10.444  0.5583 -0.8466  0.6531
  160MOL0     C21496   4.270   6.003  10.368 -0.5370  0.2067 -0.1497
  160MOL0     C21497   4.284   5.982  10.229 -1.1212 -0.4083 -0.3528
  160MOL0     C21498   4.178   5.948  10.153  0.1874 -0.4431 -0.6011
  160MOL0     C21499   4.053   5.948  10.203  0.5110  0.7733 -0.2291
  160MOL0     O21500   3.959   5.891  10.129 -0.5619 -0.0867  0.4725
  160MOL0     C21501   3.838   5.953  10.109  0.9418  0.3237 -0.1246
  160MOL0     C21502   3.752   5.833  10.085  0.7035 -0.4287 -0.1720
  160MOL0     C21503   3.623   5.870  10.023 -0.4639 -0.2584 -0.6649
  160MOL0     C21504   3.550   5.741   9.987  0.1384  0.4019 -0.3324
  160MOL0     C21505   3.392   5.758  10.004 -0.0873 -0.2087 -0.1022
  160MOL0     C21506   3.328   5.811   9.875  0.5887 -0.7753 -0.1995
  160MOL0     C21507   3.173   5.791   9.894 -0.3117  0.8216 -0.3992
  160MOL0     C21508   3.118   5.883  10.005  0.0826  0.0005  0.1093
  160MOL0    Cl21509   2.936   5.859   9.991 -0.1905 -0.2048  0.5128
  160MOL0     C21510   4.033   5.981  10.341  0.0435  0.4673  0.5386
  160MOL0     C21511   4.142   5.997  10.423 -0.8297 -0.4694  0.8315
  160MOL0     O21512   4.329   6.158  10.602 -0.1367 -0.7030  0.1001
  160MOL0     C21513   4.581   6.115  10.733 -0.7229  0.4426 -0.6053
  160MOL0     C21514   4.702   6.084  10.788 -0.8158 -0.3860  0.4407
  160MOL0     N21515   5.440   5.755  10.834  0.6623  0.3217  0.3820
  160MOL0     N21516   5.433   5.657  10.917  0.6002  1.0553  0.6656
  160MOL0     C21517   4.584   5.623  11.351  1.0258  0.1640  0.7741
  160MOL0     C21518   4.527   5.737  11.398  0.1286  0.0474  0.1770
  160MOL0     C21519   4.278   6.060  11.597  0.4563 -0.1355  0.8783
  160MOL0     C21520   4.195   6.158  11.532 -0.4671 -0.0974 -0.3503
  160MOL0     C21521   4.132   6.265  11.597  1.0181  0.4018 -1.0061
  160MOL0     C21522   4.141   6.267  11.738 -0.3482 -0.0527 -0.6565
  160MOL0     O21523   4.064   6.364  11.805 -0.6050  0.2156 -0.1071
  160MOL0     C21524   4.073   6.370  11.946 -0.3962 -0.5008 -0.5591
  160MOL0     C21525   3.987   6.484  12.005  0.9574  0.3674  0.9280
  160MOL0     C21526   3.837   6.467  11.992  0.2091  0.0958  0.9429
  160MOL0     C21527   3.741   6.566  12.054 -0.3244  0.9615  0.7415
  160MOL0     C21528   3.784   6.594  12.189  0.7042 -0.4062  0.5463
  160MOL0     C21529   3.830   6.615  12.297 -0.5858 -0.0572 -0.0433
  160MOL0     C21530   4.218   6.172  11.807 -0.1077  0.1471  0.8557
  160MOL0     C21531   4.294   6.071  11.739  0.9412  0.2954 -0.4630
  160MOL0     C21532   4.380   5.978  11.832  0.5457 -0.9245  0.0602
  160MOL0     H21533   4.418   5.629  11.704 -1.0475  1.0057 -0.2708
  160MOL0     H21534   4.512   5.433  11.631 -0.1006 -0.1787 -2.0218
  160MOL0     H21535   4.723   5.312  11.548 -0.6833 -1.0484 -0.2861
  160MOL0     H21536   4.584   5.236  11.478 -1.6527  2.9878  0.8758
  160MOL0     H21537   4.742   5.148  11.294 -0.9041  0.5636  0.2160
  160MOL0     H21538   4.811   5.110  11.464  4.4018  0.1709 -0.2935
  160MOL0     H21539   4.992   5.253  11.426  0.2888 -0.8152 -0.5535
  160MOL0     H21540   4.879   5.362  11.336  0.2040 -0.1931 -1.6080
  160MOL0     H21541   5.031   5.110  11.221  0.3876 -0.6239 -0.0132
  160MOL0     H21542   4.917   5.211  11.139 -0.9695 -1.9374  0.0665
  160MOL0     H21543   5.063   5.412  11.200 -0.1600  0.6915 -1.8316
  160MOL0     H21544   5.182   5.293  11.268  1.2674  3.9366  0.2443
  160MOL0     H21545   5.177   5.191  11.027 -1.2017  0.7162 -2.0101
  160MOL0     H21546   5.074   5.317  10.985  0.0657 -0.8864 -0.9408
  160MOL0     H21547   5.312   5.382  10.912 -0.3114  3.5518 -0.4626
  160MOL0     H21548   5.361   5.374  11.082  0.1979  1.7464 -0.7408
  160MOL0     H21549   5.134   5.545  10.990 -0.1369  1.1811 -0.7731
  160MOL0     H21550   5.240   5.584  11.120  1.9859 -1.5830  0.7536
  160MOL0     H21551   5.116   5.695  10.825 -0.8756 -1.2276  5.4381
  160MOL0     H21552   5.376   5.888  10.592  1.4401 -0.6382  1.3762
  160MOL0     H21553   5.220   5.812  10.601  0.9658  1.7588 -3.1497
  160MOL0     H21554   5.305   6.076  10.751 -1.6360 -0.3776  1.2985
  160MOL0     H21555   5.205   6.065  10.600  2.4067 -0.6136 -0.8573
  160MOL0     H21556   5.068   6.091  10.818  1.0338  1.4067 -1.6442
  160MOL0     H21557   5.135   5.933  10.868  0.6191  2.9707  2.1063
  160MOL0     H21558   5.007   5.834  10.686 -0.9216 -0.0063 -1.1940
  160MOL0     H21559   4.969   6.002  10.636  1.2622  0.8843 -0.5261
  160MOL0     H21560   4.726   5.764  10.657  1.4923  0.6174 -1.1226
  160MOL0     H21561   4.540   5.818  10.552 -1.6255  0.3895 -0.6469
  160MOL0     H21562   4.383   5.965  10.187  1.6559  0.9810  4.6848
  160MOL0     H21563   4.215   5.918  10.055  4.3781  2.2093 -0.0791
  160MOL0     H21564   3.786   6.003  10.191 -0.1587 -2.0481  0.7421
  160MOL0     H21565   3.846   6.019  10.022  1.7749 -2.9648 -2.7698
  160MOL0     H21566   3.802   5.762  10.019  1.7732 -0.7525  0.9440
  160MOL0     H21567   3.731   5.784  10.180  0.7756  0.1180  0.1332
  160MOL0     H21568   3.567   5.937  10.089  1.2093  1.3605 -0.8170
  160MOL0     H21569   3.633   5.933   9.935 -2.4575  2.1117  0.6608
  160MOL0     H21570   3.587   5.660  10.050  2.5030 -0.7085 -2.9429
  160MOL0     H21571   3.583   5.709   9.888  1.3525 -1.6930  0.6873
  160MOL0     H21572   3.367   5.830  10.082 -0.6821  0.4228 -0.8540
  160MOL0     H21573   3.362   5.655  10.027  0.0216  0.2582  2.3510
  160MOL0     H21574   3.364   5.914   9.865 -1.3090 -0.2010 -1.5234
  160MOL0     H21575   3.352   5.753   9.785 -1.8232  0.1763 -1.5600
  160MOL0     H21576   3.156   5.688   9.925  1.2780 -0.1739 -2.5697
  160MOL0     H21577   3.122   5.801   9.797  0.2156  1.9837 -0.5685
  160MOL0     H21578   3.155   5.872  10.108 -1.1306  1.0148  0.6779
  160MOL0     H21579   3.150   5.985   9.982  0.8128 -0.9203 -3.6520
  160MOL0     H21580   3.929   5.995  10.368 -0.6995 -1.7452 -0.9751
  160MOL0     H21581   4.131   6.012  10.530  1.3024  0.1150  1.0170
  160MOL0     H21582   4.533   6.210  10.750  0.7815  1.1993 -0.3690
  160MOL0     H21583   4.749   6.155  10.856 -1.0991 -1.3685  1.6837
  160MOL0     H21584   4.637   5.626  11.256 -0.6623  0.0986 -0.2135
  160MOL0     H21585   4.527   5.830  11.343  0.1726 -1.1889 -2.0315
  160MOL0     H21586   4.180   6.139  11.426 -0.6389 -2.3126  0.0175
  160MOL0     H21587   4.053   6.316  11.544  0.1068 -0.3959 -0.4533
  160MOL0     H21588   4.173   6.405  11.975 -0.9553 -0.8050  2.0024
  160MOL0     H21589   4.046   6.276  11.995  0.8494 -0.8453 -0.4750
  160MOL0     H21590   4.016   6.573  11.949  0.9651 -2.0151 -3.3164
  160MOL0     H21591   4.006   6.491  12.112 -2.9206  0.9207  1.7260
  160MOL0     H21592   3.825   6.384  12.062  0.4311 -1.7795 -1.1258
  160MOL0     H21593   3.808   6.438  11.890  0.8289  1.1028  0.4682
  160MOL0     H21594   3.753   6.654  11.990  0.2960 -1.4402 -2.7172
  160MOL0     H21595   3.640   6.525  12.052 -0.2860  0.6497 -3.3063
  160MOL0     H21596   3.857   6.642  12.397 -0.2297 -0.8083  0.0737
  160MOL0     H21597   4.245   6.187  11.911  0.4471  0.8251  0.6196
  160MOL0     H21598   4.357   5.871  11.830 -1.3314 -0.5550 -0.0736
  160MOL0     H21599   4.482   5.995  11.798  0.5555  1.9060  1.2401
  160MOL0     H21600   4.360   6.011  11.935 -1.1337  2.3803 -1.1687
  161MOL0     O21601   4.023   1.922   3.280 -0.3808  0.5379  0.6435
  161MOL0     C21602   3.935   1.888   3.196  0.6530  0.1956 -0.0266
  161MOL0     O21603   3.931   1.777   3.119 -0.0611  0.3076 -0.2710
  161MOL0     C21604   4.012   1.667   3.153 -0.1398  0.2132 -0.8898
  161MOL0     C21605   4.087   1.595   3.054  0.3108 -0.7102  1.4401
  161MOL0     C21606   4.175   1.495   3.076 -0.7203 -0.2613 -1.0994
  161MOL0     C21607   4.199   1.465   3.212 -0.3958  0.2739  0.4743
  161MOL0     O21608   4.307   1.377   3.229 -0.6934  0.2847 -0.1563
  161MOL0     C21609   4.264   1.261   3.307 -0.7042 -0.7368 -0.0219
  161MOL0     C21610   4.367   1.158   3.290  0.6312  0.2279 -0.1370
  161MOL0     C21611   4.428   1.116   3.434  0.3581  0.0954  0.4074
  161MOL0     C21612   4.332   1.043   3.529 -0.3978 -0.4974 -0.3479
  161MOL0     C21613   4.416   0.985   3.636 -0.4097 -0.6556 -0.0579
  161MOL0     C21614   4.356   0.851   3.690  0.1374 -0.5112  0.1705
  161MOL0     C21615   4.233   0.869   3.788 -0.0714  0.6041 -0.1766
  161MOL0     C21616   4.107   0.814   3.731  0.0092  0.5245  0.1445
  161MOL0     N21617   4.053   0.696   3.796 -0.5337  0.1933 -0.2234
  161MOL0     C21618   3.956   0.704   3.889 -0.5554 -0.0188 -0.2227
  161MOL0     C21619   3.901   0.575   3.893  0.0028  0.4007 -0.2212
  161MOL0     C21620   3.774   0.533   3.963  1.1217  0.7998 -0.2562
  161MOL0     C21621   3.654   0.623   3.930 -0.0442 -0.2619  0.6184
  161MOL0     C21622   3.587   0.596   3.790  0.3852  0.4163  0.6223
  161MOL0     C21623   3.513   0.717   3.740 -0.3611 -0.3925  0.0374
  161MOL0     O21624   3.605   0.828   3.712 -0.6700 -0.7402 -0.3219
  161MOL0     C21625   3.675   0.834   3.591 -0.0687 -0.0642 -0.5656
  161MOL0     C21626   3.776   0.935   3.589  0.4674  0.2607  0.2421
  161MOL0     C21627   3.857   0.955   3.471 -0.1658  0.3215  0.3056
  161MOL0     C21628   3.842   0.864   3.357 -0.1455  0.2209 -0.7501
  161MOL0     C21629   3.928   0.876   3.236  0.6880 -0.8330  0.1952
  161MOL0     O21630   3.875   0.813   3.128  0.2043 -0.9175  0.6384
  161MOL0     C21631   3.934   0.800   3.009 -0.7843  0.4511  0.7755
  161MOL0     C21632   4.059   0.831   2.977 -0.6773 -0.0292  0.3570
  161MOL0     C21633   4.104   0.794   2.851 -0.2599  0.0917 -0.0121
  161MOL0     C21634   4.040   0.706   2.760 -0.2821  0.6987  0.2560
  161MOL0     O21635   4.094   0.688   2.635  0.8615  0.2612 -0.4435
  161MOL0     C21636   4.006   0.629   2.534 -0.3098  0.6599 -0.8918
  161MOL0     C21637   3.959   0.726   2.440  1.1638 -0.4558  0.6461
  161MOL0     C21638   3.894   0.668   2.309  0.4328 -0.4396  0.5181
  161MOL0     C21639   3.870   0.780   2.203  0.1874 -0.3329 -0.2009
  161MOL0     C21640   3.784   0.725   2.086 -0.7762 -0.0772  0.4061
  161MOL0     C21641   3.730   0.838   2.002 -0.8503 -0.0680  0.4836
  161MOL0     C21642   3.683   0.806   1.858 -0.4119 -0.0620  0.5171
  161MOL0     C21643   3.621   0.933   1.804  0.1705 -0.4666  0.1049
  161MOL0    Cl21644   3.490   0.985   1.906 -0.2326  0.4921 -0.0294
  161MOL0     C21645   3.909   0.676   2.798  0.4460  1.0914 -0.4930
  161MOL0     C21646   3.860   0.713   2.919  0.1910 -0.0530 -0.2670
  161MOL0     O21647   4.038   0.941   3.243 -0.0857  1.0132  0.3436
  161MOL0     C21648   3.746   0.761   3.368 -0.2664  0.5405  0.0533
  161MOL0     C21649   3.662   0.745   3.481 -0.0827 -1.3601  0.4459
  161MOL0     N21650   3.981   0.490   3.823 -0.0934 -0.2779  0.4623
  161MOL0     N21651   4.068   0.567   3.758 -0.3059  0.0066 -0.0150
  161MOL0     C21652   4.143   1.537   3.310  0.4215 -1.3390 -0.5128
  161MOL0     C21653   4.045   1.629   3.283 -0.3839  0.0192 -0.6145
  161MOL0     C21654   3.848   2.009   3.169 -0.6105  0.5472  0.2847
  161MOL0     C21655   3.811   2.027   3.035  0.3924  0.9970  0.3154
  161MOL0     C21656   3.731   2.132   2.995  1.0696 -0.2855 -0.8693
  161MOL0     C21657   3.685   2.228   3.089  0.7113 -0.2805  0.6281
  161MOL0     O21658   3.629   2.349   3.048  0.3240  0.1353  0.3472
  161MOL0     C21659   3.496   2.361   3.109  0.7210 -0.1233 -1.2020
  161MOL0     C21660   3.381   2.360   3.014  0.3922 -0.7978 -0.7392
  161MOL0     C21661   3.398   2.452   2.890  0.9966  0.5351 -0.5196
  161MOL0     C21662   3.280   2.437   2.789 -1.1382  0.3760  0.4476
  161MOL0     C21663   3.290   2.551   2.696  0.1086  0.2297 -0.1841
  161MOL0     C21664   3.299   2.649   2.628  0.3445  0.2937  0.4160
  161MOL0     C21665   3.724   2.215   3.227  0.5645  0.3660  0.9801
  161MOL0     C21666   3.796   2.101   3.263 -0.6592  0.7507 -1.3165
  161MOL0     C21667   3.824   2.084   3.412  0.1035  0.2568 -0.0409
  161MOL0     H21668   4.053   1.635   2.959  1.3694  2.5125  2.2747
  161MOL0     H21669   4.240   1.456   2.998  0.3457  2.2128 -1.5394
  161MOL0     H21670   4.275   1.304   3.408  4.8021 -0.4938 -0.4027
  161MOL0     H21671   4.164   1.220   3.291 -1.0737 -0.1174  0.6299
  161MOL0     H21672   4.446   1.187   3.220  0.8068  0.5833  0.2004
  161MOL0     H21673   4.318   1.073   3.241  0.7898  0.5074 -0.7910
  161MOL0     H21674   4.466   1.210   3.474 -1.0862  0.3895  1.1795
  161MOL0     H21675   4.514   1.055   3.405  0.3205  0.0747  0.3372
  161MOL0     H21676   4.267   1.124   3.563  1.3543  0.6384  0.4091
  161MOL0     H21677   4.272   0.967   3.479 -0.7967  0.7695 -1.8913
  161MOL0     H21678   4.512   0.953   3.594  1.1983  0.7465  2.3134
  161MOL0     H21679   4.437   1.056   3.717 -1.1266  0.4681 -0.8330
  161MOL0     H21680   4.335   0.779   3.611 -0.3518  1.1821 -1.3372
  161MOL0     H21681   4.438   0.806   3.746 -0.1563  1.7807  2.6580
  161MOL0     H21682   4.213   0.972   3.816 -0.8653  0.5577 -0.5423
  161MOL0     H21683   4.253   0.815   3.881  0.3883  1.7052  0.3771
  161MOL0     H21684   4.034   0.894   3.733  1.1474  1.7076 -2.0958
  161MOL0     H21685   4.114   0.774   3.629 -0.5232  0.7175  0.0338
  161MOL0     H21686   3.923   0.798   3.931 -0.4800  0.8428 -1.9913
  161MOL0     H21687   3.751   0.429   3.939  1.0500  1.2361 -2.2286
  161MOL0     H21688   3.785   0.538   4.071 -2.1213  1.1146  0.1617
  161MOL0     H21689   3.572   0.608   4.001 -2.6255  1.5392 -1.7318
  161MOL0     H21690   3.686   0.727   3.940  3.9729 -1.5093  2.7300
  161MOL0     H21691   3.518   0.513   3.809  1.5318 -0.4570  1.0746
  161MOL0     H21692   3.658   0.561   3.715 -0.4508  0.4752 -0.2178
  161MOL0     H21693   3.439   0.744   3.816 -0.3837 -1.1275  0.2828
  161MOL0     H21694   3.446   0.691   3.657 -1.2489 -6.1172  2.1336
  161MOL0     H21695   3.782   1.007   3.670 -2.2982  2.7793 -1.5868
  161MOL0     H21696   3.929   1.034   3.455 -1.3498  0.9824 -2.3044
  161MOL0     H21697   4.124   0.893   3.038  0.6608  1.1576 -2.1371
  161MOL0     H21698   4.204   0.831   2.828  0.8972 -0.6962  3.2131
  161MOL0     H21699   4.071   0.570   2.468 -1.8456 -2.3320  0.0767
  161MOL0     H21700   3.928   0.563   2.572  1.3326  0.0240  1.5438
  161MOL0     H21701   3.890   0.795   2.489  0.6445 -2.4066  2.8174
  161MOL0     H21702   4.041   0.782   2.396  0.9523 -0.5557  0.1169
  161MOL0     H21703   3.952   0.586   2.265 -2.1881 -1.8463 -0.5597
  161MOL0     H21704   3.795   0.624   2.331 -0.0826  1.0781  1.3685
  161MOL0     H21705   3.963   0.831   2.177 -0.3352  0.1279 -1.2091
  161MOL0     H21706   3.803   0.855   2.245 -0.5401 -0.3187 -1.3486
  161MOL0     H21707   3.693   0.676   2.122 -0.7982  0.2232  0.7647
  161MOL0     H21708   3.851   0.656   2.034  0.8862 -0.8916  3.4166
  161MOL0     H21709   3.657   0.888   2.067  0.7912 -2.4063  4.5798
  161MOL0     H21710   3.815   0.906   1.996 -0.7538 -0.1036  1.3313
  161MOL0     H21711   3.608   0.727   1.862  0.0554 -0.5780 -0.5362
  161MOL0     H21712   3.775   0.778   1.806 -0.3770  0.2469  0.4106
  161MOL0     H21713   3.697   1.011   1.803 -1.8130  1.5891  0.5325
  161MOL0     H21714   3.589   0.923   1.699  1.6414  1.5422 -0.5935
  161MOL0     H21715   3.844   0.612   2.739  1.7229 -2.3302  1.5200
  161MOL0     H21716   3.767   0.666   2.948  0.9183 -0.4219  1.6025
  161MOL0     H21717   3.746   0.686   3.289  1.4779 -0.5110  1.0035
  161MOL0     H21718   3.584   0.670   3.475 -3.1308  1.6835 -1.7319
  161MOL0     H21719   4.176   1.527   3.413 -1.3437  2.1382  0.5608
  161MOL0     H21720   4.010   1.696   3.361  1.6886  2.1891 -1.4072
  161MOL0     H21721   3.857   1.964   2.960 -2.8535  0.1134 -1.1020
  161MOL0     H21722   3.713   2.150   2.890 -0.7729  3.2201 -0.0889
  161MOL0     H21723   3.504   2.456   3.163  1.5515  0.9814 -3.1590
  161MOL0     H21724   3.482   2.281   3.183 -0.3612 -0.5788 -1.8796
  161MOL0     H21725   3.290   2.400   3.060  0.2038 -1.9488 -0.0984
  161MOL0     H21726   3.363   2.259   2.978 -0.2503 -1.0735  0.3152
  161MOL0     H21727   3.491   2.431   2.837 -0.5437  0.2253 -3.3001
  161MOL0     H21728   3.397   2.554   2.929  2.0487  0.2898  0.1811
  161MOL0     H21729   3.298   2.348   2.728  5.7139  2.1318 -1.0040
  161MOL0     H21730   3.187   2.431   2.845  0.3059 -0.2899  2.9594
  161MOL0     H21731   3.305   2.737   2.568 -1.4099 -0.3880 -0.8184
  161MOL0     H21732   3.692   2.269   3.315 -3.0155 -0.7618  0.5643
  161MOL0     H21733   3.916   2.141   3.422 -0.0653  0.3329  1.2039
  161MOL0     H21734   3.743   2.123   3.475  0.5317  0.6852  0.2467
  161MOL0     H21735   3.847   1.981   3.441 -0.8359 -0.9852 -3.3077
  162MOL0     O21736   4.751   1.170  11.178 -0.3843  0.9489  0.7004
  162MOL0     C21737   4.733   1.171  11.056  0.7910  0.0771  0.6154
  162MOL0     O21738   4.785   1.091  10.968  0.2014 -0.0039  0.0782
  162MOL0     C21739   4.834   0.971  11.019 -0.1905 -0.1247  0.6527
  162MOL0     C21740   4.963   0.942  11.035  0.4378 -0.6506 -0.0651
  162MOL0     C21741   4.998   0.827  11.082  0.1345  0.1028 -0.5427
  162MOL0     C21742   4.898   0.725  11.107  0.1130  0.5609  0.5332
  162MOL0     O21743   4.913   0.593  11.126  0.0554 -0.6036 -0.5090
  162MOL0     C21744   5.054   0.553  11.142 -0.7386 -0.3537 -0.5845
  162MOL0     C21745   5.038   0.402  11.168  0.1090 -0.4749 -0.0278
  162MOL0     C21746   5.042   0.322  11.027  0.8245 -0.9914 -0.4814
  162MOL0     C21747   5.034   0.176  11.055  0.0795 -1.3905 -0.7977
  162MOL0     C21748   5.040   0.107  10.918  0.4382  0.3056 -0.0722
  162MOL0     C21749   5.038  -0.046  10.928  0.3908 -0.2173  0.2715
  162MOL0     C21750   5.185  -0.102  10.944  1.4382 -0.1317 -0.1209
  162MOL0     C21751   5.192  -0.251  10.946 -1.9599  0.7781  0.0100
  162MOL0     N21752   5.304  -0.293  11.035  0.8100 -0.1690 -0.1476
  162MOL0     C21753   5.325  -0.234  11.163  0.9138 -0.4531  0.0405
  162MOL0     C21754   5.417  -0.308  11.223  0.4336 -0.0282 -0.5716
  162MOL0     C21755   5.478  -0.274  11.357  0.1843 -0.0621  0.0414
  162MOL0     C21756   5.380  -0.249  11.473  0.3128  0.8374 -0.2066
  162MOL0     C21757   5.264  -0.352  11.488  0.5507  0.1947  0.0134
  162MOL0     C21758   5.293  -0.504  11.496 -0.6001  0.2013 -0.1964
  162MOL0     O21759   5.384  -0.542  11.601 -0.5895  0.0719  0.4797
  162MOL0     C21760   5.353  -0.551  11.732  0.1331  0.0304 -0.2331
  162MOL0     C21761   5.244  -0.491  11.793  0.4250 -0.8145  0.3646
  162MOL0     C21762   5.213  -0.521  11.931 -0.1928  0.1240  1.1735
  162MOL0     C21763   5.295  -0.607  12.004  0.8399  0.9748 -0.6644
  162MOL0     C21764   5.271  -0.621  12.145 -0.5349  0.4835 -0.0493
  162MOL0     O21765   5.338  -0.719  12.215  0.3298  0.5115  0.8029
  162MOL0     C21766   5.299  -0.744  12.344  1.1124 -0.2420 -0.1956
  162MOL0     C21767   5.170  -0.798  12.367 -0.1836 -0.0170 -0.3536
  162MOL0     C21768   5.138  -0.837  12.496 -0.1151  0.2525 -1.5247
  162MOL0     C21769   5.237  -0.813  12.599  0.2867  0.6280  0.3395
  162MOL0     O21770   5.217  -0.843  12.736  0.1743  0.0816 -0.1718
  162MOL0     C21771   5.077  -0.822  12.787 -0.3622  1.0506 -0.9922
  162MOL0     C21772   5.016  -0.959  12.795  0.6186 -0.1905  0.7255
  162MOL0     C21773   5.071  -1.057  12.895 -0.7457 -0.5462  0.2596
  162MOL0     C21774   5.034  -1.193  12.851  0.2003 -0.5465  0.1604
  162MOL0     C21775   4.891  -1.233  12.880 -0.3302  0.2137 -0.2545
  162MOL0     C21776   4.853  -1.383  12.847  0.3155 -0.5372 -0.8362
  162MOL0     C21777   4.702  -1.414  12.849  0.1783  0.1626 -0.3689
  162MOL0     C21778   4.661  -1.565  12.848  0.1966  0.1386  0.0101
  162MOL0    Cl21779   4.728  -1.636  12.702  0.7162 -0.1011  0.3938
  162MOL0     C21780   5.360  -0.763  12.569  0.4895 -0.4598  0.9070
  162MOL0     C21781   5.395  -0.731  12.438 -0.0263  0.4981 -0.8426
  162MOL0     O21782   5.176  -0.563  12.188  0.0501 -0.8116 -0.0516
  162MOL0     C21783   5.410  -0.663  11.943  0.3279  0.3045  0.0878
  162MOL0     C21784   5.435  -0.629  11.815 -0.0680  0.5961  0.6495
  162MOL0     N21785   5.455  -0.410  11.131  0.2315  0.2270  0.0007
  162MOL0     N21786   5.386  -0.403  11.018  0.0343 -0.3061 -0.0731
  162MOL0     C21787   4.762   0.753  11.089 -0.5041 -1.0775 -0.7553
  162MOL0     C21788   4.733   0.878  11.038  0.4162  0.3170  1.0875
  162MOL0     C21789   4.648   1.280  10.997 -0.4851 -0.8140  0.1608
  162MOL0     C21790   4.659   1.295  10.856 -1.1536  0.0944 -0.0271
  162MOL0     C21791   4.578   1.385  10.787 -0.2504  1.1095 -0.0655
  162MOL0     C21792   4.495   1.472  10.845 -0.3376 -0.6465  1.5969
  162MOL0     O21793   4.444   1.569  10.759  0.4352 -0.2941 -0.5348
  162MOL0     C21794   4.356   1.665  10.823 -0.2519 -0.1784  0.1285
  162MOL0     C21795   4.302   1.771  10.720  0.0760  0.2090 -0.0997
  162MOL0     C21796   4.181   1.856  10.774 -0.7346 -0.1461 -0.0219
  162MOL0     C21797   4.125   1.946  10.662 -0.6216 -0.0496 -0.6258
  162MOL0     C21798   4.229   2.029  10.598 -0.3629  0.7167 -0.1414
  162MOL0     C21799   4.321   2.095  10.542 -0.8281  0.4426  0.6302
  162MOL0     C21800   4.485   1.469  10.986 -0.8005  0.6647  0.8121
  162MOL0     C21801   4.569   1.381  11.059 -0.0470 -0.4292 -0.2026
  162MOL0     C21802   4.582   1.395  11.214 -0.4268 -0.7459  0.7320
  162MOL0     H21803   5.030   1.023  11.008 -1.6883  1.4603  0.6955
  162MOL0     H21804   5.103   0.805  11.099 -0.4331 -1.2398  1.8085
  162MOL0     H21805   5.105   0.562  11.046  4.1007 -4.6216  1.1609
  162MOL0     H21806   5.103   0.613  11.218  2.4541 -1.9500 -1.2179
  162MOL0     H21807   4.944   0.383  11.221  0.5068 -0.5766  0.6534
  162MOL0     H21808   5.106   0.359  11.243 -0.9329 -1.6329  0.2814
  162MOL0     H21809   5.125   0.354  10.964 -2.0554 -0.5854 -4.4987
  162MOL0     H21810   4.947   0.340  10.976  0.5940  1.5894  0.7337
  162MOL0     H21811   5.125   0.154  11.111  0.4070  1.2439 -0.1640
  162MOL0     H21812   4.942   0.141  11.102  1.7407 -1.4613  2.6960
  162MOL0     H21813   4.956   0.124  10.849  2.4783  0.4934 -2.6981
  162MOL0     H21814   5.126   0.143  10.861  0.6214 -0.2900 -0.1690
  162MOL0     H21815   4.984  -0.082  11.016 -2.8277 -2.0900 -2.2966
  162MOL0     H21816   4.986  -0.089  10.842  0.0335  1.4410 -0.3809
  162MOL0     H21817   5.222  -0.057  11.037 -0.8281  2.4942 -0.3687
  162MOL0     H21818   5.246  -0.074  10.857  1.4587 -0.9459 -0.3796
  162MOL0     H21819   5.104  -0.307  10.979 -0.6462  0.5188  3.5934
  162MOL0     H21820   5.216  -0.284  10.845 -4.7071  0.3332 -0.5927
  162MOL0     H21821   5.284  -0.142  11.203  0.5795  1.2450 -3.7818
  162MOL0     H21822   5.529  -0.366  11.387  1.1071  0.9240  1.6822
  162MOL0     H21823   5.550  -0.193  11.345  0.2613  0.0952  1.3955
  162MOL0     H21824   5.436  -0.249  11.567 -3.3711  2.2895  2.2189
  162MOL0     H21825   5.330  -0.152  11.471  0.8986  1.1451 -0.0660
  162MOL0     H21826   5.185  -0.323  11.418  2.5403  0.9344 -2.0871
  162MOL0     H21827   5.215  -0.318  11.579 -0.4232  3.8783 -1.7019
  162MOL0     H21828   5.335  -0.545  11.404 -2.8414 -5.3560  0.8210
  162MOL0     H21829   5.206  -0.571  11.504 -0.1279 -0.5866 -1.4068
  162MOL0     H21830   5.164  -0.435  11.746  0.7008  0.2444  1.1424
  162MOL0     H21831   5.129  -0.465  11.969  1.4288  2.9655  0.8657
  162MOL0     H21832   5.102  -0.820  12.286 -0.2713 -0.3499 -0.1936
  162MOL0     H21833   5.046  -0.893  12.507 -0.4449  0.5616 -2.5563
  162MOL0     H21834   5.076  -0.787  12.890 -1.8030 -0.9220 -0.2794
  162MOL0     H21835   5.017  -0.756  12.724  0.6014  0.8020 -2.2181
  162MOL0     H21836   4.907  -0.957  12.801  0.4375 -2.1503 -0.8550
  162MOL0     H21837   5.039  -1.001  12.697 -0.6663 -1.3744  0.9050
  162MOL0     H21838   5.178  -1.061  12.873 -0.7311 -0.7467  0.3643
  162MOL0     H21839   5.042  -1.037  12.999 -1.2045 -2.2039  0.4852
  162MOL0     H21840   5.093  -1.268  12.903  0.6107  0.2632  0.8948
  162MOL0     H21841   5.052  -1.201  12.743 -0.6629  2.3150 -0.3026
  162MOL0     H21842   4.818  -1.174  12.826  0.9582 -0.1422 -2.5208
  162MOL0     H21843   4.869  -1.225  12.987 -5.0660  0.9582 -1.0990
  162MOL0     H21844   4.888  -1.407  12.746  0.5157  0.0351 -0.9080
  162MOL0     H21845   4.898  -1.439  12.929 -0.9136  0.2481  0.4174
  162MOL0     H21846   4.651  -1.367  12.764 -0.8034  2.3677  1.3351
  162MOL0     H21847   4.659  -1.383  12.945 -1.3424 -0.3048 -0.8583
  162MOL0     H21848   4.705  -1.613  12.936  1.3313 -2.5273 -1.8755
  162MOL0     H21849   4.552  -1.570  12.851  0.1123  0.8767 -1.0532
  162MOL0     H21850   5.420  -0.763  12.660 -0.5861 -1.3859  1.6398
  162MOL0     H21851   5.496  -0.703  12.412  0.2583  0.8424  0.5323
  162MOL0     H21852   5.478  -0.732  11.990 -1.3261 -1.1574  0.4276
  162MOL0     H21853   5.534  -0.662  11.785  0.9088  2.9092  1.1843
  162MOL0     H21854   4.679   0.690  11.119 -0.6491 -0.5995 -0.1191
  162MOL0     H21855   4.627   0.896  11.026 -0.4646 -3.6003  1.5159
  162MOL0     H21856   4.729   1.231  10.804 -1.4991  0.4817 -0.9999
  162MOL0     H21857   4.598   1.394  10.680  2.0177 -1.4881  0.0300
  162MOL0     H21858   4.405   1.731  10.895  1.2338  1.0383 -1.8903
  162MOL0     H21859   4.262   1.628  10.864 -0.8654 -0.7392 -1.6902
  162MOL0     H21860   4.275   1.715  10.630 -1.0210  1.4059 -0.5502
  162MOL0     H21861   4.388   1.837  10.703 -0.9940  1.7872  0.4091
  162MOL0     H21862   4.204   1.914  10.864 -4.0515 -0.9849  1.5014
  162MOL0     H21863   4.101   1.783  10.794  0.6249 -1.9201 -0.7421
  162MOL0     H21864   4.079   1.889  10.581 -1.5367 -1.6258  0.9119
  162MOL0     H21865   4.054   2.017  10.706  1.0349  0.4476  1.4123
  162MOL0     H21866   4.398   2.160  10.506 -0.7917  0.9363  1.5688
  162MOL0     H21867   4.421   1.540  11.037 -2.5883 -0.5322  0.3270
  162MOL0     H21868   4.538   1.307  11.261 -1.2826 -1.1016 -0.6534
  162MOL0     H21869   4.685   1.398  11.250 -0.4293  2.4941  0.7476
  162MOL0     H21870   4.523   1.481  11.248 -0.0892 -0.3641  0.3722
  163MOL0     O21871   5.704   8.941   9.545 -0.0723  0.4803 -0.3474
  163MOL0     C21872   5.652   8.904   9.438  0.5582  0.6662 -1.1238
  163MOL0     O21873   5.717   8.865   9.326 -0.6590  0.1629  0.0273
  163MOL0     C21874   5.847   8.912   9.314  0.4053 -0.1976  0.1384
  163MOL0     C21875   5.949   8.875   9.407  0.3899  0.3819  0.7000
  163MOL0     C21876   6.067   8.942   9.406 -0.2787 -0.4988  0.4194
  163MOL0     C21877   6.099   9.051   9.328  0.2594  0.4988 -0.1478
  163MOL0     O21878   6.231   9.098   9.327  0.3163 -0.0356  1.2681
  163MOL0     C21879   6.271   9.197   9.227  0.2613 -0.3762 -0.0690
  163MOL0     C21880   6.414   9.231   9.246  0.0106 -0.0391 -0.2223
  163MOL0     C21881   6.447   9.292   9.385  0.2685  0.2737 -0.2397
  163MOL0     C21882   6.588   9.321   9.415 -0.4349 -0.6649  0.7811
  163MOL0     C21883   6.616   9.348   9.558  0.6811 -0.2573 -0.3788
  163MOL0     C21884   6.758   9.386   9.582 -0.9415  0.3401 -0.6366
  163MOL0     C21885   6.796   9.410   9.734  1.0583  0.4746  0.3605
  163MOL0     C21886   6.874   9.285   9.793 -0.1105 -0.1424  0.2294
  163MOL0     N21887   6.984   9.250   9.716 -0.1877  0.5704 -0.0391
  163MOL0     C21888   7.095   9.319   9.691  0.9122 -0.4516 -0.6661
  163MOL0     C21889   7.183   9.243   9.622  0.1929 -0.5148  0.0805
  163MOL0     C21890   7.306   9.312   9.557  1.0230 -0.6564 -0.5841
  163MOL0     C21891   7.335   9.278   9.411  0.0942 -0.5439  1.1030
  163MOL0     C21892   7.430   9.362   9.326 -0.5512 -0.3973 -0.2869
  163MOL0     C21893   7.427   9.522   9.352 -1.5208  0.1173 -0.2933
  163MOL0     O21894   7.291   9.576   9.349  0.5470 -0.1916 -0.0056
  163MOL0     C21895   7.272   9.694   9.418  0.3832  0.2465 -0.1011
  163MOL0     C21896   7.366   9.775   9.482  0.0110 -1.3178 -0.3159
  163MOL0     C21897   7.323   9.903   9.542  0.5018 -0.4838  0.0041
  163MOL0     C21898   7.190   9.946   9.536 -0.1833 -0.4523 -0.0173
  163MOL0     C21899   7.137  10.065   9.612 -0.0427 -0.1057  0.2226
  163MOL0     O21900   7.237  10.139   9.667  0.3220 -0.4626  0.5545
  163MOL0     C21901   7.210  10.260   9.730  0.8636  0.1898 -0.2270
  163MOL0     C21902   7.297  10.359   9.715 -0.7556  0.6252 -0.6917
  163MOL0     C21903   7.284  10.483   9.774  0.0126  0.4707  0.4133
  163MOL0     C21904   7.159  10.513   9.842  0.7377 -0.9889  0.1412
  163MOL0     O21905   7.161  10.642   9.901  0.5307  0.0712  0.4043
  163MOL0     C21906   7.033  10.705   9.946 -1.0357  0.4496 -0.0037
  163MOL0     C21907   7.064  10.853   9.983 -0.2424 -0.8967 -0.6606
  163MOL0     C21908   7.097  10.928   9.857 -1.4502 -0.2666  0.1133
  163MOL0     C21909   7.148  11.068   9.895 -0.6254 -0.4363 -0.1467
  163MOL0     C21910   7.154  11.155   9.766  0.0631 -0.3747 -0.1389
  163MOL0     C21911   7.188  11.303   9.795 -0.2434  0.8295 -0.1312
  163MOL0     C21912   7.208  11.382   9.667  0.3717  0.4404  0.3581
  163MOL0     C21913   7.254  11.526   9.696  0.4949 -0.6035 -0.6147
  163MOL0    Cl21914   7.404  11.521   9.789 -0.5303  0.0054 -0.0944
  163MOL0     C21915   7.067  10.413   9.867 -0.0844 -0.8410 -0.7694
  163MOL0     C21916   7.092  10.289   9.810 -0.7348  0.4239 -0.0535
  163MOL0     O21917   7.015  10.096   9.620  0.0628  0.5517 -0.2168
  163MOL0     C21918   7.102   9.863   9.467 -0.4434  0.0535  0.9010
  163MOL0     C21919   7.142   9.735   9.419  1.8730 -0.4669 -0.3196
  163MOL0     N21920   7.135   9.115   9.617  0.9824 -0.3455  0.0961
  163MOL0     N21921   7.024   9.122   9.686  0.3384  0.3392 -0.1172
  163MOL0     C21922   5.998   9.095   9.237 -0.4667 -0.1938 -0.0643
  163MOL0     C21923   5.874   9.032   9.235  0.3290  0.5036  0.0288
  163MOL0     C21924   5.509   8.866   9.458  0.1557  0.0706 -0.3262
  163MOL0     C21925   5.430   8.905   9.572  0.2763 -0.3378 -0.3349
  163MOL0     C21926   5.287   8.900   9.571 -0.7707 -0.2747 -0.4886
  163MOL0     C21927   5.223   8.832   9.476 -0.9740  0.9761  0.7755
  163MOL0     O21928   5.089   8.827   9.476 -0.1748  0.4620 -0.3949
  163MOL0     C21929   5.036   8.727   9.567  0.7884  0.0312 -0.5057
  163MOL0     C21930   4.914   8.652   9.499 -0.6521 -0.2479  0.2404
  163MOL0     C21931   4.944   8.572   9.363 -0.2916  0.1773  0.3380
  163MOL0     C21932   4.813   8.560   9.278 -0.4580  0.1324  0.2381
  163MOL0     C21933   4.850   8.497   9.147 -0.0203  0.0076 -0.2714
  163MOL0     C21934   4.872   8.465   9.036 -0.5721  0.5807 -0.2113
  163MOL0     C21935   5.297   8.777   9.366 -0.6963  0.6807  0.0032
  163MOL0     C21936   5.434   8.794   9.359 -0.2106 -0.7954 -0.0368
  163MOL0     C21937   5.501   8.721   9.245  0.5732  0.4548  0.3307
  163MOL0     H21938   5.939   8.782   9.463 -1.5000 -0.7070 -1.2625
  163MOL0     H21939   6.150   8.911   9.469 -1.0219 -1.0393  1.1471
  163MOL0     H21940   6.256   9.142   9.133 -1.0332  0.9079 -0.6660
  163MOL0     H21941   6.206   9.285   9.227 -0.6576 -1.0352 -0.1257
  163MOL0     H21942   6.434   9.304   9.166 -0.6628  1.1494  0.6683
  163MOL0     H21943   6.478   9.146   9.220 -1.0814 -0.6885 -0.8455
  163MOL0     H21944   6.410   9.225   9.463  1.0573 -0.4562 -0.4732
  163MOL0     H21945   6.378   9.375   9.405 -1.7718 -1.8852  2.6629
  163MOL0     H21946   6.654   9.237   9.388  2.7533  1.7533  0.4243
  163MOL0     H21947   6.610   9.399   9.342 -0.6785 -1.1626  0.1624
  163MOL0     H21948   6.561   9.441   9.576 -0.3594 -1.2026  1.7150
  163MOL0     H21949   6.580   9.272   9.628 -2.9293  2.3593  0.9018
  163MOL0     H21950   6.825   9.310   9.541 -1.6177  0.1950 -1.5105
  163MOL0     H21951   6.783   9.479   9.529 -1.5504  0.1202 -1.3325
  163MOL0     H21952   6.702   9.434   9.786 -1.2123  0.4640 -3.3641
  163MOL0     H21953   6.871   9.488   9.750  2.6399 -1.4125  3.1069
  163MOL0     H21954   6.908   9.313   9.893 -0.8751  0.0626  0.4375
  163MOL0     H21955   6.811   9.199   9.813  1.5438 -0.8304  3.0212
  163MOL0     H21956   7.101   9.426   9.708 -1.3773 -0.6353  1.9437
  163MOL0     H21957   7.299   9.421   9.561  2.3104 -0.5782  0.3049
  163MOL0     H21958   7.393   9.289   9.620  0.8298  1.1017  0.3859
  163MOL0     H21959   7.384   9.180   9.410 -0.5222 -0.8653 -0.6324
  163MOL0     H21960   7.247   9.281   9.347  0.7622 -2.6849 -0.0093
  163MOL0     H21961   7.407   9.339   9.222  0.7071  2.6050 -1.3403
  163MOL0     H21962   7.528   9.320   9.350 -1.6956 -2.6214  0.7600
  163MOL0     H21963   7.496   9.579   9.290 -0.6247  0.4984  1.0148
  163MOL0     H21964   7.478   9.521   9.449 -1.5549  1.5195 -0.2476
  163MOL0     H21965   7.466   9.736   9.496 -2.1857 -7.7195  1.2234
  163MOL0     H21966   7.398   9.961   9.596  1.1270 -0.4991 -0.8270
  163MOL0     H21967   7.389  10.343   9.660 -0.9030  0.4674 -0.8946
  163MOL0     H21968   7.361  10.558   9.759 -0.3215  0.9055  0.8125
  163MOL0     H21969   6.958  10.692   9.867 -0.3149 -1.9579 -0.3532
  163MOL0     H21970   7.000  10.656  10.038  0.0852 -1.4558 -0.5766
  163MOL0     H21971   6.975  10.894  10.033  0.0669 -2.9788  1.8566
  163MOL0     H21972   7.145  10.852  10.057 -0.8622  0.8629  0.0878
  163MOL0     H21973   7.162  10.871   9.789 -0.3580  0.6016  0.4022
  163MOL0     H21974   7.003  10.940   9.803 -2.5880  0.0266  2.0796
  163MOL0     H21975   7.249  11.068   9.937 -0.8975  0.9188  0.5700
  163MOL0     H21976   7.085  11.122   9.967 -0.8837 -0.9280  0.0053
  163MOL0     H21977   7.053  11.153   9.724 -1.1695 -1.3468  2.6341
  163MOL0     H21978   7.229  11.122   9.692  1.4662  1.3282  0.4428
  163MOL0     H21979   7.113  11.348   9.860  1.3720  1.2304  1.5676
  163MOL0     H21980   7.283  11.311   9.850 -0.4981 -0.6437  0.5866
  163MOL0     H21981   7.118  11.388   9.605  0.4386 -0.8396  0.1021
  163MOL0     H21982   7.280  11.323   9.610 -0.6529 -1.4182  0.8983
  163MOL0     H21983   7.262  11.583   9.602  0.3635  1.5226  0.6014
  163MOL0     H21984   7.177  11.584   9.748  0.3538 -1.2158 -0.1374
  163MOL0     H21985   6.982  10.428   9.933  1.7087  2.4722  1.0235
  163MOL0     H21986   7.025  10.205   9.825 -1.8896  1.1638 -0.8798
  163MOL0     H21987   7.005   9.908   9.448  0.7193  1.9809 -0.8638
  163MOL0     H21988   7.064   9.669   9.383  0.3478  2.2665 -2.4283
  163MOL0     H21989   6.016   9.179   9.171  0.4524  0.0635  0.5046
  163MOL0     H21990   5.799   9.073   9.168  0.4776  0.6106 -0.0753
  163MOL0     H21991   5.471   8.958   9.657 -0.9321 -2.2851  1.5835
  163MOL0     H21992   5.220   8.946   9.641 -0.6467 -1.0558  0.1606
  163MOL0     H21993   5.000   8.770   9.661  0.9566 -0.5676 -0.1622
  163MOL0     H21994   5.108   8.650   9.597  0.0487 -0.6501 -0.4513
  163MOL0     H21995   4.834   8.723   9.476 -1.1877 -0.8073  0.3521
  163MOL0     H21996   4.871   8.580   9.569 -0.5408 -1.2282 -0.6790
  163MOL0     H21997   4.962   8.469   9.397  1.9244  0.9583  1.7523
  163MOL0     H21998   5.034   8.614   9.318 -0.6956  1.2746  0.5356
  163MOL0     H21999   4.751   8.493   9.338  1.9574  0.7290  3.7443
  163MOL0     H22000   4.767   8.658   9.258 -0.1375  0.5938  1.5979
  163MOL0     H22001   4.887   8.424   8.938  0.8543 -1.4167  0.7831
  163MOL0     H22002   5.248   8.717   9.290 -0.3295 -0.6723  0.7882
  163MOL0     H22003   5.554   8.631   9.275 -0.3671  0.6303  2.7002
  163MOL0     H22004   5.420   8.691   9.178 -1.4398  2.3560  1.7540
  163MOL0     H22005   5.569   8.780   9.182  0.7976  0.9135  0.9935
  164MOL0     O22006   6.968   0.737   2.988 -0.2304  0.2739  0.4648
  164MOL0     C22007   7.080   0.712   2.949  0.0840  0.5332  0.0083
  164MOL0     O22008   7.131   0.761   2.834 -0.1642 -0.2532 -0.4208
  164MOL0     C22009   7.082   0.857   2.751 -0.2572  0.1427  0.3293
  164MOL0     C22010   7.153   0.873   2.626  0.2492 -0.2286 -0.8475
  164MOL0     C22011   7.121   0.971   2.527 -0.2968  0.3560  0.2192
  164MOL0     C22012   7.008   1.049   2.548 -0.4844  0.7944 -0.7940
  164MOL0     O22013   6.993   1.150   2.457 -0.0070  0.3530  0.4115
  164MOL0     C22014   6.872   1.227   2.452  0.7429 -0.0137 -0.5361
  164MOL0     C22015   6.877   1.318   2.330  0.1568  0.7902 -0.4169
  164MOL0     C22016   6.970   1.432   2.330  0.4040 -0.2023 -0.1753
  164MOL0     C22017   7.117   1.392   2.289 -0.4661 -0.1338 -0.2503
  164MOL0     C22018   7.145   1.375   2.137  0.3405  0.8431 -0.7871
  164MOL0     C22019   7.296   1.367   2.111  1.1002  0.6064  0.7296
  164MOL0     C22020   7.365   1.503   2.101  0.6074  0.5778  0.4080
  164MOL0     C22021   7.334   1.566   1.963 -0.1695 -0.0348  0.1200
  164MOL0     N22022   7.405   1.691   1.930  0.2837 -0.0975  0.4362
  164MOL0     C22023   7.519   1.699   1.863 -0.8902 -0.1431 -0.3479
  164MOL0     C22024   7.546   1.830   1.846 -0.4579  0.8440  0.0186
  164MOL0     C22025   7.666   1.891   1.787 -0.0341 -0.2835  0.0146
  164MOL0     C22026   7.681   1.849   1.639 -0.9557  0.1580  0.3604
  164MOL0     C22027   7.589   1.924   1.543 -0.0309 -0.5850 -0.4854
  164MOL0     C22028   7.605   1.891   1.391  0.3887  0.0242 -0.9947
  164MOL0     O22029   7.484   1.948   1.327  0.1066 -0.0781 -0.1394
  164MOL0     C22030   7.454   1.899   1.206 -0.3322 -0.3738 -0.0963
  164MOL0     C22031   7.551   1.861   1.115  1.1741  0.3936 -0.5496
  164MOL0     C22032   7.513   1.817   0.990  0.1040 -0.5225  0.5009
  164MOL0     C22033   7.380   1.805   0.953  0.5236  0.7359 -0.1210
  164MOL0     C22034   7.331   1.754   0.819  0.8899 -0.6534 -0.0480
  164MOL0     O22035   7.203   1.721   0.802  0.3250 -0.4623 -0.6934
  164MOL0     C22036   7.151   1.701   0.675 -0.1170  0.0228  0.2174
  164MOL0     C22037   7.193   1.770   0.560 -0.2299 -0.4616  0.7922
  164MOL0     C22038   7.140   1.731   0.441 -0.3502 -0.0226  0.1440
  164MOL0     C22039   7.051   1.625   0.423  0.0097  0.1297 -0.6439
  164MOL0     O22040   6.998   1.587   0.302 -0.8492  0.2094  0.7235
  164MOL0     C22041   7.086   1.609   0.188 -0.2218 -0.3575  0.3896
  164MOL0     C22042   7.052   1.521   0.064 -0.4115  0.1931 -0.0056
  164MOL0     C22043   7.075   1.377   0.126 -0.2366 -0.5924 -0.2192
  164MOL0     C22044   7.039   1.279   0.018  0.7516  0.3909  0.2324
  164MOL0     C22045   7.045   1.131   0.058 -0.6160  0.3996 -0.9796
  164MOL0     C22046   7.178   1.081   0.113  0.2953 -0.0368 -0.9135
  164MOL0     C22047   7.202   0.935   0.108 -1.1367  0.9559 -0.4371
  164MOL0     C22048   7.315   0.900   0.206 -0.4786 -0.4079 -0.6434
  164MOL0    Cl22049   7.351   0.726   0.182 -0.1493  0.0327 -0.7741
  164MOL0     C22050   6.990   1.580   0.540 -0.1280  0.8282 -0.2603
  164MOL0     C22051   7.040   1.615   0.660  0.8149 -0.1740 -0.4203
  164MOL0     O22052   7.409   1.749   0.730 -0.4955 -0.7519  0.9658
  164MOL0     C22053   7.284   1.840   1.048  0.3513  0.5265  0.6435
  164MOL0     C22054   7.318   1.888   1.175  0.2728  1.2831  0.8551
  164MOL0     N22055   7.450   1.897   1.917 -0.6476  0.0815 -0.7675
  164MOL0     N22056   7.364   1.810   1.962  0.5730 -0.3059 -0.2455
  164MOL0     C22057   6.944   1.034   2.667  0.4641 -0.8540  0.1040
  164MOL0     C22058   6.974   0.934   2.768 -0.0823 -0.7326  0.5549
  164MOL0     C22059   7.158   0.610   3.026 -0.5670 -0.5604  0.2504
  164MOL0     C22060   7.078   0.508   3.098 -0.7354  0.3806 -0.1569
  164MOL0     C22061   7.138   0.417   3.183  0.2291 -0.1014 -0.0595
  164MOL0     C22062   7.276   0.405   3.180 -0.3496 -0.9828  1.2521
  164MOL0     O22063   7.325   0.302   3.253  1.1126 -0.1593  0.2703
  164MOL0     C22064   7.455   0.325   3.293 -0.4604 -0.4254  0.1417
  164MOL0     C22065   7.488   0.229   3.399  0.8902  0.3009 -1.2532
  164MOL0     C22066   7.629   0.250   3.464 -0.4469  0.6791 -0.6210
  164MOL0     C22067   7.750   0.232   3.364  0.7353 -0.3210 -0.5851
  164MOL0     C22068   7.739   0.097   3.302  0.2385 -0.4489  0.1016
  164MOL0     C22069   7.718  -0.007   3.248  0.2118 -0.2111 -0.1937
  164MOL0     C22070   7.355   0.495   3.100 -0.0200 -0.5933 -0.3312
  164MOL0     C22071   7.304   0.600   3.029  0.5647  0.2344  0.6227
  164MOL0     C22072   7.405   0.680   2.943  0.2030  0.9327  0.6193
  164MOL0     H22073   7.244   0.815   2.618 -0.4298 -1.1076 -2.8168
  164MOL0     H22074   7.189   0.980   2.442  0.4298  4.8809  1.0132
  164MOL0     H22075   6.782   1.164   2.451 -0.2013  1.2447 -2.9384
  164MOL0     H22076   6.866   1.284   2.545  1.3940  0.9037 -1.0445
  164MOL0     H22077   6.774   1.346   2.304 -0.1178  0.6456  0.4851
  164MOL0     H22078   6.904   1.252   2.247 -0.4241 -0.0425  0.0456
  164MOL0     H22079   6.967   1.478   2.430  0.1324  1.3873 -0.8827
  164MOL0     H22080   6.930   1.513   2.268 -0.8499 -1.0833 -0.5474
  164MOL0     H22081   7.177   1.477   2.322 -0.4363  0.0113 -0.6755
  164MOL0     H22082   7.150   1.297   2.333  1.5321  0.0850 -1.1366
  164MOL0     H22083   7.101   1.276   2.124 -0.5000  1.0629  0.2134
  164MOL0     H22084   7.092   1.445   2.071  4.1801  4.1486 -0.7777
  164MOL0     H22085   7.340   1.313   2.195 -0.7426 -2.2069  0.0316
  164MOL0     H22086   7.307   1.316   2.015 -1.5484  1.8827 -0.3353
  164MOL0     H22087   7.474   1.502   2.103  0.7552  2.7794 -1.6984
  164MOL0     H22088   7.319   1.573   2.171  0.9322 -0.3341  1.5713
  164MOL0     H22089   7.348   1.488   1.888  1.2176  0.9228 -0.6534
  164MOL0     H22090   7.230   1.601   1.959  0.1209  0.7232 -2.4918
  164MOL0     H22091   7.579   1.611   1.844  2.3133  1.2481  2.3150
  164MOL0     H22092   7.652   1.999   1.796 -0.2592 -0.2392 -0.8572
  164MOL0     H22093   7.750   1.858   1.850 -0.0903  0.9830  0.7906
  164MOL0     H22094   7.782   1.875   1.605 -0.6103  1.0907  1.9584
  164MOL0     H22095   7.678   1.740   1.637 -2.6508  0.2038 -1.2674
  164MOL0     H22096   7.612   2.031   1.542 -1.0809 -0.3460 -1.4004
  164MOL0     H22097   7.487   1.914   1.581  0.1572  0.0304  0.2118
  164MOL0     H22098   7.605   1.781   1.394  0.7988  0.0449  1.2339
  164MOL0     H22099   7.706   1.908   1.354  1.8662 -1.0528  2.2068
  164MOL0     H22100   7.658   1.867   1.133  1.2488  5.7694 -1.2597
  164MOL0     H22101   7.584   1.790   0.913 -1.1788  0.4115 -1.0726
  164MOL0     H22102   7.268   1.848   0.557 -0.1247 -0.5585 -2.6397
  164MOL0     H22103   7.187   1.791   0.363  1.3896  0.1904  1.3111
  164MOL0     H22104   7.088   1.713   0.152  4.1178 -0.9324 -1.6617
  164MOL0     H22105   7.189   1.583   0.214 -0.4699 -1.9455 -0.1041
  164MOL0     H22106   6.945   1.532   0.047 -0.3489  0.2454 -0.3696
  164MOL0     H22107   7.107   1.545  -0.027 -0.9696 -2.0502 -1.0177
  164MOL0     H22108   7.179   1.371   0.159 -0.1888  1.0490  0.0382
  164MOL0     H22109   7.003   1.357   0.206 -0.6312 -2.2200 -0.9564
  164MOL0     H22110   7.102   1.290  -0.071 -0.6446  1.4936 -0.6467
  164MOL0     H22111   6.942   1.300  -0.028  1.1914  0.1468 -0.8499
  164MOL0     H22112   7.015   1.057  -0.016  4.7067 -3.6666  0.2747
  164MOL0     H22113   6.976   1.116   0.142  2.8172 -0.3941  1.9745
  164MOL0     H22114   7.265   1.130   0.068 -0.4051  1.4662 -0.6880
  164MOL0     H22115   7.181   1.111   0.219  0.5322 -0.7706 -0.7076
  164MOL0     H22116   7.234   0.896   0.011 -4.5395 -1.5906 -0.7332
  164MOL0     H22117   7.112   0.878   0.133 -0.3629  0.2408  0.8471
  164MOL0     H22118   7.410   0.953   0.194  0.5867 -1.7606  1.2334
  164MOL0     H22119   7.272   0.916   0.306  2.3219 -0.7412  0.7207
  164MOL0     H22120   6.903   1.516   0.533  1.7053 -2.1018  1.7644
  164MOL0     H22121   6.980   1.573   0.740 -0.5295  1.2734 -0.6173
  164MOL0     H22122   7.179   1.820   1.029  0.7648 -0.9694 -0.2039
  164MOL0     H22123   7.245   1.908   1.252 -1.0147  0.1574 -0.0278
  164MOL0     H22124   6.862   1.101   2.690  1.9011  0.2182  2.4789
  164MOL0     H22125   6.923   0.926   2.864  1.8564 -2.1762  1.5592
  164MOL0     H22126   6.970   0.522   3.095 -0.5873  1.6665 -0.4147
  164MOL0     H22127   7.092   0.366   3.267 -1.5664  2.2756  0.5185
  164MOL0     H22128   7.461   0.430   3.321  2.0805 -0.2003 -0.9190
  164MOL0     H22129   7.525   0.310   3.210 -0.5015  1.2423 -0.2233
  164MOL0     H22130   7.478   0.132   3.350  1.2338 -0.3520 -0.0562
  164MOL0     H22131   7.414   0.232   3.479  3.1379 -1.6863  1.0527
  164MOL0     H22132   7.647   0.176   3.543 -2.4424  1.0242  0.2052
  164MOL0     H22133   7.618   0.353   3.499 -2.0741  1.1588 -2.4204
  164MOL0     H22134   7.740   0.306   3.285 -0.6278 -1.5119 -1.5842
  164MOL0     H22135   7.846   0.236   3.417 -0.5884 -0.5915  2.0256
  164MOL0     H22136   7.698  -0.109   3.223  2.3539 -0.8856  0.6115
  164MOL0     H22137   7.458   0.468   3.079  0.0539 -0.0311 -0.7079
  164MOL0     H22138   7.380   0.786   2.937  0.2349  1.0955  2.6262
  164MOL0     H22139   7.504   0.675   2.990  0.0513  0.7656  0.9226
  164MOL0     H22140   7.404   0.634   2.844 -2.3172 -0.2645  1.1305
  165MOL0     O22141   0.112   3.554   2.074 -0.4848 -0.3582 -0.2006
  165MOL0     C22142   0.142   3.588   2.186 -0.1402  0.9870 -0.0863
  165MOL0     O22143   0.151   3.503   2.289 -0.6929  0.3090 -0.0217
  165MOL0     C22144   0.072   3.389   2.295 -0.0416 -0.6338  0.1002
  165MOL0     C22145   0.070   3.293   2.192  1.2741 -0.1895 -0.6555
  165MOL0     C22146  -0.010   3.183   2.196 -0.2003 -0.0217  0.1295
  165MOL0     C22147  -0.095   3.162   2.307 -1.3689 -0.0386  0.5214
  165MOL0     O22148  -0.167   3.046   2.321 -0.7701 -0.1945 -1.3698
  165MOL0     C22149  -0.259   3.023   2.432  0.9602  0.1420 -0.3895
  165MOL0     C22150  -0.338   2.891   2.394 -0.2791  0.2590  0.5723
  165MOL0     C22151  -0.419   2.928   2.274  0.2066 -0.0374  1.0454
  165MOL0     C22152  -0.513   2.810   2.246 -0.2057 -0.1489 -0.5693
  165MOL0     C22153  -0.554   2.799   2.098  0.3536 -0.5642 -0.3122
  165MOL0     C22154  -0.608   2.930   2.042  0.1731 -0.0949  0.1905
  165MOL0     C22155  -0.697   2.905   1.915  0.0555  1.1590 -0.5380
  165MOL0     C22156  -0.755   3.023   1.849  0.1506  0.1886 -0.2905
  165MOL0     N22157  -0.837   2.984   1.732 -0.0300  0.5856 -0.6610
  165MOL0     C22158  -0.967   2.933   1.752 -0.0245  0.9285 -0.1579
  165MOL0     C22159  -1.007   2.906   1.626  0.7551  0.1440 -0.4151
  165MOL0     C22160  -1.143   2.871   1.587  0.4222 -0.1433  0.0667
  165MOL0     C22161  -1.192   2.728   1.641 -0.4756 -0.3366  0.8291
  165MOL0     C22162  -1.299   2.746   1.750 -0.1358 -0.0561  0.5136
  165MOL0     C22163  -1.307   2.610   1.832 -0.2642 -0.1278  0.5137
  165MOL0     O22164  -1.401   2.628   1.937 -0.3999  0.2932  0.6813
  165MOL0     C22165  -1.455   2.525   2.002 -0.2657 -0.0096 -0.5386
  165MOL0     C22166  -1.414   2.391   1.988  0.9693 -0.7461 -0.0790
  165MOL0     C22167  -1.456   2.293   2.067 -0.2119 -0.8893  1.1286
  165MOL0     C22168  -1.564   2.311   2.146  0.6840  0.4281 -1.3921
  165MOL0     C22169  -1.629   2.199   2.228 -0.0364 -0.1838  0.0274
  165MOL0     O22170  -1.732   2.218   2.313  0.1059  0.4472  0.0856
  165MOL0     C22171  -1.774   2.096   2.371  0.6022 -0.2050  0.5119
  165MOL0     C22172  -1.845   2.004   2.287 -0.0080 -0.2745 -0.4029
  165MOL0     C22173  -1.899   1.888   2.342  0.5850  0.9381 -0.0358
  165MOL0     C22174  -1.892   1.858   2.479 -0.5076  0.1837 -0.5872
  165MOL0     O22175  -1.950   1.740   2.524  0.1168  0.4022 -0.2729
  165MOL0     C22176  -1.938   1.715   2.664  0.3160  0.3411  0.8626
  165MOL0     C22177  -2.006   1.581   2.690 -0.6034  0.0604  0.3681
  165MOL0     C22178  -1.994   1.535   2.833 -0.5681  0.5616  0.1828
  165MOL0     C22179  -2.018   1.377   2.833  0.4790 -0.3263 -0.6185
  165MOL0     C22180  -2.034   1.328   2.978 -0.1556  0.6936  0.9872
  165MOL0     C22181  -1.979   1.180   3.006 -0.5480 -0.8740  0.2061
  165MOL0     C22182  -1.830   1.171   3.003 -0.1678  0.2430 -0.0776
  165MOL0     C22183  -1.758   1.171   3.141 -0.6839  0.8328 -1.0245
  165MOL0    Cl22184  -1.828   1.043   3.254 -0.1478 -0.0694  0.0200
  165MOL0     C22185  -1.822   1.948   2.561  0.1945  0.5195 -0.6256
  165MOL0     C22186  -1.766   2.068   2.512 -0.5882  0.6097 -0.3939
  165MOL0     O22187  -1.578   2.089   2.189  0.0649  0.3417 -0.1173
  165MOL0     C22188  -1.625   2.443   2.166  0.9147 -0.1934 -0.0667
  165MOL0     C22189  -1.565   2.551   2.085 -0.3730 -0.2515 -0.7575
  165MOL0     N22190  -0.907   2.934   1.540  0.0958 -0.0567  0.2930
  165MOL0     N22191  -0.807   2.994   1.602 -0.6487 -0.4537  0.0889
  165MOL0     C22192  -0.104   3.260   2.409 -0.1868  0.9888 -0.3579
  165MOL0     C22193  -0.026   3.374   2.401 -1.1821 -0.0391  0.5632
  165MOL0     C22194   0.175   3.726   2.218  1.3059 -0.5783  0.0164
  165MOL0     C22195   0.218   3.750   2.345  0.3058 -0.5791 -0.9142
  165MOL0     C22196   0.241   3.888   2.388 -0.1757  0.2300  0.3113
  165MOL0     C22197   0.219   3.992   2.301 -0.0813  0.2625 -0.1676
  165MOL0     O22198   0.229   4.124   2.339  0.8610 -0.5433  0.3258
  165MOL0     C22199   0.330   4.153   2.433 -0.3232  0.0706 -0.1913
  165MOL0     C22200   0.389   4.295   2.429 -0.2440  0.1713 -0.0816
  165MOL0     C22201   0.283   4.390   2.494 -0.0185 -0.2067 -0.2030
  165MOL0     C22202   0.352   4.528   2.542  0.4526  0.1066 -0.8532
  165MOL0     C22203   0.440   4.515   2.653  0.1428 -0.5234 -0.3924
  165MOL0     C22204   0.522   4.509   2.740  0.2106  0.1534 -0.0410
  165MOL0     C22205   0.177   3.965   2.168 -1.0955  0.8605 -0.3132
  165MOL0     C22206   0.150   3.834   2.131 -0.4433  0.1810  0.2888
  165MOL0     C22207   0.116   3.828   1.989  0.1220 -0.0470  1.6013
  165MOL0     H22208   0.134   3.307   2.106  2.1515 -0.1870 -0.0139
  165MOL0     H22209  -0.001   3.105   2.120 -0.9328  0.9505 -0.9846
  165MOL0     H22210  -0.207   2.989   2.522 -0.1483 -0.3664  0.0899
  165MOL0     H22211  -0.316   3.115   2.448  3.0809  1.3636  0.5554
  165MOL0     H22212  -0.395   2.852   2.478  0.5188 -1.2476  0.4473
  165MOL0     H22213  -0.266   2.815   2.362 -0.6488  0.4827 -0.8776
  165MOL0     H22214  -0.353   2.942   2.188 -1.1492  1.1788  0.1736
  165MOL0     H22215  -0.460   3.029   2.278 -0.7339 -0.2196 -1.8823
  165MOL0     H22216  -0.477   2.713   2.279  1.8803  0.4744 -0.8616
  165MOL0     H22217  -0.606   2.822   2.302  0.9084  1.3560  1.0425
  165MOL0     H22218  -0.464   2.779   2.039  0.3034  2.2296 -1.4803
  165MOL0     H22219  -0.631   2.721   2.091 -0.5871  0.0999  1.8877
  165MOL0     H22220  -0.663   2.977   2.123  1.5282 -1.5739  2.0502
  165MOL0     H22221  -0.524   2.991   2.007  0.9230 -0.3813  1.4272
  165MOL0     H22222  -0.778   2.846   1.960  1.3064  0.6542  1.1347
  165MOL0     H22223  -0.645   2.844   1.841  0.4237  2.2073 -1.1627
  165MOL0     H22224  -0.818   3.082   1.918  2.7263  0.9167  1.5765
  165MOL0     H22225  -0.669   3.084   1.821 -0.2551  0.8064 -0.2177
  165MOL0     H22226  -1.027   2.930   1.842  1.1028  0.5701  0.6040
  165MOL0     H22227  -1.211   2.954   1.607  2.0308  1.8755 -2.2690
  165MOL0     H22228  -1.156   2.866   1.479  3.6213  0.5960 -0.4568
  165MOL0     H22229  -1.241   2.671   1.562  1.1351 -0.3202 -0.2277
  165MOL0     H22230  -1.106   2.672   1.677  2.7589  0.4602 -4.5235
  165MOL0     H22231  -1.388   2.770   1.692  0.7936 -0.8106 -1.3013
  165MOL0     H22232  -1.283   2.828   1.821  5.2416 -0.3960  0.0936
  165MOL0     H22233  -1.206   2.578   1.860  0.0586 -0.6558 -1.1290
  165MOL0     H22234  -1.342   2.537   1.759 -1.7021  1.3491 -0.3356
  165MOL0     H22235  -1.333   2.362   1.922  0.1229 -0.9480 -1.0475
  165MOL0     H22236  -1.407   2.197   2.054  0.5419 -0.5386  1.3413
  165MOL0     H22237  -1.846   2.002   2.179 -2.3985 -0.3088 -0.4374
  165MOL0     H22238  -1.957   1.819   2.281  2.6792 -2.4104  1.4627
  165MOL0     H22239  -1.833   1.699   2.689  0.1270 -0.1394  1.3656
  165MOL0     H22240  -1.965   1.798   2.730  0.1110 -0.8118  2.2590
  165MOL0     H22241  -2.112   1.591   2.667 -0.0661 -0.2531 -2.6650
  165MOL0     H22242  -1.964   1.502   2.626 -2.9171 -1.0828  0.1589
  165MOL0     H22243  -1.894   1.559   2.871  0.0834 -1.2320 -0.3101
  165MOL0     H22244  -2.067   1.582   2.900 -1.3561 -0.7491  0.2827
  165MOL0     H22245  -1.932   1.331   2.782 -0.2531 -0.0978 -2.0861
  165MOL0     H22246  -2.111   1.362   2.778  0.2238  1.0209 -0.5802
  165MOL0     H22247  -2.141   1.327   3.002 -0.8652 -0.9057 -1.7599
  165MOL0     H22248  -1.974   1.390   3.045  3.6649 -1.0936 -0.4942
  165MOL0     H22249  -2.016   1.161   3.107  1.9929  1.8129  1.8158
  165MOL0     H22250  -2.011   1.100   2.939  0.1536 -0.9011 -0.1112
  165MOL0     H22251  -1.786   1.252   2.944 -1.9348  1.7100  0.5300
  165MOL0     H22252  -1.809   1.081   2.945 -1.7940 -0.4448  0.3539
  165MOL0     H22253  -1.653   1.148   3.127 -1.0466 -1.2935 -0.6193
  165MOL0     H22254  -1.774   1.264   3.197 -0.4758 -0.8722  2.0638
  165MOL0     H22255  -1.811   1.921   2.665 -1.1363  0.4396 -0.4900
  165MOL0     H22256  -1.713   2.138   2.576  0.6938 -1.0141  0.4009
  165MOL0     H22257  -1.710   2.444   2.235 -2.1752 -0.6223 -3.5343
  165MOL0     H22258  -1.606   2.651   2.095  2.3313  0.8019  1.3993
  165MOL0     H22259  -0.170   3.250   2.494  0.3734 -2.5269 -0.1868
  165MOL0     H22260  -0.024   3.449   2.480 -2.2859  0.4013  0.1899
  165MOL0     H22261   0.238   3.676   2.422  2.8448  2.2831  1.4250
  165MOL0     H22262   0.273   3.901   2.491 -0.5625  0.1361  0.4455
  165MOL0     H22263   0.424   4.097   2.427  0.5395  1.1845  2.0674
  165MOL0     H22264   0.293   4.140   2.535  1.1546  2.9588  0.8483
  165MOL0     H22265   0.410   4.314   2.323 -1.0306  1.7282  0.0080
  165MOL0     H22266   0.485   4.306   2.479 -0.3477  1.5502 -0.1483
  165MOL0     H22267   0.249   4.336   2.583  1.0878 -0.6483 -0.0338
  165MOL0     H22268   0.201   4.412   2.425  1.2043 -1.6298 -2.2092
  165MOL0     H22269   0.402   4.577   2.458  1.5999  0.5350  0.0481
  165MOL0     H22270   0.268   4.589   2.577  1.4773 -0.2655  2.6960
  165MOL0     H22271   0.594   4.492   2.817 -1.6373  0.1303  1.7589
  165MOL0     H22272   0.162   4.058   2.114 -1.0542  1.5929  0.8852
  165MOL0     H22273   0.121   3.928   1.944 -2.6713 -0.3403  0.4367
  165MOL0     H22274   0.191   3.771   1.935 -1.0104 -0.5328  0.4980
  165MOL0     H22275   0.015   3.796   1.964  0.4714  0.5080 -0.7028
  166MOL0     O22276   3.740   7.258   7.375  0.9187 -0.6998  0.4552
  166MOL0     C22277   3.653   7.288   7.467  0.0197  0.0764 -0.0231
  166MOL0     O22278   3.620   7.200   7.568 -0.1866  0.1026 -0.7015
  166MOL0     C22279   3.680   7.073   7.586 -0.1790 -0.9658 -0.0706
  166MOL0     C22280   3.810   7.076   7.622  0.3211 -0.6757  1.3766
  166MOL0     C22281   3.881   6.972   7.669  0.1581 -0.0585  0.1749
  166MOL0     C22282   3.823   6.849   7.673 -0.2019  0.4701  0.7718
  166MOL0     O22283   3.910   6.749   7.707  0.2599 -0.3624  0.2833
  166MOL0     C22284   3.902   6.621   7.634 -1.3454 -0.9756 -0.2486
  166MOL0     C22285   3.996   6.523   7.715  1.1222 -0.3893 -0.6181
  166MOL0     C22286   3.940   6.494   7.860  0.5903 -0.1953  0.2600
  166MOL0     C22287   4.031   6.411   7.944 -0.4402 -0.5352  0.0064
  166MOL0     C22288   4.077   6.270   7.898 -0.0105 -0.5852 -0.3911
  166MOL0     C22289   4.151   6.189   8.007  0.4842  0.6483  0.3575
  166MOL0     C22290   4.224   6.065   7.937  0.2240 -0.4421 -0.1475
  166MOL0     C22291   4.314   5.985   8.039 -0.2443 -0.4020 -0.8624
  166MOL0     N22292   4.399   5.876   7.975 -1.3972 -0.3328  0.0821
  166MOL0     C22293   4.374   5.815   7.857 -0.0463 -0.1337  0.3569
  166MOL0     C22294   4.502   5.773   7.819  0.9167  0.0608  0.1435
  166MOL0     C22295   4.536   5.696   7.698  0.2420 -0.0550 -0.5602
  166MOL0     C22296   4.597   5.772   7.585 -0.1865 -0.5980 -0.4527
  166MOL0     C22297   4.743   5.800   7.605 -0.7929  0.5348  0.2968
  166MOL0     C22298   4.825   5.837   7.477 -0.3737  0.7298  0.1877
  166MOL0     O22299   4.772   5.940   7.397 -0.1319 -0.4116 -0.3815
  166MOL0     C22300   4.779   6.076   7.422  0.0967  1.3103 -0.6435
  166MOL0     C22301   4.841   6.133   7.534 -0.3039 -0.5870 -0.3376
  166MOL0     C22302   4.876   6.271   7.542 -0.1437  0.4691 -0.1747
  166MOL0     C22303   4.838   6.355   7.445 -1.2467  0.2189  0.6632
  166MOL0     C22304   4.879   6.503   7.460 -0.0223  0.2711 -0.4401
  166MOL0     O22305   4.985   6.533   7.540 -0.0352 -0.4979  0.2320
  166MOL0     C22306   5.006   6.642   7.622  0.3969 -0.3141 -2.0436
  166MOL0     C22307   4.924   6.758   7.648 -0.3161 -1.0381  0.2696
  166MOL0     C22308   4.957   6.851   7.743  0.3353  0.0111  0.4808
  166MOL0     C22309   5.067   6.843   7.821 -0.4367  0.9611  0.0728
  166MOL0     O22310   5.094   6.952   7.892  0.3825 -0.7138  0.0620
  166MOL0     C22311   5.148   6.946   8.025 -0.0630 -0.4354 -0.2356
  166MOL0     C22312   5.296   6.906   8.050 -0.1928 -0.4568  0.1299
  166MOL0     C22313   5.398   6.974   7.947 -0.5363  0.5833 -0.1239
  166MOL0     C22314   5.529   6.897   7.966 -0.3388 -0.5654  0.2829
  166MOL0     C22315   5.636   6.919   7.848 -0.0676  0.1776  0.6206
  166MOL0     C22316   5.733   6.793   7.829 -0.7071  0.5223  0.2037
  166MOL0     C22317   5.839   6.820   7.710  0.5003 -1.5613 -0.3130
  166MOL0     C22318   5.983   6.818   7.760  0.1108 -0.7015  0.2720
  166MOL0    Cl22319   6.026   6.655   7.805 -0.4139 -0.4475  0.5511
  166MOL0     C22320   5.158   6.742   7.791 -0.0374  0.6667  0.5582
  166MOL0     C22321   5.123   6.643   7.702 -0.6003 -0.4936  0.6141
  166MOL0     O22322   4.821   6.585   7.390  0.0133  0.0449 -0.4897
  166MOL0     C22323   4.778   6.306   7.329  0.1432 -0.5568  0.0630
  166MOL0     C22324   4.744   6.169   7.321 -0.1298  0.3733 -0.3075
  166MOL0     N22325   4.593   5.794   7.918  0.1093 -1.1284 -0.0879
  166MOL0     N22326   4.532   5.870   8.001  0.4294 -0.2281  0.1770
  166MOL0     C22327   3.693   6.834   7.628  0.6949  0.0344 -0.8708
  166MOL0     C22328   3.625   6.953   7.581 -0.3884 -0.1447  0.2022
  166MOL0     C22329   3.569   7.414   7.457 -0.2318 -0.3094 -0.5310
  166MOL0     C22330   3.463   7.431   7.551  0.1142 -0.5255 -0.2612
  166MOL0     C22331   3.393   7.553   7.552  0.5395  0.4047  0.0515
  166MOL0     C22332   3.402   7.643   7.441 -0.1818  0.6878  0.3473
  166MOL0     O22333   3.311   7.751   7.429  0.1281  0.5563  0.7450
  166MOL0     C22334   3.202   7.769   7.524  1.0398 -0.0527 -0.0227
  166MOL0     C22335   3.123   7.899   7.519 -0.9081 -0.3790  0.1200
  166MOL0     C22336   3.218   8.018   7.563 -0.1373  0.3810  0.4133
  166MOL0     C22337   3.152   8.157   7.544  0.1507  0.0906 -0.0971
  166MOL0     C22338   3.034   8.176   7.628 -0.0645  0.2803  0.4214
  166MOL0     C22339   2.928   8.203   7.685 -0.4097 -0.5206  0.2120
  166MOL0     C22340   3.503   7.616   7.343 -0.2369  0.7353  0.1546
  166MOL0     C22341   3.593   7.510   7.349  0.6071 -0.3117 -0.4253
  166MOL0     C22342   3.700   7.514   7.242 -1.0607  0.0848  0.6547
  166MOL0     H22343   3.863   7.171   7.626 -0.3480 -0.0283 -1.9949
  166MOL0     H22344   3.984   6.977   7.704 -0.1399  2.8668  0.8371
  166MOL0     H22345   3.801   6.579   7.634 -1.2740 -1.1776  0.6838
  166MOL0     H22346   3.948   6.625   7.535 -1.1424 -0.6333 -0.1420
  166MOL0     H22347   4.100   6.554   7.706  0.2204  3.0388 -1.0780
  166MOL0     H22348   3.992   6.424   7.669 -0.1869 -0.9049  0.5217
  166MOL0     H22349   3.845   6.441   7.861 -0.1382  1.0429 -0.6031
  166MOL0     H22350   3.937   6.592   7.910  1.1366 -0.2865  0.4800
  166MOL0     H22351   4.119   6.475   7.940 -1.2957  0.6732 -3.1032
  166MOL0     H22352   3.978   6.407   8.040  0.8260  3.1909  1.0057
  166MOL0     H22353   3.991   6.216   7.858 -0.3738  1.1041 -2.0395
  166MOL0     H22354   4.141   6.285   7.810 -0.4381 -0.7967 -0.7415
  166MOL0     H22355   4.220   6.258   8.056 -1.4688  1.7982  1.6573
  166MOL0     H22356   4.072   6.158   8.077 -1.9032  3.3151 -0.9381
  166MOL0     H22357   4.304   6.105   7.875  1.5067 -0.8081  1.2280
  166MOL0     H22358   4.152   6.007   7.878 -0.4868  0.6681 -0.3957
  166MOL0     H22359   4.373   6.059   8.093 -3.6893  0.5956  1.9598
  166MOL0     H22360   4.246   5.944   8.114  0.1306  0.3158 -0.1211
  166MOL0     H22361   4.283   5.810   7.800 -0.3782 -3.0785  0.9463
  166MOL0     H22362   4.590   5.606   7.727  3.5563  1.3180 -1.9997
  166MOL0     H22363   4.440   5.656   7.665 -0.4065  1.1565 -0.2155
  166MOL0     H22364   4.576   5.696   7.509 -0.4196 -0.8463 -0.1379
  166MOL0     H22365   4.544   5.866   7.567  1.5855  0.2806 -1.3914
  166MOL0     H22366   4.800   5.714   7.641 -1.2552  1.3675  3.3126
  166MOL0     H22367   4.746   5.880   7.680 -2.9187  0.4509  0.5210
  166MOL0     H22368   4.827   5.745   7.418  0.4751 -0.2981  1.7630
  166MOL0     H22369   4.925   5.865   7.510 -0.3685  3.7539 -1.9387
  166MOL0     H22370   4.873   6.079   7.623 -0.2232  3.8893  2.6658
  166MOL0     H22371   4.932   6.303   7.629  0.2973 -2.8214  0.8991
  166MOL0     H22372   4.830   6.780   7.599  0.3848  1.4807 -0.0827
  166MOL0     H22373   4.893   6.936   7.767  2.6222  1.4858  1.6653
  166MOL0     H22374   5.134   7.044   8.074  0.9900 -1.0892  1.4555
  166MOL0     H22375   5.089   6.873   8.081  1.3151  0.0626  2.0012
  166MOL0     H22376   5.325   6.943   8.149 -2.1239  5.5478 -1.1221
  166MOL0     H22377   5.304   6.798   8.039 -2.3473 -0.5377 -1.2511
  166MOL0     H22378   5.371   6.973   7.841  1.4049  2.7863 -0.7226
  166MOL0     H22379   5.415   7.080   7.971  1.9751  0.1210  0.4054
  166MOL0     H22380   5.522   6.791   7.992  2.8063 -0.1801  3.5134
  166MOL0     H22381   5.577   6.949   8.050 -2.2738  0.0629  1.0424
  166MOL0     H22382   5.699   7.004   7.874  0.5880 -0.6575  1.8949
  166MOL0     H22383   5.593   6.938   7.749  0.6891 -1.0277  0.0300
  166MOL0     H22384   5.782   6.782   7.926  0.8717  2.2397 -0.3521
  166MOL0     H22385   5.673   6.704   7.811 -1.0254  0.8116 -0.1846
  166MOL0     H22386   5.817   6.915   7.661 -0.5180 -0.2843  2.4234
  166MOL0     H22387   5.827   6.743   7.633 -0.5950  0.8546 -2.7159
  166MOL0     H22388   6.057   6.842   7.683  0.4702  0.9804  1.0831
  166MOL0     H22389   5.994   6.888   7.843  0.4871 -0.3754 -0.0477
  166MOL0     H22390   5.252   6.724   7.843 -2.0690 -3.8037  3.3179
  166MOL0     H22391   5.184   6.554   7.686  0.1654  0.6449 -4.2681
  166MOL0     H22392   4.745   6.357   7.240 -0.4427  0.3288  0.7735
  166MOL0     H22393   4.693   6.125   7.235  1.1032  1.4219 -1.6387
  166MOL0     H22394   3.651   6.734   7.618 -0.9927  0.5785  0.3039
  166MOL0     H22395   3.525   6.933   7.543  0.7702  0.4710 -3.4970
  166MOL0     H22396   3.433   7.361   7.629  0.4083 -0.0310  0.3033
  166MOL0     H22397   3.309   7.564   7.619  1.7136  1.3304  1.4391
  166MOL0     H22398   3.249   7.771   7.623  0.5540  3.2196  0.2499
  166MOL0     H22399   3.130   7.687   7.517  1.6724 -0.7474  1.3353
  166MOL0     H22400   3.028   7.900   7.573 -2.0076 -0.0552 -1.7218
  166MOL0     H22401   3.090   7.913   7.416 -2.0090  1.0853  0.6385
  166MOL0     H22402   3.312   8.005   7.509 -0.5795 -3.4285  0.2928
  166MOL0     H22403   3.255   8.006   7.665  2.0823 -1.4877 -0.5261
  166MOL0     H22404   3.227   8.235   7.553  1.1227 -0.6780 -1.2459
  166MOL0     H22405   3.125   8.177   7.440 -0.9569 -0.1246  0.1290
  166MOL0     H22406   2.837   8.222   7.739 -1.9085 -3.1919 -1.1515
  166MOL0     H22407   3.512   7.687   7.262 -2.0648  1.2514  0.3435
  166MOL0     H22408   3.716   7.615   7.202  2.1674 -0.0105  1.4477
  166MOL0     H22409   3.794   7.479   7.284 -1.8653 -2.2842  0.6230
  166MOL0     H22410   3.667   7.452   7.158 -1.2972  0.0481  0.7729
  167MOL0     O22411   8.258   5.164   3.561  0.4234  0.2883 -0.1260
  167MOL0     C22412   8.332   5.226   3.628 -0.0184 -0.5984  0.1760
  167MOL0     O22413   8.302   5.327   3.699 -0.7932 -1.3855 -0.1256
  167MOL0     C22414   8.169   5.336   3.722  1.1876 -0.0034 -0.0990
  167MOL0     C22415   8.084   5.393   3.628  0.6413  0.7350  0.2357
  167MOL0     C22416   7.951   5.407   3.650  0.6520  0.4091 -0.2002
  167MOL0     C22417   7.898   5.369   3.777 -0.1057  0.6848  0.3763
  167MOL0     O22418   7.770   5.395   3.822  0.3535  0.0263  0.4113
  167MOL0     C22419   7.669   5.452   3.739  0.5599 -0.6387 -0.2031
  167MOL0     C22420   7.557   5.348   3.723 -0.3207  0.3595  1.1397
  167MOL0     C22421   7.620   5.209   3.691  0.4239  0.0076  0.4043
  167MOL0     C22422   7.516   5.112   3.635  0.0726 -0.0866  0.9510
  167MOL0     C22423   7.474   5.143   3.493  0.1608 -0.1023  0.6572
  167MOL0     C22424   7.425   5.011   3.416  0.0270 -0.2101  0.5717
  167MOL0     C22425   7.371   5.036   3.273  0.5336 -0.3382 -0.0730
  167MOL0     C22426   7.296   4.918   3.217  0.2648 -0.0198  0.1325
  167MOL0     N22427   7.312   4.912   3.069  0.1451  0.0358 -0.4488
  167MOL0     C22428   7.226   4.962   2.980  0.9659 -1.0548  0.9507
  167MOL0     C22429   7.262   4.910   2.862  0.8399 -0.6704  0.0549
  167MOL0     C22430   7.190   4.949   2.740  0.3518  0.0353 -0.0723
  167MOL0     C22431   7.240   4.890   2.609 -0.0418  0.1462 -0.2800
  167MOL0     C22432   7.383   4.941   2.585  0.8740  0.4887 -0.6866
  167MOL0     C22433   7.428   4.877   2.451 -0.5819  0.6636 -0.6350
  167MOL0     O22434   7.559   4.942   2.429 -0.9194 -0.5568 -0.0645
  167MOL0     C22435   7.584   4.934   2.297 -0.2260 -0.9595  0.3255
  167MOL0     C22436   7.587   4.812   2.232  0.4963 -0.8268 -0.2156
  167MOL0     C22437   7.615   4.802   2.095  0.8479 -0.0648 -0.2488
  167MOL0     C22438   7.635   4.920   2.023  0.0489  0.4911  0.7057
  167MOL0     C22439   7.657   4.906   1.876 -0.4103 -0.4528 -0.5246
  167MOL0     O22440   7.696   4.781   1.823  0.4436 -0.3265 -0.1735
  167MOL0     C22441   7.675   4.746   1.697  0.4816  0.4521 -0.3664
  167MOL0     C22442   7.734   4.619   1.667  0.3314 -0.5371  0.0412
  167MOL0     C22443   7.713   4.553   1.547  0.6247  0.3865  0.6068
  167MOL0     C22444   7.638   4.620   1.443  0.5461 -0.9328  0.5855
  167MOL0     O22445   7.620   4.547   1.330  0.4743 -0.0903  0.2180
  167MOL0     C22446   7.514   4.590   1.239  0.2492  0.9379 -0.2865
  167MOL0     C22447   7.527   4.515   1.107  0.4445  0.2719  0.8338
  167MOL0     C22448   7.399   4.527   1.022  0.6749  0.2344  0.2966
  167MOL0     C22449   7.404   4.409   0.922 -0.0978  0.3374 -0.0538
  167MOL0     C22450   7.282   4.429   0.837  0.3573 -0.1514 -0.0605
  167MOL0     C22451   7.151   4.422   0.910 -0.1000 -0.7277 -0.0783
  167MOL0     C22452   7.039   4.389   0.812  0.3718  0.0591 -0.4850
  167MOL0     C22453   7.006   4.502   0.717  0.0408 -0.7944 -0.1882
  167MOL0    Cl22454   6.910   4.634   0.796 -0.5214 -0.4395 -0.4866
  167MOL0     C22455   7.582   4.747   1.468 -0.0234  0.4211 -0.7862
  167MOL0     C22456   7.586   4.794   1.605 -0.4175  0.7453  0.5880
  167MOL0     O22457   7.637   5.007   1.810 -0.3305 -0.4846 -0.0184
  167MOL0     C22458   7.639   5.039   2.081  0.2405 -0.1507 -0.0050
  167MOL0     C22459   7.614   5.053   2.218  0.4769 -0.5489 -0.4263
  167MOL0     N22460   7.363   4.823   2.881 -0.1607  0.3152  0.2915
  167MOL0     N22461   7.398   4.816   3.007  0.5164 -0.1625 -0.2599
  167MOL0     C22462   7.978   5.316   3.880  0.1994  0.4963 -0.3753
  167MOL0     C22463   8.112   5.298   3.843  0.1285 -0.0606 -0.3058
  167MOL0     C22464   8.475   5.177   3.638  0.1492 -0.1014  0.6543
  167MOL0     C22465   8.492   5.038   3.624  0.2478  0.0253 -0.3956
  167MOL0     C22466   8.615   4.987   3.635 -0.6415 -0.1967  0.3709
  167MOL0     C22467   8.731   5.062   3.656 -0.4408  0.8182  1.2474
  167MOL0     O22468   8.852   4.994   3.672  0.0147 -0.3038 -0.6057
  167MOL0     C22469   8.929   4.976   3.550 -0.2139  1.0345 -0.2428
  167MOL0     C22470   8.958   4.830   3.534 -0.0592 -1.3318 -0.5181
  167MOL0     C22471   8.851   4.744   3.463 -0.2853 -1.2812 -0.0654
  167MOL0     C22472   8.919   4.638   3.372 -0.6761 -0.2086 -0.1044
  167MOL0     C22473   8.947   4.507   3.436 -0.1614  0.0985  0.4603
  167MOL0     C22474   8.953   4.407   3.513  0.1321  0.0636 -0.2750
  167MOL0     C22475   8.721   5.200   3.660 -0.2242 -0.5208 -0.3182
  167MOL0     C22476   8.589   5.261   3.660  0.5337  0.1768 -0.1851
  167MOL0     C22477   8.591   5.411   3.680 -0.2438 -0.1153 -0.4907
  167MOL0     H22478   8.117   5.424   3.529 -0.4934  0.7306 -0.1565
  167MOL0     H22479   7.885   5.447   3.574 -0.4057  0.1109  0.5407
  167MOL0     H22480   7.635   5.541   3.792 -1.6792 -0.7435 -1.3093
  167MOL0     H22481   7.713   5.491   3.647  3.0939  1.4780  1.7665
  167MOL0     H22482   7.476   5.375   3.653 -1.1286  1.5419  2.4737
  167MOL0     H22483   7.494   5.341   3.812  2.7095  0.0057  3.4096
  167MOL0     H22484   7.682   5.164   3.768  4.6402 -0.0600 -2.6416
  167MOL0     H22485   7.695   5.233   3.614 -0.1224 -2.1856 -0.9002
  167MOL0     H22486   7.552   5.009   3.620  0.0828  0.3649 -3.6192
  167MOL0     H22487   7.431   5.098   3.703 -1.2392 -0.0665 -0.5992
  167MOL0     H22488   7.402   5.225   3.485  2.3457  1.9586  0.7678
  167MOL0     H22489   7.558   5.185   3.436 -0.5329 -0.1786 -0.4438
  167MOL0     H22490   7.513   4.948   3.401  1.0832  1.5056 -0.9057
  167MOL0     H22491   7.343   4.961   3.469 -2.2694  1.5838 -1.0659
  167MOL0     H22492   7.455   5.070   3.211  1.7281 -1.0324  1.1229
  167MOL0     H22493   7.286   5.105   3.265 -1.6589 -2.9165 -0.3376
  167MOL0     H22494   7.331   4.822   3.256  2.2075  0.7710  0.4475
  167MOL0     H22495   7.189   4.935   3.232  0.0108  0.2320 -1.7349
  167MOL0     H22496   7.139   5.026   2.991  0.0934 -1.6235 -1.7578
  167MOL0     H22497   7.086   4.918   2.752 -0.0724  0.5424 -2.0321
  167MOL0     H22498   7.191   5.058   2.729  0.0189  0.1699  1.0723
  167MOL0     H22499   7.247   4.781   2.606 -2.2667 -0.0912  0.8419
  167MOL0     H22500   7.177   4.920   2.526 -0.8059  3.5866  1.3553
  167MOL0     H22501   7.448   4.903   2.664 -1.1049 -1.2962  0.2121
  167MOL0     H22502   7.389   5.048   2.564  3.8375  0.9906  2.0299
  167MOL0     H22503   7.362   4.886   2.365 -2.2379  1.4309  0.6432
  167MOL0     H22504   7.450   4.770   2.458 -0.9046  0.4835 -2.1989
  167MOL0     H22505   7.587   4.722   2.292  2.3152 -1.6721 -1.3885
  167MOL0     H22506   7.607   4.700   2.059 -1.0179 -1.3539  3.3343
  167MOL0     H22507   7.800   4.583   1.746  0.6990 -0.2277 -0.1202
  167MOL0     H22508   7.759   4.458   1.524  3.1596  1.6197  0.2460
  167MOL0     H22509   7.414   4.576   1.281  1.1471  0.2682  1.7192
  167MOL0     H22510   7.509   4.698   1.221 -2.8889  0.6714 -1.5512
  167MOL0     H22511   7.602   4.567   1.047 -0.3227 -0.7286 -1.0929
  167MOL0     H22512   7.564   4.412   1.117 -0.4281 -0.6440 -3.5323
  167MOL0     H22513   7.307   4.507   1.077  0.6046 -0.2877 -0.0111
  167MOL0     H22514   7.390   4.630   0.984 -0.8023  0.7833  1.9688
  167MOL0     H22515   7.399   4.316   0.979  0.1675 -0.8164 -1.8589
  167MOL0     H22516   7.489   4.399   0.855 -0.5378 -1.1040 -0.4156
  167MOL0     H22517   7.289   4.359   0.754 -0.8635  0.6354 -0.8570
  167MOL0     H22518   7.297   4.530   0.799  1.5728  0.6725  2.4269
  167MOL0     H22519   7.151   4.353   0.996 -2.0892 -1.4277 -0.5936
  167MOL0     H22520   7.131   4.518   0.959 -0.7210 -0.5958 -0.5790
  167MOL0     H22521   6.951   4.350   0.864 -1.6120  0.7510 -3.0668
  167MOL0     H22522   7.060   4.300   0.751 -1.3208 -0.1871 -0.7639
  167MOL0     H22523   7.097   4.546   0.676 -1.4506  2.1483 -0.5781
  167MOL0     H22524   6.962   4.453   0.629  0.7609 -1.7106 -0.0589
  167MOL0     H22525   7.540   4.815   1.395 -2.9136 -0.4949 -0.1127
  167MOL0     H22526   7.513   4.871   1.627 -0.7315  0.1141  1.8582
  167MOL0     H22527   7.667   5.126   2.021 -0.6811  0.3479  0.2688
  167MOL0     H22528   7.619   5.148   2.269  1.3256 -1.0910  0.5403
  167MOL0     H22529   7.922   5.287   3.968 -0.0977 -3.4450 -1.6952
  167MOL0     H22530   8.175   5.276   3.928  1.2387 -3.3882 -1.8269
  167MOL0     H22531   8.407   4.975   3.599  1.0873 -0.9003 -1.0269
  167MOL0     H22532   8.608   4.879   3.626 -2.6311  0.0624 -3.2753
  167MOL0     H22533   9.023   5.031   3.558 -1.1800  2.6792  0.1040
  167MOL0     H22534   8.892   5.020   3.458 -1.6603 -0.2501 -0.3184
  167MOL0     H22535   8.981   4.787   3.632  1.3815 -0.5388 -0.4803
  167MOL0     H22536   9.050   4.828   3.475 -0.1623  1.0548 -0.8449
  167MOL0     H22537   8.788   4.814   3.406 -1.8389 -2.2297  0.4200
  167MOL0     H22538   8.780   4.694   3.529 -1.6829 -1.1674 -1.4164
  167MOL0     H22539   8.864   4.609   3.282  3.4564 -1.3947 -2.5295
  167MOL0     H22540   9.010   4.676   3.325 -2.2727  0.7628 -2.5753
  167MOL0     H22541   8.957   4.329   3.587 -0.7715 -1.0212 -1.3213
  167MOL0     H22542   8.813   5.256   3.677 -1.5032  1.6718 -0.2055
  167MOL0     H22543   8.547   5.463   3.593 -0.5723  1.5193  0.6082
  167MOL0     H22544   8.532   5.424   3.771 -0.6583 -6.5424  0.6051
  167MOL0     H22545   8.686   5.462   3.694  0.3530 -1.1215 -0.7670
  168MOL0     O22546   1.647   4.076   4.550  0.2965  0.1470  0.8024
  168MOL0     C22547   1.542   4.140   4.544 -0.0532  0.4000 -0.9633
  168MOL0     O22548   1.497   4.218   4.643 -0.2184 -0.0472 -0.3545
  168MOL0     C22549   1.573   4.240   4.751 -0.9182 -0.8097  0.3726
  168MOL0     C22550   1.682   4.320   4.750 -0.1794  0.2509  0.4724
  168MOL0     C22551   1.731   4.378   4.870  0.2414  0.0884  0.5009
  168MOL0     C22552   1.688   4.333   4.998 -0.2243 -1.1229 -0.7445
  168MOL0     O22553   1.739   4.370   5.122 -0.0888 -0.2375  0.2422
  168MOL0     C22554   1.878   4.361   5.124 -1.0100  0.2947  1.5388
  168MOL0     C22555   1.942   4.493   5.159 -0.0631 -0.5983 -0.2800
  168MOL0     C22556   1.932   4.511   5.311  0.3174  0.1438  0.5064
  168MOL0     C22557   2.065   4.476   5.389  0.3273 -0.6379  1.3009
  168MOL0     C22558   2.036   4.476   5.546  0.5285  0.0047 -0.2729
  168MOL0     C22559   1.957   4.349   5.579  0.8602  0.0230  0.5222
  168MOL0     C22560   1.919   4.343   5.728 -0.2524  0.2112 -0.2486
  168MOL0     C22561   1.855   4.209   5.749  0.2644  0.0660 -0.1910
  168MOL0     N22562   1.958   4.103   5.770 -0.2718 -0.2312 -0.0035
  168MOL0     C22563   1.953   3.980   5.722 -0.0599  0.1786 -0.1630
  168MOL0     C22564   2.076   3.922   5.742  0.3770 -0.0717  0.4539
  168MOL0     C22565   2.111   3.783   5.686  0.1617 -0.4921 -0.1991
  168MOL0     C22566   2.194   3.807   5.567  0.7360  0.1859  0.4597
  168MOL0     C22567   2.191   3.677   5.485 -0.3241  0.5892 -0.2335
  168MOL0     C22568   2.315   3.665   5.404 -0.0860 -0.9018 -0.0619
  168MOL0     O22569   2.286   3.624   5.265 -0.6419 -0.2648 -0.6339
  168MOL0     C22570   2.254   3.723   5.177  0.6838  0.3156  0.6784
  168MOL0     C22571   2.226   3.677   5.043 -0.1200 -0.7584  0.2582
  168MOL0     C22572   2.191   3.770   4.941  0.7390 -0.0389  0.0053
  168MOL0     C22573   2.180   3.912   4.968  0.1726 -1.0769  0.4585
  168MOL0     C22574   2.155   4.009   4.862  0.4874  0.9308  0.3639
  168MOL0     O22575   2.127   3.962   4.737 -0.4824  0.2870 -0.0987
  168MOL0     C22576   2.125   4.049   4.630  1.7583  0.0487  0.3596
  168MOL0     C22577   2.048   3.999   4.522  0.6216 -0.7466  0.0783
  168MOL0     C22578   2.009   4.094   4.416 -0.9418  0.7148  0.3327
  168MOL0     C22579   2.087   4.212   4.402 -0.2646 -0.1229 -0.4125
  168MOL0     O22580   2.063   4.269   4.282 -0.4829 -1.1639  1.0904
  168MOL0     C22581   2.164   4.351   4.223  0.2193 -0.3748 -0.2300
  168MOL0     C22582   2.095   4.489   4.189  1.0425  0.5242  0.4441
  168MOL0     C22583   2.186   4.564   4.088 -0.0294 -0.0697 -0.6944
  168MOL0     C22584   2.104   4.669   4.014 -0.0390 -0.0529  0.2882
  168MOL0     C22585   2.199   4.721   3.912  0.0509 -0.4016  0.1023
  168MOL0     C22586   2.144   4.841   3.831 -0.5567  0.4624  0.9138
  168MOL0     C22587   2.197   4.855   3.689  0.4345 -0.6319 -0.1530
  168MOL0     C22588   2.346   4.873   3.700 -0.9446 -0.6322  0.0887
  168MOL0    Cl22589   2.400   5.023   3.795 -0.0991 -0.2574 -0.3716
  168MOL0     C22590   2.178   4.256   4.496 -0.2589 -0.6194  0.2700
  168MOL0     C22591   2.194   4.174   4.608  0.4707 -0.3875  0.6014
  168MOL0     O22592   2.147   4.122   4.897  0.4312 -0.4996  0.2578
  168MOL0     C22593   2.203   3.950   5.100 -0.5374  0.3460  0.2192
  168MOL0     C22594   2.239   3.858   5.198  0.1037  0.4521 -0.1280
  168MOL0     N22595   2.157   4.018   5.789  0.0774  0.7205  0.5601
  168MOL0     N22596   2.091   4.126   5.804  0.7048  0.6528 -0.4657
  168MOL0     C22597   1.574   4.248   4.998 -0.2630 -0.6193  0.2051
  168MOL0     C22598   1.521   4.208   4.874  0.1752  0.4798 -0.2575
  168MOL0     C22599   1.483   4.161   4.411 -0.0306 -0.1099 -0.0553
  168MOL0     C22600   1.505   4.070   4.312  0.0003 -0.0644 -1.0204
  168MOL0     C22601   1.455   4.077   4.186 -0.9017 -0.1849  0.1229
  168MOL0     C22602   1.393   4.193   4.137 -0.4092  0.5495  0.1038
  168MOL0     O22603   1.361   4.220   4.011 -0.1073  0.2787  0.5065
  168MOL0     C22604   1.257   4.128   3.953 -0.2600  0.7092  0.5200
  168MOL0     C22605   1.229   4.162   3.807 -0.8586 -0.1248  0.0897
  168MOL0     C22606   1.084   4.124   3.784  0.1108 -0.2408  0.0554
  168MOL0     C22607   1.052   4.106   3.638  0.9357  0.4822 -1.0861
  168MOL0     C22608   1.022   4.247   3.590  0.4223  0.6811 -0.8133
  168MOL0     C22609   0.990   4.357   3.561  0.2948 -1.0824 -0.1839
  168MOL0     C22610   1.378   4.292   4.230  0.6516  1.0205  0.0286
  168MOL0     C22611   1.421   4.280   4.365 -0.0410 -0.4803  0.0055
  168MOL0     C22612   1.402   4.406   4.446 -0.3995 -0.0461 -0.1403
  168MOL0     H22613   1.739   4.347   4.662  1.0550  0.7126  1.3779
  168MOL0     H22614   1.804   4.458   4.858  1.1242 -0.8475 -0.6983
  168MOL0     H22615   1.897   4.285   5.200  2.0949 -0.3694  0.2716
  168MOL0     H22616   1.918   4.330   5.027 -1.9119  4.0599 -0.2221
  168MOL0     H22617   1.894   4.572   5.099 -1.4725  0.1110  1.6819
  168MOL0     H22618   2.048   4.495   5.131 -0.1034 -2.6391 -0.7428
  168MOL0     H22619   1.843   4.467   5.356 -0.3625  2.8439  2.0284
  168MOL0     H22620   1.920   4.619   5.323  1.8807  0.2066  1.9384
  168MOL0     H22621   2.104   4.378   5.357  3.1363  1.2749 -1.7422
  168MOL0     H22622   2.142   4.548   5.361  1.0218 -0.7301  2.8441
  168MOL0     H22623   2.130   4.473   5.602 -1.8725  2.6173  4.4755
  168MOL0     H22624   1.975   4.563   5.569 -2.5031 -1.2345 -2.8412
  168MOL0     H22625   1.862   4.348   5.526  1.6513 -3.9226 -1.1693
  168MOL0     H22626   2.020   4.267   5.544  0.2565  0.6943 -2.3446
  168MOL0     H22627   1.852   4.422   5.763  0.5687  1.7305 -1.9226
  168MOL0     H22628   2.009   4.361   5.787  0.0305 -0.9630 -0.2823
  168MOL0     H22629   1.795   4.203   5.841 -1.0636  3.6295 -0.6822
  168MOL0     H22630   1.782   4.193   5.669 -0.9305  2.9102  0.2086
  168MOL0     H22631   1.871   3.932   5.670  0.0742 -0.7147  0.4385
  168MOL0     H22632   2.175   3.731   5.758  0.0217 -1.4691 -0.7747
  168MOL0     H22633   2.015   3.735   5.669 -0.0796 -0.7644  1.6742
  168MOL0     H22634   2.150   3.885   5.505 -0.4532 -0.6187  0.2645
  168MOL0     H22635   2.296   3.833   5.596  0.8700 -0.4315  0.5641
  168MOL0     H22636   2.103   3.682   5.419  0.2141 -1.5111 -1.1932
  168MOL0     H22637   2.200   3.593   5.555  3.2819  0.7752 -0.2755
  168MOL0     H22638   2.393   3.598   5.440  0.9692  0.8137  1.0467
  168MOL0     H22639   2.356   3.766   5.407 -3.4402  0.6190  2.3021
  168MOL0     H22640   2.243   3.574   5.012 -0.5150 -0.4996 -0.8866
  168MOL0     H22641   2.184   3.719   4.845  0.3740 -0.5221  0.2844
  168MOL0     H22642   2.006   3.900   4.532  2.1900 -1.3615  0.9774
  168MOL0     H22643   1.941   4.076   4.333  0.7009 -0.6559 -0.8207
  168MOL0     H22644   2.256   4.369   4.279 -0.4589  4.6173 -0.3076
  168MOL0     H22645   2.186   4.287   4.137 -3.3218 -2.3822  0.1571
  168MOL0     H22646   2.001   4.470   4.136  1.5576  1.7026 -0.9780
  168MOL0     H22647   2.072   4.541   4.282 -0.7990 -2.5476  1.8487
  168MOL0     H22648   2.268   4.611   4.142 -0.8163  2.6594 -1.7243
  168MOL0     H22649   2.228   4.495   4.013  1.5010  4.2905 -4.2957
  168MOL0     H22650   2.083   4.760   4.071  2.1092  1.1625 -0.7735
  168MOL0     H22651   2.010   4.624   3.981 -0.7180  2.0357 -0.8158
  168MOL0     H22652   2.241   4.642   3.850  3.1207  1.2794 -0.1362
  168MOL0     H22653   2.273   4.766   3.978 -2.1275  0.7900  1.8745
  168MOL0     H22654   2.036   4.842   3.816 -0.4330  2.3900 -0.1801
  168MOL0     H22655   2.159   4.934   3.887 -2.4408 -1.2304  4.5954
  168MOL0     H22656   2.161   4.943   3.636 -2.0204 -2.1833 -1.2562
  168MOL0     H22657   2.160   4.771   3.630  0.2206 -0.6792  0.0474
  168MOL0     H22658   2.397   4.785   3.742 -0.6027 -0.4403  0.0819
  168MOL0     H22659   2.391   4.885   3.601 -0.7036 -0.3253  0.2326
  168MOL0     H22660   2.232   4.349   4.489 -0.3844 -0.4509  1.4016
  168MOL0     H22661   2.274   4.205   4.675  0.6219  0.8262 -0.1089
  168MOL0     H22662   2.212   4.054   5.128 -1.1651  0.0567  1.5462
  168MOL0     H22663   2.260   3.903   5.294  0.5439 -1.0616  0.5185
  168MOL0     H22664   1.554   4.194   5.090  0.1988 -4.5377 -1.7345
  168MOL0     H22665   1.439   4.138   4.882  1.4717 -0.8860  4.5309
  168MOL0     H22666   1.546   3.971   4.327 -0.1473  0.3663  3.3969
  168MOL0     H22667   1.489   3.996   4.121  0.0682 -0.1353  0.5560
  168MOL0     H22668   1.164   4.143   4.008 -0.9484  1.0496 -0.7002
  168MOL0     H22669   1.290   4.023   3.948 -2.9228 -0.2068  0.6463
  168MOL0     H22670   1.290   4.100   3.740 -1.5469 -1.8547  0.9847
  168MOL0     H22671   1.254   4.268   3.797 -0.6916 -0.2198 -0.5328
  168MOL0     H22672   1.014   4.194   3.831 -0.1104  1.4643 -2.5866
  168MOL0     H22673   1.066   4.023   3.821  2.4456 -0.3200  1.1637
  168MOL0     H22674   1.138   4.080   3.576  1.2430 -2.0596  0.2653
  168MOL0     H22675   0.972   4.036   3.614  3.5249 -2.2914 -2.3128
  168MOL0     H22676   0.947   4.453   3.541  2.0469 -0.3171 -0.4814
  168MOL0     H22677   1.326   4.381   4.195 -1.5910 -0.4577 -0.6667
  168MOL0     H22678   1.385   4.492   4.382  3.5896 -0.3995 -1.9635
  168MOL0     H22679   1.327   4.406   4.526 -3.2105 -0.3034 -2.6326
  168MOL0     H22680   1.493   4.419   4.506 -3.3855 -2.8616  5.9199
  169MOL0     O22681   9.860   0.174   4.055 -1.0518  0.1882 -0.1588
  169MOL0     C22682   9.922   0.069   4.052 -0.9087 -0.1491  0.3496
  169MOL0     O22683   9.862  -0.057   4.052 -0.4139  0.0229 -0.2134
  169MOL0     C22684   9.721  -0.082   4.059  0.2697 -0.2071 -0.0455
  169MOL0     C22685   9.659  -0.069   4.182 -0.0597  0.4046  0.1874
  169MOL0     C22686   9.524  -0.097   4.197 -0.0291 -0.4079  0.0725
  169MOL0     C22687   9.447  -0.136   4.084  0.5233  0.1144  0.4439
  169MOL0     O22688   9.310  -0.143   4.108 -0.3068  0.0459  0.4231
  169MOL0     C22689   9.232  -0.241   4.033  0.0687  0.1088 -0.2194
  169MOL0     C22690   9.164  -0.182   3.894  0.1718  0.6641  0.6692
  169MOL0     C22691   9.102  -0.045   3.902  0.0283 -0.3065 -0.4291
  169MOL0     C22692   9.036  -0.010   3.760  0.2782  0.0087  0.3916
  169MOL0     C22693   8.918  -0.093   3.701 -0.0317  0.0947 -0.2272
  169MOL0     C22694   8.858  -0.044   3.568  0.2518  0.3191  0.6173
  169MOL0     C22695   8.944  -0.091   3.445  0.1633  0.3814  0.2110
  169MOL0     C22696   8.948  -0.238   3.405 -0.5360  1.2588  0.6320
  169MOL0     N22697   8.831  -0.328   3.432 -0.2145  0.3029 -0.2200
  169MOL0     C22698   8.707  -0.322   3.373  0.3144 -0.2037  0.5377
  169MOL0     C22699   8.653  -0.439   3.395  0.3026  0.4919  0.0499
  169MOL0     C22700   8.510  -0.483   3.365 -0.5588 -0.6488 -0.2844
  169MOL0     C22701   8.416  -0.424   3.465 -0.3519 -1.2642 -1.0663
  169MOL0     C22702   8.267  -0.477   3.450 -1.1926  0.5152  0.1279
  169MOL0     C22703   8.163  -0.407   3.548 -0.0065  0.1651 -1.4512
  169MOL0     O22704   8.202  -0.435   3.684  0.0225  0.0957 -0.7817
  169MOL0     C22705   8.112  -0.415   3.793 -0.5002 -0.7537  0.3955
  169MOL0     C22706   8.168  -0.410   3.924  0.3811  0.1562 -0.0219
  169MOL0     C22707   8.089  -0.361   4.032 -1.0802 -0.5412  0.2483
  169MOL0     C22708   7.958  -0.335   4.025 -0.2553  1.1391 -0.0343
  169MOL0     C22709   7.883  -0.322   4.147  0.0002  0.0280  0.2452
  169MOL0     O22710   7.949  -0.311   4.275  0.8009  0.1923 -0.3287
  169MOL0     C22711   7.868  -0.288   4.385  0.5392  0.0355  0.2954
  169MOL0     C22712   7.800  -0.397   4.441  0.5613 -0.2617  0.3038
  169MOL0     C22713   7.711  -0.383   4.545  0.1984  0.0085 -0.7480
  169MOL0     C22714   7.685  -0.252   4.603  0.1788  0.2560 -0.0242
  169MOL0     O22715   7.609  -0.215   4.718 -0.7898 -0.4270  0.9540
  169MOL0     C22716   7.605  -0.327   4.809  0.0781  0.7304  0.5043
  169MOL0     C22717   7.509  -0.290   4.913 -0.5039  0.3984  0.6111
  169MOL0     C22718   7.584  -0.180   4.996  0.5273 -0.4466  0.8177
  169MOL0     C22719   7.490  -0.140   5.115 -0.0265  0.3429  0.2516
  169MOL0     C22720   7.575  -0.075   5.227  0.7563  0.1706  0.0245
  169MOL0     C22721   7.506  -0.084   5.361  0.1540 -0.7501  0.7737
  169MOL0     C22722   7.385  -0.001   5.359  1.3155  0.4778 -0.3348
  169MOL0     C22723   7.290   0.002   5.484  0.7189 -0.7155 -1.3450
  169MOL0    Cl22724   7.373   0.049   5.645  0.0692 -0.3217 -0.3820
  169MOL0     C22725   7.755  -0.149   4.541 -0.2881 -1.1454  0.2601
  169MOL0     C22726   7.843  -0.160   4.434 -0.2290  0.3280  0.1467
  169MOL0     O22727   7.760  -0.328   4.135 -0.2659  0.0310 -0.1288
  169MOL0     C22728   7.912  -0.325   3.898 -0.4336  0.3064  0.0417
  169MOL0     C22729   7.985  -0.357   3.778  0.8525 -0.3090  0.1317
  169MOL0     N22730   8.747  -0.518   3.458  1.0835  0.6064  1.2203
  169MOL0     N22731   8.850  -0.456   3.475  0.0809 -0.2749 -0.0878
  169MOL0     C22732   9.508  -0.145   3.957  0.3805  0.5938 -0.4489
  169MOL0     C22733   9.643  -0.118   3.951 -0.1644  0.8584 -0.0899
  169MOL0     C22734  10.069   0.068   4.077  0.1931 -0.3395  0.9592
  169MOL0     C22735  10.117   0.010   4.192 -0.5647  0.6476 -0.2031
  169MOL0     C22736  10.258   0.007   4.211 -0.2367 -0.5129 -0.2073
  169MOL0     C22737  10.344   0.050   4.113  0.3210 -0.8361  0.6508
  169MOL0     O22738  10.480   0.035   4.109  0.4597  0.8244  0.5269
  169MOL0     C22739  10.534  -0.009   4.235  0.1390  0.8495 -0.5513
  169MOL0     C22740  10.687  -0.017   4.205  0.4525  0.3516 -0.5415
  169MOL0     C22741  10.720  -0.144   4.120  0.3039 -0.2991 -0.1429
  169MOL0     C22742  10.873  -0.162   4.134  0.0760 -0.8024  0.3167
  169MOL0     C22743  10.936  -0.046   4.075 -0.2921  0.3596  1.1355
  169MOL0     C22744  10.990   0.066   4.050  0.3169  0.9009  0.8221
  169MOL0     C22745  10.297   0.118   4.004  0.0080  0.1752 -1.1835
  169MOL0     C22746  10.159   0.134   3.995  0.0096 -0.3358 -0.2370
  169MOL0     C22747  10.119   0.230   3.886 -0.8691 -0.2764 -0.6304
  169MOL0     H22748   9.711  -0.035   4.271  0.7393 -2.7599  1.0908
  169MOL0     H22749   9.486  -0.081   4.298  3.1451  4.6113  0.8319
  169MOL0     H22750   9.287  -0.333   4.011 -3.3009 -2.0152 -0.6559
  169MOL0     H22751   9.161  -0.272   4.111  2.6271 -0.2217  2.1373
  169MOL0     H22752   9.085  -0.254   3.873  0.2632  0.1027  2.1952
  169MOL0     H22753   9.252  -0.172   3.829  2.0699  0.2932  3.0372
  169MOL0     H22754   9.178   0.031   3.921 -0.4163 -0.1949  1.0010
  169MOL0     H22755   9.032  -0.041   3.986  1.2836  0.8102  0.6051
  169MOL0     H22756   9.006   0.095   3.771  3.6026  1.1452 -0.0197
  169MOL0     H22757   9.112  -0.019   3.681  1.6455 -3.2828  1.8821
  169MOL0     H22758   8.957  -0.193   3.678  1.9050  0.7715 -0.0156
  169MOL0     H22759   8.837  -0.103   3.774  1.3963  0.6548  1.4961
  169MOL0     H22760   8.760  -0.089   3.555 -0.6482  2.6551 -1.7148
  169MOL0     H22761   8.839   0.063   3.578  1.6394  0.7613 -1.0118
  169MOL0     H22762   9.046  -0.061   3.468  0.3054 -1.0856  1.6800
  169MOL0     H22763   8.912  -0.021   3.367 -1.1684  0.2061  0.5606
  169MOL0     H22764   8.982  -0.259   3.303  3.1623  0.1667  1.9085
  169MOL0     H22765   9.037  -0.276   3.455  1.4212  3.7388 -0.7341
  169MOL0     H22766   8.657  -0.242   3.318  0.8331 -0.8575 -0.9426
  169MOL0     H22767   8.484  -0.457   3.261  0.5068  3.1961  0.2924
  169MOL0     H22768   8.494  -0.592   3.364 -0.8324 -0.6127  0.0072
  169MOL0     H22769   8.446  -0.463   3.563  1.2477  1.0201 -0.5639
  169MOL0     H22770   8.432  -0.316   3.466  1.6268 -1.5230 -0.9259
  169MOL0     H22771   8.259  -0.582   3.481  2.3864  0.2476  0.5232
  169MOL0     H22772   8.232  -0.460   3.348  2.2938 -2.1137 -1.7071
  169MOL0     H22773   8.059  -0.440   3.536  0.6970 -2.8815 -0.3228
  169MOL0     H22774   8.157  -0.299   3.532 -4.3672 -0.2112 -3.7521
  169MOL0     H22775   8.272  -0.437   3.939  0.8190  2.1878  1.0277
  169MOL0     H22776   8.137  -0.379   4.127  0.3964 -0.8457 -0.5343
  169MOL0     H22777   7.816  -0.496   4.400  0.4761  0.3079 -1.1583
  169MOL0     H22778   7.662  -0.473   4.580  1.5379 -0.9547 -1.2979
  169MOL0     H22779   7.569  -0.419   4.762  1.8213  0.7811 -1.0041
  169MOL0     H22780   7.704  -0.348   4.851  0.1023  2.8513  1.6516
  169MOL0     H22781   7.420  -0.248   4.866 -0.5897 -2.1523 -1.7298
  169MOL0     H22782   7.486  -0.385   4.961  0.7039  0.2280  0.8832
  169MOL0     H22783   7.684  -0.212   5.027  0.5358 -0.5760  0.6548
  169MOL0     H22784   7.593  -0.088   4.938 -0.0321 -2.0908 -2.0885
  169MOL0     H22785   7.438  -0.235   5.135  0.2279  0.0033 -0.6420
  169MOL0     H22786   7.423  -0.069   5.066  1.1394  3.3045  2.6685
  169MOL0     H22787   7.597   0.030   5.206  1.0807  0.2369  0.6988
  169MOL0     H22788   7.674  -0.121   5.232  0.6484  0.0589  3.8985
  169MOL0     H22789   7.471  -0.180   5.399 -0.0797  0.2114  3.1785
  169MOL0     H22790   7.576  -0.044   5.436  0.1151 -4.1815  2.8455
  169MOL0     H22791   7.327  -0.044   5.277 -1.2046  0.4164  1.3435
  169MOL0     H22792   7.412   0.103   5.341  1.5602  0.8655  1.9189
  169MOL0     H22793   7.214   0.081   5.484  1.5606  0.1189 -0.7690
  169MOL0     H22794   7.238  -0.093   5.499 -1.7061  0.9331  2.1058
  169MOL0     H22795   7.742  -0.047   4.576 -2.3275 -0.9151 -0.9945
  169MOL0     H22796   7.905  -0.082   4.389 -0.9568  1.4410  1.0192
  169MOL0     H22797   7.810  -0.289   3.893 -1.0445 -1.4446 -2.9436
  169MOL0     H22798   7.950  -0.314   3.685 -1.2929 -0.2636  0.9079
  169MOL0     H22799   9.442  -0.172   3.875 -1.9310 -2.9237  2.2658
  169MOL0     H22800   9.692  -0.126   3.855  3.2440 -1.4961  1.6830
  169MOL0     H22801  10.050  -0.036   4.263 -1.8726  0.1027 -1.7406
  169MOL0     H22802  10.291  -0.034   4.306 -1.8343 -1.1071  0.1135
  169MOL0     H22803  10.495  -0.107   4.267 -0.3674  1.7228  1.6927
  169MOL0     H22804  10.512   0.061   4.316  0.5304  1.1952 -0.7443
  169MOL0     H22805  10.744  -0.014   4.299  3.1143  0.0296 -2.0592
  169MOL0     H22806  10.711   0.071   4.146 -2.5567  2.1052  0.6259
  169MOL0     H22807  10.678  -0.128   4.020 -0.4816  2.7595  0.5711
  169MOL0     H22808  10.660  -0.227   4.158  0.9887  0.0257  1.7462
  169MOL0     H22809  10.907  -0.173   4.237 -2.4780  2.5334  1.6990
  169MOL0     H22810  10.898  -0.242   4.064 -0.1903 -0.9111  0.3434
  169MOL0     H22811  11.048   0.152   4.022 -0.5605  0.4021 -3.2415
  169MOL0     H22812  10.361   0.164   3.930 -2.3032 -3.4715 -6.0635
  169MOL0     H22813  10.116   0.167   3.796  3.7496 -0.6103 -0.7648
  169MOL0     H22814  10.019   0.275   3.896 -2.4601 -3.7146  0.5940
  169MOL0     H22815  10.196   0.305   3.869 -1.8294  0.2401 -3.2358
  170MOL0     O22816  11.315   9.094   4.813  0.9282 -0.2190 -0.6232
  170MOL0     C22817  11.383   9.049   4.907  0.7025 -0.1330  0.1899
  170MOL0     O22818  11.337   8.991   5.018 -0.2039  0.4426  0.7666
  170MOL0     C22819  11.204   8.992   5.036  0.1523  0.1112 -0.3770
  170MOL0     C22820  11.118   8.886   4.995  0.8916  0.8327  0.1029
  170MOL0     C22821  10.986   8.892   5.034  0.3800 -0.0661 -0.3536
  170MOL0     C22822  10.927   8.999   5.103  0.4424 -0.0356  0.5983
  170MOL0     O22823  10.792   9.008   5.134  0.0565  0.3554  0.0802
  170MOL0     C22824  10.694   8.915   5.081  0.1192  0.5280  1.0699
  170MOL0     C22825  10.631   8.816   5.179 -0.2270 -0.0278 -0.3494
  170MOL0     C22826  10.520   8.720   5.139  0.0523  0.8764  0.0451
  170MOL0     C22827  10.555   8.628   5.020  0.2589  0.3306 -0.7627
  170MOL0     C22828  10.449   8.518   5.007 -0.0789  0.8036 -0.8039
  170MOL0     C22829  10.469   8.441   4.873  0.5753  0.6557  0.2972
  170MOL0     C22830  10.396   8.295   4.874  0.2379 -0.4306  1.2301
  170MOL0     C22831  10.477   8.183   4.944  0.4108 -0.0537 -0.2497
  170MOL0     N22832  10.608   8.160   4.887  0.2357 -0.6832  0.5412
  170MOL0     C22833  10.625   8.098   4.771 -0.7620  0.1828  0.7690
  170MOL0     C22834  10.759   8.116   4.744  0.7440 -0.2403 -0.1869
  170MOL0     C22835  10.831   8.077   4.620 -0.2519 -0.5361 -0.2036
  170MOL0     C22836  10.900   8.198   4.547 -0.5465 -0.9430  0.3160
  170MOL0     C22837  10.998   8.144   4.448  0.9902 -0.4181  0.4167
  170MOL0     C22838  11.050   8.258   4.362  0.4888  0.4319 -0.6977
  170MOL0     O22839  10.942   8.312   4.283 -0.6712  0.1251 -0.1656
  170MOL0     C22840  10.977   8.400   4.190  0.4698 -0.7067  0.3881
  170MOL0     C22841  11.098   8.402   4.120  0.2586 -0.4626 -0.1269
  170MOL0     C22842  11.115   8.511   4.033 -0.5419  0.1409  0.3051
  170MOL0     C22843  11.019   8.603   3.999 -0.7567 -0.3533  0.0150
  170MOL0     C22844  11.051   8.705   3.889 -0.6895  0.0939  0.1006
  170MOL0     O22845  10.929   8.748   3.833 -0.0369 -0.6909 -0.7166
  170MOL0     C22846  10.932   8.845   3.738  0.1531 -0.7327  0.0651
  170MOL0     C22847  10.833   8.834   3.649  0.2848  0.2919  0.0929
  170MOL0     C22848  10.810   8.921   3.539 -0.3562  0.2331  0.1474
  170MOL0     C22849  10.901   9.028   3.518 -0.0986 -0.3328  0.3441
  170MOL0     O22850  10.874   9.122   3.424  0.6774  0.2504  0.3950
  170MOL0     C22851  10.928   9.255   3.431 -0.1636 -1.3829  0.0654
  170MOL0     C22852  10.850   9.334   3.321 -0.3906 -0.5458 -0.0246
  170MOL0     C22853  10.913   9.469   3.291 -0.6939  0.1843 -0.0957
  170MOL0     C22854  10.831   9.542   3.182  1.3393  0.1901  0.2307
  170MOL0     C22855  10.915   9.648   3.113  0.2352 -0.0267  0.0742
  170MOL0     C22856  10.842   9.763   3.058  0.1778 -0.0617  0.3841
  170MOL0     C22857  10.925   9.840   2.958 -0.4436 -0.0047 -0.3931
  170MOL0     C22858  10.885   9.994   2.971 -0.4891  0.4189  0.4629
  170MOL0    Cl22859  10.961  10.100   2.848 -0.1784 -0.0318  0.0573
  170MOL0     C22860  11.012   9.034   3.597 -0.7887 -0.2308 -1.3681
  170MOL0     C22861  11.030   8.948   3.713  0.0679  0.6087 -0.6311
  170MOL0     O22862  11.162   8.739   3.847 -0.3002  0.1058  0.0156
  170MOL0     C22863  10.895   8.605   4.072 -0.0783 -0.1930 -0.3581
  170MOL0     C22864  10.873   8.496   4.160  0.1445  0.0168 -0.3641
  170MOL0     N22865  10.810   8.203   4.834 -0.7039  0.8240  0.4204
  170MOL0     N22866  10.720   8.220   4.925  0.8175 -0.6094 -0.4044
  170MOL0     C22867  11.020   9.103   5.148 -0.4811  0.1164 -0.3656
  170MOL0     C22868  11.156   9.101   5.113 -0.1051  0.6271 -0.3818
  170MOL0     C22869  11.525   9.052   4.886  0.2804  0.5164 -1.0363
  170MOL0     C22870  11.573   8.973   4.775 -0.5178 -0.5104 -1.2693
  170MOL0     C22871  11.709   8.957   4.760  0.0678 -0.5064  0.1257
  170MOL0     C22872  11.804   9.028   4.834  0.0690 -0.5382  0.7864
  170MOL0     O22873  11.942   9.018   4.816  0.2173  0.2024  0.5388
  170MOL0     C22874  12.010   8.967   4.696  0.6394  0.4611 -1.3896
  170MOL0     C22875  11.993   9.053   4.575  0.1729 -1.1187 -0.5555
  170MOL0     C22876  12.074   8.984   4.460  0.9720  0.3012  0.1275
  170MOL0     C22877  12.057   9.082   4.337 -0.8751 -0.2612 -0.3117
  170MOL0     C22878  12.157   9.052   4.237 -0.8619  0.0570 -0.1597
  170MOL0     C22879  12.239   9.026   4.145  0.1553  0.3917  1.1292
  170MOL0     C22880  11.750   9.114   4.927 -0.8936  0.2916  0.3576
  170MOL0     C22881  11.616   9.130   4.964  0.6721  0.4879  0.2230
  170MOL0     C22882  11.573   9.218   5.077 -0.3899 -1.0099 -0.2161
  170MOL0     H22883  11.161   8.803   4.939 -0.8445  0.1350 -0.2431
  170MOL0     H22884  10.930   8.805   4.999 -1.1588  0.5942  0.3922
  170MOL0     H22885  10.615   8.982   5.047  3.2219  4.6825  1.2034
  170MOL0     H22886  10.729   8.859   4.994  0.5458  0.2572  1.4101
  170MOL0     H22887  10.618   8.883   5.264 -0.2845 -2.4503  1.6725
  170MOL0     H22888  10.718   8.759   5.212  0.3256  1.3562  0.6462
  170MOL0     H22889  10.421   8.766   5.133 -1.7059 -2.5735  0.3702
  170MOL0     H22890  10.521   8.656   5.227 -0.2127  1.4563  0.4811
  170MOL0     H22891  10.553   8.690   4.930 -0.7138 -0.7467 -1.5151
  170MOL0     H22892  10.654   8.582   5.027 -1.1919 -2.9021  0.7091
  170MOL0     H22893  10.461   8.446   5.088 -1.4212  1.8264  0.3412
  170MOL0     H22894  10.349   8.560   5.014  0.1510  1.2109  0.1898
  170MOL0     H22895  10.420   8.492   4.789 -0.9964 -0.8780  0.2119
  170MOL0     H22896  10.574   8.432   4.842 -0.2797  0.5022 -3.0152
  170MOL0     H22897  10.387   8.265   4.769 -0.4643  0.6103  0.9818
  170MOL0     H22898  10.297   8.315   4.916 -1.2847 -1.7510 -1.4679
  170MOL0     H22899  10.472   8.205   5.051  0.7563 -0.0961 -0.2260
  170MOL0     H22900  10.427   8.086   4.930 -0.9600  0.4045  1.2267
  170MOL0     H22901  10.555   8.059   4.697 -0.3265  1.8407 -0.5952
  170MOL0     H22902  10.895   7.990   4.635 -2.1667 -1.5993  2.6832
  170MOL0     H22903  10.752   8.045   4.551  0.2348 -1.3384 -0.4023
  170MOL0     H22904  10.825   8.262   4.500 -1.2241 -0.4694  1.9583
  170MOL0     H22905  10.959   8.254   4.620  0.5809  0.4894 -1.6347
  170MOL0     H22906  10.940   8.078   4.383 -1.1014 -0.2752  2.0290
  170MOL0     H22907  11.085   8.099   4.496  3.0712  1.5287 -1.3146
  170MOL0     H22908  11.120   8.212   4.292 -2.2992 -1.7607 -2.2806
  170MOL0     H22909  11.090   8.337   4.426 -3.0494  0.5910  1.5941
  170MOL0     H22910  11.161   8.315   4.112 -1.5089 -2.0722  2.0882
  170MOL0     H22911  11.212   8.532   3.991 -1.5156  0.2658 -2.0107
  170MOL0     H22912  10.756   8.758   3.657 -0.0761  0.7448  1.0862
  170MOL0     H22913  10.724   8.908   3.475  0.5699 -0.3982 -0.9978
  170MOL0     H22914  10.917   9.292   3.534 -1.1625  1.3341 -0.9376
  170MOL0     H22915  11.033   9.262   3.398 -0.6990 -4.0692 -2.6222
  170MOL0     H22916  10.849   9.268   3.234 -0.5271 -0.9889  0.3133
  170MOL0     H22917  10.761   9.339   3.384  1.2177 -4.7137  3.0414
  170MOL0     H22918  10.916   9.537   3.376  0.8506  2.7661 -2.0511
  170MOL0     H22919  11.013   9.447   3.252 -0.8889 -1.6580  0.3987
  170MOL0     H22920  10.740   9.580   3.228 -0.7399 -1.9467 -1.8379
  170MOL0     H22921  10.804   9.465   3.109  2.5968 -1.7669  1.7120
  170MOL0     H22922  10.972   9.593   3.038 -0.1617  3.3354 -2.9891
  170MOL0     H22923  10.989   9.688   3.183 -1.9487  3.0081  0.8509
  170MOL0     H22924  10.752   9.735   3.002  1.1651 -0.1959 -1.1856
  170MOL0     H22925  10.810   9.819   3.147  1.3901 -2.0141  2.1492
  170MOL0     H22926  10.889   9.811   2.858 -0.4220 -2.3883  0.2244
  170MOL0     H22927  11.026   9.807   2.982 -1.2664 -1.3330  1.4410
  170MOL0     H22928  10.776   9.990   2.964 -0.4041 -1.3967 -0.3299
  170MOL0     H22929  10.912  10.017   3.074 -0.8750 -3.1508  1.5083
  170MOL0     H22930  11.077   9.120   3.584 -0.4028 -0.1404  0.8339
  170MOL0     H22931  11.120   8.977   3.766 -2.5811  2.6144  3.2378
  170MOL0     H22932  10.816   8.679   4.071 -0.1911 -0.2846  0.4817
  170MOL0     H22933  10.774   8.482   4.201 -1.0122  1.0667 -2.6258
  170MOL0     H22934  10.989   9.193   5.199  0.2028  0.4514 -0.5402
  170MOL0     H22935  11.226   9.176   5.147 -0.4061  1.0770 -0.7409
  170MOL0     H22936  11.503   8.919   4.712 -1.5097  0.0459 -0.6686
  170MOL0     H22937  11.744   8.900   4.675  0.7617 -0.8188  0.6075
  170MOL0     H22938  11.964   8.870   4.676  2.1130 -0.9903  1.7208
  170MOL0     H22939  12.113   8.940   4.719  0.3364  0.6841  0.3304
  170MOL0     H22940  12.029   9.154   4.594 -3.1889  0.0388  0.2387
  170MOL0     H22941  11.890   9.055   4.539  0.7357  2.1267 -2.3516
  170MOL0     H22942  12.034   8.882   4.453 -0.2956  0.7662  0.2044
  170MOL0     H22943  12.181   8.982   4.478  0.6058  1.5283  3.1108
  170MOL0     H22944  11.956   9.057   4.303 -0.6297 -0.8777 -0.5891
  170MOL0     H22945  12.053   9.187   4.370 -2.6241 -0.0903 -0.9435
  170MOL0     H22946  12.310   9.027   4.065 -1.4199  2.0354 -0.3239
  170MOL0     H22947  11.823   9.180   4.974 -1.4096  1.2224 -0.1160
  170MOL0     H22948  11.633   9.309   5.077 -1.0529 -0.5357  1.2904
  170MOL0     H22949  11.471   9.254   5.068 -0.1165  0.2647  1.2368
  170MOL0     H22950  11.586   9.177   5.178 -3.0816 -0.9187  0.2361
  171MOL0     O22951   4.921   2.527   2.530  0.7591  0.6844  0.8247
  171MOL0     C22952   5.033   2.535   2.476 -1.0489 -0.3516 -0.3529
  171MOL0     O22953   5.150   2.505   2.535  0.9631 -0.1504 -0.8607
  171MOL0     C22954   5.143   2.472   2.672 -0.1474  0.0345  0.4154
  171MOL0     C22955   5.149   2.332   2.700 -1.0385  0.3765  0.2288
  171MOL0     C22956   5.138   2.288   2.830  0.4117 -0.1216  0.2816
  171MOL0     C22957   5.150   2.379   2.935 -0.5156 -0.9256 -0.0567
  171MOL0     O22958   5.154   2.329   3.061 -0.5640  0.4158 -0.2261
  171MOL0     C22959   5.036   2.338   3.130 -0.2049  0.5752  0.6598
  171MOL0     C22960   5.025   2.211   3.217 -0.4246 -0.8752 -0.4220
  171MOL0     C22961   5.142   2.208   3.321 -0.4275 -0.0975 -0.4267
  171MOL0     C22962   5.139   2.077   3.407 -0.0303 -0.0616 -0.5705
  171MOL0     C22963   5.247   2.076   3.519  0.0532  0.4226 -0.4572
  171MOL0     C22964   5.255   1.939   3.592 -0.1357 -0.5906  0.3507
  171MOL0     C22965   5.367   1.931   3.690  0.2942  0.0665  0.2207
  171MOL0     C22966   5.367   1.800   3.756 -0.1357  0.4048  0.6334
  171MOL0     N22967   5.481   1.792   3.846  0.6205 -0.9047 -0.2009
  171MOL0     C22968   5.459   1.767   3.979  0.2908  0.6714  0.0593
  171MOL0     C22969   5.582   1.765   4.038  0.7675 -0.3948 -0.1302
  171MOL0     C22970   5.605   1.703   4.169 -0.5255 -0.6496 -0.7113
  171MOL0     C22971   5.624   1.550   4.164 -1.1880  0.2431  0.0013
  171MOL0     C22972   5.655   1.489   4.303  0.1881 -0.7374  0.0080
  171MOL0     C22973   5.533   1.510   4.400  0.1332  0.3979  0.4458
  171MOL0     O22974   5.548   1.424   4.510  1.2819  0.3780 -0.4927
  171MOL0     C22975   5.433   1.429   4.594 -0.3374 -1.0258  0.4121
  171MOL0     C22976   5.324   1.522   4.584 -0.2686  0.1370 -0.3544
  171MOL0     C22977   5.214   1.497   4.666 -0.3291 -0.8441 -0.5010
  171MOL0     C22978   5.217   1.388   4.753  0.6861 -0.7685  0.1130
  171MOL0     C22979   5.095   1.358   4.832 -0.8443 -0.3584 -0.4841
  171MOL0     O22980   5.100   1.245   4.912 -0.5474 -0.5853 -0.4024
  171MOL0     C22981   4.992   1.219   4.990 -1.2172 -0.2491 -0.4939
  171MOL0     C22982   4.897   1.299   5.050 -0.1145 -0.3812 -0.7076
  171MOL0     C22983   4.782   1.252   5.105  0.2460 -0.2043 -0.6465
  171MOL0     C22984   4.771   1.117   5.137 -0.0850  0.3631  0.6269
  171MOL0     O22985   4.665   1.061   5.206 -0.0564 -0.3731  0.2340
  171MOL0     C22986   4.646   1.119   5.341 -0.4576  0.5278 -0.3263
  171MOL0     C22987   4.585   1.017   5.434 -0.1922  0.0206 -1.1993
  171MOL0     C22988   4.564   1.077   5.580 -1.0840  0.0807  0.8526
  171MOL0     C22989   4.491   0.984   5.676  0.1536 -0.4712 -0.1009
  171MOL0     C22990   4.485   1.039   5.827  0.7053  0.2906  0.0020
  171MOL0     C22991   4.620   1.083   5.887 -0.2016  0.4453  0.0153
  171MOL0     C22992   4.712   0.967   5.882 -1.0751 -1.0068 -0.1065
  171MOL0     C22993   4.853   1.007   5.912 -0.0676  0.6152  0.0619
  171MOL0    Cl22994   4.925   1.083   5.767  0.1083  0.0561  0.0305
  171MOL0     C22995   4.871   1.037   5.090 -0.0726 -0.4595 -0.0598
  171MOL0     C22996   4.980   1.085   5.016  0.7799 -0.2672  0.1452
  171MOL0     O22997   5.002   1.439   4.833  0.2230  0.3544 -0.0491
  171MOL0     C22998   5.324   1.295   4.757 -0.0846  0.2766  0.1309
  171MOL0     C22999   5.431   1.325   4.680 -0.4262  0.2873 -0.4303
  171MOL0     N23000   5.676   1.793   3.944 -0.2914 -0.5909  0.0854
  171MOL0     N23001   5.616   1.814   3.825 -0.1067  0.7510  0.1770
  171MOL0     C23002   5.154   2.515   2.915 -0.1314 -0.0265 -0.3991
  171MOL0     C23003   5.147   2.562   2.779 -0.4523 -0.3400 -0.1229
  171MOL0     C23004   5.043   2.566   2.327 -0.0323  0.0197  0.1267
  171MOL0     C23005   5.158   2.529   2.254  0.3585 -0.2329 -0.2528
  171MOL0     C23006   5.164   2.569   2.121 -0.6819 -0.1749 -1.4806
  171MOL0     C23007   5.055   2.639   2.053 -0.0751 -0.0685  0.3810
  171MOL0     O23008   5.056   2.665   1.921 -0.3676 -0.3795 -0.6475
  171MOL0     C23009   5.058   2.551   1.828 -0.7178  0.1192 -0.1764
  171MOL0     C23010   4.926   2.531   1.761 -0.8463 -0.1536  0.0972
  171MOL0     C23011   4.797   2.546   1.847  0.5208  0.0243 -0.6358
  171MOL0     C23012   4.664   2.497   1.787  0.0482  0.0528  0.7235
  171MOL0     C23013   4.616   2.359   1.811 -0.2052  0.3333  0.6462
  171MOL0     C23014   4.588   2.245   1.842 -0.7914 -0.1423 -1.1659
  171MOL0     C23015   4.938   2.674   2.131  0.2823 -1.2505  0.4198
  171MOL0     C23016   4.941   2.638   2.262 -0.4660 -0.1783 -0.8716
  171MOL0     C23017   4.810   2.682   2.336 -0.4256 -0.1318 -0.3559
  171MOL0     H23018   5.147   2.266   2.613  3.3307 -0.2581  0.3726
  171MOL0     H23019   5.126   2.185   2.861  2.0895 -0.5447 -0.3514
  171MOL0     H23020   5.051   2.434   3.180 -2.3297  2.3561 -1.8149
  171MOL0     H23021   4.950   2.340   3.062 -1.1100  0.2422  1.7681
  171MOL0     H23022   5.022   2.121   3.155  0.9591 -0.9768 -0.3772
  171MOL0     H23023   4.927   2.210   3.265 -0.2305  0.5006  0.0582
  171MOL0     H23024   5.131   2.299   3.381  1.5634  0.9902 -1.5917
  171MOL0     H23025   5.241   2.220   3.275 -0.2937  1.8389  0.2654
  171MOL0     H23026   5.041   2.071   3.455  0.3962  2.5805  0.7893
  171MOL0     H23027   5.145   1.989   3.343  2.1398 -1.2938  1.1917
  171MOL0     H23028   5.346   2.095   3.477  0.7127  1.1448  1.3088
  171MOL0     H23029   5.228   2.162   3.584  1.7053  0.2116  0.3528
  171MOL0     H23030   5.159   1.909   3.637 -0.0371  0.0637  1.0119
  171MOL0     H23031   5.277   1.858   3.522  0.6632  1.8651 -2.4052
  171MOL0     H23032   5.354   2.017   3.757  0.6695  0.0129  0.3625
  171MOL0     H23033   5.460   1.951   3.636  0.3201 -0.8318 -0.0884
  171MOL0     H23034   5.277   1.776   3.814 -1.5597  0.1220 -1.5438
  171MOL0     H23035   5.391   1.721   3.685  2.4102  0.4587  1.3512
  171MOL0     H23036   5.358   1.741   4.010  1.3175 -1.9159  1.5317
  171MOL0     H23037   5.697   1.750   4.207  1.3086 -3.3298 -1.5604
  171MOL0     H23038   5.523   1.726   4.238  1.2742  0.5217  1.1890
  171MOL0     H23039   5.543   1.494   4.116 -1.9412  0.6172  0.8218
  171MOL0     H23040   5.711   1.538   4.099 -0.9985  0.0557  0.2870
  171MOL0     H23041   5.738   1.552   4.337 -0.7075  0.0692  0.7825
  171MOL0     H23042   5.684   1.384   4.295 -0.5932 -1.0418  0.9276
  171MOL0     H23043   5.439   1.489   4.349  1.2818  0.2463 -1.7329
  171MOL0     H23044   5.511   1.609   4.440  0.2113  0.0702  1.3399
  171MOL0     H23045   5.311   1.590   4.501  0.5306 -0.3886 -0.9233
  171MOL0     H23046   5.123   1.556   4.658  0.0481 -0.1213  0.3753
  171MOL0     H23047   4.912   1.407   5.046  0.6781 -0.4003  0.9091
  171MOL0     H23048   4.696   1.310   5.138 -0.9456 -1.2981 -1.7149
  171MOL0     H23049   4.741   1.157   5.379  0.9551 -0.2685 -2.8391
  171MOL0     H23050   4.580   1.206   5.334 -1.4641 -0.0451  1.3363
  171MOL0     H23051   4.489   0.979   5.397 -1.0026  0.0258  0.7867
  171MOL0     H23052   4.653   0.932   5.449  0.7528  0.9333 -0.0960
  171MOL0     H23053   4.661   1.097   5.628 -1.4358 -0.4473  1.8015
  171MOL0     H23054   4.516   1.172   5.556 -3.1868 -1.9015 -3.9143
  171MOL0     H23055   4.537   0.885   5.674  2.4111  0.3886  2.8089
  171MOL0     H23056   4.385   0.983   5.648  0.4488  0.5833 -1.3190
  171MOL0     H23057   4.442   0.961   5.890 -0.3485  1.5378  0.8799
  171MOL0     H23058   4.411   1.119   5.822 -1.0376 -1.2980 -0.5722
  171MOL0     H23059   4.672   1.166   5.838 -0.7502  0.7420 -0.0695
  171MOL0     H23060   4.589   1.104   5.990 -0.7404  3.2802 -0.6387
  171MOL0     H23061   4.714   0.920   5.783  1.7813 -0.4300 -0.4295
  171MOL0     H23062   4.674   0.897   5.957 -0.1019  1.2381  2.6271
  171MOL0     H23063   4.863   1.071   6.000  1.0701  3.1583 -1.7663
  171MOL0     H23064   4.907   0.914   5.927  1.3547  1.5384  0.8323
  171MOL0     H23065   4.863   0.930   5.102 -3.1075 -0.4365 -0.9796
  171MOL0     H23066   5.042   1.004   4.979  0.1792 -0.2403 -0.9572
  171MOL0     H23067   5.319   1.208   4.821 -0.2089  2.1340  2.8384
  171MOL0     H23068   5.519   1.265   4.699 -0.3421  0.4985 -0.1399
  171MOL0     H23069   5.184   2.583   2.994 -0.7475 -1.8211  1.4639
  171MOL0     H23070   5.141   2.665   2.746  2.0115  0.6075  2.0353
  171MOL0     H23071   5.227   2.466   2.308  0.5765  0.1755 -0.0504
  171MOL0     H23072   5.254   2.543   2.066 -0.2202  3.3732 -2.6089
  171MOL0     H23073   5.071   2.456   1.881 -1.6259  0.3873  0.5533
  171MOL0     H23074   5.136   2.570   1.754 -1.9766 -1.6386 -2.0545
  171MOL0     H23075   4.926   2.427   1.728 -1.5151 -0.2859  0.5202
  171MOL0     H23076   4.925   2.589   1.668  2.2191  0.2459  0.2144
  171MOL0     H23077   4.799   2.653   1.869  2.2219 -0.3320  1.2390
  171MOL0     H23078   4.824   2.494   1.940 -0.9387  1.1277  0.4416
  171MOL0     H23079   4.586   2.564   1.823  0.4778  1.2185 -0.4559
  171MOL0     H23080   4.682   2.509   1.679  2.7160 -2.3342  0.7746
  171MOL0     H23081   4.572   2.144   1.872 -0.0881 -0.2017 -0.9830
  171MOL0     H23082   4.857   2.735   2.091 -1.6510 -2.8290  1.7102
  171MOL0     H23083   4.828   2.743   2.426  1.3032 -2.6330  1.1219
  171MOL0     H23084   4.758   2.748   2.266  0.0049 -1.7085 -2.2426
  171MOL0     H23085   4.756   2.588   2.349  1.6873 -1.3700 -0.0472
  172MOL0     O23086   8.599   6.090   2.297  0.4874  0.7806 -0.6480
  172MOL0     C23087   8.571   5.968   2.295 -0.0300 -0.8864 -0.7193
  172MOL0     O23088   8.452   5.916   2.346 -0.1993  0.5589  0.3612
  172MOL0     C23089   8.366   6.000   2.408  0.1885  0.4896 -1.2058
  172MOL0     C23090   8.403   6.073   2.524  0.0919 -0.4068  0.7681
  172MOL0     C23091   8.304   6.145   2.601 -0.2124 -0.4412 -0.3325
  172MOL0     C23092   8.175   6.165   2.541 -0.1825 -0.0707  0.3301
  172MOL0     O23093   8.077   6.248   2.582 -0.0770 -1.2460 -0.1449
  172MOL0     C23094   8.126   6.377   2.631  0.2199  0.1221 -0.5695
  172MOL0     C23095   8.037   6.482   2.562 -0.5012  0.4379  1.2151
  172MOL0     C23096   8.103   6.619   2.581  0.1254 -0.3177  1.1345
  172MOL0     C23097   8.105   6.688   2.437 -0.1723  0.5674 -0.0266
  172MOL0     C23098   8.123   6.839   2.445 -0.0923 -0.8842  0.2293
  172MOL0     C23099   8.275   6.865   2.457  0.4021 -0.1040 -0.4525
  172MOL0     C23100   8.291   7.014   2.469 -0.4537  0.0066  0.2215
  172MOL0     C23101   8.422   7.050   2.534  0.1214 -0.1804  0.6130
  172MOL0     N23102   8.545   7.008   2.462  0.4104  0.3688  0.2858
  172MOL0     C23103   8.624   7.076   2.376 -0.4186 -0.2726 -0.3305
  172MOL0     C23104   8.738   7.002   2.355 -0.5495  0.5748 -0.8442
  172MOL0     C23105   8.850   7.043   2.267 -0.7413  0.6473  0.8259
  172MOL0     C23106   8.982   7.059   2.358  0.8857  0.5939 -0.3479
  172MOL0     C23107   8.972   7.186   2.440  0.5028 -0.0765  0.2280
  172MOL0     C23108   9.112   7.225   2.494  0.8481  0.3414 -0.1999
  172MOL0     O23109   9.193   7.313   2.419 -0.2556  0.4470 -0.3773
  172MOL0     C23110   9.327   7.316   2.441 -1.0174 -0.4849  0.2851
  172MOL0     C23111   9.410   7.209   2.455 -0.0378  0.5073 -0.2347
  172MOL0     C23112   9.545   7.222   2.474 -0.6634 -0.4029  0.3291
  172MOL0     C23113   9.603   7.351   2.504 -0.5630  0.1583  0.4050
  172MOL0     C23114   9.753   7.359   2.514  0.4352 -1.0798  0.2476
  172MOL0     O23115   9.795   7.470   2.576 -0.2498 -0.7320  0.7144
  172MOL0     C23116   9.932   7.505   2.577  0.0712  0.8791  0.0587
  172MOL0     C23117   9.985   7.571   2.691  0.2795  0.2005  0.5240
  172MOL0     C23118  10.117   7.602   2.711  0.8008 -0.2872  0.4762
  172MOL0     C23119  10.205   7.569   2.607  1.2493 -0.1411  0.9884
  172MOL0     O23120  10.336   7.634   2.612  0.5183 -0.5675 -0.0445
  172MOL0     C23121  10.377   7.681   2.487  0.3880  0.5047  0.5239
  172MOL0     C23122  10.478   7.598   2.421 -0.2121  0.6664  0.1014
  172MOL0     C23123  10.584   7.548   2.519 -0.0867  1.0698 -0.0337
  172MOL0     C23124  10.679   7.446   2.443  0.2199 -0.0757 -0.3794
  172MOL0     C23125  10.787   7.390   2.540  0.0567  0.2948  0.2147
  172MOL0     C23126  10.846   7.267   2.474 -0.1398 -0.9332  0.3499
  172MOL0     C23127  10.986   7.252   2.530  0.3244  0.0738  1.0660
  172MOL0     C23128  11.059   7.136   2.478 -0.8018 -0.1916  1.3842
  172MOL0    Cl23129  11.146   7.167   2.326  0.0328 -0.5361  0.1075
  172MOL0     C23130  10.160   7.501   2.496  0.7517 -0.7015  0.1647
  172MOL0     C23131  10.021   7.475   2.479 -0.6866  0.5514  0.6030
  172MOL0     O23132   9.826   7.270   2.467 -0.3496  0.4134 -0.4389
  172MOL0     C23133   9.518   7.464   2.464 -0.8279  0.2876 -0.5076
  172MOL0     C23134   9.384   7.442   2.430 -0.9518  0.0158  0.0804
  172MOL0     N23135   8.731   6.897   2.441  0.2636  0.6555 -0.4698
  172MOL0     N23136   8.612   6.895   2.493  0.4327 -0.3031  0.2537
  172MOL0     C23137   8.140   6.088   2.430  0.7053  0.2705 -1.1430
  172MOL0     C23138   8.230   6.003   2.372 -1.4021 -0.2699 -0.4268
  172MOL0     C23139   8.664   5.876   2.223  0.1438  0.8041 -1.1027
  172MOL0     C23140   8.633   5.736   2.223  0.1003  0.5521  0.0490
  172MOL0     C23141   8.700   5.637   2.158 -0.0647  0.7247 -0.7115
  172MOL0     C23142   8.823   5.667   2.101  0.0417 -0.1120  0.2979
  172MOL0     O23143   8.900   5.586   2.024  0.5741 -0.6199  0.4404
  172MOL0     C23144   8.903   5.448   2.048 -0.9459  0.2944 -1.0250
  172MOL0     C23145   9.019   5.391   1.960  0.1685  0.7411 -0.5964
  172MOL0     C23146   9.160   5.444   1.998 -0.2437 -0.3720  0.2910
  172MOL0     C23147   9.285   5.373   1.944 -0.0095  0.3955 -0.1741
  172MOL0     C23148   9.300   5.342   1.802  1.3622 -1.4103 -0.4645
  172MOL0     C23149   9.301   5.307   1.686  0.0067  1.0685  0.0875
  172MOL0     C23150   8.861   5.802   2.098 -0.2323  0.6894 -0.0579
  172MOL0     C23151   8.785   5.906   2.159 -0.3600 -0.0497 -0.6386
  172MOL0     C23152   8.837   6.051   2.156  0.2292  0.4152 -0.0265
  172MOL0     H23153   8.506   6.075   2.560 -0.0037  2.4226  1.1503
  172MOL0     H23154   8.330   6.198   2.692 -0.9297  2.6741 -1.8450
  172MOL0     H23155   8.106   6.381   2.738 -3.3248  0.9886 -1.1318
  172MOL0     H23156   8.231   6.392   2.603  0.6962  1.4651  1.6701
  172MOL0     H23157   7.935   6.475   2.601 -1.9721 -2.1752 -2.5162
  172MOL0     H23158   8.033   6.459   2.455 -0.3777  1.0444  1.0724
  172MOL0     H23159   8.207   6.598   2.608  1.1724 -0.3325 -2.3835
  172MOL0     H23160   8.065   6.680   2.663  2.3281 -1.9726  3.5533
  172MOL0     H23161   8.191   6.644   2.386  2.7704  2.9742  2.4714
  172MOL0     H23162   8.008   6.674   2.388 -1.3504  2.0940  1.7323
  172MOL0     H23163   8.092   6.886   2.352  2.0530  1.5575  0.6405
  172MOL0     H23164   8.055   6.879   2.521 -0.2880  1.9199 -1.3183
  172MOL0     H23165   8.304   6.822   2.554 -0.2133 -3.5846 -1.6688
  172MOL0     H23166   8.325   6.811   2.376  2.7572  2.6536 -0.9639
  172MOL0     H23167   8.218   7.066   2.531  1.0406  3.4991 -0.6878
  172MOL0     H23168   8.288   7.066   2.372  0.2637  0.1788  0.2859
  172MOL0     H23169   8.421   7.159   2.549  2.1828 -0.0479  0.2033
  172MOL0     H23170   8.435   7.005   2.632  1.0592 -3.6921 -0.9588
  172MOL0     H23171   8.600   7.173   2.334 -1.1427 -0.4731 -0.3981
  172MOL0     H23172   8.877   6.962   2.199  0.8986  2.3721 -0.7191
  172MOL0     H23173   8.828   7.133   2.208  2.6009  0.9321 -0.2347
  172MOL0     H23174   8.992   6.975   2.427  2.3182  3.4112  3.2307
  172MOL0     H23175   9.068   7.065   2.290 -0.3354  1.7900 -1.8605
  172MOL0     H23176   8.898   7.188   2.520  2.4185  2.6877  2.1242
  172MOL0     H23177   8.943   7.268   2.374  2.1430  0.9891  0.7426
  172MOL0     H23178   9.160   7.135   2.534  0.0910  1.2886  3.2139
  172MOL0     H23179   9.082   7.288   2.579  1.2596  1.7000 -1.0349
  172MOL0     H23180   9.360   7.113   2.451  1.8234 -0.5718  1.1374
  172MOL0     H23181   9.611   7.136   2.472  1.0725  0.8627  1.1222
  172MOL0     H23182   9.911   7.591   2.767 -1.0467  2.3272 -1.2214
  172MOL0     H23183  10.147   7.666   2.793 -0.4836 -1.9789  2.3756
  172MOL0     H23184  10.295   7.701   2.417  1.9024 -1.6666 -2.0661
  172MOL0     H23185  10.429   7.771   2.521  0.0990 -0.9227  5.6605
  172MOL0     H23186  10.427   7.518   2.366 -2.0634  1.6617  0.2941
  172MOL0     H23187  10.536   7.660   2.353 -0.2120  1.1045  0.4959
  172MOL0     H23188  10.648   7.635   2.540  0.1161  0.6868  0.9870
  172MOL0     H23189  10.554   7.503   2.614 -1.5783  2.2621  0.1024
  172MOL0     H23190  10.717   7.499   2.356  3.4145  1.1313  1.5686
  172MOL0     H23191  10.615   7.365   2.408  1.3483 -2.2704  2.2423
  172MOL0     H23192  10.738   7.366   2.634 -1.8037 -0.5229 -0.9032
  172MOL0     H23193  10.857   7.464   2.580 -1.8282  0.6235  3.2439
  172MOL0     H23194  10.791   7.175   2.496 -1.5165  0.1368  1.6097
  172MOL0     H23195  10.843   7.281   2.366  2.7819 -1.0396  0.1806
  172MOL0     H23196  10.981   7.245   2.639  0.6157  2.6855  1.3054
  172MOL0     H23197  11.030   7.348   2.501 -2.1388  0.4986 -1.7495
  172MOL0     H23198  11.137   7.128   2.554  1.6784  4.9772 -0.1973
  172MOL0     H23199  11.001   7.044   2.466 -0.3983 -0.2365 -0.4820
  172MOL0     H23200  10.218   7.501   2.405 -1.2873  2.5015 -1.2987
  172MOL0     H23201   9.998   7.438   2.380  1.7939 -1.1616  0.5903
  172MOL0     H23202   9.556   7.566   2.462  1.0319 -0.3192  0.7578
  172MOL0     H23203   9.320   7.529   2.416 -0.7340  0.2470  0.4813
  172MOL0     H23204   8.043   6.109   2.387  1.0440  1.6541 -1.3068
  172MOL0     H23205   8.195   5.937   2.293 -2.7198 -0.7034  0.4875
  172MOL0     H23206   8.545   5.713   2.283 -1.0310  0.3876 -1.5816
  172MOL0     H23207   8.669   5.534   2.169  2.2756  0.0221 -0.2663
  172MOL0     H23208   8.803   5.410   2.025 -0.7590 -2.1412  1.5987
  172MOL0     H23209   8.921   5.425   2.153 -0.0597  2.1375 -0.7397
  172MOL0     H23210   8.995   5.421   1.857 -1.4178 -1.6888 -1.0081
  172MOL0     H23211   9.020   5.282   1.956  1.4464  0.7504 -1.0167
  172MOL0     H23212   9.163   5.447   2.108 -0.8904 -0.0177  0.3098
  172MOL0     H23213   9.165   5.548   1.966  1.8173 -0.7547 -0.7724
  172MOL0     H23214   9.376   5.425   1.975 -0.2829  1.1233 -0.5562
  172MOL0     H23215   9.273   5.279   1.998  1.1672  0.5642  0.3954
  172MOL0     H23216   9.305   5.270   1.586 -0.7226  1.1065  0.0376
  172MOL0     H23217   8.942   5.828   2.032 -1.8990  2.2640 -1.5675
  172MOL0     H23218   8.888   6.080   2.249 -0.9971  0.3929  0.6766
  172MOL0     H23219   8.913   6.053   2.078 -1.5081  3.8409 -1.8255
  172MOL0     H23220   8.762   6.124   2.127 -0.2408  0.3806  1.0507
  173MOL0     O23221   5.391   9.072  10.033 -0.1122  0.7599  0.5226
  173MOL0     C23222   5.484   9.000   9.991  0.0648  0.1230  0.0993
  173MOL0     O23223   5.612   9.021  10.000 -0.4757 -0.7098  0.8879
  173MOL0     C23224   5.678   9.145  10.003 -0.1144  0.2359 -0.4369
  173MOL0     C23225   5.808   9.157   9.970 -0.0125  0.1157  0.0683
  173MOL0     C23226   5.883   9.275   9.979  0.6261 -0.3829 -0.1174
  173MOL0     C23227   5.829   9.382  10.049 -0.5932 -0.1253 -0.3451
  173MOL0     O23228   5.909   9.489  10.077  0.2865 -0.8819 -0.3810
  173MOL0     C23229   5.868   9.592  10.168  0.7149 -0.8067  0.2718
  173MOL0     C23230   5.987   9.681  10.207  0.1622 -0.1795  0.5078
  173MOL0     C23231   5.945   9.804  10.285  0.0637 -0.3590  0.1762
  173MOL0     C23232   5.979   9.784  10.438  1.4181  0.2648  0.6772
  173MOL0     C23233   5.943   9.900  10.525  0.0701 -0.5076 -0.8457
  173MOL0     C23234   5.791   9.929  10.539  0.7492  0.4045  0.0648
  173MOL0     C23235   5.758  10.076  10.516 -0.4614  0.2032 -0.9110
  173MOL0     C23236   5.638  10.103  10.608 -0.1913  0.5551  1.0447
  173MOL0     N23237   5.514  10.028  10.577 -0.7843 -0.4074  0.2884
  173MOL0     C23238   5.449  10.032  10.464 -0.2489  0.0951 -0.1125
  173MOL0     C23239   5.347   9.953  10.481  0.1615  0.1762  0.5690
  173MOL0     C23240   5.238   9.924  10.376  0.1971 -0.7605 -1.0764
  173MOL0     C23241   5.173  10.057  10.332 -0.6299 -0.2794  0.8621
  173MOL0     C23242   5.061  10.006  10.233  0.1553 -0.4429  0.7706
  173MOL0     C23243   4.985  10.125  10.175 -0.5428 -0.2996 -0.5879
  173MOL0     O23244   5.071  10.213  10.105 -1.3077 -0.1217 -0.9028
  173MOL0     C23245   5.111  10.173   9.980  0.2345 -0.2636  0.9873
  173MOL0     C23246   5.207  10.247   9.921 -0.2802 -0.1383  0.4009
  173MOL0     C23247   5.259  10.217   9.798 -0.3073  0.5303  0.5412
  173MOL0     C23248   5.212  10.107   9.729  0.2044 -0.3888  0.5829
  173MOL0     C23249   5.282  10.069   9.603  0.2617  0.6836  0.2766
  173MOL0     O23250   5.373  10.153   9.544  0.0425 -1.0556 -0.3211
  173MOL0     C23251   5.426  10.140   9.414  0.9593 -0.3772  0.8440
  173MOL0     C23252   5.479  10.020   9.371  0.4428  0.4461 -0.1145
  173MOL0     C23253   5.549  10.014   9.258 -0.8822  0.1350  0.4671
  173MOL0     C23254   5.556  10.128   9.168  0.6923  0.2032 -0.2205
  173MOL0     O23255   5.620  10.123   9.048  0.7620 -0.0628  0.7169
  173MOL0     C23256   5.748  10.054   9.036  0.1411 -0.5679 -0.0604
  173MOL0     C23257   5.833  10.085   8.914  1.0148 -0.9266  0.6402
  173MOL0     C23258   5.949   9.997   8.900  0.5289  0.3476 -0.5937
  173MOL0     C23259   6.037  10.012   8.775 -0.2097  0.3229  0.9307
  173MOL0     C23260   6.134   9.893   8.762 -0.0456  0.3320 -0.6393
  173MOL0     C23261   6.186   9.880   8.617  0.1610  0.0138 -0.5664
  173MOL0     C23262   6.302   9.794   8.591 -0.8461  0.0082 -0.3213
  173MOL0     C23263   6.341   9.780   8.442  0.8658 -0.2882 -0.6230
  173MOL0    Cl23264   6.326   9.936   8.346  0.4058  0.0715 -0.1467
  173MOL0     C23265   5.486  10.243   9.209 -0.3301 -0.5592  0.7774
  173MOL0     C23266   5.432  10.258   9.334 -0.1742 -0.1643 -0.5259
  173MOL0     O23267   5.245   9.959   9.558 -0.4698 -0.9052 -0.3272
  173MOL0     C23268   5.113  10.027   9.783  0.2558  0.3776 -0.0935
  173MOL0     C23269   5.070  10.059   9.906  0.2879 -0.4418 -0.5134
  173MOL0     N23270   5.353   9.884  10.597 -0.1874  0.0070  0.0417
  173MOL0     N23271   5.458   9.939  10.657 -0.1687 -0.3533 -0.4545
  173MOL0     C23272   5.696   9.375  10.087  0.2973 -0.9896 -0.3114
  173MOL0     C23273   5.615   9.258  10.060 -0.5023 -0.8231  1.2079
  173MOL0     C23274   5.458   8.878   9.909 -0.9947 -0.1159 -0.0595
  173MOL0     C23275   5.561   8.807   9.853 -0.3418  0.1542  1.1693
  173MOL0     C23276   5.548   8.696   9.781 -0.2308  0.3822 -0.4358
  173MOL0     C23277   5.418   8.642   9.773 -0.5550  0.6787  0.4129
  173MOL0     O23278   5.388   8.520   9.723 -0.1802 -0.4444  0.0068
  173MOL0     C23279   5.491   8.443   9.655  0.8089  0.4380 -0.1328
  173MOL0     C23280   5.436   8.310   9.615 -0.2700 -0.3414 -0.3956
  173MOL0     C23281   5.371   8.307   9.471  0.2737  0.7522 -0.1470
  173MOL0     C23282   5.244   8.382   9.462  0.3321 -0.2562  0.4787
  173MOL0     C23283   5.147   8.335   9.557  0.5820  0.3442 -0.5590
  173MOL0     C23284   5.062   8.277   9.627 -0.2209  0.4346 -0.4130
  173MOL0     C23285   5.306   8.709   9.818  0.1525  0.4597 -0.1038
  173MOL0     C23286   5.326   8.825   9.896 -0.1622 -0.1222  0.5240
  173MOL0     C23287   5.203   8.875   9.968  0.7995  0.4267 -0.5810
  173MOL0     H23288   5.863   9.071   9.933 -1.3307 -1.8668  2.4146
  173MOL0     H23289   5.989   9.284   9.961  0.8972 -1.7744  0.6330
  173MOL0     H23290   5.786   9.653  10.130 -1.2374 -1.5752  2.9453
  173MOL0     H23291   5.840   9.548  10.264  0.3852 -1.5268 -0.1466
  173MOL0     H23292   6.025   9.720  10.112  0.9994 -0.9538  0.5139
  173MOL0     H23293   6.061   9.622  10.261  0.1667 -0.4348  0.2312
  173MOL0     H23294   5.839   9.823  10.262  0.9463  0.9266 -3.4855
  173MOL0     H23295   5.997   9.891  10.246 -1.9499  0.5112 -0.7003
  173MOL0     H23296   5.912   9.711  10.484  1.8333 -0.9671 -0.5982
  173MOL0     H23297   6.083   9.751  10.453  0.5262 -4.3365 -1.4586
  173MOL0     H23298   5.979   9.891  10.628  0.3115  3.1076 -0.4789
  173MOL0     H23299   5.993   9.989  10.485 -0.1722  0.2564  0.4929
  173MOL0     H23300   5.735   9.890  10.454 -0.1573  2.8341 -0.5547
  173MOL0     H23301   5.740   9.891  10.628 -3.2293  1.7585 -1.4245
  173MOL0     H23302   5.742  10.101  10.411  1.1679  1.9050 -0.7914
  173MOL0     H23303   5.834  10.147  10.548  0.0879 -0.3133 -1.0477
  173MOL0     H23304   5.663  10.074  10.711  2.8031  0.6879  0.4705
  173MOL0     H23305   5.624  10.211  10.600 -0.6218  0.5591  1.8015
  173MOL0     H23306   5.479  10.070  10.367  2.2003  0.0461  0.5427
  173MOL0     H23307   5.281   9.867  10.293 -0.7172  2.7542 -4.1942
  173MOL0     H23308   5.163   9.868  10.433  1.2876  0.0390  1.2837
  173MOL0     H23309   5.126  10.113  10.413 -1.0202  3.1349 -1.5312
  173MOL0     H23310   5.251  10.121  10.289 -1.3756  0.1231  0.0893
  173MOL0     H23311   4.989   9.942  10.286 -2.3897 -0.2919 -2.1678
  173MOL0     H23312   5.114   9.951  10.154  3.0497  0.9025  1.6484
  173MOL0     H23313   4.955  10.194  10.255  0.6786 -1.8185  1.2482
  173MOL0     H23314   4.896  10.090  10.122  0.4853 -1.0777 -1.8594
  173MOL0     H23315   5.233  10.340   9.970 -1.1118 -0.2479  1.0847
  173MOL0     H23316   5.342  10.272   9.756 -0.7013  0.0047 -1.0005
  173MOL0     H23317   5.486   9.933   9.436  3.8795  2.0952  1.9951
  173MOL0     H23318   5.600   9.921   9.235 -1.6603 -0.2300  0.1909
  173MOL0     H23319   5.806  10.079   9.125  0.9604 -1.7449 -0.2566
  173MOL0     H23320   5.728   9.947   9.045  2.5594 -0.9765  1.0693
  173MOL0     H23321   5.782  10.086   8.817  4.7195  1.9798 -1.4991
  173MOL0     H23322   5.872  10.186   8.926 -1.8404  0.2496  0.7412
  173MOL0     H23323   6.005  10.012   8.992 -0.2594 -2.6618  0.4962
  173MOL0     H23324   5.916   9.893   8.909  0.1372  0.4115 -1.2086
  173MOL0     H23325   6.100  10.100   8.768  3.7057 -2.2469  0.5416
  173MOL0     H23326   5.973  10.005   8.686  3.5963  2.5372 -2.3321
  173MOL0     H23327   6.075   9.801   8.777  2.4065 -1.2471 -0.1206
  173MOL0     H23328   6.216   9.891   8.834 -0.5301 -1.4682 -0.0814
  173MOL0     H23329   6.104   9.854   8.549 -1.3507 -1.2425  1.6312
  173MOL0     H23330   6.216   9.983   8.593  1.5164 -0.7346 -2.3652
  173MOL0     H23331   6.293   9.700   8.647  0.3347  1.3349  2.2551
  173MOL0     H23332   6.379   9.847   8.648 -1.5260  0.6761 -0.0114
  173MOL0     H23333   6.449   9.762   8.438  1.3143  1.5978  1.1720
  173MOL0     H23334   6.267   9.710   8.403  0.1415 -0.3619  0.8253
  173MOL0     H23335   5.485  10.332   9.147 -1.9506 -0.0270  1.5011
  173MOL0     H23336   5.394  10.354   9.368  0.5294 -0.1017  0.1134
  173MOL0     H23337   5.070   9.940   9.735  0.7788 -0.2844  0.6124
  173MOL0     H23338   5.003   9.980   9.938  0.0196  0.0557  0.1808
  173MOL0     H23339   5.659   9.468  10.130 -0.8331 -0.5003 -2.2287
  173MOL0     H23340   5.511   9.258  10.090 -1.0292  1.3501 -0.3854
  173MOL0     H23341   5.661   8.848   9.855 -0.3217  0.0870  2.4096
  173MOL0     H23342   5.633   8.651   9.730 -0.0961  0.1433  0.0004
  173MOL0     H23343   5.580   8.431   9.718  2.1702  3.8363 -1.2128
  173MOL0     H23344   5.529   8.503   9.572 -1.0549  1.2370 -0.4489
  173MOL0     H23345   5.370   8.276   9.695 -0.0997 -3.1102 -1.3312
  173MOL0     H23346   5.522   8.245   9.631 -0.4275  0.0974  2.8341
  173MOL0     H23347   5.358   8.201   9.449 -0.0785  1.0885 -1.6337
  173MOL0     H23348   5.439   8.353   9.399 -0.2822  2.3988  0.3112
  173MOL0     H23349   5.267   8.487   9.486  1.5111  0.0680 -1.7699
  173MOL0     H23350   5.209   8.375   9.359  2.3882  3.5765 -0.6957
  173MOL0     H23351   4.985   8.223   9.678  2.1888 -1.3029  1.6930
  173MOL0     H23352   5.208   8.664   9.809  1.5448 -2.8310 -0.3572
  173MOL0     H23353   5.239   8.898  10.069  0.3259  0.6513 -0.4624
  173MOL0     H23354   5.180   8.969   9.918 -0.1821  1.0316  0.9390
  173MOL0     H23355   5.113   8.811   9.968 -0.8779  2.6071 -2.4574
  174MOL0     O23356   7.948   0.419   0.438  0.0631  0.0570  0.0085
  174MOL0     C23357   8.051   0.362   0.461 -0.1083  0.6093  0.6737
  174MOL0     O23358   8.058   0.225   0.478 -0.6443  0.0952  0.3412
  174MOL0     C23359   7.946   0.151   0.434 -0.2139 -0.9515 -0.9945
  174MOL0     C23360   7.822   0.145   0.507 -0.2504 -0.0016 -0.9166
  174MOL0     C23361   7.717   0.052   0.472 -0.2644 -0.1837  0.8154
  174MOL0     C23362   7.732  -0.026   0.359  0.6868  0.1016  0.2729
  174MOL0     O23363   7.626  -0.102   0.327  1.2513  0.1953 -0.1191
  174MOL0     C23364   7.608  -0.141   0.190 -0.1231  0.4573 -0.6024
  174MOL0     C23365   7.457  -0.161   0.148 -0.5617 -0.3663 -0.2535
  174MOL0     C23366   7.382  -0.247   0.245  0.3906  0.3264  0.9742
  174MOL0     C23367   7.234  -0.257   0.197  0.0635 -0.4628 -0.5932
  174MOL0     C23368   7.172  -0.351   0.293  0.5560  2.0124 -1.3930
  174MOL0     C23369   7.021  -0.333   0.295  0.0972  1.0037  0.0094
  174MOL0     C23370   6.954  -0.449   0.362  1.1553  1.1143 -0.1669
  174MOL0     C23371   6.798  -0.412   0.357  0.8893  0.8549 -0.0370
  174MOL0     N23372   6.743  -0.412   0.223  0.2546  0.1910  0.9784
  174MOL0     C23373   6.779  -0.495   0.128  0.3182 -0.0833 -1.1463
  174MOL0     C23374   6.739  -0.435   0.017 -0.2247  0.9793 -0.1270
  174MOL0     C23375   6.762  -0.479  -0.128  0.3596 -0.5494 -0.3720
  174MOL0     C23376   6.833  -0.374  -0.209 -0.1275  0.6958  0.5620
  174MOL0     C23377   6.836  -0.398  -0.362  0.3477  0.0742 -0.9456
  174MOL0     C23378   6.880  -0.271  -0.433  0.1060  0.6985 -0.9580
  174MOL0     O23379   6.906  -0.303  -0.577  0.1976 -0.1623 -0.2189
  174MOL0     C23380   6.796  -0.344  -0.652  0.3653 -0.2861 -0.3133
  174MOL0     C23381   6.660  -0.305  -0.638  0.4131  0.0647  0.4410
  174MOL0     C23382   6.549  -0.339  -0.723 -0.5778  1.1639 -0.0916
  174MOL0     C23383   6.590  -0.420  -0.833  0.1999  0.6259  0.6472
  174MOL0     C23384   6.494  -0.436  -0.945 -0.2395  0.1872  0.2097
  174MOL0     O23385   6.537  -0.507  -1.062 -0.2984 -0.0800 -0.5828
  174MOL0     C23386   6.444  -0.539  -1.161  0.3282  0.6409  0.7059
  174MOL0     C23387   6.398  -0.669  -1.165 -0.3856 -1.5201 -0.4034
  174MOL0     C23388   6.311  -0.712  -1.264  0.1982  0.7433  0.1650
  174MOL0     C23389   6.258  -0.623  -1.360 -0.2119  0.1774 -0.2898
  174MOL0     O23390   6.168  -0.657  -1.458  1.0693 -0.0420 -0.6505
  174MOL0     C23391   6.175  -0.792  -1.508  0.4065 -0.0487 -0.6615
  174MOL0     C23392   6.115  -0.799  -1.642  0.1138 -0.0265 -0.5652
  174MOL0     C23393   6.100  -0.936  -1.708 -0.6911 -0.1733  0.1140
  174MOL0     C23394   5.947  -0.962  -1.742  0.5313  0.0577  0.3606
  174MOL0     C23395   5.938  -1.099  -1.821  0.0690 -0.8142  0.0887
  174MOL0     C23396   5.803  -1.105  -1.891  0.1151 -0.4868  0.8628
  174MOL0     C23397   5.767  -1.248  -1.949 -0.6510 -0.4830 -0.7133
  174MOL0     C23398   5.830  -1.287  -2.083 -0.2709 -0.3266 -0.4594
  174MOL0    Cl23399   6.010  -1.291  -2.082 -0.1027  0.0456 -0.1645
  174MOL0     C23400   6.307  -0.482  -1.353  0.5257 -0.3020 -0.6840
  174MOL0     C23401   6.399  -0.445  -1.261 -0.3522 -0.6903  0.5535
  174MOL0     O23402   6.379  -0.403  -0.933  0.7986  0.3095 -0.0869
  174MOL0     C23403   6.717  -0.475  -0.840 -0.7216  0.4164 -0.1274
  174MOL0     C23404   6.818  -0.435  -0.751  0.3015 -0.0976  0.5730
  174MOL0     N23405   6.660  -0.321   0.048 -0.7039  0.5564 -0.0312
  174MOL0     N23406   6.676  -0.306   0.173  0.0640 -0.5488  0.0620
  174MOL0     C23407   7.857  -0.029   0.292  0.5903 -1.0982  0.6016
  174MOL0     C23408   7.957   0.061   0.321 -0.4102 -0.0210 -0.1390
  174MOL0     C23409   8.180   0.443   0.483 -1.1755 -0.3355  0.1720
  174MOL0     C23410   8.287   0.383   0.549  0.5516  0.0784  1.0326
  174MOL0     C23411   8.392   0.459   0.596 -0.8051  0.1378 -0.4221
  174MOL0     C23412   8.404   0.596   0.582 -0.1651 -0.6347  0.5548
  174MOL0     O23413   8.506   0.670   0.624 -0.4822 -0.9709  0.0612
  174MOL0     C23414   8.629   0.601   0.650  0.6825  0.0330 -0.9429
  174MOL0     C23415   8.747   0.669   0.574 -0.8191  0.2667  0.0590
  174MOL0     C23416   8.800   0.776   0.658 -0.0664 -1.0016  0.5874
  174MOL0     C23417   8.909   0.859   0.586 -0.8750  0.0771 -0.1579
  174MOL0     C23418   8.905   0.997   0.621  0.7650 -0.0803 -0.9099
  174MOL0     C23419   8.901   1.106   0.673  0.8290  0.3365 -0.4788
  174MOL0     C23420   8.300   0.660   0.500 -0.5920 -0.1711 -0.0343
  174MOL0     C23421   8.189   0.579   0.458  0.0785 -1.1646 -0.0684
  174MOL0     C23422   8.100   0.647   0.365  0.1648 -1.0807  1.0571
  174MOL0     H23423   7.819   0.213   0.592  0.7662 -2.3102  1.1100
  174MOL0     H23424   7.629   0.041   0.535 -1.3381 -0.1899 -0.6340
  174MOL0     H23425   7.663  -0.077   0.120  2.5875 -0.3526  0.6257
  174MOL0     H23426   7.652  -0.241   0.186  0.2228  0.5713  0.2200
  174MOL0     H23427   7.456  -0.223   0.058 -0.3111 -0.8182  0.0527
  174MOL0     H23428   7.403  -0.066   0.144  1.2219  0.6644 -0.3743
  174MOL0     H23429   7.374  -0.197   0.342 -1.8128 -2.3408  2.3282
  174MOL0     H23430   7.428  -0.346   0.251 -1.6192 -0.6768  0.8310
  174MOL0     H23431   7.176  -0.164   0.208  1.1496  0.0946  0.7142
  174MOL0     H23432   7.228  -0.278   0.089  1.1204 -0.9611 -0.5676
  174MOL0     H23433   7.191  -0.454   0.262  2.0591  1.1587  1.8721
  174MOL0     H23434   7.214  -0.332   0.393 -1.0881 -1.7922  0.2152
  174MOL0     H23435   7.002  -0.233   0.332 -3.7059  0.2221  0.5903
  174MOL0     H23436   7.006  -0.331   0.186  1.3272  0.7998 -0.1874
  174MOL0     H23437   6.984  -0.471   0.465  2.6412 -1.9929 -1.1498
  174MOL0     H23438   6.977  -0.541   0.307 -1.3207  1.5836 -2.1644
  174MOL0     H23439   6.740  -0.486   0.412  0.1488  0.8518 -0.7847
  174MOL0     H23440   6.781  -0.309   0.391  0.6062  0.3737  1.3163
  174MOL0     H23441   6.847  -0.580   0.129  0.0260 -0.3484  0.8983
  174MOL0     H23442   6.809  -0.578  -0.125  1.5170 -0.0093  0.4035
  174MOL0     H23443   6.664  -0.490  -0.174 -0.0565 -0.5744  0.4975
  174MOL0     H23444   6.777  -0.280  -0.196 -1.9277 -0.0870 -0.9988
  174MOL0     H23445   6.936  -0.354  -0.177  0.5038 -0.1304 -0.8762
  174MOL0     H23446   6.742  -0.433  -0.404  0.5205 -0.7536 -0.6533
  174MOL0     H23447   6.910  -0.476  -0.380 -0.7016 -1.4856  1.1153
  174MOL0     H23448   6.978  -0.252  -0.389 -0.2048  0.4742 -0.1629
  174MOL0     H23449   6.825  -0.177  -0.425  1.0999  1.3081 -1.0644
  174MOL0     H23450   6.628  -0.245  -0.554  2.5908  2.3678 -0.2596
  174MOL0     H23451   6.450  -0.302  -0.700 -0.5341  0.7967  0.7041
  174MOL0     H23452   6.431  -0.736  -1.086 -1.5869 -1.4623  0.1669
  174MOL0     H23453   6.270  -0.811  -1.248  0.7498  0.5468  0.4059
  174MOL0     H23454   6.278  -0.831  -1.505  0.2629 -0.4494 -0.9617
  174MOL0     H23455   6.118  -0.855  -1.439 -1.1648  1.9242 -0.0724
  174MOL0     H23456   6.017  -0.750  -1.633 -1.2326 -2.2071 -2.4665
  174MOL0     H23457   6.179  -0.740  -1.708  2.6181 -3.0936 -1.1057
  174MOL0     H23458   6.147  -0.944  -1.806  0.1598  1.2753  0.3764
  174MOL0     H23459   6.138  -1.006  -1.632 -2.2053  0.3896  1.4522
  174MOL0     H23460   5.908  -0.884  -1.809 -0.4556  0.1171  0.9889
  174MOL0     H23461   5.888  -0.955  -1.651  0.6331 -2.0294  0.6419
  174MOL0     H23462   5.930  -1.191  -1.762  1.7203 -0.4244  1.0051
  174MOL0     H23463   6.022  -1.108  -1.890 -2.6927 -1.5609 -3.4951
  174MOL0     H23464   5.722  -1.073  -1.823 -0.9931  1.3353 -1.1830
  174MOL0     H23465   5.815  -1.026  -1.966 -0.5418 -2.9984 -2.0665
  174MOL0     H23466   5.660  -1.234  -1.963 -0.1652  3.0422 -1.9734
  174MOL0     H23467   5.782  -1.329  -1.877 -1.6919 -0.4469 -0.4438
  174MOL0     H23468   5.793  -1.386  -2.113 -1.0766  0.2354 -1.4138
  174MOL0     H23469   5.795  -1.215  -2.157  1.5689  2.7810  1.4743
  174MOL0     H23470   6.265  -0.411  -1.424  0.5851  0.1981 -0.2282
  174MOL0     H23471   6.436  -0.343  -1.261  2.2195 -1.5423  0.5044
  174MOL0     H23472   6.744  -0.554  -0.909  0.7196  2.0489 -1.5115
  174MOL0     H23473   6.918  -0.477  -0.757 -0.6178 -2.2906 -0.4334
  174MOL0     H23474   7.866  -0.096   0.207 -0.1349  1.9061 -2.0527
  174MOL0     H23475   8.048   0.052   0.264  0.0784  1.4795  0.3499
  174MOL0     H23476   8.288   0.276   0.568  1.5636  0.0638  0.9708
  174MOL0     H23477   8.467   0.385   0.624 -1.3296 -0.5232 -0.7338
  174MOL0     H23478   8.639   0.501   0.607  0.2541  0.4301 -2.0107
  174MOL0     H23479   8.643   0.601   0.758 -0.5725  0.0735 -0.7687
  174MOL0     H23480   8.704   0.702   0.479 -0.3611  5.1634  1.3340
  174MOL0     H23481   8.828   0.597   0.556 -0.0474  0.3607  2.7541
  174MOL0     H23482   8.839   0.723   0.745  1.8823 -1.0271 -0.2375
  174MOL0     H23483   8.716   0.840   0.687 -0.0242 -0.5429 -0.2564
  174MOL0     H23484   9.004   0.808   0.605 -0.9053 -0.1579 -0.6189
  174MOL0     H23485   8.896   0.852   0.478  0.6470  1.3871 -0.4529
  174MOL0     H23486   8.895   1.190   0.739 -0.8523  0.2647 -0.4725
  174MOL0     H23487   8.291   0.764   0.470 -3.9903 -0.0390  1.0872
  174MOL0     H23488   8.154   0.726   0.313  1.0430 -3.1541 -1.4215
  174MOL0     H23489   8.065   0.597   0.274  2.1388 -1.2040  0.3119
  174MOL0     H23490   8.006   0.676   0.413 -0.2788 -1.6153  0.5275
  175MOL0     O23491   3.537   5.358   9.766 -0.4127  0.3923 -0.7750
  175MOL0     C23492   3.435   5.368   9.836 -0.4190 -1.3813  0.7169
  175MOL0     O23493   3.311   5.400   9.783 -0.0128  0.6027  0.0907
  175MOL0     C23494   3.307   5.435   9.655 -0.5975 -0.7914 -0.3572
  175MOL0     C23495   3.196   5.386   9.585 -0.2686 -0.1663 -0.5404
  175MOL0     C23496   3.177   5.430   9.452  0.6067  0.8280  0.2796
  175MOL0     C23497   3.259   5.529   9.391  0.0850  0.4970 -0.4147
  175MOL0     O23498   3.259   5.571   9.260  0.0264 -0.1909  0.1228
  175MOL0     C23499   3.141   5.534   9.179  0.9823 -0.4447  1.0167
  175MOL0     C23500   3.167   5.566   9.038 -0.9915 -0.4997  0.5364
  175MOL0     C23501   3.062   5.536   8.935 -0.3667 -0.9871 -0.3191
  175MOL0     C23502   2.994   5.397   8.935 -0.2563  0.3509  0.0201
  175MOL0     C23503   2.914   5.357   8.806  0.5189  0.0291 -0.0194
  175MOL0     C23504   3.004   5.338   8.683  0.9712  0.8837 -0.3334
  175MOL0     C23505   2.937   5.385   8.551 -0.1278 -0.3404 -0.4656
  175MOL0     C23506   3.034   5.375   8.436 -0.3500 -0.6092  0.3294
  175MOL0     N23507   3.152   5.468   8.440 -0.3835 -0.0229  0.1507
  175MOL0     C23508   3.172   5.586   8.370 -0.2911  0.4560  0.4176
  175MOL0     C23509   3.304   5.617   8.392  0.1223  0.5287  0.0171
  175MOL0     C23510   3.385   5.732   8.358  0.9278  1.2259 -0.7295
  175MOL0     C23511   3.493   5.700   8.260  0.4692  0.0264 -0.0791
  175MOL0     C23512   3.558   5.829   8.218 -0.2508 -0.0309 -0.5860
  175MOL0     C23513   3.690   5.791   8.156  0.7844  0.6990  0.6420
  175MOL0     O23514   3.736   5.902   8.090 -0.1846  0.1221  0.3185
  175MOL0     C23515   3.750   6.015   8.154 -0.7524  0.2221  0.2473
  175MOL0     C23516   3.691   6.129   8.092  0.4574  0.0674 -0.3598
  175MOL0     C23517   3.709   6.260   8.136  0.0295 -0.2631 -0.3251
  175MOL0     C23518   3.781   6.287   8.254  1.1159  0.0555  0.0754
  175MOL0     C23519   3.785   6.423   8.298  0.6869 -0.2990  0.2285
  175MOL0     O23520   3.766   6.519   8.205 -0.7829  0.1431  0.5390
  175MOL0     C23521   3.774   6.645   8.245  0.2662  1.0693 -0.0534
  175MOL0     C23522   3.656   6.690   8.303  0.3849  0.4315  0.4954
  175MOL0     C23523   3.644   6.830   8.329 -0.2013 -0.0828 -0.8815
  175MOL0     C23524   3.755   6.908   8.302 -0.4575  0.2211  0.2802
  175MOL0     O23525   3.742   7.048   8.312  0.6164 -0.0228 -0.4731
  175MOL0     C23526   3.849   7.134   8.281  0.3466 -0.4934 -0.9372
  175MOL0     C23527   3.807   7.264   8.342  0.0110  0.1640  0.3095
  175MOL0     C23528   3.901   7.375   8.304  1.1877 -0.2767  0.2757
  175MOL0     C23529   3.848   7.515   8.347  0.2162  0.2490 -0.1419
  175MOL0     C23530   3.944   7.629   8.335 -0.6172  0.6867 -0.5633
  175MOL0     C23531   3.876   7.751   8.371 -0.5957  0.6874  0.1639
  175MOL0     C23532   3.967   7.869   8.408  0.0032  0.5620 -0.7931
  175MOL0     C23533   3.899   7.958   8.515  0.1432  0.3308  0.1110
  175MOL0    Cl23534   4.009   8.079   8.577 -0.2160  0.0410 -0.6790
  175MOL0     C23535   3.875   6.846   8.255 -0.0348  0.9969 -0.2014
  175MOL0     C23536   3.886   6.719   8.224 -0.3406  1.1233  0.0758
  175MOL0     O23537   3.793   6.446   8.416  0.3532 -0.1021  0.3112
  175MOL0     C23538   3.832   6.172   8.319  0.7527 -0.0053 -1.1300
  175MOL0     C23539   3.824   6.041   8.271 -0.1652  0.2678  0.0945
  175MOL0     N23540   3.357   5.517   8.465 -0.2881 -0.0574  0.0783
  175MOL0     N23541   3.266   5.435   8.509 -0.2271 -0.6281  0.2442
  175MOL0     C23542   3.363   5.577   9.463 -0.5115  1.1841 -0.2426
  175MOL0     C23543   3.391   5.530   9.593 -0.2089 -1.1409  0.3186
  175MOL0     C23544   3.449   5.342   9.980  0.8587  0.1876 -0.7859
  175MOL0     C23545   3.329   5.324  10.057  0.9698 -0.2095 -0.4607
  175MOL0     C23546   3.318   5.300  10.197  0.6641  0.1913 -0.8642
  175MOL0     C23547   3.436   5.287  10.270 -0.0102 -0.3490 -0.0346
  175MOL0     O23548   3.434   5.227  10.391  0.1564  0.3781  0.3569
  175MOL0     C23549   3.523   5.115  10.410  0.1602  0.3445 -0.5337
  175MOL0     C23550   3.460   5.047  10.534  0.0939  0.3665  0.0831
  175MOL0     C23551   3.316   5.009  10.519  0.6197  0.0579  0.1902
  175MOL0     C23552   3.289   4.915  10.402 -0.0293 -0.3935 -1.1179
  175MOL0     C23553   3.381   4.808  10.388 -0.6213  0.5104 -0.3977
  175MOL0     C23554   3.465   4.714  10.379  0.8206 -0.8072  0.0269
  175MOL0     C23555   3.554   5.313  10.203 -0.6682 -0.1587 -0.0156
  175MOL0     C23556   3.570   5.337  10.063 -0.0625 -0.3519  0.3512
  175MOL0     C23557   3.705   5.371  10.001 -0.7133  0.7840 -0.7434
  175MOL0     H23558   3.138   5.302   9.622 -0.9277  0.2378 -0.6411
  175MOL0     H23559   3.092   5.390   9.398  0.6871  1.6022 -0.4498
  175MOL0     H23560   3.134   5.425   9.187  0.4814 -0.2798  4.4251
  175MOL0     H23561   3.041   5.568   9.207  0.0291 -3.0381  1.0358
  175MOL0     H23562   3.265   5.528   9.011 -1.2694 -0.6355 -0.2931
  175MOL0     H23563   3.166   5.676   9.044  1.3256 -0.3898 -0.3244
  175MOL0     H23564   3.118   5.561   8.845  1.7324  1.6051  1.5457
  175MOL0     H23565   2.972   5.597   8.943 -0.4308 -1.3421  4.5201
  175MOL0     H23566   3.076   5.325   8.942  0.4935  1.1117 -0.7203
  175MOL0     H23567   2.932   5.388   9.024  1.8220  3.5080  1.9623
  175MOL0     H23568   2.860   5.264   8.826 -0.5342  0.8144  0.9285
  175MOL0     H23569   2.843   5.438   8.789 -0.2885 -1.0513 -2.2058
  175MOL0     H23570   3.087   5.405   8.708  1.1178 -0.4740  3.4620
  175MOL0     H23571   3.035   5.233   8.683 -2.1850 -0.2512  2.7022
  175MOL0     H23572   2.903   5.488   8.560  1.5162  0.0485  2.3614
  175MOL0     H23573   2.852   5.320   8.528  0.5174 -1.2719 -0.3163
  175MOL0     H23574   3.074   5.273   8.432 -0.1790 -0.5148 -3.2487
  175MOL0     H23575   2.969   5.398   8.351  2.3854 -1.7142 -2.2331
  175MOL0     H23576   3.105   5.640   8.304  1.8098  2.6909 -0.0344
  175MOL0     H23577   3.325   5.807   8.306  2.3613  1.1216 -2.6541
  175MOL0     H23578   3.418   5.777   8.452  0.4229  2.3984 -1.0872
  175MOL0     H23579   3.565   5.630   8.305  0.2576 -0.1140  0.0430
  175MOL0     H23580   3.451   5.646   8.175  1.0260 -1.1096  0.3337
  175MOL0     H23581   3.577   5.902   8.297  3.9638 -0.1675 -1.2304
  175MOL0     H23582   3.500   5.886   8.146  0.0997  3.5392  1.7120
  175MOL0     H23583   3.668   5.706   8.091  1.7702  0.3805  0.7250
  175MOL0     H23584   3.766   5.763   8.229 -0.3949 -0.5897  1.4317
  175MOL0     H23585   3.633   6.114   8.002 -2.0400  3.5272  0.4842
  175MOL0     H23586   3.668   6.342   8.077  2.7553  0.7674 -0.9370
  175MOL0     H23587   3.572   6.628   8.330  0.7153  0.1348  0.8394
  175MOL0     H23588   3.546   6.872   8.351 -0.6391 -2.5794  2.8241
  175MOL0     H23589   3.936   7.106   8.340  1.1791  0.9899 -1.4128
  175MOL0     H23590   3.863   7.152   8.174  1.8486  2.3104 -0.3476
  175MOL0     H23591   3.707   7.303   8.324  0.0230  0.8233  1.5358
  175MOL0     H23592   3.800   7.244   8.450  2.4998 -0.1448  0.4786
  175MOL0     H23593   3.998   7.353   8.348  0.6148 -1.9306  0.7595
  175MOL0     H23594   3.911   7.376   8.195 -2.2520 -2.1426 -0.2085
  175MOL0     H23595   3.821   7.499   8.451  3.0824 -1.1649  0.4809
  175MOL0     H23596   3.753   7.540   8.298 -0.1189  4.0460  2.1174
  175MOL0     H23597   3.981   7.635   8.232 -0.1626 -0.8992 -0.5208
  175MOL0     H23598   4.031   7.620   8.401  2.1889  6.3846 -2.8033
  175MOL0     H23599   3.813   7.776   8.284 -0.3725 -0.7495 -0.4474
  175MOL0     H23600   3.793   7.727   8.438  0.0092 -2.9890 -0.1740
  175MOL0     H23601   3.996   7.925   8.319 -0.3254  3.0373  0.5677
  175MOL0     H23602   4.063   7.836   8.448 -0.1155 -0.3513 -1.2329
  175MOL0     H23603   3.816   8.012   8.469  0.9847 -0.3971 -2.4018
  175MOL0     H23604   3.864   7.897   8.598  0.8839 -0.7877 -0.3655
  175MOL0     H23605   3.953   6.918   8.234 -0.9021  1.6241 -1.4145
  175MOL0     H23606   3.958   6.673   8.157  0.0187 -1.5675  2.1616
  175MOL0     H23607   3.893   6.208   8.402 -0.5640 -1.8643  0.7354
  175MOL0     H23608   3.888   5.964   8.314  2.1555  1.2210 -1.4429
  175MOL0     H23609   3.425   5.654   9.417 -3.3492  3.0554 -1.2072
  175MOL0     H23610   3.477   5.565   9.650 -1.2911  3.9058 -0.7470
  175MOL0     H23611   3.234   5.331  10.006  1.8486  1.1586 -2.0177
  175MOL0     H23612   3.224   5.292  10.251  0.7299  1.2949 -0.5493
  175MOL0     H23613   3.623   5.149  10.438  0.0560 -1.0775  1.7871
  175MOL0     H23614   3.533   5.049  10.323  0.4200 -1.2736  0.6852
  175MOL0     H23615   3.480   5.111  10.620  2.3599 -0.7063  0.4436
  175MOL0     H23616   3.525   4.964  10.564  1.0208  2.0792  3.3300
  175MOL0     H23617   3.258   5.102  10.518  0.5011  0.0044  1.3169
  175MOL0     H23618   3.276   4.962  10.609 -0.0149  2.0517  1.0109
  175MOL0     H23619   3.189   4.871  10.412  1.2743 -3.7533 -1.4790
  175MOL0     H23620   3.299   4.984  10.318 -1.4794  0.4508 -0.6297
  175MOL0     H23621   3.530   4.631  10.362  0.1063 -0.8417 -3.2252
  175MOL0     H23622   3.649   5.322  10.254  0.4350 -0.0229 -2.0046
  175MOL0     H23623   3.736   5.289   9.936  0.2938  0.6286 -0.0968
  175MOL0     H23624   3.690   5.467   9.950  1.9776  1.4648 -0.4076
  175MOL0     H23625   3.786   5.389  10.072 -0.3226 -0.2001 -0.9173
  176MOL0     O23626   2.206   1.107   8.461  0.5623 -0.2319  0.6952
  176MOL0     C23627   2.105   1.039   8.455  0.4164  0.0417  0.6225
  176MOL0     O23628   1.978   1.093   8.473  0.2826  0.4351 -0.0373
  176MOL0     C23629   1.960   1.231   8.471  0.1926 -0.3749 -0.0138
  176MOL0     C23630   1.938   1.298   8.351 -0.1778 -0.2129 -0.2593
  176MOL0     C23631   1.902   1.429   8.346 -0.5052 -0.2188  0.1776
  176MOL0     C23632   1.901   1.508   8.462  0.4288 -0.4688 -0.1729
  176MOL0     O23633   1.856   1.637   8.445 -0.0720 -0.2578  0.1619
  176MOL0     C23634   1.894   1.732   8.553  0.3426 -0.1598  0.3187
  176MOL0     C23635   1.890   1.879   8.495 -0.6954  0.7244  0.3519
  176MOL0     C23636   1.957   1.971   8.611  0.6274  0.2783  0.3855
  176MOL0     C23637   1.856   1.983   8.735 -0.8976  0.6799  0.2773
  176MOL0     C23638   1.907   2.041   8.864 -0.1182 -0.1725  0.9728
  176MOL0     C23639   1.929   2.197   8.835  0.8533  0.0936 -0.0134
  176MOL0     C23640   1.954   2.274   8.961 -0.0052  0.0186  0.7361
  176MOL0     C23641   2.069   2.227   9.046  0.0751  0.2633  0.1854
  176MOL0     N23642   2.182   2.323   9.057  0.5901  0.2337  0.4643
  176MOL0     C23643   2.190   2.430   9.139 -0.6903 -0.2523  0.6956
  176MOL0     C23644   2.307   2.496   9.100  0.1589  1.2949  0.1179
  176MOL0     C23645   2.335   2.627   9.166  0.5953 -0.6553  0.3078
  176MOL0     C23646   2.428   2.703   9.071 -0.3096  0.5266 -0.3546
  176MOL0     C23647   2.462   2.841   9.122  0.1495 -0.7068  0.6158
  176MOL0     C23648   2.535   2.854   9.259 -0.4787  0.7459  0.2005
  176MOL0     O23649   2.639   2.756   9.273 -0.0841  1.1900  0.4207
  176MOL0     C23650   2.720   2.756   9.389  0.4685  0.3763 -0.0856
  176MOL0     C23651   2.833   2.666   9.390  0.2071  0.1658 -0.1064
  176MOL0     C23652   2.916   2.663   9.496  0.3326 -0.4681 -0.0245
  176MOL0     C23653   2.914   2.751   9.602  0.3907 -0.6147  0.0973
  176MOL0     C23654   3.000   2.746   9.711 -0.1223 -1.0353  0.0871
  176MOL0     O23655   3.134   2.723   9.671 -0.2483  0.2300  0.5012
  176MOL0     C23656   3.233   2.722   9.766  0.0846  0.5786  0.5956
  176MOL0     C23657   3.349   2.796   9.744 -0.0719 -0.2078  0.2819
  176MOL0     C23658   3.434   2.812   9.844 -0.9618  0.3033 -0.1310
  176MOL0     C23659   3.421   2.743   9.966  0.6585 -1.0153 -0.1132
  176MOL0     O23660   3.513   2.775  10.067 -0.6453 -0.4750  0.4490
  176MOL0     C23661   3.512   2.720  10.203 -0.3654 -0.0600  0.8777
  176MOL0     C23662   3.660   2.716  10.247  0.1878  0.8671  0.4394
  176MOL0     C23663   3.663   2.658  10.384  0.4963  0.4409 -0.1898
  176MOL0     C23664   3.635   2.767  10.485 -0.3232  0.3765 -0.8267
  176MOL0     C23665   3.765   2.843  10.518  0.3825  0.4378 -0.2990
  176MOL0     C23666   3.759   2.933  10.636 -0.1519  0.8153  0.3489
  176MOL0     C23667   3.885   3.030  10.652  1.2627 -0.6416  0.8328
  176MOL0     C23668   3.843   3.169  10.687  0.0207 -0.0541 -0.2414
  176MOL0    Cl23669   3.820   3.251  10.527  0.0588  0.1118  0.1372
  176MOL0     C23670   3.305   2.665   9.995  0.2902  1.0761 -0.4772
  176MOL0     C23671   3.211   2.654   9.891  0.2377  0.7878 -0.1907
  176MOL0     O23672   2.966   2.773   9.826  0.8058 -0.2652 -1.3402
  176MOL0     C23673   2.809   2.843   9.602 -0.1068  0.0336 -0.4807
  176MOL0     C23674   2.717   2.853   9.500  0.0706  0.0475 -0.2892
  176MOL0     N23675   2.368   2.420   9.002 -0.6144 -0.0993  0.8613
  176MOL0     N23676   2.296   2.319   8.979 -0.7847 -0.0720  0.4947
  176MOL0     C23677   1.915   1.447   8.582  0.4489  0.5531 -1.1335
  176MOL0     C23678   1.951   1.306   8.588 -1.0597 -0.4428 -0.9677
  176MOL0     C23679   2.117   0.888   8.440  0.6508 -0.2631 -0.1472
  176MOL0     C23680   1.997   0.802   8.418 -0.1867  0.3943  0.4041
  176MOL0     C23681   2.008   0.665   8.410 -0.1193  0.1700 -0.4080
  176MOL0     C23682   2.131   0.610   8.416 -0.0284  0.4595  0.4643
  176MOL0     O23683   2.134   0.470   8.423 -0.3302  0.3806 -0.3059
  176MOL0     C23684   2.118   0.424   8.287 -0.4325  0.2219  0.3157
  176MOL0     C23685   2.165   0.284   8.261  0.1590 -0.1806  0.3908
  176MOL0     C23686   2.076   0.182   8.328  0.9718  0.0657 -0.0320
  176MOL0     C23687   2.145   0.054   8.373 -0.9075 -1.0380  0.2894
  176MOL0     C23688   2.259   0.074   8.464  0.4938 -0.4980  1.1881
  176MOL0     C23689   2.347   0.078   8.545 -0.0572 -0.9443 -0.3780
  176MOL0     C23690   2.244   0.688   8.426  0.4377  0.7004 -0.0831
  176MOL0     C23691   2.245   0.826   8.438  0.2050 -0.0079  0.1015
  176MOL0     C23692   2.375   0.889   8.465 -0.4777  0.6925  0.3938
  176MOL0     H23693   1.954   1.254   8.252 -0.0774 -0.1565 -0.2690
  176MOL0     H23694   1.887   1.476   8.249  2.8028  2.1469  0.6297
  176MOL0     H23695   1.817   1.720   8.630 -1.3141 -1.4555 -1.4323
  176MOL0     H23696   1.989   1.710   8.601  0.3039 -0.1700  0.3928
  176MOL0     H23697   1.787   1.913   8.477 -0.7211  0.5307  0.1298
  176MOL0     H23698   1.941   1.892   8.400  1.2625 -2.3067  0.8645
  176MOL0     H23699   1.966   2.068   8.560  2.2912 -1.0215 -2.0020
  176MOL0     H23700   2.052   1.931   8.645  0.3267 -0.2849  0.5763
  176MOL0     H23701   1.763   2.027   8.699  0.1481  1.3489 -1.7633
  176MOL0     H23702   1.822   1.881   8.756  0.7790  0.1370  0.5028
  176MOL0     H23703   1.833   2.010   8.938 -2.9841 -2.2424 -2.4444
  176MOL0     H23704   2.001   1.986   8.879 -1.8115 -4.0848 -1.3787
  176MOL0     H23705   2.022   2.201   8.777  0.9862 -0.8586  0.1262
  176MOL0     H23706   1.834   2.231   8.792  0.9122  0.1912 -0.0670
  176MOL0     H23707   1.862   2.276   9.021  0.1399  3.1567  1.0292
  176MOL0     H23708   1.987   2.375   8.934 -0.2923 -0.7616 -3.0757
  176MOL0     H23709   2.037   2.205   9.149  1.0663  1.4131  0.7635
  176MOL0     H23710   2.109   2.135   9.004  0.4752  0.8520 -0.7511
  176MOL0     H23711   2.121   2.464   9.216 -2.1542  2.0442 -1.4756
  176MOL0     H23712   2.241   2.682   9.181  2.3210  1.7582  3.3845
  176MOL0     H23713   2.388   2.618   9.261  0.2893  0.9140  0.6478
  176MOL0     H23714   2.521   2.647   9.058 -1.7394 -2.5999  1.7511
  176MOL0     H23715   2.380   2.713   8.973 -0.4826 -0.0838 -0.3390
  176MOL0     H23716   2.370   2.900   9.126  0.0840 -0.8716  2.3756
  176MOL0     H23717   2.532   2.884   9.048 -2.0416  3.8550  0.8401
  176MOL0     H23718   2.465   2.839   9.342 -2.6346  0.8112 -1.5296
  176MOL0     H23719   2.575   2.954   9.273  0.1640  0.8722 -2.0859
  176MOL0     H23720   2.843   2.595   9.309 -1.4124  0.3200 -0.4743
  176MOL0     H23721   3.005   2.600   9.503  0.0162 -0.7899  1.2597
  176MOL0     H23722   3.364   2.833   9.643 -0.2940 -0.3281  0.2040
  176MOL0     H23723   3.513   2.884   9.825 -1.0890  0.8829  1.4024
  176MOL0     H23724   3.456   2.785  10.270  1.9303  1.5470  1.3351
  176MOL0     H23725   3.468   2.619  10.203 -1.5800  0.4495  1.4821
  176MOL0     H23726   3.708   2.654  10.171  1.5279  2.6897 -0.2765
  176MOL0     H23727   3.711   2.812  10.240  0.7578  0.4254 -2.4105
  176MOL0     H23728   3.595   2.574  10.401  0.3504  0.7451  0.8118
  176MOL0     H23729   3.759   2.610  10.403 -0.8052 -1.4014  2.3668
  176MOL0     H23730   3.586   2.714  10.567 -0.3489  1.4280 -0.1422
  176MOL0     H23731   3.565   2.841  10.446  0.2138  0.7332 -1.1343
  176MOL0     H23732   3.798   2.899  10.430 -0.5044  1.9206  0.2820
  176MOL0     H23733   3.839   2.766  10.544  1.2855  1.5032  0.3635
  176MOL0     H23734   3.670   2.996  10.629 -0.9656 -0.1781  1.3829
  176MOL0     H23735   3.761   2.871  10.726  2.0482 -0.4439 -0.4808
  176MOL0     H23736   3.947   3.025  10.562  1.6375 -2.6772  1.1460
  176MOL0     H23737   3.961   3.007  10.727  3.8881  2.2315 -0.7121
  176MOL0     H23738   3.757   3.157  10.754  1.4602 -2.0446  1.3661
  176MOL0     H23739   3.916   3.218  10.752  2.1259 -2.8838 -0.2684
  176MOL0     H23740   3.275   2.621  10.090  1.3856 -0.1905 -0.6778
  176MOL0     H23741   3.124   2.590   9.902 -0.2177  1.4261 -0.0404
  176MOL0     H23742   2.809   2.906   9.690  0.0009 -1.0880  0.3385
  176MOL0     H23743   2.625   2.909   9.511 -0.4225 -0.8641  0.2780
  176MOL0     H23744   1.888   1.493   8.677  1.7215 -0.0383 -0.4589
  176MOL0     H23745   1.969   1.263   8.686  1.0834  1.4389 -0.4623
  176MOL0     H23746   1.900   0.848   8.405 -2.9167 -4.5186  0.7049
  176MOL0     H23747   1.915   0.608   8.413 -0.6158  0.9124 -1.1480
  176MOL0     H23748   2.180   0.481   8.218  1.3700 -4.8473 -2.8256
  176MOL0     H23749   2.021   0.444   8.239  1.8996  3.6547 -3.6688
  176MOL0     H23750   2.265   0.276   8.303 -0.0060  2.0628  1.4077
  176MOL0     H23751   2.174   0.265   8.154  2.5613 -0.5641  0.6189
  176MOL0     H23752   1.996   0.150   8.260  1.8685  2.7106 -2.5683
  176MOL0     H23753   2.022   0.222   8.414 -1.0647 -3.5114  0.5136
  176MOL0     H23754   2.072  -0.004   8.430 -1.6153  0.2108  0.6670
  176MOL0     H23755   2.182  -0.012   8.293  2.8945  1.0617  0.0904
  176MOL0     H23756   2.429   0.077   8.613  2.8196  0.6363 -3.5547
  176MOL0     H23757   2.329   0.620   8.430 -0.6507 -1.3596 -5.0648
  176MOL0     H23758   2.389   0.917   8.570  1.8090 -2.2634  1.0352
  176MOL0     H23759   2.448   0.809   8.443 -4.2345 -3.1398  0.5710
  176MOL0     H23760   2.401   0.976   8.404  0.6491  0.1792  0.1113
  177MOL0     O23761   3.194   4.134   0.186  0.0990 -0.0027  0.2380
  177MOL0     C23762   3.141   4.036   0.229 -0.6010  0.6109  0.3437
  177MOL0     O23763   3.205   3.910   0.215 -0.5312 -0.1233 -0.8261
  177MOL0     C23764   3.318   3.890   0.133  0.2534  0.5437 -1.2109
  177MOL0     C23765   3.408   3.791   0.184  0.2088 -0.1275  0.7531
  177MOL0     C23766   3.520   3.762   0.101 -0.0064 -0.7877  0.2750
  177MOL0     C23767   3.540   3.807  -0.025  0.5512  0.2447  0.6812
  177MOL0     O23768   3.650   3.779  -0.101  0.0113 -0.2757  0.3763
  177MOL0     C23769   3.636   3.746  -0.242  1.0107  0.1354  0.4395
  177MOL0     C23770   3.642   3.603  -0.261  0.0445  0.0497 -0.2322
  177MOL0     C23771   3.510   3.540  -0.236  0.7916 -0.0333 -0.0176
  177MOL0     C23772   3.512   3.428  -0.131 -0.3059  0.9145  0.1614
  177MOL0     C23773   3.390   3.344  -0.151  0.1985 -0.2094  0.0982
  177MOL0     C23774   3.423   3.209  -0.084  1.4854  1.1185  0.2106
  177MOL0     C23775   3.322   3.089  -0.112  0.7544 -0.7206 -0.4955
  177MOL0     C23776   3.376   2.950  -0.102  0.6216 -0.1222  0.6237
  177MOL0     N23777   3.487   2.938  -0.013 -0.4902  0.1180  0.2549
  177MOL0     C23778   3.485   2.944   0.123  0.3711  0.6919  0.5739
  177MOL0     C23779   3.611   2.939   0.164  0.2695  0.5699  0.1310
  177MOL0     C23780   3.669   2.951   0.300  0.0999 -0.0155 -0.3801
  177MOL0     C23781   3.621   3.088   0.351  0.0616  0.6666 -0.0300
  177MOL0     C23782   3.694   3.202   0.272  0.8807 -0.4196 -0.6714
  177MOL0     C23783   3.845   3.209   0.289 -0.2112 -0.4101  0.3404
  177MOL0     O23784   3.890   3.344   0.293  0.2264 -0.1063  0.2054
  177MOL0     C23785   3.922   3.411   0.185  0.6218 -1.2111 -0.5177
  177MOL0     C23786   3.938   3.381   0.048  0.1330 -0.3787  0.2318
  177MOL0     C23787   3.963   3.472  -0.059 -0.2460  0.1942 -0.7205
  177MOL0     C23788   3.977   3.607  -0.029 -0.0206  1.1973  0.4607
  177MOL0     C23789   4.003   3.716  -0.137 -1.0040  0.2142 -0.6843
  177MOL0     O23790   3.975   3.676  -0.267  0.8151  0.0022  0.2285
  177MOL0     C23791   4.019   3.761  -0.368  0.7756 -0.2012 -0.2335
  177MOL0     C23792   4.158   3.771  -0.390  0.1265  0.1974  0.3912
  177MOL0     C23793   4.203   3.856  -0.495  0.6453  0.0783 -0.3200
  177MOL0     C23794   4.114   3.930  -0.578  0.3438  0.1625 -1.0922
  177MOL0     O23795   4.170   4.014  -0.671  0.5592  0.6782 -0.4152
  177MOL0     C23796   4.100   4.037  -0.799  0.1985 -0.5041 -0.1791
  177MOL0     C23797   4.192   4.125  -0.886  0.0683  0.3095 -0.7614
  177MOL0     C23798   4.146   4.123  -1.035 -0.1692 -0.0525 -0.5330
  177MOL0     C23799   4.203   4.227  -1.120 -0.4221 -0.0653 -0.2624
  177MOL0     C23800   4.197   4.173  -1.262  0.0304 -0.3807  0.5281
  177MOL0     C23801   4.249   4.283  -1.357 -0.2670 -0.3301 -0.0515
  177MOL0     C23802   4.267   4.232  -1.500  0.2302 -0.9285  0.8368
  177MOL0     C23803   4.296   4.332  -1.609 -0.8599 -0.8240  0.9937
  177MOL0    Cl23804   4.169   4.469  -1.619 -0.4251 -0.1013  0.2860
  177MOL0     C23805   3.976   3.905  -0.560 -0.1274 -0.5739  0.0634
  177MOL0     C23806   3.932   3.820  -0.457 -0.7127 -0.0169  0.0993
  177MOL0     O23807   4.035   3.829  -0.108  0.5817  0.2883  0.5619
  177MOL0     C23808   3.982   3.634   0.109  0.5528  0.6971 -0.3616
  177MOL0     C23809   3.949   3.542   0.218 -0.0860 -0.2184 -0.2831
  177MOL0     N23810   3.696   2.948   0.056  1.1290  1.1266 -0.0337
  177MOL0     N23811   3.624   2.943  -0.049  0.0577 -0.4504 -1.1396
  177MOL0     C23812   3.446   3.901  -0.074  0.7961 -0.5830  0.6884
  177MOL0     C23813   3.327   3.930   0.002  0.1370  0.3593  1.1378
  177MOL0     C23814   3.012   4.052   0.302  0.6133  0.3284  0.3636
  177MOL0     C23815   2.986   4.166   0.380  0.1907  0.7497 -0.1285
  177MOL0     C23816   2.865   4.173   0.447 -0.4911 -1.0876 -0.3735
  177MOL0     C23817   2.778   4.069   0.436 -0.0943  1.0390 -0.5308
  177MOL0     O23818   2.672   4.049   0.527  0.0004  0.0650  0.2562
  177MOL0     C23819   2.544   4.091   0.486  0.1626  0.1001  0.2787
  177MOL0     C23820   2.544   4.240   0.441  0.5408 -0.0650 -0.2157
  177MOL0     C23821   2.388   4.277   0.428  0.2189 -0.1173 -0.2201
  177MOL0     C23822   2.384   4.418   0.363 -0.3095 -1.3491 -0.5761
  177MOL0     C23823   2.252   4.457   0.314 -0.9696 -0.0064  0.2941
  177MOL0     C23824   2.150   4.505   0.261 -0.1864 -0.1281  0.7457
  177MOL0     C23825   2.791   3.963   0.343 -0.9176  0.0550  0.0651
  177MOL0     C23826   2.909   3.960   0.270  0.6820  0.1657  0.0800
  177MOL0     C23827   2.922   3.845   0.173  0.4209  0.2157  0.8935
  177MOL0     H23828   3.409   3.735   0.277  2.2602 -1.7726 -0.1770
  177MOL0     H23829   3.592   3.691   0.139 -1.2497 -1.5744  1.2093
  177MOL0     H23830   3.546   3.790  -0.285 -1.5062 -0.8635  4.1631
  177MOL0     H23831   3.721   3.802  -0.281  3.3518 -1.6926  2.5360
  177MOL0     H23832   3.725   3.563  -0.202 -0.0412 -1.9639 -1.3704
  177MOL0     H23833   3.654   3.596  -0.370 -4.0793  0.5204 -0.8952
  177MOL0     H23834   3.468   3.516  -0.334 -0.4009  3.4408 -0.5179
  177MOL0     H23835   3.441   3.613  -0.193  1.2512  0.7634 -0.5872
  177MOL0     H23836   3.602   3.366  -0.138 -2.0736 -2.1400  2.2430
  177MOL0     H23837   3.508   3.478  -0.034  0.8470  1.6341 -0.1399
  177MOL0     H23838   3.301   3.384  -0.102 -2.2086 -1.6613 -2.7781
  177MOL0     H23839   3.363   3.324  -0.255  0.7828 -2.0507  0.2641
  177MOL0     H23840   3.519   3.168  -0.115  1.9144  1.4477  1.0548
  177MOL0     H23841   3.428   3.235   0.022  3.5423  1.7464  0.0055
  177MOL0     H23842   3.291   3.108  -0.215  0.4564  1.3429 -0.0752
  177MOL0     H23843   3.233   3.106  -0.049  3.3760 -0.4443  3.4895
  177MOL0     H23844   3.305   2.871  -0.074  0.2979 -0.2222 -0.4278
  177MOL0     H23845   3.407   2.927  -0.205 -1.1256  0.1270  0.0095
  177MOL0     H23846   3.392   2.942   0.179  0.5379  0.0696  0.8414
  177MOL0     H23847   3.633   2.871   0.365  0.5257  0.2478  0.1914
  177MOL0     H23848   3.778   2.949   0.286  0.1663  1.4233 -0.1995
  177MOL0     H23849   3.514   3.101   0.331  0.3626 -0.1985 -2.5416
  177MOL0     H23850   3.639   3.090   0.459 -0.7358 -2.3796  0.2551
  177MOL0     H23851   3.654   3.302   0.294 -2.2389 -1.8629  0.9434
  177MOL0     H23852   3.672   3.205   0.165  0.6035  0.1793 -0.6027
  177MOL0     H23853   3.900   3.144   0.221  1.6884  0.5687  0.8841
  177MOL0     H23854   3.866   3.164   0.387  0.0225 -0.5819  0.2117
  177MOL0     H23855   3.929   3.278   0.014  1.0077 -0.2474 -0.4438
  177MOL0     H23856   3.972   3.432  -0.160  2.1301  1.7396 -1.2117
  177MOL0     H23857   4.229   3.707  -0.338  2.4045  0.0545 -2.6331
  177MOL0     H23858   4.310   3.848  -0.503  0.9571 -0.4240  2.8346
  177MOL0     H23859   4.080   3.943  -0.852 -0.1946 -0.7197  0.3421
  177MOL0     H23860   3.998   4.076  -0.794 -0.3345 -1.7086 -1.1332
  177MOL0     H23861   4.182   4.227  -0.847  0.3479 -0.8440  2.6246
  177MOL0     H23862   4.289   4.076  -0.875 -0.0246  0.5518  1.4134
  177MOL0     H23863   4.185   4.027  -1.070 -0.9634 -0.0268 -1.5087
  177MOL0     H23864   4.037   4.128  -1.034 -0.1830  1.9108 -2.7084
  177MOL0     H23865   4.306   4.225  -1.085  0.6739 -2.6568 -3.1531
  177MOL0     H23866   4.152   4.324  -1.116  0.0184  0.1580  0.0031
  177MOL0     H23867   4.092   4.153  -1.286  0.5518 -1.0527 -1.3909
  177MOL0     H23868   4.263   4.087  -1.275 -0.6409 -0.7368 -0.7974
  177MOL0     H23869   4.173   4.361  -1.352 -1.1663 -1.2243  3.9798
  177MOL0     H23870   4.349   4.319  -1.331  0.4667  1.4491 -4.4395
  177MOL0     H23871   4.173   4.193  -1.539 -1.3181  2.3879  0.8878
  177MOL0     H23872   4.338   4.152  -1.522  2.1282  0.8003  0.3384
  177MOL0     H23873   4.391   4.378  -1.582 -1.0868  0.0150  0.4202
  177MOL0     H23874   4.305   4.282  -1.706 -0.1015  0.7535  0.2198
  177MOL0     H23875   3.900   3.952  -0.622  0.6962 -0.4229 -0.8706
  177MOL0     H23876   3.825   3.808  -0.445 -1.1173  3.5585  1.1950
  177MOL0     H23877   3.971   3.737   0.141  1.1107  0.7729 -0.4033
  177MOL0     H23878   3.951   3.575   0.321  1.6350 -1.5228  0.1490
  177MOL0     H23879   3.460   3.944  -0.172  1.3796 -1.6279  0.2947
  177MOL0     H23880   3.251   3.987  -0.049  1.6223  0.9765 -0.5018
  177MOL0     H23881   3.059   4.245   0.393  0.4123  0.1522  3.0668
  177MOL0     H23882   2.848   4.251   0.520 -0.1855 -1.5027  0.1516
  177MOL0     H23883   2.488   4.070   0.577  0.5376 -1.4221  0.1866
  177MOL0     H23884   2.504   4.028   0.405  1.8791 -2.1741  1.0826
  177MOL0     H23885   2.593   4.262   0.346  0.4058 -2.2248 -0.8455
  177MOL0     H23886   2.590   4.313   0.508 -0.9008  0.6154  0.0787
  177MOL0     H23887   2.349   4.286   0.530  0.1201 -2.7690  0.0245
  177MOL0     H23888   2.331   4.203   0.371 -2.2189  1.2695  0.2756
  177MOL0     H23889   2.402   4.499   0.435 -3.0838 -0.9650 -0.1767
  177MOL0     H23890   2.452   4.426   0.278 -0.0216  4.0778 -0.1750
  177MOL0     H23891   2.056   4.537   0.220 -0.1811 -4.2326 -3.3281
  177MOL0     H23892   2.707   3.894   0.338 -0.5825 -0.3790  0.3814
  177MOL0     H23893   2.821   3.803   0.166 -0.2050  1.7255  0.5783
  177MOL0     H23894   2.954   3.888   0.078 -2.1222  3.2655  1.2685
  177MOL0     H23895   2.980   3.755   0.198 -1.9145 -1.7791 -0.4227
  178MOL0     O23896  11.286   1.945  10.884  0.1357  0.2416  0.1131
  178MOL0     C23897  11.338   1.981  10.778  0.3179 -0.6290  0.1182
  178MOL0     O23898  11.456   2.052  10.754 -0.5905 -0.6078  0.0096
  178MOL0     C23899  11.547   2.044  10.857 -0.6902  0.6825 -0.0275
  178MOL0     C23900  11.583   1.926  10.930 -0.3520  0.4299 -0.4991
  178MOL0     C23901  11.669   1.929  11.035  0.5450 -0.5326 -0.3246
  178MOL0     C23902  11.742   2.048  11.062 -0.0116 -0.5623 -0.0216
  178MOL0     O23903  11.830   2.043  11.167 -0.7821 -0.0946  1.3024
  178MOL0     C23904  11.973   2.038  11.127 -0.0528  0.2815  0.5320
  178MOL0     C23905  11.994   1.921  11.022 -0.2853  0.6491 -0.5725
  178MOL0     C23906  11.985   1.959  10.873 -0.3901 -0.3088 -0.2389
  178MOL0     C23907  12.032   1.842  10.780  0.0309  0.5165  0.5543
  178MOL0     C23908  12.042   1.874  10.634  0.7488  0.3054 -0.5198
  178MOL0     C23909  12.088   1.760  10.551 -0.0286  1.1047  0.8178
  178MOL0     C23910  12.102   1.780  10.395 -0.1321  0.3024  0.0791
  178MOL0     C23911  11.970   1.823  10.334 -0.3342  0.5007 -0.2401
  178MOL0     N23912  11.989   1.786  10.193  0.4377  0.3522  0.6909
  178MOL0     C23913  11.958   1.663  10.142  0.5936  0.1630  0.0133
  178MOL0     C23914  12.024   1.642  10.032  0.3424 -0.0124 -0.6102
  178MOL0     C23915  12.032   1.527   9.945 -0.0957  0.6774 -0.3766
  178MOL0     C23916  11.905   1.437   9.940 -0.5066 -0.3901  0.8679
  178MOL0     C23917  11.946   1.313   9.854  0.2481 -0.5687  0.0688
  178MOL0     C23918  11.843   1.208   9.848 -0.0901  0.3651  0.7734
  178MOL0     O23919  11.835   1.135   9.973  0.4697 -0.3533  0.3673
  178MOL0     C23920  11.772   1.016   9.972  0.5535 -0.1758  0.0714
  178MOL0     C23921  11.789   0.947  10.093 -0.0802  0.2529 -0.5618
  178MOL0     C23922  11.742   0.817  10.109 -0.5315 -0.7809  0.7565
  178MOL0     C23923  11.664   0.761  10.017  0.0430  0.4231  0.4653
  178MOL0     C23924  11.592   0.632  10.045 -0.1621  0.4023  0.5746
  178MOL0     O23925  11.526   0.580   9.936  0.0843  0.5014  0.0055
  178MOL0     C23926  11.447   0.471   9.973 -0.4865  0.1860 -0.5234
  178MOL0     C23927  11.491   0.337   9.947 -0.3265  0.2035  0.0988
  178MOL0     C23928  11.410   0.229   9.967 -0.3081 -0.4880  0.3372
  178MOL0     C23929  11.272   0.245   9.996  0.8130 -0.7370 -0.7085
  178MOL0     O23930  11.191   0.136  10.004 -0.1443 -0.7261 -0.1423
  178MOL0     C23931  11.203   0.027   9.923 -0.3945  0.6633  1.2797
  178MOL0     C23932  11.165  -0.093  10.014  0.8648  0.2617  0.5624
  178MOL0     C23933  11.297  -0.129  10.093 -0.4905 -0.0308 -0.4174
  178MOL0     C23934  11.253  -0.103  10.239 -0.4270  0.0660  0.2363
  178MOL0     C23935  11.362  -0.138  10.356  0.5058 -0.6085 -0.4181
  178MOL0     C23936  11.358  -0.287  10.397 -0.9198 -0.4111 -1.7704
  178MOL0     C23937  11.500  -0.342  10.437  0.1943  0.5278  0.3350
  178MOL0     C23938  11.514  -0.460  10.524  0.7676 -0.8346 -0.9579
  178MOL0    Cl23939  11.441  -0.440  10.688 -0.2429 -0.1068 -0.1433
  178MOL0     C23940  11.223   0.374  10.016 -0.3056  0.1339  0.2925
  178MOL0     C23941  11.310   0.488   9.998  0.7181  0.7894 -0.7020
  178MOL0     O23942  11.606   0.583  10.158  0.1085 -0.4462  0.3757
  178MOL0     C23943  11.661   0.822   9.892 -0.4970  0.1764 -0.1893
  178MOL0     C23944  11.704   0.947   9.871 -0.3468  0.3134  0.6977
  178MOL0     N23945  12.078   1.769  10.001 -0.4232  0.2322 -0.3446
  178MOL0     N23946  12.058   1.855  10.100  0.2178 -0.0381 -0.3047
  178MOL0     C23947  11.708   2.164  10.986  0.8399  0.0785  0.1035
  178MOL0     C23948  11.617   2.161  10.879 -0.7051 -0.1423  0.0821
  178MOL0     C23949  11.264   1.944  10.644  0.7584  0.4131 -0.1668
  178MOL0     C23950  11.247   1.812  10.613  1.1539  0.3247 -0.3178
  178MOL0     C23951  11.171   1.773  10.502  0.5601 -1.4140 -0.2130
  178MOL0     C23952  11.128   1.873  10.412  0.0303  1.2351 -0.4943
  178MOL0     O23953  11.052   1.851  10.301 -0.1163 -0.5175  0.5345
  178MOL0     C23954  11.046   1.714  10.248  0.1433 -0.0314 -0.1864
  178MOL0     C23955  11.182   1.676  10.186  0.0846  0.7181 -0.8444
  178MOL0     C23956  11.216   1.752  10.056 -0.8789  0.8307 -0.0007
  178MOL0     C23957  11.340   1.698  10.003 -0.6590  0.0230  0.7354
  178MOL0     C23958  11.326   1.568   9.945  0.4151  0.4644  0.3542
  178MOL0     C23959  11.302   1.455   9.903 -0.0635  0.1196 -0.2235
  178MOL0     C23960  11.154   2.001  10.437 -0.4286  0.5391 -0.3264
  178MOL0     C23961  11.221   2.040  10.554  0.5331 -0.0953  0.1851
  178MOL0     C23962  11.214   2.193  10.584 -0.0747 -0.4850  0.2814
  178MOL0     H23963  11.537   1.833  10.897  2.2902 -1.1336 -0.0911
  178MOL0     H23964  11.678   1.832  11.085  1.3130 -1.0040 -1.3510
  178MOL0     H23965  12.013   2.134  11.093  0.1944 -0.2738 -0.7588
  178MOL0     H23966  12.034   2.017  11.215  0.7619  0.0584 -0.0792
  178MOL0     H23967  11.921   1.842  11.041 -1.1430  1.4545 -0.4298
  178MOL0     H23968  12.096   1.886  11.038  0.5321  3.2640  0.4369
  178MOL0     H23969  12.058   2.040  10.861  1.4582 -1.8986 -0.0449
  178MOL0     H23970  11.886   2.000  10.848 -1.0990 -2.2986 -0.8672
  178MOL0     H23971  12.132   1.812  10.812 -0.1780  0.2123  0.9327
  178MOL0     H23972  11.957   1.763  10.796 -1.0643  1.7092  1.4613
  178MOL0     H23973  11.939   1.902  10.609  0.0281 -2.2732 -0.7039
  178MOL0     H23974  12.104   1.964  10.627 -0.5934  1.1857 -1.5775
  178MOL0     H23975  12.192   1.746  10.581  0.9331  2.9323 -1.3303
  178MOL0     H23976  12.031   1.670  10.574 -0.0717  1.0770  0.6080
  178MOL0     H23977  12.146   1.693  10.346  0.2660  0.9620 -0.7515
  178MOL0     H23978  12.180   1.855  10.376 -0.7324  0.2953 -2.8002
  178MOL0     H23979  11.885   1.767  10.374 -0.2426  2.4544  3.0826
  178MOL0     H23980  11.947   1.930  10.344  0.3868  1.1309 -3.9414
  178MOL0     H23981  11.902   1.578  10.181  0.3655 -0.8386 -2.3528
  178MOL0     H23982  12.055   1.572   9.848 -2.5005  3.1895  0.0890
  178MOL0     H23983  12.122   1.476   9.982  1.5642  0.8685 -3.7354
  178MOL0     H23984  11.859   1.398  10.031 -1.4674 -1.2653  0.0357
  178MOL0     H23985  11.825   1.484   9.883 -0.7592 -3.2115 -1.3085
  178MOL0     H23986  12.031   1.255   9.892 -0.3395 -1.5273 -0.0371
  178MOL0     H23987  11.977   1.345   9.754 -1.3873 -2.7998 -1.2724
  178MOL0     H23988  11.854   1.143   9.761  1.3904 -0.3467  1.4536
  178MOL0     H23989  11.742   1.250   9.848 -1.0613 -1.7844 -0.0438
  178MOL0     H23990  11.840   1.010  10.165 -1.6187 -1.1773  1.9292
  178MOL0     H23991  11.761   0.763  10.201 -0.4243 -0.3736  0.9778
  178MOL0     H23992  11.597   0.325   9.926  0.7239  2.0492  3.6295
  178MOL0     H23993  11.449   0.132   9.939  0.7403  0.1610 -0.5215
  178MOL0     H23994  11.131   0.038   9.841  0.1269  0.7024  0.8192
  178MOL0     H23995  11.299   0.016   9.871 -2.2151 -5.2544 -1.8093
  178MOL0     H23996  11.080  -0.060  10.076  1.2319 -1.2514  1.9300
  178MOL0     H23997  11.128  -0.173   9.949 -2.1390  0.3157  2.0358
  178MOL0     H23998  11.326  -0.233  10.081  0.2436  0.2329 -0.9717
  178MOL0     H23999  11.379  -0.059  10.076 -0.0709  0.0758  1.6724
  178MOL0     H24000  11.173  -0.175  10.258 -2.1808  2.1030  1.0265
  178MOL0     H24001  11.205  -0.005  10.249  2.7206  1.8094 -0.4052
  178MOL0     H24002  11.341  -0.074  10.443 -0.2675  0.3474 -1.2984
  178MOL0     H24003  11.463  -0.108  10.327  0.1704  1.0527  0.0087
  178MOL0     H24004  11.283  -0.293  10.476 -0.1245 -1.1375 -1.0516
  178MOL0     H24005  11.321  -0.346  10.313 -0.7817 -2.2035 -0.6349
  178MOL0     H24006  11.563  -0.269  10.489 -0.5173  0.2649  1.6264
  178MOL0     H24007  11.544  -0.380  10.344 -0.5098 -2.0854  0.9884
  178MOL0     H24008  11.459  -0.537  10.470 -0.5994  1.0455 -2.3504
  178MOL0     H24009  11.614  -0.499  10.546  1.5289 -0.4220 -3.4512
  178MOL0     H24010  11.118   0.398  10.032  0.0553  1.2856  1.0846
  178MOL0     H24011  11.268   0.588  10.007 -0.7801  0.1427 -0.2977
  178MOL0     H24012  11.614   0.772   9.808 -1.6943 -1.8127  1.5825
  178MOL0     H24013  11.689   1.002   9.778 -1.7150  0.8149  1.1889
  178MOL0     H24014  11.750   2.263  10.996 -2.1789  1.5549 -0.8854
  178MOL0     H24015  11.601   2.256  10.830  0.3017 -1.0820 -2.2417
  178MOL0     H24016  11.288   1.736  10.678 -0.1385 -0.0722  0.0514
  178MOL0     H24017  11.152   1.667  10.485  2.1091 -1.7199 -0.2302
  178MOL0     H24018  10.991   1.710  10.153  1.9185  2.1972 -1.4171
  178MOL0     H24019  11.000   1.644  10.318 -1.9941 -0.7028 -2.1222
  178MOL0     H24020  11.166   1.569  10.167  1.3070 -0.4951  3.6387
  178MOL0     H24021  11.262   1.691  10.259 -0.6944  0.9672 -0.0314
  178MOL0     H24022  11.247   1.852  10.087 -1.4500  0.3113  2.3866
  178MOL0     H24023  11.139   1.746   9.978 -0.2107  1.2811 -0.7207
  178MOL0     H24024  11.392   1.763   9.932 -2.2629 -0.0216 -0.5388
  178MOL0     H24025  11.412   1.684  10.084 -1.1084 -1.3744  0.9143
  178MOL0     H24026  11.267   1.365   9.856 -0.7257 -0.2133  0.8747
  178MOL0     H24027  11.115   2.077  10.370 -0.9484 -0.3731 -1.0817
  178MOL0     H24028  11.186   2.251  10.496 -1.3137 -1.7915 -0.2255
  178MOL0     H24029  11.133   2.217  10.653  0.5763  3.6540 -0.1438
  178MOL0     H24030  11.306   2.232  10.630 -1.3816  0.3822  2.2984
  179MOL0     O24031   4.100  10.911   3.548  0.0626  0.1860  0.0902
  179MOL0     C24032   4.153  10.996   3.614 -0.3521 -0.8235 -0.2870
  179MOL0     O24033   4.158  10.997   3.751 -0.4149 -0.2658  0.2317
  179MOL0     C24034   4.189  10.892   3.831  0.2668  0.2631  0.2801
  179MOL0     C24035   4.195  10.760   3.785  0.4668 -0.2527 -0.2114
  179MOL0     C24036   4.220  10.663   3.880 -0.7733  1.0233 -0.0874
  179MOL0     C24037   4.257  10.697   4.004 -0.1493  0.3899 -0.3273
  179MOL0     O24038   4.309  10.601   4.089  0.1553  0.5335  0.0101
  179MOL0     C24039   4.243  10.595   4.219 -0.1298  1.2110 -0.2118
  179MOL0     C24040   4.302  10.475   4.302  0.4129 -0.4401 -0.2287
  179MOL0     C24041   4.190  10.420   4.383 -0.3556 -0.0813 -0.6253
  179MOL0     C24042   4.247  10.280   4.426  0.8169  1.0330  0.7899
  179MOL0     C24043   4.145  10.212   4.520 -0.5212 -0.0296  0.4259
  179MOL0     C24044   4.205  10.098   4.601 -0.7860 -0.4422  0.6541
  179MOL0     C24045   4.120  10.092   4.731  0.3325  0.5465 -0.2958
  179MOL0     C24046   4.156   9.975   4.821  0.1529 -0.9286 -1.0083
  179MOL0     N24047   4.279  10.008   4.902 -1.0934 -0.0062 -0.2851
  179MOL0     C24048   4.287  10.063   5.025 -0.2690 -0.7373  0.1350
  179MOL0     C24049   4.416  10.072   5.062 -0.3486 -0.5206 -0.2226
  179MOL0     C24050   4.463  10.106   5.205 -0.4756  0.5746  0.5970
  179MOL0     C24051   4.500   9.962   5.253  0.4940  0.3965 -0.5357
  179MOL0     C24052   4.526   9.956   5.403 -0.6030 -0.1053  0.7947
  179MOL0     C24053   4.648  10.040   5.436 -0.4151 -0.3150 -0.8447
  179MOL0     O24054   4.770   9.981   5.392  0.5613  0.3633 -0.6765
  179MOL0     C24055   4.801   9.860   5.440  0.2706 -0.7677 -0.0571
  179MOL0     C24056   4.843   9.770   5.345 -0.7178  0.3086 -0.0053
  179MOL0     C24057   4.863   9.637   5.376 -0.5309 -0.0041  0.0357
  179MOL0     C24058   4.868   9.586   5.511 -0.5606 -0.1130  0.1453
  179MOL0     C24059   4.916   9.450   5.556 -0.3387 -0.0051 -0.6114
  179MOL0     O24060   4.881   9.418   5.679 -0.0037  0.4262 -0.3047
  179MOL0     C24061   4.904   9.293   5.740 -0.7334 -0.5505  0.2417
  179MOL0     C24062   4.937   9.306   5.872 -0.1916 -0.4972 -0.3779
  179MOL0     C24063   4.981   9.192   5.940 -0.5056  0.8073 -0.4721
  179MOL0     C24064   4.968   9.064   5.883 -0.3387 -1.4498 -0.8980
  179MOL0     O24065   4.989   8.957   5.962 -0.3414  0.2904 -0.2205
  179MOL0     C24066   5.032   8.837   5.895 -1.0588 -0.2906 -0.4892
  179MOL0     C24067   5.049   8.736   6.004 -0.4374  0.4252 -0.5858
  179MOL0     C24068   5.043   8.596   5.955  0.2148 -0.7517 -0.3187
  179MOL0     C24069   5.178   8.538   5.888 -1.9151 -0.0010  0.7755
  179MOL0     C24070   5.292   8.519   5.984  0.6810  0.2327  0.4421
  179MOL0     C24071   5.433   8.515   5.912  0.9357  0.0117 -0.1838
  179MOL0     C24072   5.473   8.653   5.836  0.3934  0.2738 -0.5978
  179MOL0     C24073   5.593   8.713   5.909  0.7384 -0.0233  0.3243
  179MOL0    Cl24074   5.743   8.623   5.861  0.2450 -0.4587 -0.2908
  179MOL0     C24075   4.948   9.060   5.745  0.2710  0.5139 -0.0771
  179MOL0     C24076   4.921   9.169   5.677  0.7175 -0.4166  0.5603
  179MOL0     O24077   4.970   9.378   5.474  0.8969  0.9858 -0.2754
  179MOL0     C24078   4.837   9.685   5.607  0.7996 -1.0537  0.0961
  179MOL0     C24079   4.793   9.816   5.576 -0.1783  0.0313 -0.8311
  179MOL0     N24080   4.494  10.002   4.965  0.1847  0.8995  0.1387
  179MOL0     N24081   4.409   9.975   4.871  1.3955  0.7426 -0.1567
  179MOL0     C24082   4.265  10.830   4.042  0.6510 -0.3437 -0.9269
  179MOL0     C24083   4.217  10.931   3.959  0.1533 -0.7793  0.1688
  179MOL0     C24084   4.206  11.113   3.538 -0.2257  0.2462 -0.9635
  179MOL0     C24085   4.158  11.238   3.569 -0.1215 -0.2904 -0.3076
  179MOL0     C24086   4.206  11.344   3.509  0.1026 -0.0820  0.3863
  179MOL0     C24087   4.309  11.342   3.412 -0.2542  0.2241 -0.3536
  179MOL0     O24088   4.356  11.450   3.345  0.1619 -0.2700  0.2647
  179MOL0     C24089   4.304  11.586   3.346 -0.1593  1.4110 -0.0764
  179MOL0     C24090   4.253  11.631   3.207 -1.2757 -0.2340  0.6578
  179MOL0     C24091   4.146  11.540   3.150 -0.8717  0.1810 -0.6117
  179MOL0     C24092   4.117  11.569   3.003  1.3071 -0.1051 -0.5167
  179MOL0     C24093   4.085  11.705   2.973  0.7154 -0.0479 -0.8911
  179MOL0     C24094   4.071  11.818   2.941 -0.2407  0.5253  0.4859
  179MOL0     C24095   4.353  11.212   3.380  0.2928 -0.4469 -0.2732
  179MOL0     C24096   4.301  11.095   3.436  0.1122 -0.1490 -0.6453
  179MOL0     C24097   4.370  10.972   3.406 -0.3255  0.0994  0.0507
  179MOL0     H24098   4.198  10.746   3.677  1.8244 -2.6984  0.0751
  179MOL0     H24099   4.227  10.561   3.846 -1.5571  0.5177  1.1952
  179MOL0     H24100   4.272  10.685   4.275 -1.8546  1.4019  0.4328
  179MOL0     H24101   4.136  10.588   4.201  0.3810 -3.1030 -2.7904
  179MOL0     H24102   4.385  10.519   4.358 -1.7402  1.8299  1.4005
  179MOL0     H24103   4.346  10.397   4.239  4.4955  1.9804 -0.7135
  179MOL0     H24104   4.108  10.400   4.313 -0.0058 -1.3075 -0.7143
  179MOL0     H24105   4.157  10.484   4.465  0.8021  1.2748 -1.1727
  179MOL0     H24106   4.268  10.211   4.344 -0.7893 -1.4182  2.3038
  179MOL0     H24107   4.347  10.292   4.469  2.4327  1.5325 -2.7929
  179MOL0     H24108   4.112  10.291   4.589  1.9357  0.0524  1.6169
  179MOL0     H24109   4.056  10.182   4.464  0.3897 -2.4158  0.1699
  179MOL0     H24110   4.202  10.003   4.548  0.3512  0.9297 -2.0596
  179MOL0     H24111   4.308  10.116   4.631 -0.7422 -1.7206  1.3625
  179MOL0     H24112   4.014  10.075   4.710  0.4536 -0.8871  0.1494
  179MOL0     H24113   4.134  10.185   4.789 -1.2921  0.2563  0.6063
  179MOL0     H24114   4.085   9.961   4.902  1.3751  0.9212  0.4803
  179MOL0     H24115   4.170   9.881   4.767 -0.9860 -1.6570 -0.0663
  179MOL0     H24116   4.196  10.081   5.082  0.6570  1.0520  1.1148
  179MOL0     H24117   4.551  10.171   5.199  0.3708 -0.5483  0.6543
  179MOL0     H24118   4.377  10.141   5.264 -2.2490 -1.0911 -0.8882
  179MOL0     H24119   4.414   9.898   5.231  2.2513 -1.8586 -1.2216
  179MOL0     H24120   4.589   9.924   5.203  0.9267 -1.6247  1.5779
  179MOL0     H24121   4.543   9.851   5.429  0.4416 -0.3410 -0.7258
  179MOL0     H24122   4.434   9.977   5.459 -0.6895 -4.6924  2.8631
  179MOL0     H24123   4.645  10.045   5.545  0.0259  0.0296 -0.8454
  179MOL0     H24124   4.639  10.144   5.403 -1.4561  0.6006  1.9871
  179MOL0     H24125   4.868   9.800   5.243  2.7135 -0.4548  0.4710
  179MOL0     H24126   4.887   9.563   5.300 -1.4775 -0.6413  0.3297
  179MOL0     H24127   4.919   9.401   5.923 -0.1189 -1.0580  0.7173
  179MOL0     H24128   5.006   9.190   6.046  0.9541 -1.9648 -0.7684
  179MOL0     H24129   4.957   8.808   5.821 -0.0672  1.1873 -2.1590
  179MOL0     H24130   5.130   8.853   5.850 -0.7680  0.9858  0.5292
  179MOL0     H24131   5.137   8.766   6.061  0.7419 -1.1048 -1.5157
  179MOL0     H24132   4.969   8.740   6.078 -0.6078  1.1168 -0.8021
  179MOL0     H24133   5.028   8.535   6.045  1.4577  2.0880  1.9864
  179MOL0     H24134   4.951   8.582   5.898  0.7583  0.8915 -1.6898
  179MOL0     H24135   5.210   8.610   5.812 -4.6669  2.2714  1.5770
  179MOL0     H24136   5.169   8.446   5.830 -0.3218 -1.5378  2.7791
  179MOL0     H24137   5.269   8.430   6.044 -1.8790  0.1090 -0.6269
  179MOL0     H24138   5.285   8.600   6.057  0.2735  0.9227 -0.3492
  179MOL0     H24139   5.510   8.495   5.988  1.5254  1.5083 -0.3372
  179MOL0     H24140   5.438   8.434   5.839  2.1224  1.7862 -2.2226
  179MOL0     H24141   5.389   8.719   5.858 -0.8638 -1.7040  0.8412
  179MOL0     H24142   5.481   8.646   5.727 -0.1081  0.3991 -0.6431
  179MOL0     H24143   5.600   8.821   5.898  1.5215  0.0985  1.7886
  179MOL0     H24144   5.570   8.700   6.016 -0.4272 -1.3193 -0.0545
  179MOL0     H24145   4.962   8.977   5.677  2.4020  0.1216  0.7549
  179MOL0     H24146   4.890   9.157   5.574 -2.0843 -0.9593  1.3707
  179MOL0     H24147   4.830   9.659   5.712  1.1549  3.4183  1.4378
  179MOL0     H24148   4.748   9.881   5.652  3.0809  2.8445 -1.0614
  179MOL0     H24149   4.311  10.851   4.138  0.3712 -0.3985 -0.7783
  179MOL0     H24150   4.218  11.038   3.980  0.1553 -0.2922 -1.9925
  179MOL0     H24151   4.074  11.249   3.638 -0.0005 -0.0990 -0.1912
  179MOL0     H24152   4.158  11.439   3.532 -2.0128 -1.2579  1.1210
  179MOL0     H24153   4.374  11.659   3.387 -1.0219  1.7640  0.8038
  179MOL0     H24154   4.212  11.590   3.405  0.3678 -1.0135  1.0308
  179MOL0     H24155   4.340  11.630   3.140 -3.1256 -2.8760 -2.0018
  179MOL0     H24156   4.216  11.733   3.212  2.6173  1.3247  1.1193
  179MOL0     H24157   4.057  11.545   3.212  0.2377  1.4795  0.9629
  179MOL0     H24158   4.170  11.433   3.158 -1.6365  0.1328  1.3414
  179MOL0     H24159   4.203  11.538   2.944  0.9047 -0.7002 -0.7985
  179MOL0     H24160   4.027  11.511   2.980  2.1631 -1.5355 -0.3178
  179MOL0     H24161   4.050  11.921   2.922 -2.5071 -0.2417 -1.7206
  179MOL0     H24162   4.445  11.217   3.324 -0.0139  0.2710 -0.7338
  179MOL0     H24163   4.422  10.923   3.488 -0.3562  0.7992  0.4993
  179MOL0     H24164   4.302  10.895   3.369 -2.5009  0.2173  3.4041
  179MOL0     H24165   4.449  10.991   3.332 -0.2060 -1.8410 -0.3707
  180MOL0     O24166   6.640   4.017   2.636 -0.4445 -0.0281  0.2195
  180MOL0     C24167   6.568   3.984   2.729 -0.6292 -1.0727 -0.7852
  180MOL0     O24168   6.443   3.931   2.718 -0.1040  0.0051  0.3243
  180MOL0     C24169   6.390   3.860   2.829  0.6491 -0.2127 -0.2337
  180MOL0     C24170   6.459   3.762   2.891 -0.2135 -1.1758  0.2750
  180MOL0     C24171   6.409   3.683   2.985  1.1934  1.0927 -0.3114
  180MOL0     C24172   6.276   3.692   3.032 -0.8978 -0.1064  0.5520
  180MOL0     O24173   6.237   3.610   3.135  0.2858 -0.0583 -0.0297
  180MOL0     C24174   6.153   3.660   3.235 -0.3022  0.2433  0.7018
  180MOL0     C24175   6.084   3.549   3.321 -0.4601  0.7385 -0.5207
  180MOL0     C24176   6.018   3.608   3.451  0.4153 -0.2833 -0.0683
  180MOL0     C24177   5.931   3.728   3.423 -0.0058 -0.1433 -0.7380
  180MOL0     C24178   5.780   3.696   3.398 -0.9226  0.2224 -0.4656
  180MOL0     C24179   5.752   3.572   3.303 -1.3068  0.2867  0.4743
  180MOL0     C24180   5.606   3.548   3.289 -0.5053  0.1179  0.0586
  180MOL0     C24181   5.557   3.468   3.172 -0.5525 -0.1198  0.1627
  180MOL0     N24182   5.549   3.319   3.198 -0.5397  0.3220 -0.3913
  180MOL0     C24183   5.460   3.236   3.133  0.5382  0.5904  0.0354
  180MOL0     C24184   5.498   3.117   3.172 -0.8505  0.3266  0.3300
  180MOL0     C24185   5.429   2.991   3.134 -0.7880  0.9403 -0.3404
  180MOL0     C24186   5.472   2.944   3.005  0.1503  0.1058  0.8560
  180MOL0     C24187   5.426   2.805   2.972  0.5634  0.6390  0.2685
  180MOL0     C24188   5.454   2.701   3.076  0.2277 -0.1371 -1.1051
  180MOL0     O24189   5.442   2.564   3.021  0.0032 -0.6002 -0.7194
  180MOL0     C24190   5.471   2.458   3.104 -0.1050  0.1370  0.1721
  180MOL0     C24191   5.504   2.470   3.242  0.1053  0.5137 -0.0359
  180MOL0     C24192   5.532   2.358   3.330  0.0777  0.1247  0.4084
  180MOL0     C24193   5.533   2.234   3.268 -0.1220 -0.3774  0.2943
  180MOL0     C24194   5.562   2.115   3.354  0.2567  0.3015 -0.6090
  180MOL0     O24195   5.568   1.990   3.292 -0.1078 -0.5689  0.7084
  180MOL0     C24196   5.598   1.874   3.358  1.2088  1.2749 -0.0510
  180MOL0     C24197   5.523   1.756   3.333 -0.6528 -0.4699 -0.6228
  180MOL0     C24198   5.551   1.640   3.407  0.4639  0.4591 -0.1101
  180MOL0     C24199   5.667   1.639   3.494  0.4483 -0.3019  0.0965
  180MOL0     O24200   5.691   1.510   3.543 -0.0230 -0.4910  0.0077
  180MOL0     C24201   5.762   1.514   3.665  0.3400  0.6563 -0.1957
  180MOL0     C24202   5.721   1.390   3.750 -1.0733 -0.3196  0.4477
  180MOL0     C24203   5.572   1.390   3.800 -0.9555 -1.3782 -0.8691
  180MOL0     C24204   5.552   1.264   3.891 -0.2042 -0.1147 -0.2957
  180MOL0     C24205   5.416   1.272   3.948  0.8987 -0.3154 -0.3638
  180MOL0     C24206   5.384   1.179   4.071 -0.5551 -0.1969 -0.3446
  180MOL0     C24207   5.469   1.205   4.194 -0.1562 -0.4978 -0.2327
  180MOL0     C24208   5.420   1.112   4.300 -0.1956 -0.3656 -0.2754
  180MOL0    Cl24209   5.527   1.128   4.444  0.2167  0.8366 -0.1496
  180MOL0     C24210   5.742   1.755   3.508  0.1260 -0.0359  0.2119
  180MOL0     C24211   5.703   1.876   3.443 -0.4902  0.1479  0.7258
  180MOL0     O24212   5.597   2.143   3.474 -0.4365 -0.0206 -0.2159
  180MOL0     C24213   5.506   2.223   3.132  1.1684  0.4716  1.0944
  180MOL0     C24214   5.470   2.330   3.045  0.9128 -0.0550 -0.4584
  180MOL0     N24215   5.603   3.122   3.261 -0.3467 -0.4897 -0.3501
  180MOL0     N24216   5.631   3.250   3.289 -0.0369 -0.2399  0.6208
  180MOL0     C24217   6.192   3.777   2.947  0.3342 -0.9836 -0.5316
  180MOL0     C24218   6.249   3.870   2.864 -1.0562  0.4516  0.4735
  180MOL0     C24219   6.600   4.055   2.855  0.6902  0.5710  0.3828
  180MOL0     C24220   6.713   4.021   2.926  0.2277  0.7348  0.2457
  180MOL0     C24221   6.755   4.095   3.038 -0.7715 -0.3532 -0.5640
  180MOL0     C24222   6.679   4.200   3.088 -0.5884  0.6427  0.3156
  180MOL0     O24223   6.727   4.257   3.204 -0.5933 -0.0578 -0.1504
  180MOL0     C24224   6.666   4.374   3.261 -0.1903 -0.0529 -0.2520
  180MOL0     C24225   6.544   4.341   3.343 -0.0760 -0.0961 -0.8050
  180MOL0     C24226   6.563   4.220   3.437  1.3820  0.3027 -0.0319
  180MOL0     C24227   6.430   4.157   3.481 -0.4543 -0.6948  0.3591
  180MOL0     C24228   6.358   4.100   3.366  0.9893 -0.0450 -1.0363
  180MOL0     C24229   6.296   4.060   3.272  0.0337  0.3704 -0.1339
  180MOL0     C24230   6.561   4.226   3.022  0.5966 -0.3152  0.1380
  180MOL0     C24231   6.513   4.160   2.903 -0.1899  0.1808 -1.2616
  180MOL0     C24232   6.382   4.210   2.849 -0.4905  1.0101  0.3273
  180MOL0     H24233   6.558   3.735   2.857 -0.7587 -0.9398 -1.6122
  180MOL0     H24234   6.464   3.595   3.017 -2.3911 -0.3113  2.8594
  180MOL0     H24235   6.208   3.729   3.299  1.2103 -1.6786  1.5738
  180MOL0     H24236   6.070   3.709   3.184 -0.2430  0.9987  1.3151
  180MOL0     H24237   6.157   3.473   3.350 -1.2954  0.2761  0.4440
  180MOL0     H24238   6.009   3.496   3.261  0.6143  0.5472 -1.7623
  180MOL0     H24239   6.094   3.630   3.526  0.1008 -1.2098  0.5471
  180MOL0     H24240   5.949   3.537   3.498 -0.6420  1.2408  0.7700
  180MOL0     H24241   5.929   3.793   3.510 -1.4053 -0.2420 -0.6844
  180MOL0     H24242   5.954   3.790   3.335  1.5677  2.3159  1.2535
  180MOL0     H24243   5.740   3.678   3.498  1.4805  1.5386  0.8292
  180MOL0     H24244   5.735   3.790   3.363  2.8377  1.6424 -1.9412
  180MOL0     H24245   5.790   3.588   3.202 -1.0093 -1.4466  0.2879
  180MOL0     H24246   5.800   3.481   3.339 -1.9505 -0.7477 -1.1737
  180MOL0     H24247   5.556   3.645   3.284 -2.8894 -0.9393  1.8611
  180MOL0     H24248   5.570   3.488   3.372 -1.7077 -0.3319 -0.7569
  180MOL0     H24249   5.461   3.520   3.157  0.5479  1.4565 -1.9101
  180MOL0     H24250   5.615   3.487   3.082 -1.1540 -1.6837 -0.5883
  180MOL0     H24251   5.376   3.275   3.075  0.6899  2.8318  1.1949
  180MOL0     H24252   5.445   2.927   3.221  0.7526 -0.2967 -1.4701
  180MOL0     H24253   5.321   3.010   3.124 -0.2147  3.3071 -5.1650
  180MOL0     H24254   5.445   3.027   2.939 -1.8791 -0.3402  1.0520
  180MOL0     H24255   5.581   2.941   2.998  0.1147  1.7640 -2.4143
  180MOL0     H24256   5.471   2.775   2.877 -1.0862 -1.3919  0.0463
  180MOL0     H24257   5.320   2.817   2.948  1.6377  5.6201 -3.9330
  180MOL0     H24258   5.378   2.710   3.154  1.7379  1.3863  0.2823
  180MOL0     H24259   5.548   2.706   3.131 -0.5704 -1.8181  0.5184
  180MOL0     H24260   5.495   2.565   3.295  0.4092 -0.3679  1.6478
  180MOL0     H24261   5.551   2.375   3.435 -0.9512 -1.5343  0.8952
  180MOL0     H24262   5.441   1.754   3.263 -1.4296 -1.0024  0.2813
  180MOL0     H24263   5.497   1.554   3.371  2.0157 -0.6588  0.1357
  180MOL0     H24264   5.868   1.519   3.638  0.0045  3.9020 -1.4753
  180MOL0     H24265   5.741   1.604   3.724 -1.4501  1.4467 -1.9351
  180MOL0     H24266   5.745   1.301   3.691  0.9423  1.3942 -1.5015
  180MOL0     H24267   5.788   1.380   3.836  0.7605 -1.2698 -1.0376
  180MOL0     H24268   5.566   1.472   3.872 -0.7627 -0.4771 -1.8489
  180MOL0     H24269   5.505   1.395   3.714 -0.4331  1.1652 -1.2138
  180MOL0     H24270   5.622   1.271   3.975 -1.3278 -2.5561  0.9567
  180MOL0     H24271   5.568   1.168   3.840 -0.9218 -1.5920  2.0944
  180MOL0     H24272   5.343   1.248   3.871 -0.6697  0.8738  0.6800
  180MOL0     H24273   5.394   1.372   3.989  0.2880 -1.1285  1.4181
  180MOL0     H24274   5.278   1.159   4.089  0.1944 -3.8678  0.9197
  180MOL0     H24275   5.412   1.076   4.045 -0.0737  0.4663 -2.6699
  180MOL0     H24276   5.443   1.306   4.229 -1.5029 -0.7077 -0.5711
  180MOL0     H24277   5.575   1.194   4.170  0.0495  2.2874 -0.9877
  180MOL0     H24278   5.320   1.144   4.331  1.3391  2.3635  2.5046
  180MOL0     H24279   5.410   1.011   4.259  0.5663 -0.1724 -0.9576
  180MOL0     H24280   5.839   1.753   3.557  0.8723  0.9782 -1.1447
  180MOL0     H24281   5.773   1.959   3.436 -0.3553  0.0206  0.5477
  180MOL0     H24282   5.499   2.120   3.097 -0.3535  0.3695  1.6033
  180MOL0     H24283   5.436   2.317   2.942 -1.0723 -1.3082  0.3059
  180MOL0     H24284   6.085   3.780   2.966  0.4944 -3.3115  1.0411
  180MOL0     H24285   6.192   3.935   2.799  0.2632 -0.3470 -1.5734
  180MOL0     H24286   6.773   3.938   2.891 -2.4745 -1.5553  0.6237
  180MOL0     H24287   6.837   4.040   3.084  0.5894  1.3238 -0.8627
  180MOL0     H24288   6.640   4.441   3.178  0.4475  0.1616 -0.2795
  180MOL0     H24289   6.746   4.420   3.319 -1.4537  0.5385  1.0715
  180MOL0     H24290   6.458   4.321   3.279 -2.2410 -1.0399  2.1780
  180MOL0     H24291   6.526   4.432   3.400  2.3483  0.7510 -1.2510
  180MOL0     H24292   6.618   4.252   3.526  3.1165  0.7550 -1.2154
  180MOL0     H24293   6.628   4.144   3.392  1.6310  2.3252 -3.4046
  180MOL0     H24294   6.444   4.072   3.548  0.2507  0.2652  1.4653
  180MOL0     H24295   6.382   4.235   3.541 -1.4046 -0.2897 -0.8954
  180MOL0     H24296   6.226   4.024   3.198 -1.7257  1.3412  0.9848
  180MOL0     H24297   6.500   4.311   3.049  1.3402  2.2560 -5.0389
  180MOL0     H24298   6.360   4.310   2.889  3.3336  2.0194  0.2381
  180MOL0     H24299   6.377   4.203   2.740 -1.9658 -0.1523  0.4356
  180MOL0     H24300   6.307   4.136   2.879  1.3585 -1.2611 -0.4003
  181MOL0     O24301   6.653   5.682   5.733 -0.4695  0.4813  0.0354
  181MOL0     C24302   6.551   5.628   5.775  1.3343  0.5343  0.2221
  181MOL0     O24303   6.550   5.508   5.846 -0.0312 -0.4416  0.1529
  181MOL0     C24304   6.650   5.424   5.838 -0.0071 -0.5121 -0.2495
  181MOL0     C24305   6.662   5.334   5.730  0.6121  0.5415  0.2842
  181MOL0     C24306   6.780   5.264   5.708 -0.0079 -0.6600 -0.5884
  181MOL0     C24307   6.877   5.268   5.806  0.0612  0.8484  0.2837
  181MOL0     O24308   6.983   5.187   5.813 -0.1786  0.2564 -0.1819
  181MOL0     C24309   7.081   5.199   5.705 -0.1008  0.0487 -0.6750
  181MOL0     C24310   7.055   5.097   5.596 -0.9540 -0.6905  0.4471
  181MOL0     C24311   7.182   5.062   5.521 -1.4692 -0.3380 -0.2239
  181MOL0     C24312   7.260   5.183   5.458  0.7646 -0.2386 -1.1006
  181MOL0     C24313   7.399   5.156   5.394  0.5419  0.3956  0.3828
  181MOL0     C24314   7.421   5.029   5.309  0.4636  0.8338 -1.2608
  181MOL0     C24315   7.328   5.035   5.188  0.0622 -0.5747  0.1913
  181MOL0     C24316   7.322   5.174   5.115 -0.3655  0.4776  0.0413
  181MOL0     N24317   7.443   5.207   5.042 -0.0273 -0.6536 -0.1590
  181MOL0     C24318   7.525   5.128   4.957  0.1097  0.6401  0.2685
  181MOL0     C24319   7.647   5.192   4.964  0.1252  0.7438 -0.3929
  181MOL0     C24320   7.768   5.142   4.895  0.6672 -0.4261 -0.2927
  181MOL0     C24321   7.830   5.045   4.992 -0.9256 -0.0051 -0.1782
  181MOL0     C24322   7.894   5.122   5.115 -0.0975 -0.6257  0.1386
  181MOL0     C24323   7.978   5.020   5.196 -0.2570 -0.5878  0.3182
  181MOL0     O24324   7.926   4.890   5.231 -0.3136 -0.5099  0.3742
  181MOL0     C24325   8.001   4.786   5.191 -0.7150  0.1964 -0.1844
  181MOL0     C24326   8.138   4.772   5.219  0.1464 -0.2560  0.7672
  181MOL0     C24327   8.213   4.669   5.166 -0.1544 -0.2660 -0.2764
  181MOL0     C24328   8.145   4.566   5.107  0.4741  1.1894  0.0155
  181MOL0     C24329   8.208   4.437   5.064  0.1048 -0.0101  0.1757
  181MOL0     O24330   8.351   4.431   5.075 -0.1352  0.5935 -0.8100
  181MOL0     C24331   8.407   4.316   5.029  1.1885 -0.6117  0.3780
  181MOL0     C24332   8.511   4.330   4.930 -0.4427 -0.1801 -0.1019
  181MOL0     C24333   8.580   4.214   4.895 -0.0737  0.3826  0.3518
  181MOL0     C24334   8.542   4.094   4.939 -0.4559 -0.2369  0.1768
  181MOL0     O24335   8.592   3.981   4.879  0.4381 -0.4967 -0.7861
  181MOL0     C24336   8.729   3.938   4.910  0.0468 -0.8691  0.6044
  181MOL0     C24337   8.735   3.866   5.043  0.0885 -0.5122 -0.7070
  181MOL0     C24338   8.875   3.858   5.098 -0.6846 -0.1753  0.6272
  181MOL0     C24339   8.969   3.762   5.024 -0.5045  0.4793  0.1947
  181MOL0     C24340   9.114   3.741   5.092  0.3813 -0.5371  0.3371
  181MOL0     C24341   9.106   3.655   5.220 -0.9831 -1.0024  0.4174
  181MOL0     C24342   9.243   3.602   5.259 -0.5383  0.0331  0.0367
  181MOL0     C24343   9.233   3.502   5.380 -0.1399  1.0214 -0.4235
  181MOL0    Cl24344   9.386   3.400   5.381  0.1172 -0.0743  0.1797
  181MOL0     C24345   8.440   4.078   5.032 -0.1573 -0.7569  0.5636
  181MOL0     C24346   8.380   4.196   5.090 -0.4617 -0.3131 -0.0735
  181MOL0     O24347   8.137   4.342   5.045 -0.1310 -0.2700 -0.6329
  181MOL0     C24348   8.003   4.577   5.088  0.1223 -0.0778  0.6519
  181MOL0     C24349   7.930   4.689   5.141  0.5484  0.0550  0.3181
  181MOL0     N24350   7.636   5.313   5.039  0.0678  0.1332 -0.1497
  181MOL0     N24351   7.515   5.310   5.085  0.4653 -0.0920  0.2410
  181MOL0     C24352   6.859   5.342   5.922  1.0280 -0.3836 -0.1015
  181MOL0     C24353   6.752   5.429   5.936  0.3113  0.2574  0.2397
  181MOL0     C24354   6.414   5.689   5.733 -0.0412 -0.3263  0.0192
  181MOL0     C24355   6.311   5.624   5.782  0.8817  0.4445 -0.0494
  181MOL0     C24356   6.181   5.660   5.748 -0.6740  0.0202 -1.3458
  181MOL0     C24357   6.157   5.776   5.672  0.3629 -0.6172  0.2467
  181MOL0     O24358   6.034   5.826   5.646 -0.2589 -0.6527  0.1194
  181MOL0     C24359   5.922   5.791   5.722 -0.1324  0.0508 -0.5380
  181MOL0     C24360   5.822   5.905   5.696 -0.0287  0.3237 -0.4698
  181MOL0     C24361   5.709   5.918   5.796 -0.5262  0.5579 -0.2978
  181MOL0     C24362   5.674   6.070   5.810 -1.2386 -0.2874 -0.7117
  181MOL0     C24363   5.558   6.094   5.900  0.7550  0.3694 -0.8842
  181MOL0     C24364   5.465   6.116   5.972 -0.8818 -0.3228 -0.6529
  181MOL0     C24365   6.264   5.849   5.623 -0.0925  0.1702 -0.4946
  181MOL0     C24366   6.392   5.800   5.649 -0.8794 -0.6838 -0.4979
  181MOL0     C24367   6.509   5.884   5.584 -0.6577 -0.5195  0.4393
  181MOL0     H24368   6.591   5.327   5.648  2.8710  3.2489 -2.1208
  181MOL0     H24369   6.792   5.193   5.626  6.3627  0.5758 -1.2046
  181MOL0     H24370   7.077   5.301   5.666 -1.7949 -0.6973 -2.5943
  181MOL0     H24371   7.174   5.182   5.760  1.4581 -3.2044 -3.9406
  181MOL0     H24372   6.984   5.140   5.526  0.1677  1.7335  0.7014
  181MOL0     H24373   7.014   5.004   5.636 -1.4445 -0.4062  0.6035
  181MOL0     H24374   7.144   5.004   5.436 -2.2743  2.0369 -1.5836
  181MOL0     H24375   7.259   5.011   5.580  1.0917  1.2205 -2.0139
  181MOL0     H24376   7.191   5.224   5.384 -0.7391 -0.9784 -0.1649
  181MOL0     H24377   7.273   5.261   5.534  1.9979 -0.9729 -0.5212
  181MOL0     H24378   7.431   5.237   5.327  2.6330 -1.6678 -1.2710
  181MOL0     H24379   7.452   5.164   5.489 -3.3644  0.0642  2.7599
  181MOL0     H24380   7.528   5.030   5.288  1.3288  0.6674  2.4077
  181MOL0     H24381   7.399   4.937   5.364 -5.6534  1.1795 -2.4767
  181MOL0     H24382   7.227   5.028   5.229 -0.2398  0.5091 -0.3165
  181MOL0     H24383   7.346   4.955   5.116 -2.1245  0.6204 -1.8544
  181MOL0     H24384   7.247   5.158   5.038 -0.1043  4.4965 -1.3092
  181MOL0     H24385   7.277   5.249   5.180 -3.4903 -2.7602  1.9550
  181MOL0     H24386   7.503   5.031   4.913 -0.8538  0.1203  1.8162
  181MOL0     H24387   7.740   5.091   4.802 -1.2939 -1.9792  1.0733
  181MOL0     H24388   7.837   5.221   4.866  0.4295  0.4362  1.3973
  181MOL0     H24389   7.757   4.978   5.039 -2.1379  0.5962 -1.1536
  181MOL0     H24390   7.899   4.993   4.925  2.1069 -0.1901  2.8115
  181MOL0     H24391   7.823   5.170   5.184  2.7267  2.9052  0.8846
  181MOL0     H24392   7.967   5.191   5.072 -2.1684  1.3125 -0.4426
  181MOL0     H24393   7.986   5.076   5.290 -2.1518  1.1753 -0.4785
  181MOL0     H24394   8.070   5.017   5.138 -1.7310 -0.3794 -2.1900
  181MOL0     H24395   8.175   4.847   5.287 -0.6009  0.4679  0.3891
  181MOL0     H24396   8.320   4.678   5.177 -0.3784  2.6234  0.3485
  181MOL0     H24397   8.547   4.428   4.899  1.2869 -0.7147  0.1397
  181MOL0     H24398   8.664   4.217   4.826 -0.7061 -1.4229 -0.5356
  181MOL0     H24399   8.762   3.866   4.834 -0.1874  0.9341 -1.2959
  181MOL0     H24400   8.789   4.026   4.886 -1.2622 -0.4810 -1.5891
  181MOL0     H24401   8.659   3.905   5.111 -1.6016  0.3103 -2.9380
  181MOL0     H24402   8.703   3.763   5.022  2.4795 -1.8323  1.5365
  181MOL0     H24403   8.921   3.957   5.103  0.6117 -0.7708  0.9041
  181MOL0     H24404   8.853   3.826   5.201  0.8186  0.8966  1.3203
  181MOL0     H24405   8.988   3.798   4.923  1.1976 -1.8549 -0.3958
  181MOL0     H24406   8.918   3.670   4.994  0.5398  0.8152 -2.9915
  181MOL0     H24407   9.165   3.838   5.094  0.7054 -0.4178 -3.6783
  181MOL0     H24408   9.173   3.683   5.020  0.9620 -0.7593  0.9806
  181MOL0     H24409   9.073   3.728   5.294 -1.2569 -1.4398  0.7348
  181MOL0     H24410   9.026   3.581   5.213 -1.4898 -0.3949 -0.5107
  181MOL0     H24411   9.307   3.683   5.294 -0.9217  0.5415 -0.4170
  181MOL0     H24412   9.281   3.561   5.165 -1.0168  1.3400 -0.7517
  181MOL0     H24413   9.240   3.550   5.478  1.3801  2.6501 -1.2692
  181MOL0     H24414   9.140   3.445   5.388  1.4062 -1.5697  0.3386
  181MOL0     H24415   8.415   3.978   5.066 -1.2934  0.0733  2.3623
  181MOL0     H24416   8.328   4.190   5.186  3.4208 -3.2869  2.1916
  181MOL0     H24417   7.944   4.493   5.052 -1.8091  1.9281 -1.1555
  181MOL0     H24418   7.822   4.690   5.129  0.4059 -2.1483  1.0142
  181MOL0     H24419   6.940   5.347   5.994  1.2136  2.7065 -0.3693
  181MOL0     H24420   6.748   5.501   6.017 -0.7569  1.7969 -1.1221
  181MOL0     H24421   6.318   5.559   5.869  0.3862  2.7221  1.7927
  181MOL0     H24422   6.103   5.601   5.796  1.0788 -1.7921 -0.5957
  181MOL0     H24423   5.941   5.776   5.828 -1.6710  4.9951  0.7377
  181MOL0     H24424   5.881   5.697   5.685  0.9371 -0.8073  0.3949
  181MOL0     H24425   5.774   5.876   5.602 -1.5371 -0.1390  0.4089
  181MOL0     H24426   5.873   6.001   5.682 -1.1732  1.0558  0.1406
  181MOL0     H24427   5.748   5.886   5.893 -0.9421 -0.3321 -0.4140
  181MOL0     H24428   5.619   5.860   5.771 -0.1956  0.5904 -1.6055
  181MOL0     H24429   5.760   6.123   5.850 -2.5526  0.3110  1.4567
  181MOL0     H24430   5.644   6.100   5.709 -0.1703 -1.7726 -1.5100
  181MOL0     H24431   5.385   6.117   6.043 -0.7271  2.0485 -0.4494
  181MOL0     H24432   6.260   5.935   5.557  1.4064 -0.2264 -1.1242
  181MOL0     H24433   6.465   5.961   5.519  0.8884 -0.7382 -0.9229
  181MOL0     H24434   6.575   5.934   5.656 -0.0352 -0.7409  0.0275
  181MOL0     H24435   6.571   5.821   5.520  2.5779 -0.1664  2.9720
  182MOL0     O24436  11.365   8.268   1.255  1.5732 -0.5216 -0.7612
  182MOL0     C24437  11.411   8.285   1.140  0.2608  0.3343 -0.7685
  182MOL0     O24438  11.354   8.256   1.019  0.3987  0.3237  0.1694
  182MOL0     C24439  11.231   8.216   1.013 -0.2878 -0.2726  0.0662
  182MOL0     C24440  11.167   8.107   1.087  0.0578 -0.4948 -0.7806
  182MOL0     C24441  11.041   8.073   1.059 -0.4778 -0.3341  0.8801
  182MOL0     C24442  10.959   8.139   0.972 -0.2118 -0.1350  0.1507
  182MOL0     O24443  10.823   8.098   0.962  0.5658  0.1013  0.4663
  182MOL0     C24444  10.753   8.064   1.085 -0.1341 -0.1093  0.1517
  182MOL0     C24445  10.722   7.913   1.084  0.3900 -0.4789 -0.6837
  182MOL0     C24446  10.696   7.847   1.226 -0.1094  0.1233 -0.2374
  182MOL0     C24447  10.719   7.692   1.223  0.3617 -0.5087 -0.5509
  182MOL0     C24448  10.689   7.629   1.356  0.3682  0.6466 -0.8614
  182MOL0     C24449  10.782   7.667   1.483 -0.0612  0.2206  1.3783
  182MOL0     C24450  10.719   7.620   1.611  0.2281 -0.2532 -0.1870
  182MOL0     C24451  10.821   7.529   1.684  0.1479 -0.3310  1.1410
  182MOL0     N24452  10.864   7.409   1.597  1.0570  0.1964 -0.8080
  182MOL0     C24453  10.984   7.356   1.569 -0.5892 -0.8378  0.1733
  182MOL0     C24454  10.961   7.237   1.500  0.4027 -1.1425  0.4083
  182MOL0     C24455  11.068   7.138   1.474 -0.0397 -0.3841  0.2808
  182MOL0     C24456  11.075   7.096   1.329 -0.3304 -0.2576  0.3469
  182MOL0     C24457  11.152   7.184   1.234  0.5009  0.1380 -0.8497
  182MOL0     C24458  11.141   7.138   1.089 -0.8154  0.2686  0.5103
  182MOL0     O24459  11.221   7.025   1.064 -0.3984 -0.4845 -0.0860
  182MOL0     C24460  11.354   7.047   1.029  0.5792 -0.0832  0.4332
  182MOL0     C24461  11.396   7.103   0.904 -0.3121 -0.5793  0.1493
  182MOL0     C24462  11.534   7.112   0.865  0.2969 -0.8342 -0.5684
  182MOL0     C24463  11.634   7.057   0.945  0.3351  0.9507 -0.2977
  182MOL0     C24464  11.772   7.033   0.906 -0.5057 -0.0554 -0.2136
  182MOL0     O24465  11.862   7.007   1.006 -0.1647 -0.8321  0.2100
  182MOL0     C24466  11.989   6.980   0.964 -0.5428 -0.5962  0.7644
  182MOL0     C24467  12.089   7.029   1.046  1.1232  0.0415  0.0447
  182MOL0     C24468  12.222   6.996   1.020 -0.8713 -0.4548  1.1999
  182MOL0     C24469  12.260   6.933   0.897 -0.2771 -0.1314 -0.4276
  182MOL0     O24470  12.394   6.915   0.881  1.3586 -0.3559 -0.3203
  182MOL0     C24471  12.429   6.954   0.753 -0.7559 -0.3220 -0.1622
  182MOL0     C24472  12.494   7.092   0.750  0.0974 -0.1241 -0.0107
  182MOL0     C24473  12.564   7.129   0.614  0.6289 -0.1319 -0.6882
  182MOL0     C24474  12.543   7.274   0.576 -0.3604 -0.7924  0.3435
  182MOL0     C24475  12.407   7.307   0.510  0.3962 -0.0848  0.2923
  182MOL0     C24476  12.394   7.289   0.357 -0.1422 -1.0181 -0.0485
  182MOL0     C24477  12.253   7.312   0.328 -0.1289  1.0295  0.2024
  182MOL0     C24478  12.210   7.261   0.185  0.7568  0.9620 -0.8655
  182MOL0    Cl24479  12.065   7.340   0.131 -0.1330  0.5790 -0.9030
  182MOL0     C24480  12.152   6.876   0.820 -0.1509  0.0291  0.4915
  182MOL0     C24481  12.016   6.897   0.850  0.3329  0.4895  0.4635
  182MOL0     O24482  11.795   7.052   0.787 -0.0337 -0.3030  0.3673
  182MOL0     C24483  11.586   6.981   1.065 -0.1838 -0.6471  0.5719
  182MOL0     C24484  11.450   6.993   1.109 -1.0559  0.4815  0.6381
  182MOL0     N24485  10.823   7.225   1.488  0.4764 -0.6775 -0.8786
  182MOL0     N24486  10.770   7.321   1.553  0.2523  0.0457  0.3343
  182MOL0     C24487  11.015   8.233   0.894 -0.5755 -0.1849  0.6411
  182MOL0     C24488  11.147   8.271   0.905 -0.1653  0.3258 -0.0962
  182MOL0     C24489  11.521   8.381   1.111 -0.0380  0.1564  0.5471
  182MOL0     C24490  11.509   8.477   1.002 -0.4568 -0.5588  0.3411
  182MOL0     C24491  11.602   8.583   0.978  1.1481 -0.4788 -1.0788
  182MOL0     C24492  11.704   8.603   1.076  0.4907 -0.4074  0.9669
  182MOL0     O24493  11.805   8.698   1.072  0.1456 -1.0174  0.2629
  182MOL0     C24494  11.846   8.758   0.949 -0.5687 -0.7206  0.3888
  182MOL0     C24495  11.892   8.650   0.850 -1.2781  0.5802 -0.7831
  182MOL0     C24496  11.924   8.702   0.708 -0.5033  0.0487  0.9045
  182MOL0     C24497  12.027   8.816   0.712  0.1706  0.5067  0.3064
  182MOL0     C24498  12.145   8.788   0.625  0.8068  0.4291 -0.1969
  182MOL0     C24499  12.239   8.789   0.555 -0.2065  0.3878  0.4875
  182MOL0     C24500  11.711   8.523   1.190 -0.9890 -0.6095  1.1074
  182MOL0     C24501  11.635   8.406   1.198 -1.1046 -0.4834 -0.2443
  182MOL0     C24502  11.678   8.313   1.310 -0.4933  0.1150  0.1839
  182MOL0     H24503  11.223   8.040   1.152 -0.3125 -0.1193 -0.0593
  182MOL0     H24504  11.002   7.981   1.102  0.9612 -2.2009 -1.5064
  182MOL0     H24505  10.822   8.069   1.170  1.9544  0.2331 -1.4759
  182MOL0     H24506  10.655   8.111   1.086  0.0135  0.4965 -3.2800
  182MOL0     H24507  10.807   7.871   1.030  0.0398 -0.6000 -1.1440
  182MOL0     H24508  10.632   7.889   1.026 -0.2376 -1.9375  0.8146
  182MOL0     H24509  10.596   7.868   1.264  0.5752  3.1554  0.1013
  182MOL0     H24510  10.772   7.888   1.293 -1.7722 -2.0811  3.2800
  182MOL0     H24511  10.649   7.648   1.152  0.5823 -2.7860  0.5572
  182MOL0     H24512  10.820   7.663   1.193  1.2182  0.2034  1.4702
  182MOL0     H24513  10.586   7.658   1.379  0.8295  2.4265 -0.9085
  182MOL0     H24514  10.699   7.521   1.341  1.1307  0.6029 -0.1606
  182MOL0     H24515  10.887   7.648   1.461 -0.0677  1.2435  0.3936
  182MOL0     H24516  10.767   7.775   1.493 -2.0233  0.3671 -1.8026
  182MOL0     H24517  10.623   7.572   1.590 -1.5594  3.1259 -0.5015
  182MOL0     H24518  10.695   7.709   1.671 -3.2320  0.7539 -2.7050
  182MOL0     H24519  10.908   7.595   1.689  1.0266 -1.5111  2.2761
  182MOL0     H24520  10.785   7.496   1.782 -0.4033 -1.4121  0.5969
  182MOL0     H24521  11.075   7.395   1.614 -2.0663  0.1516  2.5324
  182MOL0     H24522  11.161   7.173   1.519  0.7997 -0.6654 -1.1667
  182MOL0     H24523  11.043   7.054   1.538  1.7429 -1.9320 -0.9400
  182MOL0     H24524  11.126   7.000   1.321 -0.0766 -0.0101 -1.2125
  182MOL0     H24525  10.976   7.079   1.284  1.1197 -4.5690 -1.8183
  182MOL0     H24526  11.252   7.203   1.274  0.8916  0.5565 -1.9809
  182MOL0     H24527  11.095   7.278   1.232 -1.2950 -0.8970  0.0058
  182MOL0     H24528  11.165   7.219   1.019  1.0537  0.0173  0.8115
  182MOL0     H24529  11.036   7.113   1.073 -0.0342 -2.3706 -1.0595
  182MOL0     H24530  11.325   7.116   0.822  1.3074  1.6999 -1.0062
  182MOL0     H24531  11.558   7.159   0.770  0.4415 -2.2249 -1.2450
  182MOL0     H24532  12.062   7.084   1.135  0.5786 -2.6916  1.6766
  182MOL0     H24533  12.306   7.035   1.077 -1.9497  2.9351  0.7386
  182MOL0     H24534  12.497   6.880   0.709 -0.3020 -0.3069  0.4976
  182MOL0     H24535  12.349   6.978   0.682 -1.7151  1.9684  1.5683
  182MOL0     H24536  12.419   7.171   0.759  0.0501 -0.1289 -0.3376
  182MOL0     H24537  12.553   7.091   0.842  0.1370  0.3973 -0.0304
  182MOL0     H24538  12.670   7.105   0.626  0.9606  2.5632  5.7863
  182MOL0     H24539  12.518   7.069   0.535 -2.9051 -0.4631  1.4275
  182MOL0     H24540  12.614   7.306   0.499 -1.5701 -2.6787 -1.6702
  182MOL0     H24541  12.554   7.332   0.668  1.6148  0.0672 -0.3784
  182MOL0     H24542  12.379   7.407   0.547  0.6908 -1.2703  4.2260
  182MOL0     H24543  12.332   7.245   0.560  1.0395 -1.3851 -0.3040
  182MOL0     H24544  12.463   7.359   0.308  1.0378 -1.3977  1.0204
  182MOL0     H24545  12.413   7.183   0.340  2.1896 -0.3721 -2.1357
  182MOL0     H24546  12.202   7.408   0.338 -3.3998 -0.5162 -0.0247
  182MOL0     H24547  12.200   7.240   0.391 -1.5797 -0.3846 -2.4231
  182MOL0     H24548  12.287   7.277   0.109  1.3210 -2.3818 -1.1517
  182MOL0     H24549  12.203   7.152   0.183 -1.4552  0.9614  1.7926
  182MOL0     H24550  12.191   6.806   0.747 -1.5334  2.2049 -2.5452
  182MOL0     H24551  11.939   6.846   0.793 -0.5799  0.9730  1.2165
  182MOL0     H24552  11.652   6.939   1.140  0.2469  0.6518  0.9542
  182MOL0     H24553  11.425   6.954   1.207 -0.3303 -0.3116  0.5179
  182MOL0     H24554  10.950   8.276   0.819 -0.5057 -3.9771 -1.8602
  182MOL0     H24555  11.183   8.351   0.841 -1.6862  3.5431  2.7236
  182MOL0     H24556  11.435   8.461   0.924 -0.4757  1.1508 -0.0395
  182MOL0     H24557  11.583   8.646   0.892 -0.1116  1.5542  0.5872
  182MOL0     H24558  11.927   8.827   0.975  0.4317 -1.8186  0.2306
  182MOL0     H24559  11.773   8.815   0.891  2.6970  2.8416 -0.6532
  182MOL0     H24560  11.815   8.573   0.844 -1.0358 -0.2273  3.4913
  182MOL0     H24561  11.983   8.603   0.889 -2.0164  0.1393  0.4364
  182MOL0     H24562  11.831   8.742   0.667 -2.2068 -1.2694  3.2453
  182MOL0     H24563  11.959   8.619   0.646  2.0628  0.1327  2.0937
  182MOL0     H24564  11.987   8.908   0.668 -1.7706 -0.8939 -1.0216
  182MOL0     H24565  12.064   8.831   0.814  2.7172  0.1693 -0.4963
  182MOL0     H24566  12.336   8.783   0.509 -0.9814  1.5942 -1.4436
  182MOL0     H24567  11.792   8.550   1.258 -1.0071  1.3747  0.4073
  182MOL0     H24568  11.612   8.304   1.396  0.9759 -0.1099  1.3195
  182MOL0     H24569  11.701   8.215   1.267 -1.4431 -0.0806  0.0938
  182MOL0     H24570  11.771   8.349   1.356 -1.3694 -1.1827  3.1846
  183MOL0     O24571   5.758   5.550   9.499  0.3865 -0.0759  0.6292
  183MOL0     C24572   5.809   5.449   9.553  1.3245  0.1725 -0.1733
  183MOL0     O24573   5.943   5.444   9.597 -0.0377  0.0956  0.1781
  183MOL0     C24574   6.012   5.560   9.568 -0.8113  0.5706 -0.1611
  183MOL0     C24575   6.028   5.678   9.639 -0.5712 -0.5983  0.4064
  183MOL0     C24576   6.117   5.782   9.614  0.1572  0.4319 -0.0374
  183MOL0     C24577   6.205   5.774   9.504  0.0685 -0.3271 -0.1471
  183MOL0     O24578   6.283   5.883   9.490 -0.6359 -0.3130 -0.0133
  183MOL0     C24579   6.346   5.902   9.363 -0.1980  0.3723  0.5817
  183MOL0     C24580   6.474   5.987   9.374  0.7962 -0.1534  0.0676
  183MOL0     C24581   6.506   6.076   9.251  0.0885  0.6056 -0.8389
  183MOL0     C24582   6.636   6.153   9.271  0.1980 -0.3535 -0.1665
  183MOL0     C24583   6.760   6.071   9.246 -0.5248  0.2015  0.1377
  183MOL0     C24584   6.833   6.053   9.376  0.0544  0.1084 -0.4103
  183MOL0     C24585   6.947   5.957   9.363 -0.8850  0.4382  0.1788
  183MOL0     C24586   6.983   5.890   9.493 -0.4336 -0.4735 -0.5417
  183MOL0     N24587   7.111   5.825   9.464 -0.0542 -0.1412 -0.6789
  183MOL0     C24588   7.235   5.857   9.525  0.8516  1.6923 -0.7095
  183MOL0     C24589   7.332   5.779   9.459 -0.1548  0.3908 -0.5417
  183MOL0     C24590   7.480   5.778   9.480 -0.0927 -0.4210 -0.0878
  183MOL0     C24591   7.522   5.648   9.551 -0.5671  0.0692  0.5395
  183MOL0     C24592   7.592   5.681   9.684 -0.6098 -0.3519  0.0355
  183MOL0     C24593   7.479   5.710   9.781  0.5403 -0.1508  0.3802
  183MOL0     O24594   7.535   5.737   9.911 -0.1887 -0.4035  0.8544
  183MOL0     C24595   7.572   5.633   9.987 -0.5282  0.3406 -0.0256
  183MOL0     C24596   7.625   5.659  10.118  0.2729 -0.3318  0.2094
  183MOL0     C24597   7.673   5.570  10.206 -0.1748 -0.3265 -0.3249
  183MOL0     C24598   7.678   5.439  10.168 -1.0848  0.6859 -0.1548
  183MOL0     C24599   7.752   5.335  10.260 -0.6443 -0.0746 -0.6765
  183MOL0     O24600   7.757   5.202  10.236  0.3488 -0.4585  0.0030
  183MOL0     C24601   7.837   5.114  10.305  0.7388 -0.3804 -0.4856
  183MOL0     C24602   7.785   5.034  10.413  0.6739  0.2626  1.4673
  183MOL0     C24603   7.872   4.959  10.493 -1.0657  0.0611  0.0486
  183MOL0     C24604   8.013   4.973  10.484 -0.1631 -0.1752  0.0129
  183MOL0     O24605   8.097   4.913  10.578 -0.1178  0.1593  0.2347
  183MOL0     C24606   8.075   4.765  10.582 -0.7091  0.0267  0.6683
  183MOL0     C24607   7.976   4.704  10.686 -0.2168  0.1181  0.3929
  183MOL0     C24608   8.010   4.755  10.826  0.0476  1.5587 -1.5751
  183MOL0     C24609   7.934   4.670  10.919  0.2575  0.0782  0.1167
  183MOL0     C24610   7.917   4.715  11.060  0.2120 -0.0252  0.2577
  183MOL0     C24611   8.041   4.689  11.156  0.2978  0.0018  0.3353
  183MOL0     C24612   7.999   4.649  11.292  1.1626  0.1950  0.9636
  183MOL0     C24613   8.114   4.638  11.390  0.8218 -0.4385 -0.1478
  183MOL0    Cl24614   8.141   4.795  11.476 -0.1742  0.1107  0.0656
  183MOL0     C24615   8.065   5.052  10.383 -0.1260 -0.5687  0.7124
  183MOL0     C24616   7.977   5.114  10.291  0.3366 -0.3014 -0.5687
  183MOL0     O24617   7.824   5.394  10.349 -0.1456 -0.3194 -0.1579
  183MOL0     C24618   7.631   5.399  10.036 -0.8770 -0.9039  0.2141
  183MOL0     C24619   7.579   5.497   9.947  0.2953  0.7579 -0.0080
  183MOL0     N24620   7.264   5.699   9.378  0.6372 -0.4775 -0.5257
  183MOL0     N24621   7.135   5.732   9.367 -0.2833 -0.5051 -0.6694
  183MOL0     C24622   6.193   5.662   9.421 -0.9986  1.0178 -0.2157
  183MOL0     C24623   6.101   5.564   9.453 -0.8531  0.0262 -0.0834
  183MOL0     C24624   5.720   5.316   9.566 -0.1896  0.6649 -1.2922
  183MOL0     C24625   5.803   5.205   9.592  0.0245  0.4290 -0.9798
  183MOL0     C24626   5.752   5.081   9.611  0.7527  0.1589  0.5028
  183MOL0     C24627   5.611   5.060   9.600  0.9162 -0.7419  0.2392
  183MOL0     O24628   5.562   4.940   9.620 -0.0082  0.2995  0.0092
  183MOL0     C24629   5.424   4.901   9.603  1.2364 -0.0423 -0.4291
  183MOL0     C24630   5.427   4.751   9.651 -0.0122 -0.4442  0.5414
  183MOL0     C24631   5.488   4.658   9.542 -0.0935  0.4609  0.1504
  183MOL0     C24632   5.511   4.512   9.585 -0.0888  0.2327  0.3592
  183MOL0     C24633   5.554   4.441   9.462 -0.0447  0.2534  0.2677
  183MOL0     C24634   5.588   4.376   9.366  0.9319  0.0046  0.4219
  183MOL0     C24635   5.527   5.175   9.571 -0.3620 -0.2556  0.2118
  183MOL0     C24636   5.586   5.297   9.540 -0.0033  0.7139 -0.2277
  183MOL0     C24637   5.498   5.399   9.493  0.8307 -0.8447 -0.9624
  183MOL0     H24638   5.958   5.686   9.721 -0.9618 -0.3393  0.0534
  183MOL0     H24639   6.116   5.868   9.680  2.7086  1.3339 -1.0508
  183MOL0     H24640   6.383   5.813   9.311  4.1191  3.6295 -2.6607
  183MOL0     H24641   6.272   5.966   9.314 -2.0411  0.9440  3.8468
  183MOL0     H24642   6.559   5.919   9.385  1.7369  0.8878 -0.4883
  183MOL0     H24643   6.457   6.046   9.465  0.9206  1.0152 -0.6535
  183MOL0     H24644   6.424   6.148   9.243 -0.9480 -0.2672  1.1242
  183MOL0     H24645   6.505   6.022   9.156  2.7837 -1.4698  0.1769
  183MOL0     H24646   6.649   6.234   9.199 -0.0152 -2.2178 -2.4153
  183MOL0     H24647   6.630   6.192   9.373 -0.6013 -2.3913  0.6268
  183MOL0     H24648   6.722   5.976   9.208 -1.8184  1.5681 -2.2273
  183MOL0     H24649   6.835   6.119   9.182  2.7565 -3.2202  1.0376
  183MOL0     H24650   6.857   6.147   9.427  0.1027 -0.7124  1.1563
  183MOL0     H24651   6.772   6.002   9.451  0.9440  3.4918  2.9241
  183MOL0     H24652   7.035   6.015   9.333  0.6654 -0.2134  3.1305
  183MOL0     H24653   6.936   5.881   9.285  0.1554  1.8133 -1.3822
  183MOL0     H24654   6.994   5.961   9.575 -0.2272 -1.1468  0.0273
  183MOL0     H24655   6.915   5.810   9.524 -0.8154 -0.1049 -0.4192
  183MOL0     H24656   7.247   5.931   9.604  0.0223  1.1433 -0.0472
  183MOL0     H24657   7.526   5.779   9.381 -2.0244 -1.9033 -1.0731
  183MOL0     H24658   7.514   5.869   9.530 -1.2274  0.5530 -1.0306
  183MOL0     H24659   7.434   5.585   9.562 -0.0265 -1.2947 -2.1775
  183MOL0     H24660   7.588   5.589   9.487 -0.6118  0.5078  0.0764
  183MOL0     H24661   7.656   5.769   9.677  0.8354 -1.4552 -1.1921
  183MOL0     H24662   7.657   5.599   9.718 -0.1558 -0.1702 -0.3811
  183MOL0     H24663   7.411   5.625   9.793  0.6836 -0.2371  0.5810
  183MOL0     H24664   7.419   5.796   9.749  0.9164  0.6766  1.8126
  183MOL0     H24665   7.629   5.760  10.157 -1.9460 -0.0521 -0.1275
  183MOL0     H24666   7.716   5.597  10.302 -3.1719  2.2331  0.4695
  183MOL0     H24667   7.678   5.025  10.429  1.1759 -2.5080  4.0712
  183MOL0     H24668   7.828   4.907  10.578 -1.3922 -0.3759 -0.3858
  183MOL0     H24669   8.056   4.735  10.479 -2.2723 -3.2344  1.7891
  183MOL0     H24670   8.171   4.719  10.605 -1.0755  0.3811  3.1634
  183MOL0     H24671   7.871   4.726  10.665 -0.4143 -0.4070  0.8015
  183MOL0     H24672   7.982   4.595  10.691  0.6280 -0.0457 -2.3730
  183MOL0     H24673   8.118   4.747  10.841 -0.3090  0.3274  0.8770
  183MOL0     H24674   7.988   4.862  10.836  1.2715  1.6589  0.9732
  183MOL0     H24675   7.964   4.566  10.904  0.9008  0.0624  1.3518
  183MOL0     H24676   7.831   4.675  10.881 -0.4149 -4.1000  0.9333
  183MOL0     H24677   7.841   4.649  11.103 -0.5978  0.8837  0.2548
  183MOL0     H24678   7.876   4.817  11.059 -0.5081 -0.2966 -1.1917
  183MOL0     H24679   8.088   4.597  11.121 -2.8252 -1.6008  0.0397
  183MOL0     H24680   8.103   4.779  11.165 -1.8829  1.9733 -2.6364
  183MOL0     H24681   7.962   4.547  11.290  2.8817 -0.4981 -1.5710
  183MOL0     H24682   7.918   4.713  11.328 -1.5943 -2.1454 -0.6591
  183MOL0     H24683   8.086   4.564  11.465 -0.2027  0.5700  0.4987
  183MOL0     H24684   8.192   4.590  11.331 -0.9954 -0.2544 -2.8885
  183MOL0     H24685   8.172   5.065  10.373 -0.6174  1.9117 -4.3215
  183MOL0     H24686   8.011   5.182  10.213  2.2786  2.9367  2.7438
  183MOL0     H24687   7.646   5.300   9.995  0.2967 -1.0978  1.0562
  183MOL0     H24688   7.560   5.455   9.849  0.1709  0.1114  0.2929
  183MOL0     H24689   6.259   5.640   9.338  2.3057 -3.8977  3.1158
  183MOL0     H24690   6.109   5.483   9.381  2.3958  0.0362  0.1246
  183MOL0     H24691   5.910   5.219   9.607 -0.1574 -0.4129  1.7339
  183MOL0     H24692   5.811   4.992   9.630  0.0502  0.4678  5.2574
  183MOL0     H24693   5.382   4.897   9.502  0.4832 -2.0226 -0.0901
  183MOL0     H24694   5.360   4.963   9.667  1.6438  0.6766 -0.7070
  183MOL0     H24695   5.322   4.736   9.676 -0.6944  3.7290  0.7693
  183MOL0     H24696   5.478   4.740   9.747 -2.3252 -2.3868  1.6681
  183MOL0     H24697   5.586   4.698   9.511 -0.4121  1.8405  0.8209
  183MOL0     H24698   5.432   4.676   9.449 -0.0636  1.5261  0.3157
  183MOL0     H24699   5.594   4.500   9.656  1.1931  3.0645 -0.5095
  183MOL0     H24700   5.419   4.468   9.622 -1.8995  1.4489 -2.3990
  183MOL0     H24701   5.616   4.314   9.283 -0.3504  2.4364 -1.9938
  183MOL0     H24702   5.420   5.160   9.556 -0.4135  2.2082 -2.7061
  183MOL0     H24703   5.394   5.367   9.485 -0.0564  1.1298  1.3096
  183MOL0     H24704   5.501   5.486   9.559  0.3303 -2.7475  1.7336
  183MOL0     H24705   5.530   5.436   9.396 -2.0166 -0.2794 -1.7891
  184MOL0     O24706  10.021   8.221   0.664 -0.1169 -0.0500  0.5441
  184MOL0     C24707   9.939   8.212   0.759  0.2857 -0.6168 -0.2921
  184MOL0     O24708   9.897   8.323   0.833 -0.2163 -0.2869 -0.6090
  184MOL0     C24709   9.948   8.446   0.794 -0.4054 -0.7722  0.6805
  184MOL0     C24710   9.973   8.541   0.894 -0.1755  1.4635 -0.5374
  184MOL0     C24711  10.020   8.670   0.878 -0.5206  0.0285  1.0173
  184MOL0     C24712  10.041   8.713   0.751  0.8721  0.3013  0.9224
  184MOL0     O24713  10.087   8.840   0.747 -0.1294  0.1861 -0.2236
  184MOL0     C24714  10.137   8.900   0.624  0.0356 -0.3364  0.7217
  184MOL0     C24715  10.135   9.054   0.628  0.2593  0.2067 -1.1929
  184MOL0     C24716  10.217   9.110   0.744 -1.6613 -0.4984  0.4968
  184MOL0     C24717  10.199   9.270   0.762  0.0813  0.1582 -0.0869
  184MOL0     C24718  10.313   9.339   0.829  0.5310  0.6398 -0.7457
  184MOL0     C24719  10.313   9.491   0.841  0.3131  0.1823 -0.3310
  184MOL0     C24720  10.220   9.541   0.948  0.1083  0.5759 -0.0196
  184MOL0     C24721  10.204   9.695   0.962  0.1856  0.3926 -0.6830
  184MOL0     N24722  10.133   9.734   1.087 -0.6584  0.6932 -0.2647
  184MOL0     C24723  10.186   9.721   1.216  0.7085  1.5255 -0.9880
  184MOL0     C24724  10.080   9.749   1.297 -0.3665 -0.4656 -0.8234
  184MOL0     C24725  10.080   9.730   1.443 -0.6866  0.4216  0.0787
  184MOL0     C24726  10.037   9.858   1.521 -0.1412  0.3797 -0.2169
  184MOL0     C24727  10.126   9.982   1.504 -0.2950  0.3519 -0.1274
  184MOL0     C24728  10.269   9.963   1.561 -0.3023 -0.1699  0.0807
  184MOL0     O24729  10.355  10.071   1.539 -0.1064 -0.0066  0.0318
  184MOL0     C24730  10.396  10.088   1.409 -0.4732  1.4126 -0.4269
  184MOL0     C24731  10.389   9.998   1.301  0.8605  0.4131 -0.5207
  184MOL0     C24732  10.413  10.050   1.172 -0.0361  0.6301 -0.1895
  184MOL0     C24733  10.471  10.175   1.151  0.3368  1.3436  0.8390
  184MOL0     C24734  10.507  10.227   1.013 -0.1900  0.8259  0.3036
  184MOL0     O24735  10.581  10.345   1.007  0.5405 -0.1292  0.0182
  184MOL0     C24736  10.626  10.392   0.880  0.8110  1.1650 -0.4780
  184MOL0     C24737  10.548  10.405   0.769  0.0421  0.6979  0.6480
  184MOL0     C24738  10.595  10.470   0.658 -0.5639  0.3187 -0.0869
  184MOL0     C24739  10.730  10.512   0.636  0.6996  0.9820 -0.4828
  184MOL0     O24740  10.761  10.591   0.530 -0.8432 -0.5738 -0.0590
  184MOL0     C24741  10.841  10.707   0.549 -0.1327  0.0571 -1.2345
  184MOL0     C24742  10.819  10.782   0.414 -0.0218 -0.7119 -0.1662
  184MOL0     C24743  10.885  10.917   0.410 -0.1881 -0.6172 -0.3810
  184MOL0     C24744  11.039  10.895   0.410 -0.6003 -0.0647 -1.1687
  184MOL0     C24745  11.118  11.009   0.345 -0.1638 -0.4432 -0.1253
  184MOL0     C24746  11.270  11.003   0.376  0.9192 -0.7807 -0.0518
  184MOL0     C24747  11.324  11.141   0.344 -0.1021  0.2936  0.0904
  184MOL0     C24748  11.451  11.157   0.435  0.4370 -0.3645  0.0710
  184MOL0    Cl24749  11.590  11.062   0.378  0.5983 -0.2854  0.0626
  184MOL0     C24750  10.799  10.502   0.751  0.8729  0.3136 -1.1265
  184MOL0     C24751  10.744  10.453   0.872  0.3627  0.1515  0.1286
  184MOL0     O24752  10.477  10.155   0.921 -0.3344  0.1109  0.0111
  184MOL0     C24753  10.494  10.254   1.261 -0.0064 -0.4092 -0.2420
  184MOL0     C24754  10.452  10.208   1.383 -0.8868  0.0207 -0.7993
  184MOL0     N24755   9.969   9.784   1.217 -0.3760 -0.2895  0.1792
  184MOL0     N24756  10.007   9.768   1.098 -0.3438 -0.2192  0.0050
  184MOL0     C24757  10.017   8.626   0.641  0.5877  0.2145 -0.0049
  184MOL0     C24758   9.963   8.495   0.663 -0.1995 -0.7830  0.0056
  184MOL0     C24759   9.902   8.073   0.817 -0.0081 -1.0337 -0.2929
  184MOL0     C24760   9.874   8.059   0.955  0.7113  0.2735 -0.1214
  184MOL0     C24761   9.823   7.945   1.017 -0.1366 -0.7855 -1.3915
  184MOL0     C24762   9.806   7.824   0.945 -0.6695 -0.4480 -0.0231
  184MOL0     O24763   9.766   7.702   0.984 -0.5392 -0.0742 -0.0362
  184MOL0     C24764   9.717   7.679   1.120  0.1205  0.2205  0.1179
  184MOL0     C24765   9.736   7.531   1.161 -0.6969  0.8937  0.1198
  184MOL0     C24766   9.666   7.434   1.059  0.5858  0.0507 -0.5714
  184MOL0     C24767   9.695   7.292   1.099  0.5513 -0.2446  0.8992
  184MOL0     C24768   9.645   7.214   0.982 -0.1401  0.4480  0.5144
  184MOL0     C24769   9.611   7.131   0.903  1.1258  0.2983  0.0769
  184MOL0     C24770   9.841   7.835   0.807  0.0823  0.4748  0.3934
  184MOL0     C24771   9.888   7.955   0.744 -0.6973 -0.0705 -0.1063
  184MOL0     C24772   9.893   7.944   0.591 -0.1932 -0.8016 -0.1692
  184MOL0     H24773   9.940   8.513   0.994  1.0333 -1.3510 -0.8520
  184MOL0     H24774  10.032   8.731   0.967  2.6660 -0.5327  1.0603
  184MOL0     H24775  10.237   8.861   0.607 -0.5871 -1.5853 -0.2898
  184MOL0     H24776  10.078   8.865   0.538  1.4680  0.8029 -0.7926
  184MOL0     H24777  10.035   9.093   0.652  1.3210  1.3427  1.8063
  184MOL0     H24778  10.173   9.092   0.532  1.0428  2.0252 -0.2248
  184MOL0     H24779  10.323   9.089   0.730 -1.7291 -3.3828  3.2172
  184MOL0     H24780  10.171   9.073   0.836 -4.1699 -1.6914 -1.1284
  184MOL0     H24781  10.198   9.312   0.661 -2.2270  0.3862 -0.0115
  184MOL0     H24782  10.106   9.293   0.814 -1.6860 -4.8002 -0.5557
  184MOL0     H24783  10.319   9.291   0.927  2.9220 -0.0339 -1.1386
  184MOL0     H24784  10.411   9.320   0.782  1.8655  6.2138 -0.9879
  184MOL0     H24785  10.415   9.522   0.864  0.2113  0.9063 -0.8132
  184MOL0     H24786  10.295   9.545   0.748 -2.6140  1.8309  1.0320
  184MOL0     H24787  10.258   9.507   1.044 -2.4657 -1.6153  0.3419
  184MOL0     H24788  10.119   9.507   0.922  0.4315  1.4099 -2.7270
  184MOL0     H24789  10.303   9.739   0.951  0.2664  0.3104 -0.3105
  184MOL0     H24790  10.159   9.722   0.866 -3.4687 -1.9892  0.1502
  184MOL0     H24791  10.284   9.686   1.246  0.3969  1.3353 -0.1857
  184MOL0     H24792  10.032   9.634   1.464  2.7098 -1.8832 -1.9006
  184MOL0     H24793  10.183   9.708   1.473 -0.8066  0.5812  0.6197
  184MOL0     H24794   9.933   9.882   1.500 -1.9818 -2.3131  4.3152
  184MOL0     H24795  10.034   9.838   1.629 -2.2947 -2.4231 -0.6683
  184MOL0     H24796  10.075  10.057   1.565 -0.9537 -1.2802  1.4249
  184MOL0     H24797  10.132  10.012   1.399  3.9200 -0.7581 -0.3868
  184MOL0     H24798  10.314   9.864   1.549 -0.7704 -0.8369  2.9636
  184MOL0     H24799  10.260   9.965   1.670  0.7775  0.4092  0.1774
  184MOL0     H24800  10.351   9.896   1.306 -0.3521  0.8524 -0.6549
  184MOL0     H24801  10.386   9.987   1.087 -0.2764 -0.9380  1.0035
  184MOL0     H24802  10.443  10.380   0.775  0.0738 -1.0435 -3.1331
  184MOL0     H24803  10.528  10.490   0.574  0.9362  1.2903 -1.1086
  184MOL0     H24804  10.806  10.766   0.635  0.4477  1.4315 -1.9104
  184MOL0     H24805  10.949  10.692   0.559 -0.2737 -0.3854 -0.2356
  184MOL0     H24806  10.858  10.728   0.327 -1.0263 -0.0729 -1.0501
  184MOL0     H24807  10.716  10.786   0.377  1.0913  1.8875 -3.6608
  184MOL0     H24808  10.862  10.952   0.309 -0.6618  0.6765  0.1483
  184MOL0     H24809  10.865  10.985   0.493 -0.7839  2.1850 -2.6375
  184MOL0     H24810  11.062  10.806   0.351 -0.1047  0.8036 -2.3295
  184MOL0     H24811  11.077  10.876   0.510  0.3518  1.2577 -1.2478
  184MOL0     H24812  11.071  11.099   0.386  0.1473  0.4567 -1.6560
  184MOL0     H24813  11.091  11.029   0.241  0.3452  2.3964  0.1913
  184MOL0     H24814  11.287  10.975   0.480 -0.8086  7.0336  2.9980
  184MOL0     H24815  11.315  10.926   0.313  1.0958 -0.4261 -0.3621
  184MOL0     H24816  11.246  11.216   0.359 -0.0920 -0.0332  2.0465
  184MOL0     H24817  11.357  11.164   0.242 -1.4712  0.8196 -0.2486
  184MOL0     H24818  11.470  11.265   0.430 -0.1275 -0.2253 -5.3237
  184MOL0     H24819  11.430  11.134   0.539  2.3203  1.5985  0.9652
  184MOL0     H24820  10.900  10.536   0.731  2.1616 -3.0713 -0.9241
  184MOL0     H24821  10.794  10.457   0.969  2.4478 -2.0789 -0.7387
  184MOL0     H24822  10.524  10.356   1.237  1.3736 -0.6317  0.4389
  184MOL0     H24823  10.446  10.280   1.464  1.4842 -0.9751  0.3769
  184MOL0     H24824  10.040   8.659   0.540  0.8707  0.1189  0.0278
  184MOL0     H24825   9.935   8.429   0.582  1.3405 -0.6188 -0.7117
  184MOL0     H24826   9.884   8.155   1.004  0.6803 -0.2668  0.9837
  184MOL0     H24827   9.805   7.953   1.124  3.3381 -0.7576 -0.7010
  184MOL0     H24828   9.612   7.706   1.135  0.6464  1.2646  2.4237
  184MOL0     H24829   9.764   7.746   1.192 -2.6580  1.2763  1.0744
  184MOL0     H24830   9.702   7.512   1.264 -1.8397 -1.2090 -0.5833
  184MOL0     H24831   9.846   7.531   1.157 -0.6763  1.6090  0.5165
  184MOL0     H24832   9.705   7.456   0.960  1.7813 -2.0995 -0.6412
  184MOL0     H24833   9.558   7.451   1.064  0.6595  0.1413  2.4601
  184MOL0     H24834   9.804   7.292   1.117  0.5397  2.2737  1.3070
  184MOL0     H24835   9.649   7.261   1.194 -0.6491  0.7081  0.6480
  184MOL0     H24836   9.545   7.068   0.847 -1.6800  0.7779  2.5906
  184MOL0     H24837   9.833   7.743   0.748  1.1135  1.2440 -1.0083
  184MOL0     H24838   9.994   7.924   0.554  1.2197 -0.4481  3.1986
  184MOL0     H24839   9.837   7.855   0.558  0.5658 -0.8592 -1.3638
  184MOL0     H24840   9.852   8.032   0.540  3.6301 -0.3083 -2.8671
  185MOL0     O24841   2.985   4.777   5.244  0.5252  0.5574 -0.3326
  185MOL0     C24842   2.889   4.712   5.297 -0.8320 -0.6205  0.0917
  185MOL0     O24843   2.753   4.729   5.270  0.5826 -0.1700  0.5689
  185MOL0     C24844   2.694   4.813   5.178  0.1526  0.8155 -0.0372
  185MOL0     C24845   2.613   4.927   5.212  0.0183  0.9156  0.1162
  185MOL0     C24846   2.565   5.018   5.111  0.2470 -0.0366  0.9597
  185MOL0     C24847   2.602   4.989   4.978  0.5360 -1.4851 -0.6493
  185MOL0     O24848   2.546   5.089   4.892 -0.3962  0.3548 -0.1808
  185MOL0     C24849   2.561   5.089   4.746 -0.2077 -0.0271 -0.1981
  185MOL0     C24850   2.450   5.177   4.695 -1.0067  0.0687 -0.5072
  185MOL0     C24851   2.472   5.231   4.556  0.3340  0.6509  0.9256
  185MOL0     C24852   2.341   5.293   4.510 -0.8405 -0.2832 -0.1592
  185MOL0     C24853   2.351   5.328   4.362  0.2536  1.4085 -0.5134
  185MOL0     C24854   2.326   5.478   4.352  0.6715  0.1400 -0.6188
  185MOL0     C24855   2.323   5.513   4.208  0.0493  0.5883  0.0734
  185MOL0     C24856   2.320   5.664   4.172 -0.5831 -0.6401 -1.1721
  185MOL0     N24857   2.193   5.722   4.211  0.3690  0.0885 -0.5493
  185MOL0     C24858   2.072   5.684   4.172  1.0068  0.5951 -0.5165
  185MOL0     C24859   1.988   5.776   4.235  0.5138  1.0439  0.5074
  185MOL0     C24860   1.842   5.780   4.208  0.2790 -0.8170 -0.0674
  185MOL0     C24861   1.802   5.786   4.055 -0.3134  0.0416  0.6133
  185MOL0     C24862   1.894   5.887   3.986 -0.0883  1.0451 -0.0465
  185MOL0     C24863   1.929   6.017   4.049 -0.5615 -0.9896 -0.2166
  185MOL0     O24864   1.867   6.128   3.970 -0.1215  0.5302 -0.1636
  185MOL0     C24865   1.743   6.167   3.988  1.2931 -0.2268  0.2233
  185MOL0     C24866   1.689   6.237   3.885 -0.1267  0.0918  0.9612
  185MOL0     C24867   1.550   6.263   3.871 -0.1503  0.5469  0.2177
  185MOL0     C24868   1.459   6.227   3.974  0.1771  0.1867  0.5427
  185MOL0     C24869   1.317   6.280   3.968 -0.3383  0.7534 -0.0153
  185MOL0     O24870   1.284   6.357   3.863  0.3640  0.0864  0.0151
  185MOL0     C24871   1.154   6.405   3.855 -0.0775  0.5340 -0.1175
  185MOL0     C24872   1.123   6.535   3.875 -1.4510 -0.3708 -0.8910
  185MOL0     C24873   0.988   6.572   3.864 -0.5108  0.3366  0.4969
  185MOL0     C24874   0.887   6.480   3.817 -0.1795 -0.0927 -0.4893
  185MOL0     O24875   0.753   6.506   3.783  0.0841 -0.1859 -0.2141
  185MOL0     C24876   0.716   6.644   3.755 -0.7053  0.1399 -0.0076
  185MOL0     C24877   0.568   6.655   3.713  0.1582 -0.0655  0.1524
  185MOL0     C24878   0.546   6.776   3.638 -0.8588  0.2859 -0.7082
  185MOL0     C24879   0.400   6.810   3.620  0.5351 -0.0447 -0.0605
  185MOL0     C24880   0.386   6.939   3.546 -1.1028 -1.5143  0.5200
  185MOL0     C24881   0.239   6.989   3.539 -0.1014  0.3679 -0.2831
  185MOL0     C24882   0.226   7.124   3.463 -0.9413  0.2977  0.6454
  185MOL0     C24883   0.278   7.124   3.326 -0.1841  0.5134 -0.0566
  185MOL0    Cl24884   0.222   7.270   3.240  0.1992  0.0816  0.4369
  185MOL0     C24885   0.926   6.343   3.792  0.6339 -0.7057 -0.5779
  185MOL0     C24886   1.058   6.308   3.808 -0.5742 -0.1038  0.0768
  185MOL0     O24887   1.242   6.240   4.058  0.3615 -0.5407  0.3395
  185MOL0     C24888   1.523   6.157   4.083  0.3458 -0.1363  0.8365
  185MOL0     C24889   1.658   6.121   4.085  0.0289  0.3670 -0.7152
  185MOL0     N24890   2.063   5.866   4.306  0.4841 -0.3491 -0.6959
  185MOL0     N24891   2.182   5.830   4.288  0.1760  0.3890 -1.0412
  185MOL0     C24892   2.675   4.883   4.937 -0.4698 -0.4844 -0.0888
  185MOL0     C24893   2.721   4.798   5.038 -0.4187  0.0220  0.2316
  185MOL0     C24894   2.909   4.610   5.408  1.0590 -0.6318 -0.0034
  185MOL0     C24895   2.803   4.526   5.451  1.1108 -0.6999 -0.0174
  185MOL0     C24896   2.825   4.421   5.551  0.7633  0.0495 -0.1687
  185MOL0     C24897   2.954   4.399   5.600 -0.0553  0.4083  0.5566
  185MOL0     O24898   2.947   4.300   5.691  0.1816  0.0096  0.5827
  185MOL0     C24899   3.059   4.222   5.734  0.2205 -0.5974 -1.4064
  185MOL0     C24900   3.135   4.278   5.856  0.7895  0.9142 -0.1340
  185MOL0     C24901   3.061   4.240   5.983 -0.1402  0.1537 -0.5638
  185MOL0     C24902   3.087   4.361   6.074 -0.0941  0.1927 -0.4754
  185MOL0     C24903   3.055   4.330   6.217  0.5890 -0.2105 -1.1045
  185MOL0     C24904   3.028   4.305   6.333  0.0883 -0.3367  0.0283
  185MOL0     C24905   3.055   4.482   5.560  0.1922 -0.3863 -0.2140
  185MOL0     C24906   3.036   4.591   5.466  0.4874  0.8108 -1.1132
  185MOL0     C24907   3.163   4.688   5.456  1.1183  0.8001  0.3607
  185MOL0     H24908   2.580   4.940   5.315  0.3533 -1.0552  0.5177
  185MOL0     H24909   2.499   5.104   5.122 -1.5562 -1.3095  0.6652
  185MOL0     H24910   2.660   5.128   4.724 -0.5688  1.3947  0.5110
  185MOL0     H24911   2.557   4.989   4.704  3.8199 -1.0216  1.3254
  185MOL0     H24912   2.444   5.265   4.760 -0.2909  2.8231 -3.8860
  185MOL0     H24913   2.353   5.129   4.709 -0.5049 -0.3084  2.3637
  185MOL0     H24914   2.509   5.153   4.488  1.2344 -0.3006  2.4611
  185MOL0     H24915   2.546   5.310   4.567 -0.0819  1.1286  0.3397
  185MOL0     H24916   2.260   5.222   4.526 -1.2195  0.2812  0.4834
  185MOL0     H24917   2.334   5.383   4.572 -1.4663  4.3052 -6.0015
  185MOL0     H24918   2.453   5.314   4.323  1.2041  0.7977  1.9828
  185MOL0     H24919   2.278   5.267   4.309  1.6291 -0.8035 -0.0131
  185MOL0     H24920   2.231   5.511   4.396  0.5429 -1.6257  0.5364
  185MOL0     H24921   2.408   5.523   4.408  2.0662 -0.7452 -1.8715
  185MOL0     H24922   2.238   5.463   4.161 -2.0926  2.5256  1.6773
  185MOL0     H24923   2.421   5.488   4.165  2.2833  2.1295  3.7538
  185MOL0     H24924   2.405   5.716   4.218 -1.9668  0.3374  0.3859
  185MOL0     H24925   2.341   5.679   4.065  1.4879  3.0853 -0.4438
  185MOL0     H24926   2.044   5.599   4.110  2.6871  2.0888 -3.5530
  185MOL0     H24927   1.805   5.690   4.258  0.4898 -0.5299  0.6154
  185MOL0     H24928   1.791   5.867   4.252  0.2206 -0.2714 -1.1777
  185MOL0     H24929   1.795   5.689   4.005  0.1038 -0.6188  1.7889
  185MOL0     H24930   1.709   5.839   4.036  0.6761  1.9415  0.8530
  185MOL0     H24931   1.845   5.902   3.890  1.2626 -0.2576 -0.9833
  185MOL0     H24932   1.985   5.833   3.957 -1.6096 -1.9119  0.2688
  185MOL0     H24933   2.038   6.028   4.057 -0.4645  0.2704 -2.3651
  185MOL0     H24934   1.897   6.029   4.152  1.0471 -0.5168  0.2604
  185MOL0     H24935   1.758   6.273   3.809  1.0536 -0.8809  1.5292
  185MOL0     H24936   1.518   6.318   3.783 -0.2072 -3.3970 -2.5032
  185MOL0     H24937   1.200   6.600   3.916 -1.1529 -1.4059  0.2459
  185MOL0     H24938   0.945   6.671   3.874 -1.3617  0.2719 -1.8350
  185MOL0     H24939   0.733   6.707   3.843  0.0024 -0.9828  0.6981
  185MOL0     H24940   0.790   6.681   3.684 -0.6668 -3.3678 -2.0153
  185MOL0     H24941   0.530   6.566   3.662 -0.2615 -0.9715  1.9458
  185MOL0     H24942   0.508   6.655   3.804 -1.9563 -1.2267 -1.1509
  185MOL0     H24943   0.596   6.856   3.692 -0.0804  0.3223 -1.4511
  185MOL0     H24944   0.610   6.761   3.550  0.3333  0.4941  0.0941
  185MOL0     H24945   0.344   6.806   3.713 -0.7331 -1.9596 -0.8635
  185MOL0     H24946   0.346   6.732   3.566 -3.4107  1.7813  0.9022
  185MOL0     H24947   0.431   6.933   3.447  0.7571 -2.8473  1.3668
  185MOL0     H24948   0.438   7.018   3.602 -0.7331 -2.1701  1.1348
  185MOL0     H24949   0.171   6.922   3.484  1.2607 -1.8597  0.6069
  185MOL0     H24950   0.204   7.000   3.642  0.6416 -1.6981  0.2457
  185MOL0     H24951   0.283   7.189   3.531  1.1601 -1.3319  0.5465
  185MOL0     H24952   0.118   7.136   3.464 -1.2633 -1.9894  2.9337
  185MOL0     H24953   0.386   7.115   3.312  0.0015 -0.0936  1.6005
  185MOL0     H24954   0.218   7.050   3.271 -2.5620  3.1613 -1.3091
  185MOL0     H24955   0.847   6.272   3.771  0.5108 -0.5704 -0.5729
  185MOL0     H24956   1.103   6.213   3.781 -4.1058 -1.5146 -1.3987
  185MOL0     H24957   1.453   6.136   4.163  0.5236  0.4201  1.1374
  185MOL0     H24958   1.692   6.064   4.171 -0.1308  0.7911 -0.3670
  185MOL0     H24959   2.703   4.883   4.832 -1.0150  1.9993 -0.2981
  185MOL0     H24960   2.788   4.716   5.013 -0.4122 -0.0332  0.4282
  185MOL0     H24961   2.705   4.552   5.414  0.4232 -1.0682  1.4698
  185MOL0     H24962   2.746   4.353   5.582  1.3045  0.0690  1.3245
  185MOL0     H24963   3.146   4.218   5.668  2.4125  2.0786  1.0784
  185MOL0     H24964   3.030   4.118   5.750  2.5739 -1.0109  0.7833
  185MOL0     H24965   3.168   4.381   5.844  1.8641  0.3009 -3.7339
  185MOL0     H24966   3.226   4.218   5.861  0.4068  0.3672  0.4581
  185MOL0     H24967   3.110   4.153   6.027  3.5489  2.2067 -0.2130
  185MOL0     H24968   2.952   4.227   5.981 -0.5134  2.5019  0.6300
  185MOL0     H24969   3.193   4.388   6.070 -0.2562  2.2448  3.8406
  185MOL0     H24970   3.018   4.438   6.038  2.2827  1.1459 -3.4012
  185MOL0     H24971   3.008   4.281   6.436 -2.9563 -0.2108 -0.4510
  185MOL0     H24972   3.149   4.466   5.611  0.0607 -1.4683 -0.2754
  185MOL0     H24973   3.234   4.646   5.384 -0.1258 -0.2421 -0.2984
  185MOL0     H24974   3.143   4.785   5.410 -1.9594 -1.5300 -3.9963
  185MOL0     H24975   3.210   4.687   5.555  0.5276  1.3556  0.6573
  186MOL0     O24976   0.982  10.937   2.270  0.3459  0.2588 -0.0079
  186MOL0     C24977   0.905  10.852   2.309  0.0207 -0.2609 -0.1413
  186MOL0     O24978   0.890  10.807   2.434 -0.3494 -0.0235  0.0047
  186MOL0     C24979   0.905  10.895   2.543 -0.1318  0.0591  0.0413
  186MOL0     C24980   0.889  10.843   2.673 -0.0440  0.3833  0.2937
  186MOL0     C24981   0.910  10.919   2.788  0.9276  0.2622  0.0843
  186MOL0     C24982   0.935  11.055   2.775 -0.1293  0.6800 -0.0607
  186MOL0     O24983   0.947  11.124   2.894 -0.6871  0.2522 -0.1416
  186MOL0     C24984   1.006  11.259   2.888  0.0519  0.3463 -0.3748
  186MOL0     C24985   1.049  11.289   3.034 -1.0480 -0.8907  0.1974
  186MOL0     C24986   0.937  11.320   3.127  0.3055  0.3199 -0.4056
  186MOL0     C24987   0.984  11.308   3.276  0.6331 -0.5909 -0.0270
  186MOL0     C24988   0.897  11.393   3.367 -0.5634 -0.4581  1.1787
  186MOL0     C24989   0.754  11.345   3.391  0.1789  0.7118 -0.4321
  186MOL0     C24990   0.692  11.421   3.524  0.0948 -0.6870  0.3570
  186MOL0     C24991   0.630  11.555   3.485 -0.0745 -1.6307 -1.1116
  186MOL0     N24992   0.534  11.597   3.588 -0.2913 -0.2044  0.2307
  186MOL0     C24993   0.561  11.680   3.688  0.3582 -0.0742 -0.3408
  186MOL0     C24994   0.439  11.715   3.743 -0.1978  0.7781 -0.2144
  186MOL0     C24995   0.407  11.795   3.858 -0.7545  0.0876 -0.1546
  186MOL0     C24996   0.390  11.723   3.994 -0.4814  0.1051 -1.0299
  186MOL0     C24997   0.505  11.628   4.036 -0.1325 -0.4855 -0.1217
  186MOL0     C24998   0.452  11.548   4.157  0.5041  0.5768 -1.1112
  186MOL0     O24999   0.484  11.411   4.136 -0.7712  0.3345  0.1211
  186MOL0     C25000   0.502  11.331   4.239  0.2459 -0.1416  0.4366
  186MOL0     C25001   0.601  11.230   4.222 -0.6879  0.2907  0.0866
  186MOL0     C25002   0.624  11.148   4.333 -0.1132  0.4294 -0.4089
  186MOL0     C25003   0.551  11.152   4.453  0.5041  0.5717  0.4705
  186MOL0     C25004   0.573  11.048   4.556  0.1418 -1.0679 -0.5291
  186MOL0     O25005   0.498  11.065   4.669  0.1654 -0.0191 -0.3292
  186MOL0     C25006   0.529  10.988   4.784 -0.6094  0.5428 -0.1354
  186MOL0     C25007   0.634  11.021   4.864  0.1314  0.3834  0.5148
  186MOL0     C25008   0.650  10.962   4.992  0.3881 -0.1473 -0.0783
  186MOL0     C25009   0.564  10.852   5.018 -0.2032  0.1052 -0.3893
  186MOL0     O25010   0.558  10.777   5.139  0.7275 -0.1285  0.0881
  186MOL0     C25011   0.669  10.798   5.229 -0.0221  0.6833 -0.2068
  186MOL0     C25012   0.628  10.923   5.309 -0.6269  0.4991 -0.2112
  186MOL0     C25013   0.756  10.983   5.384 -0.4358  0.0534 -0.7433
  186MOL0     C25014   0.709  11.090   5.476 -0.0047 -0.1451  0.1945
  186MOL0     C25015   0.817  11.141   5.573 -0.4356 -0.4140 -0.6283
  186MOL0     C25016   0.862  11.038   5.666  0.5220  0.4517  0.4906
  186MOL0     C25017   0.982  11.087   5.743  0.6843  0.0242  1.1364
  186MOL0     C25018   1.003  11.027   5.880 -0.1988  0.9450 -0.2301
  186MOL0    Cl25019   1.019  10.852   5.878  0.1461 -0.0555  0.0635
  186MOL0     C25020   0.461  10.813   4.934 -0.2784  0.1036  0.8885
  186MOL0     C25021   0.439  10.893   4.822  0.1234  1.2158 -0.1951
  186MOL0     O25022   0.654  10.954   4.540 -0.2626  0.0195 -0.5891
  186MOL0     C25023   0.446  11.246   4.456  1.2268 -1.0354 -0.5633
  186MOL0     C25024   0.409  11.342   4.352 -0.7058  0.4984 -0.4722
  186MOL0     N25025   0.343  11.655   3.664 -0.0301 -0.6251  0.6731
  186MOL0     N25026   0.401  11.591   3.577 -0.4641 -0.2742  0.4223
  186MOL0     C25027   0.947  11.107   2.651 -0.0454  0.5323 -0.5117
  186MOL0     C25028   0.932  11.031   2.540 -0.4584 -0.0195  0.0770
  186MOL0     C25029   0.847  10.776   2.204 -0.5884  1.0554  0.0160
  186MOL0     C25030   0.848  10.645   2.229 -0.2794 -1.0504  0.7305
  186MOL0     C25031   0.795  10.554   2.133  0.0652 -0.4593 -0.0273
  186MOL0     C25032   0.736  10.600   2.021  0.6513 -0.5065  0.7326
  186MOL0     O25033   0.697  10.505   1.926 -0.5971  0.4419  0.1445
  186MOL0     C25034   0.630  10.545   1.800 -1.3548  0.1041 -0.0467
  186MOL0     C25035   0.732  10.581   1.694  0.5633  1.4138  0.2564
  186MOL0     C25036   0.864  10.499   1.688 -0.1637  0.4867  0.2911
  186MOL0     C25037   0.971  10.564   1.585  0.5721 -0.1550  1.1521
  186MOL0     C25038   1.105  10.509   1.593  0.5949  0.8713  0.0949
  186MOL0     C25039   1.214  10.449   1.595  0.0550  0.1134  0.1515
  186MOL0     C25040   0.739  10.736   1.990  0.8825  0.1326 -0.7269
  186MOL0     C25041   0.782  10.825   2.082 -0.4950  0.0381 -0.1847
  186MOL0     C25042   0.781  10.968   2.052 -0.5530 -1.1039 -0.2489
  186MOL0     H25043   0.872  10.737   2.689 -1.4546  0.3786 -1.0243
  186MOL0     H25044   0.908  10.866   2.882 -0.3977 -0.9652 -0.5920
  186MOL0     H25045   1.097  11.264   2.827 -0.7032  0.8968 -1.4780
  186MOL0     H25046   0.937  11.338   2.860 -2.6123 -2.5131 -2.5355
  186MOL0     H25047   1.119  11.373   3.031  1.1162 -2.3029  3.9455
  186MOL0     H25048   1.115  11.206   3.064  1.4034  0.5675 -0.8767
  186MOL0     H25049   0.848  11.260   3.106  1.1166 -0.9640 -0.3107
  186MOL0     H25050   0.922  11.425   3.103  3.0659  1.5483  2.6341
  186MOL0     H25051   0.958  11.207   3.307  0.2261 -0.3974  0.2741
  186MOL0     H25052   1.086  11.341   3.299  0.0544  0.4250  1.1760
  186MOL0     H25053   0.945  11.402   3.465  1.4110 -3.8951  0.6752
  186MOL0     H25054   0.895  11.491   3.317 -3.5241 -1.1038 -0.1579
  186MOL0     H25055   0.685  11.355   3.307  0.2450 -1.2514 -0.7679
  186MOL0     H25056   0.755  11.239   3.418  1.0226  0.6200 -0.8148
  186MOL0     H25057   0.759  11.436   3.609 -2.4234  0.8971  2.2013
  186MOL0     H25058   0.610  11.363   3.566 -0.2870  0.4785  1.2855
  186MOL0     H25059   0.710  11.630   3.477 -1.4627  0.3851  1.9491
  186MOL0     H25060   0.577  11.553   3.389 -0.7118 -7.0219 -0.9493
  186MOL0     H25061   0.648  11.738   3.719 -1.3962  3.0984 -0.8740
  186MOL0     H25062   0.480  11.877   3.855  0.9112 -1.3308 -0.1529
  186MOL0     H25063   0.310  11.836   3.830 -0.8190 -0.9700 -1.6237
  186MOL0     H25064   0.382  11.791   4.079 -1.1210 -0.0027 -0.9990
  186MOL0     H25065   0.294  11.673   3.981 -1.0765  0.2553  1.9963
  186MOL0     H25066   0.593  11.685   4.068 -0.2992 -1.0688  1.4309
  186MOL0     H25067   0.531  11.553   3.960 -0.4130  0.9679 -1.7316
  186MOL0     H25068   0.345  11.565   4.167  0.1519 -1.1816 -1.6266
  186MOL0     H25069   0.509  11.573   4.247  0.2575  0.8470 -1.0295
  186MOL0     H25070   0.669  11.215   4.139  0.2825  1.0295  0.7230
  186MOL0     H25071   0.704  11.076   4.322  0.2561  0.7512  0.1319
  186MOL0     H25072   0.701  11.102   4.836  1.3350  0.0605  2.2688
  186MOL0     H25073   0.723  11.003   5.061  0.4238 -0.7235  0.2391
  186MOL0     H25074   0.660  10.715   5.299  0.3236 -0.0176 -0.9768
  186MOL0     H25075   0.758  10.792   5.166  0.2499  2.8324 -0.1016
  186MOL0     H25076   0.578  10.999   5.249 -0.8654 -0.4335 -1.2433
  186MOL0     H25077   0.558  10.893   5.387 -0.5629  0.7782 -0.0488
  186MOL0     H25078   0.801  10.906   5.447 -1.1805  0.5687  0.4546
  186MOL0     H25079   0.835  11.026   5.322  0.1753  0.4139  0.2577
  186MOL0     H25080   0.618  11.059   5.529  0.7807 -2.4892  0.2837
  186MOL0     H25081   0.670  11.175   5.419  4.4674  1.4157 -0.9515
  186MOL0     H25082   0.763  11.213   5.634  0.1284 -2.4780  2.5240
  186MOL0     H25083   0.908  11.175   5.522  1.2812  1.0547  3.0144
  186MOL0     H25084   0.776  11.009   5.726 -2.3572 -1.6289 -4.0853
  186MOL0     H25085   0.898  10.952   5.609 -1.9057  0.4728 -1.2006
  186MOL0     H25086   0.964  11.194   5.756 -1.1891  0.3349 -2.6514
  186MOL0     H25087   1.067  11.076   5.676 -1.4993  0.7513 -1.9699
  186MOL0     H25088   1.087  11.087   5.919 -1.1437  3.3170 -1.6041
  186MOL0     H25089   0.910  11.051   5.933 -2.2767 -1.5279 -2.4993
  186MOL0     H25090   0.390  10.732   4.945  1.0263 -1.6684 -2.3029
  186MOL0     H25091   0.357  10.869   4.756 -0.1379 -2.2687  1.1918
  186MOL0     H25092   0.380  11.242   4.542 -0.8536  0.5411 -1.9869
  186MOL0     H25093   0.318  11.400   4.362 -0.6401  0.3263  1.2792
  186MOL0     H25094   0.975  11.211   2.638 -1.8466  1.1299 -0.0151
  186MOL0     H25095   0.946  11.091   2.450  3.5915  2.6787  2.1801
  186MOL0     H25096   0.899  10.600   2.314  1.7499 -1.8268 -0.8063
  186MOL0     H25097   0.796  10.447   2.149 -0.7304 -0.3776  0.6167
  186MOL0     H25098   0.567  10.634   1.803  1.6394  2.3798  2.2349
  186MOL0     H25099   0.576  10.454   1.773  0.1762 -0.7416 -0.3751
  186MOL0     H25100   0.767  10.684   1.706  2.5002  0.7224  0.7677
  186MOL0     H25101   0.669  10.589   1.604 -3.1271  1.6679  2.6672
  186MOL0     H25102   0.840  10.393   1.671  1.0873  0.2118  0.1410
  186MOL0     H25103   0.906  10.511   1.789 -2.4396  0.3130  1.3327
  186MOL0     H25104   0.934  10.538   1.486 -2.0270  1.6195  1.5737
  186MOL0     H25105   0.972  10.674   1.588  2.2482 -0.0173 -1.3978
  186MOL0     H25106   1.308  10.399   1.604 -0.0253 -0.1218 -0.2793
  186MOL0     H25107   0.703  10.771   1.894  5.0756  1.8274 -1.8961
  186MOL0     H25108   0.702  11.006   2.116  2.1777 -0.5800  3.1364
  186MOL0     H25109   0.863  11.030   2.090 -2.6869  0.8779  1.3738
  186MOL0     H25110   0.787  10.988   1.944  2.3603  3.7626  0.5306
  187MOL0     O25111   4.278   7.942   7.097 -0.0625 -0.0360  1.0700
  187MOL0     C25112   4.251   7.910   7.214  0.0169 -0.3436  0.0328
  187MOL0     O25113   4.338   7.833   7.295  0.2374 -0.0225 -0.6649
  187MOL0     C25114   4.437   7.754   7.240  0.2747  0.4122 -0.5908
  187MOL0     C25115   4.553   7.736   7.311 -0.2422 -1.0547 -0.1124
  187MOL0     C25116   4.656   7.668   7.252  0.3551  0.3242 -0.2513
  187MOL0     C25117   4.647   7.609   7.126  0.1796  0.4228  0.6954
  187MOL0     O25118   4.762   7.552   7.074 -0.1992 -0.0216 -0.6176
  187MOL0     C25119   4.782   7.509   6.936 -0.4297 -0.9795 -0.1230
  187MOL0     C25120   4.791   7.360   6.928 -0.2463  0.6857  0.0486
  187MOL0     C25121   4.865   7.332   6.793  0.9231 -0.1055  0.4031
  187MOL0     C25122   4.765   7.296   6.679 -0.3779 -0.0186 -0.6575
  187MOL0     C25123   4.840   7.284   6.551 -1.3460 -0.6835 -0.3237
  187MOL0     C25124   4.983   7.205   6.555  1.5240  0.0799  0.2313
  187MOL0     C25125   5.020   7.163   6.414  0.3645 -0.1524  0.1512
  187MOL0     C25126   5.163   7.103   6.399  1.2161  0.5484  0.1365
  187MOL0     N25127   5.171   7.042   6.267  0.3552  0.0277 -0.3912
  187MOL0     C25128   5.235   7.097   6.160 -0.0239 -0.2916 -0.5378
  187MOL0     C25129   5.222   7.012   6.055 -0.6509  0.1704  0.2801
  187MOL0     C25130   5.291   7.046   5.923 -0.2000 -0.7845  0.0198
  187MOL0     C25131   5.183   7.035   5.808  0.7261 -0.0289  0.3625
  187MOL0     C25132   5.233   7.038   5.665  0.6075  0.5071  0.2132
  187MOL0     C25133   5.326   6.916   5.630 -0.7045  0.0147 -0.3961
  187MOL0     O25134   5.380   6.941   5.497 -0.4438  0.1665 -0.6720
  187MOL0     C25135   5.492   7.012   5.487  0.6928 -0.2858  0.0750
  187MOL0     C25136   5.475   7.128   5.405 -0.2302 -1.4270 -0.3592
  187MOL0     C25137   5.572   7.243   5.412  1.4495  0.4271 -0.0175
  187MOL0     C25138   5.699   7.214   5.471  0.1177 -1.3391 -0.5261
  187MOL0     C25139   5.793   7.329   5.490 -1.1762  0.0982 -0.1048
  187MOL0     O25140   5.912   7.294   5.559  0.9839  0.5513  0.4533
  187MOL0     C25141   5.967   7.373   5.650 -0.4782  0.4129  0.9035
  187MOL0     C25142   6.026   7.301   5.753  0.5030 -0.5660 -0.9898
  187MOL0     C25143   6.076   7.372   5.864 -0.3374  0.6796 -1.0795
  187MOL0     C25144   6.070   7.509   5.874  1.3881  0.3925  0.1487
  187MOL0     O25145   6.126   7.558   5.980  0.1282 -0.1373  0.7292
  187MOL0     C25146   6.142   7.705   5.984 -0.1047  0.1711  0.4041
  187MOL0     C25147   6.223   7.745   6.111  0.1105  0.4643 -0.2369
  187MOL0     C25148   6.212   7.896   6.136 -0.6961  0.0186  0.3693
  187MOL0     C25149   6.081   7.958   6.186 -0.5105 -0.1494 -0.3627
  187MOL0     C25150   6.082   8.110   6.206 -0.9147 -0.4284 -0.1580
  187MOL0     C25151   6.212   8.171   6.258 -0.4587  0.6304 -0.5526
  187MOL0     C25152   6.169   8.309   6.307 -0.7185 -0.2547  0.5797
  187MOL0     C25153   6.285   8.401   6.348 -1.1507  0.1116 -0.1772
  187MOL0    Cl25154   6.201   8.529   6.451 -0.0972 -0.0066  0.1765
  187MOL0     C25155   6.005   7.581   5.769 -0.3200 -0.9010  0.8896
  187MOL0     C25156   5.962   7.514   5.650  0.4768 -0.3241 -0.3620
  187MOL0     O25157   5.782   7.436   5.436 -0.6004  0.0684 -0.4380
  187MOL0     C25158   5.722   7.085   5.536  0.2446  0.7307  0.3787
  187MOL0     C25159   5.618   6.991   5.545 -0.7587 -0.5752 -0.5507
  187MOL0     N25160   5.130   6.910   6.096  0.4218 -0.2768 -0.1932
  187MOL0     N25161   5.113   6.921   6.225  0.4578  0.6207  0.2326
  187MOL0     C25162   4.529   7.612   7.060 -0.6655  0.1533 -0.6185
  187MOL0     C25163   4.428   7.686   7.110 -0.6903  0.0334  0.2224
  187MOL0     C25164   4.120   7.943   7.276 -0.5979 -0.3297  0.5021
  187MOL0     C25165   4.074   7.863   7.381 -0.0075 -0.5486 -0.3513
  187MOL0     C25166   3.952   7.886   7.438 -0.4824  0.5637 -0.1460
  187MOL0     C25167   3.866   7.991   7.396  0.4470 -0.6487 -0.5421
  187MOL0     O25168   3.744   8.027   7.462  0.2098  0.0213 -0.2808
  187MOL0     C25169   3.656   7.924   7.479 -0.0987  0.3501  0.9127
  187MOL0     C25170   3.669   7.866   7.621 -0.2068 -0.6547  0.1168
  187MOL0     C25171   3.571   7.951   7.714  0.5992  0.3498 -0.4116
  187MOL0     C25172   3.622   7.942   7.862 -0.0995  0.5203 -0.3662
  187MOL0     C25173   3.611   7.799   7.906 -0.0271  0.8218  0.0874
  187MOL0     C25174   3.615   7.681   7.937  0.0048 -0.2132 -0.1459
  187MOL0     C25175   3.919   8.075   7.296 -0.3458  0.5992 -1.0231
  187MOL0     C25176   4.045   8.053   7.229  0.6841 -0.3647 -0.3290
  187MOL0     C25177   4.094   8.163   7.129  0.3663  0.2697 -0.3162
  187MOL0     H25178   4.573   7.782   7.408  2.0424 -1.4544 -0.3237
  187MOL0     H25179   4.747   7.664   7.310 -1.5236  1.2271  2.9578
  187MOL0     H25180   4.702   7.534   6.865  1.7518 -0.2145 -2.4707
  187MOL0     H25181   4.870   7.567   6.908 -1.3134  0.6233  0.2518
  187MOL0     H25182   4.699   7.301   6.942  0.1426 -0.6118 -2.3741
  187MOL0     H25183   4.849   7.319   7.012 -0.6458 -0.2470 -0.1097
  187MOL0     H25184   4.934   7.252   6.821  1.2585  0.9610  2.9085
  187MOL0     H25185   4.929   7.414   6.761 -0.8035  2.8986  3.8855
  187MOL0     H25186   4.709   7.208   6.710 -1.3785  0.6204 -0.6262
  187MOL0     H25187   4.692   7.377   6.679 -0.4942 -0.1236 -0.2850
  187MOL0     H25188   4.779   7.239   6.473 -1.5970 -0.4693 -0.2499
  187MOL0     H25189   4.863   7.388   6.526 -0.1789 -1.3885 -2.4696
  187MOL0     H25190   5.067   7.266   6.590  0.4319  1.0732  1.2051
  187MOL0     H25191   4.982   7.116   6.618 -0.9552  0.1601  0.4086
  187MOL0     H25192   5.001   7.250   6.351 -1.4222  0.1573  1.0433
  187MOL0     H25193   4.954   7.090   6.366  0.4229 -0.8590  1.1053
  187MOL0     H25194   5.242   7.178   6.402 -0.2034  2.1729 -1.1068
  187MOL0     H25195   5.181   7.024   6.472  1.6084  0.7807  0.2919
  187MOL0     H25196   5.299   7.184   6.157  2.6297 -2.1326 -1.1919
  187MOL0     H25197   5.342   7.142   5.937  3.6891 -2.3075 -2.1318
  187MOL0     H25198   5.374   6.977   5.905 -0.7708 -1.2502 -0.9076
  187MOL0     H25199   5.131   6.943   5.838 -3.9308  2.3616  0.3827
  187MOL0     H25200   5.110   7.115   5.816  0.6794  0.6313 -4.1842
  187MOL0     H25201   5.287   7.132   5.653  0.8661  0.5223  1.3889
  187MOL0     H25202   5.162   7.044   5.581 -1.1134 -0.7777  1.4998
  187MOL0     H25203   5.268   6.823   5.630 -0.2348 -0.2883 -1.1861
  187MOL0     H25204   5.408   6.907   5.702 -0.6703  1.3937 -0.2360
  187MOL0     H25205   5.395   7.134   5.332  0.0185  2.2063 -0.5035
  187MOL0     H25206   5.551   7.338   5.364 -0.0638  0.1371  0.0078
  187MOL0     H25207   6.040   7.195   5.734 -0.4771 -0.2451 -4.1933
  187MOL0     H25208   6.134   7.310   5.931 -0.0443  0.6008 -1.4042
  187MOL0     H25209   6.195   7.751   5.900 -1.1697  1.4711  0.4076
  187MOL0     H25210   6.045   7.757   5.989 -0.0405  0.1766  2.3429
  187MOL0     H25211   6.182   7.700   6.201 -0.1589  0.1374 -0.5194
  187MOL0     H25212   6.325   7.710   6.091  0.1299  0.2198  0.2929
  187MOL0     H25213   6.294   7.914   6.206 -0.9709  3.0731  0.0495
  187MOL0     H25214   6.238   7.954   6.047  0.2215 -0.3392  0.3915
  187MOL0     H25215   6.062   7.906   6.281 -1.2153 -0.8245 -0.8644
  187MOL0     H25216   6.000   7.933   6.117 -0.5052 -0.6416 -0.1956
  187MOL0     H25217   5.999   8.135   6.272 -3.7855 -2.0467 -2.8692
  187MOL0     H25218   6.059   8.158   6.110  2.4627  2.4702  0.2771
  187MOL0     H25219   6.258   8.118   6.343 -0.3330  1.3180 -0.1865
  187MOL0     H25220   6.282   8.187   6.176 -0.5115 -0.5847 -0.8614
  187MOL0     H25221   6.110   8.288   6.396 -0.1620 -0.6390  0.8664
  187MOL0     H25222   6.124   8.357   6.220 -1.4149 -1.2237  0.3856
  187MOL0     H25223   6.367   8.347   6.395 -2.0317 -1.7255 -0.6578
  187MOL0     H25224   6.321   8.443   6.254  1.2483  1.4392  1.2480
  187MOL0     H25225   5.988   7.686   5.752  3.2169 -0.0877  1.4697
  187MOL0     H25226   5.931   7.574   5.565  0.0506  0.5978  0.4194
  187MOL0     H25227   5.804   7.052   5.599 -0.4518 -0.6061  0.6309
  187MOL0     H25228   5.637   6.900   5.601 -0.1127 -0.1087  0.0078
  187MOL0     H25229   4.515   7.553   6.970  1.7069 -0.2435 -0.7736
  187MOL0     H25230   4.330   7.688   7.062 -1.1122 -2.2677  0.8522
  187MOL0     H25231   4.128   7.779   7.424 -3.5563 -2.8445  0.0141
  187MOL0     H25232   3.925   7.828   7.526  0.8331 -0.8967 -0.6534
  187MOL0     H25233   3.676   7.848   7.403 -1.6871 -0.0869  0.8982
  187MOL0     H25234   3.551   7.949   7.464 -0.4548 -1.2138  0.7174
  187MOL0     H25235   3.769   7.891   7.658  0.5071  1.8754 -3.0653
  187MOL0     H25236   3.653   7.757   7.620  1.4251 -0.9850 -3.4043
  187MOL0     H25237   3.468   7.917   7.727 -0.3340  2.8278 -0.7575
  187MOL0     H25238   3.574   8.053   7.675 -2.2711 -0.5919 -3.5924
  187MOL0     H25239   3.722   7.985   7.873  0.6157 -1.0511 -0.5018
  187MOL0     H25240   3.572   8.003   7.938 -1.6269  0.1814 -1.0659
  187MOL0     H25241   3.628   7.578   7.966  0.9829  0.6658  3.0149
  187MOL0     H25242   3.861   8.166   7.288  1.3332  1.7733 -0.4025
  187MOL0     H25243   4.196   8.183   7.164  0.8498  1.9822 -2.4610
  187MOL0     H25244   4.107   8.121   7.028  1.2147 -0.2470 -0.0081
  187MOL0     H25245   4.029   8.251   7.130 -2.4040 -1.6607 -0.4110
  188MOL0     O25246  10.696   7.742   6.572 -0.5011  0.1257  0.2135
  188MOL0     C25247  10.762   7.813   6.495 -0.3305  0.0207  0.1764
  188MOL0     O25248  10.858   7.772   6.405  0.3025 -0.5163 -0.0864
  188MOL0     C25249  10.882   7.646   6.362 -0.2144  0.7526  0.3111
  188MOL0     C25250  10.957   7.624   6.247  0.9705 -0.9659  0.2022
  188MOL0     C25251  10.997   7.496   6.208  0.4317  0.4856  0.2242
  188MOL0     C25252  10.951   7.384   6.278 -0.7620  0.6648  0.3740
  188MOL0     O25253  10.975   7.258   6.225  0.1908 -0.9671 -0.0306
  188MOL0     C25254  10.921   7.144   6.279 -1.4011  0.3401  0.5252
  188MOL0     C25255  10.979   7.023   6.205  0.5149 -0.3865  0.6335
  188MOL0     C25256  11.127   6.991   6.238 -0.4890 -0.1333  0.6799
  188MOL0     C25257  11.172   6.904   6.123 -0.0574  0.6556  0.8837
  188MOL0     C25258  11.293   6.834   6.169 -0.5678 -0.0477  0.2896
  188MOL0     C25259  11.354   6.772   6.040 -0.1392 -0.1618 -0.5762
  188MOL0     C25260  11.434   6.864   5.946 -0.3485  1.1498  0.0720
  188MOL0     C25261  11.570   6.911   5.995 -0.3260 -0.0982  0.0837
  188MOL0     N25262  11.683   6.824   5.999  0.1091  0.2509 -0.0138
  188MOL0     C25263  11.780   6.805   5.897 -0.3460 -0.0312  0.1256
  188MOL0     C25264  11.862   6.707   5.950  0.4381  0.5624 -0.4727
  188MOL0     C25265  11.961   6.639   5.870 -0.0561 -0.1291  0.4178
  188MOL0     C25266  12.104   6.649   5.932  0.0524 -0.4832 -0.1796
  188MOL0     C25267  12.213   6.571   5.871  0.0494  0.0920 -0.1958
  188MOL0     C25268  12.338   6.563   5.964  0.1199 -0.7000  0.8282
  188MOL0     O25269  12.316   6.506   6.097  0.2107 -0.2367  0.2581
  188MOL0     C25270  12.425   6.452   6.163  0.5779 -0.3254 -0.0166
  188MOL0     C25271  12.482   6.332   6.124 -0.8434  0.3334 -0.6024
  188MOL0     C25272  12.590   6.274   6.195  0.8195 -0.5673  1.0031
  188MOL0     C25273  12.635   6.330   6.317 -0.0189 -0.0890  0.0720
  188MOL0     C25274  12.737   6.277   6.412  0.5103  0.3754 -0.0827
  188MOL0     O25275  12.739   6.323   6.543  0.0067 -0.4220  0.4812
  188MOL0     C25276  12.803   6.241   6.640  0.7445 -0.7246 -0.8842
  188MOL0     C25277  12.741   6.226   6.766 -0.7636  0.1564 -0.0119
  188MOL0     C25278  12.800   6.157   6.870 -0.2312  0.0208  0.6986
  188MOL0     C25279  12.923   6.098   6.856  0.2528  0.9509  0.6658
  188MOL0     O25280  12.975   6.013   6.946 -0.9748  0.2352  0.5033
  188MOL0     C25281  12.937   6.027   7.082 -0.2816 -0.1465 -0.6993
  188MOL0     C25282  13.028   5.954   7.178 -1.1413  0.1313 -0.2122
  188MOL0     C25283  13.181   5.989   7.161  0.4696  0.3885 -0.2834
  188MOL0     C25284  13.257   5.933   7.279 -0.6875  0.4359  0.1968
  188MOL0     C25285  13.412   5.947   7.246  0.1544  0.6449 -0.5318
  188MOL0     C25286  13.496   5.865   7.349  0.0743  0.1119 -0.5646
  188MOL0     C25287  13.645   5.872   7.320 -1.1815 -0.3558  0.5473
  188MOL0     C25288  13.716   5.798   7.437 -0.5377 -0.4053 -0.7461
  188MOL0    Cl25289  13.894   5.800   7.388 -0.0065  0.1704 -0.0038
  188MOL0     C25290  12.989   6.113   6.738 -0.0229  0.3343  0.5355
  188MOL0     C25291  12.931   6.181   6.632 -0.6308 -0.8494 -0.2291
  188MOL0     O25292  12.807   6.190   6.377  0.2870 -0.2892  0.2921
  188MOL0     C25293  12.569   6.451   6.352 -0.2293 -0.8051 -0.5072
  188MOL0     C25294  12.467   6.513   6.283 -0.0881 -1.0281  1.5320
  188MOL0     N25295  11.825   6.675   6.078  1.2152 -0.6436  0.2238
  188MOL0     N25296  11.724   6.749   6.103 -0.0709  0.0126  0.3475
  188MOL0     C25297  10.882   7.404   6.400 -0.1576  0.4684  0.0464
  188MOL0     C25298  10.849   7.532   6.445 -0.9443 -0.1346  0.7965
  188MOL0     C25299  10.776   7.958   6.511 -0.0896 -0.3877  0.9343
  188MOL0     C25300  10.904   8.013   6.514 -0.2842  0.1091  0.4265
  188MOL0     C25301  10.925   8.149   6.534  0.4335 -0.3437  0.3755
  188MOL0     C25302  10.815   8.236   6.554  0.5125 -0.4605  0.7463
  188MOL0     O25303  10.857   8.365   6.582  1.1810 -0.4047  0.2145
  188MOL0     C25304  10.749   8.460   6.606  0.2615  0.4657 -0.4042
  188MOL0     C25305  10.799   8.591   6.671  0.4961 -0.1905  0.5987
  188MOL0     C25306  10.878   8.676   6.570 -0.5451 -0.6046 -0.1836
  188MOL0     C25307  11.028   8.627   6.571  0.3728  0.9084  0.1905
  188MOL0     C25308  11.103   8.656   6.690 -0.3440 -0.1758 -0.0712
  188MOL0     C25309  11.169   8.680   6.786 -0.3220 -0.7895  0.0499
  188MOL0     C25310  10.681   8.187   6.531 -0.8404  0.3113 -0.1100
  188MOL0     C25311  10.659   8.051   6.523 -0.6074  1.0763 -0.4095
  188MOL0     C25312  10.520   7.993   6.548 -0.6112  0.9379  0.2035
  188MOL0     H25313  11.001   7.709   6.195  2.3650 -1.6520  0.1925
  188MOL0     H25314  11.056   7.483   6.118 -1.7623  1.9159 -1.5536
  188MOL0     H25315  10.965   7.146   6.380  0.2458  3.0708 -0.1313
  188MOL0     H25316  10.812   7.150   6.285 -1.5250 -1.8675  1.4475
  188MOL0     H25317  10.968   7.055   6.101  0.8333 -0.6570  0.5141
  188MOL0     H25318  10.916   6.933   6.214  0.3262 -0.4124 -0.6340
  188MOL0     H25319  11.132   6.935   6.332 -3.4129  0.5178  1.3324
  188MOL0     H25320  11.193   7.074   6.262 -2.7987  2.3610 -0.9563
  188MOL0     H25321  11.109   6.823   6.089  3.1540 -1.1213 -1.4063
  188MOL0     H25322  11.194   6.964   6.034 -1.5238 -0.6759 -0.4295
  188MOL0     H25323  11.360   6.910   6.211  1.9001 -1.9653  0.0708
  188MOL0     H25324  11.271   6.749   6.235  1.8974 -2.2898 -1.5613
  188MOL0     H25325  11.423   6.694   6.076  0.1756  0.9368  1.3554
  188MOL0     H25326  11.274   6.725   5.982 -0.4113  0.2276 -0.5204
  188MOL0     H25327  11.375   6.948   5.908  0.1787  0.8697 -1.4143
  188MOL0     H25328  11.450   6.813   5.850 -0.5887 -1.5926  1.3889
  188MOL0     H25329  11.591   7.000   5.935 -0.6322  0.7501  1.2041
  188MOL0     H25330  11.556   6.931   6.102  2.3956 -0.3847  0.5826
  188MOL0     H25331  11.780   6.838   5.794 -3.9541  1.0212  0.3183
  188MOL0     H25332  11.943   6.535   5.843  2.7029 -0.0884 -2.1624
  188MOL0     H25333  11.960   6.692   5.774  2.5194 -1.1687 -0.2876
  188MOL0     H25334  12.132   6.754   5.942 -2.1771  0.0116  1.6444
  188MOL0     H25335  12.084   6.601   6.028 -2.2790 -1.0702 -0.8866
  188MOL0     H25336  12.248   6.623   5.782 -2.2671  0.2261 -1.0832
  188MOL0     H25337  12.187   6.468   5.844  0.2933  0.0984 -0.4526
  188MOL0     H25338  12.387   6.660   5.965  0.2134 -0.6438 -1.5832
  188MOL0     H25339  12.404   6.483   5.928  2.2545 -1.1733  5.1472
  188MOL0     H25340  12.438   6.282   6.038  0.5690 -1.6913 -0.2078
  188MOL0     H25341  12.638   6.180   6.167 -1.4083 -0.7289 -3.0025
  188MOL0     H25342  12.648   6.278   6.788 -1.4330 -1.5848  1.5180
  188MOL0     H25343  12.748   6.165   6.965 -0.6552  0.1444  0.4593
  188MOL0     H25344  12.924   6.132   7.108  1.0792  0.0306 -0.6563
  188MOL0     H25345  12.840   5.977   7.095  0.7911 -2.4998 -1.1090
  188MOL0     H25346  13.006   5.990   7.279  0.5358  1.9646 -0.4319
  188MOL0     H25347  13.016   5.845   7.177 -0.5745  0.0222  1.5455
  188MOL0     H25348  13.229   5.947   7.072 -1.4600 -1.1263 -0.6768
  188MOL0     H25349  13.194   6.097   7.156  3.1845  0.1484 -5.3920
  188MOL0     H25350  13.241   5.827   7.297 -4.4785  0.8783  0.3741
  188MOL0     H25351  13.246   5.982   7.376  4.2840 -0.8556  1.6719
  188MOL0     H25352  13.443   6.052   7.245 -1.3894  1.1235 -0.9842
  188MOL0     H25353  13.442   5.910   7.147  1.9706 -0.3221  0.3287
  188MOL0     H25354  13.473   5.908   7.447 -2.7100  0.4098 -1.2589
  188MOL0     H25355  13.468   5.759   7.349 -4.2398  1.0389 -2.3578
  188MOL0     H25356  13.672   5.978   7.314 -0.6925 -0.5121 -0.2711
  188MOL0     H25357  13.669   5.827   7.223  0.4540 -0.8529  1.1558
  188MOL0     H25358  13.697   5.859   7.525 -1.4374  1.1482 -1.9764
  188MOL0     H25359  13.675   5.697   7.447 -1.2869  0.0317  0.8329
  188MOL0     H25360  13.087   6.068   6.733  0.3505  1.0155  1.4884
  188MOL0     H25361  12.984   6.192   6.538 -1.8775  3.0188 -0.6792
  188MOL0     H25362  12.588   6.515   6.438 -0.3536 -0.3453 -0.8226
  188MOL0     H25363  12.423   6.600   6.330  0.5096  0.0108  0.2489
  188MOL0     H25364  10.858   7.317   6.460 -2.8051  0.0522 -1.4844
  188MOL0     H25365  10.803   7.543   6.543 -0.3655 -0.5602  1.1216
  188MOL0     H25366  10.995   7.956   6.497  0.5088  0.5245  2.8763
  188MOL0     H25367  11.021   8.199   6.543 -0.3510  1.8583 -2.2795
  188MOL0     H25368  10.681   8.404   6.671  2.0180 -2.6386 -1.0818
  188MOL0     H25369  10.690   8.488   6.518  0.8903 -3.8438 -2.4337
  188MOL0     H25370  10.855   8.568   6.762  3.7299  0.8077 -0.9851
  188MOL0     H25371  10.704   8.642   6.691  1.0517  2.6909 -2.9602
  188MOL0     H25372  10.866   8.783   6.590 -0.7795 -0.5236 -0.7270
  188MOL0     H25373  10.847   8.660   6.466  0.7712 -3.5829 -0.1986
  188MOL0     H25374  11.030   8.518   6.565 -0.1009  0.9506 -0.8881
  188MOL0     H25375  11.071   8.666   6.479  0.0153  3.2555  0.9450
  188MOL0     H25376  11.237   8.699   6.867  1.7345 -1.2458 -1.4758
  188MOL0     H25377  10.590   8.246   6.525 -2.6595 -2.3167 -0.3381
  188MOL0     H25378  10.512   7.968   6.655  5.1918  1.5279  1.1060
  188MOL0     H25379  10.445   8.066   6.517  0.7328  2.5033  0.5075
  188MOL0     H25380  10.504   7.908   6.482  0.9520  2.2536 -1.9908
  189MOL0     O25381   2.157   8.890   0.715  0.3084 -0.3515  0.3266
  189MOL0     C25382   2.238   8.955   0.773  0.2349 -0.2766  0.3933
  189MOL0     O25383   2.372   8.928   0.760 -0.5363 -0.3094 -0.1551
  189MOL0     C25384   2.404   8.850   0.647 -0.6264  0.7145 -1.1155
  189MOL0     C25385   2.405   8.711   0.648 -0.5177 -0.5213  0.0642
  189MOL0     C25386   2.465   8.627   0.557  0.1828  0.7500 -0.0361
  189MOL0     C25387   2.534   8.685   0.449  0.6846  0.3102 -0.3605
  189MOL0     O25388   2.587   8.587   0.369 -0.1806  0.1148  0.5650
  189MOL0     C25389   2.569   8.591   0.223  0.6347 -0.2808  0.5068
  189MOL0     C25390   2.421   8.577   0.175  0.1126  0.0726  0.7091
  189MOL0     C25391   2.354   8.448   0.217 -0.2014  0.4227 -0.6544
  189MOL0     C25392   2.233   8.470   0.312  0.0584  0.5439 -0.1879
  189MOL0     C25393   2.172   8.352   0.381 -0.4389 -0.2642 -0.3870
  189MOL0     C25394   2.265   8.260   0.462 -0.5706  0.0109  0.7228
  189MOL0     C25395   2.201   8.174   0.567 -0.0713 -0.3389 -0.8745
  189MOL0     C25396   2.093   8.080   0.517 -0.5201 -0.0214  0.1403
  189MOL0     N25397   2.128   7.976   0.421 -1.0544 -0.3884  0.6435
  189MOL0     C25398   2.117   8.005   0.285 -0.3366 -0.1375 -1.0042
  189MOL0     C25399   2.136   7.891   0.216 -0.3987 -0.1453 -0.0004
  189MOL0     C25400   2.140   7.878   0.063  0.5595 -0.0259  0.0847
  189MOL0     C25401   2.057   7.994  -0.013  0.3414 -0.0053  0.4184
  189MOL0     C25402   2.042   7.961  -0.167  0.2338  0.2874 -1.0187
  189MOL0     C25403   1.949   7.845  -0.211 -0.2411 -0.0329 -0.3416
  189MOL0     O25404   1.815   7.865  -0.150 -0.5123  0.2714 -0.1093
  189MOL0     C25405   1.722   7.907  -0.243 -0.4901 -0.3593 -0.1121
  189MOL0     C25406   1.689   8.045  -0.249  0.2647 -0.3310 -0.1225
  189MOL0     C25407   1.613   8.092  -0.358 -0.0834  0.9580  0.6645
  189MOL0     C25408   1.561   8.002  -0.456 -0.2451 -0.6278  0.9166
  189MOL0     C25409   1.478   8.043  -0.575  0.8839  0.6963 -0.4640
  189MOL0     O25410   1.442   7.946  -0.670 -0.7765  0.6616  0.5560
  189MOL0     C25411   1.365   7.977  -0.772  0.9148 -1.1764  0.5048
  189MOL0     C25412   1.292   7.867  -0.810  0.0083  0.5204  0.9730
  189MOL0     C25413   1.201   7.874  -0.919 -0.5186 -0.1478  0.0717
  189MOL0     C25414   1.188   8.000  -0.984 -0.9002  0.5936 -0.2358
  189MOL0     O25415   1.096   8.028  -1.081 -0.0274  0.3567  0.3801
  189MOL0     C25416   1.054   7.913  -1.153 -0.3607  0.0885  0.8704
  189MOL0     C25417   1.025   7.941  -1.298 -0.0597 -0.4250 -0.1259
  189MOL0     C25418   1.120   8.029  -1.369  0.2324 -0.8906  0.3476
  189MOL0     C25419   1.065   8.081  -1.498 -0.3977 -0.2146 -0.3354
  189MOL0     C25420   1.161   8.149  -1.589  0.3926  0.2864  0.6838
  189MOL0     C25421   1.084   8.201  -1.715  0.4465  0.8244  0.5828
  189MOL0     C25422   1.176   8.312  -1.769  1.0094 -0.1965  0.4443
  189MOL0     C25423   1.127   8.382  -1.886 -0.2511  0.2119 -0.7207
  189MOL0    Cl25424   1.121   8.259  -2.007 -0.3571  0.3149  0.3508
  189MOL0     C25425   1.266   8.109  -0.950 -0.0870 -1.0727 -0.7404
  189MOL0     C25426   1.350   8.099  -0.844 -1.0210  0.8047  0.1042
  189MOL0     O25427   1.447   8.158  -0.570  0.8704 -0.0751  0.2220
  189MOL0     C25428   1.577   7.863  -0.441 -0.0307 -0.4683 -0.0496
  189MOL0     C25429   1.665   7.824  -0.341  0.2311  0.1487  0.2800
  189MOL0     N25430   2.154   7.788   0.307 -0.2349  0.2149 -0.2561
  189MOL0     N25431   2.143   7.843   0.428 -0.8697 -0.5354 -0.2987
  189MOL0     C25432   2.535   8.827   0.447 -0.4838  0.6835  0.4956
  189MOL0     C25433   2.470   8.909   0.540  0.1962 -0.5447 -0.0107
  189MOL0     C25434   2.215   9.078   0.856 -0.2435  0.2663  0.8735
  189MOL0     C25435   2.322   9.153   0.909  0.1590  0.6321 -0.3398
  189MOL0     C25436   2.301   9.276   0.983 -0.3293  0.6216  1.0551
  189MOL0     C25437   2.170   9.322   1.000  1.2218 -0.1159 -0.5974
  189MOL0     O25438   2.122   9.429   1.073 -0.0219 -0.5228 -0.4180
  189MOL0     C25439   2.205   9.498   1.168  0.2074  0.6842  0.4400
  189MOL0     C25440   2.244   9.418   1.295  0.7227  0.0364  0.6560
  189MOL0     C25441   2.117   9.409   1.391  0.1058  0.4206  0.0991
  189MOL0     C25442   2.036   9.536   1.422 -0.6290 -0.4894  0.9091
  189MOL0     C25443   2.117   9.626   1.500 -0.5359 -0.0247 -0.6888
  189MOL0     C25444   2.182   9.688   1.576  0.7370 -0.2325  0.4213
  189MOL0     C25445   2.062   9.245   0.949 -1.0249 -0.2617 -0.7863
  189MOL0     C25446   2.085   9.122   0.885 -0.8417 -0.6074  0.1923
  189MOL0     C25447   1.957   9.054   0.845 -0.8283 -0.1853  0.2279
  189MOL0     H25448   2.348   8.667   0.730 -0.9872  1.6326  0.9732
  189MOL0     H25449   2.461   8.519   0.555 -1.4301  0.7819 -1.6329
  189MOL0     H25450   2.614   8.680   0.178  4.1182 -0.6727  2.8505
  189MOL0     H25451   2.629   8.510   0.180  0.8707 -0.3594  0.9778
  189MOL0     H25452   2.421   8.586   0.066 -0.5778 -2.2137  0.4689
  189MOL0     H25453   2.359   8.663   0.203  0.9783  0.5154  1.3391
  189MOL0     H25454   2.425   8.383   0.268 -2.8968 -1.2064  1.3029
  189MOL0     H25455   2.331   8.391   0.127 -0.0684  1.2098 -1.2020
  189MOL0     H25456   2.268   8.545   0.383 -2.0906  0.5572  0.9410
  189MOL0     H25457   2.154   8.509   0.246 -1.1576 -0.1781  0.7995
  189MOL0     H25458   2.097   8.380   0.456  0.7464  0.9291  0.3862
  189MOL0     H25459   2.125   8.286   0.307 -1.1134 -0.2940  0.0518
  189MOL0     H25460   2.320   8.202   0.387 -1.1025 -1.1127  1.1791
  189MOL0     H25461   2.333   8.325   0.517 -0.7932 -0.4442  1.5571
  189MOL0     H25462   2.143   8.246   0.626 -0.1815 -2.0833  1.2876
  189MOL0     H25463   2.273   8.125   0.633  0.5474  0.9119 -0.5761
  189MOL0     H25464   2.042   8.025   0.597 -2.3830 -0.6954 -1.4248
  189MOL0     H25465   2.005   8.138   0.487 -1.3300 -0.9375  0.6690
  189MOL0     H25466   2.106   8.104   0.243 -0.4334 -0.8674 -2.8404
  189MOL0     H25467   2.244   7.866   0.031  0.5400 -1.3735  0.4665
  189MOL0     H25468   2.094   7.780   0.044  4.1744 -1.5632 -1.7076
  189MOL0     H25469   1.962   8.015   0.038  0.8058  0.7597  0.9815
  189MOL0     H25470   2.106   8.091  -0.016 -0.0188  0.1956 -2.6464
  189MOL0     H25471   2.146   7.938  -0.193  0.7733 -1.5985  2.2904
  189MOL0     H25472   2.006   8.057  -0.206 -1.7518  0.6985  1.5544
  189MOL0     H25473   1.995   7.754  -0.171  0.1542 -0.8692 -2.5400
  189MOL0     H25474   1.938   7.827  -0.318 -0.5033 -0.8532 -0.1850
  189MOL0     H25475   1.716   8.117  -0.173 -0.2672  0.5327 -0.7353
  189MOL0     H25476   1.582   8.196  -0.363 -0.0218  0.9561 -3.3296
  189MOL0     H25477   1.302   7.778  -0.749  5.0814  0.8585  1.1046
  189MOL0     H25478   1.144   7.785  -0.944 -0.2823 -0.5505  0.9197
  189MOL0     H25479   1.139   7.845  -1.159  0.5100  1.2179 -0.0990
  189MOL0     H25480   0.964   7.872  -1.107 -0.2473 -0.4153  0.6436
  189MOL0     H25481   1.004   7.849  -1.353 -2.1310  0.3664 -0.7427
  189MOL0     H25482   0.925   7.986  -1.298 -0.6675 -1.7030 -1.1899
  189MOL0     H25483   1.132   8.118  -1.307 -1.2183 -1.0713  0.9174
  189MOL0     H25484   1.220   7.985  -1.380  0.1145 -0.8812 -0.9216
  189MOL0     H25485   0.989   8.152  -1.465 -0.0758 -0.1082  0.1832
  189MOL0     H25486   1.033   7.989  -1.549 -2.7159 -0.5900  1.6248
  189MOL0     H25487   1.238   8.078  -1.621  0.1188  0.9652 -1.6196
  189MOL0     H25488   1.208   8.236  -1.542 -1.6104  2.6442 -1.4134
  189MOL0     H25489   1.069   8.133  -1.799  2.4394  0.5408  0.4124
  189MOL0     H25490   0.984   8.242  -1.697 -0.8588 -2.0011  0.2649
  189MOL0     H25491   1.272   8.270  -1.798  1.0645  0.9386 -1.1534
  189MOL0     H25492   1.191   8.388  -1.692 -0.8140  1.4844 -0.7739
  189MOL0     H25493   1.025   8.418  -1.874  0.0265  0.5898  0.6252
  189MOL0     H25494   1.195   8.466  -1.904 -1.7759  1.6684  0.0818
  189MOL0     H25495   1.272   8.206  -0.998  1.6008 -0.8223 -0.0695
  189MOL0     H25496   1.428   8.174  -0.832  1.1556 -1.3399  0.1303
  189MOL0     H25497   1.526   7.794  -0.508  0.1808  0.8164 -1.5976
  189MOL0     H25498   1.689   7.718  -0.335 -1.8584 -0.3527  0.4855
  189MOL0     H25499   2.599   8.880   0.376 -0.9860  0.2022 -0.3410
  189MOL0     H25500   2.467   9.018   0.545 -1.9247 -0.5963  1.0404
  189MOL0     H25501   2.422   9.112   0.897 -0.2379  0.5037 -4.4660
  189MOL0     H25502   2.383   9.333   1.026 -0.7576 -1.0293  4.3990
  189MOL0     H25503   2.147   9.589   1.181  1.1874  2.2807 -4.4319
  189MOL0     H25504   2.293   9.529   1.111 -1.4017  1.7933 -1.5476
  189MOL0     H25505   2.326   9.460   1.354 -0.7353  0.4322  2.5362
  189MOL0     H25506   2.271   9.317   1.263  1.1111 -0.1637  1.5711
  189MOL0     H25507   2.150   9.357   1.481  0.4979 -1.7399 -1.2140
  189MOL0     H25508   2.046   9.338   1.349  1.2428 -0.5615 -0.2250
  189MOL0     H25509   1.999   9.580   1.329  0.5756  0.5343  0.8913
  189MOL0     H25510   1.952   9.492   1.478 -2.6650 -1.1136 -2.3526
  189MOL0     H25511   2.225   9.759   1.645  1.8905 -1.3794  0.9300
  189MOL0     H25512   1.962   9.285   0.962 -1.2605 -0.7669 -1.0132
  189MOL0     H25513   1.967   9.032   0.738  0.7493  2.3191 -0.2203
  189MOL0     H25514   1.947   8.965   0.908  1.7362 -1.1791 -0.6468
  189MOL0     H25515   1.867   9.116   0.846  0.4003  1.6734  1.6244
  190MOL0     O25516   6.196   9.330   3.242 -0.0730 -0.6174  0.9998
  190MOL0     C25517   6.210   9.451   3.265 -0.3065  0.0486 -0.6415
  190MOL0     O25518   6.312   9.528   3.222  0.0022  0.3235  0.2261
  190MOL0     C25519   6.398   9.457   3.141  0.1628  0.0967  0.4575
  190MOL0     C25520   6.374   9.432   3.005 -0.1784 -0.1902 -0.2383
  190MOL0     C25521   6.453   9.348   2.934  0.0401  0.4127 -0.3256
  190MOL0     C25522   6.550   9.274   2.999  0.1027 -0.1908 -0.4653
  190MOL0     O25523   6.618   9.178   2.933 -0.2215 -0.1022  0.1849
  190MOL0     C25524   6.622   9.050   2.988  0.7821  1.1414 -0.0686
  190MOL0     C25525   6.653   8.933   2.882 -0.0856  0.7041  0.1444
  190MOL0     C25526   6.681   8.803   2.947  0.3750 -0.1360 -0.6356
  190MOL0     C25527   6.731   8.702   2.853  0.3932 -0.1542 -0.0630
  190MOL0     C25528   6.740   8.555   2.883  0.9896  0.0513  0.4414
  190MOL0     C25529   6.761   8.466   2.757  0.0825  0.4045 -0.1696
  190MOL0     C25530   6.719   8.323   2.793  0.0471  0.3908 -0.2766
  190MOL0     C25531   6.703   8.234   2.666  0.7387 -0.6291  0.1319
  190MOL0     N25532   6.734   8.093   2.683  0.1220  0.4664  0.8100
  190MOL0     C25533   6.662   7.996   2.741  0.7412 -0.5096 -0.3738
  190MOL0     C25534   6.713   7.874   2.705 -0.3488 -0.2510  0.1281
  190MOL0     C25535   6.684   7.738   2.750 -0.7144  0.4747 -1.7094
  190MOL0     C25536   6.814   7.656   2.788  0.4580  0.2955  0.0508
  190MOL0     C25537   6.891   7.710   2.907  0.8577  0.0470  0.3116
  190MOL0     C25538   6.985   7.606   2.962 -0.7961  0.6848 -0.9030
  190MOL0     O25539   7.035   7.650   3.090  0.7979 -0.6413  0.3003
  190MOL0     C25540   7.168   7.654   3.103 -0.3234  0.4025 -0.0384
  190MOL0     C25541   7.218   7.780   3.146 -0.1123  0.1982  0.1559
  190MOL0     C25542   7.358   7.781   3.198 -0.0182  0.3437  0.1381
  190MOL0     C25543   7.436   7.673   3.170 -1.4548 -0.2631  0.5955
  190MOL0     C25544   7.574   7.699   3.198 -0.8769  0.5214  0.4371
  190MOL0     O25545   7.635   7.816   3.164  0.3441  0.0530 -0.7104
  190MOL0     C25546   7.768   7.843   3.208  0.1234 -0.1482  0.7041
  190MOL0     C25547   7.788   7.978   3.257  0.2184  0.5244  0.2879
  190MOL0     C25548   7.912   8.022   3.296 -0.7184  0.7504  0.0944
  190MOL0     C25549   8.017   7.933   3.311  0.5530  0.0113 -1.3145
  190MOL0     O25550   8.140   7.963   3.360 -0.8601  0.5103 -0.0181
  190MOL0     C25551   8.146   8.063   3.456 -1.2784 -0.4497 -0.5533
  190MOL0     C25552   8.264   8.036   3.564 -1.2095 -0.2539  0.2580
  190MOL0     C25553   8.400   8.019   3.498  0.0810  0.9655  0.3402
  190MOL0     C25554   8.425   8.117   3.376 -0.3593 -0.0942  0.1103
  190MOL0     C25555   8.569   8.127   3.353  0.5542 -0.3189  0.8540
  190MOL0     C25556   8.604   8.232   3.253  0.3573 -0.0890  0.0992
  190MOL0     C25557   8.750   8.234   3.218  0.6450  0.0491  0.1010
  190MOL0     C25558   8.748   8.314   3.082 -0.4657 -0.4987 -0.6505
  190MOL0    Cl25559   8.908   8.357   3.018 -0.3573 -0.1584  0.1030
  190MOL0     C25560   7.999   7.805   3.267 -0.3188  0.4168 -0.4077
  190MOL0     C25561   7.873   7.755   3.214  0.3207 -0.5861 -0.6103
  190MOL0     O25562   7.627   7.609   3.265  0.0925 -0.0689  0.7572
  190MOL0     C25563   7.394   7.564   3.099  0.0176 -0.1769  0.6764
  190MOL0     C25564   7.255   7.545   3.081 -0.2969 -0.1813 -0.1220
  190MOL0     N25565   6.813   7.900   2.612 -1.1735 -0.5963  0.3397
  190MOL0     N25566   6.825   8.028   2.609 -0.2958 -0.1043  0.6579
  190MOL0     C25567   6.590   9.306   3.126 -0.2209  0.5097 -0.3415
  190MOL0     C25568   6.510   9.408   3.199 -0.0635  0.5478 -1.1455
  190MOL0     C25569   6.113   9.517   3.356 -0.1753  0.2646  0.2127
  190MOL0     C25570   6.146   9.645   3.405 -0.1030 -0.6840  0.0075
  190MOL0     C25571   6.064   9.720   3.477 -0.8829 -0.8246 -0.1493
  190MOL0     C25572   5.946   9.663   3.517  0.1813  0.1724 -0.4549
  190MOL0     O25573   5.858   9.750   3.586 -0.7632  0.1988 -0.0235
  190MOL0     C25574   5.760   9.690   3.668 -0.0967  0.8744  0.1396
  190MOL0     C25575   5.829   9.608   3.778 -0.1741  1.1229  0.2076
  190MOL0     C25576   5.747   9.540   3.887  0.4009 -0.2411 -0.2141
  190MOL0     C25577   5.666   9.419   3.842  0.1081  0.1134  0.3312
  190MOL0     C25578   5.520   9.440   3.847 -0.5639 -0.0116  0.2620
  190MOL0     C25579   5.397   9.465   3.852 -0.0435  0.0630  0.5984
  190MOL0     C25580   5.900   9.535   3.470 -0.3291  1.0043 -0.4774
  190MOL0     C25581   5.979   9.458   3.379  0.2026  0.7915 -0.3657
  190MOL0     C25582   5.928   9.335   3.323  1.1285 -0.0398 -0.4509
  190MOL0     H25583   6.291   9.465   2.943 -1.2375 -1.6553  0.3450
  190MOL0     H25584   6.426   9.326   2.831 -1.1969  0.8057 -0.1018
  190MOL0     H25585   6.703   9.039   3.061  0.1911 -0.1187  0.4242
  190MOL0     H25586   6.525   9.026   3.032  0.5558  2.3947  0.1449
  190MOL0     H25587   6.733   8.960   2.812 -0.1077  1.0549  0.2506
  190MOL0     H25588   6.560   8.923   2.825  0.4977  2.2198 -1.1500
  190MOL0     H25589   6.587   8.764   2.989 -0.8678  1.2416 -1.9988
  190MOL0     H25590   6.743   8.819   3.035 -0.0349 -0.6699 -0.2407
  190MOL0     H25591   6.677   8.707   2.758  0.4693  1.3490 -0.0437
  190MOL0     H25592   6.832   8.734   2.826  0.4310  1.5867  1.8991
  190MOL0     H25593   6.818   8.530   2.956  3.2478 -1.0808 -2.2012
  190MOL0     H25594   6.643   8.531   2.927  0.6703  2.0800  0.9597
  190MOL0     H25595   6.699   8.500   2.673  2.6851  2.3539 -1.4203
  190MOL0     H25596   6.863   8.476   2.719  0.1166  3.1096  0.4470
  190MOL0     H25597   6.631   8.315   2.857  1.2676 -1.3881  1.2871
  190MOL0     H25598   6.811   8.295   2.844  1.6147  2.4629 -1.7794
  190MOL0     H25599   6.597   8.247   2.643  0.8477 -2.0269 -1.3426
  190MOL0     H25600   6.759   8.282   2.585 -0.6706 -0.6060 -0.8708
  190MOL0     H25601   6.584   8.017   2.813  0.5850 -2.0625 -0.0431
  190MOL0     H25602   6.609   7.751   2.828 -2.0527 -1.4828 -2.5927
  190MOL0     H25603   6.633   7.685   2.668 -1.1248  0.9540 -1.7694
  190MOL0     H25604   6.788   7.551   2.802  3.4381 -0.6506 -0.7739
  190MOL0     H25605   6.881   7.656   2.702  0.0669 -0.5013 -0.2634
  190MOL0     H25606   6.821   7.727   2.989  1.2715 -0.6275  0.8136
  190MOL0     H25607   6.948   7.799   2.877  0.2820  0.8278  1.4500
  190MOL0     H25608   7.067   7.575   2.897  2.9270 -2.3328  4.4361
  190MOL0     H25609   6.935   7.512   2.989  1.5152  0.6083  4.1853
  190MOL0     H25610   7.159   7.871   3.143 -2.8985 -1.4459 -4.4512
  190MOL0     H25611   7.408   7.869   3.238  1.9469 -0.3372 -0.7023
  190MOL0     H25612   7.713   8.053   3.233  0.1450  0.4663  0.3365
  190MOL0     H25613   7.925   8.129   3.310 -0.9925  0.8153 -0.1268
  190MOL0     H25614   8.173   8.153   3.401 -0.0300 -0.6829 -0.3437
  190MOL0     H25615   8.053   8.063   3.514 -0.9816 -1.4478 -0.0478
  190MOL0     H25616   8.259   8.133   3.616 -0.7853  0.0926 -0.3386
  190MOL0     H25617   8.241   7.954   3.632  0.3148  0.6828  1.9849
  190MOL0     H25618   8.472   8.044   3.576  2.2924 -1.0092 -0.9192
  190MOL0     H25619   8.422   7.919   3.460 -0.4632  0.7433  0.6052
  190MOL0     H25620   8.380   8.214   3.401 -0.6858 -0.0571 -0.5794
  190MOL0     H25621   8.371   8.087   3.285  0.5324 -1.1330 -0.0852
  190MOL0     H25622   8.607   8.041   3.297  1.6864  0.2674  0.6976
  190MOL0     H25623   8.631   8.133   3.443  1.8415  2.8041 -0.0947
  190MOL0     H25624   8.540   8.222   3.165 -0.5376  0.1301  0.7013
  190MOL0     H25625   8.566   8.326   3.293  0.0923 -0.5607  0.9885
  190MOL0     H25626   8.801   8.139   3.196  0.6527 -0.1016  0.7391
  190MOL0     H25627   8.803   8.287   3.297  0.3494 -0.0586  0.3728
  190MOL0     H25628   8.695   8.267   2.999 -0.2576 -0.3833 -0.8512
  190MOL0     H25629   8.706   8.412   3.106  0.1244 -0.6273  0.9816
  190MOL0     H25630   8.081   7.733   3.276 -2.5834 -2.5419 -1.6795
  190MOL0     H25631   7.853   7.652   3.185 -1.1639 -0.3743 -0.4442
  190MOL0     H25632   7.464   7.482   3.087 -1.0817 -0.9419 -0.8584
  190MOL0     H25633   7.226   7.449   3.040  2.1588 -1.7568  1.5626
  190MOL0     H25634   6.679   9.265   3.173 -0.5847  1.0679  0.8645
  190MOL0     H25635   6.531   9.418   3.305 -3.3265  2.2776 -0.5104
  190MOL0     H25636   6.245   9.686   3.386 -0.3640 -0.1792 -0.2956
  190MOL0     H25637   6.095   9.819   3.509 -0.9359 -1.0572  0.6441
  190MOL0     H25638   5.698   9.612   3.625  0.5975 -0.0638  0.8048
  190MOL0     H25639   5.692   9.766   3.708 -1.6151  0.3028 -1.2727
  190MOL0     H25640   5.890   9.677   3.837  1.0183 -2.5002  3.6283
  190MOL0     H25641   5.893   9.528   3.740 -2.7195 -1.5896  1.1823
  190MOL0     H25642   5.690   9.621   3.935 -3.4020 -0.8209 -3.2491
  190MOL0     H25643   5.816   9.506   3.964 -0.9932  1.1714  1.7691
  190MOL0     H25644   5.702   9.379   3.746 -2.5575 -0.4250 -0.5455
  190MOL0     H25645   5.687   9.336   3.910  0.6914 -0.0638 -0.0537
  190MOL0     H25646   5.290   9.473   3.847 -0.1186 -1.3086 -0.6069
  190MOL0     H25647   5.804   9.494   3.501  0.9188 -2.7502 -1.1268
  190MOL0     H25648   5.926   9.344   3.214  1.1756  0.0062 -0.4481
  190MOL0     H25649   5.987   9.245   3.345  4.0415  2.1861  1.4868
  190MOL0     H25650   5.829   9.313   3.366  1.2492  2.9096  1.6108
  191MOL0     O25651   9.900   5.886  10.371  0.1605  0.7170  0.2126
  191MOL0     C25652   9.910   5.959  10.465 -0.7486 -0.2465 -0.3868
  191MOL0     O25653  10.034   5.994  10.519 -0.0701  1.2226 -0.2185
  191MOL0     C25654  10.130   5.898  10.505 -1.2474 -1.0009  0.1686
  191MOL0     C25655  10.213   5.895  10.387 -0.2919  0.4492 -0.2537
  191MOL0     C25656  10.313   5.798  10.382 -0.0538  0.6605 -0.3255
  191MOL0     C25657  10.328   5.701  10.478 -0.0217  0.2314  0.2131
  191MOL0     O25658  10.416   5.596  10.465  0.6244  0.6567 -0.3773
  191MOL0     C25659  10.472   5.547  10.349 -0.9818 -0.3412  0.9019
  191MOL0     C25660  10.571   5.431  10.371  0.1895 -0.3222  0.0091
  191MOL0     C25661  10.505   5.317  10.454 -0.3921 -0.2864 -0.6190
  191MOL0     C25662  10.383   5.255  10.386 -0.0026  0.3254 -0.5104
  191MOL0     C25663  10.413   5.202  10.243 -0.3250 -0.1191  0.1354
  191MOL0     C25664  10.290   5.136  10.183 -0.1188 -0.8733  0.0964
  191MOL0     C25665  10.317   5.010  10.110  0.4381 -0.6858 -0.6411
  191MOL0     C25666  10.208   4.962  10.003 -1.3578 -0.8185 -1.3047
  191MOL0     N25667  10.249   4.856   9.917 -0.3393  0.2680  0.0369
  191MOL0     C25668  10.173   4.790   9.829 -0.3460 -1.0825  0.6296
  191MOL0     C25669  10.211   4.660   9.831 -0.5420  0.5060  0.2495
  191MOL0     C25670  10.141   4.548   9.757  0.9207 -0.1424 -0.2052
  191MOL0     C25671  10.004   4.511   9.812  0.6248 -0.2728 -0.3633
  191MOL0     C25672   9.898   4.612   9.776  0.6114  0.1341 -0.5016
  191MOL0     C25673   9.792   4.544   9.684 -0.5229 -0.4614  0.3848
  191MOL0     O25674   9.851   4.512   9.561  0.3409 -0.2833 -0.5824
  191MOL0     C25675   9.844   4.386   9.506 -0.0324 -0.4392 -0.4261
  191MOL0     C25676   9.785   4.267   9.559 -0.2384  0.5887  0.6792
  191MOL0     C25677   9.778   4.143   9.488  0.3356  1.1094 -0.1045
  191MOL0     C25678   9.824   4.152   9.356 -0.1675  0.6623  0.3116
  191MOL0     C25679   9.803   4.046   9.261 -0.3056  0.2064  0.1740
  191MOL0     O25680   9.862   4.050   9.141 -0.6765  0.0235  0.4252
  191MOL0     C25681   9.892   3.943   9.061 -0.3874  0.0735  0.4961
  191MOL0     C25682   9.881   3.811   9.096  0.2234 -1.0714  0.4828
  191MOL0     C25683   9.926   3.711   9.010  0.8782  0.2891 -0.2916
  191MOL0     C25684   9.968   3.737   8.875  0.6724  0.0409 -0.0449
  191MOL0     O25685  10.006   3.648   8.776  0.1120  0.6378  0.4416
  191MOL0     C25686  10.023   3.509   8.834 -1.0371  0.0317  0.7922
  191MOL0     C25687  10.037   3.417   8.714 -0.2643  0.5369 -0.5071
  191MOL0     C25688  10.066   3.277   8.761 -0.3172  0.5395  0.7420
  191MOL0     C25689  10.040   3.165   8.652  0.9019 -0.4985  1.0997
  191MOL0     C25690  10.115   3.030   8.672 -0.3497  0.6755 -0.2493
  191MOL0     C25691  10.085   2.914   8.574  0.5391  0.7201  0.1094
  191MOL0     C25692  10.140   2.772   8.616 -0.2163 -0.6232 -0.3326
  191MOL0     C25693  10.292   2.741   8.606 -0.2444  0.6622 -0.7997
  191MOL0    Cl25694  10.342   2.805   8.448  0.0107 -0.2485 -0.3603
  191MOL0     C25695   9.963   3.875   8.849 -0.8239  0.3089  0.3123
  191MOL0     C25696   9.936   3.981   8.933  0.4079  0.4228 -0.5456
  191MOL0     O25697   9.729   3.953   9.300 -0.8292  0.7602 -0.6330
  191MOL0     C25698   9.875   4.276   9.304  0.0417  1.9276 -0.4161
  191MOL0     C25699   9.892   4.388   9.379  0.3242  0.1015 -0.3631
  191MOL0     N25700  10.315   4.652   9.918 -0.2310 -0.3934 -0.5283
  191MOL0     N25701  10.335   4.765   9.966 -0.2895 -1.0330 -0.0188
  191MOL0     C25702  10.245   5.701  10.595  1.0908 -0.5947 -0.2206
  191MOL0     C25703  10.149   5.801  10.602 -0.6240 -1.8730 -0.1354
  191MOL0     C25704   9.805   6.062  10.499 -0.6588 -0.8962  0.1540
  191MOL0     C25705   9.829   6.168  10.588 -0.0925  0.4403  0.2038
  191MOL0     C25706   9.723   6.254  10.634  0.4554  0.4195  0.6742
  191MOL0     C25707   9.596   6.240  10.585  0.4359  0.0905 -0.2331
  191MOL0     O25708   9.486   6.314  10.631  0.0691  0.1178 -0.4283
  191MOL0     C25709   9.474   6.372  10.764 -0.1867 -0.3754  0.7565
  191MOL0     C25710   9.484   6.268  10.877  0.0930  0.7230  0.0694
  191MOL0     C25711   9.393   6.289  10.994 -0.0088 -0.0602 -0.4581
  191MOL0     C25712   9.381   6.176  11.089 -0.6894  0.1596 -0.8940
  191MOL0     C25713   9.291   6.079  11.033  1.2879  0.6823 -0.4029
  191MOL0     C25714   9.223   5.983  11.007  0.1685 -0.1549  0.2328
  191MOL0     C25715   9.581   6.143  10.482  0.1567  0.3956 -0.5892
  191MOL0     C25716   9.680   6.062  10.440  0.6309  0.6262 -1.0821
  191MOL0     C25717   9.634   5.965  10.337  0.5670 -0.2333 -0.0708
  191MOL0     H25718  10.219   5.973  10.312 -0.3510  0.0414 -0.6956
  191MOL0     H25719  10.369   5.796  10.288  0.0355 -1.4093 -0.2770
  191MOL0     H25720  10.385   5.511  10.293 -0.3912 -0.1352 -0.1613
  191MOL0     H25721  10.516   5.627  10.289  0.0843 -2.0878 -0.7519
  191MOL0     H25722  10.662   5.465  10.420  0.6530 -1.0547 -0.3215
  191MOL0     H25723  10.600   5.400  10.270 -2.7322 -0.9240 -0.7604
  191MOL0     H25724  10.479   5.357  10.553  1.6539 -0.9288  0.2220
  191MOL0     H25725  10.570   5.235  10.487 -3.1056 -2.3894 -0.1639
  191MOL0     H25726  10.347   5.166  10.438 -3.0014  0.5955 -1.9139
  191MOL0     H25727  10.293   5.317  10.390 -0.4159 -0.1280 -2.1266
  191MOL0     H25728  10.462   5.284  10.191 -1.2623  2.0135  2.4283
  191MOL0     H25729  10.493   5.128  10.241 -0.6595 -0.4788 -0.3396
  191MOL0     H25730  10.207   5.113  10.251 -1.8322 -3.0292 -2.5035
  191MOL0     H25731  10.258   5.203  10.103  0.7811 -3.3388 -2.5169
  191MOL0     H25732  10.316   4.930  10.184 -0.5164  0.9764  1.2497
  191MOL0     H25733  10.415   5.021  10.062 -0.1924 -1.9726 -2.2785
  191MOL0     H25734  10.113   4.944  10.054 -1.0248  0.9176  0.0463
  191MOL0     H25735  10.199   5.046   9.934  0.2908  0.6863  0.1932
  191MOL0     H25736  10.095   4.837   9.769 -0.0743  0.9217  1.7302
  191MOL0     H25737  10.132   4.568   9.650 -1.4533  1.0244  0.1459
  191MOL0     H25738  10.208   4.463   9.769  0.5592 -0.3531  0.3681
  191MOL0     H25739   9.970   4.407   9.805  1.2443 -0.8684  3.3159
  191MOL0     H25740  10.016   4.538   9.918 -1.5771  1.6189 -0.5248
  191MOL0     H25741   9.942   4.702   9.734 -1.6302  2.5520  1.9348
  191MOL0     H25742   9.844   4.632   9.869  0.9607 -0.8378 -0.0675
  191MOL0     H25743   9.713   4.613   9.651  1.6411  2.1509  0.3064
  191MOL0     H25744   9.744   4.460   9.735 -0.0155  0.2549  2.1061
  191MOL0     H25745   9.747   4.264   9.660  0.5940  1.7342  1.0531
  191MOL0     H25746   9.734   4.054   9.531  1.0939  1.3491  1.2198
  191MOL0     H25747   9.862   3.782   9.198 -1.4544  2.1756  1.2356
  191MOL0     H25748   9.920   3.614   9.059 -0.3314  0.7514  0.5301
  191MOL0     H25749  10.106   3.502   8.905 -0.4152  4.5432  0.7822
  191MOL0     H25750   9.936   3.481   8.894 -0.8174  0.3679  1.2731
  191MOL0     H25751   9.955   3.423   8.641  0.3190  0.2805 -1.1914
  191MOL0     H25752  10.115   3.450   8.644 -1.2145 -1.6776 -2.7994
  191MOL0     H25753  10.174   3.269   8.774 -0.0847  0.5551 -1.0121
  191MOL0     H25754  10.016   3.255   8.856 -2.8031 -3.8751 -1.2681
  191MOL0     H25755  10.069   3.206   8.555 -0.6644  0.0574  0.8241
  191MOL0     H25756   9.932   3.149   8.664  0.5684  1.8735  1.9341
  191MOL0     H25757  10.106   2.999   8.776  0.4370 -2.5874 -1.0348
  191MOL0     H25758  10.223   3.048   8.674  0.1166 -1.8152  1.2551
  191MOL0     H25759   9.979   2.891   8.589  0.3173  0.4501 -1.6712
  191MOL0     H25760  10.100   2.934   8.468 -1.6616  0.0263 -0.3831
  191MOL0     H25761  10.074   2.703   8.563 -1.8012  0.6270 -0.0853
  191MOL0     H25762  10.122   2.772   8.724 -2.1165 -2.8834 -0.5836
  191MOL0     H25763  10.344   2.798   8.683  0.9235  1.8105 -2.3813
  191MOL0     H25764  10.302   2.632   8.609  2.9402  0.8899 -0.0110
  191MOL0     H25765   9.984   3.901   8.746  0.7663  0.2406  0.5956
  191MOL0     H25766   9.942   4.087   8.908  0.4116  0.2639 -1.2134
  191MOL0     H25767   9.901   4.281   9.199  0.2168 -0.1612 -0.5141
  191MOL0     H25768   9.964   4.463   9.348 -0.2129  1.2044  0.9969
  191MOL0     H25769  10.247   5.626  10.673 -0.4453  0.3135  0.7323
  191MOL0     H25770  10.089   5.818  10.691 -0.6985  0.7890 -0.5894
  191MOL0     H25771   9.924   6.195  10.635 -0.2571  0.6987  0.3897
  191MOL0     H25772   9.757   6.344  10.683  0.2622  1.7887 -1.5511
  191MOL0     H25773   9.381   6.429  10.762 -2.0492 -3.2242  0.2027
  191MOL0     H25774   9.552   6.448  10.777 -1.9407  1.8815 -0.8955
  191MOL0     H25775   9.586   6.268  10.916 -0.9100  1.1161  2.9176
  191MOL0     H25776   9.453   6.170  10.840  0.3948  0.0575  1.5123
  191MOL0     H25777   9.294   6.320  10.958 -1.2134 -2.6493  0.3602
  191MOL0     H25778   9.444   6.372  11.043 -1.4874  3.3158 -4.0669
  191MOL0     H25779   9.481   6.132  11.100 -0.2698  0.2174 -3.8105
  191MOL0     H25780   9.354   6.217  11.187 -2.1875  1.6515 -1.8969
  191MOL0     H25781   9.205   5.889  10.959  1.0403 -0.0044 -0.4320
  191MOL0     H25782   9.483   6.125  10.439 -1.3884  1.4491  2.2310
  191MOL0     H25783   9.527   5.959  10.320  0.3404 -1.7007  1.5673
  191MOL0     H25784   9.686   5.980  10.242 -2.4904 -2.2628 -2.2348
  191MOL0     H25785   9.650   5.864  10.376 -0.2627 -1.1694 -2.0377
  192MOL0     O25786   5.833  10.386   0.209 -0.1763 -0.6936  0.0610
  192MOL0     C25787   5.869  10.440   0.313 -0.6233  0.6005  0.6691
  192MOL0     O25788   5.862  10.567   0.332 -0.2714 -0.7044 -0.6512
  192MOL0     C25789   5.880  10.649   0.220  0.5265  0.0203 -0.8080
  192MOL0     C25790   5.765  10.683   0.139  0.2074  0.8320  0.3415
  192MOL0     C25791   5.770  10.777   0.039 -0.6372 -0.4666  0.2995
  192MOL0     C25792   5.890  10.846   0.011 -0.4743 -0.3776 -0.3357
  192MOL0     O25793   5.905  10.943  -0.080  0.3055  0.1900  0.1540
  192MOL0     C25794   5.787  10.983  -0.144 -0.3891  0.4247 -0.1939
  192MOL0     C25795   5.825  11.090  -0.249 -0.0478  1.1371  0.0334
  192MOL0     C25796   5.922  11.201  -0.205 -0.5751 -0.6811 -1.0713
  192MOL0     C25797   5.861  11.308  -0.118 -0.7158  0.0874 -0.9055
  192MOL0     C25798   5.828  11.433  -0.193  0.0170 -0.0795 -0.4117
  192MOL0     C25799   5.855  11.565  -0.113  0.3237  0.7602  0.0648
  192MOL0     C25800   5.754  11.585   0.009  0.9306  0.8700  0.0454
  192MOL0     C25801   5.772  11.720   0.071  0.3099 -0.2104 -0.5515
  192MOL0     N25802   5.768  11.837  -0.025 -0.1511  0.3154 -0.0031
  192MOL0     C25803   5.652  11.888  -0.074  0.5966  1.3574  1.6587
  192MOL0     C25804   5.681  11.992  -0.155 -0.2758  0.2780  0.4348
  192MOL0     C25805   5.577  12.082  -0.235  0.3628  0.2789 -0.8929
  192MOL0     C25806   5.473  11.994  -0.310  0.0694  0.1917  0.3361
  192MOL0     C25807   5.522  11.952  -0.453 -0.2297 -0.4751  0.1778
  192MOL0     C25808   5.407  11.927  -0.548  0.2614 -0.4081 -0.4533
  192MOL0     O25809   5.371  11.794  -0.515  0.1669 -0.6629  0.4196
  192MOL0     C25810   5.443  11.686  -0.566 -0.5128 -0.5752  0.1652
  192MOL0     C25811   5.476  11.587  -0.479 -0.2829 -0.7965 -0.0363
  192MOL0     C25812   5.552  11.475  -0.522  0.3759  0.0010 -0.4957
  192MOL0     C25813   5.602  11.465  -0.656  0.6548  0.6201  0.1426
  192MOL0     C25814   5.690  11.349  -0.700 -0.1480 -0.1406  0.5989
  192MOL0     O25815   5.760  11.274  -0.613 -0.8414 -0.3410 -0.2761
  192MOL0     C25816   5.861  11.192  -0.662 -0.8804  0.5403 -1.2763
  192MOL0     C25817   5.865  11.072  -0.588 -0.2535 -0.3244  0.2932
  192MOL0     C25818   5.948  10.965  -0.619  0.4068  1.0865  0.6343
  192MOL0     C25819   6.038  10.982  -0.726 -0.8298 -0.4372 -0.7158
  192MOL0     O25820   6.142  10.892  -0.751 -0.5043 -0.5776  0.2421
  192MOL0     C25821   6.087  10.758  -0.782 -0.1517 -0.4545 -0.0629
  192MOL0     C25822   5.972  10.747  -0.875 -0.5602  0.5654 -0.0530
  192MOL0     C25823   5.935  10.599  -0.864 -0.9605  0.2617  0.3771
  192MOL0     C25824   5.837  10.542  -0.971  0.6754 -0.4594 -0.3763
  192MOL0     C25825   5.869  10.552  -1.125  0.8609 -0.0743  0.0884
  192MOL0     C25826   5.786  10.444  -1.211 -0.0880 -1.2251  0.4220
  192MOL0     C25827   5.638  10.455  -1.198 -0.1270  0.2554 -0.7307
  192MOL0     C25828   5.553  10.362  -1.283  0.6025  0.1827  0.3737
  192MOL0    Cl25829   5.549  10.397  -1.465  0.0401 -0.0973  0.0208
  192MOL0     C25830   6.040  11.105  -0.802  0.4330  0.2364 -0.8396
  192MOL0     C25831   5.956  11.214  -0.761 -0.0096 -0.0722 -0.1459
  192MOL0     O25832   5.688  11.335  -0.823  0.3392 -0.4442 -0.6549
  192MOL0     C25833   5.554  11.564  -0.754 -0.6135  0.5062 -1.4487
  192MOL0     C25834   5.477  11.674  -0.713  0.3111  0.1220  0.1698
  192MOL0     N25835   5.816  11.996  -0.161  0.4229 -0.2635 -0.4666
  192MOL0     N25836   5.874  11.908  -0.077  0.6228 -0.0602 -0.5435
  192MOL0     C25837   6.004  10.806   0.082 -0.4300 -1.3735  0.0449
  192MOL0     C25838   5.998  10.708   0.182 -0.8632 -1.6424 -0.3743
  192MOL0     C25839   5.915  10.359   0.423 -0.2754 -0.8542  0.0131
  192MOL0     C25840   5.853  10.229   0.444  0.4194 -0.4526  0.4879
  192MOL0     C25841   5.867  10.155   0.559  0.0304 -0.6059  0.2595
  192MOL0     C25842   5.942  10.207   0.661  0.4740 -1.0151  0.2703
  192MOL0     O25843   5.966  10.151   0.782 -0.3729  0.5162 -0.8874
  192MOL0     C25844   5.902  10.025   0.819  0.4257  0.3074  0.2894
  192MOL0     C25845   5.933  10.008   0.967  0.6291  0.3380 -0.2650
  192MOL0     C25846   5.879   9.868   1.021 -0.2388  0.8182 -0.4891
  192MOL0     C25847   5.738   9.834   0.982  0.3908  0.6181  0.3826
  192MOL0     C25848   5.674   9.722   1.047  0.4915 -1.2157 -0.1903
  192MOL0     C25849   5.624   9.631   1.112 -1.1071 -0.5898  1.4213
  192MOL0     C25850   6.018  10.320   0.634  0.2539  0.0071 -0.0755
  192MOL0     C25851   6.016  10.391   0.518  0.0219  0.8097  0.5306
  192MOL0     C25852   6.128  10.488   0.493  0.0322 -0.5060 -0.2028
  192MOL0     H25853   5.664  10.650   0.160  1.0855 -0.6020  2.6592
  192MOL0     H25854   5.681  10.795  -0.020 -4.6349 -1.8531  5.1919
  192MOL0     H25855   5.746  10.904  -0.207  2.4511 -0.5062 -1.0518
  192MOL0     H25856   5.725  11.035  -0.071  3.0683  3.4451  0.9297
  192MOL0     H25857   5.736  11.118  -0.306  0.7541  1.9467 -0.8646
  192MOL0     H25858   5.882  11.030  -0.321 -0.3243 -1.6001  1.9661
  192MOL0     H25859   5.963  11.240  -0.299  0.1836  0.3158 -0.3448
  192MOL0     H25860   6.009  11.168  -0.148  1.8388  3.6772 -1.8182
  192MOL0     H25861   5.778  11.285  -0.050  0.1461  2.6857  1.1787
  192MOL0     H25862   5.944  11.332  -0.050  0.1142  0.4326 -2.0180
  192MOL0     H25863   5.885  11.435  -0.286 -0.6029 -1.1903 -0.8307
  192MOL0     H25864   5.720  11.434  -0.215 -0.6802 -3.2677  2.1160
  192MOL0     H25865   5.958  11.553  -0.078  0.3735 -0.2449 -0.4000
  192MOL0     H25866   5.837  11.644  -0.186  2.1472 -1.0202 -2.4957
  192MOL0     H25867   5.779  11.518   0.092 -2.2440  1.5041  1.6469
  192MOL0     H25868   5.649  11.562  -0.010  1.5213 -2.1082 -0.0953
  192MOL0     H25869   5.696  11.734   0.148 -1.9550 -0.5982 -2.5963
  192MOL0     H25870   5.866  11.736   0.125 -0.5691  1.9607  0.4242
  192MOL0     H25871   5.553  11.842  -0.069 -0.1511  2.6025 -0.4733
  192MOL0     H25872   5.527  12.147  -0.162  0.6782  0.4776 -0.8492
  192MOL0     H25873   5.627  12.166  -0.285 -0.3507  2.2000  1.4042
  192MOL0     H25874   5.458  11.903  -0.251  0.2316 -1.2733 -1.7725
  192MOL0     H25875   5.387  12.062  -0.315  0.0976  0.2621  0.8026
  192MOL0     H25876   5.587  11.864  -0.445  0.2561 -0.1183  0.1927
  192MOL0     H25877   5.591  12.027  -0.495 -0.6847 -1.1389 -1.8964
  192MOL0     H25878   5.424  11.953  -0.653  1.0637  1.3713  0.0712
  192MOL0     H25879   5.317  11.983  -0.519  1.9640  0.9229  2.7333
  192MOL0     H25880   5.452  11.599  -0.374 -1.1248  0.4171 -0.3424
  192MOL0     H25881   5.603  11.403  -0.458  1.1300  0.1080 -0.9599
  192MOL0     H25882   5.785  11.050  -0.518 -1.2249 -0.1373 -0.7248
  192MOL0     H25883   5.945  10.871  -0.565  0.6199  1.5655  1.4997
  192MOL0     H25884   6.168  10.694  -0.816  0.1141 -2.4091  3.7279
  192MOL0     H25885   6.065  10.722  -0.682  1.4657  0.1826  0.5525
  192MOL0     H25886   5.880  10.802  -0.856 -1.3418 -0.0910 -1.7246
  192MOL0     H25887   6.013  10.775  -0.973 -2.3187 -1.8737 -1.5965
  192MOL0     H25888   6.030  10.544  -0.866 -0.6296  0.7981  0.9459
  192MOL0     H25889   5.896  10.590  -0.762  0.1445  1.7230  0.9608
  192MOL0     H25890   5.752  10.609  -0.952  1.8969  1.3796 -1.0851
  192MOL0     H25891   5.808  10.442  -0.938  1.5322 -1.0263 -1.3297
  192MOL0     H25892   5.973  10.533  -1.150  1.2096  2.5668 -0.7615
  192MOL0     H25893   5.851  10.655  -1.159 -0.2633  0.6540  2.6467
  192MOL0     H25894   5.823  10.442  -1.314 -0.3855 -1.6127  0.3215
  192MOL0     H25895   5.805  10.342  -1.178 -0.2368 -1.3639  0.0764
  192MOL0     H25896   5.592  10.547  -1.237 -0.8829 -0.3757 -1.3467
  192MOL0     H25897   5.616  10.460  -1.090 -3.4759  1.8689 -1.3258
  192MOL0     H25898   5.584  10.259  -1.262  0.2510  0.2462  1.2774
  192MOL0     H25899   5.449  10.359  -1.247  0.0732 -2.7430 -1.0493
  192MOL0     H25900   6.115  11.120  -0.879  0.7827 -1.7641 -0.9457
  192MOL0     H25901   5.954  11.306  -0.818 -1.2378 -0.0109 -0.0342
  192MOL0     H25902   5.594  11.558  -0.855  2.1452 -2.2973 -0.3560
  192MOL0     H25903   5.446  11.753  -0.781  1.3978 -0.3568 -0.9390
  192MOL0     H25904   6.103  10.839   0.053 -1.4996  0.8048 -1.3964
  192MOL0     H25905   6.094  10.676   0.220  0.5620  0.2287 -2.1135
  192MOL0     H25906   5.782  10.190   0.372  0.7454  0.0096 -0.0880
  192MOL0     H25907   5.801  10.069   0.556 -1.2377  0.3289  0.3911
  192MOL0     H25908   5.951   9.940   0.770 -0.5008 -0.8247  1.2463
  192MOL0     H25909   5.799  10.021   0.785  1.0937 -3.4783 -1.8316
  192MOL0     H25910   5.886  10.089   1.024 -3.0129 -0.7363 -1.4292
  192MOL0     H25911   6.041  10.014   0.982  1.1055  2.4369 -3.5085
  192MOL0     H25912   5.891   9.860   1.130 -1.8229 -0.0574 -0.3369
  192MOL0     H25913   5.942   9.785   0.985 -2.9991 -3.4565  3.3449
  192MOL0     H25914   5.663   9.912   0.999 -2.6987 -1.5263 -2.2140
  192MOL0     H25915   5.729   9.826   0.874 -2.2884  0.7088  0.5245
  192MOL0     H25916   5.585   9.549   1.168  0.9290  0.1291  4.1154
  192MOL0     H25917   6.086  10.358   0.710  2.1519 -1.9242 -0.7127
  192MOL0     H25918   6.171  10.480   0.393  4.2151  0.4686  1.3087
  192MOL0     H25919   6.099  10.593   0.502 -0.1974 -0.6258  0.5365
  192MOL0     H25920   6.208  10.468   0.565 -0.7000  3.5563  2.0516
  193MOL0     O25921   8.335   2.940  10.232  0.1613  0.4104 -0.2766
  193MOL0     C25922   8.269   2.990  10.324 -0.0343  0.2795  0.5211
  193MOL0     O25923   8.161   2.930  10.379  0.4494 -0.7948 -0.1530
  193MOL0     C25924   8.091   2.825  10.322 -0.2174  0.8780 -0.9699
  193MOL0     C25925   8.142   2.698  10.340  0.3417 -0.2282 -0.5463
  193MOL0     C25926   8.057   2.593  10.296 -1.0762 -0.0267  0.3052
  193MOL0     C25927   7.945   2.613  10.221  0.0202  0.3057  0.0675
  193MOL0     O25928   7.878   2.509  10.170  0.6483  0.1607 -0.4577
  193MOL0     C25929   7.795   2.432  10.268 -0.1567 -0.2459 -0.2301
  193MOL0     C25930   7.672   2.518  10.312 -0.0118  0.3132 -0.7460
  193MOL0     C25931   7.566   2.429  10.382  0.1556 -0.3781 -0.4589
  193MOL0     C25932   7.599   2.387  10.520  0.5904  0.2255 -0.9114
  193MOL0     C25933   7.491   2.310  10.599  0.0231 -0.2042  0.2641
  193MOL0     C25934   7.458   2.178  10.531 -0.3562 -0.2555  0.0189
  193MOL0     C25935   7.394   2.076  10.622  0.4052 -0.2567 -0.3145
  193MOL0     C25936   7.364   1.945  10.558 -0.0827 -0.3340 -0.3251
  193MOL0     N25937   7.281   1.859  10.648  0.2131  1.5711 -0.2024
  193MOL0     C25938   7.175   1.903  10.727 -0.7523 -0.6630  0.7805
  193MOL0     C25939   7.114   1.799  10.782  0.7728 -0.0558 -0.3964
  193MOL0     C25940   6.994   1.802  10.866  0.3561  0.1891  0.4136
  193MOL0     C25941   7.025   1.809  11.025  0.5907  0.3017  0.9456
  193MOL0     C25942   7.097   1.684  11.082  0.5360 -0.4077  0.0171
  193MOL0     C25943   7.248   1.682  11.051 -1.1616  0.6510  0.2294
  193MOL0     O25944   7.324   1.592  11.143  0.0779  0.6450 -0.0104
  193MOL0     C25945   7.352   1.628  11.267 -0.1673 -0.1768  0.1795
  193MOL0     C25946   7.314   1.750  11.334 -0.2262 -0.5117  0.1858
  193MOL0     C25947   7.350   1.768  11.475  0.2349  1.4922 -0.2301
  193MOL0     C25948   7.422   1.664  11.538 -0.9163  0.2755  0.1920
  193MOL0     C25949   7.474   1.693  11.669 -0.3850 -0.1645 -0.3974
  193MOL0     O25950   7.583   1.626  11.703 -0.7803 -1.0522  0.6474
  193MOL0     C25951   7.647   1.667  11.809 -0.1751 -0.4262 -0.8406
  193MOL0     C25952   7.764   1.736  11.812  0.2554 -0.0053 -0.5536
  193MOL0     C25953   7.830   1.787  11.927  0.7705 -0.0681  0.0316
  193MOL0     C25954   7.771   1.758  12.055  0.0042 -0.5026 -0.4422
  193MOL0     O25955   7.819   1.793  12.181 -0.9485 -0.1630 -0.2185
  193MOL0     C25956   7.921   1.892  12.175 -0.3289 -0.2416  0.6011
  193MOL0     C25957   7.974   1.942  12.311  0.2413 -0.1067 -0.0826
  193MOL0     C25958   8.127   1.965  12.316 -0.0278 -1.2064 -0.6311
  193MOL0     C25959   8.175   2.032  12.449 -0.3450 -0.1027 -0.2797
  193MOL0     C25960   8.319   2.013  12.484 -0.1024  0.4123  0.6739
  193MOL0     C25961   8.344   2.076  12.622 -0.4892  0.7612 -0.1552
  193MOL0     C25962   8.492   2.045  12.670 -0.4027  0.3708  0.3527
  193MOL0     C25963   8.523   2.105  12.808  1.0783  1.6726 -0.9275
  193MOL0    Cl25964   8.476   2.277  12.822  0.2813  0.5120 -0.0920
  193MOL0     C25965   7.658   1.668  12.061  0.1734  0.2557  0.0158
  193MOL0     C25966   7.602   1.624  11.934 -0.4199 -0.1221  0.0277
  193MOL0     O25967   7.410   1.772  11.746  0.1246  0.5428  0.0624
  193MOL0     C25968   7.449   1.549  11.476  0.1408 -0.4272  0.5708
  193MOL0     C25969   7.414   1.525  11.337  0.1824 -0.1699 -0.3748
  193MOL0     N25970   7.186   1.686  10.730 -0.5258 -0.5126  0.3794
  193MOL0     N25971   7.277   1.723  10.649  0.8416 -0.8711  0.4051
  193MOL0     C25972   7.913   2.744  10.197  1.2475  0.2539  0.7624
  193MOL0     C25973   7.980   2.854  10.246 -0.2339 -0.0063 -0.0749
  193MOL0     C25974   8.309   3.118  10.386  0.3020 -0.3172 -0.5578
  193MOL0     C25975   8.424   3.120  10.467 -0.3864 -0.6305 -0.2889
  193MOL0     C25976   8.475   3.247  10.515  0.1056  0.2045  0.4743
  193MOL0     C25977   8.416   3.368  10.473  0.4141  0.4072 -1.2214
  193MOL0     O25978   8.454   3.490  10.524 -0.1761 -0.0965 -0.0245
  193MOL0     C25979   8.592   3.514  10.513  0.4432  0.4569 -0.5538
  193MOL0     C25980   8.637   3.557  10.368 -0.1883 -0.0311 -0.0091
  193MOL0     C25981   8.583   3.694  10.327 -0.1339  0.1526  0.3238
  193MOL0     C25982   8.661   3.811  10.384  0.0578 -0.4048  0.3109
  193MOL0     C25983   8.637   3.948  10.340 -1.0571 -0.3940  0.1087
  193MOL0     C25984   8.602   4.065  10.313  0.6353  0.2025 -0.3957
  193MOL0     C25985   8.299   3.357  10.390  0.3681 -0.0024 -0.9228
  193MOL0     C25986   8.244   3.234  10.353 -0.2560 -0.9249  0.1732
  193MOL0     C25987   8.117   3.239  10.264 -0.2650 -0.1978  0.0976
  193MOL0     H25988   8.241   2.690  10.382  1.6274  3.6119 -2.3819
  193MOL0     H25989   8.095   2.493  10.311  1.5233  0.9369  0.6996
  193MOL0     H25990   7.772   2.342  10.210  1.0042  0.8710 -2.5560
  193MOL0     H25991   7.853   2.410  10.358  1.6769 -1.0437 -1.5469
  193MOL0     H25992   7.636   2.575  10.226 -2.4862  0.9032  0.5859
  193MOL0     H25993   7.700   2.598  10.382  0.9547 -0.9535  0.3653
  193MOL0     H25994   7.558   2.332  10.331 -1.5022 -0.7978  0.5124
  193MOL0     H25995   7.470   2.477  10.361  0.9046  0.5611 -1.9006
  193MOL0     H25996   7.693   2.330  10.526  1.0760  1.1548  2.6467
  193MOL0     H25997   7.626   2.476  10.578  1.9479 -1.3062  0.9517
  193MOL0     H25998   7.524   2.306  10.703 -2.6573 -0.3418  1.1711
  193MOL0     H25999   7.397   2.366  10.594  1.4463  2.3547  0.2748
  193MOL0     H26000   7.392   2.188  10.444 -0.1180 -0.1951 -0.1559
  193MOL0     H26001   7.554   2.133  10.502 -0.6958 -1.6727  1.0465
  193MOL0     H26002   7.296   2.113  10.653  0.5377 -1.3127  1.4491
  193MOL0     H26003   7.456   2.069  10.711 -1.4896  0.4836  1.1286
  193MOL0     H26004   7.301   1.947  10.469 -0.1448 -1.1495 -0.3058
  193MOL0     H26005   7.461   1.906  10.528  1.1420 -0.7110  3.5436
  193MOL0     H26006   7.136   2.004  10.739  0.5837  0.0809 -0.6780
  193MOL0     H26007   6.939   1.893  10.844  1.0229  0.4445 -0.2664
  193MOL0     H26008   6.922   1.723  10.842 -2.5908  3.2716 -1.7665
  193MOL0     H26009   7.085   1.900  11.041 -2.6348  3.5239 -3.1392
  193MOL0     H26010   6.928   1.823  11.073 -0.0884 -0.4416 -0.1782
  193MOL0     H26011   7.049   1.593  11.046  0.0542  0.8177 -2.6549
  193MOL0     H26012   7.083   1.697  11.190 -2.3972 -0.4755 -0.2830
  193MOL0     H26013   7.298   1.779  11.055 -0.9033  0.5274 -0.0059
  193MOL0     H26014   7.260   1.645  10.949 -0.5483  0.4831  0.3571
  193MOL0     H26015   7.267   1.825  11.273 -3.0492 -3.8116 -2.0546
  193MOL0     H26016   7.317   1.864  11.513 -4.1476  0.5251 -1.0786
  193MOL0     H26017   7.801   1.773  11.716  2.4780  1.2356  0.6938
  193MOL0     H26018   7.913   1.856  11.916 -1.1104  3.1685  3.5577
  193MOL0     H26019   8.006   1.863  12.113  2.3378  2.6633  2.5843
  193MOL0     H26020   7.882   1.978  12.120 -1.7514 -1.1852  0.0892
  193MOL0     H26021   7.925   2.038  12.329 -0.0572 -0.4612  1.0461
  193MOL0     H26022   7.954   1.878  12.397  0.5832  0.0936  0.1512
  193MOL0     H26023   8.178   1.869  12.310  0.4272 -1.0976  1.0654
  193MOL0     H26024   8.163   2.040  12.245 -0.1776 -0.2834  0.2423
  193MOL0     H26025   8.109   2.002  12.531 -1.8416  0.1519 -1.3417
  193MOL0     H26026   8.162   2.141  12.442 -0.0833 -0.0984 -0.7437
  193MOL0     H26027   8.372   2.065  12.403 -1.8840 -0.7229 -1.3098
  193MOL0     H26028   8.341   1.906  12.492  0.6693  0.6706  3.1500
  193MOL0     H26029   8.333   2.185  12.614  2.2770  1.2024  0.7507
  193MOL0     H26030   8.278   2.038  12.701  1.0413 -1.9757 -0.0924
  193MOL0     H26031   8.556   2.103  12.603 -1.9510  1.2921 -0.3901
  193MOL0     H26032   8.494   1.936  12.671 -2.1411  0.2868 -0.9454
  193MOL0     H26033   8.466   2.056  12.888  0.4086  0.6564 -1.9862
  193MOL0     H26034   8.627   2.088  12.835  0.1396  0.1780  2.2320
  193MOL0     H26035   7.616   1.634  12.155 -0.2124  1.4224  0.2773
  193MOL0     H26036   7.510   1.567  11.943 -0.1737 -0.3578  1.2123
  193MOL0     H26037   7.482   1.462  11.532 -0.0390  0.2289  1.7217
  193MOL0     H26038   7.430   1.430  11.285  0.3361 -0.5183  0.3009
  193MOL0     H26039   7.829   2.763  10.130  1.1856  0.2038  0.8258
  193MOL0     H26040   7.958   2.959  10.226 -1.3006 -0.4891 -1.5770
  193MOL0     H26041   8.462   3.022  10.495  0.5953 -0.5218 -1.1639
  193MOL0     H26042   8.551   3.252  10.591  0.6220 -2.1890  0.2004
  193MOL0     H26043   8.654   3.436  10.557 -1.7316 -2.0702 -1.6871
  193MOL0     H26044   8.617   3.604  10.571 -1.7234  0.6962  0.1426
  193MOL0     H26045   8.601   3.488  10.291 -0.1466 -0.4084  0.3116
  193MOL0     H26046   8.746   3.556  10.366 -0.1471  0.5065  1.2104
  193MOL0     H26047   8.480   3.699  10.363 -0.6569  0.9772 -1.2124
  193MOL0     H26048   8.593   3.694  10.218  0.4104 -1.1539  0.3498
  193MOL0     H26049   8.652   3.810  10.493 -0.3493 -1.8953  0.2896
  193MOL0     H26050   8.767   3.796  10.360 -0.2204  0.2591 -1.4745
  193MOL0     H26051   8.595   4.171  10.308  2.7444  0.3500 -1.3791
  193MOL0     H26052   8.252   3.449  10.357 -2.8682 -0.8300  0.9720
  193MOL0     H26053   8.037   3.206  10.331  2.3699 -2.6809  2.2697
  193MOL0     H26054   8.099   3.343  10.235 -0.0167  0.5947  2.5601
  193MOL0     H26055   8.128   3.172  10.178 -1.9389 -3.1684  2.0490
  194MOL0     O26056   3.467   5.027   4.995 -0.1580  0.3833 -0.4270
  194MOL0     C26057   3.525   5.018   5.100  0.3375  0.8375 -1.1003
  194MOL0     O26058   3.508   4.913   5.183  0.4178  1.2994  0.5850
  194MOL0     C26059   3.450   4.799   5.132 -0.1312 -0.6750  0.4694
  194MOL0     C26060   3.517   4.709   5.050  0.1029  0.1348  0.3248
  194MOL0     C26061   3.446   4.595   4.993  1.0278  0.4821  0.2706
  194MOL0     C26062   3.307   4.577   5.004 -0.0263 -0.6254  0.4225
  194MOL0     O26063   3.253   4.478   4.924 -0.2032  0.2478  0.3030
  194MOL0     C26064   3.106   4.451   4.920 -0.2795  0.3768 -0.7168
  194MOL0     C26065   3.066   4.385   5.055  0.0550 -0.3550 -0.2371
  194MOL0     C26066   2.910   4.368   5.065  0.0707  0.0010 -0.0590
  194MOL0     C26067   2.865   4.259   5.164 -0.7244  0.6866  1.0162
  194MOL0     C26068   2.712   4.236   5.148  1.1094  0.3808 -0.0009
  194MOL0     C26069   2.628   4.339   5.214  0.1304  0.3382 -0.6492
  194MOL0     C26070   2.480   4.305   5.210  0.7178  0.0053  0.7063
  194MOL0     C26071   2.438   4.174   5.275 -0.1605  0.1894 -0.6405
  194MOL0     N26072   2.487   4.147   5.416 -0.5598 -0.1168  0.0080
  194MOL0     C26073   2.455   4.240   5.517 -0.3600 -0.2842 -0.0348
  194MOL0     C26074   2.526   4.208   5.628 -0.1546  0.2625 -0.4724
  194MOL0     C26075   2.524   4.279   5.763 -0.3989 -0.3679 -0.8901
  194MOL0     C26076   2.395   4.354   5.792 -0.8667 -1.0070  1.0486
  194MOL0     C26077   2.338   4.347   5.943  0.2788 -0.0057 -0.5665
  194MOL0     C26078   2.255   4.470   5.972 -0.4829 -0.4786 -0.7709
  194MOL0     O26079   2.202   4.464   6.107  0.5109 -0.3578  0.3559
  194MOL0     C26080   2.092   4.386   6.118  0.1983 -0.8577 -0.3179
  194MOL0     C26081   2.111   4.250   6.162 -0.0519  0.1514 -0.5581
  194MOL0     C26082   1.986   4.177   6.183 -0.8330  0.1154 -0.2975
  194MOL0     C26083   1.855   4.223   6.131 -0.6743  1.2522  0.3049
  194MOL0     C26084   1.735   4.136   6.141  0.4105  0.0781  1.0259
  194MOL0     O26085   1.765   3.999   6.132 -0.0468  0.3440  0.0895
  194MOL0     C26086   1.661   3.915   6.094  0.0389 -0.2238  0.2469
  194MOL0     C26087   1.540   3.898   6.151 -0.5636 -0.0158  0.5674
  194MOL0     C26088   1.443   3.802   6.113  0.1496  1.0355 -0.3894
  194MOL0     C26089   1.463   3.729   6.000 -0.6693  0.5077  0.8319
  194MOL0     O26090   1.383   3.635   5.944 -0.7068  0.4308  0.2902
  194MOL0     C26091   1.272   3.586   6.018  0.7591  0.1840 -0.2520
  194MOL0     C26092   1.146   3.656   5.976 -1.0010  0.1012 -0.1868
  194MOL0     C26093   1.019   3.593   6.022  0.5486  0.1037 -0.0853
  194MOL0     C26094   0.988   3.615   6.174  0.3948  0.4936  0.6659
  194MOL0     C26095   0.861   3.704   6.196 -0.2847  0.2845 -0.4366
  194MOL0     C26096   0.882   3.855   6.165 -0.0604  1.1086  0.1955
  194MOL0     C26097   0.993   3.934   6.236  0.4714  0.3825 -0.5462
  194MOL0     C26098   0.963   4.075   6.258  0.6069 -0.5146  0.2387
  194MOL0    Cl26099   0.925   4.141   6.088  0.5277  0.1837 -0.3137
  194MOL0     C26100   1.583   3.742   5.943  0.0824 -0.6454  0.5766
  194MOL0     C26101   1.685   3.833   5.989  0.3260  0.6816 -0.0592
  194MOL0     O26102   1.623   4.188   6.149 -0.2996 -0.3291  0.3551
  194MOL0     C26103   1.856   4.349   6.075  0.3099 -0.5939 -0.6461
  194MOL0     C26104   1.973   4.427   6.069 -0.1901 -0.3776 -0.2034
  194MOL0     N26105   2.597   4.096   5.587 -0.2391 -0.1287 -0.1277
  194MOL0     N26106   2.575   4.061   5.464 -0.7339  0.0434  0.5579
  194MOL0     C26107   3.240   4.666   5.089 -0.5142  0.6316  0.3319
  194MOL0     C26108   3.313   4.768   5.151  0.0518 -0.1927  0.5845
  194MOL0     C26109   3.615   5.120   5.146  0.0484 -0.0309  0.8434
  194MOL0     C26110   3.710   5.088   5.249  0.2264  0.3439  0.1818
  194MOL0     C26111   3.799   5.188   5.288  0.0793  0.4181 -0.4239
  194MOL0     C26112   3.798   5.316   5.232 -0.7547  0.3276  0.2738
  194MOL0     O26113   3.886   5.410   5.289  0.4227 -0.1975  0.3474
  194MOL0     C26114   3.960   5.502   5.213 -0.7309  0.2320 -0.1598
  194MOL0     C26115   3.875   5.624   5.184  0.4834 -1.1169  0.7156
  194MOL0     C26116   3.776   5.677   5.288 -0.7659 -0.3609  0.3593
  194MOL0     C26117   3.716   5.811   5.248 -1.6103  0.4151 -0.0902
  194MOL0     C26118   3.608   5.852   5.342  1.0779 -0.4129  0.4863
  194MOL0     C26119   3.522   5.887   5.430  0.0516  1.1670 -0.0591
  194MOL0     C26120   3.699   5.351   5.143  0.1065 -0.5914  0.4898
  194MOL0     C26121   3.609   5.255   5.098  0.2179 -1.1354  0.1501
  194MOL0     C26122   3.506   5.321   4.996 -0.5006 -0.3525 -0.5917
  194MOL0     H26123   3.621   4.713   5.019 -0.0798 -2.1512 -0.8615
  194MOL0     H26124   3.501   4.517   4.941  0.7589 -0.9150  1.9860
  194MOL0     H26125   3.064   4.551   4.907  4.2951  2.7042  0.4424
  194MOL0     H26126   3.064   4.388   4.841 -0.9003  1.4480 -1.2646
  194MOL0     H26127   3.088   4.451   5.140 -1.6985 -1.4668  1.1577
  194MOL0     H26128   3.111   4.286   5.065  3.0278  0.8704 -0.2703
  194MOL0     H26129   2.883   4.349   4.960 -0.5340  1.0920 -0.1190
  194MOL0     H26130   2.860   4.460   5.096  1.6158 -0.1699  3.3680
  194MOL0     H26131   2.918   4.166   5.142 -1.4440 -0.0207  2.1390
  194MOL0     H26132   2.886   4.281   5.270  1.0755 -1.3553  1.1685
  194MOL0     H26133   2.683   4.217   5.044 -2.2563 -1.6953  1.1655
  194MOL0     H26134   2.698   4.141   5.199  1.5926  0.0154 -0.5376
  194MOL0     H26135   2.661   4.349   5.318  1.3219 -1.2306 -0.8489
  194MOL0     H26136   2.646   4.424   5.148  2.6519  0.2772 -0.1706
  194MOL0     H26137   2.447   4.307   5.106 -0.6863 -0.0192  1.1307
  194MOL0     H26138   2.432   4.383   5.270  2.0664  1.6128 -0.1933
  194MOL0     H26139   2.330   4.153   5.278  0.2037 -1.7496  0.6443
  194MOL0     H26140   2.480   4.102   5.205  1.0959  0.2336  0.0417
  194MOL0     H26141   2.398   4.332   5.513  0.7365  0.5333  1.8929
  194MOL0     H26142   2.532   4.203   5.841 -2.4105 -0.1715 -0.4415
  194MOL0     H26143   2.607   4.348   5.773 -0.2076 -0.8657  1.5224
  194MOL0     H26144   2.397   4.454   5.748 -1.4205 -1.6700 -0.5356
  194MOL0     H26145   2.309   4.308   5.743 -2.0120  0.0321  2.0130
  194MOL0     H26146   2.426   4.339   6.008  0.6347 -2.6931 -1.2546
  194MOL0     H26147   2.282   4.255   5.957  1.0647 -0.1222  2.3977
  194MOL0     H26148   2.183   4.498   5.894 -0.8521  2.7005  0.5480
  194MOL0     H26149   2.328   4.551   5.983 -0.5344 -0.5295 -0.0146
  194MOL0     H26150   2.203   4.221   6.212 -1.3415  1.5968  3.0077
  194MOL0     H26151   1.991   4.079   6.228  0.0459  0.1968 -0.1834
  194MOL0     H26152   1.513   3.969   6.229 -0.6244 -1.4629  1.9117
  194MOL0     H26153   1.347   3.801   6.164 -0.7741  1.4277 -2.0649
  194MOL0     H26154   1.262   3.481   5.988 -1.6270  1.0983 -3.1242
  194MOL0     H26155   1.290   3.591   6.126  1.8921  2.3273 -0.4787
  194MOL0     H26156   1.162   3.760   6.008  0.2740 -0.0518 -0.2741
  194MOL0     H26157   1.147   3.666   5.867 -1.8692 -0.4202 -0.2503
  194MOL0     H26158   0.935   3.641   5.971 -1.7442 -0.5653  2.8041
  194MOL0     H26159   1.016   3.488   5.994  1.3235  0.0374  0.0493
  194MOL0     H26160   1.075   3.660   6.224  1.4551  1.4293 -1.8442
  194MOL0     H26161   0.974   3.517   6.219  0.0140 -0.7548 -1.9997
  194MOL0     H26162   0.844   3.690   6.303  2.7899 -0.5828  0.0571
  194MOL0     H26163   0.778   3.660   6.141  0.6570 -0.3456 -1.4097
  194MOL0     H26164   0.905   3.865   6.058 -0.4199 -0.1639 -0.0167
  194MOL0     H26165   0.783   3.899   6.182 -1.9414 -2.0348 -1.6971
  194MOL0     H26166   1.082   3.919   6.174  0.2373  0.4010 -0.8864
  194MOL0     H26167   1.016   3.891   6.335 -3.4074 -2.9110 -0.8242
  194MOL0     H26168   0.878   4.088   6.326  1.0693 -5.4965  2.2297
  194MOL0     H26169   1.051   4.129   6.295  0.5574 -0.8320  0.8386
  194MOL0     H26170   1.609   3.675   5.862  2.6761  0.1736  0.6463
  194MOL0     H26171   1.783   3.834   5.942  0.2292  0.9170 -0.2606
  194MOL0     H26172   1.762   4.390   6.039 -0.6940 -1.2259  1.1531
  194MOL0     H26173   1.967   4.532   6.041 -0.3377 -0.5284 -0.7568
  194MOL0     H26174   3.132   4.669   5.098 -0.5962  0.1179 -0.3842
  194MOL0     H26175   3.264   4.841   5.214 -2.3323 -0.4592 -0.8563
  194MOL0     H26176   3.711   4.989   5.293  2.2814 -0.2256 -1.0170
  194MOL0     H26177   3.865   5.162   5.370 -1.2957 -1.7373  0.0878
  194MOL0     H26178   4.004   5.460   5.122  0.5625 -1.0203  0.9844
  194MOL0     H26179   4.039   5.554   5.268 -0.0043 -0.6123 -0.3703
  194MOL0     H26180   3.831   5.627   5.084  1.5354  1.3555  0.2515
  194MOL0     H26181   3.952   5.699   5.162  0.1487 -0.2177  2.4706
  194MOL0     H26182   3.806   5.691   5.393  0.9621  5.5714 -0.5808
  194MOL0     H26183   3.695   5.604   5.291 -0.9488 -0.1276  1.8797
  194MOL0     H26184   3.794   5.888   5.249  1.9827 -2.9081  0.1375
  194MOL0     H26185   3.691   5.798   5.143  0.4877  0.4965 -0.6446
  194MOL0     H26186   3.473   5.937   5.511  1.6600  1.0589  1.0466
  194MOL0     H26187   3.697   5.452   5.105 -1.1428 -0.3032  1.2792
  194MOL0     H26188   3.467   5.402   5.058  0.1587 -0.3149 -0.2103
  194MOL0     H26189   3.549   5.344   4.898 -1.4741 -3.8184 -1.9848
  194MOL0     H26190   3.417   5.260   4.980 -0.7202  0.2739 -1.9895
  195MOL0     O26191   6.046   9.861   0.044  0.1371 -0.3130 -0.1217
  195MOL0     C26192   6.136   9.774   0.028 -0.6215 -0.4311 -0.2938
  195MOL0     O26193   6.130   9.640   0.064  0.0790  0.4629  0.3959
  195MOL0     C26194   6.006   9.586   0.089 -0.0291  0.3895  0.2940
  195MOL0     C26195   5.965   9.534   0.215 -0.2112 -0.2039 -0.1410
  195MOL0     C26196   5.844   9.476   0.232  0.5677  0.5485  0.5948
  195MOL0     C26197   5.760   9.472   0.135  0.0028  0.0349 -0.6154
  195MOL0     O26198   5.640   9.409   0.158  0.4994  0.3892  0.4278
  195MOL0     C26199   5.538   9.413   0.058 -0.2454 -0.1752 -0.4241
  195MOL0     C26200   5.431   9.313   0.081 -0.0832  1.1446  1.0736
  195MOL0     C26201   5.321   9.362   0.179 -0.3526  0.0392 -0.7115
  195MOL0     C26202   5.214   9.251   0.204 -0.0842 -0.6817  0.5030
  195MOL0     C26203   5.128   9.325   0.310  0.3956 -0.1962 -0.0521
  195MOL0     C26204   5.025   9.231   0.376  0.7912 -0.3559 -0.0286
  195MOL0     C26205   5.075   9.121   0.461 -0.5244  1.0413 -0.3708
  195MOL0     C26206   4.972   9.018   0.487  0.2657  0.0557  0.1016
  195MOL0     N26207   5.033   8.909   0.552  0.2817 -0.3117 -0.0174
  195MOL0     C26208   5.079   8.903   0.679  0.1224 -0.3120 -0.2449
  195MOL0     C26209   5.108   8.774   0.705  0.5296  0.0915 -0.3394
  195MOL0     C26210   5.161   8.699   0.832 -0.2110 -0.1098  0.9368
  195MOL0     C26211   5.205   8.565   0.804  0.1500 -0.3559  0.3778
  195MOL0     C26212   5.247   8.497   0.934 -0.0518 -0.0236  0.8559
  195MOL0     C26213   5.123   8.465   1.012  0.2093  0.3618  0.1778
  195MOL0     O26214   5.161   8.403   1.136  0.6095 -0.9490  0.0993
  195MOL0     C26215   5.069   8.347   1.224 -0.0585  0.2583  0.8892
  195MOL0     C26216   4.939   8.317   1.184 -0.0146  0.1378 -0.6443
  195MOL0     C26217   4.836   8.253   1.269 -0.0994 -1.1313 -0.3002
  195MOL0     C26218   4.869   8.246   1.405 -0.6827  0.3513 -0.4425
  195MOL0     C26219   4.761   8.214   1.501  0.0193  0.5523 -0.0784
  195MOL0     O26220   4.647   8.148   1.471  0.1302 -0.0725  0.7939
  195MOL0     C26221   4.528   8.154   1.535 -0.9785  0.2093 -0.1838
  195MOL0     C26222   4.434   8.062   1.500 -0.3223  0.1318  0.0601
  195MOL0     C26223   4.304   8.071   1.553 -0.4813  0.6031  0.3538
  195MOL0     C26224   4.269   8.157   1.656  0.2830  0.9048 -0.2455
  195MOL0     O26225   4.139   8.161   1.697  0.1639  1.0198 -0.0629
  195MOL0     C26226   4.089   8.286   1.743  0.7705 -0.5860 -0.6205
  195MOL0     C26227   3.947   8.308   1.710  0.0217  0.4310 -1.0837
  195MOL0     C26228   3.924   8.334   1.559  0.0807  0.5577 -0.2643
  195MOL0     C26229   3.958   8.224   1.454 -0.6911  0.1712  0.9016
  195MOL0     C26230   3.885   8.250   1.314  0.7171  0.1031 -1.5677
  195MOL0     C26231   3.925   8.378   1.239 -0.4183  0.3150  0.3925
  195MOL0     C26232   4.075   8.388   1.194  0.5363  0.2053  0.1294
  195MOL0     C26233   4.111   8.448   1.054 -0.1432 -0.8673 -0.4924
  195MOL0    Cl26234   4.024   8.600   1.026 -0.3886  0.5542  0.2136
  195MOL0     C26235   4.374   8.225   1.711  0.2306  0.3479  0.1563
  195MOL0     C26236   4.498   8.231   1.643 -1.0293  1.2767 -0.1036
  195MOL0     O26237   4.788   8.258   1.607 -0.3827  0.0793 -0.0499
  195MOL0     C26238   4.998   8.284   1.447  0.5996 -0.7443  0.3906
  195MOL0     C26239   5.097   8.325   1.360 -0.2513 -0.4424  1.0374
  195MOL0     N26240   5.067   8.700   0.593  0.4227 -0.6588 -0.3654
  195MOL0     N26241   5.042   8.784   0.501  0.0633 -0.9731  0.3578
  195MOL0     C26242   5.781   9.537   0.013  0.1146 -0.1508  0.2428
  195MOL0     C26243   5.907   9.589  -0.012 -0.4300 -0.6007  0.1739
  195MOL0     C26244   6.271   9.823  -0.027 -0.0933 -0.3462 -0.4560
  195MOL0     C26245   6.380   9.728  -0.015  0.7583  0.6813  0.0625
  195MOL0     C26246   6.504   9.756  -0.063  0.0802 -0.3420 -0.1296
  195MOL0     C26247   6.538   9.882  -0.112 -0.1201  0.1263  0.1902
  195MOL0     O26248   6.671   9.910  -0.157  0.2604  0.5405 -0.0127
  195MOL0     C26249   6.713  10.039  -0.176  0.6537  0.3527 -0.0061
  195MOL0     C26250   6.867  10.056  -0.168  0.6081  0.6376 -0.3494
  195MOL0     C26251   6.928   9.976  -0.046 -0.2130  0.4175 -0.5972
  195MOL0     C26252   7.069  10.021  -0.024 -0.3991  0.4705  0.4312
  195MOL0     C26253   7.137   9.927   0.071  0.3425  0.1347  0.8117
  195MOL0     C26254   7.198   9.843   0.136  0.3058  1.1121  0.0473
  195MOL0     C26255   6.440   9.973  -0.117  0.5278  0.3063 -0.9748
  195MOL0     C26256   6.307   9.946  -0.079  0.4601 -0.1519  0.9333
  195MOL0     C26257   6.207  10.058  -0.101 -0.3241  0.6642  0.0487
  195MOL0     H26258   6.037   9.555   0.294  1.0829 -1.3464 -0.9535
  195MOL0     H26259   5.799   9.431   0.320 -1.2625 -1.7872 -1.3808
  195MOL0     H26260   5.494   9.513   0.070 -2.1834 -1.0204 -0.0977
  195MOL0     H26261   5.575   9.393  -0.043  0.0828 -0.8806 -0.1703
  195MOL0     H26262   5.481   9.228   0.129  2.4923  1.9745  0.0322
  195MOL0     H26263   5.407   9.280  -0.020  3.8276  2.0831 -0.3476
  195MOL0     H26264   5.278   9.459   0.150  0.0908  1.7127  3.5379
  195MOL0     H26265   5.386   9.388   0.263 -0.2476  3.6780 -1.7445
  195MOL0     H26266   5.157   9.231   0.113 -1.4118  0.9674  0.9221
  195MOL0     H26267   5.260   9.157   0.236 -0.3421 -1.3442 -1.0131
  195MOL0     H26268   5.182   9.373   0.392 -1.4217 -2.5551  2.7017
  195MOL0     H26269   5.070   9.406   0.263  0.6163  0.3971  0.6755
  195MOL0     H26270   4.962   9.296   0.437  0.3584 -2.3020  1.7009
  195MOL0     H26271   4.965   9.191   0.293 -0.7642 -0.7170  1.2336
  195MOL0     H26272   5.105   9.173   0.552 -1.4528 -3.7334  2.9810
  195MOL0     H26273   5.156   9.069   0.408  1.8458  0.5048  3.4421
  195MOL0     H26274   4.897   9.066   0.551  3.3201  1.2140  3.1512
  195MOL0     H26275   4.932   8.988   0.390  2.7757  1.0403 -1.3618
  195MOL0     H26276   5.081   8.987   0.747 -0.4302 -0.4993  0.0046
  195MOL0     H26277   5.240   8.758   0.879  0.2250 -0.6383  0.8812
  195MOL0     H26278   5.068   8.700   0.889 -0.7404 -0.7682  0.1164
  195MOL0     H26279   5.124   8.501   0.769  2.4757 -2.5531 -1.3662
  195MOL0     H26280   5.286   8.560   0.730 -1.5370  0.7084 -1.6223
  195MOL0     H26281   5.305   8.573   0.986 -2.9248  2.1418  1.1466
  195MOL0     H26282   5.293   8.401   0.908  0.8236  1.1772 -2.4683
  195MOL0     H26283   5.072   8.389   0.951 -0.0264  1.5025 -1.0814
  195MOL0     H26284   5.051   8.544   1.036 -0.3585  0.3099 -1.2431
  195MOL0     H26285   4.908   8.343   1.084  0.4101 -2.5964 -1.5852
  195MOL0     H26286   4.739   8.234   1.225 -1.1921  2.9316 -0.0607
  195MOL0     H26287   4.455   7.987   1.424  2.0558  1.5451 -0.8042
  195MOL0     H26288   4.218   8.025   1.507 -2.4402  3.1206  1.2600
  195MOL0     H26289   4.098   8.305   1.850 -3.7854  0.8620 -0.2885
  195MOL0     H26290   4.148   8.363   1.691  2.9145 -0.9658  1.1167
  195MOL0     H26291   3.878   8.229   1.741 -1.8263  2.2999 -0.1617
  195MOL0     H26292   3.914   8.398   1.763  0.5044 -0.4068  0.7130
  195MOL0     H26293   3.817   8.357   1.553 -0.4352 -1.7823 -1.8374
  195MOL0     H26294   3.965   8.431   1.531 -1.6726  3.1127  4.7793
  195MOL0     H26295   3.940   8.133   1.513  3.6147  0.3337  2.8539
  195MOL0     H26296   4.067   8.219   1.443 -0.9430 -0.9779 -1.7379
  195MOL0     H26297   3.777   8.249   1.332  0.8081 -0.4926 -1.0368
  195MOL0     H26298   3.920   8.166   1.253  2.4509  1.9484 -3.2894
  195MOL0     H26299   3.865   8.383   1.147  0.7215  0.7609 -0.3472
  195MOL0     H26300   3.893   8.469   1.292 -0.0447  1.5322 -1.3721
  195MOL0     H26301   4.112   8.285   1.200  2.6170  0.7687 -1.4959
  195MOL0     H26302   4.134   8.450   1.262 -1.5186  0.2743  1.9517
  195MOL0     H26303   4.218   8.463   1.033 -0.2401  0.6834 -0.0096
  195MOL0     H26304   4.063   8.379   0.985 -1.2935  0.0395 -0.6374
  195MOL0     H26305   4.366   8.282   1.803  0.2544 -1.8629  1.6249
  195MOL0     H26306   4.583   8.285   1.684 -0.9302 -0.4596  2.1700
  195MOL0     H26307   5.036   8.286   1.549 -1.0217  1.5600  1.0065
  195MOL0     H26308   5.185   8.370   1.405 -0.2560  2.1455 -1.2701
  195MOL0     H26309   5.701   9.551  -0.059 -1.6174 -2.1853  1.6633
  195MOL0     H26310   5.933   9.670  -0.079  1.8549  1.9044  3.7693
  195MOL0     H26311   6.383   9.626   0.021  1.0637  0.7615  0.2747
  195MOL0     H26312   6.580   9.680  -0.054 -1.9465 -3.0907 -3.5071
  195MOL0     H26313   6.666  10.099  -0.098 -0.8539 -1.1732  0.3464
  195MOL0     H26314   6.668  10.091  -0.262 -0.0522  0.2649  0.2998
  195MOL0     H26315   6.874  10.165  -0.157 -3.1112  2.1239 -7.1932
  195MOL0     H26316   6.907  10.023  -0.264 -0.4098 -0.5175 -0.4042
  195MOL0     H26317   6.909   9.873  -0.078 -0.5889  0.0446  0.7879
  195MOL0     H26318   6.874   9.978   0.049 -3.5971 -1.1904 -2.2846
  195MOL0     H26319   7.133  10.020  -0.113  0.5837  1.5947  1.1104
  195MOL0     H26320   7.070  10.119   0.024 -0.5169  0.4282  0.5233
  195MOL0     H26321   7.268   9.775   0.181 -3.4897 -2.5422  0.9826
  195MOL0     H26322   6.462  10.071  -0.158  0.2331  0.9537  0.3559
  195MOL0     H26323   6.260  10.151  -0.122 -0.4185  0.8625  0.6812
  195MOL0     H26324   6.147  10.039  -0.190 -1.5008 -1.4180  1.1945
  195MOL0     H26325   6.140  10.082  -0.018 -1.0801 -1.5402  0.1582
  196MOL0     O26326  10.992   9.993  10.490  0.2852  0.1899 -0.0542
  196MOL0     C26327  11.015  10.119  10.483 -0.4488 -0.9301  0.5015
  196MOL0     O26328  10.929  10.220  10.471  0.3422 -0.2103 -0.4125
  196MOL0     C26329  10.830  10.233  10.565 -0.1598  0.7649 -0.6015
  196MOL0     C26330  10.816  10.149  10.675  0.5563  0.5468  0.1924
  196MOL0     C26331  10.717  10.158  10.774  0.3406 -0.0916  1.0369
  196MOL0     C26332  10.625  10.264  10.761  0.2279 -0.0394 -0.6475
  196MOL0     O26333  10.519  10.261  10.848  0.3085 -0.5489  0.5187
  196MOL0     C26334  10.395  10.309  10.785 -0.5772  0.6405 -0.2608
  196MOL0     C26335  10.294  10.254  10.885 -0.4170 -0.6708 -1.6155
  196MOL0     C26336  10.153  10.308  10.850 -0.5537  0.1386  0.2959
  196MOL0     C26337  10.137  10.462  10.883  0.3411  0.5909 -0.3076
  196MOL0     C26338   9.991  10.493  10.913  0.3803  0.0172  0.2356
  196MOL0     C26339   9.904  10.492  10.787  0.2467 -0.4198 -1.1384
  196MOL0     C26340   9.905  10.621  10.703  0.7676 -0.3285  0.5633
  196MOL0     C26341  10.009  10.607  10.584  0.0115 -0.0845  0.3689
  196MOL0     N26342   9.999  10.491  10.506 -0.3689  0.1677  0.3885
  196MOL0     C26343   9.884  10.451  10.442 -0.3305  0.8834  0.1343
  196MOL0     C26344   9.910  10.333  10.392 -0.3974  0.4136  0.0910
  196MOL0     C26345   9.817  10.248  10.299 -0.3078 -0.9740 -0.3826
  196MOL0     C26346   9.884  10.174  10.185  0.3115 -0.2822 -0.5733
  196MOL0     C26347   9.882  10.255  10.061 -0.5504 -0.9962 -0.4009
  196MOL0     C26348   9.749  10.267   9.984  0.2616  0.2992 -1.3264
  196MOL0     O26349   9.750  10.403   9.939 -0.2543  0.1664 -0.4303
  196MOL0     C26350   9.678  10.442   9.825  0.1540 -0.3564  0.5195
  196MOL0     C26351   9.692  10.575   9.763 -0.2581  0.5090 -0.1768
  196MOL0     C26352   9.618  10.619   9.650 -0.2221  0.1453 -0.6049
  196MOL0     C26353   9.529  10.529   9.588  1.0924  0.1817  0.7300
  196MOL0     C26354   9.432  10.577   9.485  0.1188 -0.2836 -1.0822
  196MOL0     O26355   9.449  10.700   9.424 -0.1142  0.4269 -0.2697
  196MOL0     C26356   9.387  10.733   9.308 -0.6268  0.6632  0.6978
  196MOL0     C26357   9.381  10.871   9.273 -0.1646  0.6536  0.7314
  196MOL0     C26358   9.320  10.915   9.161 -0.1295  0.3267 -0.4409
  196MOL0     C26359   9.262  10.826   9.066 -0.3434  0.8086  0.2932
  196MOL0     O26360   9.209  10.864   8.946 -0.0682 -0.0488  0.0686
  196MOL0     C26361   9.230  10.998   8.906  0.9810 -0.2809  0.6486
  196MOL0     C26362   9.204  11.011   8.756 -0.2411 -0.9862  0.3375
  196MOL0     C26363   9.185  11.156   8.698 -0.2884  0.4901 -0.8602
  196MOL0     C26364   9.184  11.162   8.553  0.9823 -0.2456  0.0762
  196MOL0     C26365   9.170  11.300   8.493 -0.1202 -0.7181 -0.3133
  196MOL0     C26366   9.075  11.393   8.567  0.0961 -0.2219  0.3575
  196MOL0     C26367   9.063  11.534   8.509  0.5230  0.0295 -0.6945
  196MOL0     C26368   9.162  11.620   8.581 -0.0685 -0.4498  0.4235
  196MOL0    Cl26369   9.319  11.597   8.505 -0.1650 -0.6402 -0.2290
  196MOL0     C26370   9.272  10.688   9.098  0.7307 -0.3657  0.0001
  196MOL0     C26371   9.329  10.646   9.219 -0.2326  0.4445  0.6684
  196MOL0     O26372   9.335  10.503   9.473 -0.3849  0.5217 -0.6356
  196MOL0     C26373   9.516  10.400   9.648 -0.0620 -0.2380 -0.3201
  196MOL0     C26374   9.590  10.354   9.762 -0.0960  0.6893 -0.0469
  196MOL0     N26375  10.043  10.294  10.422  0.8237 -0.4791 -0.1774
  196MOL0     N26376  10.098  10.397  10.479 -0.3063  0.0711 -0.6254
  196MOL0     C26377  10.631  10.346  10.651 -0.8429  0.2022  0.3393
  196MOL0     C26378  10.736  10.333  10.558 -0.6689  0.6705 -0.0567
  196MOL0     C26379  11.156  10.161  10.450 -0.3258  0.0599  0.0056
  196MOL0     C26380  11.211  10.275  10.511  0.6100  0.7796  0.1159
  196MOL0     C26381  11.334  10.331  10.479 -0.2638  0.8221 -0.4005
  196MOL0     C26382  11.413  10.267  10.390  0.1327 -0.1906 -0.1411
  196MOL0     O26383  11.529  10.328  10.384 -0.1259 -0.2763  0.0939
  196MOL0     C26384  11.642  10.252  10.330  0.7793  0.1743  0.6823
  196MOL0     C26385  11.777  10.327  10.311 -0.7750  0.3482  1.1854
  196MOL0     C26386  11.846  10.290  10.177  0.0913 -0.4124  0.0836
  196MOL0     C26387  11.941  10.404  10.123  0.4339 -0.6326  0.0640
  196MOL0     C26388  11.986  10.377   9.984 -0.0315  0.4651  0.4684
  196MOL0     C26389  12.043  10.357   9.878 -0.0510  0.4515  0.7755
  196MOL0     C26390  11.370  10.144  10.331  0.0817  0.4786 -0.3060
  196MOL0     C26391  11.247  10.094  10.360 -0.0695  0.7423 -0.2748
  196MOL0     C26392  11.215   9.955  10.314  0.3649 -0.4751  0.3008
  196MOL0     H26393  10.875  10.063  10.706  0.5365  0.7604  0.8243
  196MOL0     H26394  10.702  10.080  10.848  0.9300 -1.6736 -0.4523
  196MOL0     H26395  10.384  10.414  10.757 -3.9483  1.2853  2.8396
  196MOL0     H26396  10.381  10.253  10.692  3.6827 -1.1661 -0.0554
  196MOL0     H26397  10.305  10.281  10.991 -2.7154  0.1603 -1.5249
  196MOL0     H26398  10.293  10.144  10.882  2.2678 -0.9999  2.2524
  196MOL0     H26399  10.072  10.249  10.894  0.4688 -1.7592 -0.2680
  196MOL0     H26400  10.130  10.290  10.745  0.3765  0.2683  0.0659
  196MOL0     H26401  10.196  10.505  10.965  0.8738 -0.2502 -0.2426
  196MOL0     H26402  10.180  10.528  10.807 -0.4697  2.5451  0.8430
  196MOL0     H26403   9.954  10.414  10.979 -1.0874  1.4267  1.1976
  196MOL0     H26404   9.987  10.593  10.958  1.2054  0.5941 -0.9124
  196MOL0     H26405   9.920  10.411  10.715 -0.6279  1.2191 -3.2984
  196MOL0     H26406   9.801  10.481  10.823  0.1127  0.5027 -1.2058
  196MOL0     H26407   9.936  10.707  10.764  1.2976  0.8536 -1.2918
  196MOL0     H26408   9.806  10.647  10.664  1.7205 -0.9070 -2.4437
  196MOL0     H26409  10.008  10.695  10.520  0.1711 -1.9890 -2.4456
  196MOL0     H26410  10.108  10.606  10.630 -0.7702  1.1856  2.1887
  196MOL0     H26411   9.798  10.511  10.415 -1.6318  0.2177  2.4494
  196MOL0     H26412   9.769  10.169  10.359 -3.0701  0.5944 -0.3407
  196MOL0     H26413   9.725  10.300  10.270  0.4728  1.6350  1.5090
  196MOL0     H26414   9.990  10.160  10.210  1.4087  3.3573 -2.4623
  196MOL0     H26415   9.836  10.078  10.166 -1.2286  0.5388 -1.0256
  196MOL0     H26416   9.969  10.234   9.999 -0.8443  3.1823 -2.5707
  196MOL0     H26417   9.892  10.360  10.091 -0.0800 -1.5751  1.6700
  196MOL0     H26418   9.657  10.239  10.036  0.6584  0.9956 -0.2120
  196MOL0     H26419   9.757  10.199   9.899 -0.0788 -2.6420  0.8647
  196MOL0     H26420   9.750  10.652   9.813 -2.2269  1.1432  1.2988
  196MOL0     H26421   9.628  10.725   9.629 -0.5999  0.1626 -0.7074
  196MOL0     H26422   9.424  10.944   9.341  1.2916  0.4657  0.0424
  196MOL0     H26423   9.328  11.021   9.138 -2.0385  0.4705 -0.6419
  196MOL0     H26424   9.175  11.077   8.958 -2.3822 -0.5711 -2.0515
  196MOL0     H26425   9.335  11.023   8.919  0.6782  0.7888  1.1399
  196MOL0     H26426   9.280  10.952   8.705 -0.6626 -2.3407  1.2288
  196MOL0     H26427   9.106  10.963   8.741 -0.1182 -1.1125 -0.0711
  196MOL0     H26428   9.089  11.199   8.729 -2.1942  0.0454 -5.2734
  196MOL0     H26429   9.270  11.211   8.737 -0.4533  0.9469 -1.1357
  196MOL0     H26430   9.104  11.093   8.525 -0.1768  0.9836  0.2650
  196MOL0     H26431   9.275  11.116   8.512  0.6223 -0.1170 -0.8823
  196MOL0     H26432   9.155  11.292   8.385 -1.2252  0.5492 -0.2726
  196MOL0     H26433   9.269  11.346   8.489 -1.4622  2.4406 -4.5169
  196MOL0     H26434   8.979  11.341   8.558  1.1986 -1.9854 -2.7286
  196MOL0     H26435   9.105  11.395   8.672 -1.1919 -1.0460  0.7640
  196MOL0     H26436   8.962  11.567   8.535 -1.0118 -4.9623  0.7921
  196MOL0     H26437   9.067  11.531   8.400 -1.7799 -0.4131 -0.8205
  196MOL0     H26438   9.127  11.721   8.558  0.6183 -0.6432 -1.7090
  196MOL0     H26439   9.157  11.601   8.688 -2.2084  3.5108  1.2388
  196MOL0     H26440   9.232  10.602   9.045 -1.0808 -2.5891  4.4894
  196MOL0     H26441   9.348  10.540   9.232  4.5759  0.6678 -2.2598
  196MOL0     H26442   9.437  10.338   9.606  1.4404 -2.8253  0.4593
  196MOL0     H26443   9.589  10.250   9.794  4.1191  0.5078  0.0028
  196MOL0     H26444  10.565  10.430  10.630  2.2688  1.9838 -3.7319
  196MOL0     H26445  10.732  10.395  10.469 -1.5906 -0.5757 -0.9320
  196MOL0     H26446  11.151  10.325  10.587 -3.6313  0.0028 -2.3769
  196MOL0     H26447  11.377  10.417  10.529  3.5995 -0.3109 -1.4450
  196MOL0     H26448  11.613  10.220  10.230 -0.8586  2.8047  0.2240
  196MOL0     H26449  11.666  10.165  10.392 -0.0227  1.2208  2.5481
  196MOL0     H26450  11.842  10.291  10.391  0.7361 -0.0589 -0.1657
  196MOL0     H26451  11.755  10.434  10.308  2.7714  1.2133 -1.2606
  196MOL0     H26452  11.768  10.273  10.103  0.0702 -3.0399  0.6013
  196MOL0     H26453  11.896  10.194  10.194 -1.1214 -0.9838  0.5552
  196MOL0     H26454  11.900  10.505  10.117  1.3992 -0.3060 -1.6515
  196MOL0     H26455  12.023  10.413  10.195 -2.2290 -0.0569  3.2705
  196MOL0     H26456  12.090  10.333   9.784 -0.5770 -2.3481  1.1455
  196MOL0     H26457  11.450  10.100  10.272  1.7035  1.4882  1.0444
  196MOL0     H26458  11.277   9.933  10.226  0.4743  0.0185  0.2506
  196MOL0     H26459  11.237   9.884  10.394 -1.0053 -1.0834  0.1519
  196MOL0     H26460  11.107   9.956  10.299  0.0307 -2.5055  2.1050
  197MOL0     O26461   0.724  11.025   0.863  0.6376  0.1413  0.1952
  197MOL0     C26462   0.774  10.916   0.886 -0.3949 -0.5325  0.0491
  197MOL0     O26463   0.807  10.873   1.005 -0.2125  0.3112  0.2118
  197MOL0     C26464   0.784  10.936   1.119 -0.3528  0.1739 -1.0107
  197MOL0     C26465   0.678  11.026   1.143 -0.1574  0.4800 -0.6269
  197MOL0     C26466   0.663  11.094   1.264 -0.1678 -1.9240  0.6246
  197MOL0     C26467   0.754  11.076   1.363 -0.5032 -0.3179 -0.5576
  197MOL0     O26468   0.739  11.157   1.477  0.9264 -0.0368 -0.9795
  197MOL0     C26469   0.839  11.169   1.578  1.0370  0.0210 -0.2025
  197MOL0     C26470   0.803  11.291   1.663 -0.5786  0.3634 -1.0279
  197MOL0     C26471   0.675  11.267   1.746 -0.4086  0.0814 -0.1554
  197MOL0     C26472   0.656  11.364   1.867 -0.2939  0.1283  1.5450
  197MOL0     C26473   0.545  11.313   1.955  0.3157 -0.6386  1.3731
  197MOL0     C26474   0.404  11.312   1.895  1.3132 -0.2634  0.3686
  197MOL0     C26475   0.343  11.453   1.872 -0.2883  0.4575 -0.1692
  197MOL0     C26476   0.191  11.450   1.873  0.0461 -0.5551  0.2884
  197MOL0     N26477   0.143  11.491   2.008 -0.3825  0.6623  0.2333
  197MOL0     C26478   0.135  11.623   2.058  0.5554 -0.4879  0.7251
  197MOL0     C26479   0.063  11.608   2.167  0.1167 -0.5373  0.2618
  197MOL0     C26480   0.027  11.725   2.259 -0.7629 -0.1665  0.4652
  197MOL0     C26481   0.158  11.768   2.327  0.2693 -0.2018 -1.0932
  197MOL0     C26482   0.131  11.876   2.430  0.8847 -0.5743  0.3874
  197MOL0     C26483   0.259  11.914   2.503 -0.0622  0.1069 -0.3287
  197MOL0     O26484   0.226  12.011   2.604  0.0317 -0.3686 -1.2723
  197MOL0     C26485   0.329  12.090   2.643 -0.2183  0.9235 -0.1658
  197MOL0     C26486   0.451  12.028   2.676 -0.5954 -0.4583 -0.2808
  197MOL0     C26487   0.554  12.097   2.729 -0.8055  0.1573 -0.3333
  197MOL0     C26488   0.538  12.230   2.764 -0.3331 -0.1481 -0.6211
  197MOL0     C26489   0.643  12.302   2.841  0.5274 -0.7956  0.3364
  197MOL0     O26490   0.606  12.417   2.887  0.3500 -0.0982  0.2570
  197MOL0     C26491   0.697  12.492   2.959 -1.1800 -0.1405 -0.7911
  197MOL0     C26492   0.663  12.557   3.075  0.6565  0.2084  0.4889
  197MOL0     C26493   0.756  12.634   3.146 -0.7143  0.0918  0.0590
  197MOL0     C26494   0.882  12.648   3.091 -0.3560 -0.3654 -0.6899
  197MOL0     O26495   0.970  12.723   3.177 -0.8621 -0.3260  0.1306
  197MOL0     C26496   1.018  12.849   3.108  0.9678  0.9820  0.0806
  197MOL0     C26497   0.940  12.974   3.140  0.0702  0.1540 -0.5913
  197MOL0     C26498   0.955  13.035   3.283  0.3402  0.3723  0.2290
  197MOL0     C26499   1.095  13.007   3.351  0.4109  0.2986 -0.8441
  197MOL0     C26500   1.223  13.080   3.296  0.6105 -0.3812 -0.3735
  197MOL0     C26501   1.187  13.217   3.225 -0.5114  0.2108  0.2487
  197MOL0     C26502   1.315  13.292   3.170  0.9921 -0.0547 -0.7799
  197MOL0     C26503   1.289  13.385   3.045  0.5598 -0.6399  0.2731
  197MOL0    Cl26504   1.286  13.568   3.082  0.3225 -0.0816 -0.0521
  197MOL0     C26505   0.931  12.589   2.973  0.3065 -0.3092  0.0426
  197MOL0     C26506   0.830  12.517   2.909 -0.2582 -0.8617  0.2569
  197MOL0     O26507   0.749  12.247   2.866  0.4236 -0.4788  0.4616
  197MOL0     C26508   0.414  12.292   2.735 -0.1485  0.3228 -0.2324
  197MOL0     C26509   0.319  12.225   2.655  0.4070  0.1552 -0.9813
  197MOL0     N26510   0.034  11.469   2.186 -0.3626 -0.4160 -0.3785
  197MOL0     N26511   0.089  11.400   2.090  0.3091  0.6221  0.3130
  197MOL0     C26512   0.852  10.971   1.348  0.8251 -0.9358 -0.2814
  197MOL0     C26513   0.860  10.904   1.230 -0.3429  0.3859  0.4648
  197MOL0     C26514   0.806  10.831   0.778 -0.5172  0.4257 -0.5475
  197MOL0     C26515   0.706  10.805   0.672 -0.0075 -0.7681  0.1637
  197MOL0     C26516   0.734  10.730   0.560  0.5393  0.4662 -0.1541
  197MOL0     C26517   0.858  10.684   0.532 -0.3111 -0.9950 -0.1401
  197MOL0     O26518   0.870  10.620   0.413  0.4048 -0.2265  0.4820
  197MOL0     C26519   0.999  10.556   0.377  0.0833  0.4012  0.2288
  197MOL0     C26520   1.003  10.465   0.263  0.3290 -0.3104  0.1554
  197MOL0     C26521   1.148  10.426   0.229 -1.2219  0.3928 -0.5617
  197MOL0     C26522   1.219  10.340   0.338 -0.3588  0.4828 -0.6470
  197MOL0     C26523   1.145  10.216   0.358  0.7213  0.6654  0.1253
  197MOL0     C26524   1.098  10.103   0.368  0.8789  0.7589 -0.0324
  197MOL0     C26525   0.954  10.708   0.623  0.4208 -0.9541  0.5419
  197MOL0     C26526   0.929  10.775   0.746  0.4046 -0.1597  0.4246
  197MOL0     C26527   1.048  10.785   0.828  0.3116 -1.0322  0.1328
  197MOL0     H26528   0.606  11.052   1.066 -2.6030 -0.9150  1.0640
  197MOL0     H26529   0.587  11.162   1.299  1.2678 -1.0617  2.1924
  197MOL0     H26530   0.817  11.088   1.648 -3.1588 -0.3293 -1.6916
  197MOL0     H26531   0.940  11.152   1.539  1.2684  1.0469 -0.0786
  197MOL0     H26532   0.801  11.375   1.593  0.1248  1.4632  0.2354
  197MOL0     H26533   0.882  11.313   1.735 -0.2523 -0.6735 -1.0488
  197MOL0     H26534   0.688  11.164   1.780 -0.6244  0.3742  0.8552
  197MOL0     H26535   0.580  11.277   1.692 -1.3803  1.4153  1.6928
  197MOL0     H26536   0.749  11.364   1.925  1.6671 -0.9406 -1.3448
  197MOL0     H26537   0.630  11.465   1.834 -0.0605 -0.5533 -0.9143
  197MOL0     H26538   0.586  11.218   1.991  1.2739 -1.7648 -2.2953
  197MOL0     H26539   0.536  11.381   2.040  1.7629 -1.0119  1.8440
  197MOL0     H26540   0.405  11.252   1.803  0.1970 -3.0392  2.0625
  197MOL0     H26541   0.336  11.258   1.961 -2.4440  0.7445 -2.3005
  197MOL0     H26542   0.375  11.495   1.776  0.5278  0.6686  0.1871
  197MOL0     H26543   0.386  11.523   1.944  0.4016 -1.2968  1.1998
  197MOL0     H26544   0.142  11.520   1.805 -1.6537  0.5859  2.5410
  197MOL0     H26545   0.146  11.355   1.842  0.6413 -1.4763  2.0750
  197MOL0     H26546   0.181  11.720   2.041  0.8763 -0.6585  0.6074
  197MOL0     H26547   0.001  11.808   2.194  1.1604  1.2554  1.3873
  197MOL0     H26548  -0.057  11.704   2.325 -2.3103  2.7023 -0.4459
  197MOL0     H26549   0.202  11.678   2.370  2.1831  0.6400 -1.1490
  197MOL0     H26550   0.226  11.809   2.251 -1.2574  1.5374 -1.6006
  197MOL0     H26551   0.068  11.838   2.511 -0.5234  1.0611  0.1002
  197MOL0     H26552   0.097  11.975   2.399  2.8664 -0.1087 -0.4469
  197MOL0     H26553   0.333  11.952   2.431  0.9352  0.8844  1.0671
  197MOL0     H26554   0.310  11.826   2.543 -1.4741  1.1752  4.4006
  197MOL0     H26555   0.469  11.921   2.676 -0.7301 -0.5075  1.6556
  197MOL0     H26556   0.654  12.063   2.754 -0.0528  2.1941 -0.4020
  197MOL0     H26557   0.568  12.544   3.125 -0.1201 -1.9388 -1.3806
  197MOL0     H26558   0.731  12.666   3.247  2.1413  0.4190  0.7430
  197MOL0     H26559   1.121  12.864   3.142  0.9965  3.2762 -0.8341
  197MOL0     H26560   1.027  12.828   3.001  1.5613 -3.1065  0.7902
  197MOL0     H26561   0.985  13.044   3.069  2.3570 -1.8855 -1.2840
  197MOL0     H26562   0.835  12.951   3.123 -0.9035  1.7751  2.5198
  197MOL0     H26563   0.931  13.141   3.269 -3.5888 -0.5784 -1.5719
  197MOL0     H26564   0.877  13.000   3.351  1.2087 -0.4942  0.8057
  197MOL0     H26565   1.112  12.899   3.355  2.7876  0.6601  1.3197
  197MOL0     H26566   1.084  13.041   3.454  0.2178 -3.2903  0.4692
  197MOL0     H26567   1.277  13.017   3.225  1.0705 -1.2913  0.7512
  197MOL0     H26568   1.300  13.083   3.374  0.2119 -1.5388  0.0774
  197MOL0     H26569   1.120  13.188   3.143 -1.6426 -3.4598  2.2573
  197MOL0     H26570   1.141  13.281   3.301 -1.6121  1.2266 -1.2051
  197MOL0     H26571   1.389  13.217   3.143  0.7118 -0.4003 -0.5976
  197MOL0     H26572   1.373  13.351   3.243 -0.7974 -0.7194  1.3093
  197MOL0     H26573   1.365  13.351   2.974 -2.4741 -2.8721 -2.2323
  197MOL0     H26574   1.190  13.354   3.008 -0.6036  1.1880  1.6777
  197MOL0     H26575   1.033  12.607   2.941  1.0200 -1.2884  1.6033
  197MOL0     H26576   0.851  12.487   2.807  1.0134  1.9164 -0.4067
  197MOL0     H26577   0.407  12.399   2.753  2.2141  0.4466  0.3041
  197MOL0     H26578   0.232  12.267   2.606 -0.5492 -2.5663 -1.8066
  197MOL0     H26579   0.935  10.945   1.414  1.8113 -1.0928 -1.5542
  197MOL0     H26580   0.919  10.813   1.226 -2.0030 -0.6658 -1.0565
  197MOL0     H26581   0.609  10.851   0.688  0.6833  0.6240  0.5036
  197MOL0     H26582   0.657  10.707   0.487 -1.1519  3.2636  0.5888
  197MOL0     H26583   1.043  10.510   0.466 -0.8828  2.9683  2.1493
  197MOL0     H26584   1.066  10.639   0.352 -1.6454  1.8809  0.3234
  197MOL0     H26585   0.951  10.514   0.181 -1.7961 -1.1476  0.8992
  197MOL0     H26586   0.939  10.377   0.280 -0.9171  0.9331  2.3711
  197MOL0     H26587   1.213  10.514   0.222 -3.6741  2.2478 -1.7516
  197MOL0     H26588   1.145  10.370   0.135 -0.5154 -0.7488  0.0699
  197MOL0     H26589   1.320  10.320   0.301  0.5834 -0.4846  2.1571
  197MOL0     H26590   1.233  10.395   0.432  0.6882  1.4552 -1.3564
  197MOL0     H26591   1.053  10.006   0.381 -1.1234  1.5897 -0.4199
  197MOL0     H26592   1.053  10.670   0.598  1.2261  2.9656 -3.5780
  197MOL0     H26593   1.027  10.784   0.935  0.9266  0.7710  0.2981
  197MOL0     H26594   1.112  10.700   0.802  1.0609  0.0805 -1.9100
  197MOL0     H26595   1.090  10.882   0.801 -2.3155  1.1017  2.9283
  198MOL0     O26596   0.174   4.212   5.196 -0.4806 -0.7432  0.0060
  198MOL0     C26597   0.171   4.279   5.302 -0.2252 -0.5660 -0.2578
  198MOL0     O26598   0.235   4.245   5.429 -0.3704  0.5876  0.2951
  198MOL0     C26599   0.296   4.122   5.435  0.2472 -0.1420 -0.3200
  198MOL0     C26600   0.413   4.113   5.510  1.1546 -0.0280  0.0638
  198MOL0     C26601   0.502   4.001   5.502  0.0586 -0.1453 -0.6111
  198MOL0     C26602   0.462   3.887   5.437  0.2354  0.2230 -0.9057
  198MOL0     O26603   0.530   3.767   5.449 -0.2541 -0.1807  0.0063
  198MOL0     C26604   0.659   3.757   5.509  0.0720  0.5883 -0.3273
  198MOL0     C26605   0.706   3.620   5.470 -0.4068  1.0862 -0.1489
  198MOL0     C26606   0.847   3.577   5.504  0.1142  0.1942  1.0646
  198MOL0     C26607   0.945   3.671   5.437 -0.7341 -0.1061  0.3207
  198MOL0     C26608   1.098   3.619   5.452 -0.1816 -0.1989  0.1642
  198MOL0     C26609   1.154   3.618   5.604 -0.1759 -0.1807  0.5236
  198MOL0     C26610   1.298   3.567   5.611  0.8028 -0.3500  0.6424
  198MOL0     C26611   1.396   3.660   5.541 -0.3072 -0.9099 -0.3237
  198MOL0     N26612   1.382   3.802   5.573 -0.1918  0.7737 -0.2986
  198MOL0     C26613   1.344   3.859   5.698 -0.8394  0.5014 -0.0904
  198MOL0     C26614   1.330   3.989   5.656 -1.2025  1.2442 -0.4801
  198MOL0     C26615   1.288   4.095   5.744  0.3727  0.0886 -0.2532
  198MOL0     C26616   1.350   4.096   5.881  0.6677  0.6934  0.6761
  198MOL0     C26617   1.290   4.192   5.985  0.1071  0.3651 -0.3223
  198MOL0     C26618   1.332   4.325   5.944  0.5022 -0.0336 -0.9228
  198MOL0     O26619   1.260   4.420   6.027 -0.0302 -0.8949  0.1882
  198MOL0     C26620   1.306   4.554   6.017 -0.2944  0.1672 -0.8969
  198MOL0     C26621   1.255   4.653   6.108  0.1931 -0.1607  0.6220
  198MOL0     C26622   1.304   4.786   6.109 -0.1528  0.1852 -0.8541
  198MOL0     C26623   1.400   4.829   6.021 -1.0381 -0.3168 -0.4484
  198MOL0     C26624   1.451   4.972   6.027  0.7017 -0.3529  1.0551
  198MOL0     O26625   1.509   5.024   5.922 -0.0580  0.2772 -0.9613
  198MOL0     C26626   1.590   5.139   5.926  0.4586 -0.2135 -1.0136
  198MOL0     C26627   1.645   5.199   6.037 -0.8829  0.2498  0.0154
  198MOL0     C26628   1.714   5.321   6.022  0.4245  0.4395  0.6865
  198MOL0     C26629   1.743   5.375   5.895 -0.0651 -0.0005  0.0273
  198MOL0     O26630   1.844   5.483   5.887 -0.0756  0.9140 -0.0867
  198MOL0     C26631   1.848   5.576   5.998 -0.1160  0.2391 -0.0585
  198MOL0     C26632   1.974   5.549   6.079 -0.1995 -0.1103  0.3672
  198MOL0     C26633   1.995   5.665   6.185  0.2183 -0.6975  0.5124
  198MOL0     C26634   1.874   5.674   6.289 -0.8237 -0.4813 -0.0487
  198MOL0     C26635   1.922   5.776   6.400 -0.3614  0.4901  0.5468
  198MOL0     C26636   1.835   5.769   6.529 -0.2540  0.6261 -0.4249
  198MOL0     C26637   1.694   5.815   6.502 -0.5690 -0.0420 -0.1915
  198MOL0     C26638   1.673   5.965   6.438  0.3563  0.8792  1.6373
  198MOL0    Cl26639   1.761   6.081   6.525 -0.0183  0.7582  0.1895
  198MOL0     C26640   1.682   5.314   5.783  0.3946 -0.0674  0.4196
  198MOL0     C26641   1.613   5.193   5.805 -0.1143 -0.1827 -0.3817
  198MOL0     O26642   1.428   5.035   6.133 -0.2628  0.5473 -0.1635
  198MOL0     C26643   1.453   4.733   5.936  0.5775  0.0981  0.4444
  198MOL0     C26644   1.398   4.604   5.930  0.0566  0.1695  0.3289
  198MOL0     N26645   1.349   4.005   5.524 -0.4284  0.6123 -0.8879
  198MOL0     N26646   1.396   3.893   5.478 -0.4570 -0.3380 -0.1066
  198MOL0     C26647   0.340   3.889   5.371 -0.6117 -0.3226 -0.1544
  198MOL0     C26648   0.263   4.009   5.356 -0.3865  0.0280  0.0610
  198MOL0     C26649   0.098   4.411   5.303  0.0042  0.1035  0.1026
  198MOL0     C26650   0.039   4.451   5.424  0.4067 -0.1749 -0.4240
  198MOL0     C26651  -0.019   4.573   5.428  0.1303 -1.0884  0.3876
  198MOL0     C26652  -0.028   4.661   5.313  0.7005  0.1081  0.1007
  198MOL0     O26653  -0.087   4.782   5.331  0.5631 -0.7966  0.0615
  198MOL0     C26654  -0.174   4.823   5.223 -0.5491  0.0029  0.4549
  198MOL0     C26655  -0.247   4.943   5.277 -0.2255 -0.7231 -0.5248
  198MOL0     C26656  -0.164   5.046   5.341  0.4351  0.7334 -0.0582
  198MOL0     C26657  -0.228   5.177   5.365  0.1139  0.1395  0.1629
  198MOL0     C26658  -0.359   5.154   5.431 -1.2180  0.4604  0.2891
  198MOL0     C26659  -0.471   5.128   5.463  1.0479  0.8525  0.5412
  198MOL0     C26660   0.017   4.607   5.188 -0.2284 -0.2652  0.0525
  198MOL0     C26661   0.079   4.489   5.179 -0.7132  0.0874 -1.0567
  198MOL0     C26662   0.140   4.462   5.044 -0.5036  0.3613 -0.2890
  198MOL0     H26663   0.434   4.192   5.582 -1.2671  1.9257 -1.1722
  198MOL0     H26664   0.588   3.994   5.568  0.2281 -1.0751 -0.9075
  198MOL0     H26665   0.721   3.839   5.472 -0.3552  0.8866 -0.3923
  198MOL0     H26666   0.656   3.766   5.618  0.9830  0.0744 -0.2446
  198MOL0     H26667   0.697   3.609   5.361  2.2684  0.5356 -0.3661
  198MOL0     H26668   0.645   3.541   5.515  3.2269 -3.2319 -2.0612
  198MOL0     H26669   0.873   3.478   5.465  2.9564  1.8527 -1.6400
  198MOL0     H26670   0.865   3.580   5.612 -1.8523 -0.0209  1.4405
  198MOL0     H26671   0.916   3.683   5.332  1.2940  5.3438  0.0646
  198MOL0     H26672   0.937   3.768   5.486  0.4816  1.6192 -2.6277
  198MOL0     H26673   1.098   3.519   5.408  1.3372 -0.0703 -0.1889
  198MOL0     H26674   1.169   3.671   5.387  2.1280  0.4875  3.0390
  198MOL0     H26675   1.150   3.720   5.643 -1.0173 -0.8424  2.2358
  198MOL0     H26676   1.081   3.568   5.668  0.1646  1.0147  1.8755
  198MOL0     H26677   1.316   3.469   5.566  0.5577  0.6750 -1.8367
  198MOL0     H26678   1.329   3.549   5.714  3.0297 -3.5499 -0.4236
  198MOL0     H26679   1.498   3.629   5.565  0.8369  1.4209 -1.9089
  198MOL0     H26680   1.384   3.644   5.434 -2.1491 -1.8018 -0.0320
  198MOL0     H26681   1.326   3.808   5.792 -2.3886  2.2415  0.6224
  198MOL0     H26682   1.292   4.185   5.682 -1.3436 -1.8540 -3.4193
  198MOL0     H26683   1.180   4.081   5.751  0.2609 -0.1368 -1.9697
  198MOL0     H26684   1.336   3.999   5.929 -0.9947  0.1696 -0.7786
  198MOL0     H26685   1.458   4.112   5.875  0.5343  1.1203 -1.5733
  198MOL0     H26686   1.337   4.176   6.083 -0.1453 -0.3047 -0.3059
  198MOL0     H26687   1.181   4.181   5.986  0.2085 -0.8521 -0.1154
  198MOL0     H26688   1.307   4.345   5.840  0.3039 -0.7880 -1.0287
  198MOL0     H26689   1.439   4.344   5.954  0.0927  1.3345  1.6331
  198MOL0     H26690   1.180   4.618   6.178 -0.9068  1.0302  0.0643
  198MOL0     H26691   1.268   4.865   6.173  1.2352 -0.3307  0.6175
  198MOL0     H26692   1.639   5.159   6.138  0.9063  1.0599  0.4836
  198MOL0     H26693   1.750   5.375   6.109 -0.5555  0.3684  1.1505
  198MOL0     H26694   1.854   5.677   5.958 -0.4330  0.4591  0.4329
  198MOL0     H26695   1.758   5.571   6.060  1.6049 -0.3809  2.5542
  198MOL0     H26696   1.967   5.448   6.121  0.7950 -0.0986  0.5983
  198MOL0     H26697   2.059   5.566   6.013  1.9878  2.0921  3.4622
  198MOL0     H26698   2.093   5.636   6.223  1.6541 -2.0037 -3.6351
  198MOL0     H26699   2.019   5.761   6.140 -0.6344 -0.8162 -0.2288
  198MOL0     H26700   1.860   5.573   6.330 -0.8190 -0.7956 -0.8036
  198MOL0     H26701   1.780   5.712   6.248 -1.9240  0.4121  3.0216
  198MOL0     H26702   1.909   5.874   6.354  1.3118  0.7889  0.6314
  198MOL0     H26703   2.030   5.772   6.418 -0.0215 -1.8668 -1.5467
  198MOL0     H26704   1.824   5.671   6.577  0.1223  1.2712  1.0275
  198MOL0     H26705   1.891   5.835   6.596  1.7532 -0.9900 -0.4092
  198MOL0     H26706   1.651   5.822   6.603 -0.2744 -1.1205  0.0192
  198MOL0     H26707   1.636   5.737   6.452  4.5828 -4.9547  0.4406
  198MOL0     H26708   1.714   5.970   6.337  0.2869 -0.9076  1.4824
  198MOL0     H26709   1.568   5.993   6.440  0.4878  1.5401  0.2999
  198MOL0     H26710   1.689   5.352   5.681 -0.2556 -0.9844  0.0162
  198MOL0     H26711   1.568   5.151   5.716 -2.4192  0.2284  0.5316
  198MOL0     H26712   1.539   4.748   5.872  0.1166 -3.2176 -1.1985
  198MOL0     H26713   1.439   4.536   5.855 -0.5552 -2.2630  2.0679
  198MOL0     H26714   0.311   3.792   5.331 -1.5705 -0.5744  1.0902
  198MOL0     H26715   0.181   4.002   5.285  0.6062 -2.2080 -0.9461
  198MOL0     H26716   0.037   4.396   5.517 -0.6785  1.6067  0.6492
  198MOL0     H26717  -0.056   4.616   5.520 -3.3684  2.3183 -2.2395
  198MOL0     H26718  -0.236   4.739   5.189 -0.3932  0.8373 -2.1546
  198MOL0     H26719  -0.108   4.860   5.144  0.7117  1.1700  1.9998
  198MOL0     H26720  -0.307   4.897   5.356 -2.1037  0.6542 -1.0833
  198MOL0     H26721  -0.311   4.983   5.198 -1.3834  1.1614  1.2802
  198MOL0     H26722  -0.091   5.072   5.264  0.4559  1.3430  0.1593
  198MOL0     H26723  -0.116   5.021   5.436 -1.6397 -1.0539  0.6125
  198MOL0     H26724  -0.161   5.247   5.416 -0.0918  0.9926 -0.6901
  198MOL0     H26725  -0.254   5.221   5.268 -1.4101  0.7477  0.8011
  198MOL0     H26726  -0.575   5.118   5.484  0.8890 -0.7701 -0.8266
  198MOL0     H26727   0.011   4.664   5.095  0.7879 -0.6242 -0.2504
  198MOL0     H26728   0.063   4.432   4.973  1.1255  2.4965 -3.1709
  198MOL0     H26729   0.189   4.549   4.999  0.6313  0.0447  0.2855
  198MOL0     H26730   0.217   4.384   5.041  0.8523  1.6795 -1.9251
  199MOL0     O26731  10.856  10.691   7.647 -1.0728  0.2707  0.1621
  199MOL0     C26732  10.742  10.732   7.672  0.0535 -0.4857  0.2396
  199MOL0     O26733  10.715  10.849   7.700  0.7554 -0.2281 -0.2616
  199MOL0     C26734  10.799  10.939   7.763  0.4458 -0.5297 -0.1986
  199MOL0     C26735  10.907  10.895   7.845 -0.0745  0.2591  0.6596
  199MOL0     C26736  10.999  10.989   7.905  0.5984  0.1127  0.0485
  199MOL0     C26737  10.969  11.122   7.896  0.8699 -0.0716 -1.1170
  199MOL0     O26738  11.045  11.206   7.973 -0.7454 -1.2154 -0.0601
  199MOL0     C26739  10.975  11.302   8.049 -0.5347  0.2670 -1.0175
  199MOL0     C26740  11.071  11.340   8.165 -0.6220  0.7599 -0.7081
  199MOL0     C26741  11.061  11.489   8.209  1.6715 -1.0702 -0.5443
  199MOL0     C26742  11.188  11.566   8.258 -1.0162 -0.1830 -0.1403
  199MOL0     C26743  11.257  11.481   8.366 -0.3645 -0.2052  0.4461
  199MOL0     C26744  11.352  11.567   8.446 -0.0272  0.4895  0.0801
  199MOL0     C26745  11.469  11.636   8.378 -0.2701  0.1900  0.7524
  199MOL0     C26746  11.551  11.730   8.468  0.1251  0.0413  0.4029
  199MOL0     N26747  11.625  11.659   8.572 -0.4977  0.6301  0.8503
  199MOL0     C26748  11.718  11.561   8.549 -0.6039 -1.0407 -0.6924
  199MOL0     C26749  11.763  11.537   8.678 -0.1576 -0.2757 -0.3621
  199MOL0     C26750  11.856  11.426   8.718  1.0503  0.7152 -0.1514
  199MOL0     C26751  11.772  11.294   8.742 -0.5762  0.5002  0.2115
  199MOL0     C26752  11.624  11.315   8.791  0.4445  0.8064  0.0912
  199MOL0     C26753  11.538  11.183   8.778 -0.7601 -0.2851  0.1869
  199MOL0     O26754  11.553  11.145   8.647 -0.8797  0.4923  0.3290
  199MOL0     C26755  11.452  11.080   8.580 -0.1646  0.5450 -0.0573
  199MOL0     C26756  11.409  11.126   8.453 -0.1376 -0.3001 -0.4362
  199MOL0     C26757  11.314  11.052   8.376 -0.6237 -0.5285  0.7737
  199MOL0     C26758  11.260  10.932   8.428  0.2684  0.0312 -0.5575
  199MOL0     C26759  11.140  10.870   8.371 -0.3318 -1.7039  0.5726
  199MOL0     O26760  11.079  10.764   8.438  0.0668 -0.3117 -0.1392
  199MOL0     C26761  10.996  10.676   8.372  0.1557  0.0657 -0.7912
  199MOL0     C26762  10.892  10.628   8.441 -1.0065  0.3377 -0.5150
  199MOL0     C26763  10.805  10.530   8.404 -0.8136 -0.5481 -1.1187
  199MOL0     C26764  10.816  10.488   8.273  0.9566 -0.2864  0.0573
  199MOL0     O26765  10.707  10.407   8.228  0.1499 -0.0253 -0.1412
  199MOL0     C26766  10.744  10.306   8.132 -0.0752  0.1728 -0.1770
  199MOL0     C26767  10.807  10.191   8.209 -0.7509  0.4240  0.3803
  199MOL0     C26768  10.967  10.186   8.189  0.0484 -0.7184 -0.3177
  199MOL0     C26769  11.052  10.154   8.309 -0.4061 -0.3729 -0.6252
  199MOL0     C26770  11.203  10.176   8.281 -0.9386  0.6830  0.1000
  199MOL0     C26771  11.255  10.060   8.203 -0.3597  0.2711  0.3622
  199MOL0     C26772  11.411  10.065   8.185  0.9431  0.3003  0.1784
  199MOL0     C26773  11.472  10.027   8.322 -0.3487  0.1556 -0.0634
  199MOL0    Cl26774  11.489  10.178   8.419 -0.4866  0.2447  0.2718
  199MOL0     C26775  10.914  10.543   8.189 -0.4212  0.3621  0.1454
  199MOL0     C26776  11.012  10.627   8.246 -0.5369  0.5383  0.4631
  199MOL0     O26777  11.099  10.915   8.265  0.7443 -0.6806 -0.0743
  199MOL0     C26778  11.307  10.876   8.551  0.9313 -0.2495 -1.1576
  199MOL0     C26779  11.395  10.954   8.625 -0.4026 -0.8822  0.2466
  199MOL0     N26780  11.694  11.618   8.763  0.4642  0.5682  0.5612
  199MOL0     N26781  11.612  11.690   8.701  0.1444  0.6744  0.2907
  199MOL0     C26782  10.859  11.168   7.820 -0.0817  0.7928 -0.1359
  199MOL0     C26783  10.782  11.075   7.752 -0.5664  0.3884  0.2666
  199MOL0     C26784  10.622  10.637   7.644  0.0705  0.3522 -0.4777
  199MOL0     C26785  10.496  10.696   7.630 -0.3923  0.6044 -0.9422
  199MOL0     C26786  10.395  10.609   7.597 -0.1409  0.0534 -0.7122
  199MOL0     C26787  10.405  10.484   7.553  0.4072  0.7688 -0.2044
  199MOL0     O26788  10.294  10.421   7.512 -0.4288 -0.8687  0.0198
  199MOL0     C26789  10.303  10.289   7.466 -0.0082 -0.4750 -0.4344
  199MOL0     C26790  10.361  10.276   7.324  0.3773  0.1841  0.5456
  199MOL0     C26791  10.317  10.389   7.226 -0.8237 -0.5223  1.0125
  199MOL0     C26792  10.346  10.352   7.080  0.5088  0.0882  0.1726
  199MOL0     C26793  10.260  10.240   7.033  0.2573  0.7447 -0.2246
  199MOL0     C26794  10.190  10.147   6.992  1.9475 -0.2516  0.1950
  199MOL0     C26795  10.537  10.427   7.555  1.2101  0.2449  0.7966
  199MOL0     C26796  10.644  10.493   7.615 -0.5647 -0.1840 -0.5618
  199MOL0     C26797  10.782  10.428   7.625 -0.1857  0.3908 -0.1297
  199MOL0     H26798  10.941  10.793   7.854  1.1683  0.3751 -1.7844
  199MOL0     H26799  11.082  10.952   7.966 -0.3500 -0.6100  0.9326
  199MOL0     H26800  10.952  11.388   7.985 -1.1248 -0.4636 -1.7986
  199MOL0     H26801  10.886  11.256   8.092 -0.4579  0.1414 -0.9932
  199MOL0     H26802  11.172  11.314   8.132 -1.0811 -1.3440 -0.6245
  199MOL0     H26803  11.050  11.270   8.246 -2.1770 -0.3106 -1.9658
  199MOL0     H26804  11.000  11.509   8.298  0.7755  1.9766 -1.7052
  199MOL0     H26805  11.015  11.551   8.130  1.4675  1.5121  1.4581
  199MOL0     H26806  11.255  11.587   8.174  1.3926  0.2289  1.7558
  199MOL0     H26807  11.156  11.656   8.310  0.3655  0.2238  0.0519
  199MOL0     H26808  11.184  11.437   8.434  0.8475 -1.0564  1.2338
  199MOL0     H26809  11.321  11.400   8.328 -0.7243 -1.3546  2.1891
  199MOL0     H26810  11.287  11.637   8.500  0.6105 -0.9657  2.9835
  199MOL0     H26811  11.408  11.512   8.523  2.6281  0.4647 -1.7404
  199MOL0     H26812  11.422  11.689   8.295 -1.4825 -1.2652  0.4826
  199MOL0     H26813  11.531  11.554   8.340  0.0685 -1.0806  3.7363
  199MOL0     H26814  11.624  11.786   8.410 -1.3548  1.9056  0.2276
  199MOL0     H26815  11.484  11.812   8.500 -0.7306  0.3234 -1.9585
  199MOL0     H26816  11.736  11.511   8.455 -5.3905 -2.4189 -1.1451
  199MOL0     H26817  11.939  11.410   8.648 -0.6140 -1.2542 -1.8124
  199MOL0     H26818  11.902  11.457   8.812 -1.3545  0.4958  1.1608
  199MOL0     H26819  11.772  11.242   8.646 -0.0417  2.4528 -0.9184
  199MOL0     H26820  11.829  11.235   8.814  1.1048  1.3293 -0.3865
  199MOL0     H26821  11.570  11.395   8.738  0.9960  2.8581  2.4266
  199MOL0     H26822  11.624  11.334   8.899  1.9473 -0.4552  0.3453
  199MOL0     H26823  11.431  11.197   8.797 -1.3291  0.2065 -2.7996
  199MOL0     H26824  11.584  11.113   8.848  0.4610  0.9621  0.6893
  199MOL0     H26825  11.448  11.220   8.416 -1.7686 -0.5011 -2.8573
  199MOL0     H26826  11.275  11.079   8.279  0.4440  1.9674  0.9677
  199MOL0     H26827  10.887  10.668   8.542 -1.4999  2.9954 -1.5136
  199MOL0     H26828  10.733  10.484   8.471  2.5218 -1.9849  1.7871
  199MOL0     H26829  10.650  10.279   8.084  0.2896 -1.2710 -0.1283
  199MOL0     H26830  10.799  10.341   8.044 -0.6395 -0.5867 -0.8494
  199MOL0     H26831  10.790  10.199   8.317  0.1541  0.6685  0.5157
  199MOL0     H26832  10.762  10.095   8.183 -0.9823  0.5138  0.4472
  199MOL0     H26833  10.989  10.116   8.108  1.6535 -0.5763 -0.0180
  199MOL0     H26834  11.001  10.281   8.147  2.9700 -2.4510 -2.1950
  199MOL0     H26835  11.039  10.054   8.353  0.2832 -1.3955 -2.5985
  199MOL0     H26836  11.027  10.226   8.387 -0.7665 -0.0010 -1.0783
  199MOL0     H26837  11.242  10.200   8.380 -2.3899 -1.6206  1.3203
  199MOL0     H26838  11.212  10.274   8.233 -4.5393  1.8494  1.4290
  199MOL0     H26839  11.234   9.968   8.257  2.8726 -1.7368 -1.4484
  199MOL0     H26840  11.211  10.057   8.103  3.8198 -2.4765 -1.6985
  199MOL0     H26841  11.438  10.169   8.166  0.0412  1.5118  4.5686
  199MOL0     H26842  11.445   9.990   8.112 -1.7125 -1.2021  0.3247
  199MOL0     H26843  11.416   9.947   8.373 -1.2757  0.3918 -0.6847
  199MOL0     H26844  11.564   9.972   8.300 -0.8944 -0.8693  0.1040
  199MOL0     H26845  10.917  10.521   8.083  2.2393  1.4971 -0.0986
  199MOL0     H26846  11.078  10.672   8.172  2.2096 -0.4215  2.1927
  199MOL0     H26847  11.286  10.773   8.578 -1.8604 -0.3917 -3.4730
  199MOL0     H26848  11.430  10.912   8.719  3.6598 -0.6815 -0.9658
  199MOL0     H26849  10.838  11.271   7.793 -1.1628  1.0115  1.4293
  199MOL0     H26850  10.711  11.107   7.676 -2.4507 -0.5449  1.5389
  199MOL0     H26851  10.469  10.800   7.646  5.0941  1.8815  2.8425
  199MOL0     H26852  10.301  10.663   7.600 -0.1309  0.0412  0.7775
  199MOL0     H26853  10.199  10.257   7.457  0.2206 -1.5620  0.5058
  199MOL0     H26854  10.352  10.224   7.540  0.5511 -0.0362 -0.4123
  199MOL0     H26855  10.331  10.182   7.277  3.2369  0.7752 -3.0256
  199MOL0     H26856  10.470  10.267   7.311  0.0770  0.5000 -4.0108
  199MOL0     H26857  10.364  10.484   7.252 -0.0416 -0.5484 -0.1839
  199MOL0     H26858  10.213  10.413   7.250 -0.6701 -2.0272  3.5024
  199MOL0     H26859  10.321  10.430   7.008 -1.1470 -0.6903 -0.1350
  199MOL0     H26860  10.450  10.325   7.057  0.0896  0.0599 -1.8175
  199MOL0     H26861  10.121  10.070   6.965  3.3018 -0.4993 -2.9988
  199MOL0     H26862  10.550  10.328   7.515  0.0860 -0.1673  1.4029
  199MOL0     H26863  10.840  10.446   7.533  2.0125 -0.5602  1.0013
  199MOL0     H26864  10.847  10.452   7.710 -1.8015 -0.8489  1.5327
  199MOL0     H26865  10.769  10.321   7.638  1.2520  0.5690  5.0217
  200MOL0     O26866   8.516   3.408   0.949 -0.5971  0.2483 -0.3501
  200MOL0     C26867   8.454   3.488   1.022 -1.0669 -0.0967 -0.0089
  200MOL0     O26868   8.505   3.561   1.115 -0.5714  0.2816 -0.1380
  200MOL0     C26869   8.624   3.519   1.181 -0.0612  1.3702 -1.0022
  200MOL0     C26870   8.750   3.500   1.119 -0.7518 -0.0444 -0.3863
  200MOL0     C26871   8.858   3.459   1.199  0.3151 -0.1263  0.9929
  200MOL0     C26872   8.849   3.445   1.336 -0.9065 -0.2915 -1.1479
  200MOL0     O26873   8.974   3.450   1.406  0.1900 -0.2751  0.3187
  200MOL0     C26874   8.976   3.516   1.536  0.4638 -0.2531  0.0690
  200MOL0     C26875   8.961   3.671   1.530 -0.3199  0.7567 -0.3841
  200MOL0     C26876   9.090   3.737   1.497 -0.7176  0.4001 -0.3109
  200MOL0     C26877   9.177   3.747   1.623 -0.5114 -0.6769 -0.4807
  200MOL0     C26878   9.297   3.844   1.601  0.6820  0.2473 -1.1184
  200MOL0     C26879   9.384   3.852   1.735 -0.6818 -1.1829 -0.0680
  200MOL0     C26880   9.511   3.936   1.714  0.4993  0.4074  0.7183
  200MOL0     C26881   9.575   3.979   1.846  1.2494 -0.5528 -1.0609
  200MOL0     N26882   9.698   4.062   1.831 -0.6987 -0.0605 -0.8018
  200MOL0     C26883   9.768   4.084   1.711  0.2645 -0.0206 -0.3766
  200MOL0     C26884   9.892   4.135   1.763  0.7461 -0.3637 -0.0734
  200MOL0     C26885   9.997   4.205   1.673 -0.1251  0.1621 -0.0591
  200MOL0     C26886   9.975   4.189   1.521 -0.9645  0.0721  1.1999
  200MOL0     C26887  10.016   4.046   1.463  0.7231 -0.0455 -1.0202
  200MOL0     C26888   9.965   4.035   1.317  0.0390 -0.0082 -0.3498
  200MOL0     O26889   9.958   3.896   1.286 -0.7414  0.0075 -0.2111
  200MOL0     C26890   9.866   3.810   1.334 -0.0785  0.6435  0.7275
  200MOL0     C26891   9.901   3.674   1.314 -0.1554 -0.0027  0.6875
  200MOL0     C26892   9.809   3.570   1.337 -0.5682  0.0647 -0.5889
  200MOL0     C26893   9.683   3.606   1.389  0.3769  0.9410 -0.5273
  200MOL0     C26894   9.604   3.491   1.435 -0.1670  0.3734  0.0130
  200MOL0     O26895   9.638   3.367   1.381 -0.5515 -1.1063 -0.4278
  200MOL0     C26896   9.573   3.245   1.420  0.3188  0.6255  0.7297
  200MOL0     C26897   9.591   3.136   1.338 -0.3736  0.1276 -0.2235
  200MOL0     C26898   9.548   3.010   1.370  0.5618 -0.4463 -0.5735
  200MOL0     C26899   9.472   2.989   1.488  0.0677 -0.8813 -0.4913
  200MOL0     O26900   9.449   2.865   1.536  0.5346 -0.2314 -0.1294
  200MOL0     C26901   9.434   2.749   1.448  0.3375  0.4133  0.0784
  200MOL0     C26902   9.339   2.645   1.516  0.1013  0.2563  0.4667
  200MOL0     C26903   9.400   2.543   1.614  0.6562  0.1939  0.3831
  200MOL0     C26904   9.305   2.421   1.627  0.2129 -0.3046 -0.5999
  200MOL0     C26905   9.342   2.333   1.751  0.7284 -0.2372 -0.1767
  200MOL0     C26906   9.249   2.213   1.738  0.0765 -0.6696  0.2128
  200MOL0     C26907   9.249   2.110   1.845 -0.3251 -0.3780  0.8219
  200MOL0     C26908   9.395   2.070   1.876 -0.0270  1.0617  0.1694
  200MOL0    Cl26909   9.398   1.930   1.990 -0.1382 -0.4968 -0.2171
  200MOL0     C26910   9.452   3.099   1.572  1.6673  0.8710  0.8310
  200MOL0     C26911   9.497   3.228   1.541 -0.6721  0.6995  0.1036
  200MOL0     O26912   9.507   3.518   1.508 -0.5006  0.3691  0.6078
  200MOL0     C26913   9.653   3.739   1.412 -0.6207  0.3411 -0.1010
  200MOL0     C26914   9.742   3.839   1.393  0.7745 -0.4181 -1.2641
  200MOL0     N26915   9.884   4.155   1.898  0.1021  0.1277  0.2224
  200MOL0     N26916   9.774   4.101   1.932 -0.0519 -0.1819 -0.5479
  200MOL0     C26917   8.729   3.461   1.398  0.0231  0.0989 -0.4250
  200MOL0     C26918   8.613   3.487   1.322 -0.2507 -0.3735  0.1946
  200MOL0     C26919   8.315   3.506   0.987 -0.5878 -0.5206  0.8335
  200MOL0     C26920   8.278   3.640   0.969  0.4145 -0.7833 -0.9346
  200MOL0     C26921   8.147   3.671   0.924 -1.3846  0.2110 -1.4641
  200MOL0     C26922   8.050   3.575   0.911 -0.3199 -0.2840 -1.0849
  200MOL0     O26923   7.928   3.614   0.863 -1.4487  0.0289 -0.5753
  200MOL0     C26924   7.814   3.526   0.851  0.2304  0.7157  0.2666
  200MOL0     C26925   7.709   3.576   0.761  0.3343  0.0748 -0.6008
  200MOL0     C26926   7.574   3.557   0.826  0.8723  0.4353  0.4102
  200MOL0     C26927   7.532   3.406   0.817  0.1055 -0.3999 -0.1383
  200MOL0     C26928   7.390   3.397   0.835  0.0199 -0.4258  0.5183
  200MOL0     C26929   7.266   3.394   0.844 -0.0922  0.3764  0.3778
  200MOL0     C26930   8.092   3.437   0.927 -0.3633 -0.2770 -0.5933
  200MOL0     C26931   8.227   3.396   0.951 -0.6886  0.2399 -0.2855
  200MOL0     C26932   8.277   3.258   0.940  0.3681  0.2368 -0.8071
  200MOL0     H26933   8.761   3.504   1.011 -1.7597 -2.7198 -0.6511
  200MOL0     H26934   8.940   3.425   1.137 -0.3522 -1.4986  0.7992
  200MOL0     H26935   8.898   3.473   1.599 -0.2309 -1.1708 -1.3669
  200MOL0     H26936   9.069   3.489   1.587  1.5266 -1.8696 -2.5001
  200MOL0     H26937   8.916   3.700   1.625  0.7209 -2.0297  1.0905
  200MOL0     H26938   8.899   3.702   1.445  1.6712 -1.8999 -2.9930
  200MOL0     H26939   9.064   3.836   1.460  2.3259  1.4583  0.1428
  200MOL0     H26940   9.143   3.691   1.413 -1.6494 -1.4586  0.0541
  200MOL0     H26941   9.121   3.787   1.708 -1.8908  0.9401 -2.1025
  200MOL0     H26942   9.218   3.652   1.659  2.0027  0.4323 -0.1214
  200MOL0     H26943   9.360   3.798   1.525 -0.3140 -2.7352 -0.2625
  200MOL0     H26944   9.255   3.940   1.569 -0.8657  1.1719  3.0774
  200MOL0     H26945   9.328   3.880   1.825 -3.1088 -1.2760 -1.4868
  200MOL0     H26946   9.425   3.755   1.763  1.2879 -0.5687 -0.6776
  200MOL0     H26947   9.494   4.022   1.649 -0.5666 -1.0759 -1.1038
  200MOL0     H26948   9.586   3.874   1.663 -0.6848 -1.4446  1.1371
  200MOL0     H26949   9.511   4.039   1.912  3.7623  0.6228  0.4538
  200MOL0     H26950   9.590   3.893   1.912 -2.0372 -0.2091  0.3023
  200MOL0     H26951   9.751   4.077   1.603  0.1185 -0.0314 -0.3536
  200MOL0     H26952  10.016   4.311   1.695 -2.4400  0.8349 -1.0081
  200MOL0     H26953  10.094   4.164   1.702  0.6877  2.4729  0.6801
  200MOL0     H26954   9.878   4.220   1.483 -1.0271  0.1563  1.4242
  200MOL0     H26955  10.044   4.254   1.468 -1.4812 -0.5515 -0.2870
  200MOL0     H26956   9.964   3.966   1.517 -2.2927  0.6996 -2.6139
  200MOL0     H26957  10.125   4.034   1.467  0.6754 -0.4437 -0.8831
  200MOL0     H26958  10.024   4.089   1.243 -0.5886  0.3140 -0.6253
  200MOL0     H26959   9.867   4.077   1.289 -0.1705  2.9906  3.9014
  200MOL0     H26960   9.990   3.636   1.264  1.1642  0.8291  2.2866
  200MOL0     H26961   9.847   3.470   1.319  1.1119  0.7822 -1.2649
  200MOL0     H26962   9.650   3.142   1.247  1.5264 -4.9188  0.3754
  200MOL0     H26963   9.589   2.929   1.311  1.2945  0.2150 -0.9744
  200MOL0     H26964   9.385   2.781   1.356 -0.5565 -0.8059  0.1087
  200MOL0     H26965   9.524   2.693   1.422 -0.9012 -0.5995 -2.3434
  200MOL0     H26966   9.247   2.695   1.545 -0.9167  0.4812 -2.7782
  200MOL0     H26967   9.291   2.586   1.437 -0.3880  0.9944  0.2096
  200MOL0     H26968   9.501   2.520   1.581 -1.1310 -1.2307 -5.0489
  200MOL0     H26969   9.399   2.575   1.719 -0.3079 -1.8194  1.0341
  200MOL0     H26970   9.295   2.368   1.532 -1.7551 -1.3695  0.1407
  200MOL0     H26971   9.205   2.461   1.645 -0.8316 -0.5321 -4.7619
  200MOL0     H26972   9.326   2.380   1.848  2.5745  0.7267 -0.2934
  200MOL0     H26973   9.446   2.298   1.742  1.5817  1.7826  1.2275
  200MOL0     H26974   9.147   2.252   1.732  0.9019  1.3979 -1.4003
  200MOL0     H26975   9.275   2.162   1.645  2.1086 -2.7567  1.8039
  200MOL0     H26976   9.190   2.028   1.802  2.0952 -1.0315 -1.5590
  200MOL0     H26977   9.214   2.151   1.940  0.0672 -2.0658  1.7377
  200MOL0     H26978   9.439   2.035   1.782 -2.4727 -2.1272  0.0255
  200MOL0     H26979   9.452   2.155   1.914  0.1019 -0.4304  3.7549
  200MOL0     H26980   9.389   3.099   1.661 -0.4680  1.6964 -0.5828
  200MOL0     H26981   9.476   3.313   1.605  1.3761  0.8202  0.6665
  200MOL0     H26982   9.561   3.772   1.458  0.7339  1.1881  2.1280
  200MOL0     H26983   9.712   3.941   1.413 -2.4323 -1.5293  0.4271
  200MOL0     H26984   8.717   3.474   1.505  2.4334  2.2201 -0.3354
  200MOL0     H26985   8.514   3.503   1.365 -0.9816  0.3363 -1.6408
  200MOL0     H26986   8.350   3.720   0.983  0.4386 -1.2063  2.0740
  200MOL0     H26987   8.116   3.775   0.919 -2.1849  0.0236 -0.6985
  200MOL0     H26988   7.781   3.520   0.955 -0.4113 -1.0069 -0.0061
  200MOL0     H26989   7.833   3.424   0.816 -0.2228  1.1606 -1.3799
  200MOL0     H26990   7.736   3.527   0.667  5.0810  1.7135 -0.3798
  200MOL0     H26991   7.721   3.685   0.752 -2.4404  0.6856  1.7759
  200MOL0     H26992   7.496   3.617   0.779  0.1757  0.8896  2.0535
  200MOL0     H26993   7.590   3.589   0.930  2.9055 -0.3185  0.3718
  200MOL0     H26994   7.555   3.380   0.714 -0.6575 -0.3161 -0.3304
  200MOL0     H26995   7.583   3.340   0.888 -0.0724 -1.9813 -1.4253
  200MOL0     H26996   7.159   3.395   0.840 -0.0831 -0.1655 -0.2986
  200MOL0     H26997   8.019   3.360   0.906  0.1481 -1.3698  1.4523
  200MOL0     H26998   8.187   3.196   0.943  0.7927 -0.3909 -0.8366
  200MOL0     H26999   8.333   3.244   0.847 -0.2067  1.5090 -1.3763
  200MOL0     H27000   8.335   3.223   1.025 -1.6672 -0.4862  0.3563
  201MOL0     O27001   0.267   4.034   6.810  0.2540  0.0316 -0.3284
  201MOL0     C27002   0.180   4.022   6.724  0.1667  0.5930  0.7936
  201MOL0     O27003   0.108   3.901   6.703  0.2256  0.1625  0.2796
  201MOL0     C27004   0.119   3.800   6.791  0.0807  0.0897 -0.2621
  201MOL0     C27005   0.123   3.806   6.930 -0.8289 -0.6138 -0.1742
  201MOL0     C27006   0.150   3.691   7.011 -0.6405  0.4061  1.4102
  201MOL0     C27007   0.183   3.569   6.950 -0.1782 -0.5288  0.6044
  201MOL0     O27008   0.218   3.466   7.024  0.6182  0.4660 -0.5044
  201MOL0     C27009   0.313   3.369   6.968  0.2036  0.3020 -0.1051
  201MOL0     C27010   0.367   3.261   7.071 -0.7399 -0.9327 -0.6082
  201MOL0     C27011   0.271   3.145   7.081 -0.5623  0.3959 -0.2075
  201MOL0     C27012   0.340   3.015   7.114 -0.5335 -0.2779  0.3513
  201MOL0     C27013   0.246   2.902   7.154 -0.7983 -0.0829 -0.1361
  201MOL0     C27014   0.310   2.766   7.184  0.0511  0.7278  0.0212
  201MOL0     C27015   0.363   2.693   7.060  1.0445 -0.2256 -0.4010
  201MOL0     C27016   0.515   2.711   7.052 -0.4641 -0.7238 -0.2998
  201MOL0     N27017   0.544   2.652   6.923 -1.0168  0.0273  0.2495
  201MOL0     C27018   0.557   2.516   6.899  0.1735 -0.5669  0.0778
  201MOL0     C27019   0.583   2.502   6.765 -1.4308  0.0722  0.5194
  201MOL0     C27020   0.574   2.375   6.697 -0.0304 -0.2126  0.6530
  201MOL0     C27021   0.682   2.362   6.577  0.1294  0.5575  0.0958
  201MOL0     C27022   0.610   2.410   6.444 -0.0362 -0.2602  0.4732
  201MOL0     C27023   0.708   2.429   6.326  0.0258 -0.2224 -0.4137
  201MOL0     O27024   0.642   2.409   6.202  0.1307  0.0801 -0.3770
  201MOL0     C27025   0.613   2.277   6.160 -0.3875 -0.2105  0.5807
  201MOL0     C27026   0.554   2.274   6.042  0.3269  0.1367  0.6808
  201MOL0     C27027   0.501   2.153   5.990 -0.7100 -0.3277 -0.2271
  201MOL0     C27028   0.537   2.028   6.055  0.5220 -0.0722  1.6668
  201MOL0     C27029   0.508   1.895   5.989 -0.1257  0.5772 -0.3397
  201MOL0     O27030   0.448   1.888   5.867 -0.7486  0.3730 -0.1929
  201MOL0     C27031   0.391   1.780   5.800  0.6129  0.6564 -0.7977
  201MOL0     C27032   0.372   1.650   5.846  0.1778  0.7315 -0.5240
  201MOL0     C27033   0.311   1.558   5.764 -0.0051  1.3719  0.3585
  201MOL0     C27034   0.260   1.589   5.631 -0.6829  0.1066 -0.1091
  201MOL0     O27035   0.208   1.492   5.555  0.4654 -0.0517  0.0967
  201MOL0     C27036   0.207   1.506   5.411  0.1046 -0.0954  0.6772
  201MOL0     C27037   0.198   1.372   5.330 -0.2166  0.6244 -0.0142
  201MOL0     C27038   0.321   1.278   5.358 -0.1929  1.1127 -0.6522
  201MOL0     C27039   0.328   1.205   5.498 -0.0532 -0.7851 -0.6231
  201MOL0     C27040   0.401   1.073   5.500  0.5427  0.4144 -0.5420
  201MOL0     C27041   0.554   1.099   5.463  0.2957 -0.2770 -0.4078
  201MOL0     C27042   0.613   0.959   5.452  0.1136  0.3814 -0.1146
  201MOL0     C27043   0.631   0.905   5.303 -0.3291 -0.5491 -0.8433
  201MOL0    Cl27044   0.609   0.730   5.305  0.3825 -0.2259 -0.1533
  201MOL0     C27045   0.295   1.720   5.583  0.3871  0.3178  0.1145
  201MOL0     C27046   0.346   1.814   5.676 -0.1069  0.5090 -0.1675
  201MOL0     O27047   0.522   1.793   6.064 -0.0981 -0.1471 -0.0380
  201MOL0     C27048   0.606   2.034   6.181  0.4600  0.7979  0.3706
  201MOL0     C27049   0.642   2.160   6.233  0.1497  0.1444  0.1642
  201MOL0     N27050   0.587   2.631   6.707 -0.0994  0.0013 -1.0882
  201MOL0     N27051   0.568   2.716   6.805 -0.0222  0.5335  0.6582
  201MOL0     C27052   0.190   3.562   6.812  0.2280 -0.3933 -0.1171
  201MOL0     C27053   0.150   3.676   6.739 -0.1622  0.8018  0.1015
  201MOL0     C27054   0.186   4.125   6.605 -0.1435  0.7676 -0.4123
  201MOL0     C27055   0.177   4.081   6.476 -0.5581 -0.7168  0.2632
  201MOL0     C27056   0.173   4.170   6.372  0.4625  0.6704  0.3221
  201MOL0     C27057   0.177   4.303   6.381 -0.4187 -0.3283  0.3493
  201MOL0     O27058   0.168   4.369   6.261  0.1947  0.4312  0.1496
  201MOL0     C27059   0.142   4.507   6.256  0.6909 -0.0445 -0.6313
  201MOL0     C27060   0.271   4.596   6.269  0.0930  0.3575 -0.1018
  201MOL0     C27061   0.364   4.583   6.150 -0.1544 -0.1108 -0.1920
  201MOL0     C27062   0.500   4.627   6.198  0.7674  0.9272  0.4529
  201MOL0     C27063   0.501   4.762   6.229 -0.0034 -0.3014  0.6482
  201MOL0     C27064   0.499   4.877   6.265  0.8329 -0.5208 -0.7439
  201MOL0     C27065   0.165   4.355   6.510 -0.0155  1.1823  0.3119
  201MOL0     C27066   0.174   4.266   6.626 -0.3296  0.6114  0.4240
  201MOL0     C27067   0.173   4.334   6.762 -0.2263 -0.9689 -0.4081
  201MOL0     H27068   0.110   3.897   6.987  1.5848 -1.1712  1.4069
  201MOL0     H27069   0.136   3.677   7.118  1.6372 -2.7620  1.4318
  201MOL0     H27070   0.262   3.314   6.889 -0.9063  1.3962 -0.1899
  201MOL0     H27071   0.395   3.429   6.929 -1.9090  1.9559 -2.3153
  201MOL0     H27072   0.378   3.306   7.170  0.1132 -0.2224 -1.0079
  201MOL0     H27073   0.464   3.230   7.031  0.0377  0.4527  0.1197
  201MOL0     H27074   0.231   3.140   6.980  1.7433  1.1960 -1.2262
  201MOL0     H27075   0.203   3.173   7.162  1.0059 -1.0877  1.7371
  201MOL0     H27076   0.390   2.986   7.021 -0.1829 -0.6773  0.6548
  201MOL0     H27077   0.416   3.031   7.191 -0.2214 -0.5123  0.0966
  201MOL0     H27078   0.182   2.924   7.240 -0.0328 -0.7548  0.6285
  201MOL0     H27079   0.181   2.885   7.067 -0.9288  0.7237 -0.2068
  201MOL0     H27080   0.383   2.771   7.265 -1.5493 -1.3586  1.7264
  201MOL0     H27081   0.230   2.709   7.233 -0.1797  0.2843 -0.8484
  201MOL0     H27082   0.302   2.720   6.974 -0.8496  0.2247  1.0135
  201MOL0     H27083   0.337   2.591   7.088 -3.0792  0.7323 -0.1481
  201MOL0     H27084   0.546   2.816   7.055  2.0091 -1.4023 -0.6781
  201MOL0     H27085   0.563   2.657   7.134  0.4473  1.3687  0.6235
  201MOL0     H27086   0.538   2.437   6.970  0.7625 -0.3547  0.4857
  201MOL0     H27087   0.590   2.295   6.770  2.7721  1.2987  1.8569
  201MOL0     H27088   0.470   2.371   6.665 -1.1097  2.6272  3.2611
  201MOL0     H27089   0.779   2.411   6.590  1.2942 -1.1831 -1.5552
  201MOL0     H27090   0.708   2.259   6.551 -0.3423  0.9986 -2.4418
  201MOL0     H27091   0.567   2.509   6.461 -1.6399 -0.9878  0.8201
  201MOL0     H27092   0.528   2.342   6.420 -0.3681  0.6766 -1.2536
  201MOL0     H27093   0.788   2.356   6.339 -0.3422 -0.3036  1.7049
  201MOL0     H27094   0.742   2.531   6.345 -2.4547  0.2539  2.0682
  201MOL0     H27095   0.527   2.370   5.999 -0.5063  0.1765  1.2785
  201MOL0     H27096   0.444   2.148   5.898  0.4692 -0.5581 -0.9674
  201MOL0     H27097   0.414   1.630   5.944  1.7755  2.9581 -0.6803
  201MOL0     H27098   0.290   1.456   5.793 -1.7622  1.5418 -0.2229
  201MOL0     H27099   0.139   1.584   5.376  0.9390 -0.5239 -2.2017
  201MOL0     H27100   0.306   1.542   5.381 -1.2349  2.4741 -1.0074
  201MOL0     H27101   0.112   1.307   5.346  0.4182 -0.3562 -0.4336
  201MOL0     H27102   0.199   1.393   5.222 -2.1655 -0.3638 -0.2650
  201MOL0     H27103   0.333   1.207   5.276 -0.9745  1.1056 -0.7671
  201MOL0     H27104   0.409   1.342   5.362 -0.7930  2.1632 -2.6723
  201MOL0     H27105   0.229   1.177   5.535  0.2645 -0.2310  0.6763
  201MOL0     H27106   0.373   1.272   5.572 -4.6355  1.4006  0.5449
  201MOL0     H27107   0.368   1.009   5.418  0.6316 -0.1684 -0.1301
  201MOL0     H27108   0.394   1.014   5.592 -0.1908 -0.1122 -0.9229
  201MOL0     H27109   0.573   1.153   5.370 -1.4425 -0.3224 -0.8227
  201MOL0     H27110   0.603   1.148   5.548  1.4265 -3.2115  0.7527
  201MOL0     H27111   0.549   0.879   5.491 -0.8108  1.0179 -0.3051
  201MOL0     H27112   0.715   0.965   5.493  0.0234  0.3958  0.1075
  201MOL0     H27113   0.557   0.950   5.235  1.0494  0.9673 -1.3946
  201MOL0     H27114   0.730   0.930   5.265 -0.5983  0.6258 -0.8093
  201MOL0     H27115   0.265   1.749   5.483  0.9471  1.8804  0.3807
  201MOL0     H27116   0.353   1.921   5.655 -0.2761  0.1186 -2.4117
  201MOL0     H27117   0.624   1.944   6.239 -1.6788  2.1109  3.3220
  201MOL0     H27118   0.680   2.153   6.335  2.7088  2.2009 -0.5577
  201MOL0     H27119   0.224   3.471   6.763  0.6724 -0.1701 -0.2258
  201MOL0     H27120   0.153   3.669   6.630 -1.0903 -0.2574  0.1254
  201MOL0     H27121   0.203   3.979   6.449 -0.3076 -1.2148  2.2708
  201MOL0     H27122   0.192   4.118   6.279  0.6545 -0.2290  0.8527
  201MOL0     H27123   0.069   4.535   6.332 -0.2353  2.4907 -2.3049
  201MOL0     H27124   0.095   4.526   6.159  1.1620 -0.2511 -0.9023
  201MOL0     H27125   0.327   4.591   6.363  0.9982 -1.1392 -0.6857
  201MOL0     H27126   0.232   4.698   6.277  0.8516  0.6266  0.2165
  201MOL0     H27127   0.317   4.635   6.066 -2.9864 -1.0742  0.6669
  201MOL0     H27128   0.369   4.476   6.126 -2.9783 -0.5711  0.9023
  201MOL0     H27129   0.523   4.578   6.293 -2.2706 -0.3097  0.6462
  201MOL0     H27130   0.576   4.612   6.121  0.5676  2.4019 -0.0701
  201MOL0     H27131   0.491   4.979   6.295 -0.8140 -0.3249 -1.7140
  201MOL0     H27132   0.138   4.458   6.532 -2.4892  0.3133  1.7396
  201MOL0     H27133   0.243   4.417   6.774 -2.0924  0.2946  3.3849
  201MOL0     H27134   0.075   4.378   6.780  0.4986  0.7669 -0.5318
  201MOL0     H27135   0.197   4.254   6.832 -0.6138 -1.6228 -1.0090
  202MOL0     O27136   8.616   7.181   6.078  0.9097  0.4335 -0.2840
  202MOL0     C27137   8.553   7.258   6.003  0.5348 -0.5194 -0.5401
  202MOL0     O27138   8.610   7.362   5.938 -0.4638 -0.3160  0.1872
  202MOL0     C27139   8.746   7.366   5.919 -0.8300  0.7430 -0.1254
  202MOL0     C27140   8.830   7.254   5.894  0.1178 -0.0730  0.8319
  202MOL0     C27141   8.974   7.265   5.888 -0.0532 -0.2280 -1.1776
  202MOL0     C27142   9.033   7.390   5.895  0.0225 -0.0461 -0.4984
  202MOL0     O27143   9.169   7.413   5.888  0.1320 -1.0899  0.6372
  202MOL0     C27144   9.248   7.339   5.976 -0.0421  0.3794 -0.7855
  202MOL0     C27145   9.199   7.360   6.124  0.0253 -0.0703  0.2740
  202MOL0     C27146   9.243   7.241   6.206 -0.8439 -0.0604  1.1144
  202MOL0     C27147   9.390   7.214   6.214  0.3846  0.2591 -0.1959
  202MOL0     C27148   9.432   7.124   6.331  0.2925  0.1488  0.4304
  202MOL0     C27149   9.487   7.188   6.453  0.2023  0.2170 -0.6622
  202MOL0     C27150   9.370   7.261   6.518 -0.1458 -0.3248  0.7027
  202MOL0     C27151   9.405   7.303   6.666 -1.0050  1.0371  0.4572
  202MOL0     N27152   9.276   7.335   6.725 -0.1276 -0.5722 -0.0047
  202MOL0     C27153   9.210   7.259   6.822 -0.5899  0.8489  0.3793
  202MOL0     C27154   9.110   7.341   6.860  0.2928  0.6268  0.2015
  202MOL0     C27155   9.013   7.312   6.969  0.4632 -0.0282  0.0892
  202MOL0     C27156   8.897   7.224   6.940  0.8590 -0.1411 -0.1391
  202MOL0     C27157   8.833   7.156   7.061  0.7337  0.4446  0.0724
  202MOL0     C27158   8.728   7.250   7.113  0.7950 -0.0031  0.2341
  202MOL0     O27159   8.795   7.363   7.172  1.2605 -0.1578  0.1975
  202MOL0     C27160   8.710   7.438   7.246 -0.3645 -0.7907 -0.3944
  202MOL0     C27161   8.762   7.522   7.349 -0.3953 -0.4413 -0.5851
  202MOL0     C27162   8.679   7.609   7.429  0.0310  0.0455 -0.2641
  202MOL0     C27163   8.543   7.610   7.413 -0.3904 -0.8748  0.3347
  202MOL0     C27164   8.460   7.709   7.480 -0.1507  0.5952 -0.6771
  202MOL0     O27165   8.515   7.833   7.520 -0.2764 -0.3516 -0.6018
  202MOL0     C27166   8.445   7.918   7.605  0.2383  0.7920  0.0737
  202MOL0     C27167   8.305   7.943   7.600 -0.3233  0.6556  0.1110
  202MOL0     C27168   8.261   8.048   7.672 -0.8921  0.4900 -0.7196
  202MOL0     C27169   8.345   8.141   7.740 -0.0669  0.1690 -0.3866
  202MOL0     O27170   8.286   8.263   7.769 -0.3897  0.7335  0.6864
  202MOL0     C27171   8.348   8.324   7.883  0.8069  0.9677  0.0167
  202MOL0     C27172   8.243   8.442   7.922  0.0190 -0.0063  0.5735
  202MOL0     C27173   8.309   8.506   8.042  0.5479 -0.0669  0.2853
  202MOL0     C27174   8.203   8.579   8.120 -0.1970 -0.5811 -0.1479
  202MOL0     C27175   8.267   8.654   8.237  0.3152 -0.6002  0.5421
  202MOL0     C27176   8.304   8.554   8.351  0.3054 -1.1638  0.3330
  202MOL0     C27177   8.201   8.552   8.461 -0.5652 -0.2434 -0.2934
  202MOL0     C27178   8.212   8.420   8.538 -0.7861  0.0672  0.1762
  202MOL0    Cl27179   8.383   8.388   8.594 -0.1118 -0.8634  0.2873
  202MOL0     C27180   8.477   8.111   7.752 -0.4974  0.0700 -0.2299
  202MOL0     C27181   8.526   7.999   7.687 -0.1264  0.5064 -0.8070
  202MOL0     O27182   8.341   7.681   7.489 -0.2700 -0.3459  0.3419
  202MOL0     C27183   8.489   7.524   7.322 -0.4038  0.9107 -0.2112
  202MOL0     C27184   8.567   7.440   7.237 -0.2317 -0.9893 -0.3219
  202MOL0     N27185   9.097   7.438   6.767  0.3193 -0.0963 -0.0041
  202MOL0     N27186   9.203   7.447   6.688 -0.0661 -0.4195  0.3402
  202MOL0     C27187   8.948   7.498   5.895 -0.1521  0.8138 -0.1099
  202MOL0     C27188   8.810   7.489   5.902  0.3638 -0.4652 -0.7523
  202MOL0     C27189   8.407   7.249   5.996 -0.6149  0.8895 -0.1754
  202MOL0     C27190   8.342   7.227   6.112  0.7105 -0.2988 -0.0319
  202MOL0     C27191   8.210   7.193   6.111  0.5238  0.4100  0.1213
  202MOL0     C27192   8.137   7.195   5.986  0.5470  1.2339 -0.3306
  202MOL0     O27193   8.002   7.189   5.965 -0.7191  0.2997 -0.9557
  202MOL0     C27194   7.901   7.151   6.064  0.5077 -0.4232 -0.2162
  202MOL0     C27195   7.767   7.161   5.988 -0.5988  0.3902 -0.6931
  202MOL0     C27196   7.650   7.143   6.087 -0.5938  0.1540 -0.2206
  202MOL0     C27197   7.607   6.998   6.088 -0.1596  0.0481 -0.3466
  202MOL0     C27198   7.519   6.960   6.209 -0.0107 -0.1281  0.8652
  202MOL0     C27199   7.444   6.950   6.307 -0.3899  0.8257  0.6324
  202MOL0     C27200   8.200   7.221   5.871 -0.2412 -1.0816  0.0949
  202MOL0     C27201   8.339   7.249   5.871 -0.7424  0.5984 -0.0025
  202MOL0     C27202   8.411   7.277   5.737 -0.3070  0.8652  0.3391
  202MOL0     H27203   8.781   7.159   5.876  0.4590 -0.0541 -0.2831
  202MOL0     H27204   9.029   7.174   5.865  0.5841 -0.7163  1.9221
  202MOL0     H27205   9.246   7.231   5.955 -1.5825  0.3975 -0.8889
  202MOL0     H27206   9.351   7.373   5.966 -0.3086  1.8176  1.0047
  202MOL0     H27207   9.090   7.346   6.132  0.0283 -3.7031 -2.8513
  202MOL0     H27208   9.242   7.451   6.165  0.9661 -0.8587  1.0698
  202MOL0     H27209   9.203   7.146   6.169  0.8966 -1.1258  1.8493
  202MOL0     H27210   9.202   7.263   6.305  1.8906 -0.5051  2.4476
  202MOL0     H27211   9.432   7.169   6.123  0.1148 -1.3787  0.4532
  202MOL0     H27212   9.438   7.311   6.226  3.1442 -1.1615  1.2739
  202MOL0     H27213   9.356   7.048   6.353  1.9393 -0.9914  2.4579
  202MOL0     H27214   9.511   7.060   6.291 -0.0581 -0.8534  1.2860
  202MOL0     H27215   9.519   7.114   6.527 -0.0939 -0.8521 -1.5665
  202MOL0     H27216   9.568   7.256   6.427  2.2594 -2.0947 -0.6871
  202MOL0     H27217   9.280   7.199   6.520 -0.9689  0.6681 -1.9853
  202MOL0     H27218   9.348   7.353   6.464  1.6145 -0.8974 -1.0825
  202MOL0     H27219   9.441   7.216   6.721 -0.7985  2.2717  2.3968
  202MOL0     H27220   9.480   7.383   6.665  1.0837 -0.8328  0.7374
  202MOL0     H27221   9.244   7.173   6.879 -0.7890  1.8342  2.0391
  202MOL0     H27222   9.068   7.263   7.050  0.4420 -1.2828 -0.6245
  202MOL0     H27223   8.977   7.409   7.004 -4.4160 -1.6289  0.2331
  202MOL0     H27224   8.819   7.286   6.895  1.2958  1.9572  1.7978
  202MOL0     H27225   8.923   7.152   6.863  0.3744  1.8228 -2.2362
  202MOL0     H27226   8.890   7.135   7.152 -3.1726  0.7655  2.8157
  202MOL0     H27227   8.799   7.056   7.032 -0.2818 -0.0337  2.6249
  202MOL0     H27228   8.658   7.205   7.184 -0.3342  0.7534 -0.3551
  202MOL0     H27229   8.662   7.281   7.031  0.1593  0.0567  0.7572
  202MOL0     H27230   8.868   7.506   7.368 -0.8354 -4.9946 -0.8357
  202MOL0     H27231   8.719   7.678   7.502 -1.6476  1.8570 -0.9897
  202MOL0     H27232   8.241   7.899   7.525 -0.3345  1.3863 -0.3103
  202MOL0     H27233   8.155   8.051   7.695 -0.1575 -1.5812  4.1221
  202MOL0     H27234   8.355   8.260   7.972  0.9893  0.6409 -0.2337
  202MOL0     H27235   8.444   8.373   7.868  1.1732 -0.0088 -0.9521
  202MOL0     H27236   8.240   8.507   7.833  1.5732 -0.9519 -0.2079
  202MOL0     H27237   8.147   8.397   7.946  0.1262 -0.3044  0.4478
  202MOL0     H27238   8.352   8.431   8.109  2.2579  1.9109  1.4962
  202MOL0     H27239   8.392   8.567   8.007  2.0671 -1.6447  1.0089
  202MOL0     H27240   8.134   8.511   8.171  2.5574 -2.5728  1.1403
  202MOL0     H27241   8.151   8.650   8.054  1.8731  2.0483  0.8523
  202MOL0     H27242   8.202   8.735   8.271  1.1269 -0.4365  1.7739
  202MOL0     H27243   8.357   8.702   8.199 -0.6022  1.5815  1.0016
  202MOL0     H27244   8.310   8.451   8.314 -2.6921 -1.3944  0.2093
  202MOL0     H27245   8.403   8.584   8.388  0.5187 -1.1872 -0.2099
  202MOL0     H27246   8.097   8.561   8.427 -1.5846 -0.3045  2.5790
  202MOL0     H27247   8.215   8.634   8.531 -2.6985  1.4567 -1.7344
  202MOL0     H27248   8.135   8.417   8.616  0.0683  2.2331  1.2061
  202MOL0     H27249   8.196   8.341   8.465  1.2395 -0.9175  0.7301
  202MOL0     H27250   8.553   8.178   7.793 -1.1903  0.7625 -0.0628
  202MOL0     H27251   8.634   7.990   7.693 -0.1239  1.3206  1.7466
  202MOL0     H27252   8.382   7.510   7.316 -0.8226  3.8400 -1.3225
  202MOL0     H27253   8.508   7.369   7.179 -3.8417 -0.3270  2.2083
  202MOL0     H27254   8.987   7.596   5.872  2.2459 -0.4118 -1.6560
  202MOL0     H27255   8.749   7.578   5.912 -0.6014 -1.1039 -0.8215
  202MOL0     H27256   8.391   7.206   6.206 -0.0511  1.8842  0.9234
  202MOL0     H27257   8.160   7.183   6.206  1.6399  1.4720  0.8541
  202MOL0     H27258   7.892   7.232   6.137 -0.3381 -0.1115 -0.6517
  202MOL0     H27259   7.914   7.048   6.097  0.2328 -1.0640 -2.0108
  202MOL0     H27260   7.760   7.079   5.917 -0.1806 -0.0512 -0.2275
  202MOL0     H27261   7.749   7.260   5.944 -1.4376  0.3834 -0.3843
  202MOL0     H27262   7.571   7.212   6.056  0.4366  0.5673 -2.0304
  202MOL0     H27263   7.676   7.158   6.192  0.5621 -0.3364 -0.4239
  202MOL0     H27264   7.551   6.979   5.996  1.0160 -2.1521 -0.6871
  202MOL0     H27265   7.696   6.935   6.091  0.6219  1.1510  1.1649
  202MOL0     H27266   7.392   6.937   6.400 -0.8192  0.5057  0.3531
  202MOL0     H27267   8.145   7.238   5.779 -2.8926  1.6796  2.0242
  202MOL0     H27268   8.495   7.206   5.740  0.0602  1.1321 -1.8634
  202MOL0     H27269   8.352   7.257   5.647  2.2001  3.2308 -2.0574
  202MOL0     H27270   8.443   7.380   5.720 -1.2980  0.5705 -5.2197
  203MOL0     O27271  10.375   9.180   9.768  0.4849 -0.2483 -0.2606
  203MOL0     C27272  10.487   9.215   9.800  0.2087 -1.0447 -0.0717
  203MOL0     O27273  10.600   9.146   9.769  0.8194 -0.7376  1.0126
  203MOL0     C27274  10.584   9.049   9.673 -1.4004 -0.2187 -0.8354
  203MOL0     C27275  10.618   9.068   9.538 -0.6230 -0.7564 -0.4975
  203MOL0     C27276  10.642   8.961   9.440 -0.2912 -0.4583 -0.6715
  203MOL0     C27277  10.621   8.831   9.481  0.8156 -0.1876 -0.7144
  203MOL0     O27278  10.630   8.730   9.380  0.4749  0.5472 -0.4309
  203MOL0     C27279  10.595   8.594   9.404  0.1783  0.5124 -0.0003
  203MOL0     C27280  10.600   8.497   9.279  0.8612 -0.1920  0.4789
  203MOL0     C27281  10.541   8.359   9.305  0.2151  0.3211  0.0137
  203MOL0     C27282  10.622   8.272   9.397  0.2765  0.3282 -1.7171
  203MOL0     C27283  10.530   8.162   9.454 -0.0212  0.0534 -0.4915
  203MOL0     C27284  10.484   8.178   9.609 -0.0724  0.2798  0.4436
  203MOL0     C27285  10.402   8.062   9.665  0.5446 -0.8108  0.4615
  203MOL0     C27286  10.497   7.979   9.745  0.6632  0.2644 -0.0446
  203MOL0     N27287  10.435   7.858   9.799  0.4866 -0.5458 -0.4488
  203MOL0     C27288  10.473   7.805   9.924  0.3378  0.2184  0.1480
  203MOL0     C27289  10.443   7.680   9.930  0.2868  0.6576 -0.1408
  203MOL0     C27290  10.463   7.591  10.056  0.1518  0.1368  0.1738
  203MOL0     C27291  10.345   7.535  10.139  0.0266  0.3479  0.5116
  203MOL0     C27292  10.258   7.433  10.050 -0.3981  0.0069 -1.4515
  203MOL0     C27293  10.179   7.337  10.145  0.3308  0.0715  0.4788
  203MOL0     O27294  10.121   7.400  10.260 -0.2590 -0.7026  0.2328
  203MOL0     C27295  10.007   7.346  10.309 -1.0013  0.4859  0.0022
  203MOL0     C27296   9.961   7.215  10.266 -0.8964  0.1530 -0.1236
  203MOL0     C27297   9.845   7.170  10.318 -0.3363  0.5367 -0.4157
  203MOL0     C27298   9.770   7.242  10.402  0.7699  0.1252 -0.2603
  203MOL0     C27299   9.632   7.195  10.459  1.1583 -0.1608  0.3179
  203MOL0     O27300   9.575   7.260  10.564  0.2296  0.2671 -0.2809
  203MOL0     C27301   9.460   7.214  10.629 -0.0567 -0.2880 -0.3025
  203MOL0     C27302   9.460   7.156  10.753  0.4375 -0.3762  0.3151
  203MOL0     C27303   9.337   7.105  10.808 -0.1303 -0.4857  0.1046
  203MOL0     C27304   9.220   7.105  10.730 -0.0463 -0.6272 -0.4641
  203MOL0     O27305   9.095   7.059  10.789 -0.3441  0.0078  0.1585
  203MOL0     C27306   8.974   7.139  10.767 -0.3046 -0.2613 -0.1469
  203MOL0     C27307   8.875   7.069  10.858  0.4262  0.7542 -0.3009
  203MOL0     C27308   8.729   7.117  10.825 -0.7659 -0.9667 -0.6131
  203MOL0     C27309   8.687   7.248  10.896 -0.2041 -0.4179 -0.0172
  203MOL0     C27310   8.544   7.281  10.851  0.2339  0.5521 -0.3880
  203MOL0     C27311   8.464   7.377  10.937  0.6359  0.2645 -1.2073
  203MOL0     C27312   8.410   7.322  11.070 -0.2053  0.5514  0.6928
  203MOL0     C27313   8.305   7.404  11.138 -0.6125  0.1574 -0.1243
  203MOL0    Cl27314   8.233   7.295  11.270 -0.3216 -0.3561  0.3115
  203MOL0     C27315   9.225   7.174  10.605  0.4238 -0.8273 -0.0236
  203MOL0     C27316   9.347   7.236  10.558  0.8148  0.2035 -0.2734
  203MOL0     O27317   9.601   7.086  10.416 -0.5678  0.2796  0.5490
  203MOL0     C27318   9.812   7.366  10.452  0.3696 -1.3663 -0.0268
  203MOL0     C27319   9.934   7.421  10.408 -0.6178  0.4795  0.1489
  203MOL0     N27320  10.384   7.646   9.807  0.3738 -0.1352  0.0937
  203MOL0     N27321  10.389   7.752   9.731  0.1933  0.6432  0.1638
  203MOL0     C27322  10.582   8.806   9.618  0.9502  0.1068 -0.5539
  203MOL0     C27323  10.569   8.914   9.711 -0.6463 -0.3902  0.7334
  203MOL0     C27324  10.522   9.336   9.887  0.2918 -0.5425 -0.3182
  203MOL0     C27325  10.653   9.375   9.890 -1.0055 -0.5313 -0.3159
  203MOL0     C27326  10.705   9.477   9.972 -0.1553  0.2834  0.7985
  203MOL0     C27327  10.628   9.542  10.056  0.1139  0.3776 -0.5154
  203MOL0     O27328  10.662   9.648  10.135  0.0686  0.0520  0.0480
  203MOL0     C27329  10.769   9.739  10.099  0.2528  0.1249 -0.5904
  203MOL0     C27330  10.789   9.859  10.212 -0.3938  0.4601  0.6301
  203MOL0     C27331  10.664   9.946  10.187  0.1379 -0.8013 -0.2741
  203MOL0     C27332  10.675  10.055  10.290 -0.8747  0.3230  0.6157
  203MOL0     C27333  10.555  10.133  10.284 -0.3514  0.4217  0.0508
  203MOL0     C27334  10.445  10.183  10.284  0.1497  0.8749 -1.1357
  203MOL0     C27335  10.486   9.510  10.056  0.0350 -0.9116  0.2448
  203MOL0     C27336  10.434   9.409   9.970 -0.4775  0.0341 -0.1835
  203MOL0     C27337  10.284   9.376   9.990  0.1887  0.5958  0.3104
  203MOL0     H27338  10.633   9.172   9.511  1.1443 -0.6812  0.6196
  203MOL0     H27339  10.652   8.982   9.333  0.5350  2.1562 -0.1562
  203MOL0     H27340  10.648   8.549   9.489 -1.3902 -1.3833  0.0608
  203MOL0     H27341  10.491   8.584   9.436 -0.4186  1.6266 -1.4874
  203MOL0     H27342  10.697   8.470   9.236 -1.0883 -2.4182 -3.0428
  203MOL0     H27343  10.556   8.543   9.190  2.8764  3.0702  0.9992
  203MOL0     H27344  10.535   8.312   9.207 -2.1140 -0.9736  0.7147
  203MOL0     H27345  10.436   8.366   9.332 -0.1591 -2.2340 -0.5479
  203MOL0     H27346  10.712   8.236   9.346 -0.4580 -3.6954 -0.4773
  203MOL0     H27347  10.650   8.330   9.486 -1.0475 -1.9403  0.2936
  203MOL0     H27348  10.437   8.162   9.396 -1.1438  0.6541  1.2369
  203MOL0     H27349  10.588   8.071   9.435  1.4487  0.8368  0.0651
  203MOL0     H27350  10.582   8.178   9.659 -0.1330 -0.0515  0.5640
  203MOL0     H27351  10.439   8.274   9.633  2.6172  2.5088 -2.5885
  203MOL0     H27352  10.349   8.013   9.582  0.6055  0.5122 -0.3897
  203MOL0     H27353  10.321   8.100   9.728 -2.3776 -1.2548 -2.7578
  203MOL0     H27354  10.577   7.949   9.677 -1.0268 -2.5908 -0.9653
  203MOL0     H27355  10.545   8.045   9.817  1.6053 -1.6300  1.1253
  203MOL0     H27356  10.518   7.873   9.994  1.1212  1.5331 -1.5639
  203MOL0     H27357  10.522   7.503  10.026  1.1419  1.1332 -0.9141
  203MOL0     H27358  10.530   7.641  10.127 -1.0866 -1.5275  2.6574
  203MOL0     H27359  10.376   7.477  10.226  0.5040 -0.6768 -0.3324
  203MOL0     H27360  10.286   7.618  10.180  3.5893  1.7108  3.4402
  203MOL0     H27361  10.322   7.359  10.000  0.2241 -0.2765 -0.2822
  203MOL0     H27362  10.196   7.492   9.983  1.2650  1.3859 -1.8465
  203MOL0     H27363  10.235   7.247  10.172 -0.7100 -0.9960 -0.8199
  203MOL0     H27364  10.098   7.302  10.081  0.0892  0.5080  0.5429
  203MOL0     H27365  10.022   7.153  10.201 -1.6724 -2.0281  1.1355
  203MOL0     H27366   9.806   7.073  10.288 -1.1469  0.8693 -0.4711
  203MOL0     H27367   9.553   7.153  10.809  1.4240  0.2191 -1.2049
  203MOL0     H27368   9.325   7.056  10.904  1.9351  1.4272  1.4380
  203MOL0     H27369   8.989   7.246  10.778  2.9439 -0.4732 -1.3699
  203MOL0     H27370   8.949   7.124  10.661 -0.3366  0.8557 -0.2990
  203MOL0     H27371   8.874   6.961  10.841 -1.9897  0.4982  1.0306
  203MOL0     H27372   8.900   7.074  10.965 -2.1392 -2.1641  0.5611
  203MOL0     H27373   8.718   7.125  10.717 -0.1967 -0.2816 -0.6269
  203MOL0     H27374   8.660   7.037  10.854 -0.0318 -1.2188  0.5137
  203MOL0     H27375   8.742   7.337  10.862 -2.9484  0.5139 -2.3662
  203MOL0     H27376   8.699   7.239  11.004  1.4000 -1.5730 -0.2522
  203MOL0     H27377   8.496   7.183  10.838  1.6967 -0.0965 -1.1641
  203MOL0     H27378   8.540   7.322  10.750 -0.2664 -2.3997 -1.6910
  203MOL0     H27379   8.521   7.469  10.952  1.5381 -0.5825  1.1131
  203MOL0     H27380   8.379   7.401  10.872 -0.7148  0.5867  0.6023
  203MOL0     H27381   8.500   7.316  11.133  0.2734  2.9206  0.3118
  203MOL0     H27382   8.366   7.223  11.052 -2.4495  1.2117  2.1405
  203MOL0     H27383   8.336   7.498  11.184 -1.6898  0.0538  0.8652
  203MOL0     H27384   8.230   7.431  11.063 -1.9123  0.5746  1.2769
  203MOL0     H27385   9.136   7.188  10.544  0.3075  0.8515  0.4799
  203MOL0     H27386   9.343   7.278  10.458 -2.2009  1.6683  0.3547
  203MOL0     H27387   9.761   7.444  10.508  1.0421 -1.5150  0.8344
  203MOL0     H27388   9.968   7.519  10.440 -0.1735  1.0587 -1.9399
  203MOL0     H27389  10.561   8.709   9.662 -1.2460 -0.4840 -2.6831
  203MOL0     H27390  10.550   8.881   9.812 -2.3843 -2.5380 -0.2133
  203MOL0     H27391  10.720   9.331   9.816 -1.4597  0.8018 -1.5727
  203MOL0     H27392  10.810   9.504   9.971 -0.7376  2.9188  1.9919
  203MOL0     H27393  10.758   9.790  10.003  3.8614 -0.0060 -1.1796
  203MOL0     H27394  10.862   9.683  10.103 -0.4834 -1.0768  2.8984
  203MOL0     H27395  10.881   9.917  10.201 -0.0927 -0.2482 -0.8816
  203MOL0     H27396  10.788   9.811  10.310 -0.9732  0.4871  0.6419
  203MOL0     H27397  10.564   9.900  10.184 -0.5436  0.6378 -0.6641
  203MOL0     H27398  10.663   9.994  10.089 -2.5522  0.0381  0.0779
  203MOL0     H27399  10.696  10.014  10.389  1.9847 -1.3563 -0.5445
  203MOL0     H27400  10.765  10.111  10.262  0.9128 -0.3928  4.3375
  203MOL0     H27401  10.355  10.240  10.274  0.1636  0.9591 -0.8118
  203MOL0     H27402  10.425   9.569  10.124  0.9306 -1.4337  1.5557
  203MOL0     H27403  10.271   9.302  10.070  3.0814 -0.4007 -0.0026
  203MOL0     H27404  10.212   9.455  10.010 -4.4283 -3.0167 -0.4024
  203MOL0     H27405  10.246   9.339   9.894 -2.1284  1.4277  0.8407
  204MOL0     O27406  10.611   1.589   5.805 -0.0904  0.1552  0.0995
  204MOL0     C27407  10.676   1.615   5.899 -1.1062 -0.0977 -0.0753
  204MOL0     O27408  10.626   1.677   6.008  0.4407  0.1910 -0.3016
  204MOL0     C27409  10.503   1.741   5.996 -0.1787 -0.9111  0.2474
  204MOL0     C27410  10.500   1.855   5.910 -0.4028  0.2528 -0.6394
  204MOL0     C27411  10.387   1.940   5.901 -0.1832  0.0800 -0.7063
  204MOL0     C27412  10.282   1.915   5.984  1.1689  0.0492  1.2629
  204MOL0     O27413  10.184   2.015   5.967  0.6608  0.5509 -0.3448
  204MOL0     C27414  10.076   2.001   6.065  0.3246 -0.9564  0.0464
  204MOL0     C27415   9.964   1.916   6.004  0.2005 -0.2356 -0.6934
  204MOL0     C27416   9.866   1.976   5.908  0.5071 -0.0855  0.1134
  204MOL0     C27417   9.747   2.047   5.978 -0.4484  0.0163  0.6648
  204MOL0     C27418   9.636   1.942   6.018 -0.5929  0.1988 -1.0328
  204MOL0     C27419   9.621   1.935   6.166  0.0126 -0.3570  0.3499
  204MOL0     C27420   9.505   1.845   6.213  0.4271 -0.7128  0.0313
  204MOL0     C27421   9.453   1.877   6.353  0.4322  0.7546 -0.4984
  204MOL0     N27422   9.364   1.772   6.408 -0.2375 -0.4034 -0.2771
  204MOL0     C27423   9.278   1.702   6.329 -0.2091  1.3043  0.4263
  204MOL0     C27424   9.200   1.635   6.419  0.8929 -0.0223  0.6433
  204MOL0     C27425   9.080   1.541   6.388 -1.2894  0.9339 -0.1759
  204MOL0     C27426   9.121   1.432   6.284 -0.2939 -0.5792  0.6269
  204MOL0     C27427   8.999   1.353   6.245 -0.6607  0.5192  0.3590
  204MOL0     C27428   9.042   1.227   6.161  0.4496 -0.2942  0.0196
  204MOL0     O27429   9.085   1.256   6.028  0.3786 -0.8069  0.5553
  204MOL0     C27430   9.002   1.274   5.924  1.2691 -0.4727  1.1136
  204MOL0     C27431   9.057   1.258   5.798 -0.1137  0.5292  0.7574
  204MOL0     C27432   8.977   1.253   5.679 -0.6563 -0.1030  0.1793
  204MOL0     C27433   8.835   1.281   5.688 -0.4056  0.5624  1.0896
  204MOL0     C27434   8.753   1.288   5.568 -0.7217  0.3231  0.2385
  204MOL0     O27435   8.805   1.228   5.460  0.1754  0.5766  0.2568
  204MOL0     C27436   8.726   1.210   5.346  0.1079 -0.2878 -0.0599
  204MOL0     C27437   8.643   1.312   5.288 -0.2624 -0.0728 -0.5550
  204MOL0     C27438   8.572   1.284   5.175  1.4108 -0.2232  0.0867
  204MOL0     C27439   8.572   1.153   5.115 -0.8482  0.5962  0.2215
  204MOL0     O27440   8.489   1.118   5.006  0.3125  0.0080  0.1657
  204MOL0     C27441   8.500   1.201   4.889  0.9683  0.2313  0.8678
  204MOL0     C27442   8.362   1.268   4.870  0.9874 -0.1322 -0.0088
  204MOL0     C27443   8.347   1.342   4.738 -0.2155 -0.5193 -0.8382
  204MOL0     C27444   8.362   1.252   4.612 -0.1377 -0.2124  0.0291
  204MOL0     C27445   8.339   1.332   4.480 -0.3982 -0.8084 -0.2655
  204MOL0     C27446   8.282   1.235   4.376 -0.2648  0.2754  0.7594
  204MOL0     C27447   8.322   1.282   4.230  0.4093 -0.0969  0.4857
  204MOL0     C27448   8.358   1.167   4.137  0.1126  0.2680  0.2010
  204MOL0    Cl27449   8.220   1.100   4.068  0.0712  0.5631  0.1165
  204MOL0     C27450   8.646   1.051   5.178  0.5398 -0.8988 -0.0686
  204MOL0     C27451   8.729   1.079   5.291  0.5196 -0.0509 -0.0782
  204MOL0     O27452   8.641   1.338   5.585  0.4163 -0.0148  0.5504
  204MOL0     C27453   8.780   1.308   5.811 -0.5068  0.1578 -0.2711
  204MOL0     C27454   8.860   1.298   5.926  0.0501  0.4752 -0.4241
  204MOL0     N27455   9.238   1.660   6.548 -0.4172  0.3236 -0.3352
  204MOL0     N27456   9.339   1.733   6.540  0.1507 -0.2808  0.3468
  204MOL0     C27457  10.279   1.797   6.059  0.4690  0.5855 -0.1465
  204MOL0     C27458  10.386   1.712   6.066 -0.7423  0.3166 -0.1507
  204MOL0     C27459  10.814   1.566   5.888  0.6434 -0.2399  0.0928
  204MOL0     C27460  10.844   1.468   5.793 -0.1369 -0.0798  0.1113
  204MOL0     C27461  10.978   1.417   5.780  0.1998  0.2946 -0.2668
  204MOL0     C27462  11.079   1.464   5.860 -0.6831  0.2905  0.3798
  204MOL0     O27463  11.212   1.426   5.837 -0.5695 -1.0619 -0.2051
  204MOL0     C27464  11.264   1.415   5.701  0.2507  1.0163  0.5806
  204MOL0     C27465  11.270   1.271   5.643  0.3725  1.0879 -0.0931
  204MOL0     C27466  11.406   1.262   5.577  0.1871  0.9454  0.5303
  204MOL0     C27467  11.428   1.128   5.506  0.0860  0.3408  0.4225
  204MOL0     C27468  11.447   1.018   5.602 -0.5469  0.3680 -0.3954
  204MOL0     C27469  11.463   0.941   5.694  0.3487 -0.3696  0.6655
  204MOL0     C27470  11.054   1.572   5.955  0.0210 -0.3481  0.0222
  204MOL0     C27471  10.918   1.621   5.965 -0.2361  0.3130 -0.1782
  204MOL0     C27472  10.894   1.733   6.064 -0.0604 -0.5834 -0.2164
  204MOL0     H27473  10.580   1.881   5.841  0.2991  3.3882  1.1414
  204MOL0     H27474  10.394   2.029   5.838  4.7629  0.7127  0.3235
  204MOL0     H27475  10.109   1.959   6.160  1.2700 -1.2615 -0.4037
  204MOL0     H27476  10.037   2.101   6.088 -0.6988 -1.4186  0.3975
  204MOL0     H27477   9.904   1.877   6.086  0.3279  1.5655  0.2970
  204MOL0     H27478  10.003   1.834   5.943  3.0013  0.0368  0.5613
  204MOL0     H27479   9.812   1.906   5.843 -3.1122  1.3440  1.3069
  204MOL0     H27480   9.905   2.048   5.836 -0.3718 -0.1902 -0.4904
  204MOL0     H27481   9.779   2.110   6.061 -0.7592  0.9682  0.0714
  204MOL0     H27482   9.688   2.098   5.901 -3.8853 -2.1726  1.6344
  204MOL0     H27483   9.542   1.983   5.979 -1.0891 -0.7085 -0.8181
  204MOL0     H27484   9.642   1.839   5.982 -3.3922 -1.3476  2.3164
  204MOL0     H27485   9.714   1.901   6.212  0.0073 -1.0551 -0.1467
  204MOL0     H27486   9.603   2.037   6.201 -0.5051  0.5957 -2.4287
  204MOL0     H27487   9.538   1.742   6.198 -1.1204 -0.8188 -3.4970
  204MOL0     H27488   9.421   1.857   6.145  1.7159  1.2208 -1.3284
  204MOL0     H27489   9.540   1.892   6.418  0.0774 -1.7405  0.6766
  204MOL0     H27490   9.402   1.973   6.360  1.1966  1.1044  0.6756
  204MOL0     H27491   9.270   1.690   6.221 -1.5724  0.5774  0.5823
  204MOL0     H27492   9.042   1.485   6.474  0.3262 -1.4736 -0.9173
  204MOL0     H27493   9.000   1.601   6.344 -0.0352  3.5753  0.9439
  204MOL0     H27494   9.162   1.481   6.196 -3.0405  0.3186 -0.2383
  204MOL0     H27495   9.201   1.372   6.329 -1.0363 -0.1798  2.5933
  204MOL0     H27496   8.934   1.423   6.191  0.4381 -1.1693 -3.5057
  204MOL0     H27497   8.963   1.321   6.343  2.5725 -5.5977  0.0393
  204MOL0     H27498   8.957   1.159   6.158  0.3634 -0.2268  0.7535
  204MOL0     H27499   9.119   1.169   6.212 -0.3747 -1.3088  0.1309
  204MOL0     H27500   9.163   1.236   5.791 -0.2753 -0.6797  1.8124
  204MOL0     H27501   9.026   1.229   5.585  0.1005 -0.7679  0.7280
  204MOL0     H27502   8.636   1.407   5.339  0.2893 -0.0303 -0.5536
  204MOL0     H27503   8.502   1.351   5.126  1.5350  0.4315  0.7851
  204MOL0     H27504   8.583   1.271   4.890  0.0540  1.3487  0.2805
  204MOL0     H27505   8.515   1.130   4.807  0.4414 -0.3927  1.3010
  204MOL0     H27506   8.279   1.197   4.868  0.9744 -0.1075 -1.4847
  204MOL0     H27507   8.346   1.330   4.958  1.3518  1.1147 -0.7933
  204MOL0     H27508   8.247   1.385   4.731  0.3298  0.5675 -4.7287
  204MOL0     H27509   8.417   1.427   4.736 -2.6000  1.8085  2.8180
  204MOL0     H27510   8.289   1.171   4.615 -0.1864 -0.2037 -0.8222
  204MOL0     H27511   8.458   1.201   4.613 -0.7371 -1.3570  0.3179
  204MOL0     H27512   8.440   1.365   4.455 -0.9176  1.1825  0.0816
  204MOL0     H27513   8.296   1.433   4.479  3.5969  1.1165 -3.6546
  204MOL0     H27514   8.320   1.134   4.395  2.7126  1.1518  0.0207
  204MOL0     H27515   8.173   1.228   4.371 -0.3066  0.9799  0.4439
  204MOL0     H27516   8.401   1.356   4.240 -1.4423  1.7368  2.7894
  204MOL0     H27517   8.247   1.349   4.186  0.4496 -0.0577  0.4755
  204MOL0     H27518   8.420   1.199   4.053 -1.5243 -0.9479 -1.5653
  204MOL0     H27519   8.431   1.105   4.190  0.1176  0.0041 -0.1164
  204MOL0     H27520   8.643   0.964   5.115  1.7146 -0.0324 -1.3813
  204MOL0     H27521   8.795   0.998   5.320 -1.0940 -1.5439 -0.4197
  204MOL0     H27522   8.675   1.317   5.836 -0.6206 -1.6970  0.0653
  204MOL0     H27523   8.815   1.335   6.018  0.2752  2.3601 -1.0382
  204MOL0     H27524  10.198   1.770   6.126  1.1998  1.6046  1.2052
  204MOL0     H27525  10.377   1.627   6.131  3.3002 -0.2425 -0.0738
  204MOL0     H27526  10.775   1.424   5.721 -1.4707 -0.1181  1.3710
  204MOL0     H27527  11.001   1.340   5.707  0.6640 -1.1100  1.2961
  204MOL0     H27528  11.361   1.466   5.703  0.3138  0.8921  0.8436
  204MOL0     H27529  11.196   1.475   5.641 -0.6123 -2.5553 -2.3717
  204MOL0     H27530  11.190   1.255   5.570  0.3761 -0.3273  0.1864
  204MOL0     H27531  11.278   1.188   5.714  2.5191 -2.6021 -4.1656
  204MOL0     H27532  11.489   1.283   5.645  0.5331 -2.6289  1.3768
  204MOL0     H27533  11.402   1.333   5.493  1.3120 -2.0367 -2.2907
  204MOL0     H27534  11.349   1.092   5.440 -0.1072  0.4684  0.5862
  204MOL0     H27535  11.510   1.150   5.437 -0.6106  2.5252  0.2101
  204MOL0     H27536  11.476   0.884   5.784  0.9249  0.0963  0.8834
  204MOL0     H27537  11.131   1.623   6.012  0.8353 -2.6592  1.0674
  204MOL0     H27538  10.887   1.829   6.012 -0.7767  0.8843  2.4276
  204MOL0     H27539  10.814   1.729   6.138  2.6879 -0.4265  2.9879
  204MOL0     H27540  10.970   1.750   6.141  3.7111 -1.4784 -3.4006
  205MOL0     O27541  10.704   1.487   9.791  0.4070 -0.0359  0.6384
  205MOL0     C27542  10.667   1.589   9.845 -0.0682 -0.8391 -0.1777
  205MOL0     O27543  10.608   1.701   9.781 -0.1596  0.4312 -0.3693
  205MOL0     C27544  10.563   1.686   9.656 -0.6509 -0.5057 -0.4340
  205MOL0     C27545  10.506   1.569   9.598  0.2295 -0.1090 -0.2640
  205MOL0     C27546  10.489   1.577   9.458 -0.0546  0.1057 -0.8674
  205MOL0     C27547  10.519   1.691   9.383  0.1499  0.5065  0.4888
  205MOL0     O27548  10.503   1.691   9.243  0.8209  0.8565 -0.8153
  205MOL0     C27549  10.619   1.717   9.160 -0.1737  0.1893  0.4739
  205MOL0     C27550  10.593   1.667   9.014  0.4455  0.0772  0.5343
  205MOL0     C27551  10.715   1.650   8.918  0.2551  0.0152  1.6172
  205MOL0     C27552  10.664   1.600   8.782  0.9836  0.5483  0.1652
  205MOL0     C27553  10.776   1.600   8.681  0.8607 -0.1023  0.5517
  205MOL0     C27554  10.766   1.478   8.584  0.1452 -0.6460 -0.6277
  205MOL0     C27555  10.702   1.507   8.451  0.2692 -0.0981  0.4315
  205MOL0     C27556  10.558   1.564   8.459 -0.0880 -0.2396 -0.0625
  205MOL0     N27557  10.458   1.470   8.516 -0.7444 -0.1349  0.6924
  205MOL0     C27558  10.363   1.522   8.600  0.3583 -0.5284 -0.0144
  205MOL0     C27559  10.289   1.412   8.622 -0.1630 -0.0764 -0.1109
  205MOL0     C27560  10.158   1.424   8.699  0.0915 -0.6774 -0.4194
  205MOL0     C27561  10.180   1.493   8.833  1.3089  0.4553  0.1478
  205MOL0     C27562  10.078   1.448   8.949 -0.3056  0.0829  0.0405
  205MOL0     C27563  10.123   1.504   9.085 -0.6138  0.3864  0.2596
  205MOL0     O27564  10.020   1.463   9.181 -0.4513 -0.0296  0.7285
  205MOL0     C27565  10.075   1.406   9.295  0.3430  0.4143 -0.1825
  205MOL0     C27566  10.066   1.268   9.310  0.4388 -0.7001  0.4219
  205MOL0     C27567  10.126   1.200   9.418  0.7344 -0.0792  0.3895
  205MOL0     C27568  10.184   1.271   9.520 -0.0631  0.0112 -0.3077
  205MOL0     C27569  10.249   1.199   9.633 -0.0955  0.2470 -0.3550
  205MOL0     O27570  10.323   1.269   9.725 -0.1345 -0.2103  0.0495
  205MOL0     C27571  10.352   1.204   9.844  0.7672 -0.5654  0.1000
  205MOL0     C27572  10.469   1.237   9.907 -0.2845  0.7510 -0.0529
  205MOL0     C27573  10.508   1.179  10.030 -0.5954 -0.5412 -0.1065
  205MOL0     C27574  10.424   1.094  10.102 -0.8528  0.5009  0.0685
  205MOL0     O27575  10.471   1.034  10.218  0.5638  0.1273 -0.2940
  205MOL0     C27576  10.396   0.936  10.290 -0.1606  0.2577  0.1763
  205MOL0     C27577  10.491   0.835  10.359  0.0660  0.7372 -0.5769
  205MOL0     C27578  10.582   0.756  10.258  0.3815 -0.5216 -0.3987
  205MOL0     C27579  10.681   0.672  10.345  0.7352 -0.1288  0.8505
  205MOL0     C27580  10.766   0.578  10.257  0.1092 -0.2776  0.3591
  205MOL0     C27581  10.831   0.459  10.322  0.2285  0.0716 -0.1077
  205MOL0     C27582  10.924   0.394  10.224 -0.2951  0.3490  1.2113
  205MOL0     C27583  10.884   0.250  10.184  0.8623 -0.3670  0.7218
  205MOL0    Cl27584  10.870   0.140  10.323 -0.1865 -0.2112  0.0355
  205MOL0     C27585  10.290   1.090  10.057  0.5312  0.6272  0.5788
  205MOL0     C27586  10.260   1.131   9.923 -1.1508 -0.0078 -0.1635
  205MOL0     O27587  10.237   1.072   9.624 -0.2446 -0.0554 -1.5684
  205MOL0     C27588  10.176   1.407   9.519  0.3208 -0.1975  1.1546
  205MOL0     C27589  10.132   1.479   9.402  1.1719 -0.2801 -1.2999
  205MOL0     N27590  10.345   1.300   8.563  0.1217  0.1452 -0.5301
  205MOL0     N27591  10.456   1.334   8.504 -0.1268  0.1106  0.6385
  205MOL0     C27592  10.552   1.809   9.448  0.1359  0.7301  0.9351
  205MOL0     C27593  10.571   1.810   9.585  0.1566  0.1237  1.3592
  205MOL0     C27594  10.683   1.595   9.993  0.4545 -0.0569  0.1265
  205MOL0     C27595  10.625   1.702  10.063  0.1599 -0.3869  0.4448
  205MOL0     C27596  10.609   1.701  10.199 -0.5175  0.4751 -0.7084
  205MOL0     C27597  10.672   1.601  10.272  0.2246  0.2270 -0.6825
  205MOL0     O27598  10.671   1.585  10.411 -0.3257  1.4651 -0.8612
  205MOL0     C27599  10.734   1.700  10.473  0.2739  0.1111 -0.2344
  205MOL0     C27600  10.627   1.800  10.520 -0.2111  0.5714  0.3524
  205MOL0     C27601  10.670   1.954  10.546 -0.6400  1.1615  0.3709
  205MOL0     C27602  10.640   2.041  10.419  0.7220 -0.4134  0.5243
  205MOL0     C27603  10.735   2.020  10.313  0.4125 -0.0901  0.2127
  205MOL0     C27604  10.808   1.995  10.217  1.1625 -0.1918  0.2692
  205MOL0     C27605  10.746   1.500  10.212  0.0331  0.9264  0.4779
  205MOL0     C27606  10.755   1.498  10.070  0.3488 -0.3512 -0.5567
  205MOL0     C27607  10.833   1.379  10.016  0.5823  0.3347  0.1792
  205MOL0     H27608  10.486   1.471   9.639  2.1299 -2.1797 -3.7235
  205MOL0     H27609  10.455   1.487   9.407  1.4392 -1.1742  0.2927
  205MOL0     H27610  10.631   1.825   9.162  1.5772  0.1315 -2.1543
  205MOL0     H27611  10.711   1.665   9.191 -1.0115 -1.2056  0.7046
  205MOL0     H27612  10.525   1.740   8.969  2.1423  1.4981  0.1571
  205MOL0     H27613  10.548   1.568   9.023  0.4367  0.1945  2.0660
  205MOL0     H27614  10.796   1.594   8.965  0.5180 -1.3051 -0.2648
  205MOL0     H27615  10.759   1.749   8.907 -2.1155  0.8390 -4.3341
  205MOL0     H27616  10.625   1.500   8.798  0.3316  1.1048  2.4583
  205MOL0     H27617  10.585   1.668   8.749 -1.8345 -2.7438 -0.3582
  205MOL0     H27618  10.774   1.693   8.623  1.1535  0.7722  1.9070
  205MOL0     H27619  10.866   1.604   8.742  0.8664 -1.3272  0.6579
  205MOL0     H27620  10.865   1.433   8.574  1.5281  1.9211  0.7791
  205MOL0     H27621  10.705   1.402   8.634 -2.7049  0.0700 -2.7426
  205MOL0     H27622  10.702   1.413   8.396 -3.1910 -2.1946  3.6215
  205MOL0     H27623  10.767   1.581   8.403 -0.6719  0.3193 -0.2480
  205MOL0     H27624  10.564   1.660   8.512  1.3693  0.5222 -1.5280
  205MOL0     H27625  10.536   1.593   8.356  2.1875 -1.5190 -0.9629
  205MOL0     H27626  10.357   1.622   8.642 -0.3144 -0.0198 -1.2508
  205MOL0     H27627  10.084   1.474   8.636  0.5207 -0.0097 -0.4039
  205MOL0     H27628  10.127   1.324   8.729  2.5371 -1.6490 -0.9141
  205MOL0     H27629  10.278   1.458   8.868  1.3044  0.8569  0.5698
  205MOL0     H27630  10.187   1.600   8.816  2.2269  0.3687 -0.0450
  205MOL0     H27631  10.082   1.339   8.953  0.7475 -0.2219 -4.2696
  205MOL0     H27632   9.977   1.488   8.933 -0.9521 -1.9953 -1.6467
  205MOL0     H27633  10.122   1.614   9.082 -0.5320  0.5214  2.7350
  205MOL0     H27634  10.223   1.471   9.114  1.1224  3.4819 -1.6714
  205MOL0     H27635  10.027   1.205   9.232 -1.2010  1.7952 -0.8791
  205MOL0     H27636  10.127   1.092   9.415  0.6840 -0.1054 -3.3852
  205MOL0     H27637  10.542   1.292   9.848  1.5829 -2.0138 -0.5324
  205MOL0     H27638  10.609   1.195  10.068 -0.7906  3.3732 -0.7753
  205MOL0     H27639  10.342   0.991  10.368 -1.6290 -2.9622  1.6275
  205MOL0     H27640  10.325   0.874  10.233 -1.2939  0.2457  1.5477
  205MOL0     H27641  10.558   0.885  10.430  1.2227  1.1254 -1.9053
  205MOL0     H27642  10.423   0.759  10.399  0.1047 -0.2748 -2.3478
  205MOL0     H27643  10.521   0.699  10.187  0.1707 -2.7058  1.4088
  205MOL0     H27644  10.637   0.830  10.199  0.1708  1.7859  2.1357
  205MOL0     H27645  10.616   0.615  10.413 -0.6222 -0.8745 -0.9998
  205MOL0     H27646  10.749   0.734  10.404  1.0323  1.3751 -0.9960
  205MOL0     H27647  10.852   0.634  10.219  0.3351 -0.7233  0.2016
  205MOL0     H27648  10.707   0.552  10.168 -1.6178 -0.8645  1.6319
  205MOL0     H27649  10.879   0.493  10.414 -0.2619 -0.7476  0.4642
  205MOL0     H27650  10.761   0.385  10.363 -0.5308  0.9103  0.1306
  205MOL0     H27651  11.027   0.401  10.259 -0.0339  1.9101  0.2265
  205MOL0     H27652  10.926   0.447  10.128 -0.8637 -1.1307  0.3452
  205MOL0     H27653  10.796   0.262  10.119  1.0754 -0.2867  0.4425
  205MOL0     H27654  10.968   0.212  10.124  2.4017  1.8205  1.3609
  205MOL0     H27655  10.228   1.031  10.123  1.1290 -1.2198 -0.4298
  205MOL0     H27656  10.158   1.112   9.890 -1.9888  0.1345  2.1586
  205MOL0     H27657  10.203   1.455   9.613  1.6817  3.4285 -0.8826
  205MOL0     H27658  10.122   1.587   9.407 -0.7310 -0.3295 -2.9292
  205MOL0     H27659  10.563   1.894   9.382  4.2599 -0.9283 -0.8322
  205MOL0     H27660  10.615   1.891   9.641  2.0787  0.6157 -0.7268
  205MOL0     H27661  10.576   1.782  10.008 -0.6414 -0.8549  0.4529
  205MOL0     H27662  10.557   1.772  10.262 -0.4278 -1.3010  1.5229
  205MOL0     H27663  10.805   1.747  10.405 -0.1312 -1.5740 -1.9151
  205MOL0     H27664  10.779   1.665  10.566 -1.1560 -0.8862  0.1083
  205MOL0     H27665  10.596   1.765  10.619 -2.4777 -2.7557 -1.3269
  205MOL0     H27666  10.543   1.801  10.451  0.0807 -1.3314 -0.0845
  205MOL0     H27667  10.774   1.953  10.581 -0.2872 -1.7365 -0.4558
  205MOL0     H27668  10.619   1.993  10.634  0.4548  0.3846  1.3896
  205MOL0     H27669  10.542   2.014  10.379  0.1815  3.3595 -1.1148
  205MOL0     H27670  10.642   2.144  10.454 -0.7065  0.0249 -0.5780
  205MOL0     H27671  10.874   1.983  10.133  0.2634  1.5126 -0.7509
  205MOL0     H27672  10.775   1.425  10.285 -0.1236 -1.3048 -1.6291
  205MOL0     H27673  10.877   1.306  10.084  3.5239  1.2023 -0.6557
  205MOL0     H27674  10.768   1.316   9.954 -1.5523  3.0392 -0.5411
  205MOL0     H27675  10.917   1.420   9.960 -0.4304  3.1694  0.5790
  206MOL0     O27676   0.040   6.188   4.845  0.4120  0.1781  0.5596
  206MOL0     C27677   0.057   6.123   4.741 -0.3093 -0.5715  0.0107
  206MOL0     O27678  -0.016   6.142   4.627  0.0441  0.1306 -0.4533
  206MOL0     C27679  -0.128   6.219   4.616 -0.5576 -1.1156 -0.6658
  206MOL0     C27680  -0.131   6.348   4.656  0.4351 -0.9567 -0.5781
  206MOL0     C27681  -0.225   6.429   4.596  0.1009  0.3204 -0.9327
  206MOL0     C27682  -0.339   6.381   4.526  0.2836  0.5735 -0.6718
  206MOL0     O27683  -0.445   6.468   4.496 -0.4558  0.9879  0.5606
  206MOL0     C27684  -0.564   6.416   4.461  0.5432  0.9507 -1.2718
  206MOL0     C27685  -0.665   6.531   4.440  0.1913  0.3088  1.0717
  206MOL0     C27686  -0.806   6.486   4.382 -0.1403  0.7153  0.3025
  206MOL0     C27687  -0.778   6.450   4.232  0.1937  0.0876  0.2737
  206MOL0     C27688  -0.914   6.414   4.173  0.7190 -0.3077 -0.1484
  206MOL0     C27689  -0.889   6.367   4.038 -0.0412  0.1658 -0.4663
  206MOL0     C27690  -1.019   6.333   3.958  0.2198 -0.0695  0.2087
  206MOL0     C27691  -1.003   6.327   3.809 -0.8631  0.4510 -0.0718
  206MOL0     N27692  -1.138   6.288   3.750  0.6886  0.2771  0.4136
  206MOL0     C27693  -1.176   6.160   3.719 -0.1680 -1.3204 -0.4844
  206MOL0     C27694  -1.297   6.167   3.676  0.0160  0.1502  0.3948
  206MOL0     C27695  -1.379   6.053   3.609  0.2529  0.2045  0.2255
  206MOL0     C27696  -1.287   5.939   3.558  0.0312  0.8886 -0.0957
  206MOL0     C27697  -1.373   5.836   3.488  0.2915  0.5977 -0.9602
  206MOL0     C27698  -1.280   5.758   3.402 -0.4062 -1.2297  0.0666
  206MOL0     O27699  -1.338   5.667   3.305 -0.5506  0.0130  0.1140
  206MOL0     C27700  -1.365   5.536   3.341  0.1923 -1.3967 -0.6073
  206MOL0     C27701  -1.400   5.460   3.232  0.5215 -0.3845 -0.5766
  206MOL0     C27702  -1.447   5.329   3.248 -1.1988  0.2042 -0.3271
  206MOL0     C27703  -1.438   5.268   3.373 -0.6056  0.3917  0.0742
  206MOL0     C27704  -1.483   5.131   3.400  0.1322 -0.3893  0.3442
  206MOL0     O27705  -1.492   5.092   3.533 -0.1352 -0.5117  0.4239
  206MOL0     C27706  -1.546   4.967   3.553  0.8579 -1.3078  0.3365
  206MOL0     C27707  -1.465   4.865   3.534 -1.2118 -0.2393 -1.1107
  206MOL0     C27708  -1.496   4.726   3.545  0.0661 -0.5685  0.2478
  206MOL0     C27709  -1.626   4.707   3.588 -0.0387  0.3983 -0.2983
  206MOL0     O27710  -1.666   4.580   3.621 -0.1444  0.6322  0.2066
  206MOL0     C27711  -1.722   4.509   3.508 -0.4463 -0.2596 -0.4090
  206MOL0     C27712  -1.776   4.375   3.545 -0.6668 -0.4428 -1.0511
  206MOL0     C27713  -1.663   4.290   3.606  1.1112  0.2579 -0.3923
  206MOL0     C27714  -1.542   4.257   3.523  0.0146  0.4650  0.3644
  206MOL0     C27715  -1.422   4.223   3.606  0.0951  0.6986 -0.8655
  206MOL0     C27716  -1.320   4.187   3.506 -0.7779 -0.2614  0.8951
  206MOL0     C27717  -1.179   4.163   3.557 -0.6063  0.4454  0.5675
  206MOL0     C27718  -1.058   4.167   3.462  0.5411 -0.4141  0.0955
  206MOL0    Cl27719  -0.902   4.196   3.551 -0.0286  0.0983 -0.0077
  206MOL0     C27720  -1.710   4.813   3.628  0.5111  0.6809  0.5397
  206MOL0     C27721  -1.672   4.947   3.604 -0.6413 -0.0010 -0.4095
  206MOL0     O27722  -1.516   5.069   3.296  0.8172 -0.4602 -0.4271
  206MOL0     C27723  -1.397   5.352   3.482  0.1934  0.1509  0.6730
  206MOL0     C27724  -1.359   5.490   3.468  0.0104  0.5779 -1.0606
  206MOL0     N27725  -1.336   6.297   3.675  0.0302  0.1481 -0.4091
  206MOL0     N27726  -1.245   6.369   3.722  0.6266  0.5289 -0.0791
  206MOL0     C27727  -0.338   6.245   4.500  0.6098  0.1425  0.1777
  206MOL0     C27728  -0.228   6.165   4.545 -0.0780  0.2266 -0.2746
  206MOL0     C27729   0.167   6.018   4.741 -0.6966  0.3154 -0.5657
  206MOL0     C27730   0.222   5.989   4.869 -0.5322 -0.9472  0.2904
  206MOL0     C27731   0.312   5.887   4.889 -0.8991  0.1565 -0.7105
  206MOL0     C27732   0.347   5.806   4.783  0.5733 -0.3390  0.5133
  206MOL0     O27733   0.423   5.694   4.796 -0.5952 -0.4994 -0.1463
  206MOL0     C27734   0.494   5.649   4.909 -1.1800 -0.3998 -0.5082
  206MOL0     C27735   0.629   5.726   4.928  0.0538  0.2468  0.0099
  206MOL0     C27736   0.701   5.698   5.067  0.1302  1.3585  0.2412
  206MOL0     C27737   0.733   5.547   5.090  0.1188  0.5212  0.2359
  206MOL0     C27738   0.616   5.465   5.129 -0.9343  0.1817 -0.0203
  206MOL0     C27739   0.531   5.380   5.146  0.2407 -0.3425  0.1153
  206MOL0     C27740   0.306   5.848   4.651  1.2444  0.2995 -0.6796
  206MOL0     C27741   0.219   5.948   4.628  0.0122  0.9173  0.5904
  206MOL0     C27742   0.165   5.973   4.484 -0.8220  0.4412 -0.9557
  206MOL0     H27743  -0.057   6.382   4.728  2.2239 -5.5652  0.1117
  206MOL0     H27744  -0.231   6.534   4.623  1.1696 -0.2125  1.6759
  206MOL0     H27745  -0.530   6.362   4.371 -2.3170 -0.1357 -1.8065
  206MOL0     H27746  -0.604   6.358   4.544 -2.1710  3.9288 -0.3205
  206MOL0     H27747  -0.614   6.596   4.368  0.1945 -1.8867 -1.0020
  206MOL0     H27748  -0.675   6.590   4.532  2.9864  1.4659  0.7445
  206MOL0     H27749  -0.873   6.571   4.394 -0.3136  0.5252  0.6768
  206MOL0     H27750  -0.839   6.400   4.441  3.1711  0.2731  1.7629
  206MOL0     H27751  -0.742   6.542   4.185 -3.1520  2.7406  2.3809
  206MOL0     H27752  -0.707   6.367   4.226 -0.6976 -0.7135  0.7271
  206MOL0     H27753  -0.971   6.341   4.232 -1.4431 -0.9779 -2.8439
  206MOL0     H27754  -0.980   6.501   4.166 -3.2068 -3.1349 -2.5670
  206MOL0     H27755  -0.834   6.443   3.982 -0.7838  1.1131  0.0640
  206MOL0     H27756  -0.827   6.277   4.044  0.8654  0.7919 -0.3945
  206MOL0     H27757  -1.091   6.414   3.973  1.4110  0.8084  1.4546
  206MOL0     H27758  -1.066   6.243   3.997 -0.0073 -0.1072 -0.1513
  206MOL0     H27759  -0.966   6.418   3.761 -0.3627  1.4584  2.1345
  206MOL0     H27760  -0.933   6.247   3.780  0.3829  1.3524  0.3573
  206MOL0     H27761  -1.117   6.069   3.715  0.6124 -0.8045 -1.0128
  206MOL0     H27762  -1.460   6.005   3.666 -0.8351  0.0916 -1.3514
  206MOL0     H27763  -1.434   6.105   3.530  0.3835  0.2343  0.1546
  206MOL0     H27764  -1.209   5.976   3.491 -0.0001  2.5875  0.7402
  206MOL0     H27765  -1.242   5.893   3.646 -0.7980 -0.3518 -0.2872
  206MOL0     H27766  -1.431   5.886   3.410  0.6119  0.7465 -1.1084
  206MOL0     H27767  -1.428   5.768   3.553  4.4150 -1.0472  1.1878
  206MOL0     H27768  -1.215   5.702   3.470 -0.3285 -1.0115  0.1733
  206MOL0     H27769  -1.224   5.838   3.351 -1.0621 -1.6220 -1.3094
  206MOL0     H27770  -1.398   5.517   3.140  2.3337  2.5764  1.1313
  206MOL0     H27771  -1.488   5.275   3.164  0.6393  0.2625 -1.3083
  206MOL0     H27772  -1.367   4.876   3.488 -1.6355 -4.5485 -3.6635
  206MOL0     H27773  -1.424   4.649   3.519 -0.3290 -0.2375 -2.0363
  206MOL0     H27774  -1.800   4.577   3.472  0.3332  0.4471 -0.7688
  206MOL0     H27775  -1.649   4.491   3.429  2.2958  0.2909  1.8812
  206MOL0     H27776  -1.850   4.388   3.625  0.2711  0.4968 -0.3130
  206MOL0     H27777  -1.804   4.326   3.452 -0.6645 -2.4882 -0.0369
  206MOL0     H27778  -1.627   4.332   3.700  1.1400 -2.0306  0.7036
  206MOL0     H27779  -1.717   4.203   3.646  2.5680 -0.1528  0.7852
  206MOL0     H27780  -1.510   4.334   3.453  1.8079 -1.5242 -1.1312
  206MOL0     H27781  -1.567   4.171   3.461  2.1844 -0.0025  0.0842
  206MOL0     H27782  -1.447   4.141   3.675 -0.4985  1.2792 -0.3767
  206MOL0     H27783  -1.388   4.307   3.667  0.2658  1.3504 -1.8563
  206MOL0     H27784  -1.351   4.104   3.442  0.2985 -0.4385  0.5780
  206MOL0     H27785  -1.305   4.266   3.431  0.0613 -2.3275 -1.2330
  206MOL0     H27786  -1.171   4.068   3.609 -3.4040 -0.4292 -0.4347
  206MOL0     H27787  -1.158   4.248   3.623 -0.1111 -0.4600  1.6145
  206MOL0     H27788  -1.056   4.070   3.411 -3.5224  0.4656 -2.1839
  206MOL0     H27789  -1.083   4.243   3.387 -0.7512 -3.4795 -2.8273
  206MOL0     H27790  -1.804   4.795   3.679  0.4830 -1.0834 -0.0403
  206MOL0     H27791  -1.738   5.029   3.630  1.2875  1.3043  0.6486
  206MOL0     H27792  -1.404   5.314   3.583 -2.2402 -1.4576 -0.0307
  206MOL0     H27793  -1.319   5.539   3.556 -0.0499 -0.1036 -0.6478
  206MOL0     H27794  -0.425   6.205   4.449 -0.6870  1.0838  1.5774
  206MOL0     H27795  -0.232   6.061   4.516 -0.4653 -0.1382  1.0279
  206MOL0     H27796   0.189   6.053   4.950 -0.9375  0.3047 -0.8262
  206MOL0     H27797   0.340   5.870   4.993 -2.6378  0.9745 -0.0680
  206MOL0     H27798   0.497   5.543   4.884  0.8631 -1.5194  3.6443
  206MOL0     H27799   0.446   5.669   5.006  1.1483  0.0875  0.6109
  206MOL0     H27800   0.603   5.832   4.932 -0.4652  0.1429 -0.4852
  206MOL0     H27801   0.688   5.709   4.837 -1.4854  0.5109 -1.0694
  206MOL0     H27802   0.632   5.731   5.145 -1.3803 -3.5503  1.3409
  206MOL0     H27803   0.796   5.750   5.053  0.1108  0.5020 -5.5436
  206MOL0     H27804   0.760   5.505   4.993 -0.6335 -2.1908  1.1263
  206MOL0     H27805   0.812   5.529   5.164  1.3250  0.7202 -0.9660
  206MOL0     H27806   0.435   5.331   5.152  0.3865 -0.5154  1.0481
  206MOL0     H27807   0.339   5.797   4.562  1.1756  1.0397 -1.1392
  206MOL0     H27808   0.215   6.048   4.422  2.4169 -1.5153 -0.9469
  206MOL0     H27809   0.171   5.882   4.423 -0.4655  1.6570 -2.8230
  206MOL0     H27810   0.059   5.998   4.493 -0.7605 -0.0398  4.1538
  207MOL0     O27811   1.602   3.401  10.523 -0.3727  0.1745  0.6943
  207MOL0     C27812   1.641   3.320  10.439  0.4513 -0.1224 -0.6075
  207MOL0     O27813   1.681   3.191  10.471 -0.0061 -0.0437 -0.0206
  207MOL0     C27814   1.646   3.115  10.576 -0.2751 -0.2965  0.1356
  207MOL0     C27815   1.568   3.155  10.687 -1.0008 -0.0382 -0.5014
  207MOL0     C27816   1.535   3.064  10.785  0.5598 -0.6456  0.0054
  207MOL0     C27817   1.574   2.926  10.771  0.6340  0.4782  0.6315
  207MOL0     O27818   1.542   2.837  10.868 -0.4663 -0.6536  0.2127
  207MOL0     C27819   1.639   2.743  10.914 -1.3856 -0.0105  0.1547
  207MOL0     C27820   1.595   2.668  11.044  0.1425  0.0997  0.5837
  207MOL0     C27821   1.690   2.540  11.068  0.1239 -0.9456 -0.7790
  207MOL0     C27822   1.644   2.437  11.166 -0.0056 -0.3059 -0.7042
  207MOL0     C27823   1.749   2.324  11.172  1.3178  0.7962  0.5863
  207MOL0     C27824   1.723   2.248  11.307 -0.5871  0.0602  0.1248
  207MOL0     C27825   1.824   2.128  11.323 -0.4313  0.1601  0.6022
  207MOL0     C27826   1.966   2.177  11.356  0.2543  0.4595 -0.1664
  207MOL0     N27827   2.053   2.063  11.383  0.0020 -1.1193 -0.4056
  207MOL0     C27828   2.039   1.949  11.316  0.1863  0.1913 -0.2353
  207MOL0     C27829   2.138   1.872  11.352  0.0511 -0.5869 -0.4749
  207MOL0     C27830   2.172   1.733  11.300  0.1916  0.3974 -1.1745
  207MOL0     C27831   2.129   1.702  11.156  1.0103 -1.1202 -0.3810
  207MOL0     C27832   2.214   1.769  11.052  0.7341 -0.0719  0.7432
  207MOL0     C27833   2.213   1.694  10.920  0.0434 -0.2025  0.2164
  207MOL0     O27834   2.315   1.591  10.918  0.3177  0.2939 -0.0426
  207MOL0     C27835   2.330   1.532  10.798 -0.4224 -0.2647 -0.1491
  207MOL0     C27836   2.260   1.573  10.682 -0.7858 -0.5178 -0.4559
  207MOL0     C27837   2.281   1.521  10.551  0.0059  0.3688 -0.1734
  207MOL0     C27838   2.390   1.431  10.539  0.2680 -1.0026 -0.1048
  207MOL0     C27839   2.438   1.390  10.410 -0.8561 -0.5167  1.0301
  207MOL0     O27840   2.558   1.332  10.390 -0.2204 -0.5116 -0.6905
  207MOL0     C27841   2.599   1.322  10.257  0.5391 -0.0383 -0.4259
  207MOL0     C27842   2.622   1.198  10.207 -0.2868 -0.1153  0.2107
  207MOL0     C27843   2.657   1.182  10.073 -0.3006 -0.6331  0.3063
  207MOL0     C27844   2.674   1.300   9.994  0.0397  0.2099  0.4474
  207MOL0     O27845   2.704   1.274   9.865  0.7630  0.7184 -0.4803
  207MOL0     C27846   2.714   1.385   9.782 -0.1596 -0.1264 -0.0815
  207MOL0     C27847   2.574   1.419   9.715  0.1924 -0.2981  0.3323
  207MOL0     C27848   2.579   1.518   9.600 -0.1541 -0.0760 -0.2475
  207MOL0     C27849   2.455   1.521   9.518  0.2330 -0.1330  0.4480
  207MOL0     C27850   2.471   1.606   9.388  0.1910 -0.7185  0.8893
  207MOL0     C27851   2.366   1.576   9.287  0.5409  0.7841  0.3526
  207MOL0     C27852   2.411   1.622   9.145 -0.8393  1.1307 -0.3316
  207MOL0     C27853   2.439   1.771   9.154  0.2490  0.5483  1.1022
  207MOL0    Cl27854   2.503   1.846   9.003  0.1931  0.3814  0.0470
  207MOL0     C27855   2.660   1.425  10.052 -0.2912 -0.4201  0.2847
  207MOL0     C27856   2.620   1.432  10.179  0.3723  0.4345 -0.5351
  207MOL0     O27857   2.352   1.397  10.319 -0.6320  0.9607 -0.2935
  207MOL0     C27858   2.458   1.391  10.655  0.0823  0.2539  0.3836
  207MOL0     C27859   2.427   1.435  10.782  0.8402  0.0279  0.3734
  207MOL0     N27860   2.218   1.946  11.442 -0.8194 -1.0886 -0.1826
  207MOL0     N27861   2.155   2.053  11.472  0.3330 -1.1326 -0.0102
  207MOL0     C27862   1.644   2.885  10.660  0.3591 -0.5474 -0.0960
  207MOL0     C27863   1.681   2.980  10.567 -0.4921 -0.9686 -0.0357
  207MOL0     C27864   1.679   3.360  10.296 -0.6176 -1.0111 -0.2614
  207MOL0     C27865   1.781   3.292  10.218 -0.1153 -0.2000 -0.5382
  207MOL0     C27866   1.833   3.345  10.101  0.0355  0.2078  0.4622
  207MOL0     C27867   1.783   3.460  10.041  0.2572  1.3221 -0.3648
  207MOL0     O27868   1.853   3.506   9.933 -0.7076  0.3581  0.0338
  207MOL0     C27869   1.783   3.623   9.879 -0.3711 -0.7993 -0.3276
  207MOL0     C27870   1.875   3.672   9.766 -0.7452  0.1890  1.3318
  207MOL0     C27871   1.894   3.576   9.647  0.2180 -0.8553 -0.1274
  207MOL0     C27872   1.765   3.575   9.562  0.4189 -0.3933 -0.0436
  207MOL0     C27873   1.815   3.544   9.425  1.0612 -0.7792 -1.2456
  207MOL0     C27874   1.868   3.519   9.316  1.3408 -0.2539 -1.1040
  207MOL0     C27875   1.672   3.526  10.119 -0.5147 -0.3893 -0.5561
  207MOL0     C27876   1.626   3.480  10.246 -0.5959  0.2808 -0.6656
  207MOL0     C27877   1.506   3.557  10.300 -0.0027  0.0159  0.3633
  207MOL0     H27878   1.542   3.258  10.709  1.6919  0.6485 -0.1593
  207MOL0     H27879   1.480   3.101  10.870 -0.5726  1.7948 -1.6801
  207MOL0     H27880   1.678   2.668  10.845  2.4041  0.6552  1.3539
  207MOL0     H27881   1.736   2.791  10.928 -2.0958  1.8778 -0.9185
  207MOL0     H27882   1.487   2.650  11.040 -0.1645  1.8634 -0.4128
  207MOL0     H27883   1.605   2.738  11.128 -1.3424  0.4295  0.5082
  207MOL0     H27884   1.784   2.584  11.101  0.2076 -0.6694 -1.3750
  207MOL0     H27885   1.698   2.496  10.968 -0.0603 -1.0070 -0.7661
  207MOL0     H27886   1.635   2.491  11.260 -1.2954  1.4806 -1.7951
  207MOL0     H27887   1.549   2.393  11.135  1.0435 -1.6397 -2.2333
  207MOL0     H27888   1.735   2.266  11.081 -1.3659  2.1877  0.0148
  207MOL0     H27889   1.852   2.359  11.163  1.4258  0.1540 -1.0189
  207MOL0     H27890   1.728   2.307  11.399  1.6359 -0.2094  0.2317
  207MOL0     H27891   1.618   2.217  11.304 -0.4173 -0.4410 -1.2942
  207MOL0     H27892   1.837   2.089  11.221 -1.2171  0.9001  0.2029
  207MOL0     H27893   1.781   2.059  11.395  2.2298 -3.5339 -1.0085
  207MOL0     H27894   2.008   2.240  11.277 -2.2004  2.8064  0.2657
  207MOL0     H27895   1.961   2.243  11.443  1.5879 -1.6179  1.5977
  207MOL0     H27896   1.973   1.920  11.234  1.8006 -5.6441  0.0440
  207MOL0     H27897   2.277   1.701  11.303  0.0222 -0.1374  1.7332
  207MOL0     H27898   2.114   1.675  11.371 -0.2772  1.0068 -1.0525
  207MOL0     H27899   2.155   1.596  11.148  3.0629 -0.8801  1.9626
  207MOL0     H27900   2.025   1.733  11.143  1.4411 -0.8886 -5.7129
  207MOL0     H27901   2.317   1.779  11.086  1.3452 -0.0850 -1.0625
  207MOL0     H27902   2.181   1.871  11.032  2.2657  0.2619 -0.1894
  207MOL0     H27903   2.263   1.770  10.861  0.4089  0.7334  1.6797
  207MOL0     H27904   2.118   1.654  10.884  0.6632  0.3913 -2.2503
  207MOL0     H27905   2.185   1.651  10.687  0.1547  0.4534 -1.0974
  207MOL0     H27906   2.214   1.546  10.469 -3.2104 -1.9598  1.5137
  207MOL0     H27907   2.610   1.108  10.267 -3.4539  0.0258 -0.0411
  207MOL0     H27908   2.665   1.086  10.024  1.0101  0.4514 -1.7314
  207MOL0     H27909   2.757   1.476   9.826 -0.5991  1.2577 -2.3132
  207MOL0     H27910   2.786   1.346   9.709 -0.7897 -3.6681  1.0079
  207MOL0     H27911   2.529   1.325   9.683 -0.0097  0.1052 -0.5851
  207MOL0     H27912   2.505   1.458   9.790  0.1666  1.4156 -0.5526
  207MOL0     H27913   2.599   1.617   9.643  0.9620 -0.8261  1.0240
  207MOL0     H27914   2.664   1.488   9.538  0.1822  0.2417  0.0525
  207MOL0     H27915   2.373   1.564   9.578  1.1529  0.0455  1.6173
  207MOL0     H27916   2.422   1.420   9.492  1.3674  0.0439 -1.8349
  207MOL0     H27917   2.564   1.581   9.336  1.0933  0.7336  1.7559
  207MOL0     H27918   2.474   1.710   9.422 -0.7788 -0.4047  0.0602
  207MOL0     H27919   2.358   1.467   9.290  2.8590  0.5358 -0.5757
  207MOL0     H27920   2.270   1.619   9.318 -0.1190  0.9131 -1.7042
  207MOL0     H27921   2.336   1.597   9.070 -0.9364  1.8661 -0.4880
  207MOL0     H27922   2.497   1.562   9.115 -1.2003 -0.2337  1.1915
  207MOL0     H27923   2.342   1.812   9.182 -0.4887  0.6753 -1.4289
  207MOL0     H27924   2.522   1.787   9.224  1.4891  1.2955 -0.4785
  207MOL0     H27925   2.676   1.525  10.012 -2.1441  0.2152  1.0487
  207MOL0     H27926   2.609   1.527  10.229  1.4075  0.7093 -0.7901
  207MOL0     H27927   2.536   1.317  10.639 -0.5892 -0.3318 -0.2235
  207MOL0     H27928   2.479   1.391  10.867 -0.2452  0.7234  1.4401
  207MOL0     H27929   1.682   2.784  10.666 -0.2675 -0.7078  2.8434
  207MOL0     H27930   1.739   2.949  10.482  3.4790 -1.0081  2.4479
  207MOL0     H27931   1.831   3.204  10.257  1.0690  0.6798 -0.0068
  207MOL0     H27932   1.918   3.288  10.063 -1.1582 -2.4653  1.5464
  207MOL0     H27933   1.762   3.706   9.946 -1.2639  1.7960 -3.5171
  207MOL0     H27934   1.691   3.586   9.832  0.0398 -2.5547  0.1604
  207MOL0     H27935   1.973   3.699   9.805  1.1529 -1.5748 -1.8200
  207MOL0     H27936   1.845   3.772   9.732  0.7093  1.6335  3.9452
  207MOL0     H27937   1.918   3.474   9.677 -0.0874 -1.2152 -1.0963
  207MOL0     H27938   1.980   3.616   9.592 -1.6138 -1.2763 -3.5314
  207MOL0     H27939   1.687   3.508   9.599 -0.7551  0.3051 -1.1433
  207MOL0     H27940   1.722   3.676   9.559 -0.0965 -0.5498  1.4712
  207MOL0     H27941   1.896   3.513   9.212 -1.1687  2.7882 -2.1159
  207MOL0     H27942   1.635   3.622  10.084  0.2555  0.0330 -0.2253
  207MOL0     H27943   1.544   3.619  10.382  1.6386 -0.0252 -0.3232
  207MOL0     H27944   1.451   3.615  10.226  0.3639 -0.6441 -0.4371
  207MOL0     H27945   1.425   3.490  10.330 -0.4997  0.6104  0.3782
  208MOL0     O27946  11.053   5.307   3.272 -0.1482 -0.7509 -0.1294
  208MOL0     C27947  11.052   5.216   3.188 -0.2203 -0.4227  0.4418
  208MOL0     O27948  10.987   5.097   3.198 -0.1062 -0.6028 -0.3142
  208MOL0     C27949  10.949   5.057   3.324 -0.1906  0.2926 -0.0436
  208MOL0     C27950  11.042   5.075   3.427 -0.4601  1.5523  0.3343
  208MOL0     C27951  11.010   5.016   3.553 -0.4934 -0.6189  0.3507
  208MOL0     C27952  10.892   4.952   3.573  0.0095  0.0003 -0.4559
  208MOL0     O27953  10.881   4.884   3.693  0.8975  0.0841 -0.2685
  208MOL0     C27954  10.744   4.877   3.750  0.3587 -0.2518 -0.2204
  208MOL0     C27955  10.737   4.971   3.876 -0.3630  0.0388  0.1161
  208MOL0     C27956  10.762   5.119   3.835 -0.0837  0.2554  0.2660
  208MOL0     C27957  10.654   5.184   3.752 -0.7017 -0.2503  0.2284
  208MOL0     C27958  10.696   5.335   3.697 -0.3924  0.6364  0.6502
  208MOL0     C27959  10.822   5.350   3.619  0.0073  0.2212 -0.6778
  208MOL0     C27960  10.830   5.468   3.521  0.4858  0.4529 -0.1207
  208MOL0     C27961  10.782   5.602   3.587 -0.0182  0.4522  0.6904
  208MOL0     N27962  10.898   5.679   3.617  0.4949  0.1959  0.2794
  208MOL0     C27963  10.933   5.776   3.524  0.0312  0.8105  0.3657
  208MOL0     C27964  11.068   5.783   3.555  0.7348  1.0524 -1.5239
  208MOL0     C27965  11.170   5.845   3.478  0.1566 -0.2145 -0.9346
  208MOL0     C27966  11.188   5.999   3.509 -0.4247  0.2319  0.0802
  208MOL0     C27967  11.307   6.044   3.430  0.6199 -1.0863  0.5671
  208MOL0     C27968  11.338   6.195   3.458 -0.1717  0.5757  0.2629
  208MOL0     O27969  11.415   6.211   3.575 -0.0685 -0.3333 -0.6642
  208MOL0     C27970  11.456   6.336   3.622 -0.3968  0.3090  0.6350
  208MOL0     C27971  11.548   6.337   3.738  0.5649  0.1651 -0.7085
  208MOL0     C27972  11.590   6.455   3.787 -0.4066 -0.0956 -0.2874
  208MOL0     C27973  11.546   6.582   3.732  0.0547  1.1519 -0.3016
  208MOL0     C27974  11.586   6.711   3.793 -0.7197 -0.1938  0.1538
  208MOL0     O27975  11.641   6.703   3.921  0.0626  0.1318  0.0346
  208MOL0     C27976  11.670   6.824   3.986 -0.3123 -0.0794  1.3986
  208MOL0     C27977  11.781   6.910   3.960 -0.2390  0.1154 -0.1068
  208MOL0     C27978  11.793   7.030   4.023 -0.0506 -1.0866  0.1317
  208MOL0     C27979  11.700   7.077   4.117 -0.3777 -0.6774 -0.4898
  208MOL0     O27980  11.710   7.185   4.197  0.1877 -0.0765 -0.0524
  208MOL0     C27981  11.847   7.232   4.232  0.3330  0.1512 -0.0658
  208MOL0     C27982  11.874   7.143   4.354 -0.2589 -0.8493  0.3418
  208MOL0     C27983  11.834   7.227   4.470  0.3873 -0.3102 -0.1514
  208MOL0     C27984  11.820   7.130   4.594  0.2066  0.2875  0.4709
  208MOL0     C27985  11.799   7.216   4.716  0.3115  0.1829  0.0828
  208MOL0     C27986  11.790   7.140   4.852  0.3250 -0.2798 -0.0725
  208MOL0     C27987  11.675   7.043   4.837 -0.2592 -0.1124  0.1361
  208MOL0     C27988  11.599   7.017   4.972 -0.2485  0.4458  0.7509
  208MOL0    Cl27989  11.715   6.969   5.099 -0.1037 -0.3286 -0.0902
  208MOL0     C27990  11.582   6.996   4.134 -0.5746  0.5835  0.1700
  208MOL0     C27991  11.569   6.872   4.071 -0.0215 -0.3633  0.0400
  208MOL0     O27992  11.566   6.818   3.737  0.2897 -0.2578  0.8060
  208MOL0     C27993  11.461   6.578   3.618 -0.2629 -0.9180  0.2837
  208MOL0     C27994  11.423   6.462   3.558  0.4910  0.6235  0.2757
  208MOL0     N27995  11.104   5.705   3.665 -0.0311  0.3647  0.7916
  208MOL0     N27996  11.000   5.639   3.699  0.4495 -0.3971  0.6767
  208MOL0     C27997  10.797   4.937   3.469  0.2500 -0.5150 -0.0643
  208MOL0     C27998  10.824   5.000   3.347  0.8496  0.0077 -0.0689
  208MOL0     C27999  11.147   5.224   3.074 -0.2909 -1.0327 -0.6173
  208MOL0     C28000  11.206   5.105   3.043 -0.5076  0.0021  0.5967
  208MOL0     C28001  11.286   5.092   2.929 -0.4632  0.4034  0.3966
  208MOL0     C28002  11.317   5.204   2.857 -0.9134 -0.0315  0.0215
  208MOL0     O28003  11.416   5.202   2.763  0.3107 -0.4273  0.4009
  208MOL0     C28004  11.546   5.270   2.792  0.3708  0.1828 -0.0230
  208MOL0     C28005  11.643   5.151   2.833  0.3706 -0.6425 -0.0706
  208MOL0     C28006  11.638   5.029   2.743 -1.0999  0.3072  0.4606
  208MOL0     C28007  11.664   5.046   2.589  0.0921 -0.9777  0.3690
  208MOL0     C28008  11.650   4.916   2.518 -0.8673  0.2471  0.1284
  208MOL0     C28009  11.630   4.818   2.448 -0.2971 -0.5475  0.8726
  208MOL0     C28010  11.266   5.333   2.886  0.5903  0.6422  0.2254
  208MOL0     C28011  11.167   5.333   2.989  1.2154 -0.2176 -0.1120
  208MOL0     C28012  11.081   5.453   2.999 -0.7365 -0.4684  0.2993
  208MOL0     H28013  11.140   5.120   3.414  0.4797 -0.5330 -0.1846
  208MOL0     H28014  11.080   5.033   3.634  0.0812 -2.2152  0.2242
  208MOL0     H28015  10.662   4.912   3.686  1.0268 -0.0979 -1.0083
  208MOL0     H28016  10.718   4.780   3.794 -1.9106  1.4458  2.4981
  208MOL0     H28017  10.804   4.935   3.955 -0.8057 -1.2915 -0.0990
  208MOL0     H28018  10.637   4.969   3.918 -0.8813 -3.0257 -1.0642
  208MOL0     H28019  10.854   5.136   3.779 -0.4504  1.4921 -0.0001
  208MOL0     H28020  10.777   5.180   3.925  1.5315 -0.5078  0.5436
  208MOL0     H28021  10.622   5.126   3.665  1.5408 -0.4853 -0.5028
  208MOL0     H28022  10.569   5.204   3.817 -2.1862 -1.9469 -1.0894
  208MOL0     H28023  10.618   5.376   3.632  1.1539  0.6639 -1.2820
  208MOL0     H28024  10.701   5.407   3.779  0.6906  0.5375  0.6815
  208MOL0     H28025  10.900   5.357   3.695  1.4412  3.0736 -2.2859
  208MOL0     H28026  10.838   5.256   3.565 -1.6859  0.9627 -2.6063
  208MOL0     H28027  10.780   5.435   3.430  2.3774  1.2635 -1.5251
  208MOL0     H28028  10.932   5.472   3.482  0.1667  1.9319 -0.8736
  208MOL0     H28029  10.725   5.657   3.511 -1.0732 -4.4202 -2.5000
  208MOL0     H28030  10.712   5.587   3.669 -0.9904 -0.8684 -0.3308
  208MOL0     H28031  10.886   5.816   3.434  0.4420 -0.6625 -0.5448
  208MOL0     H28032  11.264   5.793   3.497 -1.5003 -2.0696  3.8137
  208MOL0     H28033  11.135   5.826   3.376 -2.9563 -2.3395  0.3695
  208MOL0     H28034  11.092   6.044   3.485 -0.6231 -0.1093  0.2326
  208MOL0     H28035  11.201   6.017   3.616 -1.7339  0.7893  0.1663
  208MOL0     H28036  11.280   6.033   3.324 -1.4609  3.0662  0.4498
  208MOL0     H28037  11.397   5.983   3.442  2.0266  1.0637  1.4014
  208MOL0     H28038  11.249   6.258   3.466 -0.8493 -0.3528  0.1621
  208MOL0     H28039  11.398   6.228   3.372  1.4900 -1.1529  0.7158
  208MOL0     H28040  11.573   6.245   3.789  0.6738  0.0652 -0.9439
  208MOL0     H28041  11.665   6.446   3.865  1.8474 -1.3173 -2.4667
  208MOL0     H28042  11.862   6.879   3.895  0.8538 -1.1636  1.7538
  208MOL0     H28043  11.877   7.095   3.996  0.8143 -1.2126  2.3371
  208MOL0     H28044  11.925   7.227   4.155  0.5332 -0.7077  0.1806
  208MOL0     H28045  11.839   7.339   4.249 -2.1246  0.2928 -1.6638
  208MOL0     H28046  11.820   7.049   4.340  0.0893 -1.1492  0.9710
  208MOL0     H28047  11.980   7.115   4.351  0.3252  1.2240 -1.0877
  208MOL0     H28048  11.903   7.310   4.484  2.5141 -1.9140 -0.5471
  208MOL0     H28049  11.731   7.252   4.442  0.9551 -0.3456 -2.5020
  208MOL0     H28050  11.916   7.077   4.599 -0.3605 -0.6836  1.9656
  208MOL0     H28051  11.738   7.061   4.577 -0.6242  1.2002  0.6381
  208MOL0     H28052  11.706   7.273   4.706 -0.0671 -0.6253 -1.1982
  208MOL0     H28053  11.882   7.288   4.721  2.5920 -1.8276 -3.9678
  208MOL0     H28054  11.880   7.090   4.890  0.2217  1.1398  2.2074
  208MOL0     H28055  11.759   7.215   4.924  1.6711  2.7271 -2.3903
  208MOL0     H28056  11.716   6.951   4.796  0.7630  1.2536 -2.1060
  208MOL0     H28057  11.609   7.080   4.757  0.9256 -0.3621 -0.9808
  208MOL0     H28058  11.555   7.112   5.002  0.7945  1.0620  0.3478
  208MOL0     H28059  11.521   6.944   4.946  0.2271  0.0260  0.4820
  208MOL0     H28060  11.502   7.021   4.203 -1.3040  0.7510 -0.7181
  208MOL0     H28061  11.472   6.823   4.081 -0.8433  1.5839  3.0142
  208MOL0     H28062  11.431   6.671   3.570 -3.6764 -0.0821  3.5656
  208MOL0     H28063  11.359   6.465   3.470  1.0154 -0.6865 -0.1647
  208MOL0     H28064  10.695   4.905   3.486  0.8659 -2.8281 -0.3633
  208MOL0     H28065  10.758   4.998   3.261  1.0416 -0.5460 -0.2060
  208MOL0     H28066  11.202   5.018   3.108 -1.1395 -1.3732 -1.1968
  208MOL0     H28067  11.335   4.999   2.902  1.0763  2.1565 -3.4924
  208MOL0     H28068  11.531   5.346   2.868 -1.1178  0.9621 -1.0479
  208MOL0     H28069  11.576   5.322   2.701  1.7153  2.0091  1.3918
  208MOL0     H28070  11.609   5.119   2.933  2.3420 -1.8825  0.2503
  208MOL0     H28071  11.748   5.178   2.842 -0.3694  2.6574  0.1184
  208MOL0     H28072  11.533   5.000   2.754 -2.5607  4.5166 -0.6884
  208MOL0     H28073  11.703   4.954   2.789 -1.2688 -0.9780 -1.3151
  208MOL0     H28074  11.589   5.114   2.547  0.8824 -0.2664  0.0635
  208MOL0     H28075  11.763   5.087   2.566  0.2348  0.7380  3.4623
  208MOL0     H28076  11.610   4.734   2.385 -1.0647 -3.3055  4.4547
  208MOL0     H28077  11.293   5.412   2.818 -0.4743  1.2625  0.5019
  208MOL0     H28078  11.141   5.530   3.048  4.6501 -3.7042 -0.3563
  208MOL0     H28079  11.057   5.481   2.896 -0.8784  0.6285  0.6180
  208MOL0     H28080  10.988   5.440   3.056 -1.8664 -1.6137 -1.7072
  209MOL0     O28081   2.472  11.223   8.628  0.1265 -0.2776  0.2440
  209MOL0     C28082   2.472  11.096   8.649 -0.3692 -1.0292 -0.2484
  209MOL0     O28083   2.372  11.023   8.670  0.8047  0.0304 -0.8540
  209MOL0     C28084   2.254  11.069   8.630 -0.2862  0.8851  0.0936
  209MOL0     C28085   2.212  11.082   8.501 -0.3928 -0.2465 -0.8159
  209MOL0     C28086   2.092  11.148   8.473  0.0266 -0.1431 -0.4866
  209MOL0     C28087   2.007  11.204   8.571 -0.4484  0.0227 -0.5912
  209MOL0     O28088   1.900  11.281   8.540 -0.6978 -0.0847 -0.7549
  209MOL0     C28089   1.828  11.343   8.641  0.7885  0.1208  0.0428
  209MOL0     C28090   1.705  11.431   8.594 -0.0686 -0.4321  0.2824
  209MOL0     C28091   1.581  11.356   8.556 -0.1095  0.1644  0.8507
  209MOL0     C28092   1.482  11.461   8.497 -0.5692 -0.1165 -0.5922
  209MOL0     C28093   1.407  11.428   8.366  0.3797 -0.3154 -0.4710
  209MOL0     C28094   1.338  11.548   8.309  0.5004  0.5459 -1.1436
  209MOL0     C28095   1.264  11.516   8.186  0.2166 -0.2855  0.6220
  209MOL0     C28096   1.200  11.627   8.101  1.0489 -0.4714 -0.0388
  209MOL0     N28097   1.129  11.574   7.975  0.2441 -0.2242 -0.3353
  209MOL0     C28098   1.114  11.648   7.860 -0.4449 -1.3998 -0.2350
  209MOL0     C28099   1.026  11.594   7.779 -0.0345 -1.2227 -0.5476
  209MOL0     C28100   0.972  11.652   7.658 -0.4676 -0.6569 -0.3671
  209MOL0     C28101   0.844  11.746   7.679 -1.0635  0.4926  0.5010
  209MOL0     C28102   0.748  11.686   7.779 -0.5428 -0.1404  0.2140
  209MOL0     C28103   0.684  11.557   7.733 -0.4983  0.6897  0.4416
  209MOL0     O28104   0.595  11.515   7.836  0.4193  0.7076  0.2581
  209MOL0     C28105   0.587  11.384   7.875 -1.0453  0.6500 -0.8134
  209MOL0     C28106   0.619  11.343   8.011 -0.3147 -0.3059  1.1759
  209MOL0     C28107   0.610  11.211   8.051 -0.1109  0.1394 -0.5589
  209MOL0     C28108   0.574  11.111   7.961  0.8629  0.6091  0.2767
  209MOL0     C28109   0.576  10.965   8.000 -0.4143 -0.9882  0.4957
  209MOL0     O28110   0.589  10.941   8.133  0.0304 -0.2391  0.0999
  209MOL0     C28111   0.562  10.818   8.195  0.5057 -0.1850  0.4293
  209MOL0     C28112   0.455  10.736   8.158  0.4979 -0.5130 -0.7249
  209MOL0     C28113   0.427  10.624   8.232 -0.0268 -0.1507  0.1758
  209MOL0     C28114   0.486  10.591   8.352  0.3171 -0.2213 -0.1415
  209MOL0     O28115   0.453  10.490   8.440 -0.6710  0.0452 -0.5759
  209MOL0     C28116   0.322  10.447   8.432  0.2792  0.0858  0.0703
  209MOL0     C28117   0.290  10.401   8.570 -0.1270  0.9854 -1.0166
  209MOL0     C28118   0.347  10.260   8.610 -0.0633 -0.1942  0.1303
  209MOL0     C28119   0.287  10.205   8.738  0.7403 -0.1973  0.3888
  209MOL0     C28120   0.176  10.106   8.702 -0.0532  0.3632  0.1566
  209MOL0     C28121   0.123  10.054   8.838 -0.0358 -1.0769 -0.0220
  209MOL0     C28122   0.004   9.955   8.817 -0.1642 -0.1015 -1.1967
  209MOL0     C28123  -0.119  10.018   8.770  0.5358 -0.6277 -0.3284
  209MOL0    Cl28124  -0.199  10.145   8.875 -0.0552  0.1050  0.2315
  209MOL0     C28125   0.590  10.675   8.398 -0.4733  0.0453 -0.3028
  209MOL0     C28126   0.622  10.787   8.322 -0.5166  0.6833  1.0878
  209MOL0     O28127   0.546  10.883   7.915 -1.1773 -0.1979  0.0101
  209MOL0     C28128   0.564  11.142   7.827  0.4623  0.1355  0.5003
  209MOL0     C28129   0.566  11.277   7.786 -0.6196 -0.2809 -1.4468
  209MOL0     N28130   0.991  11.473   7.838  0.1127  0.1864 -0.5086
  209MOL0     N28131   1.047  11.464   7.958 -0.2959  0.7463  0.3085
  209MOL0     C28132   2.049  11.185   8.710 -0.1371 -0.1154  0.8261
  209MOL0     C28133   2.171  11.118   8.732 -0.7727  0.1104  0.1705
  209MOL0     C28134   2.600  11.033   8.607 -0.2808  0.1093  0.9918
  209MOL0     C28135   2.606  10.913   8.534  0.1852 -1.1012 -0.9472
  209MOL0     C28136   2.727  10.856   8.486  0.2242  0.7602  0.2986
  209MOL0     C28137   2.850  10.908   8.522  0.3169  0.1747 -0.4164
  209MOL0     O28138   2.971  10.840   8.507 -0.0948  0.4021 -0.3880
  209MOL0     C28139   3.095  10.907   8.532  0.9712  0.1607 -0.0903
  209MOL0     C28140   3.191  10.842   8.430 -1.2742  0.5346  0.2665
  209MOL0     C28141   3.313  10.924   8.397 -0.0362  0.8935 -0.6698
  209MOL0     C28142   3.368  10.908   8.252  0.7520  0.8809 -0.3256
  209MOL0     C28143   3.405  10.769   8.227 -0.5220  1.2354 -0.1641
  209MOL0     C28144   3.450  10.664   8.190 -0.3302 -0.3135 -0.1193
  209MOL0     C28145   2.844  11.029   8.607 -0.2088  0.1085 -0.7685
  209MOL0     C28146   2.722  11.089   8.657 -0.1740  0.0447 -0.3670
  209MOL0     C28147   2.726  11.198   8.762  0.2351  0.5023 -1.1030
  209MOL0     H28148   2.273  11.045   8.419 -1.7004  0.1848 -2.0238
  209MOL0     H28149   2.072  11.147   8.367  1.4652 -1.6412 -0.7849
  209MOL0     H28150   1.785  11.268   8.710 -1.3016  1.5024  0.3524
  209MOL0     H28151   1.886  11.422   8.688 -0.9754  1.2777  0.3891
  209MOL0     H28152   1.741  11.479   8.502  0.9580  0.8571  1.3116
  209MOL0     H28153   1.684  11.501   8.676  0.8619 -1.4534  1.4267
  209MOL0     H28154   1.533  11.312   8.644  0.5624  0.5805  1.4367
  209MOL0     H28155   1.615  11.283   8.482 -2.5245  0.2314 -0.4063
  209MOL0     H28156   1.403  11.483   8.569  0.0837 -0.5046  0.2510
  209MOL0     H28157   1.540  11.552   8.479  0.1721 -0.7511 -1.4865
  209MOL0     H28158   1.472  11.392   8.286  0.0286 -0.6044 -0.6336
  209MOL0     H28159   1.328  11.353   8.376 -1.0048  1.3377  2.3507
  209MOL0     H28160   1.274  11.582   8.391  2.3563  0.7046  0.3208
  209MOL0     H28161   1.398  11.637   8.289 -1.2219  1.6078 -1.8047
  209MOL0     H28162   1.189  11.439   8.203 -0.8189  1.1296  3.0930
  209MOL0     H28163   1.335  11.484   8.109 -2.1830  2.7791 -3.2451
  209MOL0     H28164   1.124  11.691   8.146  1.9657  0.3582  0.3660
  209MOL0     H28165   1.271  11.705   8.074  0.8482  0.1930  1.2863
  209MOL0     H28166   1.166  11.740   7.839 -0.1961 -1.7297 -1.1118
  209MOL0     H28167   1.051  11.700   7.599  0.6816  0.1667  1.7029
  209MOL0     H28168   0.940  11.570   7.592  1.0625 -0.0961 -1.8948
  209MOL0     H28169   0.881  11.844   7.710  2.3701 -0.2965 -0.6153
  209MOL0     H28170   0.811  11.759   7.575  2.4232  0.2509 -0.7923
  209MOL0     H28171   0.673  11.764   7.800 -1.1017  0.1269 -2.4807
  209MOL0     H28172   0.803  11.665   7.871  0.5782 -0.6918 -0.5613
  209MOL0     H28173   0.746  11.470   7.711  0.2732  0.5415  2.9015
  209MOL0     H28174   0.626  11.573   7.641 -1.5141 -0.5065  0.8491
  209MOL0     H28175   0.653  11.424   8.075  1.1163 -0.6543  0.8782
  209MOL0     H28176   0.641  11.190   8.153  0.9338  0.2999 -0.8325
  209MOL0     H28177   0.391  10.770   8.078  1.4336  2.2624 -0.4006
  209MOL0     H28178   0.339  10.577   8.191  0.4673 -1.2285  0.3092
  209MOL0     H28179   0.258  10.533   8.408 -0.4533 -0.5138 -0.1666
  209MOL0     H28180   0.306  10.365   8.361  0.2848 -1.9545  2.3218
  209MOL0     H28181   0.320  10.471   8.648  2.9564 -2.2615  1.0429
  209MOL0     H28182   0.182  10.394   8.582 -0.0874 -1.7231 -1.4944
  209MOL0     H28183   0.326  10.197   8.523 -1.5066  1.2463 -0.6221
  209MOL0     H28184   0.454  10.273   8.625  0.3033  0.4038 -2.4636
  209MOL0     H28185   0.251  10.283   8.806 -0.2161  2.1179 -2.5601
  209MOL0     H28186   0.374  10.164   8.791  0.9933 -2.1322 -1.3813
  209MOL0     H28187   0.227  10.030   8.643  2.6967  3.6743 -2.1156
  209MOL0     H28188   0.099  10.162   8.649  2.4419  4.1238  0.1498
  209MOL0     H28189   0.204  10.003   8.890 -0.9676 -1.3561  1.2150
  209MOL0     H28190   0.083  10.136   8.899  0.8426 -1.0131  0.4853
  209MOL0     H28191  -0.015   9.908   8.914  1.5227 -1.9404 -1.6922
  209MOL0     H28192   0.037   9.876   8.749  1.4837  0.0972 -0.6549
  209MOL0     H28193  -0.101  10.050   8.667  1.0286 -0.0565 -0.0729
  209MOL0     H28194  -0.189   9.934   8.770  1.4128 -1.3836  0.2777
  209MOL0     H28195   0.636  10.670   8.495 -1.9239  2.1004  0.5589
  209MOL0     H28196   0.689  10.857   8.371 -0.5193  1.2955  0.2417
  209MOL0     H28197   0.549  11.062   7.755 -1.8760  1.1346 -0.2081
  209MOL0     H28198   0.559  11.299   7.680 -1.4807 -0.2830 -1.3935
  209MOL0     H28199   2.003  11.222   8.801 -1.3397 -0.4369  0.3689
  209MOL0     H28200   2.208  11.105   8.833  0.0750 -0.4374 -0.1997
  209MOL0     H28201   2.511  10.863   8.518 -1.5266  1.0449  1.6931
  209MOL0     H28202   2.716  10.783   8.406  0.1661  3.6645 -2.5646
  209MOL0     H28203   3.126  10.887   8.635 -0.5304 -0.1049  0.3379
  209MOL0     H28204   3.082  11.014   8.512 -3.2770 -0.2866 -0.4981
  209MOL0     H28205   3.142  10.816   8.336 -1.7551  3.4067 -0.3911
  209MOL0     H28206   3.226  10.746   8.469  1.6762  0.4336 -2.2541
  209MOL0     H28207   3.394  10.897   8.465 -0.6355  2.8163  0.9043
  209MOL0     H28208   3.296  11.031   8.417  2.7990  1.6829 -1.8991
  209MOL0     H28209   3.297  10.940   8.176  0.2621  1.0450  0.1924
  209MOL0     H28210   3.462  10.964   8.249  0.9853  0.5959  1.0916
  209MOL0     H28211   3.494  10.577   8.146 -1.0891 -2.1954  2.6000
  209MOL0     H28212   2.933  11.089   8.629 -1.5881  2.0515 -0.1535
  209MOL0     H28213   2.818  11.177   8.818 -2.4028 -1.9689  2.8447
  209MOL0     H28214   2.734  11.293   8.709  1.2571  1.4672  0.6756
  209MOL0     H28215   2.646  11.209   8.836  0.0691  2.1945 -1.5012
  210MOL0     O28216   1.731   3.350   1.897  0.6381  1.1450  0.0272
  210MOL0     C28217   1.779   3.244   1.939 -0.0524  1.0392  0.5615
  210MOL0     O28218   1.874   3.177   1.871  1.0377 -0.1615  1.0111
  210MOL0     C28219   1.857   3.168   1.736  0.5658 -0.0481 -0.0701
  210MOL0     C28220   1.784   3.066   1.671  0.1483  1.0005 -0.7624
  210MOL0     C28221   1.785   3.060   1.536  0.0048  0.0428  0.1053
  210MOL0     C28222   1.851   3.144   1.453 -0.4869  0.2529  0.8133
  210MOL0     O28223   1.851   3.137   1.316  0.1847 -0.2229  0.4409
  210MOL0     C28224   1.732   3.200   1.253 -0.4993  0.6864 -0.1110
  210MOL0     C28225   1.775   3.238   1.103 -0.0497  0.4506  0.8120
  210MOL0     C28226   1.725   3.125   1.002 -0.1738 -0.5165 -0.0218
  210MOL0     C28227   1.801   2.992   1.020  0.9049 -0.2212  1.2923
  210MOL0     C28228   1.951   3.004   1.008  0.4604  0.7226 -0.6241
  210MOL0     C28229   1.992   3.085   0.887 -0.0307 -0.0568 -0.0568
  210MOL0     C28230   2.139   3.074   0.849  0.0647 -0.5525  0.2944
  210MOL0     C28231   2.181   2.945   0.782  0.0418  0.0821  0.1808
  210MOL0     N28232   2.113   2.942   0.648 -1.5134 -0.3436 -0.5071
  210MOL0     C28233   2.183   2.979   0.540 -0.3626  0.0520 -0.4451
  210MOL0     C28234   2.119   2.935   0.428 -0.2992  0.1337  0.4749
  210MOL0     C28235   2.175   2.944   0.282  0.3903  0.1449 -0.7206
  210MOL0     C28236   2.309   2.871   0.261  0.4462  0.3295 -0.1560
  210MOL0     C28237   2.430   2.905   0.346  0.4759 -0.6708  0.1916
  210MOL0     C28238   2.559   2.840   0.302  0.1510  0.8426 -1.1959
  210MOL0     O28239   2.604   2.851   0.170 -0.2480  1.0149  0.5373
  210MOL0     C28240   2.662   2.974   0.137  0.2256  0.2429  0.9131
  210MOL0     C28241   2.725   3.068   0.222 -0.7280  0.4504 -0.2004
  210MOL0     C28242   2.792   3.187   0.181 -0.7313 -0.2878  0.3204
  210MOL0     C28243   2.794   3.221   0.040  0.1184  0.0696 -0.3125
  210MOL0     C28244   2.870   3.344  -0.002  0.6715  0.1012 -0.1387
  210MOL0     O28245   2.934   3.342  -0.127 -0.6676  0.1157 -0.3001
  210MOL0     C28246   3.015   3.451  -0.162  0.0078  0.1398  0.4088
  210MOL0     C28247   3.040   3.452  -0.294 -0.7360 -0.5756  0.3059
  210MOL0     C28248   3.118   3.553  -0.353  0.5075  0.4145 -0.3347
  210MOL0     C28249   3.171   3.650  -0.275 -0.1519 -0.2083 -0.1585
  210MOL0     O28250   3.257   3.750  -0.321  0.5959 -0.2792 -0.2510
  210MOL0     C28251   3.310   3.735  -0.460  0.5193 -1.0400  0.4457
  210MOL0     C28252   3.383   3.846  -0.517 -0.4169  0.0029 -0.6316
  210MOL0     C28253   3.424   3.827  -0.659 -0.3870  0.1879 -0.0931
  210MOL0     C28254   3.456   3.950  -0.741  0.5842  0.1458  0.1888
  210MOL0     C28255   3.521   3.921  -0.870  0.3926  0.5229 -0.0391
  210MOL0     C28256   3.564   4.047  -0.947 -0.3679 -0.5465  0.2692
  210MOL0     C28257   3.641   3.998  -1.076  0.1128  0.4881 -0.4967
  210MOL0     C28258   3.642   4.101  -1.180 -0.2502 -0.2228  0.4877
  210MOL0    Cl28259   3.761   4.228  -1.111 -0.1381 -0.5226 -0.3511
  210MOL0     C28260   3.154   3.642  -0.137 -0.3429  0.8464 -0.1191
  210MOL0     C28261   3.084   3.542  -0.078  0.5508 -0.4682  0.1375
  210MOL0     O28262   2.863   3.439   0.079  0.3474 -0.4927 -0.1656
  210MOL0     C28263   2.738   3.126  -0.047  0.0081  0.4538  0.3446
  210MOL0     C28264   2.674   3.007  -0.006 -0.3354 -0.4524 -0.9611
  210MOL0     N28265   2.011   2.867   0.473  0.7911 -0.2524 -0.0048
  210MOL0     N28266   2.006   2.870   0.602 -0.0698  0.9040 -0.2364
  210MOL0     C28267   1.916   3.251   1.506  0.8456 -0.3388 -0.0636
  210MOL0     C28268   1.910   3.270   1.650  0.4523  0.6974  1.0418
  210MOL0     C28269   1.748   3.199   2.072 -0.1781 -0.5433 -0.4789
  210MOL0     C28270   1.687   3.280   2.168 -0.7389 -0.4467 -0.0862
  210MOL0     C28271   1.686   3.240   2.307  0.4057 -1.0396 -0.2754
  210MOL0     C28272   1.720   3.117   2.344 -0.0473 -0.4441  0.3022
  210MOL0     O28273   1.691   3.059   2.462  0.6058  0.4701  0.0804
  210MOL0     C28274   1.791   3.016   2.548 -0.6940  0.3464 -0.0554
  210MOL0     C28275   1.774   3.063   2.695 -0.6644 -0.4368 -0.7262
  210MOL0     C28276   1.889   3.019   2.787 -0.9537 -0.3433 -0.0837
  210MOL0     C28277   1.906   3.109   2.910 -0.7265 -0.4253  0.7219
  210MOL0     C28278   1.991   3.224   2.855 -0.0193  0.0138  0.1281
  210MOL0     C28279   2.033   3.343   2.837  0.2376 -0.2602  0.4001
  210MOL0     C28280   1.766   3.024   2.248 -0.5187  0.6454 -0.8719
  210MOL0     C28281   1.777   3.066   2.113  0.1692 -0.7735 -0.0599
  210MOL0     C28282   1.833   2.962   2.019  0.6801 -0.3343 -0.1780
  210MOL0     H28283   1.714   2.996   1.716 -1.7855  2.4474 -1.3624
  210MOL0     H28284   1.735   2.974   1.494  1.9313 -0.6621 -0.8225
  210MOL0     H28285   1.646   3.133   1.246 -0.5711  0.4193  2.5576
  210MOL0     H28286   1.697   3.282   1.316 -1.0833  0.5350 -0.2285
  210MOL0     H28287   1.883   3.246   1.089 -0.0557 -1.4786 -0.9815
  210MOL0     H28288   1.724   3.331   1.078 -2.7775 -0.9496  0.7800
  210MOL0     H28289   1.743   3.158   0.899  1.4295 -1.0560  0.0634
  210MOL0     H28290   1.616   3.115   1.008  0.0781 -4.7553  0.0277
  210MOL0     H28291   1.768   2.952   1.116 -1.9952  1.8802  1.3000
  210MOL0     H28292   1.767   2.927   0.939  3.3738 -0.3848  0.2906
  210MOL0     H28293   1.991   3.042   1.103  0.5818  2.2394 -1.2503
  210MOL0     H28294   1.998   2.906   1.006  2.1221  1.3326  2.2746
  210MOL0     H28295   1.928   3.059   0.802 -1.5221  1.5666  0.5027
  210MOL0     H28296   1.971   3.192   0.892  1.2448  0.4511 -3.3226
  210MOL0     H28297   2.202   3.097   0.936  0.0279 -0.2243  0.2369
  210MOL0     H28298   2.164   3.150   0.774 -0.9579  0.1174  0.6099
  210MOL0     H28299   2.288   2.953   0.763 -0.4925  1.0230 -2.8770
  210MOL0     H28300   2.179   2.860   0.851  2.2201 -3.2617 -3.4259
  210MOL0     H28301   2.277   3.034   0.540  0.7012 -1.5943 -2.3757
  210MOL0     H28302   2.095   2.891   0.229  1.0321 -1.7893  0.1475
  210MOL0     H28303   2.194   3.048   0.253 -0.0114  0.2583 -0.5899
  210MOL0     H28304   2.278   2.769   0.283  0.8939  0.0971 -0.5686
  210MOL0     H28305   2.329   2.884   0.154 -0.2399 -0.4132 -0.3791
  210MOL0     H28306   2.389   2.858   0.436 -0.7959  0.8373  0.4451
  210MOL0     H28307   2.441   3.013   0.353 -2.2213 -0.2940 -0.3343
  210MOL0     H28308   2.567   2.735   0.330  0.4644  1.1805  0.0757
  210MOL0     H28309   2.626   2.874   0.381 -1.3210 -6.2917  4.1378
  210MOL0     H28310   2.731   3.052   0.329  1.2820 -0.9587 -0.4749
  210MOL0     H28311   2.832   3.256   0.254  1.1751  0.2644 -1.1571
  210MOL0     H28312   2.998   3.374  -0.358  1.5465 -1.9309  0.3433
  210MOL0     H28313   3.138   3.544  -0.459 -0.5526  2.8819 -0.8130
  210MOL0     H28314   3.372   3.646  -0.470  0.4994 -0.9573 -0.5167
  210MOL0     H28315   3.226   3.715  -0.527  0.5659 -0.5359  0.2284
  210MOL0     H28316   3.308   3.925  -0.510 -0.8176 -0.4717  0.7081
  210MOL0     H28317   3.464   3.879  -0.452  1.0003 -3.5283 -0.3935
  210MOL0     H28318   3.516   3.770  -0.670  0.0743  1.0460 -0.7407
  210MOL0     H28319   3.345   3.771  -0.710 -0.4476  1.8329 -1.8782
  210MOL0     H28320   3.524   4.017  -0.687 -0.6250  2.2010 -0.7007
  210MOL0     H28321   3.360   4.001  -0.757  0.8263  0.6125  0.2112
  210MOL0     H28322   3.458   3.863  -0.938 -1.4761 -1.1911  2.9075
  210MOL0     H28323   3.612   3.863  -0.853  1.5546  2.4430  0.6263
  210MOL0     H28324   3.478   4.110  -0.971 -0.5791 -0.9244  0.0358
  210MOL0     H28325   3.638   4.105  -0.890  1.6945 -1.5455 -1.2478
  210MOL0     H28326   3.584   3.913  -1.114  0.6441 -1.1347  2.0432
  210MOL0     H28327   3.743   3.970  -1.048  1.1278  2.4947 -1.9798
  210MOL0     H28328   3.671   4.070  -1.281 -1.5175 -1.0917  0.3783
  210MOL0     H28329   3.543   4.148  -1.181  0.7852  2.1171 -0.0052
  210MOL0     H28330   3.224   3.701  -0.078  0.1549 -1.2063  1.4435
  210MOL0     H28331   3.099   3.545   0.029  1.3271 -1.9386  0.0972
  210MOL0     H28332   2.729   3.158  -0.151 -2.0294  0.3443  0.4423
  210MOL0     H28333   2.653   2.931  -0.081  1.1295 -2.1436  0.2451
  210MOL0     H28334   1.982   3.305   1.439 -0.9989 -0.5116 -2.1335
  210MOL0     H28335   1.961   3.359   1.682 -0.0351  1.2533  0.3078
  210MOL0     H28336   1.655   3.379   2.137 -1.3005 -0.9612 -1.2174
  210MOL0     H28337   1.652   3.316   2.376  0.4241 -0.8869 -0.4341
  210MOL0     H28338   1.888   3.062   2.525 -0.0969 -0.2225  1.2334
  210MOL0     H28339   1.817   2.910   2.550  1.3149  0.7083  3.9548
  210MOL0     H28340   1.676   3.026   2.729  0.6573 -1.2784  2.6350
  210MOL0     H28341   1.769   3.172   2.687  2.6547 -0.1246 -0.0878
  210MOL0     H28342   1.988   3.025   2.742  0.1835  0.7694  2.3580
  210MOL0     H28343   1.872   2.914   2.814  0.1460 -0.4602  0.1996
  210MOL0     H28344   1.813   3.147   2.951 -0.6358  1.6885 -0.8340
  210MOL0     H28345   1.942   3.051   2.995 -1.2134 -1.5133  0.2046
  210MOL0     H28346   2.058   3.446   2.818  0.3340  0.0034  1.8125
  210MOL0     H28347   1.787   2.920   2.271  2.6957  0.7179 -2.9220
  210MOL0     H28348   1.841   2.859   2.055 -2.3114 -0.3584  0.7497
  210MOL0     H28349   1.761   2.961   1.936 -0.2423  0.6614  0.5805
  210MOL0     H28350   1.930   2.986   1.975  0.9555  0.9557  1.0948
  211MOL0     O28351   9.841   3.303   7.972  0.3131 -0.2277  0.1606
  211MOL0     C28352   9.767   3.397   7.995 -0.9761  0.1211  0.8885
  211MOL0     O28353   9.685   3.451   7.899 -0.7958 -1.0396 -0.0006
  211MOL0     C28354   9.693   3.401   7.772 -0.4612  0.6840 -0.4446
  211MOL0     C28355   9.587   3.321   7.731  0.0701  0.2309  0.9659
  211MOL0     C28356   9.579   3.259   7.603 -0.6530 -0.7913 -0.2053
  211MOL0     C28357   9.679   3.292   7.509 -0.9011  0.3156  0.1514
  211MOL0     O28358   9.670   3.254   7.378  1.1125 -0.3713 -0.1184
  211MOL0     C28359   9.543   3.251   7.314  0.2284  0.2944 -0.3350
  211MOL0     C28360   9.577   3.294   7.171  0.4445  0.3955  0.3963
  211MOL0     C28361   9.460   3.277   7.077  0.0167  0.0859  0.1423
  211MOL0     C28362   9.441   3.128   7.051 -0.5136 -0.8265  0.2181
  211MOL0     C28363   9.338   3.116   6.944  0.4080 -1.1857 -0.1207
  211MOL0     C28364   9.329   2.968   6.911 -0.6044 -0.4260 -0.6199
  211MOL0     C28365   9.255   2.923   6.792  0.2467 -0.0065 -0.5212
  211MOL0     C28366   9.276   2.997   6.659 -0.8218  0.2341  0.1611
  211MOL0     N28367   9.202   2.963   6.539 -0.1074 -0.6537  0.4943
  211MOL0     C28368   9.246   2.882   6.436 -0.5894  1.1735 -0.2821
  211MOL0     C28369   9.134   2.871   6.363  0.2422  0.5296  0.2502
  211MOL0     C28370   9.103   2.803   6.235  0.0063 -0.1258 -0.0330
  211MOL0     C28371   9.208   2.822   6.127 -0.1692  0.0286 -0.5554
  211MOL0     C28372   9.176   2.807   5.983  0.3848 -1.1435 -0.4027
  211MOL0     C28373   9.308   2.835   5.897 -0.3664 -0.3747  0.7173
  211MOL0     O28374   9.327   2.976   5.880 -0.1925  0.0849  0.2448
  211MOL0     C28375   9.246   3.050   5.800  0.0351 -0.8805 -1.0750
  211MOL0     C28376   9.146   2.997   5.710 -0.8319 -0.5881 -0.2016
  211MOL0     C28377   9.061   3.090   5.647  0.2377 -0.0150  0.2445
  211MOL0     C28378   9.082   3.233   5.644 -0.2071  0.9050 -0.7286
  211MOL0     C28379   8.996   3.323   5.585 -0.4766  0.1944  0.2912
  211MOL0     O28380   9.011   3.450   5.621 -0.1228 -0.0651 -0.0009
  211MOL0     C28381   8.923   3.549   5.585  0.9086 -0.6208  0.7764
  211MOL0     C28382   8.878   3.566   5.449 -0.1303  0.5704  0.1069
  211MOL0     C28383   8.791   3.670   5.426  0.1148 -0.2736 -0.4781
  211MOL0     C28384   8.744   3.767   5.519 -0.2365 -1.0300 -0.4095
  211MOL0     O28385   8.660   3.861   5.476  0.1976  0.3530  0.3440
  211MOL0     C28386   8.659   3.994   5.535  0.0088  0.1570  0.5731
  211MOL0     C28387   8.658   4.106   5.418 -0.0337  0.0198  0.4177
  211MOL0     C28388   8.800   4.139   5.367 -0.6047 -0.0160 -0.4333
  211MOL0     C28389   8.805   4.238   5.246  0.1922  0.0034 -0.0230
  211MOL0     C28390   8.943   4.268   5.192 -0.6153  0.2756 -1.1116
  211MOL0     C28391   8.950   4.392   5.106  0.4510  0.4474  0.7541
  211MOL0     C28392   9.083   4.399   5.018  1.2715  0.1143  0.2915
  211MOL0     C28393   9.053   4.398   4.870  0.7326 -0.0720  1.0750
  211MOL0    Cl28394   8.960   4.254   4.802  0.1910 -0.0325  0.5844
  211MOL0     C28395   8.794   3.752   5.651  0.2302 -0.9786  0.1262
  211MOL0     C28396   8.877   3.645   5.679  0.3609  1.0487 -0.2104
  211MOL0     O28397   8.905   3.285   5.514  0.2976 -0.0807 -0.7754
  211MOL0     C28398   9.185   3.277   5.730  0.1591 -1.6572  0.4926
  211MOL0     C28399   9.254   3.188   5.808  0.0021 -0.1273 -0.7558
  211MOL0     N28400   9.030   2.938   6.426  0.5233  0.4252  1.0853
  211MOL0     N28401   9.074   3.004   6.523 -0.2932 -0.0795  0.0356
  211MOL0     C28402   9.797   3.358   7.558 -0.0991  0.4222 -0.5806
  211MOL0     C28403   9.806   3.406   7.694 -0.3225 -0.7522  0.3805
  211MOL0     C28404   9.749   3.455   8.128 -1.1373 -0.4494 -0.1848
  211MOL0     C28405   9.675   3.576   8.134  0.2907  0.2582  0.1303
  211MOL0     C28406   9.644   3.642   8.252  0.5830  0.2631 -0.2691
  211MOL0     C28407   9.687   3.586   8.367 -0.4115  0.3374 -0.3830
  211MOL0     O28408   9.651   3.645   8.493  0.1020  0.6447 -0.0535
  211MOL0     C28409   9.604   3.557   8.602 -0.8500 -0.2031  0.8030
  211MOL0     C28410   9.453   3.533   8.597  0.1122  0.3978 -0.0731
  211MOL0     C28411   9.420   3.402   8.670  0.1596  0.1922 -0.5751
  211MOL0     C28412   9.271   3.389   8.682  0.3031 -0.3612  0.4819
  211MOL0     C28413   9.224   3.272   8.747 -0.1568  0.3662 -0.7254
  211MOL0     C28414   9.200   3.171   8.811 -0.7763 -0.5231 -0.5305
  211MOL0     C28415   9.765   3.465   8.370  1.0090  0.2822 -0.5326
  211MOL0     C28416   9.801   3.402   8.252 -0.5344 -0.3207  1.1424
  211MOL0     C28417   9.883   3.279   8.259 -0.7946 -0.0041 -0.0147
  211MOL0     H28418   9.505   3.285   7.792 -0.8654 -1.9937 -1.3690
  211MOL0     H28419   9.490   3.207   7.570 -0.6957  1.2013 -3.7598
  211MOL0     H28420   9.491   3.154   7.316 -2.0142  1.4474  1.0306
  211MOL0     H28421   9.470   3.325   7.347 -1.7101 -1.6223 -0.0314
  211MOL0     H28422   9.663   3.244   7.125  1.3970 -1.7717  4.1107
  211MOL0     H28423   9.604   3.400   7.179 -1.5809  1.5940 -4.7299
  211MOL0     H28424   9.478   3.333   6.985  1.6832 -2.2750 -1.0884
  211MOL0     H28425   9.366   3.305   7.125 -2.2559  0.3187 -3.9701
  211MOL0     H28426   9.535   3.084   7.016 -0.5523  0.4919 -1.7233
  211MOL0     H28427   9.422   3.060   7.134 -1.9668 -3.7036 -2.2378
  211MOL0     H28428   9.252   3.159   6.998  1.8859  0.6176  0.9328
  211MOL0     H28429   9.370   3.182   6.863 -2.1890  1.3004  0.7046
  211MOL0     H28430   9.429   2.943   6.876 -1.1822 -1.5558 -1.5062
  211MOL0     H28431   9.301   2.908   6.998 -1.7601 -0.6901 -1.1463
  211MOL0     H28432   9.150   2.913   6.821  0.4808  0.8657  0.6938
  211MOL0     H28433   9.274   2.822   6.757 -0.4695 -0.0986 -0.6708
  211MOL0     H28434   9.247   3.099   6.687  1.3536  1.4168 -1.6071
  211MOL0     H28435   9.383   2.986   6.642 -1.2407 -4.8873 -0.7440
  211MOL0     H28436   9.339   2.836   6.404 -0.1763  1.4653  0.4701
  211MOL0     H28437   9.110   2.694   6.239 -1.9770 -0.6387 -4.6519
  211MOL0     H28438   9.015   2.841   6.182  0.9630 -0.8251 -2.2435
  211MOL0     H28439   9.260   2.917   6.147  2.8060 -1.5264 -0.2533
  211MOL0     H28440   9.287   2.749   6.148  1.8598  2.2722  0.1479
  211MOL0     H28441   9.102   2.879   5.947  2.0909 -0.8124 -3.6908
  211MOL0     H28442   9.142   2.707   5.954  1.0323 -1.9799  1.5287
  211MOL0     H28443   9.296   2.797   5.795  2.1742 -0.7844  0.4970
  211MOL0     H28444   9.396   2.794   5.947  1.2850  2.9254  0.8261
  211MOL0     H28445   9.141   2.893   5.683  1.1309 -0.5005 -1.0348
  211MOL0     H28446   8.981   3.043   5.591 -0.3579 -1.0219  1.8656
  211MOL0     H28447   8.902   3.495   5.371 -1.1059  0.2503  0.0757
  211MOL0     H28448   8.754   3.687   5.325 -1.2816  2.8375  0.4215
  211MOL0     H28449   8.565   4.009   5.590 -1.4230 -1.6072 -1.2208
  211MOL0     H28450   8.744   4.002   5.603 -0.0553 -1.3045  0.8409
  211MOL0     H28451   8.593   4.067   5.339 -0.2064 -0.4450  0.7810
  211MOL0     H28452   8.611   4.193   5.464 -0.5158  1.1758 -2.1021
  211MOL0     H28453   8.858   4.175   5.453 -3.9985 -0.3046  2.2145
  211MOL0     H28454   8.851   4.049   5.332 -0.1226 -0.5684  1.5306
  211MOL0     H28455   8.773   4.339   5.274  0.5532  0.4790 -1.2431
  211MOL0     H28456   8.734   4.206   5.169  0.7238  0.3442 -0.6630
  211MOL0     H28457   8.987   4.181   5.143  2.3385  2.1318 -1.9952
  211MOL0     H28458   9.000   4.288   5.283 -1.1196 -1.4069 -0.3663
  211MOL0     H28459   8.861   4.395   5.043  0.7368 -1.4891  0.2036
  211MOL0     H28460   8.937   4.477   5.174  2.3248  0.9448  0.5464
  211MOL0     H28461   9.151   4.318   5.045 -2.0344 -2.5337  1.3339
  211MOL0     H28462   9.122   4.499   5.043 -1.8190  1.1393  1.4199
  211MOL0     H28463   8.994   4.487   4.846  0.4162 -0.3873  0.6914
  211MOL0     H28464   9.148   4.406   4.817  0.8202 -0.0987  1.2251
  211MOL0     H28465   8.762   3.829   5.721  1.6390 -1.8910  1.8746
  211MOL0     H28466   8.911   3.629   5.781 -0.5356 -0.0715 -0.0610
  211MOL0     H28467   9.220   3.378   5.745  0.4489 -1.5940 -0.5519
  211MOL0     H28468   9.333   3.209   5.879  0.1745  3.9362 -1.9116
  211MOL0     H28469   9.885   3.357   7.494 -0.6375 -1.2562 -1.3332
  211MOL0     H28470   9.895   3.461   7.723 -0.5356  0.7870 -1.6548
  211MOL0     H28471   9.640   3.629   8.046  1.2094  1.2683  0.3612
  211MOL0     H28472   9.583   3.731   8.265  0.6365  0.2414  0.1415
  211MOL0     H28473   9.620   3.609   8.697 -0.6612  0.0195  0.6481
  211MOL0     H28474   9.669   3.469   8.608  0.3046  0.7366  3.5489
  211MOL0     H28475   9.434   3.534   8.490  2.5597 -0.9572 -0.5776
  211MOL0     H28476   9.409   3.617   8.653 -1.6712 -1.6883  1.8436
  211MOL0     H28477   9.468   3.401   8.768  2.4021 -1.0370 -1.5996
  211MOL0     H28478   9.457   3.313   8.617 -4.0675 -0.3251 -3.1413
  211MOL0     H28479   9.233   3.472   8.742 -4.1035 -1.1429 -0.9091
  211MOL0     H28480   9.216   3.383   8.587 -1.1070 -0.6526  1.2990
  211MOL0     H28481   9.183   3.080   8.866 -1.0748  0.5525  1.2462
  211MOL0     H28482   9.818   3.418   8.453  2.3628 -0.0782 -1.5712
  211MOL0     H28483   9.885   3.244   8.362 -4.0667 -2.2216 -0.5546
  211MOL0     H28484   9.836   3.200   8.200  0.0649 -1.0044  0.5994
  211MOL0     H28485   9.981   3.301   8.215 -0.1676 -3.0046 -0.3483
  212MOL0     O28486   1.624   0.751   1.530  0.0379  0.0376 -0.9064
  212MOL0     C28487   1.547   0.816   1.610 -0.2071 -0.2122  0.8666
  212MOL0     O28488   1.486   0.772   1.723 -0.7161 -0.6264 -0.4081
  212MOL0     C28489   1.538   0.654   1.769  0.9351  0.2348 -0.2542
  212MOL0     C28490   1.660   0.654   1.830  0.3310 -0.2356  0.5533
  212MOL0     C28491   1.712   0.528   1.874 -0.2751  0.1891 -0.1233
  212MOL0     C28492   1.634   0.412   1.895 -0.5152 -0.4493  0.9103
  212MOL0     O28493   1.677   0.293   1.950  0.0092  0.3350 -0.2479
  212MOL0     C28494   1.813   0.250   1.938 -0.5533  0.0658 -0.1020
  212MOL0     C28495   1.877   0.194   2.071  1.5589 -0.3712  0.4927
  212MOL0     C28496   1.859   0.308   2.176 -0.3040  0.3389  0.4670
  212MOL0     C28497   1.948   0.290   2.306  0.7790  1.2671  0.1150
  212MOL0     C28498   1.922   0.369   2.433 -0.1370 -0.0366  0.5247
  212MOL0     C28499   2.021   0.323   2.541  1.0761 -0.4303  0.1982
  212MOL0     C28500   1.978   0.366   2.680  0.2836 -0.9297 -0.3638
  212MOL0     C28501   1.956   0.520   2.707  0.1466  0.8254 -0.6279
  212MOL0     N28502   1.900   0.618   2.614 -0.2042  0.5140 -0.4555
  212MOL0     C28503   1.777   0.619   2.566  0.2216  0.7123 -0.4472
  212MOL0     C28504   1.785   0.713   2.472 -0.5609  0.5617  0.6821
  212MOL0     C28505   1.681   0.757   2.375 -0.1969  0.2151 -0.3559
  212MOL0     C28506   1.666   0.912   2.374 -0.3657 -0.4379  0.1725
  212MOL0     C28507   1.542   0.952   2.297  0.0854 -0.2016 -1.6885
  212MOL0     C28508   1.538   0.902   2.149  0.2630  0.4604  0.7352
  212MOL0     O28509   1.466   0.779   2.157  0.3261 -0.4358 -0.7761
  212MOL0     C28510   1.339   0.776   2.107  0.0430 -0.7425 -0.3247
  212MOL0     C28511   1.299   0.646   2.064  0.0156 -0.6074 -0.0847
  212MOL0     C28512   1.188   0.628   1.988  0.6163  0.1795 -0.1404
  212MOL0     C28513   1.091   0.739   1.972 -0.3625 -0.2402 -0.0675
  212MOL0     C28514   0.954   0.716   1.907  0.2070 -1.1307 -0.2144
  212MOL0     O28515   0.904   0.834   1.855 -0.3328  0.5515  0.1508
  212MOL0     C28516   0.769   0.818   1.827  0.4484 -0.9420  0.2943
  212MOL0     C28517   0.663   0.850   1.911  0.6622  0.6502  0.0869
  212MOL0     C28518   0.532   0.826   1.878 -0.4667  0.2547 -0.4026
  212MOL0     C28519   0.503   0.770   1.750  0.6447  0.5150 -0.4513
  212MOL0     O28520   0.365   0.735   1.717  0.0222  0.0565 -0.1983
  212MOL0     C28521   0.268   0.752   1.826 -0.2949 -0.2435  0.0674
  212MOL0     C28522   0.139   0.692   1.771  0.0211  0.7481  0.4718
  212MOL0     C28523   0.125   0.545   1.813 -0.0893 -0.4826  0.7759
  212MOL0     C28524  -0.017   0.485   1.767 -0.0077 -0.4406  0.2766
  212MOL0     C28525  -0.036   0.342   1.804  0.1847  0.0339 -0.7156
  212MOL0     C28526  -0.182   0.305   1.791  0.0762 -0.7643  0.4448
  212MOL0     C28527  -0.267   0.334   1.911 -0.5363  1.6810 -0.1674
  212MOL0     C28528  -0.230   0.225   2.021 -0.4607 -0.3401  0.9933
  212MOL0    Cl28529  -0.357   0.223   2.147  0.4644 -0.7085 -0.3309
  212MOL0     C28530   0.607   0.734   1.665  1.0443  0.5665  0.1398
  212MOL0     C28531   0.743   0.755   1.704 -0.7263  0.5317  0.1601
  212MOL0     O28532   0.891   0.608   1.918 -0.0509 -0.3925  0.1406
  212MOL0     C28533   1.128   0.869   2.019  0.0459  0.3978  0.0724
  212MOL0     C28534   1.254   0.888   2.081 -0.8407 -0.9536  0.6213
  212MOL0     N28535   1.912   0.766   2.467 -0.7339 -0.0283 -0.6118
  212MOL0     N28536   1.983   0.710   2.555  0.3258  0.0994 -0.6105
  212MOL0     C28537   1.508   0.414   1.845 -0.4453 -0.2131 -0.5828
  212MOL0     C28538   1.460   0.531   1.780 -0.1320  0.3023  0.1088
  212MOL0     C28539   1.522   0.957   1.557 -0.0928 -1.0736 -0.1535
  212MOL0     C28540   1.587   0.994   1.433  0.0221 -1.0871  0.9719
  212MOL0     C28541   1.573   1.116   1.372 -0.6312  0.0003  0.3389
  212MOL0     C28542   1.501   1.219   1.438 -0.2803  0.2112 -0.4190
  212MOL0     O28543   1.464   1.345   1.380  0.1564  0.0873  0.3273
  212MOL0     C28544   1.559   1.450   1.372 -0.1960  0.2578  0.0168
  212MOL0     C28545   1.597   1.523   1.499  0.4311  0.7358  0.1952
  212MOL0     C28546   1.459   1.588   1.554 -0.1979 -0.3153  0.5886
  212MOL0     C28547   1.469   1.624   1.705 -1.0309  0.0139 -0.4473
  212MOL0     C28548   1.484   1.765   1.722  0.8036  0.1863 -1.0147
  212MOL0     C28549   1.490   1.883   1.735 -0.5591 -0.5526 -0.6978
  212MOL0     C28550   1.433   1.186   1.558 -0.0849  1.0192 -0.5312
  212MOL0     C28551   1.445   1.054   1.622  0.1563  0.1641  0.0232
  212MOL0     C28552   1.368   1.015   1.749 -0.1900 -0.5273  0.1185
  212MOL0     H28553   1.714   0.748   1.829  0.1199 -0.0566  2.3954
  212MOL0     H28554   1.817   0.536   1.900 -0.1574  1.0509 -0.8054
  212MOL0     H28555   1.817   0.160   1.875 -3.7691  2.1632 -3.7251
  212MOL0     H28556   1.886   0.322   1.901  0.9155  0.1753  2.7164
  212MOL0     H28557   1.977   0.155   2.049  1.8529  0.8540 -0.4330
  212MOL0     H28558   1.807   0.127   2.121 -1.1674  2.3500  0.6224
  212MOL0     H28559   1.751   0.314   2.193 -0.5136 -2.0255  0.2441
  212MOL0     H28560   1.898   0.398   2.128 -1.7059  1.2342  0.9444
  212MOL0     H28561   1.921   0.187   2.331  0.8401  1.4561  1.0089
  212MOL0     H28562   2.055   0.287   2.285  1.0572  3.7514  0.8439
  212MOL0     H28563   1.936   0.475   2.412 -0.1370 -0.3547 -1.2380
  212MOL0     H28564   1.815   0.356   2.454 -0.4471  2.5498  0.8724
  212MOL0     H28565   2.031   0.214   2.540  1.1079 -0.4452 -1.6748
  212MOL0     H28566   2.116   0.367   2.512  0.5075  0.4681 -0.3588
  212MOL0     H28567   2.046   0.328   2.756  1.2247  2.2172  0.5190
  212MOL0     H28568   1.878   0.329   2.704 -0.9892  2.3603 -0.0562
  212MOL0     H28569   1.900   0.531   2.800  0.9487  4.0363 -0.4108
  212MOL0     H28570   2.059   0.556   2.716  1.3897 -2.5156 -0.0276
  212MOL0     H28571   1.693   0.557   2.596 -0.7537  2.1047 -0.2285
  212MOL0     H28572   1.690   0.707   2.278  1.1999  1.5153 -0.9384
  212MOL0     H28573   1.588   0.720   2.419 -0.0553  1.3392  0.9830
  212MOL0     H28574   1.661   0.957   2.474 -3.9323  0.6710 -0.3404
  212MOL0     H28575   1.749   0.973   2.339 -1.8892  2.4132  1.1185
  212MOL0     H28576   1.547   1.061   2.293  5.6184 -0.0146  1.1112
  212MOL0     H28577   1.463   0.929   2.370  2.7176  2.5037  2.5074
  212MOL0     H28578   1.638   0.886   2.108  0.7254 -2.4382  2.6991
  212MOL0     H28579   1.481   0.973   2.087 -2.3726 -3.0871 -1.2744
  212MOL0     H28580   1.364   0.566   2.097 -1.0311 -2.6312 -2.5838
  212MOL0     H28581   1.162   0.529   1.952  1.6158  0.2074 -0.9752
  212MOL0     H28582   0.680   0.894   2.009 -1.0190 -0.4087  0.9015
  212MOL0     H28583   0.457   0.864   1.946 -0.4734  1.0369 -0.8333
  212MOL0     H28584   0.309   0.692   1.908 -0.6399  0.0680  0.4706
  212MOL0     H28585   0.254   0.857   1.852 -0.0713 -0.2130  0.0653
  212MOL0     H28586   0.061   0.749   1.823  0.0023  0.6994  0.4969
  212MOL0     H28587   0.128   0.695   1.663  2.4449 -0.5120  0.1134
  212MOL0     H28588   0.197   0.483   1.760 -0.8384 -0.3455 -0.4440
  212MOL0     H28589   0.137   0.525   1.920 -0.4155 -0.2468  0.8582
  212MOL0     H28590  -0.031   0.502   1.660  3.1819  2.4247  0.1485
  212MOL0     H28591  -0.088   0.550   1.820 -0.4452  0.2102 -1.0680
  212MOL0     H28592   0.001   0.308   1.901  1.0922  0.2295 -0.9873
  212MOL0     H28593   0.023   0.282   1.734 -1.2341  2.7093 -4.5392
  212MOL0     H28594  -0.222   0.357   1.704 -0.7075  2.3869  2.5228
  212MOL0     H28595  -0.182   0.196   1.776  1.4693 -0.7158 -0.1125
  212MOL0     H28596  -0.370   0.311   1.882 -0.0908 -1.0773  0.2462
  212MOL0     H28597  -0.256   0.434   1.954 -0.1005  0.1789  3.5512
  212MOL0     H28598  -0.221   0.129   1.968 -1.5286  0.3063 -0.4205
  212MOL0     H28599  -0.137   0.256   2.068  1.1953  0.2357 -2.4367
  212MOL0     H28600   0.587   0.678   1.574  0.0127 -1.3795  1.4728
  212MOL0     H28601   0.821   0.712   1.642  0.4007  1.1895  1.0954
  212MOL0     H28602   1.064   0.956   2.012  0.0349  0.2483 -3.2171
  212MOL0     H28603   1.293   0.989   2.085  0.0111 -1.1569 -1.3871
  212MOL0     H28604   1.455   0.319   1.846 -0.1577 -0.4923 -3.1871
  212MOL0     H28605   1.358   0.532   1.743 -0.1191 -0.7684  0.0119
  212MOL0     H28606   1.648   0.925   1.376  0.5267  0.3725 -0.3243
  212MOL0     H28607   1.608   1.139   1.272  0.0350 -0.0525  0.5594
  212MOL0     H28608   1.522   1.532   1.309  0.2136  2.1213  2.0860
  212MOL0     H28609   1.658   1.425   1.332 -0.4656  0.0538 -0.5377
  212MOL0     H28610   1.670   1.601   1.475 -0.9603  1.7680 -0.8066
  212MOL0     H28611   1.648   1.448   1.560  1.3725  1.0449 -0.1910
  212MOL0     H28612   1.376   1.518   1.541 -1.6823  1.8935 -3.6202
  212MOL0     H28613   1.443   1.679   1.494 -0.7822  0.6405  2.1506
  212MOL0     H28614   1.370   1.616   1.751 -0.4249  4.5877  2.2411
  212MOL0     H28615   1.554   1.570   1.748  0.4818  1.3766 -1.6024
  212MOL0     H28616   1.470   1.988   1.734  2.0693  0.0287  0.5338
  212MOL0     H28617   1.364   1.253   1.609  0.8528 -0.6073  3.2339
  212MOL0     H28618   1.304   1.099   1.775  1.6295  1.4849 -1.5247
  212MOL0     H28619   1.314   0.921   1.735  1.3718 -1.4050 -0.3530
  212MOL0     H28620   1.438   0.999   1.832  1.3421 -1.1789 -1.2326
  213MOL0     O28621   6.019  11.447   7.404 -0.1420  0.2084 -0.1680
  213MOL0     C28622   6.130  11.395   7.441  0.1718 -0.4231  0.1552
  213MOL0     O28623   6.149  11.315   7.551 -0.0591 -0.2281  0.4405
  213MOL0     C28624   6.054  11.288   7.643  0.3141 -0.5168 -0.1723
  213MOL0     C28625   6.027  11.151   7.666 -0.2886  0.4122 -0.1599
  213MOL0     C28626   5.918  11.113   7.739 -0.7617 -0.0483 -1.0945
  213MOL0     C28627   5.842  11.211   7.817  0.5786  0.9089  0.3523
  213MOL0     O28628   5.734  11.173   7.899 -0.1356 -0.1153  0.0887
  213MOL0     C28629   5.724  11.252   8.020 -0.6874 -0.7670  0.0454
  213MOL0     C28630   5.624  11.187   8.112  0.5397  0.5176 -0.1701
  213MOL0     C28631   5.594  11.274   8.235  0.3843 -0.7479  0.1060
  213MOL0     C28632   5.533  11.206   8.343  1.0582 -0.6275  0.0643
  213MOL0     C28633   5.519  11.305   8.463 -0.0909 -0.5767  0.1098
  213MOL0     C28634   5.414  11.263   8.563  0.6779  0.5861  1.0654
  213MOL0     C28635   5.422  11.324   8.700  0.9471  0.2440 -0.2351
  213MOL0     C28636   5.434  11.473   8.698  0.8769 -0.2704 -0.7054
  213MOL0     N28637   5.430  11.510   8.837 -0.4524 -0.3511  0.4987
  213MOL0     C28638   5.318  11.546   8.907  0.1686  0.1940  0.0775
  213MOL0     C28639   5.370  11.570   9.027  0.3891  0.1451 -0.5623
  213MOL0     C28640   5.281  11.590   9.149  0.0208  0.9056 -0.3397
  213MOL0     C28641   5.337  11.700   9.244 -0.2691  0.0310  0.2550
  213MOL0     C28642   5.320  11.841   9.184  0.8830 -1.3949  0.5754
  213MOL0     C28643   5.373  11.955   9.280 -0.7457  0.0169 -0.0128
  213MOL0     O28644   5.301  11.936   9.396  0.2840 -0.0848 -0.0614
  213MOL0     C28645   5.205  12.032   9.435 -0.4351  0.0483  0.6850
  213MOL0     C28646   5.142  12.129   9.353 -0.0714 -0.0500 -0.6615
  213MOL0     C28647   5.055  12.226   9.407 -0.2746  0.2992  0.5349
  213MOL0     C28648   5.023  12.210   9.543 -1.0520  0.4713  0.1307
  213MOL0     C28649   4.927  12.303   9.596  0.2511  0.3410 -0.3149
  213MOL0     O28650   4.897  12.279   9.735 -0.1387 -0.0777  0.1633
  213MOL0     C28651   4.839  12.388   9.798  0.5359  0.4038 -0.3354
  213MOL0     C28652   4.890  12.517   9.793  0.5192 -0.0737 -0.3013
  213MOL0     C28653   4.839  12.619   9.878 -0.0835 -1.1053  0.2706
  213MOL0     C28654   4.734  12.588   9.964 -0.2266  0.6970  0.0924
  213MOL0     O28655   4.703  12.684  10.055 -0.6739 -0.5699  0.8648
  213MOL0     C28656   4.604  12.671  10.170 -0.1941  0.1967  0.4259
  213MOL0     C28657   4.608  12.800  10.263  0.2839 -0.0892  0.0605
  213MOL0     C28658   4.499  12.805  10.373 -0.8847 -0.0276 -0.1808
  213MOL0     C28659   4.360  12.845  10.325  1.4617  1.7959 -0.3220
  213MOL0     C28660   4.261  12.787  10.427 -0.0790  0.2942  0.6665
  213MOL0     C28661   4.125  12.853  10.422  0.8740 -0.2380  0.3694
  213MOL0     C28662   4.024  12.767  10.487 -0.7644  0.2746  0.4919
  213MOL0     C28663   3.888  12.817  10.436 -0.9386 -0.6472  0.3179
  213MOL0    Cl28664   3.871  12.788  10.262 -0.2754 -0.3343  0.1654
  213MOL0     C28665   4.674  12.462   9.952 -0.5451 -0.0044 -0.2183
  213MOL0     C28666   4.721  12.367   9.864  0.6293 -0.1378 -0.0672
  213MOL0     O28667   4.886  12.401   9.532 -0.0817  0.4746  0.1937
  213MOL0     C28668   5.068  12.103   9.624  0.1294  0.1647 -0.2519
  213MOL0     C28669   5.159  12.013   9.565 -0.3776 -0.6093  0.2517
  213MOL0     N28670   5.508  11.561   9.020  0.7808 -0.3876  0.1645
  213MOL0     N28671   5.545  11.526   8.909 -0.6118 -0.4011 -0.4972
  213MOL0     C28672   5.870  11.343   7.793  0.3431 -0.0130 -0.5064
  213MOL0     C28673   5.981  11.384   7.716 -0.1080  0.0446  1.0418
  213MOL0     C28674   6.255  11.430   7.366  0.1734  1.0814  0.2686
  213MOL0     C28675   6.366  11.480   7.433 -0.2024  0.2402 -0.8866
  213MOL0     C28676   6.486  11.517   7.362  1.4805 -0.1403 -0.8089
  213MOL0     C28677   6.485  11.514   7.228 -0.6649 -0.1282  0.1518
  213MOL0     O28678   6.593  11.557   7.151  0.4170  0.4026 -0.3457
  213MOL0     C28679   6.724  11.547   7.215  0.0301 -0.1718 -0.2911
  213MOL0     C28680   6.844  11.564   7.111 -0.0466  0.2361 -0.0443
  213MOL0     C28681   6.984  11.555   7.181  0.6319  0.8603 -0.7713
  213MOL0     C28682   7.094  11.567   7.080  0.2791 -0.9011  0.2098
  213MOL0     C28683   7.218  11.504   7.113 -0.2562  0.0869 -0.8243
  213MOL0     C28684   7.326  11.461   7.113 -0.8976 -0.8314  0.2523
  213MOL0     C28685   6.372  11.479   7.158  0.3350  1.0378  0.2959
  213MOL0     C28686   6.256  11.432   7.222 -0.4878 -0.2389 -0.5510
  213MOL0     C28687   6.140  11.399   7.144  0.0113  0.3285  0.6039
  213MOL0     H28688   6.077  11.069   7.616 -2.7819 -2.3067  1.4641
  213MOL0     H28689   5.904  11.005   7.736 -0.1664 -0.1471 -0.4865
  213MOL0     H28690   5.822  11.265   8.067 -0.5872 -0.7666 -0.1609
  213MOL0     H28691   5.688  11.354   8.007 -0.7654 -0.5736  1.6036
  213MOL0     H28692   5.666  11.087   8.129  0.0911  0.3888  0.2272
  213MOL0     H28693   5.534  11.170   8.051  0.8200 -4.2527  0.3581
  213MOL0     H28694   5.526  11.354   8.204  0.5719  0.0561  1.6898
  213MOL0     H28695   5.683  11.319   8.281 -1.0836 -0.4845  2.8857
  213MOL0     H28696   5.440  11.158   8.314  0.7285  0.4378 -0.6925
  213MOL0     H28697   5.602  11.124   8.367  1.8508  0.4104  1.5451
  213MOL0     H28698   5.619  11.298   8.505 -0.4371 -0.9283  0.9040
  213MOL0     H28699   5.497  11.410   8.444  0.7576  0.1522  2.7681
  213MOL0     H28700   5.318  11.283   8.515  1.3512  3.4708  0.7740
  213MOL0     H28701   5.426  11.154   8.566 -3.5694 -0.1285 -0.5955
  213MOL0     H28702   5.511  11.288   8.752  0.9523  3.0638  1.8889
  213MOL0     H28703   5.335  11.292   8.758  0.4385  1.9318 -0.0064
  213MOL0     H28704   5.528  11.493   8.646  0.6382 -0.2976 -1.1585
  213MOL0     H28705   5.351  11.521   8.646  1.2871  1.8806  0.4927
  213MOL0     H28706   5.216  11.536   8.871 -0.2717 -1.3552  1.6386
  213MOL0     H28707   5.183  11.626   9.117  0.4331  0.0279 -2.8452
  213MOL0     H28708   5.260  11.500   9.208 -1.3543 -0.3164 -2.5133
  213MOL0     H28709   5.282  11.689   9.338  1.5739  0.4122  1.4199
  213MOL0     H28710   5.443  11.678   9.254  0.1822  1.2352 -1.4237
  213MOL0     H28711   5.215  11.859   9.157  0.1555 -2.2830  2.6140
  213MOL0     H28712   5.368  11.858   9.088  1.4943 -0.5692  1.0143
  213MOL0     H28713   5.361  12.051   9.230 -4.4422  0.8450  2.1374
  213MOL0     H28714   5.481  11.946   9.300 -0.4069  1.5974 -0.9466
  213MOL0     H28715   5.165  12.146   9.248  0.1728 -3.3321 -1.2290
  213MOL0     H28716   5.013  12.302   9.341  0.0147 -1.7938 -2.2544
  213MOL0     H28717   4.980  12.535   9.735  1.9654 -1.3978  1.4084
  213MOL0     H28718   4.884  12.717   9.870  1.7386 -1.9385 -0.2776
  213MOL0     H28719   4.500  12.660  10.139  0.0449  0.9541 -0.6908
  213MOL0     H28720   4.633  12.594  10.242  2.2609 -1.6344 -2.2469
  213MOL0     H28721   4.711  12.805  10.297  1.4453 -1.0435 -2.9396
  213MOL0     H28722   4.596  12.887  10.198 -1.7287 -0.2213  0.1877
  213MOL0     H28723   4.486  12.704  10.413  0.1080  0.4984  1.5701
  213MOL0     H28724   4.527  12.879  10.448 -1.1181  0.0275 -0.1451
  213MOL0     H28725   4.325  12.801  10.230 -1.6549  1.7667  0.7101
  213MOL0     H28726   4.351  12.951  10.302 -2.0907  1.2254 -2.4117
  213MOL0     H28727   4.311  12.795  10.523  3.4155 -1.9768 -0.7311
  213MOL0     H28728   4.236  12.683  10.400 -0.6304  1.0023 -1.7959
  213MOL0     H28729   4.127  12.934  10.495  0.9183  0.4975 -0.4272
  213MOL0     H28730   4.089  12.871  10.320 -0.6495  0.2376  0.9815
  213MOL0     H28731   4.023  12.792  10.593  1.5045 -0.1208  0.6629
  213MOL0     H28732   4.044  12.660  10.473  0.2381  0.6091 -0.9429
  213MOL0     H28733   3.811  12.758  10.487 -1.7879  1.0085  1.0446
  213MOL0     H28734   3.876  12.922  10.465  1.6490  0.1252 -1.1131
  213MOL0     H28735   4.588  12.446  10.016  0.3937  1.4411  1.4846
  213MOL0     H28736   4.677  12.268   9.859 -1.7304  0.7020  1.7944
  213MOL0     H28737   5.031  12.085   9.724 -0.8003 -0.7930 -0.7529
  213MOL0     H28738   5.203  11.928   9.617 -2.9745 -1.2973  1.4653
  213MOL0     H28739   5.802  11.420   7.828 -0.8063 -1.3051  0.2347
  213MOL0     H28740   6.006  11.488   7.702 -1.8849  0.1304 -2.2224
  213MOL0     H28741   6.378  11.496   7.539  3.0441  1.8849 -1.3571
  213MOL0     H28742   6.570  11.552   7.423  0.0310  0.7359  0.7841
  213MOL0     H28743   6.739  11.452   7.267 -0.2669 -0.9154 -1.5277
  213MOL0     H28744   6.736  11.622   7.294  4.5728  0.0569 -0.9322
  213MOL0     H28745   6.840  11.662   7.063 -1.2754  0.0559 -0.3419
  213MOL0     H28746   6.820  11.485   7.039 -2.4497 -0.7279  1.6664
  213MOL0     H28747   6.986  11.458   7.230  1.5658  1.7388  1.0092
  213MOL0     H28748   6.994  11.623   7.266 -2.5425  0.8286 -0.2266
  213MOL0     H28749   7.060  11.538   6.981 -0.1908  0.1001  0.0664
  213MOL0     H28750   7.106  11.673   7.058  2.3751 -0.8960  1.0932
  213MOL0     H28751   7.427  11.425   7.120  0.1217  2.0855  2.4897
  213MOL0     H28752   6.381  11.493   7.051  0.8626  1.8087  0.4283
  213MOL0     H28753   6.101  11.490   7.097  2.5806  0.9751 -0.4365
  213MOL0     H28754   6.165  11.337   7.058  2.6562  3.0850 -0.8022
  213MOL0     H28755   6.062  11.339   7.192 -2.4996  1.2234 -2.0779
  214MOL0     O28756   1.481   5.584   6.085  0.8854 -0.2434 -0.8580
  214MOL0     C28757   1.436   5.595   5.968  0.1979  0.7013 -0.5170
  214MOL0     O28758   1.472   5.701   5.882 -0.1111 -0.0246 -0.1618
  214MOL0     C28759   1.536   5.815   5.928  0.0079  0.6551 -0.8143
  214MOL0     C28760   1.637   5.880   5.855  0.0060 -0.3749 -1.2903
  214MOL0     C28761   1.692   6.002   5.884 -0.2785 -0.0931 -0.1987
  214MOL0     C28762   1.651   6.068   6.007  0.0167 -0.7652 -1.1574
  214MOL0     O28763   1.713   6.172   6.078  0.3507 -0.1431  0.2438
  214MOL0     C28764   1.830   6.232   6.036 -0.2767 -0.4824  0.6993
  214MOL0     C28765   1.949   6.136   6.067 -0.3953 -0.5559  0.5340
  214MOL0     C28766   2.080   6.177   6.001  0.2951  0.4187  0.1330
  214MOL0     C28767   2.194   6.077   6.034  0.5317 -0.2528  0.7513
  214MOL0     C28768   2.234   6.059   6.187  0.5461  0.0915 -0.2662
  214MOL0     C28769   2.351   5.965   6.200 -0.6095  0.2158 -0.3373
  214MOL0     C28770   2.391   5.937   6.348 -0.6067 -0.5606 -0.1849
  214MOL0     C28771   2.511   5.835   6.370  1.3833 -0.4409 -0.1112
  214MOL0     N28772   2.486   5.706   6.308  1.1749 -0.0627  0.1630
  214MOL0     C28773   2.557   5.657   6.199 -0.4310  0.0767 -0.6017
  214MOL0     C28774   2.496   5.542   6.168  0.7231  0.2148  1.0390
  214MOL0     C28775   2.517   5.463   6.040 -1.1941  0.1444  0.4028
  214MOL0     C28776   2.392   5.438   5.967  0.0897 -0.4838  0.2759
  214MOL0     C28777   2.407   5.397   5.814 -0.2937 -0.1101  0.4353
  214MOL0     C28778   2.432   5.515   5.714  0.0117  0.8113 -0.4632
  214MOL0     O28779   2.405   5.495   5.573 -0.8154 -0.0945 -0.4941
  214MOL0     C28780   2.272   5.512   5.530 -0.0169  0.2782  0.0504
  214MOL0     C28781   2.251   5.531   5.391 -0.0839 -0.1105  0.9727
  214MOL0     C28782   2.119   5.544   5.338 -0.9795  0.1400  0.2966
  214MOL0     C28783   2.010   5.528   5.423 -0.5048 -0.0012  0.9754
  214MOL0     C28784   1.879   5.540   5.365 -0.0899 -0.7270  0.7440
  214MOL0     O28785   1.778   5.474   5.434 -0.4292  0.5634  0.0802
  214MOL0     C28786   1.652   5.462   5.384 -0.0600  0.6755 -0.5865
  214MOL0     C28787   1.591   5.333   5.398  0.5814 -0.6471  0.1807
  214MOL0     C28788   1.461   5.317   5.356  0.3254  0.0804  0.8529
  214MOL0     C28789   1.385   5.424   5.304 -0.4438 -0.3361  0.4608
  214MOL0     O28790   1.257   5.415   5.261  0.4182 -0.3632  0.5825
  214MOL0     C28791   1.178   5.301   5.304 -0.5319 -0.0287 -0.3032
  214MOL0     C28792   1.040   5.343   5.261 -0.0299 -0.1369  0.1661
  214MOL0     C28793   0.934   5.284   5.349  0.0167 -0.8267 -0.9122
  214MOL0     C28794   0.860   5.168   5.293  1.5774  0.5270 -0.3107
  214MOL0     C28795   0.939   5.032   5.299 -0.1334 -0.2476  0.8201
  214MOL0     C28796   0.880   4.938   5.200  0.3816 -0.2731  0.9386
  214MOL0     C28797   0.951   4.803   5.178  0.5042  0.7173  0.4151
  214MOL0     C28798   0.959   4.722   5.309  0.2740 -0.0903  1.4805
  214MOL0    Cl28799   0.799   4.704   5.384 -0.1229 -0.1648 -0.4806
  214MOL0     C28800   1.446   5.551   5.282  0.0408 -0.5585  0.6631
  214MOL0     C28801   1.579   5.565   5.324 -0.6298  0.1957  0.8016
  214MOL0     O28802   1.869   5.587   5.250  0.5785 -0.5400 -0.1601
  214MOL0     C28803   2.027   5.525   5.563  0.3818 -0.3155  0.5053
  214MOL0     C28804   2.155   5.517   5.614  0.0847 -0.9544  0.8508
  214MOL0     N28805   2.387   5.523   6.251 -0.1341  0.6020  0.6097
  214MOL0     N28806   2.387   5.616   6.337  0.8377  0.3039 -0.0939
  214MOL0     C28807   1.545   6.009   6.080 -0.3736 -0.5509 -0.2510
  214MOL0     C28808   1.491   5.888   6.042 -0.5286  0.4067 -0.2822
  214MOL0     C28809   1.355   5.482   5.907 -2.0692  0.9475 -1.3657
  214MOL0     C28810   1.350   5.475   5.767  0.3095 -0.0412  0.1075
  214MOL0     C28811   1.283   5.365   5.710  0.3781  0.2202 -0.3189
  214MOL0     C28812   1.220   5.268   5.784 -0.5368  0.2442 -0.8744
  214MOL0     O28813   1.179   5.155   5.712  0.4206 -0.3353  0.2255
  214MOL0     C28814   1.118   5.050   5.791  0.0023 -0.1223  0.2994
  214MOL0     C28815   1.080   4.934   5.697 -0.7038  0.1325 -0.1712
  214MOL0     C28816   1.064   4.789   5.774 -0.0988 -0.7190  0.9937
  214MOL0     C28817   0.976   4.787   5.898  0.6533 -0.1191 -0.7265
  214MOL0     C28818   0.914   4.656   5.941 -0.2736  0.0504  0.2730
  214MOL0     C28819   0.885   4.551   5.995  0.8976  0.5298  0.5863
  214MOL0     C28820   1.229   5.275   5.920  0.3692  0.5672 -0.7757
  214MOL0     C28821   1.299   5.376   5.990  0.1024 -0.7419  0.6261
  214MOL0     C28822   1.293   5.368   6.139  0.9845  0.0634 -0.0862
  214MOL0     H28823   1.664   5.836   5.760  0.9642 -0.3768 -1.0225
  214MOL0     H28824   1.775   6.045   5.829 -0.2546  0.5101  0.3014
  214MOL0     H28825   1.815   6.242   5.928 -4.2451 -3.0853  0.8077
  214MOL0     H28826   1.849   6.326   6.089 -2.2009 -0.3117  1.1522
  214MOL0     H28827   1.909   6.034   6.057 -2.3079  0.0629  1.4136
  214MOL0     H28828   1.959   6.145   6.175  1.5062  1.5079  0.2485
  214MOL0     H28829   2.107   6.277   6.036 -0.5259  0.6400  0.1601
  214MOL0     H28830   2.079   6.178   5.892  3.0521 -0.5981  0.0221
  214MOL0     H28831   2.165   5.984   5.984 -0.3502 -1.8541  3.9357
  214MOL0     H28832   2.282   6.123   5.990  2.4511  0.0619  4.5000
  214MOL0     H28833   2.248   6.150   6.246 -0.4982 -0.2577  0.5364
  214MOL0     H28834   2.155   6.001   6.234  0.1801 -1.4022 -2.5762
  214MOL0     H28835   2.327   5.866   6.158  0.3901 -0.9686  1.7156
  214MOL0     H28836   2.437   6.008   6.147 -0.2832 -2.5801 -2.3118
  214MOL0     H28837   2.304   5.889   6.392  1.8208 -3.1669  2.1793
  214MOL0     H28838   2.427   6.026   6.401 -0.3145 -0.3928 -0.6592
  214MOL0     H28839   2.593   5.885   6.318  2.7074 -0.9094  1.4573
  214MOL0     H28840   2.520   5.821   6.478 -0.9421  0.4099  0.2531
  214MOL0     H28841   2.637   5.707   6.145  1.3798 -1.0862  0.8642
  214MOL0     H28842   2.590   5.522   5.984 -1.2276  0.2087  0.4270
  214MOL0     H28843   2.570   5.368   6.057  0.8058  1.2652  0.7997
  214MOL0     H28844   2.334   5.357   6.011  1.0864 -2.6036 -2.0354
  214MOL0     H28845   2.333   5.530   5.973 -0.8163 -1.0417  0.1826
  214MOL0     H28846   2.309   5.354   5.790  0.4006 -1.9295  0.7128
  214MOL0     H28847   2.488   5.328   5.789 -0.0365  0.6415 -0.8759
  214MOL0     H28848   2.540   5.537   5.710  0.8569 -2.8313 -0.8089
  214MOL0     H28849   2.387   5.611   5.741  1.5943  1.6376 -0.6256
  214MOL0     H28850   2.345   5.543   5.339  1.5986 -1.1474  3.5756
  214MOL0     H28851   2.104   5.564   5.232  3.1681  3.2069  0.0434
  214MOL0     H28852   1.653   5.263   5.453  0.7888  0.2752  1.1461
  214MOL0     H28853   1.403   5.225   5.357 -0.1416  0.2487 -2.0370
  214MOL0     H28854   1.203   5.221   5.234 -0.7821 -1.5348  1.2563
  214MOL0     H28855   1.182   5.257   5.404  0.1400 -0.8127 -0.6584
  214MOL0     H28856   1.034   5.451   5.277 -3.4390 -0.2382  0.2447
  214MOL0     H28857   1.023   5.311   5.158  0.5990 -0.8125  0.2593
  214MOL0     H28858   0.974   5.254   5.447  1.3863  0.9376 -0.8824
  214MOL0     H28859   0.850   5.354   5.355  0.0440 -0.7916 -0.9343
  214MOL0     H28860   0.830   5.190   5.190 -1.7698  5.4931  1.3458
  214MOL0     H28861   0.767   5.155   5.350  1.9131 -0.6071  0.0173
  214MOL0     H28862   0.929   4.999   5.403  0.8110  0.9574  1.3155
  214MOL0     H28863   1.045   5.046   5.276  0.2992  2.1190  3.6592
  214MOL0     H28864   0.781   4.908   5.237 -0.4371  0.3435 -0.6572
  214MOL0     H28865   0.873   4.981   5.100 -0.4959 -3.4093 -0.4657
  214MOL0     H28866   1.055   4.831   5.158  1.2125 -1.5790  0.6358
  214MOL0     H28867   0.904   4.741   5.102  1.7616 -1.3298  1.2233
  214MOL0     H28868   0.991   4.620   5.287  0.5610  0.0485  1.2379
  214MOL0     H28869   1.035   4.764   5.376  0.2892 -1.3788  2.3002
  214MOL0     H28870   1.389   5.622   5.222  0.0496  0.8705  2.2647
  214MOL0     H28871   1.634   5.659   5.318  1.5407 -1.0942 -1.5412
  214MOL0     H28872   1.939   5.544   5.623 -2.0896 -1.0052 -2.6556
  214MOL0     H28873   2.162   5.503   5.722  1.3751  0.3926  0.9670
  214MOL0     H28874   1.493   6.059   6.161 -0.7115  1.3564 -1.5694
  214MOL0     H28875   1.417   5.837   6.103  1.0142 -0.7510  0.7249
  214MOL0     H28876   1.391   5.554   5.706  0.7345 -0.7402 -0.5275
  214MOL0     H28877   1.288   5.351   5.603 -1.0617 -1.9001 -0.1675
  214MOL0     H28878   1.028   5.090   5.837 -0.7237 -0.0938 -1.0716
  214MOL0     H28879   1.187   5.015   5.868  1.0069 -1.0831 -0.9765
  214MOL0     H28880   1.155   4.927   5.618 -0.3488 -0.9091  0.2464
  214MOL0     H28881   0.978   4.952   5.661 -2.2485 -3.1432  1.9877
  214MOL0     H28882   1.166   4.755   5.792 -0.3638 -1.5769  0.9045
  214MOL0     H28883   1.024   4.726   5.694  1.4032  2.9229 -3.0498
  214MOL0     H28884   1.021   4.834   5.986 -3.4985  4.1521 -0.5288
  214MOL0     H28885   0.890   4.849   5.874 -0.7622 -1.5509  0.4488
  214MOL0     H28886   0.866   4.454   6.037 -0.9900  1.6487  2.5061
  214MOL0     H28887   1.182   5.204   5.988  0.5921  1.0744 -0.0880
  214MOL0     H28888   1.389   5.342   6.185  0.9765 -1.5203 -0.8780
  214MOL0     H28889   1.270   5.465   6.184  2.2149  1.6474 -2.6491
  214MOL0     H28890   1.246   5.278   6.181  5.1468 -2.2040  0.1953
  215MOL0     O28891   8.162   5.780   0.820 -1.3541  0.1657 -0.6495
  215MOL0     C28892   8.269   5.822   0.759  0.2811  0.1011 -0.2330
  215MOL0     O28893   8.262   5.880   0.644 -0.6389  0.2946 -0.6237
  215MOL0     C28894   8.150   5.854   0.573 -0.0270 -0.3801 -0.0003
  215MOL0     C28895   8.149   5.738   0.492  0.0033 -0.7492 -0.3567
  215MOL0     C28896   8.033   5.701   0.419 -0.8301  0.6195  0.3907
  215MOL0     C28897   7.924   5.778   0.434 -0.7754 -0.9589  0.8814
  215MOL0     O28898   7.809   5.754   0.374 -0.5069  0.1094  0.2449
  215MOL0     C28899   7.803   5.713   0.235 -0.2169  0.3266  0.1354
  215MOL0     C28900   7.755   5.568   0.228  0.6681 -0.3262 -0.2304
  215MOL0     C28901   7.789   5.524   0.077 -0.2857  0.5797 -0.0569
  215MOL0     C28902   7.668   5.557  -0.014 -0.5922 -0.0106 -0.4561
  215MOL0     C28903   7.687   5.529  -0.168  1.1105 -0.1175 -0.7971
  215MOL0     C28904   7.771   5.633  -0.239  0.0393 -0.1169  0.2059
  215MOL0     C28905   7.795   5.582  -0.383  0.2853 -0.3031  0.0312
  215MOL0     C28906   7.870   5.685  -0.469  0.4573 -0.2556 -0.1079
  215MOL0     N28907   7.860   5.656  -0.615  0.0224  0.8612 -0.5427
  215MOL0     C28908   7.889   5.767  -0.701 -0.2908 -0.6218  0.4611
  215MOL0     C28909   7.847   5.712  -0.818  0.5906  0.6628  0.2078
  215MOL0     C28910   7.831   5.768  -0.952 -0.6595 -0.5359 -0.9071
  215MOL0     C28911   7.748   5.899  -0.951  0.8236  0.0345  0.5996
  215MOL0     C28912   7.660   5.931  -1.079 -0.3907  0.2667 -1.0393
  215MOL0     C28913   7.589   6.063  -1.066  0.4471 -0.4562  0.4453
  215MOL0     O28914   7.562   6.108  -1.203 -0.2089  0.3771 -0.5175
  215MOL0     C28915   7.451   6.063  -1.266 -0.3832  0.1463 -0.3359
  215MOL0     C28916   7.375   5.949  -1.226  0.4555 -0.3822 -0.0313
  215MOL0     C28917   7.288   5.888  -1.323  0.3958 -0.6431 -0.8563
  215MOL0     C28918   7.276   5.945  -1.455 -0.1925 -0.7689  0.5696
  215MOL0     C28919   7.170   5.901  -1.550 -0.4294  0.5610  0.1940
  215MOL0     O28920   7.116   5.779  -1.518  0.6468  0.2942 -0.3304
  215MOL0     C28921   7.080   5.678  -1.594 -0.9791 -0.5030  0.1492
  215MOL0     C28922   7.165   5.565  -1.603 -0.0443  0.5244  0.2161
  215MOL0     C28923   7.119   5.457  -1.688 -0.4794 -0.5716  0.4414
  215MOL0     C28924   6.992   5.462  -1.760 -0.6792 -0.4276 -0.3485
  215MOL0     O28925   6.931   5.369  -1.831 -0.5011  0.4874 -0.7193
  215MOL0     C28926   6.990   5.237  -1.802 -0.4108  0.5577 -0.3684
  215MOL0     C28927   6.912   5.134  -1.879 -0.0770 -0.0989 -0.3537
  215MOL0     C28928   6.774   5.110  -1.814 -0.9177  0.2375 -0.6572
  215MOL0     C28929   6.689   5.007  -1.886 -0.3820 -0.1668  0.0259
  215MOL0     C28930   6.729   4.858  -1.866 -0.2659 -0.7515  0.0036
  215MOL0     C28931   6.784   4.834  -1.722 -1.0243  0.0151  0.2694
  215MOL0     C28932   6.820   4.687  -1.712 -0.2866  0.4747 -0.6772
  215MOL0     C28933   6.891   4.666  -1.574 -0.5669  0.5890  0.5579
  215MOL0    Cl28934   6.752   4.659  -1.459  0.0156 -0.2814 -0.5539
  215MOL0     C28935   6.925   5.583  -1.753  0.5091 -0.8682  0.2870
  215MOL0     C28936   6.963   5.687  -1.667 -0.1521  0.4575 -0.3678
  215MOL0     O28937   7.139   5.971  -1.644  1.2521  0.1791  0.0257
  215MOL0     C28938   7.336   6.074  -1.472 -0.7409  0.0017  0.1027
  215MOL0     C28939   7.426   6.129  -1.386  0.0501  0.3785  0.1764
  215MOL0     N28940   7.804   5.580  -0.791 -0.5325 -0.8378 -0.0940
  215MOL0     N28941   7.807   5.549  -0.674 -0.4428  0.1424  0.1660
  215MOL0     C28942   7.926   5.898   0.500 -0.3264 -0.0932  0.4146
  215MOL0     C28943   8.039   5.939   0.571  0.3660 -0.6650 -0.5218
  215MOL0     C28944   8.401   5.799   0.831 -0.4567  0.3654 -0.5303
  215MOL0     C28945   8.390   5.797   0.967  0.1278 -0.1827 -0.0075
  215MOL0     C28946   8.505   5.804   1.042 -0.1093 -0.1888 -0.9300
  215MOL0     C28947   8.627   5.806   0.978 -0.1704 -0.1924  0.8263
  215MOL0     O28948   8.743   5.834   1.038 -0.6878  0.5207 -0.8302
  215MOL0     C28949   8.774   5.787   1.178  0.0264 -0.5287  0.4099
  215MOL0     C28950   8.912   5.833   1.225 -0.8468  0.2297  0.0444
  215MOL0     C28951   8.918   5.969   1.298  0.3591  1.2470  1.1851
  215MOL0     C28952   8.908   6.085   1.193 -0.2422 -0.2672 -0.3520
  215MOL0     C28953   8.825   6.208   1.234 -0.4898 -0.5194 -0.9110
  215MOL0     C28954   8.760   6.312   1.247 -0.2542 -1.1900  0.0028
  215MOL0     C28955   8.643   5.811   0.836 -0.5690  0.9930 -0.7403
  215MOL0     C28956   8.527   5.806   0.766 -1.0859 -0.4195  0.8778
  215MOL0     C28957   8.547   5.789   0.623  0.2768 -0.3996 -0.0358
  215MOL0     H28958   8.232   5.671   0.514  1.9150  1.9902  1.3752
  215MOL0     H28959   8.027   5.604   0.371  1.2656 -0.7967  2.7405
  215MOL0     H28960   7.732   5.774   0.179  0.3336 -0.5746 -1.6115
  215MOL0     H28961   7.902   5.736   0.195 -0.2955  3.1341  1.2859
  215MOL0     H28962   7.648   5.565   0.253  0.4340  1.2639 -0.8716
  215MOL0     H28963   7.813   5.498   0.289  3.0144  0.4408 -1.4703
  215MOL0     H28964   7.803   5.416   0.068  1.8859  0.4906  2.8014
  215MOL0     H28965   7.891   5.546   0.042 -0.1942  0.1928 -0.0386
  215MOL0     H28966   7.581   5.502   0.021 -1.3543  2.7948  2.5289
  215MOL0     H28967   7.637   5.661  -0.006 -0.6965 -0.2084  3.6815
  215MOL0     H28968   7.734   5.430  -0.163  1.0688 -0.1145  3.7101
  215MOL0     H28969   7.591   5.541  -0.219  1.5390  2.6881 -1.1257
  215MOL0     H28970   7.719   5.729  -0.242  0.3753  0.0599 -0.0831
  215MOL0     H28971   7.859   5.663  -0.182  1.1402  0.5007 -1.7104
  215MOL0     H28972   7.696   5.572  -0.429 -1.0308  2.6042  1.9131
  215MOL0     H28973   7.844   5.484  -0.392  0.6157 -0.3375  1.9319
  215MOL0     H28974   7.832   5.785  -0.447  1.4448  1.3445 -4.5452
  215MOL0     H28975   7.972   5.674  -0.431  0.2962 -0.3693  0.2913
  215MOL0     H28976   7.922   5.869  -0.681  0.6680 -0.8131 -0.0604
  215MOL0     H28977   7.929   5.802  -0.985 -1.2716  1.2498 -0.9986
  215MOL0     H28978   7.799   5.694  -1.025  0.6256 -0.3216 -1.7128
  215MOL0     H28979   7.673   5.890  -0.872  0.4000 -1.4949  0.0585
  215MOL0     H28980   7.815   5.985  -0.943  0.5004  0.2118  1.4342
  215MOL0     H28981   7.597   5.845  -1.106  0.6437  0.1313 -3.2922
  215MOL0     H28982   7.737   5.926  -1.157 -0.1703 -1.9185 -0.7419
  215MOL0     H28983   7.655   6.140  -1.026  0.1300  0.9077 -1.5081
  215MOL0     H28984   7.497   6.063  -1.006 -0.2110  0.8692 -0.5269
  215MOL0     H28985   7.381   5.904  -1.127  2.4599  0.3930  0.2478
  215MOL0     H28986   7.226   5.806  -1.286 -1.0410  0.6883 -0.1852
  215MOL0     H28987   7.258   5.560  -1.547 -0.0264  1.6156  0.3104
  215MOL0     H28988   7.164   5.358  -1.681 -1.9149 -1.2164  1.0227
  215MOL0     H28989   7.095   5.232  -1.834 -0.5810  1.0602 -1.0220
  215MOL0     H28990   6.992   5.217  -1.694  2.7759 -3.0869 -0.8639
  215MOL0     H28991   6.899   5.167  -1.983 -0.4985 -0.3497 -0.3852
  215MOL0     H28992   6.962   5.037  -1.880 -1.9961 -1.1588 -1.2018
  215MOL0     H28993   6.781   5.084  -1.708  0.6245 -1.0002 -1.0264
  215MOL0     H28994   6.728   5.209  -1.823  2.5882  2.0551 -0.3515
  215MOL0     H28995   6.710   5.034  -1.990  0.0363  3.1438  0.8468
  215MOL0     H28996   6.582   5.027  -1.882 -0.2604  0.9779 -1.3831
  215MOL0     H28997   6.799   4.821  -1.941 -0.3638 -0.8763 -0.0271
  215MOL0     H28998   6.640   4.796  -1.882  0.7750 -1.5603 -3.2836
  215MOL0     H28999   6.871   4.895  -1.698  0.6709 -2.4888  0.8942
  215MOL0     H29000   6.705   4.867  -1.653 -2.1765  1.6523 -1.7108
  215MOL0     H29001   6.884   4.660  -1.797 -1.0820 -1.0248 -0.8305
  215MOL0     H29002   6.731   4.623  -1.717  0.0768 -0.1350  0.3922
  215MOL0     H29003   6.940   4.569  -1.585 -0.6517  0.6493 -0.4134
  215MOL0     H29004   6.960   4.747  -1.551  0.5577 -0.4043  0.7447
  215MOL0     H29005   6.833   5.604  -1.807  0.1746  1.2178  1.5357
  215MOL0     H29006   6.903   5.773  -1.642  1.1601  1.3517 -0.2126
  215MOL0     H29007   7.323   6.136  -1.560 -2.1247  1.8668  1.5218
  215MOL0     H29008   7.478   6.221  -1.410 -0.1581  0.4361 -0.0499
  215MOL0     H29009   7.840   5.962   0.518 -1.9431 -1.6811 -1.2210
  215MOL0     H29010   8.035   6.028   0.632  4.7227 -0.2451 -0.5644
  215MOL0     H29011   8.296   5.789   1.022 -0.2907  3.1736 -0.0240
  215MOL0     H29012   8.497   5.798   1.151  1.0980 -2.2688 -0.8937
  215MOL0     H29013   8.762   5.679   1.170 -1.0536 -0.2789 -2.6659
  215MOL0     H29014   8.710   5.825   1.257 -3.0252 -2.0190 -1.1845
  215MOL0     H29015   8.972   5.826   1.133 -2.3962 -1.7254 -0.8824
  215MOL0     H29016   8.941   5.754   1.295  1.6996  0.1602 -0.9457
  215MOL0     H29017   9.009   5.977   1.358  0.3860 -4.0342  2.3905
  215MOL0     H29018   8.837   5.977   1.371 -0.0266  1.9494  0.6805
  215MOL0     H29019   9.005   6.126   1.165 -1.4835  2.6179 -0.8184
  215MOL0     H29020   8.870   6.042   1.101  1.9392 -3.1482 -0.0376
  215MOL0     H29021   8.728   6.413   1.261 -1.5556 -1.4264 -1.0753
  215MOL0     H29022   8.741   5.810   0.788 -0.3007  0.3258 -0.2031
  215MOL0     H29023   8.458   5.741   0.580  1.1003 -2.5321  0.5203
  215MOL0     H29024   8.567   5.885   0.576 -2.0700  0.4331  0.5414
  215MOL0     H29025   8.630   5.719   0.606  1.2135  0.7052 -0.1303
  216MOL0     O29026  11.232   0.054  11.165  0.3322 -0.3266  0.1218
  216MOL0     C29027  11.133   0.010  11.114  0.4131  0.1040  0.1640
  216MOL0     O29028  11.037   0.085  11.055 -0.8849 -0.5990 -0.6587
  216MOL0     C29029  11.043   0.226  11.063 -0.1656  0.9362  0.1554
  216MOL0     C29030  11.165   0.308  11.053 -0.2860  0.9722 -0.0692
  216MOL0     C29031  11.163   0.440  11.035  0.3118 -0.5318 -0.1689
  216MOL0     C29032  11.045   0.504  11.024  0.0085  0.1901 -0.5014
  216MOL0     O29033  11.029   0.640  11.016 -0.3187 -0.3198  0.6838
  216MOL0     C29034  11.118   0.712  11.102  0.6517  0.1446  0.8647
  216MOL0     C29035  11.044   0.845  11.086 -0.1464 -0.2672  0.2895
  216MOL0     C29036  11.102   0.960  11.157 -0.4947 -0.1019  0.0500
  216MOL0     C29037  11.242   1.003  11.110 -1.1896  0.6466  0.4806
  216MOL0     C29038  11.264   1.152  11.137 -0.4482 -0.8162  0.7642
  216MOL0     C29039  11.286   1.169  11.286 -0.3161  0.9267 -0.2149
  216MOL0     C29040  11.348   1.310  11.311  0.7837  0.0042 -0.0412
  216MOL0     C29041  11.260   1.429  11.292  0.3153  0.0898 -0.1135
  216MOL0     N29042  11.175   1.460  11.412  0.7618 -0.5095 -0.2022
  216MOL0     C29043  11.032   1.467  11.403 -1.3597 -0.0519 -0.1755
  216MOL0     C29044  10.990   1.462  11.533  0.5302 -0.5820 -0.7291
  216MOL0     C29045  10.848   1.455  11.560  0.4309 -0.4478  0.4680
  216MOL0     C29046  10.795   1.541  11.690  0.4978  0.7451 -0.2257
  216MOL0     C29047  10.771   1.450  11.820  0.5497  0.0786  0.1079
  216MOL0     C29048  10.639   1.360  11.820 -0.1710  0.8154  0.4731
  216MOL0     O29049  10.615   1.303  11.949  1.1151  0.0300 -0.1916
  216MOL0     C29050  10.655   1.171  11.972 -0.1251 -0.0823 -0.1082
  216MOL0     C29051  10.774   1.121  11.919 -0.1233 -0.6754  0.3313
  216MOL0     C29052  10.826   0.999  11.950  0.3393  0.1511  0.4119
  216MOL0     C29053  10.756   0.905  12.036  0.0536 -0.3213 -0.9004
  216MOL0     C29054  10.789   0.765  12.043 -0.1763  0.2648  0.1549
  216MOL0     O29055  10.692   0.674  12.061 -0.0750 -0.1073 -0.5412
  216MOL0     C29056  10.719   0.548  12.099  0.3259 -0.9829  0.7666
  216MOL0     C29057  10.695   0.515  12.229  0.3017  0.3141 -0.7016
  216MOL0     C29058  10.710   0.378  12.270 -0.3015 -0.8636  0.4118
  216MOL0     C29059  10.740   0.279  12.173 -0.9573 -1.3445  0.6904
  216MOL0     O29060  10.749   0.147  12.217  0.5862  0.1691  0.1750
  216MOL0     C29061  10.798   0.052  12.124  0.0660  1.2567 -1.1726
  216MOL0     C29062  10.774  -0.094  12.169  0.4533 -0.0597  0.0250
  216MOL0     C29063  10.901  -0.174  12.200  0.5448  0.7448 -0.2668
  216MOL0     C29064  10.873  -0.322  12.232  0.9288 -1.4031 -0.8610
  216MOL0     C29065  10.743  -0.338  12.314 -0.3893  0.7256 -0.8122
  216MOL0     C29066  10.730  -0.494  12.338 -0.3534  0.2231 -0.1937
  216MOL0     C29067  10.608  -0.533  12.420  0.5637  0.6590  0.9996
  216MOL0     C29068  10.586  -0.682  12.456 -0.5546  0.1378  0.2833
  216MOL0    Cl29069  10.712  -0.741  12.577  0.2003 -0.0095  0.6042
  216MOL0     C29070  10.755   0.317  12.039  0.2195  0.2395  0.7775
  216MOL0     C29071  10.746   0.450  12.004  0.4732 -0.1669  0.3705
  216MOL0     O29072  10.905   0.738  12.039 -0.1154  0.6018 -0.0720
  216MOL0     C29073  10.642   0.964  12.103 -0.5348  0.1251  1.4331
  216MOL0     C29074  10.596   1.094  12.073 -0.1038  0.1651 -0.6756
  216MOL0     N29075  11.105   1.459  11.615  0.3190  0.6359  0.1611
  216MOL0     N29076  11.209   1.460  11.540  0.5494  0.6235  0.2058
  216MOL0     C29077  10.924   0.436  11.047 -0.0841 -0.0087  0.2895
  216MOL0     C29078  10.921   0.296  11.054  0.5054 -0.6020 -0.5616
  216MOL0     C29079  11.137  -0.143  11.098 -0.1174  0.1253 -0.0926
  216MOL0     C29080  11.249  -0.222  11.149 -0.9338 -0.1612  0.1329
  216MOL0     C29081  11.265  -0.359  11.138 -0.2057  0.9016  0.1309
  216MOL0     C29082  11.175  -0.432  11.054  0.4056 -0.5637  0.4325
  216MOL0     O29083  11.184  -0.555  11.005 -0.2625  0.4964 -0.4312
  216MOL0     C29084  11.304  -0.629  11.036 -0.1999  0.8538  0.7076
  216MOL0     C29085  11.298  -0.761  10.950 -0.9680  0.1796  0.0850
  216MOL0     C29086  11.313  -0.736  10.796 -0.7305  0.4968 -0.0287
  216MOL0     C29087  11.306  -0.863  10.695 -0.4249 -1.0250  0.8312
  216MOL0     C29088  11.279  -0.829  10.555 -1.0671 -0.6829  0.0079
  216MOL0     C29089  11.259  -0.806  10.435 -0.7151  0.6463  0.0245
  216MOL0     C29090  11.053  -0.368  11.027  0.1965  0.4156  0.0745
  216MOL0     C29091  11.033  -0.223  11.047  1.4350  0.1246 -0.1927
  216MOL0     C29092  10.905  -0.172  10.985 -0.0647 -0.5866  0.6395
  216MOL0     H29093  11.266   0.270  11.060 -0.9914 -0.7173  1.7553
  216MOL0     H29094  11.257   0.493  11.026  0.0173 -0.1581 -1.1488
  216MOL0     H29095  11.119   0.661  11.198 -1.4318 -1.1528  0.2587
  216MOL0     H29096  11.216   0.720  11.054  0.4039  0.5756  0.4160
  216MOL0     H29097  10.939   0.843  11.118  0.8389  0.4705  3.9914
  216MOL0     H29098  11.043   0.864  10.978 -1.1112  0.7273  0.4557
  216MOL0     H29099  11.106   0.926  11.261 -2.6757 -1.5229 -0.2739
  216MOL0     H29100  11.033   1.045  11.161  1.0995  1.2568  0.0348
  216MOL0     H29101  11.323   0.949  11.160  1.0036  0.8279 -2.5493
  216MOL0     H29102  11.265   0.977  11.006 -3.5292  0.1407  0.0281
  216MOL0     H29103  11.356   1.178  11.083 -0.3167 -1.4890  0.6487
  216MOL0     H29104  11.184   1.209  11.091  0.1126 -0.9033 -0.3700
  216MOL0     H29105  11.181   1.169  11.319 -0.7125  0.6655 -1.4170
  216MOL0     H29106  11.351   1.093  11.331  2.3914  2.9678 -0.4938
  216MOL0     H29107  11.428   1.318  11.237 -0.3756 -0.4368 -1.3890
  216MOL0     H29108  11.401   1.306  11.407  1.1826  1.0540 -0.2040
  216MOL0     H29109  11.311   1.519  11.255 -1.0046  0.8035 -0.2762
  216MOL0     H29110  11.191   1.409  11.210  1.7822 -1.3554 -1.0438
  216MOL0     H29111  10.979   1.485  11.310  1.4226 -0.9475 -2.0951
  216MOL0     H29112  10.797   1.492  11.471  0.6767  1.2906  1.0045
  216MOL0     H29113  10.823   1.349  11.569  1.8999 -0.6316  4.0589
  216MOL0     H29114  10.862   1.622  11.720  1.0844  0.0030  0.5265
  216MOL0     H29115  10.709   1.601  11.658 -1.9870 -2.2280  0.3525
  216MOL0     H29116  10.765   1.513  11.909 -2.5451  0.0223  0.0529
  216MOL0     H29117  10.863   1.395  11.843 -0.3432 -1.6502 -0.3358
  216MOL0     H29118  10.646   1.280  11.745  0.0260 -0.6284  1.9551
  216MOL0     H29119  10.566   1.438  11.800 -0.9896  0.8381  3.1544
  216MOL0     H29120  10.834   1.181  11.851 -0.0125  0.5525  1.4562
  216MOL0     H29121  10.920   0.967  11.907 -0.2038 -0.8790 -0.0410
  216MOL0     H29122  10.668   0.594  12.298  0.9042 -0.3085  0.2713
  216MOL0     H29123  10.693   0.346  12.372 -4.0015  1.2030  0.5959
  216MOL0     H29124  10.743   0.060  12.029 -2.4048 -0.8187 -0.0481
  216MOL0     H29125  10.907   0.058  12.118  0.2285  0.6432  0.6630
  216MOL0     H29126  10.712  -0.083  12.258  2.7466  0.4438  1.6714
  216MOL0     H29127  10.716  -0.142  12.089 -0.0809  2.2825 -1.0919
  216MOL0     H29128  10.969  -0.177  12.114  1.2553 -4.6655  0.1460
  216MOL0     H29129  10.955  -0.120  12.279  2.6873  1.0328 -1.8403
  216MOL0     H29130  10.963  -0.364  12.278  0.8615 -1.2432 -0.5802
  216MOL0     H29131  10.864  -0.369  12.133  2.8864 -2.3572 -0.6405
  216MOL0     H29132  10.656  -0.303  12.257 -0.0971  4.3968  0.7181
  216MOL0     H29133  10.744  -0.280  12.407 -1.8883 -0.2626 -0.1461
  216MOL0     H29134  10.732  -0.540  12.239  1.9458 -1.2438  0.4380
  216MOL0     H29135  10.815  -0.531  12.396 -0.9208 -0.9721 -0.1077
  216MOL0     H29136  10.521  -0.493  12.368 -0.7162 -0.8028  1.8940
  216MOL0     H29137  10.602  -0.475  12.513  3.6153  2.2001  0.3635
  216MOL0     H29138  10.487  -0.695  12.499 -0.6594 -2.4225 -0.5311
  216MOL0     H29139  10.585  -0.751  12.370 -1.0468 -1.2453  1.3693
  216MOL0     H29140  10.781   0.247  11.960  1.6253 -1.4832  2.6626
  216MOL0     H29141  10.749   0.487  11.902 -1.1539 -0.6610  0.0964
  216MOL0     H29142  10.607   0.904  12.186  1.8040 -0.2710  2.2232
  216MOL0     H29143  10.508   1.131  12.124  0.7076  0.5343  0.4751
  216MOL0     H29144  10.833   0.494  11.036  0.2448  0.9348  2.0819
  216MOL0     H29145  10.825   0.246  11.059  1.1402 -1.9954 -1.4512
  216MOL0     H29146  11.329  -0.170  11.200  0.1082 -0.8196 -0.7721
  216MOL0     H29147  11.363  -0.401  11.162 -0.6351  0.5500  1.3478
  216MOL0     H29148  11.314  -0.657  11.142  1.5557  1.5600  0.7668
  216MOL0     H29149  11.390  -0.571  11.001  1.7383 -0.9956  2.0837
  216MOL0     H29150  11.198  -0.804  10.955 -2.1360  2.3824 -2.0745
  216MOL0     H29151  11.377  -0.828  10.984 -1.5031  0.8688  2.9459
  216MOL0     H29152  11.411  -0.690  10.785 -0.5030  1.4837  4.4051
  216MOL0     H29153  11.243  -0.656  10.769  0.6959  1.7345 -0.1908
  216MOL0     H29154  11.398  -0.922  10.696 -0.9113 -1.8497  3.1556
  216MOL0     H29155  11.224  -0.922  10.738 -3.4539  3.5360  2.0123
  216MOL0     H29156  11.252  -0.797  10.328 -0.9199  1.6473  0.1128
  216MOL0     H29157  10.994  -0.436  10.968  1.8298 -1.2625  0.2892
  216MOL0     H29158  10.833  -0.143  11.063 -2.0202  0.3681 -1.3821
  216MOL0     H29159  10.919  -0.087  10.917 -2.3641 -1.7094 -1.4165
  216MOL0     H29160  10.849  -0.242  10.922 -2.0148  0.8412  0.6642
  217MOL0     O29161   8.990   0.303   8.784 -0.5763  0.1811  0.2359
  217MOL0     C29162   8.919   0.304   8.884  0.2464 -0.4749 -0.2514
  217MOL0     O29163   8.931   0.218   8.990  0.0922 -0.4247  0.4704
  217MOL0     C29164   9.035   0.130   9.002  0.3695  1.3037 -0.1550
  217MOL0     C29165   9.000   0.008   9.066 -0.0381 -0.2791 -0.0173
  217MOL0     C29166   9.105  -0.072   9.111  0.3613  0.2451 -0.5685
  217MOL0     C29167   9.235  -0.048   9.075  0.1489 -0.4176 -0.9454
  217MOL0     O29168   9.328  -0.139   9.124 -0.6884 -0.3557  0.1551
  217MOL0     C29169   9.364  -0.115   9.261  0.8515 -1.1031  0.1203
  217MOL0     C29170   9.429  -0.237   9.321  0.0400  0.6661 -0.2058
  217MOL0     C29171   9.490  -0.218   9.463 -1.3619 -0.0208 -1.2083
  217MOL0     C29172   9.508  -0.347   9.532  0.4655  0.0451  0.4341
  217MOL0     C29173   9.551  -0.327   9.680  0.3836  0.5127  0.2702
  217MOL0     C29174   9.555  -0.461   9.747 -0.0690  0.1472 -0.7482
  217MOL0     C29175   9.545  -0.450   9.905  0.9359  0.3454 -0.0132
  217MOL0     C29176   9.531  -0.581   9.974 -0.2493  0.7821 -1.5634
  217MOL0     N29177   9.407  -0.653   9.937 -0.0177 -0.2396 -1.0843
  217MOL0     C29178   9.285  -0.629   9.997 -1.3886  0.0484 -0.9406
  217MOL0     C29179   9.196  -0.724   9.947  0.0815 -0.1795  1.5439
  217MOL0     C29180   9.055  -0.757   9.987  0.0800  1.1614  0.5371
  217MOL0     C29181   9.050  -0.825  10.127 -0.9872  0.3606  1.1182
  217MOL0     C29182   8.909  -0.843  10.181  0.5930  0.4956 -0.0487
  217MOL0     C29183   8.914  -0.856  10.331  1.3499  0.0974  0.2122
  217MOL0     O29184   8.918  -0.725  10.395 -0.4404  0.0139 -0.4253
  217MOL0     C29185   8.901  -0.739  10.531 -0.5412 -1.2036 -0.5224
  217MOL0     C29186   8.783  -0.690  10.592  0.3247 -0.0546 -0.2151
  217MOL0     C29187   8.767  -0.689  10.733 -1.5026 -0.7093 -0.5222
  217MOL0     C29188   8.877  -0.737  10.815 -0.8175 -0.1692  0.0259
  217MOL0     C29189   8.859  -0.750  10.962  0.8845 -0.1364 -0.9934
  217MOL0     O29190   8.969  -0.786  11.032 -0.2434  0.4788 -0.3633
  217MOL0     C29191   8.974  -0.766  11.169 -0.7566 -0.6733  0.4583
  217MOL0     C29192   9.092  -0.710  11.204 -0.5288  0.1785 -0.3103
  217MOL0     C29193   9.117  -0.693  11.341  0.8748 -0.3758  0.1732
  217MOL0     C29194   9.024  -0.731  11.439  0.5842  0.1259  0.8945
  217MOL0     O29195   9.052  -0.688  11.563  0.1270  0.3612  0.1727
  217MOL0     C29196   9.017  -0.776  11.669  0.0331 -0.6932  0.3058
  217MOL0     C29197   8.990  -0.702  11.795 -0.0595 -0.1708  0.5475
  217MOL0     C29198   9.094  -0.605  11.834 -0.2484  0.7191  0.0207
  217MOL0     C29199   9.236  -0.648  11.876  0.6074 -0.1152 -0.4768
  217MOL0     C29200   9.316  -0.518  11.907 -0.4755 -0.4999  0.4693
  217MOL0     C29201   9.440  -0.549  11.981 -0.2612 -0.3038 -0.1766
  217MOL0     C29202   9.499  -0.415  12.033  0.3120  0.2718 -0.5527
  217MOL0     C29203   9.533  -0.316  11.913  0.2939 -0.0540  1.1684
  217MOL0    Cl29204   9.400  -0.192  11.878 -0.3304 -0.3648 -0.2324
  217MOL0     C29205   8.899  -0.784  11.394 -0.1594  0.3300  0.8164
  217MOL0     C29206   8.873  -0.810  11.261  0.3279 -0.8354 -0.3630
  217MOL0     O29207   8.748  -0.736  11.007  0.1240  0.0743 -0.2606
  217MOL0     C29208   8.994  -0.775  10.753 -0.2639 -0.1943 -0.5850
  217MOL0     C29209   9.013  -0.773  10.609  0.3056  0.2599 -0.2443
  217MOL0     N29210   9.273  -0.782   9.840  0.4186 -1.0876 -0.5817
  217MOL0     N29211   9.395  -0.741   9.838 -0.1322  0.1621  0.4595
  217MOL0     C29212   9.268   0.079   9.017  0.1036  1.4145 -0.1053
  217MOL0     C29213   9.166   0.167   8.990 -0.5576 -0.1933  0.1089
  217MOL0     C29214   8.819   0.417   8.898  0.2545 -0.8361 -0.9671
  217MOL0     C29215   8.715   0.398   8.992  0.5190 -0.5974 -0.0308
  217MOL0     C29216   8.615   0.491   9.005 -0.0250 -0.0123 -0.3937
  217MOL0     C29217   8.618   0.607   8.931 -0.2956 -0.2874 -0.3456
  217MOL0     O29218   8.517   0.703   8.925  0.6963  1.0572  0.1331
  217MOL0     C29219   8.380   0.676   8.971 -0.0683  0.0053  0.2813
  217MOL0     C29220   8.289   0.746   8.875 -0.4324 -0.6668 -0.4671
  217MOL0     C29221   8.143   0.696   8.891  0.0479  1.6585  0.0968
  217MOL0     C29222   8.051   0.782   8.800  0.5012  0.0400 -1.2041
  217MOL0     C29223   8.045   0.923   8.846  0.6612  0.1876  0.0174
  217MOL0     C29224   8.027   1.042   8.884 -0.6022  0.1951  0.1479
  217MOL0     C29225   8.714   0.632   8.835 -0.3300 -0.5780 -0.3382
  217MOL0     C29226   8.825   0.542   8.820 -0.9125  0.5574 -0.1192
  217MOL0     C29227   8.946   0.580   8.725  0.3195 -0.0083 -0.3305
  217MOL0     H29228   8.896  -0.025   9.068 -1.4306  3.5908 -0.4396
  217MOL0     H29229   9.075  -0.159   9.168 -2.1788  2.3776  1.6390
  217MOL0     H29230   9.432  -0.029   9.268 -0.2309 -0.2544  0.3602
  217MOL0     H29231   9.275  -0.095   9.320 -0.6767 -4.6300 -0.7247
  217MOL0     H29232   9.505  -0.269   9.249 -0.6826 -1.5727 -0.0496
  217MOL0     H29233   9.348  -0.309   9.339 -0.4115  0.8725 -1.3621
  217MOL0     H29234   9.426  -0.149   9.517 -0.4152 -2.3140  3.3443
  217MOL0     H29235   9.583  -0.163   9.453 -1.4588  0.9850  2.3293
  217MOL0     H29236   9.414  -0.404   9.538  1.1018 -0.9942  0.7274
  217MOL0     H29237   9.578  -0.406   9.474 -0.9351 -2.8031  1.4402
  217MOL0     H29238   9.652  -0.285   9.682  0.5715  0.0629  0.2207
  217MOL0     H29239   9.481  -0.254   9.722  1.2775  3.2025 -2.5676
  217MOL0     H29240   9.477  -0.524   9.703 -2.1195  1.6343  0.5684
  217MOL0     H29241   9.656  -0.497   9.726  0.8524  1.9218  0.4251
  217MOL0     H29242   9.452  -0.392   9.903  1.1688  0.7305 -1.6896
  217MOL0     H29243   9.635  -0.401   9.943  0.4237  1.6372 -0.3961
  217MOL0     H29244   9.621  -0.642   9.960 -0.7103 -0.1388 -0.6519
  217MOL0     H29245   9.530  -0.566  10.083  1.4142 -2.3250 -1.0085
  217MOL0     H29246   9.279  -0.562  10.083  3.9721 -2.4644  1.9201
  217MOL0     H29247   9.004  -0.661   9.989  0.0846  1.4105 -3.6725
  217MOL0     H29248   9.004  -0.819   9.912 -1.9379  2.3247  0.8688
  217MOL0     H29249   9.104  -0.920  10.131  1.6644  1.8184  3.7644
  217MOL0     H29250   9.095  -0.759  10.201  2.3774 -0.4005 -0.0929
  217MOL0     H29251   8.878  -0.943  10.149  4.8433 -0.9759 -0.1576
  217MOL0     H29252   8.851  -0.759  10.140  0.8370  0.8139  0.2569
  217MOL0     H29253   9.003  -0.911  10.363 -0.5566 -2.1091  2.0767
  217MOL0     H29254   8.822  -0.900  10.369  0.6988  0.3042 -1.0810
  217MOL0     H29255   8.705  -0.655  10.526 -0.2141 -0.3395  0.2599
  217MOL0     H29256   8.671  -0.652  10.769 -0.7440 -0.0875  0.9271
  217MOL0     H29257   9.167  -0.682  11.131 -2.4077 -0.2624 -2.5296
  217MOL0     H29258   9.206  -0.637  11.368  0.6513  1.6783 -2.8508
  217MOL0     H29259   8.924  -0.828  11.642 -0.2478  0.9322 -2.2992
  217MOL0     H29260   9.101  -0.843  11.686  0.1882 -0.1541  1.7616
  217MOL0     H29261   8.901  -0.642  11.776  1.5029  2.2626  0.4104
  217MOL0     H29262   8.962  -0.777  11.870 -1.7754  1.6518  1.8456
  217MOL0     H29263   9.119  -0.543  11.748  0.6295  0.9140  0.4120
  217MOL0     H29264   9.044  -0.537  11.903 -3.9564 -0.2494 -1.4558
  217MOL0     H29265   9.278  -0.704  11.792  1.0712 -2.6040  1.2961
  217MOL0     H29266   9.232  -0.722  11.956 -2.7796 -1.9438 -2.1072
  217MOL0     H29267   9.262  -0.449  11.973  1.5974 -0.2620  1.9852
  217MOL0     H29268   9.335  -0.478  11.807 -1.0620  0.3053  0.6698
  217MOL0     H29269   9.434  -0.609  12.072  2.6879  2.0920  1.7950
  217MOL0     H29270   9.508  -0.591  11.906  0.0193 -0.6374  0.2627
  217MOL0     H29271   9.585  -0.443  12.093  1.1751 -2.9234 -3.0097
  217MOL0     H29272   9.424  -0.367  12.096  0.1789 -1.7584  0.8898
  217MOL0     H29273   9.620  -0.267  11.957  1.0861 -0.2389 -0.1182
  217MOL0     H29274   9.566  -0.362  11.819  1.9879  4.2029 -0.5955
  217MOL0     H29275   8.823  -0.810  11.466 -1.1480 -1.2594 -0.7183
  217MOL0     H29276   8.784  -0.867  11.237 -1.3628  1.9185 -1.0622
  217MOL0     H29277   9.074  -0.821  10.810 -1.0366 -1.0202 -0.1446
  217MOL0     H29278   9.102  -0.804  10.555  0.5018 -0.3083  0.3988
  217MOL0     H29279   9.362   0.124   8.988 -0.1871  1.6342 -0.7251
  217MOL0     H29280   9.200   0.262   8.950  0.2423 -0.7150 -0.4998
  217MOL0     H29281   8.700   0.307   9.050  0.3136  0.3111  1.4074
  217MOL0     H29282   8.535   0.470   9.075  0.3161 -1.5744 -0.4405
  217MOL0     H29283   8.381   0.706   9.077  2.5533 -1.2560  0.7083
  217MOL0     H29284   8.351   0.570   8.972  0.8310 -0.4631 -3.9542
  217MOL0     H29285   8.322   0.725   8.773 -1.3143 -0.7580 -0.7386
  217MOL0     H29286   8.301   0.853   8.897 -0.2874 -0.8104  0.1778
  217MOL0     H29287   8.108   0.699   8.995 -1.9324 -0.6175 -0.4282
  217MOL0     H29288   8.132   0.594   8.854  0.4099  1.6339  0.0563
  217MOL0     H29289   8.081   0.773   8.696  1.8683  1.2097 -0.9397
  217MOL0     H29290   7.955   0.731   8.802  0.5028 -0.4523 -5.2886
  217MOL0     H29291   8.017   1.142   8.922  2.0837  1.0252 -1.1000
  217MOL0     H29292   8.700   0.727   8.783 -2.3734  1.5345  3.6353
  217MOL0     H29293   8.942   0.686   8.699  0.3437 -0.4360 -2.2307
  217MOL0     H29294   9.040   0.565   8.779 -0.2386  0.9156  0.9287
  217MOL0     H29295   8.963   0.522   8.633 -0.7412  1.3282 -1.4099
  218MOL0     O29296   1.291   0.553   0.971 -0.7160  0.1457  0.0113
  218MOL0     C29297   1.349   0.459   1.018  0.4541  0.3149 -0.4994
  218MOL0     O29298   1.293   0.336   1.035  0.6729  0.5714  0.0616
  218MOL0     C29299   1.186   0.298   0.966  0.6838 -0.1178 -0.3073
  218MOL0     C29300   1.180   0.162   0.930 -0.7378  0.1139 -0.8319
  218MOL0     C29301   1.077   0.099   0.856 -0.6492 -0.0030  1.2110
  218MOL0     C29302   0.972   0.183   0.805  0.0339  0.6909 -0.8159
  218MOL0     O29303   0.869   0.148   0.721 -0.0238 -0.0915  0.3415
  218MOL0     C29304   0.892   0.081   0.598 -0.2867 -0.4944 -0.4869
  218MOL0     C29305   0.798   0.111   0.488 -0.0543  0.4389 -0.3377
  218MOL0     C29306   0.843   0.236   0.406 -0.6959 -0.1125 -0.1153
  218MOL0     C29307   0.827   0.372   0.469 -0.5604  0.0372  0.5783
  218MOL0     C29308   0.892   0.490   0.396 -0.0444  0.1926 -0.4589
  218MOL0     C29309   0.846   0.630   0.461  0.6876 -0.3046  0.0101
  218MOL0     C29310   0.892   0.754   0.377  0.8702 -0.0387 -0.3649
  218MOL0     C29311   1.014   0.825   0.438 -0.1421 -0.2551 -0.0233
  218MOL0     N29312   1.037   0.968   0.400  0.2611 -0.3492 -0.4939
  218MOL0     C29313   0.932   1.054   0.384 -0.1301  0.5097  0.7903
  218MOL0     C29314   0.987   1.153   0.304  0.5018  0.0690  0.3487
  218MOL0     C29315   0.904   1.265   0.250 -0.4344  0.5618  0.5464
  218MOL0     C29316   0.800   1.225   0.142 -0.4860 -0.1294  0.7988
  218MOL0     C29317   0.857   1.270   0.009  0.2347  0.4973  0.3699
  218MOL0     C29318   0.779   1.225  -0.122 -0.3026  0.0258  0.1948
  218MOL0     O29319   0.634   1.223  -0.099  0.5520  0.2851  0.2279
  218MOL0     C29320   0.544   1.181  -0.185  0.0543  0.0064 -0.6542
  218MOL0     C29321   0.411   1.186  -0.146  0.4349 -0.5097 -0.4506
  218MOL0     C29322   0.311   1.155  -0.230 -0.1201 -0.2192 -0.4623
  218MOL0     C29323   0.337   1.095  -0.352  0.3939  0.0943 -0.0933
  218MOL0     C29324   0.224   1.052  -0.439  0.4821 -0.6171  0.9570
  218MOL0     O29325   0.259   1.012  -0.568  0.0298 -0.2833 -0.6493
  218MOL0     C29326   0.189   0.915  -0.636  0.5500 -0.9165  0.7005
  218MOL0     C29327   0.066   0.861  -0.593  0.0213 -0.5098  0.0804
  218MOL0     C29328  -0.017   0.785  -0.688 -0.1276  0.2494 -0.3960
  218MOL0     C29329   0.035   0.742  -0.808 -0.2681  0.0052  0.9992
  218MOL0     O29330  -0.041   0.660  -0.893 -0.1841  0.5575 -0.8722
  218MOL0     C29331  -0.084   0.730  -1.005 -0.5102 -0.2341  0.2806
  218MOL0     C29332  -0.159   0.637  -1.099 -0.5537  0.5899  0.4899
  218MOL0     C29333  -0.235   0.710  -1.210  0.1703 -0.0168  0.1458
  218MOL0     C29334  -0.361   0.773  -1.162 -0.0701  0.3292  0.0555
  218MOL0     C29335  -0.452   0.827  -1.274  0.4267 -0.3936  0.5327
  218MOL0     C29336  -0.419   0.969  -1.335 -0.7359  0.3582 -1.3035
  218MOL0     C29337  -0.335   0.972  -1.467 -0.6382 -1.0955 -0.6271
  218MOL0     C29338  -0.242   1.097  -1.474 -0.7358  0.1526  0.2278
  218MOL0    Cl29339  -0.152   1.069  -1.614 -0.2665  0.2222  0.3508
  218MOL0     C29340   0.169   0.783  -0.840 -0.1475  0.9550 -0.2167
  218MOL0     C29341   0.235   0.875  -0.761 -0.2339 -0.2106 -0.1388
  218MOL0     O29342   0.110   1.057  -0.394  0.2943  0.3810  0.2165
  218MOL0     C29343   0.471   1.096  -0.401  0.4993  0.2374 -1.0993
  218MOL0     C29344   0.573   1.139  -0.311 -0.3865  0.3302  1.0027
  218MOL0     N29345   1.125   1.132   0.282 -0.0902  0.4366  0.2113
  218MOL0     N29346   1.158   1.022   0.349 -0.1080 -0.2917  0.6103
  218MOL0     C29347   0.965   0.317   0.856 -0.5150  0.4862 -0.0418
  218MOL0     C29348   1.073   0.381   0.928 -0.2661  0.0229 -0.3918
  218MOL0     C29349   1.483   0.474   1.074  0.4293  0.1948 -1.1048
  218MOL0     C29350   1.562   0.352   1.084 -0.5744  0.4016 -0.7637
  218MOL0     C29351   1.679   0.345   1.159  0.0475 -0.1240  0.0489
  218MOL0     C29352   1.736   0.461   1.212 -0.3347  0.9785  0.8478
  218MOL0     O29353   1.836   0.433   1.312 -0.6014 -1.0374  0.5079
  218MOL0     C29354   1.882   0.533   1.408  0.5391  0.7666  0.1351
  218MOL0     C29355   1.996   0.616   1.348 -0.2056 -0.1134 -0.5815
  218MOL0     C29356   2.037   0.721   1.450 -1.1053  0.6573  0.5535
  218MOL0     C29357   2.146   0.808   1.387  0.7581 -0.2343  0.8721
  218MOL0     C29358   2.180   0.923   1.474 -0.9580 -0.8337 -0.9297
  218MOL0     C29359   2.209   0.993   1.565 -0.6962  0.4651 -0.6410
  218MOL0     C29360   1.665   0.581   1.190 -0.8833 -0.5007 -0.3416
  218MOL0     C29361   1.548   0.591   1.116 -0.4468  0.8886  0.4871
  218MOL0     C29362   1.496   0.724   1.084  0.1021 -0.5816  1.4180
  218MOL0     H29363   1.254   0.089   0.962 -1.2870  0.9198  2.6810
  218MOL0     H29364   1.087  -0.008   0.839  2.7667  0.0309  2.2314
  218MOL0     H29365   0.992   0.104   0.560 -0.8002  1.0447 -0.9731
  218MOL0     H29366   0.889  -0.027   0.617 -1.0279 -0.0619  2.3144
  218MOL0     H29367   0.698   0.122   0.533 -0.1452  0.2370 -0.4881
  218MOL0     H29368   0.793   0.021   0.426  2.2277 -2.0479  2.7719
  218MOL0     H29369   0.798   0.229   0.306  1.6270  1.0610 -1.3469
  218MOL0     H29370   0.950   0.221   0.387 -0.6393  1.6888 -1.5051
  218MOL0     H29371   0.718   0.382   0.468 -0.7622 -1.6433  1.6992
  218MOL0     H29372   0.871   0.362   0.569  1.4511 -2.2728 -0.4383
  218MOL0     H29373   1.001   0.480   0.405  0.1608  0.3861 -2.3975
  218MOL0     H29374   0.862   0.486   0.291 -1.4432 -0.6454 -0.0548
  218MOL0     H29375   0.738   0.626   0.447  0.3718  1.2232  1.6380
  218MOL0     H29376   0.876   0.632   0.566  1.6693  1.8079 -0.2587
  218MOL0     H29377   0.802   0.816   0.372 -0.5574 -2.0895 -2.6350
  218MOL0     H29378   0.920   0.722   0.276  0.7275 -1.5127  0.0381
  218MOL0     H29379   1.005   0.835   0.547 -0.1419  1.9950 -0.1715
  218MOL0     H29380   1.105   0.770   0.412  0.8065  1.7020 -1.1003
  218MOL0     H29381   0.828   1.055   0.413 -0.2407  0.0629  0.4299
  218MOL0     H29382   0.856   1.305   0.340 -2.7181 -0.3796 -0.1922
  218MOL0     H29383   0.983   1.334   0.218 -0.4047  0.0589 -0.4709
  218MOL0     H29384   0.784   1.118   0.122  0.9220  0.0783 -1.8928
  218MOL0     H29385   0.710   1.282   0.168 -0.4865  0.4098 -0.3511
  218MOL0     H29386   0.958   1.229   0.005 -0.0379 -0.3242  1.4021
  218MOL0     H29387   0.866   1.379   0.005  3.3981  0.3048 -0.1375
  218MOL0     H29388   0.816   1.126  -0.151  2.4661  1.2669 -0.8901
  218MOL0     H29389   0.812   1.289  -0.205  1.4633 -0.5901  0.3684
  218MOL0     H29390   0.385   1.228  -0.050  2.1749  0.4130 -0.3468
  218MOL0     H29391   0.208   1.181  -0.205  1.0698  2.1999  2.7180
  218MOL0     H29392   0.023   0.876  -0.495 -1.8723 -1.9104 -0.4885
  218MOL0     H29393  -0.107   0.737  -0.650  1.8184 -0.7768  3.4335
  218MOL0     H29394  -0.139   0.819  -0.975  0.0885 -0.0055  0.7394
  218MOL0     H29395  -0.004   0.769  -1.069 -0.6406 -1.3895 -0.6153
  218MOL0     H29396  -0.088   0.570  -1.149 -1.9213  1.0988 -2.3580
  218MOL0     H29397  -0.231   0.577  -1.043 -0.1528 -2.3424 -1.8636
  218MOL0     H29398  -0.166   0.783  -1.254  0.5335  0.3679  1.3354
  218MOL0     H29399  -0.266   0.646  -1.294  0.0704  2.1698 -1.5963
  218MOL0     H29400  -0.335   0.858  -1.098  1.6079 -1.0262  1.2704
  218MOL0     H29401  -0.413   0.698  -1.102  0.4056 -0.5622 -0.6142
  218MOL0     H29402  -0.554   0.835  -1.236  0.3542  3.1239 -0.0520
  218MOL0     H29403  -0.459   0.751  -1.352  1.5674 -1.0353  1.0349
  218MOL0     H29404  -0.519   1.013  -1.338 -0.7358  0.6326  0.9098
  218MOL0     H29405  -0.383   1.031  -1.253  0.2374 -2.9365  0.9970
  218MOL0     H29406  -0.408   0.980  -1.549 -0.3247 -3.2598 -1.1995
  218MOL0     H29407  -0.284   0.878  -1.492  0.3873  0.1238 -3.6199
  218MOL0     H29408  -0.304   1.188  -1.479  0.8824  1.2549 -0.9564
  218MOL0     H29409  -0.181   1.106  -1.383 -1.0918  2.9911  0.2875
  218MOL0     H29410   0.211   0.742  -0.931 -2.3150 -2.2246  0.0558
  218MOL0     H29411   0.328   0.915  -0.797 -1.7064  1.8464 -1.8776
  218MOL0     H29412   0.492   1.072  -0.505 -2.2022 -2.4249 -1.1695
  218MOL0     H29413   0.677   1.127  -0.339 -0.0340  2.7849  0.9984
  218MOL0     H29414   0.876   0.368   0.821 -0.9280 -0.0386  0.2318
  218MOL0     H29415   1.079   0.484   0.962  1.4377  0.0137 -0.5440
  218MOL0     H29416   1.514   0.260   1.054  0.6472 -0.3197 -0.5501
  218MOL0     H29417   1.723   0.247   1.177  1.4878  0.4025 -0.4708
  218MOL0     H29418   1.909   0.478   1.499 -0.7691 -0.6564 -0.2910
  218MOL0     H29419   1.796   0.597   1.426 -1.2851 -0.6794 -2.7866
  218MOL0     H29420   1.962   0.660   1.253  1.3026 -0.5641 -1.3566
  218MOL0     H29421   2.075   0.553   1.307 -0.6710  0.5498 -2.6313
  218MOL0     H29422   2.078   0.675   1.540  0.0030 -1.0448 -0.7636
  218MOL0     H29423   1.955   0.789   1.473 -2.2170 -0.2041 -0.7252
  218MOL0     H29424   2.236   0.760   1.349  0.8094  0.7640 -0.3508
  218MOL0     H29425   2.117   0.868   1.300 -2.0177 -1.2578  0.9864
  218MOL0     H29426   2.236   1.060   1.645 -0.7235 -0.4776  0.1709
  218MOL0     H29427   1.701   0.673   1.234  0.1535 -2.2624  2.7673
  218MOL0     H29428   1.399   0.745   1.129 -0.1842  1.9378 -0.1947
  218MOL0     H29429   1.579   0.789   1.114  1.3481 -1.7583  0.6581
  218MOL0     H29430   1.486   0.744   0.977 -1.4061  1.8397  1.9192
  219MOL0     O29431   1.013   8.038   6.282  0.0379 -0.1836  0.7957
  219MOL0     C29432   0.989   7.947   6.357 -0.2084  0.5446  0.1403
  219MOL0     O29433   1.065   7.829   6.370  0.1675  0.7305  0.2396
  219MOL0     C29434   1.194   7.815   6.349 -0.7041 -0.1982  0.0557
  219MOL0     C29435   1.297   7.908   6.374 -0.7473 -0.3317  0.1630
  219MOL0     C29436   1.425   7.864   6.359 -0.5570  0.7137  0.6152
  219MOL0     C29437   1.455   7.736   6.339 -0.2013  0.4061 -0.0163
  219MOL0     O29438   1.584   7.703   6.329  0.2512  0.3172  0.3668
  219MOL0     C29439   1.695   7.809   6.347  0.8342  1.0008  0.2474
  219MOL0     C29440   1.835   7.772   6.344 -0.5082 -0.7469  0.1138
  219MOL0     C29441   1.903   7.772   6.481 -0.2439 -0.1759  0.3406
  219MOL0     C29442   2.054   7.729   6.469 -0.6479  0.1897 -0.0779
  219MOL0     C29443   2.156   7.851   6.484  0.2149 -0.3617  0.2786
  219MOL0     C29444   2.295   7.823   6.428  0.9600  0.6302 -0.6354
  219MOL0     C29445   2.349   7.699   6.489 -0.5121  0.1942 -0.0164
  219MOL0     C29446   2.498   7.686   6.463 -0.2132 -0.5317  0.0594
  219MOL0     N29447   2.583   7.800   6.522  0.3512  0.3752 -0.7621
  219MOL0     C29448   2.638   7.801   6.649 -0.3489  0.4157  1.1084
  219MOL0     C29449   2.712   7.920   6.645  0.0076  0.2928  0.3219
  219MOL0     C29450   2.794   7.961   6.759  0.1475 -0.8345 -0.2364
  219MOL0     C29451   2.910   8.063   6.736  0.2005  0.4479  0.9257
  219MOL0     C29452   3.048   7.999   6.692  0.7264  0.0611  0.2831
  219MOL0     C29453   3.057   7.942   6.549  0.4756  0.7039  0.5151
  219MOL0     O29454   3.193   7.903   6.521  0.0215 -0.2958  0.2478
  219MOL0     C29455   3.224   7.854   6.397  0.2717  0.9951  0.1991
  219MOL0     C29456   3.130   7.824   6.303  0.8042 -0.2430 -0.4408
  219MOL0     C29457   3.167   7.764   6.186 -0.3938 -0.0965  0.2700
  219MOL0     C29458   3.296   7.738   6.151  0.0946  0.1479 -0.1390
  219MOL0     C29459   3.323   7.683   6.017 -0.3364 -0.6614 -1.1780
  219MOL0     O29460   3.223   7.667   5.931  0.3747  1.0103  0.4989
  219MOL0     C29461   3.241   7.603   5.815 -0.5416 -0.5043  0.4964
  219MOL0     C29462   3.150   7.644   5.707 -0.7498 -0.2531 -0.9978
  219MOL0     C29463   3.143   7.586   5.582  0.7399  0.1503  0.2792
  219MOL0     C29464   3.217   7.479   5.556  0.0301  0.5395  1.0744
  219MOL0     O29465   3.218   7.409   5.441  0.2993  0.3625  0.5257
  219MOL0     C29466   3.084   7.363   5.417  0.5790  0.6177 -0.8728
  219MOL0     C29467   3.078   7.235   5.342  0.2151 -0.2302 -0.4885
  219MOL0     C29468   2.921   7.212   5.332  0.5330  0.7520 -1.8868
  219MOL0     C29469   2.879   7.085   5.256 -0.4489  0.2098  0.5849
  219MOL0     C29470   2.868   6.960   5.344  0.2264 -0.1814  0.4369
  219MOL0     C29471   2.842   6.834   5.262  0.3505  0.9149  0.0999
  219MOL0     C29472   2.696   6.842   5.193  0.4289 -0.7623 -0.9380
  219MOL0     C29473   2.702   6.777   5.060  0.2335  0.3342 -0.0995
  219MOL0    Cl29474   2.558   6.700   4.993 -0.1636 -0.3020 -0.1389
  219MOL0     C29475   3.305   7.433   5.656 -0.0056 -0.4907 -1.0912
  219MOL0     C29476   3.321   7.492   5.782  0.2357  0.0607 -0.1633
  219MOL0     O29477   3.444   7.678   5.985 -0.1747  0.5749  0.0914
  219MOL0     C29478   3.397   7.763   6.246  0.0894  0.3937 -0.2972
  219MOL0     C29479   3.358   7.816   6.369  0.5243  0.6129 -0.2260
  219MOL0     N29480   2.704   7.976   6.525 -0.2704 -0.1898 -0.0326
  219MOL0     N29481   2.615   7.912   6.456  0.1924 -0.0360 -0.3006
  219MOL0     C29482   1.353   7.638   6.327 -0.7865  0.1512  0.7550
  219MOL0     C29483   1.220   7.678   6.325 -0.1314  0.5723 -0.0597
  219MOL0     C29484   0.858   7.940   6.425  0.7403  0.1774 -0.4293
  219MOL0     C29485   0.785   7.816   6.414 -1.2445  0.6332 -0.1098
  219MOL0     C29486   0.658   7.799   6.459 -0.0405  0.4688  0.1971
  219MOL0     C29487   0.593   7.901   6.531  0.5114  0.5521  0.1058
  219MOL0     O29488   0.474   7.866   6.584 -0.1273 -0.5635  0.1623
  219MOL0     C29489   0.431   7.959   6.687 -0.1180  0.4656  0.2650
  219MOL0     C29490   0.297   7.917   6.744  0.2180 -1.3210  0.1580
  219MOL0     C29491   0.292   7.966   6.891  1.1150  0.5090  0.5979
  219MOL0     C29492   0.153   7.948   6.962  0.4997 -0.1706  0.3592
  219MOL0     C29493   0.136   7.811   7.005 -0.2022 -1.1120 -0.4546
  219MOL0     C29494   0.142   7.701   7.058 -0.5791 -0.6280  0.2861
  219MOL0     C29495   0.655   8.025   6.538  1.0726  0.3557 -0.4638
  219MOL0     C29496   0.783   8.049   6.481  0.4950 -0.5000 -0.5774
  219MOL0     C29497   0.835   8.193   6.477  0.3733 -0.9368  0.5052
  219MOL0     H29498   1.276   8.013   6.394  1.2110  0.0843  0.2565
  219MOL0     H29499   1.492   7.946   6.381 -0.6038  1.0147 -0.3418
  219MOL0     H29500   1.682   7.881   6.265  2.3939 -1.1632 -2.0412
  219MOL0     H29501   1.684   7.851   6.447 -0.4616 -1.4886  1.2308
  219MOL0     H29502   1.878   7.836   6.267 -0.5991 -0.4488  0.3089
  219MOL0     H29503   1.857   7.673   6.302  1.3113 -0.7172  0.9134
  219MOL0     H29504   1.847   7.698   6.539  0.7252  0.8973  2.7861
  219MOL0     H29505   1.894   7.873   6.520  2.1934  1.6130 -3.1488
  219MOL0     H29506   2.061   7.659   6.553  0.2031  2.0754  1.5000
  219MOL0     H29507   2.063   7.669   6.377  0.4858  2.5549 -1.6118
  219MOL0     H29508   2.125   7.944   6.435 -0.4726 -0.2575  0.8824
  219MOL0     H29509   2.152   7.871   6.592 -2.6034  2.0104 -0.1272
  219MOL0     H29510   2.282   7.818   6.320 -1.9380  1.3292 -0.4011
  219MOL0     H29511   2.369   7.903   6.441  0.5964  0.8435  0.1869
  219MOL0     H29512   2.293   7.607   6.471  1.6978 -1.6210  1.7841
  219MOL0     H29513   2.343   7.714   6.597 -2.7817 -1.2064  0.1188
  219MOL0     H29514   2.546   7.603   6.515 -0.8547  0.2485  2.0077
  219MOL0     H29515   2.509   7.675   6.355 -1.6859 -2.6415  0.0635
  219MOL0     H29516   2.635   7.713   6.713 -3.5868  1.4219  2.5698
  219MOL0     H29517   2.734   7.995   6.844  2.3705  0.1705  1.0325
  219MOL0     H29518   2.832   7.867   6.800  1.6822  1.2991  3.8472
  219MOL0     H29519   2.894   8.151   6.672  5.8242  2.7280  2.0354
  219MOL0     H29520   2.919   8.120   6.829 -1.3681 -0.0810  1.4388
  219MOL0     H29521   3.075   7.923   6.765  0.7440 -0.6757 -0.4730
  219MOL0     H29522   3.127   8.075   6.695  1.1099 -0.3193  0.0270
  219MOL0     H29523   3.013   8.018   6.482  1.6223 -0.3071 -1.4757
  219MOL0     H29524   3.008   7.845   6.541  2.1017 -0.1366  0.4779
  219MOL0     H29525   3.025   7.846   6.320  1.3180  0.9924  1.4382
  219MOL0     H29526   3.083   7.735   6.124 -0.2016  1.2734 -0.6806
  219MOL0     H29527   3.078   7.717   5.743  0.4034 -0.6460  2.4907
  219MOL0     H29528   3.083   7.641   5.510 -0.1359 -0.9707  0.1307
  219MOL0     H29529   3.032   7.338   5.510  0.0470 -2.9441 -1.9934
  219MOL0     H29530   3.032   7.447   5.371  1.0767  1.9563  0.8918
  219MOL0     H29531   3.116   7.249   5.240  3.1879 -0.0407  0.5597
  219MOL0     H29532   3.137   7.150   5.377  0.8652 -0.3495 -1.8015
  219MOL0     H29533   2.884   7.199   5.434 -0.0397  2.0142 -1.9171
  219MOL0     H29534   2.879   7.300   5.283 -2.4547  0.7589  0.3949
  219MOL0     H29535   2.954   7.074   5.177 -2.5597 -1.0290 -1.3718
  219MOL0     H29536   2.783   7.103   5.207 -1.3040  0.1186  2.1492
  219MOL0     H29537   2.791   6.978   5.420  1.8151  1.1261  1.8446
  219MOL0     H29538   2.960   6.945   5.401  1.2853 -1.2542 -1.4672
  219MOL0     H29539   2.922   6.819   5.189  1.3741 -1.3109  1.5805
  219MOL0     H29540   2.840   6.745   5.326 -0.6742  1.2874  0.6233
  219MOL0     H29541   2.645   6.939   5.197  3.1590  0.7457  0.6215
  219MOL0     H29542   2.633   6.782   5.258 -1.4012  0.1888 -1.7800
  219MOL0     H29543   2.733   6.841   4.976 -1.5578  0.6056 -0.5972
  219MOL0     H29544   2.765   6.687   5.059  1.1398  0.9466  0.0447
  219MOL0     H29545   3.359   7.339   5.647 -2.4552 -2.6932  3.6901
  219MOL0     H29546   3.397   7.469   5.856 -1.6274 -0.6404  1.6000
  219MOL0     H29547   3.497   7.730   6.219 -1.0128 -1.4465 -2.5573
  219MOL0     H29548   3.433   7.832   6.446 -0.8254 -0.1557  1.3145
  219MOL0     H29549   1.379   7.532   6.330  1.0048  0.5491  0.2367
  219MOL0     H29550   1.146   7.599   6.317 -0.6348  0.2724  4.7173
  219MOL0     H29551   0.845   7.727   6.394 -0.1748  1.0464  1.1139
  219MOL0     H29552   0.622   7.697   6.450 -1.2059  0.9300 -0.5140
  219MOL0     H29553   0.412   8.054   6.636  1.1136 -0.3267 -1.8108
  219MOL0     H29554   0.511   7.968   6.762 -0.5067 -1.0705  0.9050
  219MOL0     H29555   0.288   7.808   6.747 -0.1797 -1.2648  1.2136
  219MOL0     H29556   0.213   7.966   6.694  1.6059  1.0152 -0.0197
  219MOL0     H29557   0.317   8.073   6.892 -0.2678  0.9612 -2.1961
  219MOL0     H29558   0.364   7.923   6.960 -0.8530 -1.4204  1.5505
  219MOL0     H29559   0.148   8.027   7.037  1.2102  1.8973 -1.6531
  219MOL0     H29560   0.070   7.957   6.891  0.3239 -1.2891  0.4035
  219MOL0     H29561   0.142   7.597   7.085  0.0997 -1.5919 -2.9102
  219MOL0     H29562   0.616   8.117   6.581  2.1668  1.9779 -2.6705
  219MOL0     H29563   0.942   8.197   6.501  0.2802 -0.2280  0.8177
  219MOL0     H29564   0.817   8.244   6.382  1.1202  0.0256  0.8486
  219MOL0     H29565   0.787   8.261   6.548 -0.5646  1.0249 -1.8652
  220MOL0     O29566   3.797   4.082   6.644  0.5692  0.3151  0.7968
  220MOL0     C29567   3.887   4.072   6.560  0.7650  0.2108 -0.1904
  220MOL0     O29568   4.021   4.068   6.599 -0.1471 -0.0828  0.6845
  220MOL0     C29569   4.065   4.099   6.722 -0.8121  0.1035  0.0654
  220MOL0     C29570   4.154   4.015   6.783 -0.5112  0.5522  0.9085
  220MOL0     C29571   4.190   4.023   6.921  0.5395  0.6838  0.1908
  220MOL0     C29572   4.142   4.125   6.994  0.3127 -0.3763 -0.3327
  220MOL0     O29573   4.180   4.119   7.124  0.0851 -0.0790  0.0448
  220MOL0     C29574   4.226   4.240   7.189 -0.1701 -0.7162  0.3253
  220MOL0     C29575   4.121   4.332   7.254  0.8685  0.4002  0.4395
  220MOL0     C29576   4.096   4.298   7.399 -0.1736  0.7192  0.2284
  220MOL0     C29577   4.046   4.422   7.465  0.6582  0.7315  0.1031
  220MOL0     C29578   4.014   4.393   7.615  0.8353 -0.4969  0.5252
  220MOL0     C29579   3.968   4.519   7.691 -0.4257 -0.0060  0.9731
  220MOL0     C29580   4.079   4.629   7.712  0.5102 -0.7441 -0.7452
  220MOL0     C29581   4.032   4.732   7.813  0.1316 -0.0070  0.2743
  220MOL0     N29582   4.152   4.799   7.875  0.5875  0.0938 -0.2008
  220MOL0     C29583   4.233   4.758   7.976  0.4657  0.9488  0.1313
  220MOL0     C29584   4.308   4.860   8.016 -0.6445  0.0582  0.2746
  220MOL0     C29585   4.390   4.879   8.146 -0.3697  0.2650  0.4998
  220MOL0     C29586   4.316   4.965   8.244  0.3930  0.4192 -0.0185
  220MOL0     C29587   4.207   4.881   8.307 -0.5409 -0.2646 -0.4240
  220MOL0     C29588   4.116   4.975   8.379  0.2139  0.4080  0.3261
  220MOL0     O29589   4.038   5.067   8.285 -0.3708  0.5231 -0.2372
  220MOL0     C29590   3.960   5.014   8.188  0.2759 -0.5739 -1.1145
  220MOL0     C29591   3.903   4.888   8.199 -0.6007 -0.3519  0.3021
  220MOL0     C29592   3.816   4.849   8.101  0.1936  0.7788  0.3651
  220MOL0     C29593   3.783   4.933   7.997 -0.2994 -0.7610 -1.4094
  220MOL0     C29594   3.705   4.883   7.884  0.3672  0.1979  0.0155
  220MOL0     O29595   3.713   4.753   7.853  0.0038 -0.7324 -0.9890
  220MOL0     C29596   3.662   4.696   7.734  0.6173 -0.2060 -0.0549
  220MOL0     C29597   3.608   4.573   7.726 -0.3441  0.6054 -0.0485
  220MOL0     C29598   3.569   4.523   7.593 -0.4860 -1.0151  0.5395
  220MOL0     C29599   3.588   4.597   7.478  0.4132 -0.6838  0.0953
  220MOL0     O29600   3.576   4.538   7.355 -0.7269  0.3772  0.4062
  220MOL0     C29601   3.605   4.400   7.334 -0.3143  1.0635  0.5385
  220MOL0     C29602   3.624   4.349   7.186 -0.1373  0.3063  0.1001
  220MOL0     C29603   3.744   4.415   7.110 -0.3005 -0.7643  1.0873
  220MOL0     C29604   3.726   4.560   7.078  0.9043 -0.3519 -0.0182
  220MOL0     C29605   3.851   4.613   7.024  0.4134 -0.3704  0.2522
  220MOL0     C29606   3.893   4.570   6.882  0.4144  0.5279 -0.5201
  220MOL0     C29607   3.819   4.651   6.772 -0.0487  0.2471 -0.8369
  220MOL0     C29608   3.821   4.571   6.645 -0.4903  0.1568 -0.4735
  220MOL0    Cl29609   3.751   4.398   6.647  0.2211 -0.0962  0.1256
  220MOL0     C29610   3.634   4.733   7.486  1.0477  0.0555 -1.1658
  220MOL0     C29611   3.685   4.771   7.618 -0.2994  0.0565  0.5555
  220MOL0     O29612   3.618   4.959   7.832 -0.8731 -0.1368 -0.1009
  220MOL0     C29613   3.842   5.063   7.988  0.0819 -0.9235 -1.0470
  220MOL0     C29614   3.931   5.096   8.087 -0.0229  0.2570 -0.7488
  220MOL0     N29615   4.282   4.959   7.925 -0.0154  0.0075  0.5522
  220MOL0     N29616   4.188   4.923   7.843  0.2678 -0.2157  0.9306
  220MOL0     C29617   4.041   4.211   6.940  0.2698  0.3796 -0.0853
  220MOL0     C29618   4.006   4.196   6.806  0.4270  0.6889 -0.6171
  220MOL0     C29619   3.861   4.076   6.421  0.1466  0.6449 -0.8731
  220MOL0     C29620   3.722   4.109   6.395  0.8022 -0.6802  0.2687
  220MOL0     C29621   3.675   4.104   6.266 -0.2554  0.0714 -0.3439
  220MOL0     C29622   3.755   4.069   6.156  0.4035  0.9938 -0.1623
  220MOL0     O29623   3.695   4.103   6.031 -0.2616 -0.3892 -1.0224
  220MOL0     C29624   3.771   4.057   5.920  0.1198  1.0277 -0.5082
  220MOL0     C29625   3.696   4.126   5.805  0.0329  0.8677 -0.5461
  220MOL0     C29626   3.727   4.055   5.673  0.1542 -0.0382 -0.6517
  220MOL0     C29627   3.866   4.094   5.612  0.1398  0.4188 -0.3865
  220MOL0     C29628   3.893   4.015   5.490 -0.4519  0.4716 -0.4790
  220MOL0     C29629   3.936   3.958   5.391  0.2538  0.2796 -0.2970
  220MOL0     C29630   3.873   4.020   6.182  0.0483 -1.1519 -0.5770
  220MOL0     C29631   3.935   4.019   6.313  0.4242  0.3173  1.0418
  220MOL0     C29632   4.074   3.961   6.323  0.2268  0.4741  0.6328
  220MOL0     H29633   4.216   3.972   6.706  1.0529  0.7762  1.9824
  220MOL0     H29634   4.252   3.956   6.979 -0.3651  0.1989  0.6272
  220MOL0     H29635   4.288   4.202   7.270  0.1869 -0.0746  0.3526
  220MOL0     H29636   4.281   4.291   7.110 -0.2508 -0.0411  0.6982
  220MOL0     H29637   4.025   4.323   7.202  2.3377 -0.0875 -2.3963
  220MOL0     H29638   4.148   4.437   7.236  0.6898  0.3504 -0.1536
  220MOL0     H29639   4.182   4.273   7.462  0.3577  0.2237 -0.6790
  220MOL0     H29640   4.012   4.227   7.402 -1.1965  1.7022 -2.4681
  220MOL0     H29641   4.135   4.486   7.467  2.2559 -1.3093 -0.9637
  220MOL0     H29642   3.956   4.468   7.423 -1.1851  1.3614  4.2109
  220MOL0     H29643   3.935   4.318   7.625 -1.5115  1.8329  0.5444
  220MOL0     H29644   4.099   4.350   7.670  2.0099 -1.2286 -1.7355
  220MOL0     H29645   3.900   4.565   7.619  0.4430 -1.5692 -0.9442
  220MOL0     H29646   3.924   4.483   7.784 -0.0664 -2.5685  0.2391
  220MOL0     H29647   4.120   4.691   7.631  1.7384  1.1094  1.2078
  220MOL0     H29648   4.157   4.579   7.769  0.0038 -1.0667 -0.3275
  220MOL0     H29649   3.959   4.794   7.760  2.1835  1.5166 -0.9170
  220MOL0     H29650   3.975   4.675   7.887  0.3145 -0.2542  0.2243
  220MOL0     H29651   4.219   4.678   8.048  1.9190 -0.3325 -0.9300
  220MOL0     H29652   4.414   4.780   8.186  1.5956 -1.3916 -4.0633
  220MOL0     H29653   4.485   4.929   8.123 -0.1658 -0.8680 -1.3381
  220MOL0     H29654   4.392   4.979   8.321  1.2312  0.2294 -0.7996
  220MOL0     H29655   4.282   5.060   8.203  2.1443  1.4464  0.8001
  220MOL0     H29656   4.256   4.821   8.384  1.2520  0.9365 -0.5699
  220MOL0     H29657   4.153   4.818   8.236  2.9479 -2.6771 -1.1899
  220MOL0     H29658   4.179   5.034   8.447  2.7733 -0.6209 -1.0340
  220MOL0     H29659   4.047   4.916   8.440  0.1973 -1.0067 -0.9875
  220MOL0     H29660   3.919   4.822   8.284 -0.9082 -1.6178 -0.5754
  220MOL0     H29661   3.765   4.753   8.104  3.1163 -0.8527  2.0813
  220MOL0     H29662   3.595   4.504   7.808  2.1212 -1.3570 -1.1613
  220MOL0     H29663   3.503   4.438   7.581 -2.6292  0.8321 -2.1205
  220MOL0     H29664   3.706   4.393   7.376 -0.6808  0.5156  1.3465
  220MOL0     H29665   3.531   4.333   7.377 -1.1206  1.7268  0.2024
  220MOL0     H29666   3.649   4.242   7.188 -2.4970 -0.4004 -2.2138
  220MOL0     H29667   3.533   4.360   7.127  2.1533 -0.5987 -3.9984
  220MOL0     H29668   3.832   4.398   7.173 -1.7840 -0.6437  3.3286
  220MOL0     H29669   3.746   4.373   7.009  0.3299  3.3626 -0.8079
  220MOL0     H29670   3.687   4.618   7.162  0.9103 -0.0661 -0.2125
  220MOL0     H29671   3.643   4.554   7.007  0.0682 -3.1375  1.0265
  220MOL0     H29672   3.928   4.605   7.101 -3.5861  1.3232  4.9213
  220MOL0     H29673   3.836   4.721   7.016 -1.5278 -0.6402 -0.1280
  220MOL0     H29674   3.998   4.596   6.863  0.2602  1.2580 -0.3983
  220MOL0     H29675   3.896   4.461   6.873  4.0163  0.4134  0.5072
  220MOL0     H29676   3.880   4.738   6.748  2.0688 -0.7928  0.5120
  220MOL0     H29677   3.717   4.680   6.801  0.8286  1.3541  1.3857
  220MOL0     H29678   3.779   4.630   6.563 -0.6024 -1.4470 -1.6280
  220MOL0     H29679   3.926   4.556   6.616  0.4216  0.8148  2.1985
  220MOL0     H29680   3.639   4.799   7.400 -0.1812  2.5804  0.6005
  220MOL0     H29681   3.728   4.869   7.633 -1.0589  0.5318 -0.2323
  220MOL0     H29682   3.817   5.138   7.913 -0.4888  2.1163  1.9580
  220MOL0     H29683   3.974   5.194   8.071  0.5454 -0.3222 -3.1269
  220MOL0     H29684   3.995   4.293   6.993  2.9921  0.8222  1.7840
  220MOL0     H29685   3.929   4.270   6.784  0.4439  1.8497  2.6011
  220MOL0     H29686   3.651   4.139   6.471  2.7109  1.0814  1.4551
  220MOL0     H29687   3.578   4.153   6.262  1.2576  3.9324  2.9626
  220MOL0     H29688   3.769   3.948   5.924 -1.8037  1.0876  1.4447
  220MOL0     H29689   3.875   4.091   5.928  0.9904 -1.7921  1.6980
  220MOL0     H29690   3.736   4.228   5.813  0.6749  0.6651 -1.1696
  220MOL0     H29691   3.588   4.118   5.819  0.5729 -3.4784  3.7934
  220MOL0     H29692   3.652   4.067   5.594  3.1162  0.0729 -3.6372
  220MOL0     H29693   3.732   3.947   5.687 -1.0594 -0.1301 -0.7982
  220MOL0     H29694   3.874   4.202   5.596  0.3326  0.2669 -1.3270
  220MOL0     H29695   3.949   4.063   5.677 -1.5141 -0.2976  1.4770
  220MOL0     H29696   3.980   3.922   5.300 -1.0213 -1.0417 -0.4158
  220MOL0     H29697   3.931   3.990   6.095 -0.4708  2.0249 -2.1691
  220MOL0     H29698   4.051   3.879   6.393 -1.9723 -0.7459 -1.3881
  220MOL0     H29699   4.117   3.919   6.232  0.4434 -1.6844  1.6631
  220MOL0     H29700   4.136   4.039   6.369  2.0259  1.1950 -2.7435
  221MOL0     O29701   4.905   4.001   3.781  0.7532 -0.4467 -0.2164
  221MOL0     C29702   4.784   4.024   3.772 -0.1446 -0.5125  0.0166
  221MOL0     O29703   4.695   3.981   3.862  0.6066  0.0925 -0.4751
  221MOL0     C29704   4.727   3.870   3.941 -0.5047 -0.0819 -0.7964
  221MOL0     C29705   4.686   3.894   4.074 -0.2104 -0.0287 -0.8573
  221MOL0     C29706   4.707   3.799   4.174  0.3511  1.2195  0.3012
  221MOL0     C29707   4.779   3.682   4.145 -0.8628 -0.3552 -0.5763
  221MOL0     O29708   4.799   3.597   4.254 -1.5352 -0.8970 -0.5026
  221MOL0     C29709   4.863   3.469   4.253 -0.2504  0.9959  0.5062
  221MOL0     C29710   4.994   3.462   4.338  0.0196 -0.1802 -0.0571
  221MOL0     C29711   5.112   3.535   4.279  0.0733 -0.5903  0.2256
  221MOL0     C29712   5.220   3.561   4.384  0.3255  0.1204  0.5616
  221MOL0     C29713   5.269   3.713   4.391  0.0459  0.7737 -0.2772
  221MOL0     C29714   5.381   3.753   4.494 -0.4455  0.0631  0.1195
  221MOL0     C29715   5.454   3.882   4.448  0.2694 -0.4330  0.3862
  221MOL0     C29716   5.564   3.835   4.353 -1.0629 -1.2383 -0.0345
  221MOL0     N29717   5.686   3.801   4.439  0.4938 -0.0794 -0.3304
  221MOL0     C29718   5.741   3.687   4.476 -0.4261  0.0730 -0.0276
  221MOL0     C29719   5.841   3.725   4.554 -0.9542  1.4587 -0.4689
  221MOL0     C29720   5.921   3.626   4.640  0.2895  0.3745 -0.5519
  221MOL0     C29721   5.826   3.559   4.746  0.0783  1.1709 -0.3908
  221MOL0     C29722   5.909   3.513   4.870 -0.0215  0.4508 -0.2763
  221MOL0     C29723   5.917   3.618   4.982 -0.5891 -1.0742 -0.7600
  221MOL0     O29724   5.780   3.652   5.013  0.0440  0.3672  0.0524
  221MOL0     C29725   5.738   3.690   5.142 -0.8234 -0.3888  0.2951
  221MOL0     C29726   5.821   3.673   5.255 -0.1887  0.5748  0.0793
  221MOL0     C29727   5.781   3.723   5.379  0.4014  1.0362  0.4660
  221MOL0     C29728   5.654   3.802   5.394  0.2831 -0.3742 -0.4505
  221MOL0     C29729   5.603   3.857   5.523  0.6729  0.7640 -0.0946
  221MOL0     O29730   5.698   3.877   5.618 -0.5412 -0.1058 -0.4293
  221MOL0     C29731   5.652   3.900   5.744 -0.2835 -1.0579 -0.2781
  221MOL0     C29732   5.602   4.030   5.775  0.1761 -0.0796  0.0836
  221MOL0     C29733   5.560   4.056   5.903 -0.1934  0.3470  0.6899
  221MOL0     C29734   5.578   3.958   5.997  0.4886 -0.8759  0.5960
  221MOL0     O29735   5.547   4.005   6.120 -0.3421  0.0067  0.2471
  221MOL0     C29736   5.643   3.970   6.229 -0.3536 -0.8070  0.7000
  221MOL0     C29737   5.595   4.034   6.358  0.3431 -0.5008 -0.2584
  221MOL0     C29738   5.720   4.064   6.429 -0.3204  0.0537 -0.5456
  221MOL0     C29739   5.687   4.139   6.562 -0.5353  0.1099 -0.2537
  221MOL0     C29740   5.800   4.227   6.610  0.1279  1.2520  0.3707
  221MOL0     C29741   5.929   4.143   6.654  0.6191  0.0457  0.2334
  221MOL0     C29742   6.037   4.228   6.711  0.0180  0.6679 -0.0107
  221MOL0     C29743   6.076   4.358   6.638  0.8856  0.2347 -0.1463
  221MOL0    Cl29744   6.106   4.328   6.462  0.1198  0.5541 -0.5781
  221MOL0     C29745   5.625   3.835   5.967 -0.4162  0.2735 -0.9491
  221MOL0     C29746   5.663   3.807   5.843 -0.6402  0.8343  0.8010
  221MOL0     O29747   5.483   3.881   5.542  0.7361 -0.2517  0.7194
  221MOL0     C29748   5.571   3.805   5.280 -0.9822 -1.0357 -0.4719
  221MOL0     C29749   5.617   3.758   5.154  0.1025  0.0628 -0.9152
  221MOL0     N29750   5.853   3.858   4.568  0.7841 -0.2192 -0.5155
  221MOL0     N29751   5.759   3.900   4.497 -0.4399  0.2909 -0.1730
  221MOL0     C29752   4.816   3.653   4.011  0.3577 -0.6679 -0.2381
  221MOL0     C29753   4.792   3.750   3.911  0.8860  0.4222 -0.1807
  221MOL0     C29754   4.715   4.103   3.662  0.9489 -0.4789 -0.3615
  221MOL0     C29755   4.572   4.138   3.674 -0.1277 -0.4140  0.1775
  221MOL0     C29756   4.505   4.215   3.580 -0.9138  0.6372  0.1443
  221MOL0     C29757   4.565   4.272   3.466  0.4200  0.5627 -0.5623
  221MOL0     O29758   4.494   4.368   3.402  0.0784 -0.5772 -0.7808
  221MOL0     C29759   4.559   4.441   3.293  0.4400 -0.2838 -0.2136
  221MOL0     C29760   4.493   4.577   3.271 -0.0421  0.0480  0.2102
  221MOL0     C29761   4.504   4.656   3.398  0.6417  0.2111 -0.0789
  221MOL0     C29762   4.463   4.800   3.383 -0.4457 -0.5029  0.5642
  221MOL0     C29763   4.531   4.898   3.471 -1.7805  0.1987  0.8589
  221MOL0     C29764   4.602   4.973   3.533 -0.4077  0.5865 -0.8252
  221MOL0     C29765   4.705   4.244   3.455 -0.1803 -0.0006 -0.2311
  221MOL0     C29766   4.781   4.154   3.548  0.5947 -0.0063  0.1750
  221MOL0     C29767   4.918   4.113   3.524 -0.1656 -0.4167  0.0891
  221MOL0     H29768   4.632   3.987   4.094 -0.2269  0.1165 -1.5540
  221MOL0     H29769   4.687   3.816   4.279  1.3876 -2.7860  1.3286
  221MOL0     H29770   4.785   3.397   4.281  0.8511 -0.3248  0.2733
  221MOL0     H29771   4.889   3.434   4.153 -4.0144 -0.6217 -0.0735
  221MOL0     H29772   5.029   3.358   4.342  1.2215  0.1439 -1.4564
  221MOL0     H29773   4.978   3.494   4.442  0.6622  1.2057 -0.3538
  221MOL0     H29774   5.084   3.626   4.225  2.9242 -0.4673 -1.2179
  221MOL0     H29775   5.142   3.477   4.191 -2.4098 -1.1793 -0.3129
  221MOL0     H29776   5.180   3.533   4.482  0.1492  1.8063  1.0081
  221MOL0     H29777   5.293   3.483   4.364  0.6103  0.2876  0.9376
  221MOL0     H29778   5.301   3.735   4.289  2.6316 -1.7148 -0.1465
  221MOL0     H29779   5.182   3.772   4.418 -2.4865 -1.8361 -2.1529
  221MOL0     H29780   5.334   3.772   4.591  2.0131 -0.7446  1.5680
  221MOL0     H29781   5.436   3.659   4.506 -5.6690 -3.1147  2.9070
  221MOL0     H29782   5.493   3.937   4.533 -0.9664 -2.0957  2.1280
  221MOL0     H29783   5.383   3.943   4.391  0.6551 -0.1248  0.2353
  221MOL0     H29784   5.544   3.747   4.292 -1.0049 -0.8773 -0.5785
  221MOL0     H29785   5.582   3.919   4.286  1.9062 -1.6956  0.0319
  221MOL0     H29786   5.699   3.586   4.473 -0.5060  0.0455  1.3596
  221MOL0     H29787   5.960   3.553   4.569  2.2022  0.5575  0.2708
  221MOL0     H29788   6.000   3.685   4.687 -1.0944  1.0485  1.0398
  221MOL0     H29789   5.758   3.640   4.776 -1.9778 -0.5422 -0.2034
  221MOL0     H29790   5.756   3.490   4.700 -0.4751  1.3436  0.1700
  221MOL0     H29791   6.013   3.488   4.849  1.4769  2.0738  3.9967
  221MOL0     H29792   5.851   3.428   4.904 -0.8490  1.1583  0.1222
  221MOL0     H29793   5.975   3.708   4.959 -0.3009 -0.3218  2.4335
  221MOL0     H29794   5.967   3.572   5.067  0.3828  1.8598  0.3799
  221MOL0     H29795   5.925   3.642   5.245  0.4057  2.6123 -0.4827
  221MOL0     H29796   5.844   3.721   5.467  0.1624 -1.7308  0.6335
  221MOL0     H29797   5.602   4.115   5.707 -3.1791 -0.4834 -0.5892
  221MOL0     H29798   5.510   4.149   5.928  0.4469  1.0457 -0.5178
  221MOL0     H29799   5.647   3.863   6.251  2.4892 -0.6506  1.3062
  221MOL0     H29800   5.746   4.002   6.207  0.0337 -0.7681  2.4225
  221MOL0     H29801   5.534   4.123   6.343  0.3245 -0.1751  1.5832
  221MOL0     H29802   5.538   3.968   6.424  0.4211  0.6642  1.0209
  221MOL0     H29803   5.790   3.985   6.456 -1.4524 -0.1667  2.1201
  221MOL0     H29804   5.771   4.137   6.366 -2.1016  1.3385 -0.5804
  221MOL0     H29805   5.646   4.073   6.638  1.5320 -0.0809  0.7534
  221MOL0     H29806   5.599   4.203   6.550 -0.9032 -0.7398 -2.5474
  221MOL0     H29807   5.755   4.281   6.694 -0.2649  2.2395 -0.4603
  221MOL0     H29808   5.828   4.285   6.521 -0.6592  4.1830  1.9006
  221MOL0     H29809   5.906   4.059   6.720 -0.4044  0.8282  0.9049
  221MOL0     H29810   5.965   4.098   6.561 -0.5891  2.5939 -1.5970
  221MOL0     H29811   6.125   4.163   6.714 -1.5645 -1.8883 -3.0000
  221MOL0     H29812   6.016   4.255   6.815 -1.2624 -1.3223  0.2851
  221MOL0     H29813   6.000   4.436   6.641  0.5669 -0.0667 -0.3056
  221MOL0     H29814   6.163   4.390   6.695 -0.5549  2.5661  0.9094
  221MOL0     H29815   5.646   3.760   6.042 -0.9669  0.0509 -1.0129
  221MOL0     H29816   5.693   3.710   5.805 -0.7084  0.1878  2.3186
  221MOL0     H29817   5.476   3.855   5.293 -1.1150 -1.5172  0.4848
  221MOL0     H29818   5.552   3.767   5.068 -1.3962  3.1564  0.3458
  221MOL0     H29819   4.852   3.555   3.980  0.9023 -0.3356 -0.6615
  221MOL0     H29820   4.830   3.717   3.815  0.9023 -2.9214  0.8384
  221MOL0     H29821   4.518   4.097   3.759  0.7835 -1.4832  0.2725
  221MOL0     H29822   4.402   4.238   3.606 -1.4932  0.0550 -1.4798
  221MOL0     H29823   4.547   4.386   3.199  0.2154 -0.8138  0.1203
  221MOL0     H29824   4.662   4.465   3.321 -0.9438  2.6494  3.2781
  221MOL0     H29825   4.390   4.575   3.235 -0.6086 -1.9687  1.7617
  221MOL0     H29826   4.544   4.628   3.189  1.1673 -1.3019  0.0782
  221MOL0     H29827   4.613   4.661   3.410  0.6757 -2.1433  1.3024
  221MOL0     H29828   4.460   4.619   3.491 -1.1600 -0.3810 -1.1182
  221MOL0     H29829   4.473   4.829   3.278  1.2604  1.4529  1.1868
  221MOL0     H29830   4.360   4.813   3.416 -0.6765  1.0068 -0.6294
  221MOL0     H29831   4.658   5.047   3.587  0.9421 -2.1092  1.7538
  221MOL0     H29832   4.759   4.264   3.363  2.5870 -1.5948  0.9250
  221MOL0     H29833   4.931   4.007   3.504  0.8007 -0.2363 -0.2743
  221MOL0     H29834   4.944   4.164   3.430 -1.8885  0.1846 -0.0982
  221MOL0     H29835   4.991   4.150   3.597  0.7692  0.3406 -1.1754
  222MOL0     O29836   7.580   6.091   9.682 -0.0491 -0.3095 -0.9205
  222MOL0     C29837   7.584   6.205   9.728 -0.2925  0.6052  0.5146
  222MOL0     O29838   7.648   6.241   9.840  0.6536  0.4203  0.1161
  222MOL0     C29839   7.744   6.161   9.900 -0.8755 -0.1993 -0.7852
  222MOL0     C29840   7.840   6.226   9.987  0.0148 -1.3207 -0.4708
  222MOL0     C29841   7.933   6.156  10.069 -0.7933  0.6396  0.6200
  222MOL0     C29842   7.947   6.017  10.049  0.0448 -0.5262 -0.6198
  222MOL0     O29843   8.040   5.956  10.127 -1.0731 -0.2411  0.0749
  222MOL0     C29844   8.069   5.823  10.088 -0.5744  0.4373  0.0583
  222MOL0     C29845   8.210   5.794  10.146  1.7010  0.3256 -0.7874
  222MOL0     C29846   8.198   5.772  10.299 -0.5934  0.8087  0.3998
  222MOL0     C29847   8.130   5.635  10.338  0.5358  0.3780  0.4001
  222MOL0     C29848   8.174   5.589  10.480 -0.7251 -0.4093 -0.3140
  222MOL0     C29849   8.093   5.473  10.530  0.1984  0.3559  0.9342
  222MOL0     C29850   8.125   5.444  10.670 -0.3827 -0.3573 -0.8512
  222MOL0     C29851   8.054   5.319  10.723 -0.9873 -0.0450 -0.5726
  222MOL0     N29852   8.073   5.283  10.861  0.2574 -1.1338 -0.5750
  222MOL0     C29853   8.055   5.359  10.975  0.5504 -0.5453 -0.7386
  222MOL0     C29854   8.100   5.285  11.085  0.3340 -0.3595  1.2551
  222MOL0     C29855   8.107   5.314  11.227  0.4157  0.1062 -0.8087
  222MOL0     C29856   8.012   5.228  11.319 -0.6647 -0.9050 -0.3542
  222MOL0     C29857   8.061   5.205  11.453 -0.5274 -0.9897 -0.0597
  222MOL0     C29858   7.977   5.093  11.518 -0.0410  0.0430 -0.1099
  222MOL0     O29859   7.849   5.142  11.553  1.0065  0.2683  0.5256
  222MOL0     C29860   7.759   5.061  11.619 -0.1427 -0.9762  0.3391
  222MOL0     C29861   7.623   5.096  11.628 -0.8608  0.2606 -0.9739
  222MOL0     C29862   7.534   5.010  11.684  0.6157  0.3294  0.6325
  222MOL0     C29863   7.561   4.884  11.736  0.8622  0.6413  0.6799
  222MOL0     C29864   7.454   4.796  11.795  0.8041  0.1691 -0.2175
  222MOL0     O29865   7.487   4.669  11.830 -0.1467 -0.8186 -0.3776
  222MOL0     C29866   7.395   4.570  11.857 -1.1543 -0.2830  0.5761
  222MOL0     C29867   7.262   4.549  11.805 -1.0802  0.4500 -0.6138
  222MOL0     C29868   7.189   4.431  11.822 -0.1842 -0.0476 -0.5098
  222MOL0     C29869   7.247   4.333  11.897 -0.1263 -0.8656 -1.0886
  222MOL0     O29870   7.173   4.215  11.932 -0.7198 -0.5642  0.4181
  222MOL0     C29871   7.079   4.175  11.830 -0.1608 -0.7235  0.5157
  222MOL0     C29872   7.017   4.039  11.856  0.3012  0.4771  1.0843
  222MOL0     C29873   7.126   3.937  11.880  0.0014 -0.4636 -0.1762
  222MOL0     C29874   7.077   3.791  11.835 -0.8256 -0.9405  0.1633
  222MOL0     C29875   7.167   3.690  11.902 -0.0912 -0.2517  0.4410
  222MOL0     C29876   7.113   3.552  11.863 -0.9734  0.1987  0.7602
  222MOL0     C29877   7.214   3.453  11.906 -0.2131  0.4218  0.5089
  222MOL0     C29878   7.190   3.306  11.867 -1.3207 -0.6868  0.3071
  222MOL0    Cl29879   7.052   3.227  11.945  0.4125  0.1185  0.8382
  222MOL0     C29880   7.368   4.360  11.969  0.3252 -0.4224  0.6055
  222MOL0     C29881   7.446   4.480  11.944  1.1378  0.2127 -1.4920
  222MOL0     O29882   7.333   4.834  11.787 -0.5144 -0.3936  0.1397
  222MOL0     C29883   7.693   4.847  11.720  0.4062 -0.7928  0.2206
  222MOL0     C29884   7.790   4.934  11.666 -0.1296 -1.1035 -0.2861
  222MOL0     N29885   8.149   5.168  11.032 -0.3728  0.0926  0.6278
  222MOL0     N29886   8.141   5.172  10.905  0.6190 -0.1722 -1.1592
  222MOL0     C29887   7.855   5.949   9.965 -0.6317 -0.6828 -0.9852
  222MOL0     C29888   7.755   6.028   9.896 -0.1704  1.3034  0.0312
  222MOL0     C29889   7.516   6.314   9.663  0.0424 -0.1094  0.6006
  222MOL0     C29890   7.569   6.443   9.684  0.5214 -0.4510 -0.3266
  222MOL0     C29891   7.525   6.555   9.607  0.5479 -0.2259 -0.8743
  222MOL0     C29892   7.442   6.549   9.502  0.5175  1.0878 -0.1699
  222MOL0     O29893   7.399   6.649   9.432  0.2727  0.9762  0.0557
  222MOL0     C29894   7.259   6.684   9.419 -1.0694  0.1771  0.0488
  222MOL0     C29895   7.215   6.746   9.550  0.3904 -0.4661  0.4128
  222MOL0     C29896   7.079   6.821   9.530 -0.7255 -0.8753 -0.5183
  222MOL0     C29897   7.076   6.977   9.526  0.6209  0.9335 -0.6512
  222MOL0     C29898   7.132   7.030   9.653 -0.7580  0.2739  0.7006
  222MOL0     C29899   7.193   7.069   9.749 -0.1680  0.6017 -0.7408
  222MOL0     C29900   7.387   6.420   9.483  0.0698 -0.1497  0.7503
  222MOL0     C29901   7.417   6.308   9.563 -1.0098  0.3845 -0.0245
  222MOL0     C29902   7.325   6.191   9.552 -0.5042 -0.0320  0.1165
  222MOL0     H29903   7.839   6.335   9.985 -1.2338 -1.3304 -2.3165
  222MOL0     H29904   7.986   6.196  10.154 -0.8169 -2.0673  2.0211
  222MOL0     H29905   7.996   5.759  10.137 -0.5336 -1.1891 -1.8781
  222MOL0     H29906   8.067   5.803   9.980 -5.6930 -1.9066  0.2864
  222MOL0     H29907   8.276   5.876  10.116 -0.2318  2.3659  0.2268
  222MOL0     H29908   8.244   5.702  10.098  3.0006 -0.2704  1.1760
  222MOL0     H29909   8.138   5.850  10.347 -0.9787  2.7571 -2.9486
  222MOL0     H29910   8.299   5.791  10.338 -0.1701  0.8640 -0.6887
  222MOL0     H29911   8.022   5.653  10.340  0.5125  0.2374  1.7547
  222MOL0     H29912   8.146   5.550  10.271 -0.7439  0.6621 -0.3076
  222MOL0     H29913   8.280   5.562  10.482 -0.9010 -1.1170  1.4484
  222MOL0     H29914   8.155   5.669  10.553  0.2956 -0.6233  0.2070
  222MOL0     H29915   7.985   5.489  10.523 -0.3808 -3.1421  0.2832
  222MOL0     H29916   8.125   5.396  10.460  0.8876  1.7597 -0.3402
  222MOL0     H29917   8.082   5.520  10.736  0.0032 -1.7196  1.0151
  222MOL0     H29918   8.233   5.433  10.685 -0.5938 -1.6638 -0.1675
  222MOL0     H29919   7.947   5.335  10.708 -0.4551  1.8022 -2.9951
  222MOL0     H29920   8.082   5.230  10.665 -0.6540  0.4182 -1.1232
  222MOL0     H29921   8.023   5.462  10.967  1.3056  0.0529  2.4991
  222MOL0     H29922   8.207   5.294  11.265  0.7755  3.7813  0.5196
  222MOL0     H29923   8.080   5.418  11.248  1.1594  0.5250 -1.8416
  222MOL0     H29924   7.915   5.279  11.321  0.2782  1.1374 -2.4857
  222MOL0     H29925   8.009   5.136  11.260  2.0013 -1.1503 -0.2225
  222MOL0     H29926   8.050   5.298  11.510 -0.1650 -0.2325 -1.1964
  222MOL0     H29927   8.168   5.194  11.467 -0.0762 -3.7866 -4.1854
  222MOL0     H29928   8.022   5.056  11.611 -1.3376 -0.9097  0.1760
  222MOL0     H29929   7.973   5.007  11.451  1.1688 -0.1626  0.0593
  222MOL0     H29930   7.594   5.191  11.585 -2.8902 -0.5680 -1.5547
  222MOL0     H29931   7.431   5.044  11.691  1.3830  3.5099 -1.3587
  222MOL0     H29932   7.216   4.617  11.734  1.4124  3.5021  0.4011
  222MOL0     H29933   7.085   4.439  11.792 -0.0814  3.3901 -0.3339
  222MOL0     H29934   7.008   4.253  11.803  1.8756  0.8951 -0.3277
  222MOL0     H29935   7.133   4.166  11.735 -1.7141 -0.0112 -0.4778
  222MOL0     H29936   6.949   4.044  11.941 -1.8465  4.2101 -0.6562
  222MOL0     H29937   6.952   4.015  11.771  2.8232 -2.0094 -0.3320
  222MOL0     H29938   7.218   3.955  11.824 -0.2738  0.2841 -0.4040
  222MOL0     H29939   7.147   3.936  11.988 -0.5046 -0.3842 -0.0716
  222MOL0     H29940   7.094   3.788  11.727  4.0825  3.7136  0.3666
  222MOL0     H29941   6.973   3.772  11.861 -0.6242 -1.3737  0.6655
  222MOL0     H29942   7.175   3.693  12.011 -1.9825  1.3159  0.5907
  222MOL0     H29943   7.265   3.716  11.861 -0.0304  3.9209  2.6778
  222MOL0     H29944   7.018   3.532  11.913 -2.0556  1.6110 -0.6337
  222MOL0     H29945   7.097   3.547  11.755 -1.0181 -3.2923  0.8230
  222MOL0     H29946   7.219   3.454  12.016  0.9590  0.8406  0.4700
  222MOL0     H29947   7.311   3.472  11.860  0.0315  0.5088  1.0532
  222MOL0     H29948   7.187   3.290  11.759  1.9553 -3.8138  0.5122
  222MOL0     H29949   7.283   3.257  11.896  0.6616  3.2086  1.0447
  222MOL0     H29950   7.394   4.271  12.025  0.0811 -0.7197  0.2541
  222MOL0     H29951   7.548   4.479  11.980 -0.3868  0.2413  3.5528
  222MOL0     H29952   7.732   4.756  11.766  0.7097 -1.7245 -1.7516
  222MOL0     H29953   7.892   4.897  11.658 -0.1971 -1.9720  2.1627
  222MOL0     H29954   7.869   5.843   9.942  3.8013 -0.1899 -1.4586
  222MOL0     H29955   7.692   5.967   9.831  1.4378  0.0341 -0.3991
  222MOL0     H29956   7.646   6.471   9.755 -2.2841  1.7459  2.1100
  222MOL0     H29957   7.571   6.650   9.628  3.1420 -1.8508  1.4067
  222MOL0     H29958   7.193   6.598   9.414  1.7457 -2.3598  2.4465
  222MOL0     H29959   7.245   6.748   9.332 -2.3668 -2.2762 -1.6199
  222MOL0     H29960   7.294   6.810   9.590 -2.4004  2.5753  1.5218
  222MOL0     H29961   7.189   6.660   9.613 -0.9663 -0.1261  0.3620
  222MOL0     H29962   7.012   6.795   9.613 -0.5689  2.2755  0.7188
  222MOL0     H29963   7.022   6.792   9.441 -1.2022  2.4309 -1.4120
  222MOL0     H29964   7.133   6.994   9.434 -1.0347  0.9533 -1.7098
  222MOL0     H29965   6.976   7.016   9.506  0.4726 -0.0399 -1.9195
  222MOL0     H29966   7.269   7.098   9.818 -0.4319  0.0859 -0.2326
  222MOL0     H29967   7.326   6.410   9.393  0.8639 -0.2103  0.2101
  222MOL0     H29968   7.287   6.162   9.650  1.7628 -1.0410  0.7612
  222MOL0     H29969   7.234   6.215   9.496 -2.0329 -2.3808  1.4340
  222MOL0     H29970   7.374   6.108   9.500 -0.6881 -1.5884  2.3063
  223MOL0     O29971   1.486  10.454   4.800  0.1670  0.4798 -0.5336
  223MOL0     C29972   1.581  10.483   4.732  0.0828 -0.0683 -0.3895
  223MOL0     O29973   1.695  10.546   4.782  0.1674 -0.1755 -0.1245
  223MOL0     C29974   1.670  10.637   4.884  0.6003 -0.0033 -0.1387
  223MOL0     C29975   1.754  10.639   4.999  0.1514 -0.7531  0.4544
  223MOL0     C29976   1.726  10.718   5.111 -0.6853 -0.7958  0.2772
  223MOL0     C29977   1.627  10.819   5.104  0.0073 -0.5435  0.0526
  223MOL0     O29978   1.591  10.912   5.197 -0.3948  0.4813 -0.4131
  223MOL0     C29979   1.648  10.898   5.327 -0.4589 -0.3640 -0.3559
  223MOL0     C29980   1.538  10.823   5.406  0.0789 -0.1574 -0.0616
  223MOL0     C29981   1.392  10.873   5.400  0.4344  1.0140 -0.6046
  223MOL0     C29982   1.285  10.758   5.424 -0.1957 -1.3342 -0.5206
  223MOL0     C29983   1.149  10.801   5.487  0.0816 -0.5616  0.1980
  223MOL0     C29984   1.081  10.691   5.571 -0.2042 -0.5709 -0.4899
  223MOL0     C29985   1.052  10.567   5.486 -0.2611 -0.4833 -0.9899
  223MOL0     C29986   0.991  10.460   5.567  0.3025 -0.3823 -0.0847
  223MOL0     N29987   0.859  10.479   5.630  0.4252 -0.2491  0.1105
  223MOL0     C29988   0.806  10.442   5.748  0.4605  0.2572 -0.0623
  223MOL0     C29989   0.682  10.498   5.760  0.2633  1.0462 -0.5127
  223MOL0     C29990   0.584  10.488   5.874  0.0387  0.5579 -0.4503
  223MOL0     C29991   0.639  10.422   6.011 -0.1255  0.0501 -0.9879
  223MOL0     C29992   0.528  10.403   6.111 -0.8164  0.6073 -0.5836
  223MOL0     C29993   0.433  10.288   6.091 -0.2949  0.1475  0.5344
  223MOL0     O29994   0.340  10.258   6.199 -0.2460 -0.1969  1.1324
  223MOL0     C29995   0.342  10.130   6.260 -0.4585 -0.2394  1.1850
  223MOL0     C29996   0.257  10.025   6.218 -0.3699  0.3359  1.1465
  223MOL0     C29997   0.285   9.897   6.261 -1.0804  0.3880  0.3918
  223MOL0     C29998   0.389   9.871   6.358  0.1082 -0.2768  0.6532
  223MOL0     C29999   0.388   9.743   6.417  1.0002  0.5563  0.2747
  223MOL0     O30000   0.412   9.633   6.338  0.0038  1.4563  0.6460
  223MOL0     C30001   0.404   9.508   6.394  0.5815 -0.1118  0.1618
  223MOL0     C30002   0.522   9.424   6.391  0.3642  0.8726  0.4519
  223MOL0     C30003   0.502   9.294   6.419 -1.0107 -0.0713 -0.8491
  223MOL0     C30004   0.379   9.241   6.468 -0.4444 -1.2900  0.4948
  223MOL0     O30005   0.380   9.104   6.502  0.0968 -0.1031 -0.3652
  223MOL0     C30006   0.276   9.047   6.577 -0.2060  0.1420  0.2473
  223MOL0     C30007   0.318   8.897   6.587 -1.5390  0.7459  0.3030
  223MOL0     C30008   0.201   8.817   6.632  0.6294  0.9225 -1.1494
  223MOL0     C30009   0.233   8.672   6.607  0.5239 -0.5231  0.1246
  223MOL0     C30010   0.172   8.585   6.706  0.1582 -0.7532  0.2749
  223MOL0     C30011   0.183   8.426   6.685  0.2344 -0.1760 -0.5643
  223MOL0     C30012   0.322   8.380   6.663 -0.8966 -0.0242  0.1199
  223MOL0     C30013   0.416   8.424   6.767 -0.2841  1.1923 -0.5186
  223MOL0    Cl30014   0.578   8.342   6.718  0.0509 -0.1868  0.2806
  223MOL0     C30015   0.270   9.329   6.485  0.3155  0.0105  0.2743
  223MOL0     C30016   0.279   9.454   6.438 -0.8632  1.0471  0.3815
  223MOL0     O30017   0.379   9.736   6.537 -0.0034  0.6599 -0.3566
  223MOL0     C30018   0.461   9.982   6.412 -0.0272 -0.2121 -0.3884
  223MOL0     C30019   0.444  10.107   6.351 -0.1132 -0.0259  0.5708
  223MOL0     N30020   0.653  10.561   5.641  0.1090 -0.1217 -0.5795
  223MOL0     N30021   0.763  10.558   5.570 -0.0603 -0.1697  0.1489
  223MOL0     C30022   1.549  10.819   4.988  0.5666 -0.0187 -0.0016
  223MOL0     C30023   1.571  10.735   4.883  0.1113  0.0844  1.1918
  223MOL0     C30024   1.589  10.431   4.590  0.5832 -0.1027 -0.1763
  223MOL0     C30025   1.635  10.519   4.489  0.1596  0.4290  0.1245
  223MOL0     C30026   1.627  10.495   4.358 -0.2359 -0.2219 -0.6296
  223MOL0     C30027   1.568  10.374   4.319 -0.1562  0.0887 -0.7754
  223MOL0     O30028   1.562  10.341   4.187 -0.0887  1.6816  0.3989
  223MOL0     C30029   1.435  10.334   4.126 -0.7708 -0.9436  0.0855
  223MOL0     C30030   1.426  10.315   3.973 -0.5568  0.2017 -0.3671
  223MOL0     C30031   1.471  10.182   3.920 -0.4652  0.6953 -1.6294
  223MOL0     C30032   1.422  10.162   3.776  0.6612  0.2259  0.3996
  223MOL0     C30033   1.275  10.171   3.755 -0.6189  0.8097 -1.2131
  223MOL0     C30034   1.154  10.176   3.737  0.6035 -1.0440 -0.2957
  223MOL0     C30035   1.517  10.283   4.405  0.1056  0.5979 -0.8239
  223MOL0     C30036   1.532  10.311   4.543  0.3145  0.1359  0.0196
  223MOL0     C30037   1.495  10.192   4.635 -0.5046  0.2696  0.1222
  223MOL0     H30038   1.827  10.559   5.009  1.4534  0.1211 -1.4407
  223MOL0     H30039   1.785  10.722   5.202  0.2633 -0.6207 -0.3328
  223MOL0     H30040   1.744  10.847   5.334 -0.3871 -0.2128 -0.2103
  223MOL0     H30041   1.654  10.998   5.373  0.1521 -0.6907  0.2918
  223MOL0     H30042   1.573  10.813   5.509  0.2833 -0.3454 -0.1484
  223MOL0     H30043   1.537  10.726   5.354  0.8673 -0.3631  0.2852
  223MOL0     H30044   1.377  10.907   5.297  3.2854 -0.3141 -1.5751
  223MOL0     H30045   1.380  10.953   5.474  0.5816  0.3023  0.2065
  223MOL0     H30046   1.278  10.713   5.324  3.2158 -3.0871 -0.1160
  223MOL0     H30047   1.333  10.689   5.493  1.0237 -0.9085 -0.9160
  223MOL0     H30048   1.166  10.890   5.548 -1.9951  0.5598 -0.7641
  223MOL0     H30049   1.083  10.842   5.410  0.1519  1.1705  1.0207
  223MOL0     H30050   1.145  10.669   5.657  0.1294 -3.5376 -1.3729
  223MOL0     H30051   0.990  10.737   5.609  0.4920  1.8623 -1.5701
  223MOL0     H30052   1.143  10.531   5.437  0.8412  0.7355  0.0877
  223MOL0     H30053   0.982  10.595   5.407  0.2369  2.8235 -0.3789
  223MOL0     H30054   0.989  10.379   5.494  1.1366 -0.8821  0.4280
  223MOL0     H30055   1.061  10.441   5.650  0.5958 -1.0493 -0.4727
  223MOL0     H30056   0.858  10.367   5.807 -0.2652 -1.9343 -2.0598
  223MOL0     H30057   0.555  10.590   5.901  2.2215  0.6362  1.9941
  223MOL0     H30058   0.495  10.435   5.840 -1.5357  2.7397  0.1010
  223MOL0     H30059   0.671  10.319   5.989 -0.5822 -0.1362 -0.7769
  223MOL0     H30060   0.719  10.492   6.038  1.5611 -1.1713 -2.6037
  223MOL0     H30061   0.477  10.495   6.139 -0.7038 -0.3533  3.5017
  223MOL0     H30062   0.587  10.381   6.201 -1.9454  1.9473  0.5265
  223MOL0     H30063   0.498  10.201   6.084 -1.5238 -0.6540 -2.3176
  223MOL0     H30064   0.371  10.295   6.001 -0.6787 -2.0577  0.5737
  223MOL0     H30065   0.183  10.031   6.139  0.7364 -0.9148 -0.0305
  223MOL0     H30066   0.237   9.811   6.215 -0.0712  1.0864 -2.1615
  223MOL0     H30067   0.622   9.455   6.364 -0.3565  2.8192 -0.2068
  223MOL0     H30068   0.586   9.227   6.434 -1.9328 -0.5770  3.5090
  223MOL0     H30069   0.271   9.100   6.673  4.1796  2.0745 -0.3602
  223MOL0     H30070   0.185   9.037   6.516  0.2281 -0.3269 -0.3376
  223MOL0     H30071   0.351   8.864   6.488  1.7513 -0.1785  1.5959
  223MOL0     H30072   0.388   8.863   6.664 -1.5960  1.1832  0.5485
  223MOL0     H30073   0.195   8.832   6.740 -2.1110 -0.1256 -1.0630
  223MOL0     H30074   0.108   8.849   6.584 -0.8327  1.9776  2.1376
  223MOL0     H30075   0.340   8.660   6.626  1.4445  4.8200 -0.1558
  223MOL0     H30076   0.216   8.626   6.509  0.8158 -2.9535  1.1565
  223MOL0     H30077   0.067   8.613   6.712 -0.0354 -0.4685 -2.8456
  223MOL0     H30078   0.232   8.604   6.796 -0.2375  0.0852  0.3603
  223MOL0     H30079   0.139   8.373   6.769 -1.2080 -3.3616 -3.1173
  223MOL0     H30080   0.108   8.397   6.611  0.1953  0.4169 -0.7643
  223MOL0     H30081   0.359   8.405   6.564 -2.5258 -2.0531 -1.0698
  223MOL0     H30082   0.329   8.272   6.651  2.7825  0.3817 -3.5934
  223MOL0     H30083   0.423   8.533   6.768 -3.6530  1.5288  0.2749
  223MOL0     H30084   0.394   8.384   6.867 -3.4605  0.8565 -1.2359
  223MOL0     H30085   0.173   9.289   6.515  0.8308 -0.9933  0.6597
  223MOL0     H30086   0.190   9.515   6.434 -0.4370  1.6514  0.0093
  223MOL0     H30087   0.530   9.972   6.495  0.7195 -0.3716 -1.0137
  223MOL0     H30088   0.511  10.186   6.386 -2.0146  2.4988 -1.1000
  223MOL0     H30089   1.459  10.881   4.988 -0.6148 -1.6724  0.3787
  223MOL0     H30090   1.511  10.743   4.793  0.7157 -1.0056  0.6845
  223MOL0     H30091   1.677  10.614   4.520 -0.3345  0.9951 -0.9109
  223MOL0     H30092   1.663  10.562   4.280 -2.1609  1.6405 -0.0133
  223MOL0     H30093   1.378  10.421   4.158 -1.6017 -1.2003 -0.6582
  223MOL0     H30094   1.380  10.250   4.169 -3.9724  0.1659 -1.5177
  223MOL0     H30095   1.486  10.400   3.940 -0.6233  1.0517  1.5321
  223MOL0     H30096   1.322  10.338   3.950 -1.4170 -2.8018  0.0067
  223MOL0     H30097   1.426  10.102   3.979  0.2797  1.3641 -0.1091
  223MOL0     H30098   1.580  10.180   3.918 -0.2433  1.3063  2.5697
  223MOL0     H30099   1.460  10.241   3.710  1.3102 -2.5574 -2.8335
  223MOL0     H30100   1.470  10.070   3.741 -0.9857 -0.2376 -0.7736
  223MOL0     H30101   1.049  10.183   3.715 -0.0848 -2.8945  2.0256
  223MOL0     H30102   1.473  10.192   4.368 -2.4650  0.4265  2.2563
  223MOL0     H30103   1.401  10.213   4.686 -0.4606  0.2161  0.2261
  223MOL0     H30104   1.483  10.094   4.587  3.1922  0.2272 -1.1054
  223MOL0     H30105   1.583  10.187   4.700  0.3344  1.8932 -0.8126
  224MOL0     O30106   5.469   5.824   7.183 -0.5543  0.1650 -0.2430
  224MOL0     C30107   5.462   5.944   7.215 -0.9018 -0.2522 -0.7520
  224MOL0     O30108   5.380   5.990   7.312 -0.4253 -0.6668  0.0319
  224MOL0     C30109   5.309   5.919   7.413 -0.0485  0.5685 -1.0248
  224MOL0     C30110   5.234   6.004   7.503  0.2093 -0.2784 -0.2062
  224MOL0     C30111   5.160   5.941   7.606  0.4060 -0.2006  0.1873
  224MOL0     C30112   5.163   5.801   7.615  0.3426  0.5648 -0.5815
  224MOL0     O30113   5.077   5.755   7.706 -0.0184  0.3469  0.7117
  224MOL0     C30114   5.088   5.621   7.736  0.1330  0.2693 -0.1077
  224MOL0     C30115   5.015   5.612   7.867 -0.6821  0.1068  0.1477
  224MOL0     C30116   4.955   5.467   7.886 -0.7570 -0.1288  0.2628
  224MOL0     C30117   4.833   5.442   7.802 -0.7744 -1.2804  0.5081
  224MOL0     C30118   4.713   5.357   7.850  0.0316 -0.0129  0.3699
  224MOL0     C30119   4.741   5.204   7.841 -0.1712 -0.8358  0.3875
  224MOL0     C30120   4.619   5.127   7.894  0.5129 -0.3897 -0.2159
  224MOL0     C30121   4.656   4.986   7.891  0.0361  0.1454  0.3520
  224MOL0     N30122   4.653   4.929   7.755 -1.2135 -0.8877 -0.1817
  224MOL0     C30123   4.547   4.902   7.677 -0.7920  0.7600  0.4693
  224MOL0     C30124   4.586   4.857   7.554 -0.4283  0.6983  0.4658
  224MOL0     C30125   4.513   4.770   7.453 -0.4831 -0.0758 -0.7275
  224MOL0     C30126   4.451   4.635   7.504 -0.7150 -0.7272  0.5394
  224MOL0     C30127   4.540   4.511   7.549 -0.2490 -0.4767  0.3058
  224MOL0     C30128   4.621   4.532   7.678  0.7923 -0.3622 -0.1551
  224MOL0     O30129   4.531   4.557   7.776 -0.0855 -0.7210  0.4493
  224MOL0     C30130   4.573   4.562   7.901  0.5782  0.0926 -0.0194
  224MOL0     C30131   4.481   4.504   7.983  0.3730  0.5322  0.3539
  224MOL0     C30132   4.502   4.485   8.114  0.8935 -0.6367 -0.0278
  224MOL0     C30133   4.622   4.533   8.177  0.8153 -0.0212  0.5160
  224MOL0     C30134   4.640   4.533   8.325  0.5381 -0.4614  0.3999
  224MOL0     O30135   4.552   4.458   8.404 -0.2645 -0.3642  0.2823
  224MOL0     C30136   4.543   4.463   8.539 -0.5558 -0.9182  0.0756
  224MOL0     C30137   4.597   4.565   8.624  0.4173  0.0434 -0.5723
  224MOL0     C30138   4.579   4.554   8.764 -0.1888 -0.3789  0.3922
  224MOL0     C30139   4.519   4.439   8.818 -0.6716 -1.1932  0.1969
  224MOL0     O30140   4.492   4.409   8.955 -0.4931  1.1140  0.0409
  224MOL0     C30141   4.441   4.524   9.022  0.1043  0.0840 -1.1121
  224MOL0     C30142   4.433   4.497   9.176 -0.2436 -0.0921  0.9604
  224MOL0     C30143   4.573   4.469   9.246  0.1484  0.1178 -0.2325
  224MOL0     C30144   4.579   4.339   9.335 -1.2160  0.2098 -0.2725
  224MOL0     C30145   4.716   4.323   9.418  0.2570  0.3447  0.6910
  224MOL0     C30146   4.689   4.199   9.502 -0.3086  0.0757 -1.0118
  224MOL0     C30147   4.589   4.204   9.627  0.6790 -1.9179  0.2003
  224MOL0     C30148   4.607   4.096   9.733 -0.8330  1.0637  0.1027
  224MOL0    Cl30149   4.526   3.940   9.701 -0.1256 -0.1529  0.0519
  224MOL0     C30150   4.477   4.335   8.734 -0.1378  0.2651  1.3496
  224MOL0     C30151   4.472   4.358   8.594  1.3326 -0.0307 -0.1409
  224MOL0     O30152   4.731   4.607   8.359  0.1309 -0.3523  0.3713
  224MOL0     C30153   4.713   4.602   8.094  0.0261  0.2879 -0.7500
  224MOL0     C30154   4.681   4.622   7.952 -1.0700 -0.5935  0.3915
  224MOL0     N30155   4.722   4.883   7.551  0.4458 -0.7042 -0.1509
  224MOL0     N30156   4.758   4.923   7.668 -0.0635 -0.0107 -0.4965
  224MOL0     C30157   5.241   5.719   7.533  0.3029 -0.1597 -0.0936
  224MOL0     C30158   5.314   5.781   7.428  0.6909 -0.2120 -0.5862
  224MOL0     C30159   5.561   6.054   7.165 -0.2825  0.2589  1.2298
  224MOL0     C30160   5.565   6.179   7.230  0.2835 -0.2662 -1.2810
  224MOL0     C30161   5.659   6.279   7.190  0.7616 -0.1083  0.9653
  224MOL0     C30162   5.753   6.254   7.089  0.2538  0.5256 -0.1840
  224MOL0     O30163   5.826   6.355   7.041 -0.5758 -0.8107  0.1452
  224MOL0     C30164   5.967   6.324   7.066  0.4901 -0.1981 -0.1810
  224MOL0     C30165   6.036   6.312   6.932  0.1939 -0.0495  0.0746
  224MOL0     C30166   6.117   6.182   6.936  0.1595 -1.3548 -0.7506
  224MOL0     C30167   6.174   6.153   6.804 -0.0241 -0.1076  1.3617
  224MOL0     C30168   6.254   6.270   6.750 -1.1027  0.1261  0.1621
  224MOL0     C30169   6.293   6.373   6.706 -1.2849 -0.1813  0.1242
  224MOL0     C30170   5.747   6.134   7.012  1.2850 -0.0329 -0.4674
  224MOL0     C30171   5.647   6.031   7.050 -0.5832  0.5924 -1.0597
  224MOL0     C30172   5.618   5.927   6.944  0.4908  0.5363  0.5720
  224MOL0     H30173   5.223   6.112   7.509 -0.2790 -0.3318 -0.0240
  224MOL0     H30174   5.104   6.009   7.669  2.1685  2.8589 -1.3063
  224MOL0     H30175   5.050   5.553   7.658  0.7911  2.0013 -2.0436
  224MOL0     H30176   5.193   5.604   7.765  0.2259 -1.9419 -1.4974
  224MOL0     H30177   4.935   5.685   7.877 -0.6574  0.4347 -1.8325
  224MOL0     H30178   5.086   5.631   7.948 -0.8598  1.0665  0.0829
  224MOL0     H30179   4.920   5.450   7.989 -1.0983  3.2752  0.8191
  224MOL0     H30180   5.033   5.391   7.870  1.0646  1.6701  0.2600
  224MOL0     H30181   4.792   5.539   7.772  1.9165 -0.2353 -0.1528
  224MOL0     H30182   4.873   5.399   7.710 -0.7269  0.0739 -0.1234
  224MOL0     H30183   4.679   5.398   7.945  0.6542  2.1556 -0.3011
  224MOL0     H30184   4.630   5.377   7.781  0.8498  1.8257 -0.1384
  224MOL0     H30185   4.763   5.194   7.735 -2.2287 -0.1697 -0.1457
  224MOL0     H30186   4.833   5.182   7.896  0.2314 -0.0732  0.0442
  224MOL0     H30187   4.524   5.147   7.843  0.3345  2.0006  0.9023
  224MOL0     H30188   4.604   5.165   7.995  2.3393  2.6091 -0.9667
  224MOL0     H30189   4.757   4.983   7.932  1.9200 -2.6733 -3.7854
  224MOL0     H30190   4.592   4.922   7.953 -1.4401 -2.2994 -3.3292
  224MOL0     H30191   4.442   4.901   7.702 -1.0216  1.3180 -0.4390
  224MOL0     H30192   4.426   4.835   7.439 -0.2972  0.7327  1.4753
  224MOL0     H30193   4.571   4.759   7.361 -0.8910 -0.9352 -0.8940
  224MOL0     H30194   4.371   4.662   7.574  1.4742 -0.5552  3.1319
  224MOL0     H30195   4.400   4.596   7.416 -4.3486  2.4625  0.9691
  224MOL0     H30196   4.603   4.490   7.462 -1.4508  0.0927 -0.7270
  224MOL0     H30197   4.476   4.424   7.567 -3.1401  0.5926 -3.5899
  224MOL0     H30198   4.688   4.616   7.662 -1.6901  1.7944  0.0900
  224MOL0     H30199   4.679   4.444   7.708 -0.0359  0.0689  3.0931
  224MOL0     H30200   4.383   4.472   7.949 -0.9708  0.1188  4.1624
  224MOL0     H30201   4.427   4.441   8.180  0.5208  2.1861  1.6246
  224MOL0     H30202   4.656   4.652   8.599  0.9930 -0.1796 -0.0145
  224MOL0     H30203   4.619   4.626   8.834 -2.6153  2.5178 -1.0072
  224MOL0     H30204   4.512   4.605   9.002  0.3661 -0.8913 -4.9369
  224MOL0     H30205   4.340   4.552   8.989 -0.0553 -0.6010 -1.2180
  224MOL0     H30206   4.388   4.585   9.223 -4.1087 -2.3072  1.8467
  224MOL0     H30207   4.361   4.421   9.206 -1.3046  0.2456 -0.6037
  224MOL0     H30208   4.652   4.473   9.171 -0.8596 -2.6517 -1.5614
  224MOL0     H30209   4.590   4.552   9.315 -0.7085 -1.9968  2.7044
  224MOL0     H30210   4.568   4.247   9.278 -1.7825  1.5144 -2.3729
  224MOL0     H30211   4.494   4.343   9.404 -1.0493 -1.0948  0.0182
  224MOL0     H30212   4.728   4.415   9.477 -2.2949  1.9844 -1.1307
  224MOL0     H30213   4.798   4.309   9.348  0.3055 -0.0219  0.8168
  224MOL0     H30214   4.661   4.117   9.435  3.9052 -1.6052 -0.9683
  224MOL0     H30215   4.786   4.160   9.532  1.1468  2.3702 -2.3892
  224MOL0     H30216   4.484   4.204   9.599  0.8026  0.3680 -0.4700
  224MOL0     H30217   4.600   4.302   9.674 -1.3955 -0.9309 -1.2348
  224MOL0     H30218   4.713   4.079   9.755 -0.8283  1.1300  0.1309
  224MOL0     H30219   4.568   4.126   9.831 -0.8716  3.3732 -0.5843
  224MOL0     H30220   4.421   4.250   8.772  0.5784  0.1454  2.1669
  224MOL0     H30221   4.429   4.275   8.540  1.6560 -0.6053  0.4644
  224MOL0     H30222   4.814   4.617   8.130  0.0233 -0.2696 -0.4921
  224MOL0     H30223   4.749   4.674   7.885 -0.7050 -0.0594  1.1563
  224MOL0     H30224   5.247   5.610   7.530 -0.2682 -0.1748 -0.6754
  224MOL0     H30225   5.383   5.713   7.378  3.4837 -0.9106  3.6810
  224MOL0     H30226   5.496   6.214   7.305 -1.6219 -2.7624 -1.7505
  224MOL0     H30227   5.652   6.384   7.215 -3.2903  0.9284 -3.1160
  224MOL0     H30228   5.987   6.243   7.137 -4.0987 -0.2622  1.3604
  224MOL0     H30229   6.014   6.406   7.121 -2.3056  1.9416 -0.7555
  224MOL0     H30230   6.106   6.395   6.921 -2.4664  2.2948 -0.2953
  224MOL0     H30231   5.967   6.305   6.847 -2.9331  0.0338  2.4261
  224MOL0     H30232   6.068   6.087   6.962 -0.5307 -0.6554  0.6363
  224MOL0     H30233   6.203   6.201   7.001  1.4265  0.9907 -2.9579
  224MOL0     H30234   6.234   6.062   6.800  0.1310 -0.1707 -4.6043
  224MOL0     H30235   6.097   6.151   6.727 -1.3827  3.2747  2.4210
  224MOL0     H30236   6.334   6.463   6.666  0.1442  0.4000  2.6181
  224MOL0     H30237   5.823   6.112   6.939  1.5570 -3.7472  0.7211
  224MOL0     H30238   5.670   5.945   6.850 -1.5328 -0.7843 -0.8772
  224MOL0     H30239   5.653   5.832   6.985 -1.3310  0.2227  1.4735
  224MOL0     H30240   5.514   5.926   6.912  0.9250  0.5900 -0.9140
  225MOL0     O30241   3.600   7.415   9.795 -0.9598  0.1248  0.4243
  225MOL0     C30242   3.655   7.432   9.901  0.0579 -0.1270 -0.4836
  225MOL0     O30243   3.763   7.351   9.944  1.1701  0.1336 -0.3446
  225MOL0     C30244   3.780   7.226   9.885 -0.5859 -0.2538 -0.1797
  225MOL0     C30245   3.880   7.215   9.792 -0.1303  0.7499  0.3758
  225MOL0     C30246   3.921   7.088   9.749 -0.1700  0.0332 -0.2462
  225MOL0     C30247   3.858   6.968   9.793  0.1621  0.6772  0.3858
  225MOL0     O30248   3.882   6.845   9.751 -0.6482  0.1045 -0.1984
  225MOL0     C30249   4.011   6.821   9.695 -0.8711  0.5494  0.0863
  225MOL0     C30250   4.044   6.671   9.697 -0.2712 -0.6939  0.8741
  225MOL0     C30251   4.152   6.625   9.592 -0.6346  0.9342 -0.9756
  225MOL0     C30252   4.115   6.656   9.448 -0.1256  0.2215  0.5178
  225MOL0     C30253   3.986   6.582   9.402 -0.1586 -0.5635 -1.3746
  225MOL0     C30254   3.972   6.592   9.249  0.0161  0.1680 -0.4466
  225MOL0     C30255   4.075   6.516   9.169 -0.0245 -0.0819 -0.1342
  225MOL0     C30256   4.126   6.571   9.038  0.1588 -0.0043  0.1285
  225MOL0     N30257   4.228   6.677   9.045 -1.0154 -0.4204 -1.3085
  225MOL0     C30258   4.322   6.702   8.955  0.2792  0.2301  1.0535
  225MOL0     C30259   4.382   6.814   8.993  0.3004 -0.2747  0.9212
  225MOL0     C30260   4.486   6.888   8.907 -0.7385 -0.5803  1.0008
  225MOL0     C30261   4.633   6.833   8.914  0.4094 -0.2852  0.9532
  225MOL0     C30262   4.704   6.847   9.047 -0.9335  0.3706 -0.0117
  225MOL0     C30263   4.807   6.738   9.090 -0.1072  0.7396 -0.9478
  225MOL0     O30264   4.944   6.758   9.036  0.9690 -0.7737 -0.1299
  225MOL0     C30265   5.021   6.653   8.998  0.0546 -1.2645  0.0145
  225MOL0     C30266   5.039   6.534   9.073 -0.0561 -1.2637 -0.7641
  225MOL0     C30267   5.122   6.434   9.020  0.5653 -0.8383 -0.3857
  225MOL0     C30268   5.189   6.455   8.901 -0.2165  0.7691  0.0721
  225MOL0     C30269   5.265   6.341   8.844  0.3362 -0.0868  0.9431
  225MOL0     O30270   5.264   6.322   8.700  0.0516 -0.4704  0.1827
  225MOL0     C30271   5.326   6.207   8.654  0.8241 -0.3420  0.5806
  225MOL0     C30272   5.259   6.122   8.558  0.6399  0.4786 -0.5564
  225MOL0     C30273   5.321   6.005   8.519  0.2410 -0.4094  1.6167
  225MOL0     C30274   5.452   5.956   8.565  0.8413  0.5238 -0.1953
  225MOL0     O30275   5.516   5.849   8.500 -0.0759  0.7127  0.3234
  225MOL0     C30276   5.443   5.727   8.496 -0.3111  0.1811 -0.7481
  225MOL0     C30277   5.542   5.612   8.487  0.1211  0.5797 -0.8923
  225MOL0     C30278   5.588   5.603   8.345 -0.3462  0.0963  0.1797
  225MOL0     C30279   5.686   5.482   8.323  1.0203  0.8870 -0.3269
  225MOL0     C30280   5.719   5.449   8.184  0.1972  0.4397  0.1536
  225MOL0     C30281   5.844   5.359   8.197 -0.7065 -1.1090 -0.8178
  225MOL0     C30282   5.873   5.292   8.057  0.7490  0.0826  0.4531
  225MOL0     C30283   5.969   5.176   8.060  0.9772 -0.3435  0.3829
  225MOL0    Cl30284   5.915   5.045   8.178 -0.1326 -0.5987  0.2197
  225MOL0     C30285   5.515   6.050   8.644  0.4583  0.3485  0.3429
  225MOL0     C30286   5.454   6.169   8.688  0.0913  0.8776  0.5421
  225MOL0     O30287   5.318   6.269   8.925 -0.5651  0.0569 -0.6261
  225MOL0     C30288   5.168   6.569   8.828 -0.0933  0.4186 -0.5182
  225MOL0     C30289   5.095   6.671   8.879 -0.0121 -0.2039  0.8380
  225MOL0     N30290   4.309   6.860   9.103 -0.7756  0.2909  0.0626
  225MOL0     N30291   4.227   6.777   9.135  0.1158  0.8819  0.6282
  225MOL0     C30292   3.764   6.980   9.893 -0.3731  0.0529  0.6282
  225MOL0     C30293   3.723   7.111   9.935 -0.4330  0.7714 -0.2894
  225MOL0     C30294   3.615   7.546   9.981 -0.6490  0.1226  0.1370
  225MOL0     C30295   3.686   7.581  10.093  0.2008  0.1711 -0.8010
  225MOL0     C30296   3.639   7.665  10.184  0.6539 -0.3477  0.6183
  225MOL0     C30297   3.535   7.750  10.157  0.9258  0.2883 -0.2958
  225MOL0     O30298   3.510   7.849  10.254 -0.1807  0.3281  0.2258
  225MOL0     C30299   3.438   7.973  10.213 -0.2329  1.0812  0.1085
  225MOL0     C30300   3.537   8.069  10.160 -0.7441  0.8491  0.6302
  225MOL0     C30301   3.469   8.199  10.132 -0.1710 -1.6486 -0.2536
  225MOL0     C30302   3.477   8.212   9.975  0.2369 -0.3455 -0.2996
  225MOL0     C30303   3.405   8.329   9.930 -0.2439 -0.0997  0.2833
  225MOL0     C30304   3.348   8.422   9.884 -0.8170  0.6473  0.5293
  225MOL0     C30305   3.471   7.737  10.037  0.1980 -0.6562 -0.1164
  225MOL0     C30306   3.505   7.634   9.946 -0.3000  0.0204  0.7415
  225MOL0     C30307   3.410   7.613   9.827  0.0621 -0.2202  0.1340
  225MOL0     H30308   3.942   7.296   9.753  1.1749 -0.2129  0.3850
  225MOL0     H30309   4.001   7.076   9.676 -0.7488 -1.6142 -0.6644
  225MOL0     H30310   4.012   6.858   9.592  0.1306 -2.5114 -1.1034
  225MOL0     H30311   4.084   6.877   9.755 -0.7062  2.6046 -1.8852
  225MOL0     H30312   3.949   6.620   9.680 -0.8194  0.4737  0.3854
  225MOL0     H30313   4.076   6.648   9.799  0.9308 -1.3444  0.3780
  225MOL0     H30314   4.170   6.517   9.601  0.4810  0.7971 -3.7556
  225MOL0     H30315   4.251   6.666   9.613 -0.0100 -1.5930  1.6611
  225MOL0     H30316   4.119   6.763   9.423  0.0701  0.3739  1.1765
  225MOL0     H30317   4.184   6.596   9.389 -0.6337 -1.0409  1.1841
  225MOL0     H30318   3.973   6.474   9.411 -3.4464 -0.3040 -1.8913
  225MOL0     H30319   3.906   6.635   9.456  0.3196 -1.6229  0.4680
  225MOL0     H30320   3.872   6.548   9.242 -0.6884  1.5465  0.4803
  225MOL0     H30321   3.971   6.694   9.210 -2.5223  1.4273  2.5650
  225MOL0     H30322   4.026   6.425   9.131  1.2364 -0.2885 -1.3688
  225MOL0     H30323   4.157   6.474   9.228 -0.4741  0.0799  0.6135
  225MOL0     H30324   4.177   6.487   8.989  2.4010  1.5159 -0.3039
  225MOL0     H30325   4.037   6.605   8.985 -0.2860 -0.8297  0.3213
  225MOL0     H30326   4.342   6.633   8.873  0.7831 -1.8780  2.8673
  225MOL0     H30327   4.443   6.900   8.807 -1.0615  4.1177  1.4734
  225MOL0     H30328   4.494   6.991   8.945 -0.3244 -0.9547  1.9753
  225MOL0     H30329   4.639   6.729   8.881 -1.6992 -0.0297 -0.3883
  225MOL0     H30330   4.687   6.900   8.846 -0.9364 -0.1325 -0.0103
  225MOL0     H30331   4.628   6.854   9.125 -0.7868 -2.5965  0.4974
  225MOL0     H30332   4.755   6.944   9.045  0.4593 -0.2841 -3.1336
  225MOL0     H30333   4.743   6.651   9.072 -2.6778  2.7647 -2.0194
  225MOL0     H30334   4.829   6.743   9.197  2.0540 -1.3751 -1.1875
  225MOL0     H30335   4.988   6.524   9.168 -0.7585  1.0804 -0.8324
  225MOL0     H30336   5.138   6.350   9.087  0.1448  0.8773  1.9982
  225MOL0     H30337   5.158   6.143   8.527  0.9814 -0.0653 -2.1648
  225MOL0     H30338   5.269   5.949   8.441 -1.0186  3.0553 -0.2379
  225MOL0     H30339   5.389   5.717   8.590 -1.3142 -1.8342 -1.4824
  225MOL0     H30340   5.379   5.726   8.407  1.1253  1.2271 -1.8378
  225MOL0     H30341   5.630   5.630   8.550  0.4350 -0.4756 -1.0050
  225MOL0     H30342   5.507   5.514   8.522  2.9941 -0.8526 -1.6830
  225MOL0     H30343   5.504   5.582   8.278  2.6688 -2.2280 -3.2804
  225MOL0     H30344   5.634   5.697   8.316 -1.5764  1.8206  3.3654
  225MOL0     H30345   5.637   5.397   8.371 -0.3335  0.8087 -1.7607
  225MOL0     H30346   5.778   5.497   8.380  1.7635 -0.5501 -1.1036
  225MOL0     H30347   5.747   5.544   8.138 -0.4529  0.7301  0.3397
  225MOL0     H30348   5.637   5.398   8.131 -0.9746 -1.3095  3.3686
  225MOL0     H30349   5.935   5.415   8.219 -1.8845  1.9754 -3.0712
  225MOL0     H30350   5.834   5.281   8.273  2.9613  0.3416  1.4286
  225MOL0     H30351   5.907   5.373   7.991 -2.3872  0.2713 -1.1192
  225MOL0     H30352   5.782   5.251   8.012 -0.5538  1.1139  2.0058
  225MOL0     H30353   5.991   5.129   7.964 -1.8509 -0.2730 -0.3907
  225MOL0     H30354   6.057   5.224   8.105  0.3620  1.8512 -0.6413
  225MOL0     H30355   5.617   6.034   8.678  1.0052 -3.0609 -2.3192
  225MOL0     H30356   5.501   6.245   8.750 -1.2061 -0.0520  2.7547
  225MOL0     H30357   5.227   6.580   8.737  2.3085  0.5080  0.9839
  225MOL0     H30358   5.091   6.768   8.829 -2.9520 -0.0471  1.2122
  225MOL0     H30359   3.719   6.894   9.943 -1.3834  0.7617  0.9647
  225MOL0     H30360   3.650   7.101  10.014  0.3487 -3.4365  0.1641
  225MOL0     H30361   3.773   7.526  10.128 -0.0124  1.1764  1.4668
  225MOL0     H30362   3.700   7.677  10.273 -1.1225  3.4107  1.5363
  225MOL0     H30363   3.399   8.018  10.305  0.5249  2.7415 -0.3531
  225MOL0     H30364   3.355   7.957  10.144 -2.1219 -1.4838  2.6835
  225MOL0     H30365   3.588   8.021  10.076  0.4414 -3.5907  3.5440
  225MOL0     H30366   3.612   8.068  10.239  1.7353 -0.3946 -1.6091
  225MOL0     H30367   3.519   8.283  10.181 -0.3533 -0.7455 -1.5730
  225MOL0     H30368   3.364   8.197  10.162  0.4676 -4.4269  2.2904
  225MOL0     H30369   3.578   8.233   9.937 -0.3411 -0.3668 -1.9506
  225MOL0     H30370   3.433   8.121   9.933 -2.9035 -0.1044  2.1249
  225MOL0     H30371   3.299   8.503   9.834  2.0559  2.2303  0.0686
  225MOL0     H30372   3.393   7.808  10.010  1.0055 -0.9353 -3.8367
  225MOL0     H30373   3.340   7.536   9.859 -0.5232 -0.0203 -0.6305
  225MOL0     H30374   3.347   7.703   9.830  2.8535  1.8283  2.1470
  225MOL0     H30375   3.457   7.592   9.730 -0.5377  0.7013 -0.3761
  226MOL0     O30376   3.038   7.377   9.785 -0.8685  0.5074  0.1462
  226MOL0     C30377   2.998   7.469   9.707 -0.2871 -0.1101  0.3305
  226MOL0     O30378   2.896   7.560   9.742 -0.2783  0.1933 -0.4257
  226MOL0     C30379   2.797   7.507   9.817  0.0256 -0.0535  0.3634
  226MOL0     C30380   2.768   7.574   9.932  0.9652 -0.6389  0.3433
  226MOL0     C30381   2.671   7.529  10.021 -0.0095  0.1798  0.2678
  226MOL0     C30382   2.601   7.401   9.993  0.4791  0.0352 -0.9725
  226MOL0     O30383   2.519   7.357  10.092  0.5384  0.1103  0.0921
  226MOL0     C30384   2.446   7.239  10.071  0.1017 -0.6815 -0.1735
  226MOL0     C30385   2.369   7.192  10.195  0.0138 -0.0015 -0.3076
  226MOL0     C30386   2.468   7.141  10.302  0.8936  0.1400 -0.3466
  226MOL0     C30387   2.423   7.042  10.400 -0.0935 -0.3036  0.1932
  226MOL0     C30388   2.532   7.013  10.504 -0.0936 -1.1045 -0.2468
  226MOL0     C30389   2.501   6.893  10.589  0.1635  0.8716 -0.5980
  226MOL0     C30390   2.563   6.916  10.734 -0.0431  0.0763  0.5148
  226MOL0     C30391   2.718   6.943  10.720  0.1792  0.3011  0.0837
  226MOL0     N30392   2.784   6.820  10.662 -0.4481  0.0795  0.6186
  226MOL0     C30393   2.847   6.820  10.547 -0.0155  0.5496 -0.1605
  226MOL0     C30394   2.905   6.698  10.528 -0.7589 -0.2112  1.5748
  226MOL0     C30395   2.990   6.665  10.413 -0.7393  0.0790 -0.7274
  226MOL0     C30396   2.911   6.590  10.315  0.5876  0.2423 -0.9049
  226MOL0     C30397   2.908   6.440  10.353  0.1620 -1.0913  0.9124
  226MOL0     C30398   2.860   6.364  10.232 -1.0731  0.2082 -0.0533
  226MOL0     O30399   2.719   6.380  10.216  0.0071 -0.6411  0.0414
  226MOL0     C30400   2.646   6.339  10.115 -0.1317  0.5021  0.5020
  226MOL0     C30401   2.507   6.348  10.115  0.1324 -0.4769 -1.1632
  226MOL0     C30402   2.435   6.347   9.994  0.5385  0.1882 -0.3562
  226MOL0     C30403   2.500   6.331   9.868 -0.0012 -0.1990  0.0554
  226MOL0     C30404   2.420   6.332   9.750 -0.0154 -0.0771  0.1509
  226MOL0     O30405   2.489   6.296   9.640 -0.6762  0.3135  0.7102
  226MOL0     C30406   2.439   6.333   9.520  0.0761  0.5498 -0.3427
  226MOL0     C30407   2.468   6.246   9.410  0.6215  0.1154  0.3539
  226MOL0     C30408   2.415   6.280   9.285  1.4947 -0.4290 -0.1259
  226MOL0     C30409   2.343   6.399   9.263  0.0257 -0.2855  0.2447
  226MOL0     O30410   2.285   6.442   9.147 -0.3219  0.1652  0.8087
  226MOL0     C30411   2.278   6.346   9.036  0.7944  0.0957  0.1587
  226MOL0     C30412   2.399   6.344   8.947  0.5186 -0.7432  0.7264
  226MOL0     C30413   2.447   6.480   8.907  0.4986  0.2152  0.0777
  226MOL0     C30414   2.342   6.558   8.823 -0.0033  0.8008 -0.2722
  226MOL0     C30415   2.317   6.496   8.691 -0.0766  0.2853  0.7504
  226MOL0     C30416   2.200   6.553   8.615 -1.6136 -0.2576 -0.2389
  226MOL0     C30417   2.191   6.488   8.472  0.3033  0.4634 -0.3300
  226MOL0     C30418   2.085   6.547   8.368 -1.0007  0.1095  0.1759
  226MOL0    Cl30419   1.920   6.525   8.427  0.0665  0.5448  0.2522
  226MOL0     C30420   2.306   6.476   9.379 -0.8129  1.2062  0.6509
  226MOL0     C30421   2.350   6.442   9.501  0.1869 -0.3442 -0.5243
  226MOL0     O30422   2.300   6.349   9.756 -0.3089 -0.6538  0.2435
  226MOL0     C30423   2.632   6.293   9.874 -0.2124 -0.3698 -0.6679
  226MOL0     C30424   2.707   6.302   9.994  0.2859  0.4206 -0.7527
  226MOL0     N30425   2.874   6.625  10.647 -0.2027 -0.1342  0.8410
  226MOL0     N30426   2.805   6.703  10.722  0.0529  0.1463 -0.0422
  226MOL0     C30427   2.636   7.333   9.873 -0.4053  0.1857  0.5032
  226MOL0     C30428   2.728   7.389   9.778  0.1464  0.6395  0.4473
  226MOL0     C30429   3.075   7.488   9.585  0.6350 -0.1045 -0.4100
  226MOL0     C30430   3.162   7.596   9.550 -0.3965 -0.5269 -0.4072
  226MOL0     C30431   3.232   7.609   9.432 -0.3474 -0.7501 -1.1404
  226MOL0     C30432   3.230   7.505   9.344  0.2560  0.1588  0.0303
  226MOL0     O30433   3.305   7.517   9.230 -0.1505  0.0787  0.3369
  226MOL0     C30434   3.319   7.417   9.130 -1.0950 -0.5621 -0.6397
  226MOL0     C30435   3.190   7.428   9.049 -0.1639  0.0933 -0.4936
  226MOL0     C30436   3.218   7.380   8.903 -0.6146  0.2476  0.5519
  226MOL0     C30437   3.102   7.329   8.811 -0.6742 -1.8614 -0.2708
  226MOL0     C30438   3.018   7.448   8.779 -0.8299  0.2759 -0.3438
  226MOL0     C30439   2.946   7.538   8.745  0.1157 -0.1474 -0.4987
  226MOL0     C30440   3.157   7.391   9.378 -0.2437  0.6516 -0.1359
  226MOL0     C30441   3.081   7.380   9.494 -0.2873  0.1116  0.1689
  226MOL0     C30442   2.995   7.251   9.509 -0.9038  0.2058 -0.2479
  226MOL0     H30443   2.830   7.658   9.958  0.5573  0.3711 -1.7372
  226MOL0     H30444   2.649   7.586  10.111 -0.4441 -1.0138  0.9274
  226MOL0     H30445   2.363   7.261  10.004 -0.6363  0.7342  1.1251
  226MOL0     H30446   2.517   7.170  10.025  1.3770  0.5187 -0.0784
  226MOL0     H30447   2.311   7.109  10.152 -2.0163  2.2795 -2.2444
  226MOL0     H30448   2.295   7.261  10.235 -0.0997  0.0851 -0.6639
  226MOL0     H30449   2.485   7.232  10.360  1.7674  0.4553 -1.0753
  226MOL0     H30450   2.558   7.098  10.257  1.0714  1.9921 -1.8522
  226MOL0     H30451   2.333   7.078  10.450  1.1207 -1.4313  3.4990
  226MOL0     H30452   2.399   6.953  10.341 -3.8246  0.2034  0.6844
  226MOL0     H30453   2.623   6.999  10.445 -0.8162 -0.0355 -1.6814
  226MOL0     H30454   2.541   7.102  10.567 -0.1667 -1.2470 -0.0339
  226MOL0     H30455   2.393   6.874  10.599  0.8459 -4.0123  0.0442
  226MOL0     H30456   2.539   6.797  10.553  2.5178  2.7901 -3.6440
  226MOL0     H30457   2.556   6.828  10.798  3.4374 -1.5925 -1.0760
  226MOL0     H30458   2.523   7.000  10.791  0.6743 -0.0710  1.2496
  226MOL0     H30459   2.739   7.027  10.652  1.3772 -0.3816 -0.4136
  226MOL0     H30460   2.752   6.971  10.820  0.6429  0.6276 -0.1587
  226MOL0     H30461   2.854   6.904  10.479 -0.1804  0.8734  0.2159
  226MOL0     H30462   3.036   6.747  10.359  4.4318 -2.2496 -0.5003
  226MOL0     H30463   3.080   6.610  10.445  0.8710  0.6778 -3.8814
  226MOL0     H30464   2.815   6.641  10.308  1.9011  2.6725 -2.7510
  226MOL0     H30465   2.954   6.599  10.215 -0.6032 -0.4804 -1.5053
  226MOL0     H30466   2.843   6.414  10.437 -3.2244 -4.2266 -2.2586
  226MOL0     H30467   3.010   6.408  10.378  1.5055  0.1515 -2.4351
  226MOL0     H30468   2.885   6.258  10.235  0.3176  0.5163  2.8147
  226MOL0     H30469   2.903   6.406  10.141 -0.4609 -0.1917  0.0450
  226MOL0     H30470   2.455   6.378  10.206 -0.3845  0.4031 -1.7347
  226MOL0     H30471   2.327   6.340  10.001  0.7266 -1.8309  1.2168
  226MOL0     H30472   2.520   6.153   9.429  0.3776 -0.2680 -0.7738
  226MOL0     H30473   2.425   6.217   9.197  0.9095  1.3902 -1.5532
  226MOL0     H30474   2.252   6.244   9.067  1.1364 -1.1251 -3.2180
  226MOL0     H30475   2.196   6.380   8.972 -0.1988 -3.0505 -0.4069
  226MOL0     H30476   2.477   6.293   9.004 -0.2330 -3.6291 -0.6597
  226MOL0     H30477   2.387   6.289   8.853  3.0895  0.8738 -0.6969
  226MOL0     H30478   2.474   6.534   8.998  4.4976 -2.7511  0.9206
  226MOL0     H30479   2.531   6.476   8.838 -0.3860 -0.2763 -1.0045
  226MOL0     H30480   2.378   6.659   8.800  1.7058 -0.0783 -1.7493
  226MOL0     H30481   2.242   6.558   8.867 -0.0366  0.9595 -0.3502
  226MOL0     H30482   2.284   6.394   8.715 -2.4128  1.1802  1.6588
  226MOL0     H30483   2.409   6.489   8.633 -1.4787 -1.1720 -1.4568
  226MOL0     H30484   2.105   6.544   8.668 -0.8046 -1.9225  1.0052
  226MOL0     H30485   2.221   6.660   8.599 -0.1948 -0.6828 -1.4241
  226MOL0     H30486   2.193   6.378   8.476  4.2159  0.3923 -0.4673
  226MOL0     H30487   2.292   6.498   8.432  1.5494 -1.3510  2.0592
  226MOL0     H30488   2.108   6.652   8.347  4.0490 -0.3810  2.0768
  226MOL0     H30489   2.104   6.489   8.277 -0.6014 -0.0432  0.3577
  226MOL0     H30490   2.242   6.561   9.357  0.6051  1.3106 -4.0084
  226MOL0     H30491   2.330   6.507   9.586 -0.3471 -0.4169 -0.5909
  226MOL0     H30492   2.693   6.269   9.786 -0.5388  0.7762 -1.2248
  226MOL0     H30493   2.812   6.275  10.001 -0.2226 -2.2146 -1.9889
  226MOL0     H30494   2.585   7.244   9.835 -1.2286 -0.2910  2.5979
  226MOL0     H30495   2.741   7.354   9.676  0.1191  0.9489  0.3363
  226MOL0     H30496   3.175   7.671   9.627 -0.9224 -0.2270 -0.6024
  226MOL0     H30497   3.289   7.693   9.394 -0.4806 -1.6084 -3.3802
  226MOL0     H30498   3.342   7.319   9.172  1.8966  0.9839  1.7274
  226MOL0     H30499   3.403   7.448   9.068 -1.2387 -1.5764 -1.3611
  226MOL0     H30500   3.156   7.531   9.031 -2.8449 -0.9705 -2.0227
  226MOL0     H30501   3.104   7.377   9.092 -0.2266 -0.5634 -1.3679
  226MOL0     H30502   3.293   7.301   8.894 -1.2650 -0.5335  1.7195
  226MOL0     H30503   3.266   7.462   8.849  0.5332 -0.4725  0.4275
  226MOL0     H30504   3.141   7.280   8.721  0.3836  0.9933 -1.4893
  226MOL0     H30505   3.043   7.259   8.871 -0.0781 -0.6003  1.9057
  226MOL0     H30506   2.894   7.626   8.713  0.8859  0.3026 -0.5374
  226MOL0     H30507   3.163   7.302   9.315 -1.9943 -1.2518  2.2210
  226MOL0     H30508   3.049   7.167   9.555 -0.6995  0.2987 -0.3179
  226MOL0     H30509   2.903   7.274   9.564 -0.7024 -1.4167  0.8231
  226MOL0     H30510   2.965   7.209   9.413  0.9915  0.4976 -1.0097
  227MOL0     O30511   4.060   6.149   7.530  0.8929  0.8532 -0.3896
  227MOL0     C30512   4.037   6.143   7.410 -0.1125 -0.1224  0.7217
  227MOL0     O30513   3.925   6.191   7.353 -1.1483  0.6132  0.3527
  227MOL0     C30514   3.828   6.257   7.429 -0.0845 -0.8584 -0.1542
  227MOL0     C30515   3.763   6.348   7.349 -0.3905 -0.6279 -0.9133
  227MOL0     C30516   3.662   6.435   7.391  0.2349  0.4160  0.6135
  227MOL0     C30517   3.616   6.427   7.524 -0.5283 -0.2658 -0.5745
  227MOL0     O30518   3.511   6.489   7.581  0.2858 -0.7610  0.0158
  227MOL0     C30519   3.400   6.526   7.488 -0.5798 -0.3826 -0.4003
  227MOL0     C30520   3.322   6.659   7.523  0.0416  0.7310  0.0060
  227MOL0     C30521   3.305   6.662   7.672 -1.2870  0.7617 -0.6564
  227MOL0     C30522   3.204   6.758   7.726  0.0100  1.4270 -0.1388
  227MOL0     C30523   3.235   6.904   7.691  0.8186  0.1456 -0.1350
  227MOL0     C30524   3.145   7.002   7.769  0.6436  0.3493 -0.5383
  227MOL0     C30525   3.162   7.152   7.724  0.0849  1.2097  0.8847
  227MOL0     C30526   3.077   7.248   7.812  0.2544  0.3617 -0.4151
  227MOL0     N30527   3.125   7.387   7.796 -0.3883 -0.5281  0.1478
  227MOL0     C30528   3.210   7.464   7.870 -0.6332  0.0970 -0.2757
  227MOL0     C30529   3.187   7.594   7.839 -0.1676  0.1778 -0.1823
  227MOL0     C30530   3.262   7.710   7.911  0.2365 -0.6251  0.3256
  227MOL0     C30531   3.165   7.838   7.941 -0.4806 -0.0579 -0.1118
  227MOL0     C30532   3.061   7.800   8.048 -0.5757  0.1666  0.9404
  227MOL0     C30533   2.959   7.902   8.058 -1.3935 -0.2283  0.8406
  227MOL0     O30534   2.842   7.834   8.106  0.5256  0.1494 -0.3255
  227MOL0     C30535   2.718   7.899   8.114  0.2305 -0.3832  0.2215
  227MOL0     C30536   2.602   7.830   8.152 -0.4926  0.4569  0.6146
  227MOL0     C30537   2.479   7.905   8.174 -0.2599 -0.2594  0.3384
  227MOL0     C30538   2.468   8.043   8.147 -0.1085 -0.6666  0.7458
  227MOL0     C30539   2.344   8.119   8.171  0.2672 -0.3459 -0.3805
  227MOL0     O30540   2.332   8.241   8.111 -0.2297 -0.0676  0.3261
  227MOL0     C30541   2.206   8.302   8.084 -0.4232  0.1699 -0.4655
  227MOL0     C30542   2.225   8.433   8.033 -0.2309 -0.4458 -0.1064
  227MOL0     C30543   2.111   8.503   8.002  0.3179 -0.3807 -0.3421
  227MOL0     C30544   1.977   8.453   8.007  0.4314 -0.9464 -0.4443
  227MOL0     O30545   1.872   8.537   7.981 -0.0826 -0.5570  0.1917
  227MOL0     C30546   1.767   8.493   7.895 -0.4506 -0.0023 -0.1033
  227MOL0     C30547   1.692   8.626   7.874  0.1394  1.0692  0.5258
  227MOL0     C30548   1.743   8.700   7.749 -0.5091 -0.5993 -0.2741
  227MOL0     C30549   1.644   8.818   7.720  0.0286  1.1738  0.1394
  227MOL0     C30550   1.690   8.932   7.636  0.3163  0.5069 -0.0990
  227MOL0     C30551   1.577   9.022   7.575  0.1231 -0.1832 -0.8314
  227MOL0     C30552   1.640   9.153   7.513 -0.1296 -0.4511  0.3957
  227MOL0     C30553   1.567   9.280   7.550 -1.3214  0.4717  0.7668
  227MOL0    Cl30554   1.404   9.296   7.476 -0.8994 -0.5146  0.3158
  227MOL0     C30555   1.971   8.318   8.053  0.7425 -0.6042  0.5959
  227MOL0     C30556   2.079   8.248   8.090  0.4083  0.4729  0.1115
  227MOL0     O30557   2.261   8.069   8.247 -0.3883 -0.5794  0.1018
  227MOL0     C30558   2.582   8.102   8.098 -0.8964  0.4011 -0.4833
  227MOL0     C30559   2.697   8.035   8.074  0.1798  0.7633 -0.0924
  227MOL0     N30560   3.080   7.600   7.747 -0.2680  0.1595  0.5556
  227MOL0     N30561   3.055   7.479   7.719 -1.1100  0.5104  0.3713
  227MOL0     C30562   3.691   6.338   7.615  0.9185 -0.1693  0.3663
  227MOL0     C30563   3.793   6.256   7.569  0.0868  0.1935 -0.1520
  227MOL0     C30564   4.145   6.108   7.314 -0.4421 -1.0163  0.0254
  227MOL0     C30565   4.134   6.144   7.177 -0.4191 -0.7402 -0.7686
  227MOL0     C30566   4.237   6.114   7.082 -0.3744 -0.0755  0.4165
  227MOL0     C30567   4.342   6.028   7.127  1.1679  0.9595 -0.1655
  227MOL0     O30568   4.447   5.977   7.049 -0.0891  0.3953 -0.0310
  227MOL0     C30569   4.459   6.022   6.916  0.5273  0.3351 -0.3956
  227MOL0     C30570   4.556   5.944   6.831 -0.0303  0.2301 -0.0799
  227MOL0     C30571   4.682   5.894   6.906  0.5988  0.5780 -0.4144
  227MOL0     C30572   4.802   5.862   6.810  0.5569 -0.0146 -0.4121
  227MOL0     C30573   4.860   5.988   6.765 -0.6234  0.7598 -0.6685
  227MOL0     C30574   4.916   6.093   6.732 -0.4997 -0.3412 -0.1182
  227MOL0     C30575   4.347   5.989   7.257  0.0080 -0.6214  0.1611
  227MOL0     C30576   4.246   6.014   7.350 -0.0572  0.8106 -0.2544
  227MOL0     C30577   4.250   5.943   7.477  0.2268  0.4422 -0.2110
  227MOL0     H30578   3.796   6.345   7.246  0.0777 -2.4384 -0.7439
  227MOL0     H30579   3.620   6.495   7.311 -0.8218  1.4328  1.8672
  227MOL0     H30580   3.438   6.537   7.386  3.2272  0.2225  0.9253
  227MOL0     H30581   3.329   6.444   7.481 -0.5477 -0.4118 -0.3880
  227MOL0     H30582   3.223   6.667   7.478  0.8210 -1.4860 -2.3511
  227MOL0     H30583   3.384   6.736   7.475  2.8695 -1.8647 -0.8350
  227MOL0     H30584   3.400   6.700   7.710 -0.9193 -1.2704  0.6376
  227MOL0     H30585   3.278   6.564   7.714  2.8231  0.9213  3.0965
  227MOL0     H30586   3.107   6.728   7.686  0.6521 -2.1448  0.6257
  227MOL0     H30587   3.199   6.743   7.834 -0.9527  2.5020 -0.0143
  227MOL0     H30588   3.341   6.926   7.706  0.4614  1.7485  0.2036
  227MOL0     H30589   3.212   6.915   7.584 -5.1076  2.1213  0.9314
  227MOL0     H30590   3.043   6.963   7.764  0.1921  1.1085  1.8025
  227MOL0     H30591   3.160   6.986   7.876 -3.5579 -2.2880 -0.1255
  227MOL0     H30592   3.147   7.163   7.616  4.8666 -1.3264 -0.3038
  227MOL0     H30593   3.269   7.161   7.740  0.7651 -2.3553 -0.7531
  227MOL0     H30594   2.970   7.245   7.792  0.4497  0.2394 -1.4791
  227MOL0     H30595   3.095   7.213   7.915  2.2534  2.2011 -0.0551
  227MOL0     H30596   3.286   7.431   7.941 -0.3197  1.3920  0.0150
  227MOL0     H30597   3.309   7.692   8.008  2.3479  0.4395 -0.4336
  227MOL0     H30598   3.341   7.752   7.848 -0.9247 -0.4075 -1.0219
  227MOL0     H30599   3.227   7.921   7.975  0.3546 -1.1236  1.0764
  227MOL0     H30600   3.118   7.873   7.848 -0.9608 -1.3457 -0.3759
  227MOL0     H30601   3.114   7.792   8.143 -1.2773  1.7998  1.5085
  227MOL0     H30602   3.019   7.703   8.023  0.7146 -1.2529  3.8448
  227MOL0     H30603   2.942   7.935   7.954  1.7287 -1.2145 -0.0971
  227MOL0     H30604   2.976   7.990   8.121 -1.9719 -0.3597  1.1875
  227MOL0     H30605   2.605   7.726   8.183 -3.1418 -0.6486 -2.2485
  227MOL0     H30606   2.396   7.849   8.217 -1.7898  2.9525  1.9298
  227MOL0     H30607   2.326   8.474   8.029  0.0875 -0.9813  1.6984
  227MOL0     H30608   2.129   8.604   7.967  1.1800 -0.5084 -0.3089
  227MOL0     H30609   1.815   8.443   7.811  1.2645  1.6257 -0.1671
  227MOL0     H30610   1.697   8.433   7.953 -2.2356  1.7386 -0.3612
  227MOL0     H30611   1.587   8.609   7.848  0.2339 -0.7901  1.2228
  227MOL0     H30612   1.689   8.684   7.967  0.2254  3.3363 -0.8261
  227MOL0     H30613   1.848   8.730   7.758 -0.6581 -0.2466  0.4601
  227MOL0     H30614   1.742   8.633   7.663  0.8056 -0.1914 -0.6305
  227MOL0     H30615   1.615   8.875   7.808  3.3175  3.0510  0.1505
  227MOL0     H30616   1.552   8.768   7.685  0.8286 -0.4701  0.2761
  227MOL0     H30617   1.748   8.894   7.551  1.6627  0.0477  0.9795
  227MOL0     H30618   1.766   8.990   7.689 -1.0315  0.3926  2.0556
  227MOL0     H30619   1.518   8.971   7.498  0.2197 -2.1728  0.3318
  227MOL0     H30620   1.514   9.035   7.664  1.2822 -0.4384  0.0476
  227MOL0     H30621   1.633   9.141   7.405 -3.0033 -0.7308  0.5395
  227MOL0     H30622   1.745   9.168   7.540 -0.3668 -2.6870  3.0366
  227MOL0     H30623   1.542   9.288   7.656  1.3352 -1.7127  1.6862
  227MOL0     H30624   1.641   9.355   7.518  1.8142 -1.6183  2.5271
  227MOL0     H30625   1.866   8.292   8.064  0.5903  1.0038  4.9507
  227MOL0     H30626   2.067   8.145   8.122  3.5301 -0.1216 -0.3074
  227MOL0     H30627   2.579   8.205   8.062 -1.5019  1.6967  2.9401
  227MOL0     H30628   2.778   8.087   8.023  1.8718 -1.6588 -0.0507
  227MOL0     H30629   3.649   6.323   7.714  3.5838  1.6627  1.8887
  227MOL0     H30630   3.839   6.185   7.637  2.0154  0.8002 -0.7512
  227MOL0     H30631   4.054   6.207   7.140 -0.3918 -0.5902 -0.5734
  227MOL0     H30632   4.241   6.165   6.987  1.4799  1.1243  1.0986
  227MOL0     H30633   4.513   6.117   6.925 -1.7126  1.6867 -0.4998
  227MOL0     H30634   4.367   6.038   6.859 -0.5736 -0.2569  1.1585
  227MOL0     H30635   4.578   5.992   6.735 -1.5268 -0.9213 -1.0662
  227MOL0     H30636   4.492   5.858   6.807  1.9719 -0.3968 -4.0731
  227MOL0     H30637   4.639   5.810   6.961  1.7045  0.1218 -0.2309
  227MOL0     H30638   4.709   5.968   6.981 -0.8035  0.3947  0.3077
  227MOL0     H30639   4.875   5.803   6.866 -1.9917 -4.7025 -1.4563
  227MOL0     H30640   4.788   5.798   6.722  3.7844  0.6561 -1.5283
  227MOL0     H30641   4.961   6.190   6.723 -2.5743  0.6543 -0.4321
  227MOL0     H30642   4.440   5.936   7.275  0.9323  0.3922 -1.3909
  227MOL0     H30643   4.289   5.843   7.456  1.1998  0.6250  0.6562
  227MOL0     H30644   4.299   6.002   7.555 -1.7235 -1.4589  2.6925
  227MOL0     H30645   4.149   5.919   7.512 -0.2013 -0.8230 -2.1812
  228MOL0     O30646   2.392   9.940   9.948  0.0778  0.2477 -0.3030
  228MOL0     C30647   2.357  10.055   9.921  0.7914  0.5459  0.3754
  228MOL0     O30648   2.441  10.154   9.888 -0.0683  0.3313 -0.1827
  228MOL0     C30649   2.576  10.136   9.872 -0.2021  0.8997 -0.2116
  228MOL0     C30650   2.663  10.030   9.922 -0.1399  0.4167  0.5325
  228MOL0     C30651   2.797  10.015   9.879  0.4744 -0.5486  0.5858
  228MOL0     C30652   2.848  10.117   9.797 -0.2185  0.3907  0.6316
  228MOL0     O30653   2.974  10.115   9.736  1.1974  0.0316  0.0589
  228MOL0     C30654   3.062  10.017   9.788 -1.2058 -1.2133  0.4041
  228MOL0     C30655   3.183  10.022   9.692  0.0289  0.4397  0.1543
  228MOL0     C30656   3.302  10.100   9.761  0.8391 -0.5486 -0.6941
  228MOL0     C30657   3.413  10.128   9.657  0.3891  0.1667 -0.3950
  228MOL0     C30658   3.506  10.243   9.705 -0.6471  0.1092 -0.0997
  228MOL0     C30659   3.634  10.263   9.612 -0.0725  0.1886 -0.3927
  228MOL0     C30660   3.700  10.397   9.632  0.0287 -0.3516  0.2088
  228MOL0     C30661   3.747  10.421   9.768 -0.5912 -0.8255 -0.3624
  228MOL0     N30662   3.839  10.317   9.820 -0.3070 -0.1063 -0.4457
  228MOL0     C30663   3.969  10.286   9.797 -0.0647 -0.0595  1.1520
  228MOL0     C30664   4.002  10.192   9.888  0.1622  0.1073  0.0080
  228MOL0     C30665   4.137  10.120   9.892 -0.0092 -0.2287 -0.4594
  228MOL0     C30666   4.151   9.991   9.989  0.0733  0.4511 -0.7761
  228MOL0     C30667   4.275   9.917   9.953 -0.7104 -0.9222 -0.2175
  228MOL0     C30668   4.314   9.802  10.047  0.3351 -0.4728  0.6654
  228MOL0     O30669   4.321   9.836  10.188  0.3448 -0.5793  0.2379
  228MOL0     C30670   4.377   9.758  10.285 -0.4474  0.9069  0.3389
  228MOL0     C30671   4.439   9.633  10.254 -0.5929 -0.7178  0.0819
  228MOL0     C30672   4.513   9.554  10.345  0.2377 -0.1645  0.1014
  228MOL0     C30673   4.531   9.607  10.479  1.0374 -0.1855 -1.2043
  228MOL0     C30674   4.627   9.538  10.572  0.8721  1.0916  0.4961
  228MOL0     O30675   4.648   9.593  10.694 -0.0727  0.2472  0.2070
  228MOL0     C30676   4.708   9.514  10.791 -0.0916  0.2085 -0.1063
  228MOL0     C30677   4.629   9.412  10.842  0.3554 -1.1639 -0.1945
  228MOL0     C30678   4.681   9.323  10.936 -0.2844 -0.1700 -0.2103
  228MOL0     C30679   4.810   9.345  10.988  0.3052  0.3909 -0.0274
  228MOL0     O30680   4.860   9.247  11.064 -0.4071 -1.2873 -0.4095
  228MOL0     C30681   4.942   9.292  11.181  0.5272  0.5951  0.6566
  228MOL0     C30682   4.894   9.223  11.309  0.6633 -0.3282  0.2850
  228MOL0     C30683   4.927   9.076  11.316  0.2292 -0.4758  0.7504
  228MOL0     C30684   4.859   9.006  11.443  0.8303 -0.2677  0.2373
  228MOL0     C30685   4.710   8.990  11.445  0.5597 -0.0564 -0.2841
  228MOL0     C30686   4.655   8.929  11.571 -0.0116  0.0545 -0.3527
  228MOL0     C30687   4.700   8.989  11.707 -0.5876 -0.0642  0.5987
  228MOL0     C30688   4.635   8.914  11.827  0.8980 -0.3567 -0.4351
  228MOL0    Cl30689   4.459   8.945  11.822 -0.2104  0.1673 -0.3348
  228MOL0     C30690   4.890   9.441  10.933  0.0607  0.8508 -0.8695
  228MOL0     C30691   4.842   9.523  10.827 -0.8288 -0.5774 -1.0994
  228MOL0     O30692   4.688   9.440  10.532 -0.3605 -0.4978  0.8203
  228MOL0     C30693   4.451   9.722  10.514  0.2689  0.4974 -0.1258
  228MOL0     C30694   4.387   9.799  10.422 -0.5263  0.0736  0.6257
  228MOL0     N30695   3.883  10.143   9.936 -1.3242  0.5135 -0.3428
  228MOL0     N30696   3.794  10.226   9.908 -0.3376 -0.1290 -0.4752
  228MOL0     C30697   2.760  10.221   9.742 -0.9711  1.1513 -0.5510
  228MOL0     C30698   2.631  10.235   9.784  0.4637  0.1427  0.7097
  228MOL0     C30699   2.210  10.085   9.918 -0.4412  0.0078  0.2162
  228MOL0     C30700   2.170  10.213   9.955 -0.3363 -1.0448 -0.4107
  228MOL0     C30701   2.041  10.257   9.954  0.8393  0.4759  1.3040
  228MOL0     C30702   1.933  10.176   9.918 -0.8803 -0.1485  0.1712
  228MOL0     O30703   1.801  10.211   9.914  0.0764  0.1740  0.3919
  228MOL0     C30704   1.763  10.351   9.910  0.0641  0.1322  0.0366
  228MOL0     C30705   1.662  10.359   9.804  0.3611  0.2524 -0.0637
  228MOL0     C30706   1.682  10.266   9.674  0.4237 -0.2142  0.5215
  228MOL0     C30707   1.811  10.297   9.597 -0.3882 -0.1278  0.2410
  228MOL0     C30708   1.781  10.423   9.518  0.1009  0.1728  0.2198
  228MOL0     C30709   1.751  10.523   9.452  1.0197  1.0548  0.5494
  228MOL0     C30710   1.970  10.045   9.880 -1.0480  0.9257  0.7734
  228MOL0     C30711   2.097  10.000   9.872 -1.7669  0.1224  0.2125
  228MOL0     C30712   2.112   9.862   9.816 -0.3066 -0.7596  0.3366
  228MOL0     H30713   2.628   9.960   9.998  0.1840 -0.9326 -0.5250
  228MOL0     H30714   2.861   9.938   9.923  1.1837 -0.6632 -0.6127
  228MOL0     H30715   3.078  10.030   9.896  0.3738 -0.1276  0.0678
  228MOL0     H30716   3.014   9.919   9.780 -0.7803 -1.5390  1.5846
  228MOL0     H30717   3.154  10.059   9.593 -2.0753  0.1244  0.5891
  228MOL0     H30718   3.217   9.919   9.674  3.1328  1.7544 -2.4633
  228MOL0     H30719   3.343  10.038   9.842  0.2968  0.2958  0.2529
  228MOL0     H30720   3.265  10.195   9.800 -5.1094 -1.2523 -3.5183
  228MOL0     H30721   3.477  10.047   9.622  2.9186  2.4997 -1.4962
  228MOL0     H30722   3.352  10.165   9.574 -0.8463  0.5003  0.6212
  228MOL0     H30723   3.441  10.330   9.713 -0.4885  0.1366  1.0959
  228MOL0     H30724   3.536  10.231   9.809  0.9344 -0.4898 -0.5956
  228MOL0     H30725   3.700  10.178   9.632  0.6628  1.0107  0.8755
  228MOL0     H30726   3.598  10.259   9.509  0.0203  2.9712 -0.6122
  228MOL0     H30727   3.633  10.478   9.603  0.5314  0.5789  1.5832
  228MOL0     H30728   3.790  10.393   9.571 -0.2127 -2.2961 -0.0884
  228MOL0     H30729   3.792  10.521   9.768  0.4090 -1.2502 -1.3440
  228MOL0     H30730   3.667  10.434   9.841 -0.2943 -0.6732 -0.0580
  228MOL0     H30731   4.045  10.330   9.734 -0.3942 -0.7551  0.2360
  228MOL0     H30732   4.155  10.086   9.790 -2.4442  1.6404 -1.6248
  228MOL0     H30733   4.223  10.186   9.909  1.1941 -1.2572 -2.2407
  228MOL0     H30734   4.161  10.019  10.094 -1.2855 -1.3848 -0.1148
  228MOL0     H30735   4.059   9.935   9.974 -1.3521  1.7414  2.3524
  228MOL0     H30736   4.360   9.985   9.945 -1.6997  0.2863 -0.7505
  228MOL0     H30737   4.248   9.873   9.857 -0.3709  0.1592 -0.8125
  228MOL0     H30738   4.417   9.778  10.017  0.3795  0.7940 -0.2661
  228MOL0     H30739   4.254   9.711  10.036  1.8702 -1.3125 -1.5910
  228MOL0     H30740   4.425   9.593  10.154 -0.8721 -0.0568 -0.1476
  228MOL0     H30741   4.559   9.457  10.329  0.7220  0.0707  0.0488
  228MOL0     H30742   4.524   9.397  10.819  0.0042  1.8528 -0.9051
  228MOL0     H30743   4.633   9.235  10.978 -3.6960  1.5452 -0.1172
  228MOL0     H30744   5.049   9.271  11.176  0.6831  1.4134  0.3460
  228MOL0     H30745   4.932   9.398  11.206 -1.7003  0.5282  0.3087
  228MOL0     H30746   4.933   9.283  11.392  0.4122 -0.2313  0.3321
  228MOL0     H30747   4.788   9.247  11.305  1.1093  1.6467 -1.1862
  228MOL0     H30748   4.883   9.021  11.233  3.3680 -3.0802  0.6337
  228MOL0     H30749   5.035   9.060  11.308 -0.1701 -2.3420 -3.5901
  228MOL0     H30750   4.909   9.048  11.531  4.9031 -2.7024 -0.6399
  228MOL0     H30751   4.901   8.906  11.451  2.0399  0.2499  0.6434
  228MOL0     H30752   4.680   8.922  11.366 -0.6215  0.8956 -0.6890
  228MOL0     H30753   4.658   9.082  11.416  1.7898 -0.3275 -3.8533
  228MOL0     H30754   4.546   8.941  11.566  0.2214  2.3815 -1.6012
  228MOL0     H30755   4.697   8.828  11.569  1.4001  0.6129 -0.3552
  228MOL0     H30756   4.667   9.092  11.695 -0.6294  0.0857  1.8546
  228MOL0     H30757   4.808   8.980  11.718 -0.6827  0.2491  2.0204
  228MOL0     H30758   4.641   8.805  11.835 -1.1741 -0.4806 -0.1106
  228MOL0     H30759   4.659   8.955  11.926 -2.8975 -2.2086  1.4547
  228MOL0     H30760   4.993   9.450  10.968 -0.0128 -0.0992 -0.3886
  228MOL0     H30761   4.902   9.608  10.794 -1.7610  1.1713  1.4266
  228MOL0     H30762   4.461   9.757  10.616 -0.4512 -0.8753  0.4440
  228MOL0     H30763   4.354   9.896  10.459  0.6028  0.2546  1.2138
  228MOL0     H30764   2.808  10.284   9.667  0.5990 -1.3078 -1.7608
  228MOL0     H30765   2.582  10.327   9.754  1.9524  1.3751  1.8927
  228MOL0     H30766   2.242  10.288   9.985  1.5601 -2.2559 -1.7676
  228MOL0     H30767   2.026  10.359   9.989  1.7251  1.7344 -1.7200
  228MOL0     H30768   1.852  10.407   9.881  1.2310 -2.1517 -1.0681
  228MOL0     H30769   1.717  10.377  10.006  0.0448  1.6028 -0.3578
  228MOL0     H30770   1.643  10.465   9.781 -0.3331  0.1137 -0.1595
  228MOL0     H30771   1.572  10.319   9.852  0.9825 -0.1506  0.7854
  228MOL0     H30772   1.588  10.262   9.618 -0.3487  0.1765  1.7703
  228MOL0     H30773   1.681  10.162   9.709  0.3651  0.0670  1.3557
  228MOL0     H30774   1.896  10.302   9.666  2.8043 -3.5145 -2.9878
  228MOL0     H30775   1.823  10.213   9.528  1.8236  0.2003  0.1617
  228MOL0     H30776   1.720  10.599   9.384  0.1756  1.3825  1.2775
  228MOL0     H30777   1.894   9.976   9.845  1.5807 -0.9273 -1.7455
  228MOL0     H30778   2.072   9.773   9.864  6.1652 -4.8718 -0.5879
  228MOL0     H30779   2.067   9.871   9.717  1.0851  3.1819 -0.1228
  228MOL0     H30780   2.219   9.840   9.805 -0.2086 -0.3804  0.5029
  229MOL0     O30781   5.368  10.280   5.537  0.1362  0.4864 -0.1754
  229MOL0     C30782   5.395  10.392   5.499 -0.2154 -0.3417  0.5344
  229MOL0     O30783   5.523  10.440   5.498  0.8085  0.0248  0.1817
  229MOL0     C30784   5.630  10.368   5.551 -0.0608 -0.6261 -0.3206
  229MOL0     C30785   5.748  10.366   5.469 -0.0207 -0.0742  0.1651
  229MOL0     C30786   5.868  10.305   5.520  0.7461 -0.3240  0.2755
  229MOL0     C30787   5.870  10.250   5.642 -0.5174 -0.1342 -0.0636
  229MOL0     O30788   5.994  10.204   5.679 -0.0226 -0.0624 -0.2969
  229MOL0     C30789   6.026  10.225   5.818  0.5039  0.3048 -0.0684
  229MOL0     C30790   6.086  10.097   5.870  0.0692 -0.5392 -0.7183
  229MOL0     C30791   5.994   9.972   5.871  0.8127 -0.3844 -0.1593
  229MOL0     C30792   6.042   9.843   5.960 -0.3698 -1.0910 -0.0667
  229MOL0     C30793   6.187   9.815   5.925  0.5100  0.5072 -0.7017
  229MOL0     C30794   6.197   9.744   5.793 -0.2541  0.3276  0.1162
  229MOL0     C30795   6.333   9.738   5.717  1.0264  0.4629 -0.4021
  229MOL0     C30796   6.386   9.874   5.664  0.4694 -0.7063 -0.4710
  229MOL0     N30797   6.332   9.911   5.533  0.6872  0.2114  0.3930
  229MOL0     C30798   6.197   9.952   5.516 -0.4822 -0.3209  0.0962
  229MOL0     C30799   6.200  10.002   5.387  1.2658  0.3815 -0.8137
  229MOL0     C30800   6.076  10.046   5.316  0.4123  0.0817  0.0058
  229MOL0     C30801   6.104  10.163   5.220  1.1095  0.2565  0.2249
  229MOL0     C30802   5.990  10.186   5.123  0.9940  0.8498 -1.1472
  229MOL0     C30803   6.003  10.291   5.018 -0.0347  0.2752 -0.5445
  229MOL0     O30804   6.020  10.421   5.077 -0.1904 -0.8239 -0.1696
  229MOL0     C30805   5.983  10.535   5.004 -1.0913 -0.1409 -0.1373
  229MOL0     C30806   5.989  10.538   4.866  0.4319 -0.6999  0.6475
  229MOL0     C30807   5.969  10.659   4.804 -0.3333 -0.4887  0.4651
  229MOL0     C30808   5.939  10.780   4.872  0.0016 -0.0290 -0.5005
  229MOL0     C30809   5.934  10.912   4.810  0.3879 -0.7319  0.1355
  229MOL0     O30810   5.949  11.007   4.900 -0.6765 -0.4588  0.3156
  229MOL0     C30811   5.927  11.135   4.856  0.2032  0.5821  0.0120
  229MOL0     C30812   6.039  11.195   4.794  1.1439  0.1068  0.2858
  229MOL0     C30813   6.019  11.328   4.749  0.1233 -0.0474 -0.4535
  229MOL0     C30814   5.903  11.400   4.778  0.2591  0.0190 -0.6746
  229MOL0     O30815   5.884  11.522   4.720 -0.4670 -0.4587 -0.0252
  229MOL0     C30816   5.913  11.644   4.804 -0.0237 -0.2926  0.4990
  229MOL0     C30817   6.022  11.736   4.740  0.6257  0.6669  0.4176
  229MOL0     C30818   5.975  11.758   4.594 -0.0465 -0.3046  0.3918
  229MOL0     C30819   6.063  11.871   4.542  0.6513  0.6241 -0.0489
  229MOL0     C30820   5.998  11.951   4.422 -0.3857  1.1869 -0.2598
  229MOL0     C30821   6.091  12.056   4.366 -0.3555 -0.5804  0.3450
  229MOL0     C30822   6.025  12.142   4.262  0.4359 -0.1920 -0.5681
  229MOL0     C30823   6.125  12.241   4.207  0.1986 -0.4925  0.2394
  229MOL0    Cl30824   6.053  12.334   4.071 -0.0610 -0.0551  0.1966
  229MOL0     C30825   5.798  11.339   4.841  0.3365 -0.3546  0.3599
  229MOL0     C30826   5.808  11.210   4.880 -0.2760 -0.1938  0.0500
  229MOL0     O30827   5.904  10.922   4.692 -0.5455 -0.4819  0.1971
  229MOL0     C30828   5.956  10.774   5.018  0.0751  0.5292 -0.0130
  229MOL0     C30829   5.960  10.645   5.079  0.7903 -0.0075 -0.0096
  229MOL0     N30830   6.324   9.993   5.333 -0.3100 -0.0923  0.0485
  229MOL0     N30831   6.405   9.947   5.426  0.3603  0.3312  0.1150
  229MOL0     C30832   5.749  10.246   5.725 -0.6202  0.5967  0.2289
  229MOL0     C30833   5.626  10.305   5.681 -0.0707  0.9750  0.3298
  229MOL0     C30834   5.279  10.487   5.454 -0.2117  0.4771  0.1180
  229MOL0     C30835   5.149  10.442   5.476  0.3847 -0.6586 -0.5261
  229MOL0     C30836   5.040  10.529   5.451 -0.8872 -0.2594 -0.6376
  229MOL0     C30837   5.058  10.665   5.414 -1.3358  0.0922 -0.1601
  229MOL0     O30838   4.955  10.757   5.409 -0.4255  0.1522  0.6203
  229MOL0     C30839   4.826  10.719   5.434  0.5374  0.9321 -0.3069
  229MOL0     C30840   4.719  10.825   5.392 -1.0274  0.2624  0.5417
  229MOL0     C30841   4.702  10.944   5.483  0.4752  0.8625 -0.2161
  229MOL0     C30842   4.827  11.022   5.519  0.3964 -0.6124  0.1464
  229MOL0     C30843   4.810  11.104   5.631  0.0428 -0.4261  0.5629
  229MOL0     C30844   4.818  11.175   5.727  0.7400 -0.6424 -0.1742
  229MOL0     C30845   5.189  10.706   5.392  0.1699  0.5536  0.1872
  229MOL0     C30846   5.296  10.623   5.406 -0.2448  1.3799 -0.2445
  229MOL0     C30847   5.431  10.683   5.384  0.0388  0.3163  0.2900
  229MOL0     H30848   5.752  10.431   5.382 -0.1134 -0.4075 -0.0906
  229MOL0     H30849   5.955  10.323   5.458 -0.8343  1.9257 -1.4474
  229MOL0     H30850   6.096  10.308   5.833 -1.5164  1.5568  3.6711
  229MOL0     H30851   5.950  10.256   5.890  0.4923 -2.1130  1.0659
  229MOL0     H30852   6.127  10.100   5.971 -0.0087 -0.1772 -0.6943
  229MOL0     H30853   6.172  10.061   5.812 -0.0044 -1.5263 -0.2279
  229MOL0     H30854   5.973   9.945   5.767  2.1885  2.3461 -1.2355
  229MOL0     H30855   5.900  10.004   5.918  1.4174 -1.0006  1.5416
  229MOL0     H30856   6.052   9.879   6.063 -0.0463 -1.0337 -0.1153
  229MOL0     H30857   5.979   9.755   5.945 -1.4903 -0.4355  0.6845
  229MOL0     H30858   6.240   9.909   5.943 -1.6490  1.8031 -0.6550
  229MOL0     H30859   6.220   9.736   5.993 -1.6212 -0.5302 -0.8002
  229MOL0     H30860   6.167   9.639   5.802 -0.4456  0.1793 -1.7667
  229MOL0     H30861   6.132   9.790   5.718 -0.6591 -1.1307 -0.4591
  229MOL0     H30862   6.314   9.665   5.639  0.4518 -1.3128  1.3258
  229MOL0     H30863   6.399   9.688   5.788  2.3717  2.7115  0.0396
  229MOL0     H30864   6.365   9.954   5.737 -1.4949 -1.7033  0.1424
  229MOL0     H30865   6.495   9.881   5.658  0.3498  4.7574 -2.4967
  229MOL0     H30866   6.111   9.943   5.581  0.7393  2.8687  2.4457
  229MOL0     H30867   6.037   9.960   5.261 -0.5197 -0.3704  1.3145
  229MOL0     H30868   5.991  10.063   5.383  0.1761 -2.1403  0.3414
  229MOL0     H30869   6.118  10.247   5.290 -0.6255  0.0280  0.8979
  229MOL0     H30870   6.198  10.142   5.169  0.3464 -1.5764 -0.5242
  229MOL0     H30871   5.906  10.219   5.183  1.3571  3.2199 -1.8599
  229MOL0     H30872   5.966  10.089   5.078 -0.0673 -0.2256  1.5343
  229MOL0     H30873   5.912  10.292   4.957 -1.0229  0.1090  0.8673
  229MOL0     H30874   6.092  10.255   4.965  0.1504 -1.5443  0.9105
  229MOL0     H30875   5.991  10.450   4.801  1.1790  0.1568 -0.5348
  229MOL0     H30876   5.983  10.664   4.697 -0.0918  1.8287  0.5524
  229MOL0     H30877   6.133  11.147   4.769  0.0716 -0.8072 -2.2741
  229MOL0     H30878   6.091  11.387   4.693  1.5182  1.0750  2.3237
  229MOL0     H30879   5.822  11.702   4.792  1.1032  1.0391 -2.8737
  229MOL0     H30880   5.953  11.620   4.903  2.8011 -0.8896 -0.6725
  229MOL0     H30881   6.034  11.831   4.795  1.4661  0.8058  0.0104
  229MOL0     H30882   6.120  11.689   4.744  1.1763  1.8496  1.4779
  229MOL0     H30883   6.006  11.672   4.534  4.7054  0.8751  0.7432
  229MOL0     H30884   5.868  11.780   4.591  0.3675  2.2820  1.8304
  229MOL0     H30885   6.159  11.849   4.496  0.0285  2.1515 -2.2576
  229MOL0     H30886   6.074  11.943   4.624 -2.0439  1.9074 -0.6704
  229MOL0     H30887   5.905  11.997   4.456 -0.8769 -0.3599  0.5474
  229MOL0     H30888   5.963  11.874   4.352  1.2272 -1.0584  1.2700
  229MOL0     H30889   6.116  12.137   4.436 -3.4636  2.4746 -1.7229
  229MOL0     H30890   6.182  12.011   4.327  0.9422 -0.0324  2.5972
  229MOL0     H30891   5.932  12.189   4.295  1.0342 -0.3792  1.5040
  229MOL0     H30892   5.989  12.079   4.180  0.2456 -1.0838  0.1979
  229MOL0     H30893   6.149  12.310   4.289 -1.4198 -0.5938  0.8365
  229MOL0     H30894   6.213  12.192   4.163  0.7183 -2.7466  3.4031
  229MOL0     H30895   5.705  11.395   4.855 -1.3159 -2.5583 -1.1397
  229MOL0     H30896   5.727  11.160   4.933  0.0286 -1.7108 -0.8428
  229MOL0     H30897   5.936  10.862   5.078 -1.5625  0.1306  0.0811
  229MOL0     H30898   5.960  10.637   5.188  2.2231 -4.2727 -0.1395
  229MOL0     H30899   5.768  10.186   5.813  3.3629  0.2842 -0.6508
  229MOL0     H30900   5.532  10.305   5.735  0.4523  1.3968  1.2582
  229MOL0     H30901   5.133  10.344   5.520  1.1340 -0.2737  0.6352
  229MOL0     H30902   4.945  10.484   5.476 -0.9873  1.2055  1.9815
  229MOL0     H30903   4.816  10.688   5.539  2.7911 -0.8271 -0.5160
  229MOL0     H30904   4.805  10.630   5.374  2.1011  0.4336 -0.1617
  229MOL0     H30905   4.617  10.789   5.379 -0.9808  0.6602 -1.1791
  229MOL0     H30906   4.748  10.867   5.295  1.0452 -1.4204  0.3670
  229MOL0     H30907   4.657  10.905   5.574  1.3542 -2.9135 -1.2352
  229MOL0     H30908   4.625  11.008   5.439 -3.1980  1.4057  5.9257
  229MOL0     H30909   4.917  10.962   5.535  0.2772 -1.6798 -2.6551
  229MOL0     H30910   4.846  11.083   5.430 -1.2296 -0.7808 -0.3503
  229MOL0     H30911   4.841  11.224   5.819  2.4579 -0.6691 -0.5537
  229MOL0     H30912   5.207  10.807   5.356 -0.5017  0.0687 -1.6065
  229MOL0     H30913   5.468  10.599   5.324 -1.9181  1.2625 -2.4166
  229MOL0     H30914   5.433  10.771   5.320  1.4806  0.7090  0.8252
  229MOL0     H30915   5.482  10.715   5.476 -1.4826  2.6305  0.4125
  230MOL0     O30916   6.733   3.073   3.896  0.1592 -0.0488 -0.0661
  230MOL0     C30917   6.838   3.009   3.876  0.5441  0.1255 -0.2438
  230MOL0     O30918   6.891   2.921   3.967 -0.3345  0.1140 -0.4108
  230MOL0     C30919   6.808   2.845   4.049  0.0024 -0.5408 -0.1204
  230MOL0     C30920   6.725   2.906   4.144 -0.6200  0.8261 -0.2422
  230MOL0     C30921   6.677   2.818   4.248 -0.1763 -0.7734  0.0920
  230MOL0     C30922   6.697   2.687   4.243 -0.1332 -0.5134  0.0035
  230MOL0     O30923   6.628   2.620   4.335 -0.0535 -0.3660  0.5659
  230MOL0     C30924   6.648   2.479   4.350 -0.9673 -0.4666  0.6286
  230MOL0     C30925   6.542   2.442   4.451 -0.6957 -0.1114 -0.4729
  230MOL0     C30926   6.542   2.294   4.488 -0.5027 -0.9727 -0.1597
  230MOL0     C30927   6.437   2.270   4.599 -0.3868 -0.3263 -0.3088
  230MOL0     C30928   6.402   2.124   4.617  0.0657 -0.2120 -0.0576
  230MOL0     C30929   6.515   2.029   4.644  0.4264 -0.4852 -0.0766
  230MOL0     C30930   6.460   1.889   4.672 -0.3092 -0.1502  1.0944
  230MOL0     C30931   6.506   1.821   4.801  0.2344  0.5522  0.2896
  230MOL0     N30932   6.459   1.680   4.827  0.3138  0.9295  0.3695
  230MOL0     C30933   6.335   1.627   4.791  1.1109  0.1431 -0.6453
  230MOL0     C30934   6.317   1.515   4.871 -0.1284  0.3385  0.5717
  230MOL0     C30935   6.190   1.433   4.878 -0.0839  0.0518  0.1679
  230MOL0     C30936   6.113   1.493   5.002 -0.5797 -0.6700  0.3286
  230MOL0     C30937   5.973   1.447   4.997  0.4856 -0.2774  0.4285
  230MOL0     C30938   5.876   1.534   5.085  0.6302  0.3557  0.6459
  230MOL0     O30939   5.892   1.675   5.063  0.2880  0.2733 -0.0826
  230MOL0     C30940   5.845   1.721   4.941  0.4118  0.2444 -0.2207
  230MOL0     C30941   5.903   1.827   4.893 -0.9370 -0.2061 -0.1134
  230MOL0     C30942   5.865   1.883   4.771  0.4213 -0.6349 -0.4041
  230MOL0     C30943   5.770   1.819   4.693  0.3285 -0.6707 -1.5276
  230MOL0     C30944   5.726   1.870   4.566 -0.6063 -0.3513  0.6509
  230MOL0     O30945   5.741   1.995   4.540 -0.3465 -0.5808 -0.3195
  230MOL0     C30946   5.678   2.046   4.427 -0.5924  0.5882 -0.7292
  230MOL0     C30947   5.738   2.050   4.305 -0.6509  0.3550  0.4514
  230MOL0     C30948   5.688   2.127   4.199 -0.3588 -1.0447 -0.1815
  230MOL0     C30949   5.565   2.189   4.221 -0.2762  0.5350 -0.1966
  230MOL0     O30950   5.504   2.251   4.114  0.0678  0.0505  0.7376
  230MOL0     C30951   5.452   2.180   3.999  0.5322  1.3405 -0.3152
  230MOL0     C30952   5.311   2.237   3.950 -0.7132 -0.0210  0.7154
  230MOL0     C30953   5.204   2.239   4.059  0.0859  0.3671  0.4231
  230MOL0     C30954   5.101   2.346   4.038  0.4532 -0.3957  0.6039
  230MOL0     C30955   4.953   2.322   4.074 -0.4491 -0.8658  0.4963
  230MOL0     C30956   4.953   2.299   4.227 -0.1996 -0.3673 -0.4750
  230MOL0     C30957   4.814   2.275   4.283  0.3657 -0.0515  0.1616
  230MOL0     C30958   4.793   2.121   4.309 -0.5452 -0.5912 -0.0015
  230MOL0    Cl30959   4.630   2.082   4.385 -0.1273 -0.4060  0.0545
  230MOL0     C30960   5.492   2.170   4.336  0.3137  0.0855  0.5551
  230MOL0     C30961   5.551   2.103   4.445 -0.6423 -0.0859 -0.0991
  230MOL0     O30962   5.654   1.798   4.499  0.1935 -0.1929  0.3979
  230MOL0     C30963   5.704   1.708   4.752  0.5194 -0.2337 -0.4865
  230MOL0     C30964   5.737   1.662   4.873  0.0452 -0.5296  0.6441
  230MOL0     N30965   6.427   1.492   4.943 -0.4911 -0.1902 -0.4794
  230MOL0     N30966   6.510   1.588   4.916  0.3164 -0.4929  0.8557
  230MOL0     C30967   6.771   2.628   4.143 -0.4781  0.7321 -1.1950
  230MOL0     C30968   6.832   2.701   4.053 -0.2947  0.0206 -0.1460
  230MOL0     C30969   6.917   3.037   3.748  0.0874  0.1499  0.0419
  230MOL0     C30970   7.040   3.106   3.755  0.4322 -0.6503 -1.3789
  230MOL0     C30971   7.098   3.144   3.638 -0.7246  0.1974  0.3670
  230MOL0     C30972   7.056   3.102   3.508 -0.9223  1.0806  0.3738
  230MOL0     O30973   7.136   3.152   3.411 -0.6962 -0.5908 -0.2679
  230MOL0     C30974   7.114   3.124   3.277  0.5611  0.2405  0.6989
  230MOL0     C30975   7.253   3.148   3.205 -0.6763 -0.7329  0.6410
  230MOL0     C30976   7.360   3.049   3.235 -0.5813 -0.2272  0.0514
  230MOL0     C30977   7.446   3.096   3.355  0.3598 -0.1743  0.5960
  230MOL0     C30978   7.521   2.979   3.405  0.2245  0.0757 -0.4288
  230MOL0     C30979   7.579   2.880   3.441 -0.6758 -0.6772 -0.0360
  230MOL0     C30980   6.942   3.034   3.503  0.3693 -0.4561 -0.0152
  230MOL0     C30981   6.874   3.002   3.618 -1.0586  0.7954  0.7334
  230MOL0     C30982   6.748   2.921   3.610 -0.2665  0.4421  0.0618
  230MOL0     H30983   6.697   3.010   4.128 -4.2904 -0.3339 -2.5393
  230MOL0     H30984   6.609   2.862   4.320  0.8891 -0.9831  1.2786
  230MOL0     H30985   6.615   2.423   4.263 -1.7782  0.5397  0.2677
  230MOL0     H30986   6.746   2.453   4.391  0.5974  1.2470 -1.8123
  230MOL0     H30987   6.441   2.458   4.412 -2.2739 -1.9261  2.4785
  230MOL0     H30988   6.566   2.500   4.541 -1.8016 -1.9583  1.0780
  230MOL0     H30989   6.640   2.256   4.519 -0.0769  0.1573 -0.0818
  230MOL0     H30990   6.523   2.236   4.397 -3.5043 -2.2800  1.1749
  230MOL0     H30991   6.476   2.319   4.689  1.8265  0.0668 -1.4237
  230MOL0     H30992   6.344   2.320   4.570 -1.0544 -0.5913  1.2514
  230MOL0     H30993   6.316   2.108   4.683 -0.4958  3.6995  0.3909
  230MOL0     H30994   6.379   2.088   4.516  1.1575 -1.6041  0.1554
  230MOL0     H30995   6.575   2.025   4.552  0.8401  1.2766  0.0934
  230MOL0     H30996   6.565   2.074   4.730 -3.9038  2.1222  1.4215
  230MOL0     H30997   6.480   1.824   4.586 -3.6461 -1.9918  1.5182
  230MOL0     H30998   6.352   1.887   4.691 -0.4860 -0.9730  0.1084
  230MOL0     H30999   6.614   1.830   4.813  0.2910 -1.0792  1.3291
  230MOL0     H31000   6.453   1.883   4.874 -1.3528 -0.0667 -0.2895
  230MOL0     H31001   6.263   1.666   4.720 -0.3819 -0.0950  0.6717
  230MOL0     H31002   6.122   1.452   4.794 -0.1026  1.7437  0.5449
  230MOL0     H31003   6.214   1.329   4.903  2.5054  0.4272 -0.4661
  230MOL0     H31004   6.164   1.466   5.095  3.5414  5.0112  0.1990
  230MOL0     H31005   6.119   1.602   5.009  0.7725 -0.6683 -0.4889
  230MOL0     H31006   5.976   1.349   5.045  0.1502  2.2777  6.4611
  230MOL0     H31007   5.932   1.428   4.897  0.8154  1.6777 -0.1222
  230MOL0     H31008   5.891   1.520   5.193 -2.1930 -0.1765  1.0420
  230MOL0     H31009   5.773   1.506   5.065  0.6959 -0.1093  0.9502
  230MOL0     H31010   5.974   1.879   4.956 -3.6347  2.0357  1.2762
  230MOL0     H31011   5.914   1.969   4.728 -1.2807 -0.9665 -3.2198
  230MOL0     H31012   5.835   2.006   4.284  0.0031  1.4865  0.9521
  230MOL0     H31013   5.731   2.136   4.100  0.6745 -0.4156  0.3030
  230MOL0     H31014   5.525   2.176   3.917 -0.3454 -1.8972 -1.0769
  230MOL0     H31015   5.442   2.075   4.028  0.2034  1.2082 -0.8937
  230MOL0     H31016   5.341   2.337   3.915  0.3376 -0.7858 -0.7026
  230MOL0     H31017   5.270   2.176   3.868 -0.4049  0.5759  0.1057
  230MOL0     H31018   5.153   2.142   4.060 -0.9064  0.8600 -0.8590
  230MOL0     H31019   5.252   2.244   4.157  2.1558  1.0917 -0.5622
  230MOL0     H31020   5.111   2.369   3.931  5.3879 -2.7897  0.2432
  230MOL0     H31021   5.145   2.432   4.091 -1.2284  0.5463  0.5450
  230MOL0     H31022   4.910   2.237   4.021  0.0689 -0.8207 -0.0054
  230MOL0     H31023   4.906   2.413   4.036  2.9591  0.3389 -1.2506
  230MOL0     H31024   5.010   2.213   4.263 -2.2570 -1.0976  1.2708
  230MOL0     H31025   5.002   2.387   4.269 -0.9183 -0.8151  1.3989
  230MOL0     H31026   4.735   2.315   4.218  0.0829 -1.0368 -0.1177
  230MOL0     H31027   4.793   2.325   4.378  1.2556 -0.9710  0.8545
  230MOL0     H31028   4.801   2.077   4.209  0.4220  4.4209 -2.4762
  230MOL0     H31029   4.869   2.098   4.384 -0.7850 -1.8902 -0.1371
  230MOL0     H31030   5.392   2.212   4.334  0.6652  0.9664 -1.7167
  230MOL0     H31031   5.504   2.100   4.543 -2.2971 -0.7612 -0.8734
  230MOL0     H31032   5.631   1.650   4.697  2.0278 -1.6988 -1.0330
  230MOL0     H31033   5.666   1.588   4.906  1.6484 -2.7699 -0.6166
  230MOL0     H31034   6.795   2.524   4.128  0.3347  1.0293 -2.0476
  230MOL0     H31035   6.897   2.658   3.977  1.9925 -0.9524  2.2171
  230MOL0     H31036   7.068   3.159   3.845  1.5165 -1.0915 -1.4400
  230MOL0     H31037   7.181   3.214   3.633 -1.1428  1.0342  3.2212
  230MOL0     H31038   7.036   3.188   3.235 -0.2402 -0.3502  1.2511
  230MOL0     H31039   7.075   3.022   3.266 -1.9383  1.2561 -0.6525
  230MOL0     H31040   7.283   3.250   3.229 -0.9771 -1.1202  2.9738
  230MOL0     H31041   7.235   3.145   3.097 -0.1467 -0.8076  0.5531
  230MOL0     H31042   7.426   3.055   3.148 -1.1623 -1.4503 -0.4969
  230MOL0     H31043   7.315   2.950   3.251 -2.7152  0.5135 -0.9332
  230MOL0     H31044   7.511   3.176   3.321  2.4018 -1.6970  0.7028
  230MOL0     H31045   7.377   3.133   3.431  1.3718 -0.9521  1.9322
  230MOL0     H31046   7.613   2.795   3.496 -0.9163 -0.6658  0.1291
  230MOL0     H31047   6.894   3.021   3.406  0.7927 -3.1391  0.0627
  230MOL0     H31048   6.757   2.823   3.657 -1.4750  0.9972  1.5633
  230MOL0     H31049   6.655   2.971   3.641  0.0886  2.2348 -1.5614
  230MOL0     H31050   6.724   2.902   3.505 -1.1999  0.4150  0.2685
  231MOL0     O31051   1.223   0.039   7.230 -0.1778 -0.2852  0.4455
  231MOL0     C31052   1.343   0.017   7.259  0.9760 -0.4826 -0.3325
  231MOL0     O31053   1.450   0.055   7.177  0.6770  0.1508  0.0404
  231MOL0     C31054   1.430   0.136   7.068  0.0498 -0.0307  0.1735
  231MOL0     C31055   1.509   0.117   6.952 -0.0889 -0.1313  0.1590
  231MOL0     C31056   1.489   0.199   6.833 -0.3842  0.0568 -0.3904
  231MOL0     C31057   1.397   0.304   6.837 -0.5298 -0.0665  0.3532
  231MOL0     O31058   1.381   0.392   6.732  0.2063 -0.3177 -0.0780
  231MOL0     C31059   1.429   0.364   6.605 -0.3397  0.2615  0.4728
  231MOL0     C31060   1.388   0.488   6.520 -0.5483  0.8940 -1.0105
  231MOL0     C31061   1.456   0.609   6.585 -0.1973 -0.0802  0.9921
  231MOL0     C31062   1.396   0.730   6.516 -0.2374 -0.2839 -0.3210
  231MOL0     C31063   1.468   0.868   6.518 -0.8156 -0.4349 -0.0825
  231MOL0     C31064   1.499   0.917   6.663 -0.0816  0.9065  0.6677
  231MOL0     C31065   1.612   1.025   6.670  0.3964  0.4965 -0.0668
  231MOL0     C31066   1.758   0.969   6.640  0.0516 -0.4098 -0.0893
  231MOL0     N31067   1.871   1.051   6.695  0.0267 -0.2249  0.1079
  231MOL0     C31068   1.977   1.098   6.624 -0.2797  0.7756  0.1878
  231MOL0     C31069   2.052   1.175   6.709  0.1012 -1.2104 -0.3758
  231MOL0     C31070   2.174   1.255   6.666  0.0658 -0.2327  0.0582
  231MOL0     C31071   2.294   1.170   6.612 -0.9878 -0.1112 -0.1348
  231MOL0     C31072   2.372   1.123   6.732  0.7841  1.0193  0.4264
  231MOL0     C31073   2.486   1.023   6.681  0.0042  0.6631 -0.1167
  231MOL0     O31074   2.548   0.979   6.799 -0.0529  0.0701  0.5470
  231MOL0     C31075   2.643   0.877   6.798 -0.6379  0.1580  0.0958
  231MOL0     C31076   2.713   0.826   6.688 -0.2630 -0.2317  1.1596
  231MOL0     C31077   2.827   0.739   6.701 -0.7785  0.0163 -0.1846
  231MOL0     C31078   2.865   0.697   6.828 -0.2311 -0.6474  0.3183
  231MOL0     C31079   2.973   0.606   6.847 -0.2110 -0.1112  0.2990
  231MOL0     O31080   3.038   0.596   6.956  0.2551  0.7662  0.1466
  231MOL0     C31081   3.141   0.497   6.955 -0.0549 -0.2458 -0.3356
  231MOL0     C31082   3.271   0.546   6.959 -0.1054 -1.2711  0.7665
  231MOL0     C31083   3.383   0.466   6.955  0.8475 -0.0457  0.2560
  231MOL0     C31084   3.364   0.321   6.950  0.2438 -0.9778  1.2789
  231MOL0     O31085   3.475   0.236   6.948 -0.3615  0.4184 -0.1220
  231MOL0     C31086   3.457   0.102   6.884  0.4766 -0.3591 -0.6511
  231MOL0     C31087   3.580   0.015   6.880 -0.3763 -0.4383 -0.3522
  231MOL0     C31088   3.565  -0.097   6.990 -0.6602 -0.3420  0.8192
  231MOL0     C31089   3.711  -0.152   7.012 -0.6031 -0.7526 -0.0004
  231MOL0     C31090   3.736  -0.167   7.176  0.0955  0.3625  2.2187
  231MOL0     C31091   3.881  -0.204   7.210 -0.5773 -0.2805  0.3224
  231MOL0     C31092   3.887  -0.269   7.348  0.4874  0.8747 -0.2829
  231MOL0     C31093   4.037  -0.312   7.379  0.0380  0.1337  0.4008
  231MOL0    Cl31094   4.093  -0.431   7.257 -0.3939  0.3631 -0.2253
  231MOL0     C31095   3.236   0.272   6.961  0.1117 -0.0954  0.3739
  231MOL0     C31096   3.122   0.358   6.966 -0.2774  0.7037  0.2120
  231MOL0     O31097   2.986   0.528   6.756 -0.3335 -0.1177 -0.3252
  231MOL0     C31098   2.797   0.749   6.937  0.8481  0.7612 -0.5513
  231MOL0     C31099   2.682   0.841   6.921 -0.4967  0.0558 -0.4743
  231MOL0     N31100   1.995   1.166   6.840  0.3047 -0.7772 -0.4735
  231MOL0     N31101   1.889   1.086   6.824  0.2671  0.0398 -0.3998
  231MOL0     C31102   1.322   0.328   6.948  0.7729 -0.5036 -0.5541
  231MOL0     C31103   1.345   0.249   7.065 -0.3676 -0.3710  0.1819
  231MOL0     C31104   1.368  -0.053   7.390 -0.5179 -0.2768  0.0441
  231MOL0     C31105   1.498  -0.067   7.432 -0.6021  0.5059 -0.5336
  231MOL0     C31106   1.535  -0.129   7.554 -0.4372 -0.4500  0.4000
  231MOL0     C31107   1.434  -0.173   7.644 -0.9267  0.1366 -0.9848
  231MOL0     O31108   1.477  -0.234   7.766  0.2814  0.3665  0.0833
  231MOL0     C31109   1.375  -0.248   7.869 -0.6509 -0.0325  1.1741
  231MOL0     C31110   1.431  -0.268   8.009 -0.1353 -0.5400 -0.0268
  231MOL0     C31111   1.485  -0.405   8.019  0.3018 -0.4823 -0.5640
  231MOL0     C31112   1.541  -0.425   8.159 -0.5108  0.5841  0.3937
  231MOL0     C31113   1.597  -0.561   8.168  0.6838 -0.6153 -0.5658
  231MOL0     C31114   1.610  -0.683   8.174  0.0585 -0.0281 -1.1555
  231MOL0     C31115   1.299  -0.167   7.603 -0.6700  0.2251  0.9108
  231MOL0     C31116   1.265  -0.106   7.482  0.2522 -0.9479  0.1631
  231MOL0     C31117   1.119  -0.081   7.452  0.2347 -0.1307 -0.4871
  231MOL0     H31118   1.586   0.040   6.951  1.0598  0.7998  4.0445
  231MOL0     H31119   1.538   0.175   6.739 -0.4493  2.0859 -0.9835
  231MOL0     H31120   1.538   0.367   6.612 -0.2736 -2.4321  2.1524
  231MOL0     H31121   1.387   0.269   6.572 -2.2168  2.0826 -2.9216
  231MOL0     H31122   1.282   0.508   6.534 -0.4805 -0.7255  3.1063
  231MOL0     H31123   1.414   0.471   6.415  0.6323 -1.0232 -0.4529
  231MOL0     H31124   1.565   0.610   6.577 -0.1910 -0.4048  1.0220
  231MOL0     H31125   1.430   0.629   6.689  0.3160  1.6547  0.8242
  231MOL0     H31126   1.389   0.701   6.410  1.6727  0.6265 -0.7264
  231MOL0     H31127   1.296   0.750   6.556 -0.3931  1.0103 -1.2806
  231MOL0     H31128   1.567   0.860   6.473  1.0562  1.5936  3.3083
  231MOL0     H31129   1.404   0.942   6.469 -0.5858 -1.2092 -1.6291
  231MOL0     H31130   1.409   0.957   6.711  0.3998  0.7877  1.7057
  231MOL0     H31131   1.522   0.827   6.720 -1.1828  0.3282  0.2248
  231MOL0     H31132   1.608   1.063   6.772  0.2598 -1.1646  0.5788
  231MOL0     H31133   1.590   1.100   6.593  1.4824 -0.6195 -1.5409
  231MOL0     H31134   1.760   0.873   6.693  0.1034 -0.8190 -0.8142
  231MOL0     H31135   1.770   0.942   6.535 -3.3045 -0.8122 -0.5004
  231MOL0     H31136   1.972   1.078   6.517 -1.3052  3.8574 -0.4658
  231MOL0     H31137   2.146   1.322   6.584  1.7296  1.0679  0.4971
  231MOL0     H31138   2.213   1.317   6.748  4.8950 -2.5602 -0.1059
  231MOL0     H31139   2.254   1.092   6.547 -0.0555  0.1224 -1.0134
  231MOL0     H31140   2.359   1.225   6.544 -1.9707  0.6407 -0.4957
  231MOL0     H31141   2.305   1.069   6.799 -2.5493  2.9589 -1.0835
  231MOL0     H31142   2.430   1.202   6.781  0.5938  0.6128  1.3273
  231MOL0     H31143   2.555   1.084   6.621  1.7515 -0.4263  0.7044
  231MOL0     H31144   2.436   0.949   6.618 -3.1032  3.7370 -1.6284
  231MOL0     H31145   2.693   0.859   6.587 -0.0374 -1.4776  0.6905
  231MOL0     H31146   2.885   0.698   6.619 -0.8397 -0.1085 -0.1670
  231MOL0     H31147   3.298   0.651   6.972  3.9695 -2.2069  1.3874
  231MOL0     H31148   3.485   0.502   6.955  0.0462  2.4376  0.2509
  231MOL0     H31149   3.374   0.038   6.917 -1.0239  1.3941 -0.8991
  231MOL0     H31150   3.447   0.129   6.779  1.2045 -1.4776 -1.0258
  231MOL0     H31151   3.586  -0.027   6.779  0.5931  0.3432 -0.6344
  231MOL0     H31152   3.668   0.081   6.883 -0.1036 -0.8320  0.7551
  231MOL0     H31153   3.528  -0.051   7.082 -2.5520 -0.7099  0.2930
  231MOL0     H31154   3.501  -0.177   6.952 -0.1120 -0.9489  1.1501
  231MOL0     H31155   3.790  -0.080   6.988 -0.2902 -0.9680  0.3775
  231MOL0     H31156   3.715  -0.243   6.952 -1.5816  0.5209 -2.1333
  231MOL0     H31157   3.674  -0.244   7.224  0.9003  0.2948  3.2004
  231MOL0     H31158   3.694  -0.076   7.220 -2.2845  1.5008 -1.9403
  231MOL0     H31159   3.902  -0.289   7.144 -2.5909 -0.1180 -0.6031
  231MOL0     H31160   3.960  -0.128   7.212 -2.1049  1.3684  3.0057
  231MOL0     H31161   3.828  -0.360   7.335  1.3071 -0.4170  3.7054
  231MOL0     H31162   3.827  -0.216   7.422 -0.0350  1.9660 -1.4349
  231MOL0     H31163   4.103  -0.225   7.380  0.6989 -0.3458 -0.3874
  231MOL0     H31164   4.037  -0.346   7.483 -2.3638 -3.3604 -0.5390
  231MOL0     H31165   3.217   0.165   6.963  1.6728 -0.3882  1.0669
  231MOL0     H31166   3.025   0.311   6.967 -0.4144  0.8857 -1.7886
  231MOL0     H31167   2.833   0.726   7.037  2.5237 -2.8495 -1.8261
  231MOL0     H31168   2.636   0.898   7.001 -2.0532  0.2381 -1.4600
  231MOL0     H31169   1.241   0.399   6.937  1.7984  0.4232 -2.7372
  231MOL0     H31170   1.281   0.277   7.148  0.2599 -0.7037  0.7941
  231MOL0     H31171   1.583  -0.022   7.380 -0.0120 -0.2907 -0.2730
  231MOL0     H31172   1.635  -0.149   7.591 -0.2957  2.4220  1.8336
  231MOL0     H31173   1.306  -0.330   7.845  1.1250 -1.4613  0.7094
  231MOL0     H31174   1.319  -0.154   7.864 -0.1132  0.3640  2.3114
  231MOL0     H31175   1.354  -0.258   8.086  0.2578 -1.5035  0.5138
  231MOL0     H31176   1.511  -0.200   8.037 -0.6139 -0.4129  1.0927
  231MOL0     H31177   1.559  -0.404   7.938 -0.1277  0.2215 -0.9495
  231MOL0     H31178   1.411  -0.484   8.003  0.4735 -0.6599 -0.4968
  231MOL0     H31179   1.618  -0.349   8.177  0.8460  0.4044 -3.5803
  231MOL0     H31180   1.459  -0.414   8.230 -0.5569  2.5537  0.0776
  231MOL0     H31181   1.632  -0.786   8.193  0.5088  0.2516 -0.0699
  231MOL0     H31182   1.223  -0.228   7.651  0.3459 -0.3471  1.8509
  231MOL0     H31183   1.063  -0.143   7.523  0.3037 -1.0172 -1.1900
  231MOL0     H31184   1.107   0.027   7.463  2.4863  0.2507 -1.2250
  231MOL0     H31185   1.093  -0.127   7.356  0.6868 -1.1777 -0.1239
  232MOL0     O31186   4.367   3.557  10.960  0.2632 -0.5532 -0.8528
  232MOL0     C31187   4.412   3.478  11.045  0.0287 -0.1670  0.6490
  232MOL0     O31188   4.345   3.384  11.106 -0.0032  0.3723  0.3025
  232MOL0     C31189   4.211   3.346  11.092  0.1391 -1.0386 -0.0701
  232MOL0     C31190   4.101   3.398  11.019  0.1785 -0.4303 -0.2892
  232MOL0     C31191   3.972   3.337  11.024 -0.4089 -0.3715  0.9947
  232MOL0     C31192   3.947   3.239  11.110 -0.6733  1.0872 -0.2525
  232MOL0     O31193   3.813   3.196  11.109  0.2316 -0.7003  0.1353
  232MOL0     C31194   3.771   3.072  11.164 -0.2731 -0.4418 -0.2175
  232MOL0     C31195   3.635   3.031  11.114 -0.1095 -0.2302  0.3206
  232MOL0     C31196   3.603   3.009  10.969  0.6600  0.0146  0.9010
  232MOL0     C31197   3.454   2.977  10.940  0.3481  0.6112  0.0359
  232MOL0     C31198   3.425   2.950  10.794  0.3515  0.8446  0.0586
  232MOL0     C31199   3.276   2.958  10.769  0.0598 -0.8326 -0.2811
  232MOL0     C31200   3.243   2.905  10.631  0.9437 -0.3598 -0.6086
  232MOL0     C31201   3.252   2.758  10.613  0.3978  0.3792  0.4733
  232MOL0     N31202   3.165   2.705  10.512  0.3902 -1.0487  1.2236
  232MOL0     C31203   3.071   2.601  10.515 -0.8977  1.0229 -0.4874
  232MOL0     C31204   3.031   2.568  10.386 -0.1321  0.1179  0.0778
  232MOL0     C31205   2.968   2.437  10.336  0.1966 -0.0896  0.6284
  232MOL0     C31206   3.061   2.355  10.259 -0.5288  0.2710  0.3937
  232MOL0     C31207   3.032   2.209  10.225  1.0702  0.0330 -0.6410
  232MOL0     C31208   3.148   2.115  10.240  0.3965 -0.5863  0.0873
  232MOL0     O31209   3.155   2.067  10.376 -0.1988 -0.1811  0.6976
  232MOL0     C31210   3.267   2.003  10.412 -0.4195  1.0088  0.1387
  232MOL0     C31211   3.339   1.915  10.324 -0.2576 -0.2197 -0.5231
  232MOL0     C31212   3.446   1.845  10.378 -1.4985  0.2902  0.3507
  232MOL0     C31213   3.488   1.857  10.507 -0.0327 -0.9010 -0.0169
  232MOL0     C31214   3.598   1.786  10.566  0.4079  0.5421  0.0610
  232MOL0     O31215   3.623   1.784  10.704 -0.3563  0.3148  0.2024
  232MOL0     C31216   3.700   1.675  10.738 -0.6204 -0.4640  0.2046
  232MOL0     C31217   3.837   1.687  10.764  0.6207 -0.3558  0.9476
  232MOL0     C31218   3.924   1.575  10.790 -0.5760  0.1600 -0.1103
  232MOL0     C31219   3.863   1.443  10.797 -0.0695  0.4258  0.1795
  232MOL0     O31220   3.961   1.343  10.828 -0.0469  0.5466  0.1241
  232MOL0     C31221   3.915   1.274  10.947  0.6172  0.0211 -0.0344
  232MOL0     C31222   4.054   1.240  11.023  0.2644  0.0911 -0.8287
  232MOL0     C31223   4.136   1.134  10.946 -0.1941 -0.0269 -0.0409
  232MOL0     C31224   4.228   1.053  11.040 -0.3153 -1.0160  0.3539
  232MOL0     C31225   4.161   0.917  11.073 -0.3231  0.6731 -0.2091
  232MOL0     C31226   4.250   0.846  11.169  0.2036  0.6467 -1.1242
  232MOL0     C31227   4.173   0.800  11.293 -0.3763 -0.1220 -0.4044
  232MOL0     C31228   4.272   0.786  11.423 -0.0133  0.2243 -0.0203
  232MOL0    Cl31229   4.328   0.946  11.450  0.0895 -0.0733 -0.1081
  232MOL0     C31230   3.725   1.430  10.766 -0.4569  0.8395 -0.1743
  232MOL0     C31231   3.647   1.544  10.749  1.1029 -0.4225  0.0957
  232MOL0     O31232   3.674   1.731  10.480 -0.3526 -0.0435  0.0614
  232MOL0     C31233   3.411   1.932  10.592 -0.2490 -0.4790  0.7843
  232MOL0     C31234   3.304   2.008  10.543 -0.6776 -0.0265 -0.4954
  232MOL0     N31235   3.106   2.649  10.313  0.3496 -0.3094  0.5009
  232MOL0     N31236   3.198   2.714  10.379  0.0589 -0.4535 -0.5955
  232MOL0     C31237   4.050   3.190  11.191 -0.4892  0.2990 -0.5652
  232MOL0     C31238   4.185   3.237  11.176  0.4102  0.0703 -0.4300
  232MOL0     C31239   4.559   3.477  11.070  0.0544 -0.0275 -0.4545
  232MOL0     C31240   4.644   3.537  10.971 -0.6616 -0.7826  0.2229
  232MOL0     C31241   4.787   3.545  10.991  0.3338 -1.0555 -1.1943
  232MOL0     C31242   4.854   3.485  11.100 -1.3466  0.0124 -0.9711
  232MOL0     O31243   4.995   3.472  11.088  0.2939  0.2308 -0.2267
  232MOL0     C31244   5.058   3.388  11.187  1.0486  0.7045  0.6132
  232MOL0     C31245   5.178   3.313  11.130 -0.4972 -0.3359  0.2287
  232MOL0     C31246   5.138   3.189  11.062 -0.2412 -0.7649 -0.2043
  232MOL0     C31247   5.077   3.190  10.923  0.2629 -0.7593  0.3361
  232MOL0     C31248   5.050   3.051  10.878 -0.4133 -0.7278  0.0453
  232MOL0     C31249   5.024   2.937  10.854 -0.0075 -0.0096 -0.5187
  232MOL0     C31250   4.753   3.438  11.204 -0.4487  0.4395  0.1680
  232MOL0     C31251   4.622   3.434  11.193  0.9485 -0.2464  0.4906
  232MOL0     C31252   4.547   3.367  11.312  0.5998 -0.9446 -0.5995
  232MOL0     H31253   4.114   3.470  10.938  0.4114 -0.3859 -0.2130
  232MOL0     H31254   3.897   3.361  10.950 -1.9724  0.7397  2.8420
  232MOL0     H31255   3.842   2.997  11.129 -2.1370 -1.1132 -2.8910
  232MOL0     H31256   3.783   3.073  11.273 -0.1246  2.2855 -0.1995
  232MOL0     H31257   3.565   3.108  11.150 -1.9989 -2.5753  1.9326
  232MOL0     H31258   3.607   2.944  11.174 -2.2211  0.9842  1.2224
  232MOL0     H31259   3.664   2.923  10.940  3.2527  2.1461 -0.4574
  232MOL0     H31260   3.636   3.096  10.910 -3.8667  0.5315 -1.3510
  232MOL0     H31261   3.437   2.890  11.004  4.4582 -1.1188 -0.9059
  232MOL0     H31262   3.389   3.061  10.968 -0.9849  1.1939 -4.0827
  232MOL0     H31263   3.476   3.017  10.724  0.0592 -1.8126 -2.9231
  232MOL0     H31264   3.465   2.849  10.786  2.7544  1.6601  0.7353
  232MOL0     H31265   3.223   2.901  10.846 -0.6001  1.5012  1.0984
  232MOL0     H31266   3.251   3.064  10.781  1.6029  0.1515 -4.2265
  232MOL0     H31267   3.307   2.962  10.563  3.0133 -1.1763  0.5348
  232MOL0     H31268   3.141   2.937  10.612  0.5823 -0.0033  1.6420
  232MOL0     H31269   3.359   2.741  10.602  0.6106  1.4551  0.7697
  232MOL0     H31270   3.215   2.707  10.703 -1.1047  0.1601 -0.2301
  232MOL0     H31271   3.051   2.547  10.607  0.8857  1.3448  0.1352
  232MOL0     H31272   2.934   2.374  10.419 -2.5284 -0.1857 -0.4586
  232MOL0     H31273   2.877   2.471  10.286  1.2540  1.0582 -0.5759
  232MOL0     H31274   3.083   2.412  10.168  1.2077  0.6981  1.0338
  232MOL0     H31275   3.155   2.360  10.315 -1.4951  0.1326  2.0787
  232MOL0     H31276   2.991   2.217  10.124  0.8105  3.8798 -0.4062
  232MOL0     H31277   2.951   2.171  10.287  0.0443  0.2570 -1.8101
  232MOL0     H31278   3.245   2.157  10.209  0.6915 -1.3718 -0.0908
  232MOL0     H31279   3.129   2.030  10.173  0.2588  0.0750 -0.7296
  232MOL0     H31280   3.330   1.883  10.221  2.6936  0.3031 -1.0288
  232MOL0     H31281   3.512   1.796  10.307 -1.4408  0.9441 -0.0526
  232MOL0     H31282   3.868   1.787  10.737  3.2026 -1.8360 -2.2146
  232MOL0     H31283   4.030   1.582  10.813 -0.7821 -0.4577  1.1397
  232MOL0     H31284   3.846   1.337  11.004  0.4670  1.5361 -1.7854
  232MOL0     H31285   3.864   1.182  10.915  0.3714 -0.3999  1.4845
  232MOL0     H31286   4.112   1.332  11.026  2.8907 -1.4902  0.1506
  232MOL0     H31287   4.037   1.204  11.125  1.3699 -0.5971 -0.8680
  232MOL0     H31288   4.074   1.070  10.882 -1.4321  1.8575 -0.8286
  232MOL0     H31289   4.195   1.192  10.874  1.7811 -2.8482 -0.8345
  232MOL0     H31290   4.252   1.121  11.122  1.0233  0.8847 -1.4787
  232MOL0     H31291   4.323   1.032  10.991 -1.6923 -1.9213 -2.1270
  232MOL0     H31292   4.150   0.856  10.983 -1.0503 -0.5692  0.6894
  232MOL0     H31293   4.059   0.925  11.111 -0.7899 -1.7167 -0.7388
  232MOL0     H31294   4.296   0.760  11.119 -0.7745 -0.1579 -0.6736
  232MOL0     H31295   4.328   0.914  11.203  2.0792 -0.8970 -2.0990
  232MOL0     H31296   4.106   0.714  11.282 -1.4709  0.7978 -0.9813
  232MOL0     H31297   4.114   0.885  11.327  1.6515  0.3519  2.3398
  232MOL0     H31298   4.223   0.747  11.513  2.5063  0.1131  1.3879
  232MOL0     H31299   4.347   0.715  11.388  0.1335  0.2776  0.1877
  232MOL0     H31300   3.678   1.332  10.756 -2.2437  1.7277 -0.9152
  232MOL0     H31301   3.546   1.519  10.719  0.7994 -0.9615  1.4921
  232MOL0     H31302   3.435   1.941  10.698  1.3132  1.6941  0.3217
  232MOL0     H31303   3.254   2.072  10.615  1.5461 -0.5375  1.6335
  232MOL0     H31304   4.026   3.102  11.250  3.4461 -1.2746 -0.9626
  232MOL0     H31305   4.269   3.202  11.235  0.6007 -1.7355 -1.6918
  232MOL0     H31306   4.599   3.592  10.890 -1.2888 -0.2236  0.9416
  232MOL0     H31307   4.839   3.597  10.911  1.3997  0.0517  0.1777
  232MOL0     H31308   4.984   3.315  11.223 -1.9035  2.9037 -0.5864
  232MOL0     H31309   5.086   3.443  11.278 -3.3505 -0.6453  3.1065
  232MOL0     H31310   5.251   3.289  11.208 -0.6268  0.0727  0.4817
  232MOL0     H31311   5.231   3.383  11.065  0.2187 -1.3010 -0.2574
  232MOL0     H31312   5.054   3.150  11.121 -1.9987  1.6391 -0.9708
  232MOL0     H31313   5.218   3.114  11.062  1.4961  0.9648 -1.8289
  232MOL0     H31314   4.982   3.243  10.914  1.3362  1.3138  0.5994
  232MOL0     H31315   5.150   3.243  10.862  0.8911  0.0563  1.7539
  232MOL0     H31316   4.992   2.836  10.838 -1.9824  0.7087 -1.3979
  232MOL0     H31317   4.790   3.388  11.293 -0.0592  0.5097  0.0505
  232MOL0     H31318   4.597   3.391  11.406  1.2077  1.8764 -1.5431
  232MOL0     H31319   4.444   3.402  11.318  0.9324 -0.2170  2.2792
  232MOL0     H31320   4.555   3.258  11.301 -2.8642 -1.4303  0.6212
  233MOL0     O31321   0.422   3.624   0.939 -0.0494 -0.2130 -0.2771
  233MOL0     C31322   0.541   3.627   0.909  0.6806  0.0544  0.0828
  233MOL0     O31323   0.624   3.726   0.946 -0.0800  0.2787  0.2798
  233MOL0     C31324   0.582   3.825   1.024  0.3545 -0.3528 -0.5526
  233MOL0     C31325   0.505   3.933   0.983  0.2056 -0.5500 -0.1849
  233MOL0     C31326   0.466   4.040   1.069 -0.5103 -0.1433 -0.3173
  233MOL0     C31327   0.492   4.022   1.207 -0.5640 -0.6431  0.3100
  233MOL0     O31328   0.431   4.113   1.298 -0.0484  0.0400  0.1941
  233MOL0     C31329   0.479   4.113   1.433  0.2190  0.4463  0.3962
  233MOL0     C31330   0.612   4.187   1.453 -0.2010  0.0591 -0.1677
  233MOL0     C31331   0.681   4.092   1.554 -0.0507 -0.5185 -0.3705
  233MOL0     C31332   0.798   4.159   1.622 -0.4867  0.4340 -0.6130
  233MOL0     C31333   0.865   4.074   1.737  0.6253 -1.4058 -0.2379
  233MOL0     C31334   0.924   3.937   1.698 -0.3574 -0.0106 -0.6784
  233MOL0     C31335   0.985   3.859   1.810  0.2171 -1.0306 -0.1917
  233MOL0     C31336   1.061   3.732   1.774  0.8299  0.6645 -0.5683
  233MOL0     N31337   1.141   3.675   1.883  0.1732 -1.4484 -0.0495
  233MOL0     C31338   1.089   3.606   1.993 -0.1084 -0.3610  0.6201
  233MOL0     C31339   1.194   3.592   2.080 -0.0014  0.2306 -0.8949
  233MOL0     C31340   1.187   3.507   2.213 -0.2013 -0.4155  0.4053
  233MOL0     C31341   1.248   3.365   2.178  0.1591  0.6412 -0.7447
  233MOL0     C31342   1.233   3.273   2.296  0.9896  0.5772 -0.2935
  233MOL0     C31343   1.321   3.311   2.415 -0.0184 -0.1391 -0.0887
  233MOL0     O31344   1.309   3.199   2.503 -0.6371  0.1475  0.1664
  233MOL0     C31345   1.380   3.206   2.617  0.0966 -0.0558 -1.2689
  233MOL0     C31346   1.329   3.112   2.717  0.5409  0.1261  0.3814
  233MOL0     C31347   1.371   3.106   2.850  0.6178  0.0621  0.0822
  233MOL0     C31348   1.479   3.189   2.888  0.5201  0.5345 -0.2159
  233MOL0     C31349   1.516   3.195   3.033  0.3938  0.2093 -0.0332
  233MOL0     O31350   1.587   3.293   3.083 -0.1125  0.0110  0.7988
  233MOL0     C31351   1.633   3.286   3.211 -1.2385 -0.0397 -0.2683
  233MOL0     C31352   1.743   3.378   3.223 -0.7745 -0.2878  0.3418
  233MOL0     C31353   1.803   3.395   3.347  0.7786  0.0644 -0.3637
  233MOL0     C31354   1.757   3.333   3.466  0.5167  0.1357 -0.7472
  233MOL0     O31355   1.824   3.338   3.585 -0.2532  0.2291  0.7828
  233MOL0     C31356   1.789   3.448   3.663  0.2328 -0.9536  0.3299
  233MOL0     C31357   1.834   3.419   3.809 -0.1591 -0.7086 -0.0085
  233MOL0     C31358   1.811   3.545   3.891  0.3056  0.3186 -0.2233
  233MOL0     C31359   1.932   3.630   3.926  0.2241  0.3930  0.6038
  233MOL0     C31360   1.898   3.736   4.029 -0.7275 -0.2443 -0.6305
  233MOL0     C31361   2.017   3.816   4.085 -0.9922 -0.0650 -0.0514
  233MOL0     C31362   2.126   3.726   4.137 -0.7277  0.6391 -0.4487
  233MOL0     C31363   2.229   3.808   4.210  0.0929  0.4003 -0.1104
  233MOL0    Cl31364   2.287   3.952   4.130 -0.0559  0.3651 -0.2909
  233MOL0     C31365   1.637   3.252   3.455 -1.5187 -0.6914 -0.2029
  233MOL0     C31366   1.575   3.234   3.328 -0.0806 -0.4848  0.7743
  233MOL0     O31367   1.457   3.109   3.097  0.4588  0.8983  0.1233
  233MOL0     C31368   1.541   3.278   2.785  1.0891  0.2857 -1.1582
  233MOL0     C31369   1.485   3.283   2.655 -0.6024  0.3811 -0.2199
  233MOL0     N31370   1.303   3.640   2.020  0.1590 -0.3409 -0.4393
  233MOL0     N31371   1.273   3.690   1.899 -0.3309 -0.1695 -0.2617
  233MOL0     C31372   0.572   3.910   1.244 -0.2705 -0.0953  1.0345
  233MOL0     C31373   0.613   3.813   1.156  0.2491  0.6743 -0.6140
  233MOL0     C31374   0.604   3.520   0.819  1.4106 -0.7418 -0.2431
  233MOL0     C31375   0.734   3.480   0.836 -0.6057  0.7740  0.1930
  233MOL0     C31376   0.807   3.389   0.763  0.3959  0.1413  0.7072
  233MOL0     C31377   0.732   3.334   0.652  1.0993 -0.4940 -0.3882
  233MOL0     O31378   0.797   3.247   0.573  0.2732  0.6746  0.4721
  233MOL0     C31379   0.714   3.156   0.489  0.7301  0.4621  0.4720
  233MOL0     C31380   0.793   3.041   0.426 -0.5169 -0.2700 -0.0554
  233MOL0     C31381   0.822   2.946   0.544 -0.0290  0.9560 -0.7735
  233MOL0     C31382   0.888   2.817   0.510  0.1070 -0.3482  0.1608
  233MOL0     C31383   0.919   2.744   0.630  0.2295  0.2301  0.6670
  233MOL0     C31384   0.953   2.678   0.728  0.2582 -0.0744  0.1759
  233MOL0     C31385   0.595   3.378   0.631 -0.1398 -0.0960  1.0799
  233MOL0     C31386   0.532   3.479   0.703 -0.1822  0.3163 -0.4568
  233MOL0     C31387   0.392   3.529   0.664 -0.6128  0.3244  0.4035
  233MOL0     H31388   0.491   3.944   0.876 -0.5127 -0.4494 -0.0851
  233MOL0     H31389   0.400   4.119   1.034 -1.5313  0.1380  2.0238
  233MOL0     H31390   0.405   4.174   1.485  0.1280  1.4536 -0.8446
  233MOL0     H31391   0.472   4.012   1.474  0.4252  0.3643  0.2284
  233MOL0     H31392   0.603   4.289   1.490 -1.6799  0.5281 -1.6859
  233MOL0     H31393   0.671   4.206   1.362 -0.6452 -0.1921 -0.5132
  233MOL0     H31394   0.707   4.000   1.501  3.0828  1.2875 -2.3385
  233MOL0     H31395   0.607   4.051   1.622 -1.4550 -2.6985 -2.9985
  233MOL0     H31396   0.879   4.174   1.550 -0.0959 -3.3942 -1.1622
  233MOL0     H31397   0.778   4.259   1.662 -3.0413 -0.9687  1.9829
  233MOL0     H31398   0.932   4.144   1.786  1.1094  0.8021 -3.7005
  233MOL0     H31399   0.787   4.043   1.808 -0.1023 -1.9111 -1.2275
  233MOL0     H31400   0.840   3.874   1.666 -1.1132 -0.3984  1.8376
  233MOL0     H31401   0.993   3.945   1.613 -0.1339 -0.6054 -0.5608
  233MOL0     H31402   0.899   3.837   1.874 -1.4979  2.5910 -1.0435
  233MOL0     H31403   1.058   3.915   1.868  1.3217 -3.2374  0.6675
  233MOL0     H31404   0.991   3.654   1.744  2.2801 -1.7513  1.8584
  233MOL0     H31405   1.137   3.759   1.700  2.1282 -1.9670 -0.3114
  233MOL0     H31406   0.990   3.561   1.998 -0.2302 -0.0219  1.4776
  233MOL0     H31407   1.246   3.555   2.292 -1.9646  0.5663  1.1769
  233MOL0     H31408   1.083   3.498   2.244 -0.5751  1.6872 -0.0822
  233MOL0     H31409   1.198   3.335   2.086 -3.2711  4.7349 -0.5003
  233MOL0     H31410   1.356   3.379   2.163  0.2762  3.0532  1.5692
  233MOL0     H31411   1.267   3.180   2.251  1.9479  1.5298 -1.6095
  233MOL0     H31412   1.126   3.258   2.313 -0.0604  3.5430 -3.1630
  233MOL0     H31413   1.283   3.401   2.465 -1.2408  1.2948 -3.3416
  233MOL0     H31414   1.423   3.330   2.381 -0.7952  1.1954 -1.8155
  233MOL0     H31415   1.240   3.053   2.699  1.1273 -1.0459  1.1691
  233MOL0     H31416   1.309   3.040   2.909  0.8685 -1.3205 -1.1691
  233MOL0     H31417   1.791   3.426   3.138  1.9503  0.6676  2.2647
  233MOL0     H31418   1.879   3.473   3.347  0.4637  0.3850  0.8717
  233MOL0     H31419   1.840   3.533   3.616  0.4405 -0.9538  0.5558
  233MOL0     H31420   1.680   3.453   3.656  0.3871  3.3529 -2.4521
  233MOL0     H31421   1.786   3.324   3.835  1.6911 -1.5010  0.7340
  233MOL0     H31422   1.934   3.380   3.832  0.3484  2.1226  3.5099
  233MOL0     H31423   1.740   3.600   3.829 -0.9537  0.7084  1.4604
  233MOL0     H31424   1.763   3.514   3.985  2.7533  0.8402  1.2967
  233MOL0     H31425   1.998   3.663   3.846 -2.3183  0.8654 -1.4582
  233MOL0     H31426   1.989   3.559   3.987  0.3214  1.1601  1.4154
  233MOL0     H31427   1.844   3.695   4.115 -4.5313  2.6777 -1.3619
  233MOL0     H31428   1.830   3.809   3.984  0.5655 -0.6051 -3.4129
  233MOL0     H31429   2.057   3.872   4.000 -0.2973  1.3810  1.1972
  233MOL0     H31430   1.983   3.881   4.166  3.0479 -1.4190  3.0514
  233MOL0     H31431   2.181   3.681   4.054 -0.1914 -1.3757  0.9306
  233MOL0     H31432   2.094   3.653   4.212  1.1121  0.5338  0.2887
  233MOL0     H31433   2.179   3.828   4.305  0.8142 -0.6104  0.4973
  233MOL0     H31434   2.316   3.746   4.235 -0.7111 -1.5137 -1.8152
  233MOL0     H31435   1.591   3.215   3.547 -0.6862 -0.2381  0.4083
  233MOL0     H31436   1.484   3.175   3.334 -0.5345  0.3479  3.8380
  233MOL0     H31437   1.626   3.335   2.819  0.4554  2.0899 -2.4450
  233MOL0     H31438   1.541   3.340   2.582 -0.5103  1.7871  0.8895
  233MOL0     H31439   0.607   3.894   1.345  1.0098  0.9704  0.7923
  233MOL0     H31440   0.684   3.733   1.170 -0.5355 -0.2372 -1.6692
  233MOL0     H31441   0.781   3.532   0.918  0.3841  0.6258 -0.2644
  233MOL0     H31442   0.913   3.368   0.776  1.4243  3.2001 -1.4882
  233MOL0     H31443   0.675   3.214   0.405  1.4635 -1.0464 -0.9678
  233MOL0     H31444   0.631   3.107   0.541  0.6523  0.5293  0.4103
  233MOL0     H31445   0.883   3.080   0.378  0.2582 -1.2304  0.5874
  233MOL0     H31446   0.728   2.987   0.356 -1.5831 -0.1021  0.7712
  233MOL0     H31447   0.727   2.920   0.592 -0.5893  0.0767 -2.2921
  233MOL0     H31448   0.877   3.005   0.619 -2.1231  1.9359  0.0745
  233MOL0     H31449   0.807   2.763   0.461 -1.2661 -0.6109  2.5795
  233MOL0     H31450   0.974   2.820   0.442  0.0949  0.2377  0.1612
  233MOL0     H31451   0.978   2.637   0.824  0.4640 -1.5133 -0.4616
  233MOL0     H31452   0.542   3.342   0.543  2.7429 -0.4800 -0.6421
  233MOL0     H31453   0.316   3.504   0.738 -2.0419 -1.4891 -1.5634
  233MOL0     H31454   0.398   3.637   0.650  2.9445 -0.1391 -4.3898
  233MOL0     H31455   0.357   3.497   0.566  2.3931 -0.0636 -0.6544
  234MOL0     O31456   9.097   3.385   2.000 -0.2613  0.0655  0.3880
  234MOL0     C31457   9.128   3.263   2.001  0.6852 -0.3899 -0.1038
  234MOL0     O31458   9.262   3.218   2.026  0.5382  0.2664  0.2021
  234MOL0     C31459   9.355   3.316   2.015  0.5548 -0.6278  0.8521
  234MOL0     C31460   9.441   3.337   2.118 -0.6720 -0.0336  0.1389
  234MOL0     C31461   9.549   3.416   2.108  0.8597  0.1557 -0.1129
  234MOL0     C31462   9.560   3.501   2.002 -0.3116  0.9908 -0.3484
  234MOL0     O31463   9.655   3.596   2.003  0.3697 -0.0766  0.1164
  234MOL0     C31464   9.738   3.617   1.882  0.0273 -0.2587  0.1783
  234MOL0     C31465   9.864   3.695   1.910 -0.2181  0.0284 -0.2871
  234MOL0     C31466   9.956   3.700   1.786 -0.1118 -0.0621 -0.3315
  234MOL0     C31467  10.098   3.743   1.814  0.0733  0.0416 -1.0481
  234MOL0     C31468  10.190   3.710   1.698 -0.1886  0.7395 -0.3306
  234MOL0     C31469  10.297   3.812   1.668 -0.6698  0.1805 -0.3697
  234MOL0     C31470  10.378   3.849   1.797 -0.6401  0.5281  0.1905
  234MOL0     C31471  10.480   3.959   1.774  0.3747  0.2333 -0.4464
  234MOL0     N31472  10.584   3.917   1.677  1.0523  0.0890 -0.2158
  234MOL0     C31473  10.682   3.828   1.710  1.1955  0.0465 -0.0963
  234MOL0     C31474  10.770   3.825   1.606 -0.0108  0.2135  0.5376
  234MOL0     C31475  10.904   3.758   1.589 -0.2950  0.2353 -1.3508
  234MOL0     C31476  11.005   3.833   1.673 -0.5533 -0.0576  0.4314
  234MOL0     C31477  11.135   3.758   1.661  0.4900  0.1655 -0.2450
  234MOL0     C31478  11.257   3.827   1.728 -0.1465  0.3958 -0.9351
  234MOL0     O31479  11.212   3.915   1.827  0.0514  0.0995 -0.7853
  234MOL0     C31480  11.231   3.891   1.956  0.6359 -0.5982 -0.1088
  234MOL0     C31481  11.234   3.764   2.006 -0.6325  0.1188  0.9046
  234MOL0     C31482  11.279   3.738   2.139  0.1605 -0.0260  0.2435
  234MOL0     C31483  11.313   3.840   2.225 -0.3154  0.9929 -0.1868
  234MOL0     C31484  11.374   3.820   2.359 -0.1791  0.5461 -0.2263
  234MOL0     O31485  11.395   3.932   2.429  0.0748  0.2703  0.9377
  234MOL0     C31486  11.431   3.938   2.563  0.2378  0.0001  0.5863
  234MOL0     C31487  11.508   3.838   2.639  0.6653 -0.5263  0.9249
  234MOL0     C31488  11.538   3.850   2.772 -0.3291  0.2422 -0.1903
  234MOL0     C31489  11.486   3.957   2.850 -0.2610  0.2833  0.5532
  234MOL0     O31490  11.512   3.980   2.983 -0.5066 -0.7411  0.3478
  234MOL0     C31491  11.535   3.876   3.080 -0.1797 -0.9358  0.7916
  234MOL0     C31492  11.406   3.820   3.128  0.0518 -0.1910 -0.4356
  234MOL0     C31493  11.309   3.940   3.161  0.4426 -0.5175 -0.2531
  234MOL0     C31494  11.162   3.904   3.195  0.1096  0.1024 -0.2870
  234MOL0     C31495  11.089   4.038   3.231  0.1676  0.6077  0.6362
  234MOL0     C31496  10.957   4.017   3.311  0.1909 -0.0470  0.4473
  234MOL0     C31497  10.869   4.141   3.317  1.0835  0.2510  0.3454
  234MOL0     C31498  10.800   4.185   3.193  0.2709  0.1642  0.3045
  234MOL0    Cl31499  10.715   4.041   3.125 -0.1702 -0.1149  0.2597
  234MOL0     C31500  11.413   4.057   2.781  0.4218  0.3002  0.6413
  234MOL0     C31501  11.390   4.050   2.643  0.3622 -0.0093 -0.0273
  234MOL0     O31502  11.386   3.701   2.399 -0.2494 -0.4253  0.1106
  234MOL0     C31503  11.320   3.968   2.169  1.0713 -0.5320 -0.2781
  234MOL0     C31504  11.294   3.993   2.033 -0.2064  0.0453 -0.6762
  234MOL0     N31505  10.716   3.893   1.500  0.5824 -0.1765  0.0603
  234MOL0     N31506  10.613   3.952   1.546  0.4192 -0.0625  0.2262
  234MOL0     C31507   9.480   3.480   1.886 -0.2466 -0.7011 -0.5913
  234MOL0     C31508   9.374   3.390   1.899  0.1558  0.4363 -0.2570
  234MOL0     C31509   9.024   3.161   1.986 -0.5430 -0.2418 -0.3735
  234MOL0     C31510   8.916   3.157   2.078 -0.8512  0.1088  0.2315
  234MOL0     C31511   8.825   3.054   2.079 -0.4357 -0.1664 -0.5455
  234MOL0     C31512   8.856   2.942   1.999 -0.8664 -0.5890  0.0977
  234MOL0     O31513   8.770   2.841   1.990  0.7791  1.0428  0.1726
  234MOL0     C31514   8.674   2.795   2.095  0.2788 -0.1295 -0.9462
  234MOL0     C31515   8.645   2.645   2.093  0.8321  0.2573  0.2924
  234MOL0     C31516   8.522   2.609   2.173 -0.7367  0.5549  0.1581
  234MOL0     C31517   8.536   2.637   2.330  0.9489 -0.2948  0.4322
  234MOL0     C31518   8.644   2.551   2.382  0.0437  0.3681 -0.6126
  234MOL0     C31519   8.715   2.462   2.423 -0.5404 -0.5990  0.5191
  234MOL0     C31520   8.962   2.940   1.909 -1.2297 -0.1944  0.6226
  234MOL0     C31521   9.045   3.053   1.897  0.0789  0.3444 -0.5867
  234MOL0     C31522   9.155   3.048   1.790 -0.0234 -0.3169 -0.4274
  234MOL0     H31523   9.424   3.284   2.211 -3.2785 -0.2297 -0.3683
  234MOL0     H31524   9.612   3.433   2.195  0.1410  2.0933  0.0673
  234MOL0     H31525   9.764   3.524   1.830  1.6342  0.0062  0.4696
  234MOL0     H31526   9.678   3.676   1.811  1.3301  3.3877  1.8493
  234MOL0     H31527   9.922   3.645   1.988 -1.1536 -1.3387 -0.4413
  234MOL0     H31528   9.841   3.793   1.954  1.1979 -0.1531  0.9288
  234MOL0     H31529   9.902   3.771   1.723  2.2985  2.1174 -0.0867
  234MOL0     H31530   9.969   3.603   1.738  0.4551 -0.8558  1.3336
  234MOL0     H31531  10.083   3.850   1.833 -2.4968 -0.7140  1.9224
  234MOL0     H31532  10.137   3.705   1.909 -1.4731  3.5452  1.2051
  234MOL0     H31533  10.252   3.620   1.713  4.1824  2.9391 -3.1934
  234MOL0     H31534  10.119   3.681   1.620 -2.4830 -2.8853  2.7184
  234MOL0     H31535  10.366   3.780   1.589  0.5054  0.1916  0.6192
  234MOL0     H31536  10.234   3.897   1.638 -0.9596  1.4046  3.2409
  234MOL0     H31537  10.438   3.767   1.837  2.0248  1.3170 -1.9370
  234MOL0     H31538  10.317   3.892   1.878  4.0275  2.5399  3.0616
  234MOL0     H31539  10.430   4.055   1.757 -1.4080 -0.6075 -0.1985
  234MOL0     H31540  10.525   3.969   1.873  0.3808  0.0399 -0.4288
  234MOL0     H31541  10.687   3.760   1.794 -1.7951 -0.2677 -0.0614
  234MOL0     H31542  10.907   3.653   1.622  4.7924  0.5331 -0.0528
  234MOL0     H31543  10.924   3.765   1.481  0.9342  1.0764 -1.0846
  234MOL0     H31544  11.014   3.935   1.636  0.8082 -0.2772  0.1031
  234MOL0     H31545  10.977   3.835   1.779 -0.8720  4.9677  0.4854
  234MOL0     H31546  11.147   3.723   1.558 -2.5352 -1.1602 -0.2498
  234MOL0     H31547  11.116   3.668   1.719  0.3493 -0.2366 -0.8976
  234MOL0     H31548  11.312   3.879   1.649  0.6389 -1.2408 -1.5099
  234MOL0     H31549  11.336   3.761   1.765 -0.0133  1.2650  0.3864
  234MOL0     H31550  11.203   3.681   1.943 -0.3905 -2.2385  3.6933
  234MOL0     H31551  11.285   3.635   2.171 -0.5981  0.2669  1.3681
  234MOL0     H31552  11.533   3.750   2.579 -0.8334  1.0819 -2.3099
  234MOL0     H31553  11.590   3.764   2.814 -0.1954 -1.0966 -2.8799
  234MOL0     H31554  11.608   3.802   3.048  2.0822  1.8711 -1.0096
  234MOL0     H31555  11.590   3.913   3.167  2.0248  0.6649 -1.1412
  234MOL0     H31556  11.363   3.746   3.059 -4.4431  0.3463  1.4288
  234MOL0     H31557  11.418   3.764   3.221 -1.9151  0.0732  0.0331
  234MOL0     H31558  11.358   3.990   3.245 -2.4232  0.2009  1.1037
  234MOL0     H31559  11.312   4.015   3.081  0.9133  0.0412  0.2779
  234MOL0     H31560  11.157   3.835   3.280 -2.3942 -1.8737 -1.8672
  234MOL0     H31561  11.114   3.853   3.111 -0.0575 -1.0741  0.5037
  234MOL0     H31562  11.087   4.084   3.132  1.4940 -0.8726 -0.1322
  234MOL0     H31563  11.156   4.088   3.302  1.0394 -1.3002  1.2419
  234MOL0     H31564  10.890   3.936   3.281 -1.5473  0.8790  1.6550
  234MOL0     H31565  10.982   4.002   3.416 -0.4054  1.0851  0.7746
  234MOL0     H31566  10.939   4.221   3.339  0.9336  0.3070  0.6159
  234MOL0     H31567  10.798   4.130   3.400 -1.0440  1.1140 -1.2573
  234MOL0     H31568  10.731   4.266   3.216  1.2703  1.4641 -1.0508
  234MOL0     H31569  10.874   4.223   3.122  2.5242 -1.9561  1.3709
  234MOL0     H31570  11.397   4.152   2.830  0.0855  0.9937 -0.7598
  234MOL0     H31571  11.347   4.144   2.611  2.0902  0.8715  0.1100
  234MOL0     H31572  11.358   4.045   2.236 -0.5194 -0.3013  0.4084
  234MOL0     H31573  11.319   4.085   1.982 -3.1917  1.8513  0.8392
  234MOL0     H31574   9.477   3.547   1.801 -1.2476 -0.5763 -0.4737
  234MOL0     H31575   9.317   3.368   1.810 -1.1802  0.2674  0.6058
  234MOL0     H31576   8.925   3.224   2.163  1.4145  1.9634 -1.3554
  234MOL0     H31577   8.751   3.058   2.159  2.1458  2.9209  2.0071
  234MOL0     H31578   8.581   2.852   2.097 -1.2313 -2.4554 -1.3800
  234MOL0     H31579   8.716   2.814   2.194  1.8034 -1.6036 -1.2588
  234MOL0     H31580   8.728   2.583   2.129  1.3615 -0.0619 -1.3804
  234MOL0     H31581   8.625   2.606   1.993  0.7704 -0.0470  0.4229
  234MOL0     H31582   8.495   2.503   2.165  1.9238 -0.2637  0.7638
  234MOL0     H31583   8.432   2.656   2.133 -0.5783 -2.1229 -3.8697
  234MOL0     H31584   8.565   2.741   2.349  1.1076  0.0075 -1.3176
  234MOL0     H31585   8.445   2.619   2.389  1.4475  2.5029  2.2775
  234MOL0     H31586   8.766   2.375   2.460  1.1994  0.8872  1.7700
  234MOL0     H31587   8.969   2.863   1.833  0.6354 -0.1670  0.7337
  234MOL0     H31588   9.137   2.965   1.721 -1.7018  0.2767 -0.7529
  234MOL0     H31589   9.147   3.143   1.736  0.8403  0.2784  0.4611
  234MOL0     H31590   9.253   3.045   1.839 -0.9203  1.1894  1.5951
  235MOL0     O31591   6.064   2.884   0.373 -0.1856 -0.2058 -0.7656
  235MOL0     C31592   5.948   2.922   0.381  0.3353  0.4785  0.2416
  235MOL0     O31593   5.840   2.852   0.430 -0.1082  0.9674 -0.1175
  235MOL0     C31594   5.868   2.729   0.491 -0.1313  0.5996 -1.1473
  235MOL0     C31595   5.841   2.608   0.426  1.1738 -0.1410 -1.5049
  235MOL0     C31596   5.864   2.485   0.493  0.2894  0.0083 -0.3771
  235MOL0     C31597   5.916   2.482   0.624 -0.9061  0.2760  0.0873
  235MOL0     O31598   5.951   2.366   0.674  0.8428 -0.0354 -0.6634
  235MOL0     C31599   6.089   2.356   0.725 -1.1408  0.7063 -0.0693
  235MOL0     C31600   6.087   2.295   0.861 -0.0465  0.1865  0.2229
  235MOL0     C31601   6.195   2.197   0.908 -0.0118  0.0727  0.3311
  235MOL0     C31602   6.290   2.271   0.995 -0.9891  0.5835 -0.7348
  235MOL0     C31603   6.388   2.368   0.917  0.4908  0.5599 -0.1422
  235MOL0     C31604   6.522   2.390   0.980 -0.7767 -0.1494 -0.4176
  235MOL0     C31605   6.599   2.509   0.932  0.0024 -0.5946  0.3738
  235MOL0     C31606   6.695   2.578   1.035  0.4667  0.0864 -0.4895
  235MOL0     N31607   6.639   2.620   1.172 -0.0195 -0.0190  0.1691
  235MOL0     C31608   6.507   2.628   1.202 -0.7167 -0.0631 -0.1924
  235MOL0     C31609   6.510   2.675   1.327 -0.7564 -0.2455  0.7263
  235MOL0     C31610   6.390   2.707   1.405  0.4503  0.1815 -0.8786
  235MOL0     C31611   6.389   2.623   1.541  0.0360 -0.8113  1.3156
  235MOL0     C31612   6.294   2.694   1.651  0.3093 -0.3576  0.2653
  235MOL0     C31613   6.384   2.801   1.720 -0.4143  0.0029 -0.2837
  235MOL0     O31614   6.310   2.888   1.818  0.5378 -0.2025 -0.2293
  235MOL0     C31615   6.395   2.976   1.878 -0.4827  0.1450  0.2370
  235MOL0     C31616   6.519   2.941   1.928  1.2346 -0.5033  0.1572
  235MOL0     C31617   6.611   3.039   1.976 -0.1766  0.5388  0.5670
  235MOL0     C31618   6.564   3.167   1.999 -0.5728 -0.6031 -0.1309
  235MOL0     C31619   6.649   3.263   2.066 -1.5008 -0.3866 -0.4346
  235MOL0     O31620   6.602   3.396   2.078 -0.0303 -0.2670 -0.2397
  235MOL0     C31621   6.683   3.492   2.134 -0.7189  0.8519  0.3395
  235MOL0     C31622   6.628   3.626   2.114  0.4631  0.8403  1.6020
  235MOL0     C31623   6.712   3.730   2.141 -0.5639  0.6457  0.4878
  235MOL0     C31624   6.842   3.715   2.201  0.4181 -0.7594  0.4834
  235MOL0     O31625   6.918   3.832   2.215 -1.0495 -0.7648 -0.1376
  235MOL0     C31626   7.033   3.820   2.298 -0.1208  0.4332 -0.4081
  235MOL0     C31627   7.096   3.953   2.291  0.0763 -0.2371  0.1986
  235MOL0     C31628   7.163   3.968   2.160 -0.2648 -0.1054 -0.3954
  235MOL0     C31629   7.214   4.108   2.125 -0.2274  0.0869  0.3853
  235MOL0     C31630   7.277   4.087   1.987  0.2110 -0.3327 -0.0438
  235MOL0     C31631   7.340   4.223   1.953  0.4833  0.3247 -0.0319
  235MOL0     C31632   7.399   4.225   1.811 -0.3096 -0.0698  0.3758
  235MOL0     C31633   7.484   4.337   1.764 -1.1298  0.6132  0.4641
  235MOL0    Cl31634   7.625   4.376   1.883  0.3267 -0.2348  0.7533
  235MOL0     C31635   6.885   3.579   2.226  0.4429 -0.5720  0.1071
  235MOL0     C31636   6.806   3.480   2.205 -0.0196  0.4042  0.1474
  235MOL0     O31637   6.750   3.220   2.130 -0.4216 -0.1851 -0.6547
  235MOL0     C31638   6.434   3.196   1.963 -0.0477 -0.3732 -1.1437
  235MOL0     C31639   6.353   3.103   1.905  0.3714 -0.7315  0.5767
  235MOL0     N31640   6.642   2.708   1.366 -0.2846 -0.1269  0.4852
  235MOL0     N31641   6.714   2.671   1.273  0.3145  0.0575 -0.1879
  235MOL0     C31642   5.947   2.602   0.683 -0.7369 -0.0192  0.0658
  235MOL0     C31643   5.927   2.722   0.621  0.5660 -0.2069 -0.4901
  235MOL0     C31644   5.915   3.057   0.324  0.3232 -0.2668 -0.4497
  235MOL0     C31645   5.969   3.173   0.380  0.8705 -0.1560 -0.0284
  235MOL0     C31646   5.946   3.299   0.324  0.2128 -1.5032  0.0834
  235MOL0     C31647   5.858   3.317   0.216  0.4697  0.0808 -0.3876
  235MOL0     O31648   5.834   3.439   0.158  0.8224  0.0009 -0.2186
  235MOL0     C31649   5.913   3.563   0.178 -0.3292 -0.3401 -0.0138
  235MOL0     C31650   5.855   3.634   0.300  0.0669  0.5970  0.1554
  235MOL0     C31651   5.713   3.703   0.273 -0.7143  1.3505 -0.3615
  235MOL0     C31652   5.629   3.754   0.395 -0.2134  0.6328 -0.2059
  235MOL0     C31653   5.697   3.864   0.462 -1.4532  0.5811 -0.5802
  235MOL0     C31654   5.759   3.949   0.514 -0.2051  0.2935 -0.8255
  235MOL0     C31655   5.791   3.207   0.173  0.1480 -0.3974  0.5323
  235MOL0     C31656   5.833   3.077   0.215  0.2716 -0.5668  0.0467
  235MOL0     C31657   5.789   2.964   0.133  0.3900 -0.5752 -0.4078
  235MOL0     H31658   5.801   2.615   0.325  0.8348 -0.3031 -1.3833
  235MOL0     H31659   5.868   2.399   0.427  3.2629  0.5364 -1.0336
  235MOL0     H31660   6.146   2.292   0.656 -1.0802 -0.5757  1.1249
  235MOL0     H31661   6.133   2.455   0.734 -3.2168  1.6273  0.4681
  235MOL0     H31662   5.993   2.242   0.881 -0.9016  0.8259 -1.8221
  235MOL0     H31663   6.086   2.384   0.924  3.1643  0.1145  0.5366
  235MOL0     H31664   6.243   2.152   0.820  1.2824  1.4735  0.2677
  235MOL0     H31665   6.146   2.119   0.967  1.9775 -0.1282  1.8492
  235MOL0     H31666   6.235   2.318   1.077 -2.8037 -2.9073  0.2305
  235MOL0     H31667   6.354   2.202   1.052  0.7916  1.4920 -1.5332
  235MOL0     H31668   6.404   2.328   0.816 -0.3924 -2.2197  0.7421
  235MOL0     H31669   6.336   2.464   0.914  0.5868  0.7925  2.9614
  235MOL0     H31670   6.517   2.398   1.089  4.7623  2.1825 -0.0058
  235MOL0     H31671   6.588   2.306   0.959  1.6129  1.7027 -0.7123
  235MOL0     H31672   6.533   2.585   0.890 -1.6956 -2.5616 -0.7518
  235MOL0     H31673   6.666   2.479   0.850 -2.1867 -3.3535 -0.5817
  235MOL0     H31674   6.769   2.504   1.066  1.0893  0.9445  0.1315
  235MOL0     H31675   6.754   2.653   0.983 -0.3599  1.2779  0.2315
  235MOL0     H31676   6.429   2.591   1.137 -0.9520 -2.5239  1.3738
  235MOL0     H31677   6.402   2.807   1.449  2.0184 -1.6048  3.3160
  235MOL0     H31678   6.287   2.695   1.370 -0.6894  0.8494  1.9503
  235MOL0     H31679   6.336   2.532   1.513 -1.2637  0.5639 -1.0040
  235MOL0     H31680   6.496   2.611   1.560 -0.4247 -4.3084  2.3754
  235MOL0     H31681   6.260   2.619   1.724  1.1965 -0.0663  0.9967
  235MOL0     H31682   6.198   2.727   1.610 -0.7800 -0.7540  2.3065
  235MOL0     H31683   6.420   2.876   1.649 -0.0253  0.9258  0.8522
  235MOL0     H31684   6.467   2.745   1.765  0.2756  0.1140 -1.4011
  235MOL0     H31685   6.562   2.841   1.936  1.3023 -0.6184 -1.3095
  235MOL0     H31686   6.715   3.014   1.997  1.1252  4.1868 -0.7617
  235MOL0     H31687   6.531   3.662   2.081  1.3086  0.8062 -1.1567
  235MOL0     H31688   6.670   3.828   2.123  1.6465  1.7413  0.9744
  235MOL0     H31689   7.014   3.786   2.400  0.7559  1.0138 -0.0388
  235MOL0     H31690   7.108   3.753   2.255  2.9307  0.9860  3.5051
  235MOL0     H31691   7.016   4.028   2.283  2.0845  1.8262 -3.8352
  235MOL0     H31692   7.164   3.978   2.372  0.2540  0.2826 -0.1067
  235MOL0     H31693   7.249   3.901   2.164  0.0799  0.2964 -0.8724
  235MOL0     H31694   7.093   3.938   2.081 -0.0675  2.9041 -1.8515
  235MOL0     H31695   7.288   4.132   2.203 -0.6631  0.2243  0.7593
  235MOL0     H31696   7.142   4.189   2.132  0.4848  1.1493 -2.9861
  235MOL0     H31697   7.198   4.072   1.913  3.2061 -3.4369 -2.9452
  235MOL0     H31698   7.358   4.015   1.977 -0.3915 -0.9130 -0.9191
  235MOL0     H31699   7.270   4.306   1.967  0.8054  0.7289 -0.7633
  235MOL0     H31700   7.414   4.233   2.034 -0.7064 -0.8045  1.2429
  235MOL0     H31701   7.319   4.203   1.740  0.3914 -1.1437 -0.1200
  235MOL0     H31702   7.467   4.139   1.818 -1.1873 -0.7208  1.1800
  235MOL0     H31703   7.512   4.324   1.659 -0.2986  0.5481  0.6916
  235MOL0     H31704   7.420   4.426   1.768 -2.7116 -0.4246 -0.4369
  235MOL0     H31705   6.990   3.566   2.249  0.5616  1.2220  0.7434
  235MOL0     H31706   6.841   3.383   2.236  2.4811  0.2025 -2.8215
  235MOL0     H31707   6.380   3.288   1.980  0.1281  0.2147 -3.4345
  235MOL0     H31708   6.264   3.141   1.856  1.1670  2.5027  1.4046
  235MOL0     H31709   5.984   2.595   0.785  2.3119 -0.9354 -0.9965
  235MOL0     H31710   5.964   2.814   0.664  3.3972  0.7832 -4.4368
  235MOL0     H31711   6.030   3.181   0.470  1.2009  0.6735 -0.3162
  235MOL0     H31712   5.998   3.381   0.371  2.7315 -2.7162 -0.3899
  235MOL0     H31713   5.911   3.635   0.095 -0.7657 -1.6227 -1.1602
  235MOL0     H31714   6.020   3.540   0.188 -0.0416  1.5956  2.0549
  235MOL0     H31715   5.917   3.716   0.338 -2.9841  3.0082  0.3307
  235MOL0     H31716   5.850   3.559   0.379  1.9348 -2.6371 -2.5265
  235MOL0     H31717   5.667   3.632   0.204 -1.7797  0.6937  0.9910
  235MOL0     H31718   5.741   3.788   0.210  1.9683  1.1851  0.4884
  235MOL0     H31719   5.534   3.791   0.355 -1.8903  0.8782  3.6610
  235MOL0     H31720   5.604   3.667   0.455  1.9846 -0.4535 -0.7558
  235MOL0     H31721   5.816   4.033   0.548 -0.3570 -0.3175  1.0577
  235MOL0     H31722   5.717   3.207   0.094  0.9786  2.0416 -0.3649
  235MOL0     H31723   5.861   2.882   0.132  1.2336  0.1535 -0.3385
  235MOL0     H31724   5.694   2.933   0.179 -0.6278  1.1795 -1.2228
  235MOL0     H31725   5.762   2.994   0.032  0.8482 -2.4050 -1.1028
  236MOL0     O31726   2.395   8.364   8.424 -0.1690  0.1181 -0.2663
  236MOL0     C31727   2.370   8.483   8.400 -1.2407  0.6445 -0.5111
  236MOL0     O31728   2.439   8.557   8.306 -0.6477  0.6475  0.1472
  236MOL0     C31729   2.561   8.508   8.240  0.1316 -0.7439  0.2886
  236MOL0     C31730   2.643   8.413   8.301 -1.3649 -1.0032 -0.5377
  236MOL0     C31731   2.777   8.392   8.244 -0.4411  0.2811 -0.5690
  236MOL0     C31732   2.825   8.460   8.135  0.5238  0.9019  1.2780
  236MOL0     O31733   2.949   8.413   8.094 -0.3310 -0.0718  0.4904
  236MOL0     C31734   3.011   8.489   7.986 -0.5294 -0.7312 -0.1515
  236MOL0     C31735   3.162   8.491   8.034  0.0590  0.1327 -0.0116
  236MOL0     C31736   3.220   8.351   7.999  0.0575 -0.3941 -0.3935
  236MOL0     C31737   3.278   8.336   7.858 -0.7404  0.1732  1.0839
  236MOL0     C31738   3.407   8.435   7.843 -0.2303  0.5937  0.1172
  236MOL0     C31739   3.524   8.399   7.750 -0.6702 -0.0968 -0.5616
  236MOL0     C31740   3.479   8.360   7.601  0.3586 -0.2528  0.4684
  236MOL0     C31741   3.589   8.340   7.497  1.0906 -0.1344 -0.3537
  236MOL0     N31742   3.677   8.465   7.480  0.0524  0.0237  0.7742
  236MOL0     C31743   3.798   8.466   7.420 -0.3132 -0.0133 -1.7436
  236MOL0     C31744   3.827   8.601   7.422  0.7696  0.2205  0.3198
  236MOL0     C31745   3.945   8.650   7.348 -1.0793 -0.2278  0.2292
  236MOL0     C31746   4.085   8.630   7.408 -0.0175  0.5830  0.0472
  236MOL0     C31747   4.116   8.718   7.526 -0.6432 -0.7189  0.5256
  236MOL0     C31748   4.025   8.692   7.643  0.9251  0.0018 -0.4089
  236MOL0     O31749   4.059   8.570   7.713  0.0145 -0.5068  0.4991
  236MOL0     C31750   4.037   8.593   7.843 -0.7836  0.0436 -0.5795
  236MOL0     C31751   4.145   8.611   7.935  0.3283  0.3083  0.4554
  236MOL0     C31752   4.119   8.641   8.065  0.3499 -0.0413  0.0810
  236MOL0     C31753   3.995   8.669   8.119 -0.1229  0.6381  0.4638
  236MOL0     C31754   3.964   8.711   8.259  0.1180 -0.9548 -0.4115
  236MOL0     O31755   3.845   8.688   8.301  0.0181 -0.2335 -1.0879
  236MOL0     C31756   3.818   8.695   8.434  0.1580 -0.2354 -0.1833
  236MOL0     C31757   3.835   8.809   8.520  0.0694  0.1025 -0.2360
  236MOL0     C31758   3.809   8.802   8.655  0.0390  0.0507  0.2385
  236MOL0     C31759   3.754   8.687   8.709 -1.1994 -0.2490 -0.2647
  236MOL0     O31760   3.724   8.684   8.839 -0.4788 -0.3059 -0.5496
  236MOL0     C31761   3.673   8.565   8.908  0.3701 -0.0981 -0.0799
  236MOL0     C31762   3.520   8.569   8.926 -0.6064 -1.0568  0.7296
  236MOL0     C31763   3.467   8.426   8.947  0.5737  0.3906  0.2093
  236MOL0     C31764   3.310   8.432   8.961 -0.5124  0.3216 -0.5075
  236MOL0     C31765   3.254   8.289   8.982 -0.3035  0.1249  0.8843
  236MOL0     C31766   3.109   8.274   8.985 -0.3412  0.9955  0.6571
  236MOL0     C31767   3.036   8.297   8.851  0.2777 -0.1228 -0.6684
  236MOL0     C31768   2.880   8.306   8.862  0.5031  1.3099 -0.1297
  236MOL0    Cl31769   2.813   8.158   8.948 -0.2060 -0.1492 -0.6350
  236MOL0     C31770   3.735   8.575   8.624 -0.5547  0.5016  0.2423
  236MOL0     C31771   3.760   8.583   8.485 -0.4435  0.1275  0.0136
  236MOL0     O31772   4.056   8.774   8.321  0.2729  0.0534  0.2109
  236MOL0     C31773   3.887   8.648   8.034  0.3211 -0.3998 -0.1420
  236MOL0     C31774   3.906   8.612   7.898 -0.5763 -0.1594 -1.0627
  236MOL0     N31775   3.726   8.682   7.470 -0.4481 -0.2019  0.3192
  236MOL0     N31776   3.632   8.598   7.502  0.6795  0.3748  0.6376
  236MOL0     C31777   2.737   8.556   8.075 -0.0378 -0.2993 -0.2455
  236MOL0     C31778   2.604   8.575   8.124 -0.1626  0.7287  0.6076
  236MOL0     C31779   2.270   8.544   8.498  0.0999 -0.0151  0.1136
  236MOL0     C31780   2.282   8.676   8.523  0.2043 -1.0708 -0.5855
  236MOL0     C31781   2.210   8.738   8.627  0.1245 -0.9754 -0.4476
  236MOL0     C31782   2.117   8.663   8.704  0.0046  0.0218  0.2294
  236MOL0     O31783   2.037   8.721   8.796  0.4953 -0.7172  0.4002
  236MOL0     C31784   1.947   8.653   8.886 -0.4316 -1.0516 -0.3009
  236MOL0     C31785   1.889   8.764   8.980 -0.4501 -0.5439  0.4776
  236MOL0     C31786   1.780   8.852   8.914  0.6291 -0.2339  1.0144
  236MOL0     C31787   1.785   8.994   8.975  0.0458 -0.7075  0.2720
  236MOL0     C31788   1.656   9.052   9.012  0.1053  1.2124 -0.7511
  236MOL0     C31789   1.547   9.084   9.060 -0.4229  0.0646  0.3862
  236MOL0     C31790   2.097   8.534   8.672 -0.6626 -0.2942 -0.9106
  236MOL0     C31791   2.171   8.467   8.570  0.0690 -0.4852 -0.7914
  236MOL0     C31792   2.137   8.321   8.549 -0.4477 -0.0712 -0.3135
  236MOL0     H31793   2.610   8.359   8.389  0.5926 -2.2297 -0.4967
  236MOL0     H31794   2.846   8.319   8.286  1.9552  2.1547 -1.0477
  236MOL0     H31795   3.004   8.428   7.895 -2.2291 -0.4255 -0.2464
  236MOL0     H31796   2.973   8.591   7.977  0.9991  0.2402  3.0591
  236MOL0     H31797   3.167   8.508   8.142  0.0142 -4.0945  0.8530
  236MOL0     H31798   3.211   8.574   7.983 -1.8809  3.5543  3.1706
  236MOL0     H31799   3.149   8.272   8.026 -1.6381  1.6810  1.6512
  236MOL0     H31800   3.304   8.338   8.068 -0.2609 -0.4005 -0.0018
  236MOL0     H31801   3.316   8.235   7.840  0.4763  1.2191 -3.7243
  236MOL0     H31802   3.213   8.349   7.771 -0.6894  2.8820  1.3399
  236MOL0     H31803   3.379   8.534   7.806  3.1260  1.4373 -0.5324
  236MOL0     H31804   3.451   8.442   7.943  0.1099 -0.2329  0.0356
  236MOL0     H31805   3.587   8.488   7.746 -1.0962  0.3259  1.2246
  236MOL0     H31806   3.579   8.313   7.789 -0.2832  0.1742 -0.5034
  236MOL0     H31807   3.418   8.445   7.568  0.3051 -0.1665  0.7857
  236MOL0     H31808   3.404   8.281   7.614 -0.5430  0.6072  0.6202
  236MOL0     H31809   3.644   8.249   7.523  1.9658  0.4785 -0.0203
  236MOL0     H31810   3.541   8.323   7.400  1.4146 -2.8527 -0.1117
  236MOL0     H31811   3.856   8.385   7.375  1.4310 -0.1377  0.5449
  236MOL0     H31812   3.946   8.595   7.253  3.3605 -2.3509  1.2290
  236MOL0     H31813   3.938   8.757   7.327 -1.0930 -0.9101 -4.1075
  236MOL0     H31814   4.099   8.529   7.447 -0.4289  2.1015  4.7242
  236MOL0     H31815   4.161   8.649   7.331  0.4872 -0.8642  0.1514
  236MOL0     H31816   4.096   8.823   7.499  2.1398  0.4768  2.6253
  236MOL0     H31817   4.221   8.704   7.553 -0.3714 -1.1325 -0.6584
  236MOL0     H31818   3.920   8.676   7.614  1.1181 -1.6313 -0.3390
  236MOL0     H31819   4.037   8.778   7.710 -0.7389  0.8235 -1.1118
  236MOL0     H31820   4.243   8.592   7.892  1.1615  2.1508  1.4352
  236MOL0     H31821   4.211   8.646   8.122  0.3098  0.8920  0.0771
  236MOL0     H31822   3.877   8.905   8.493 -0.9358  0.3894 -0.8644
  236MOL0     H31823   3.834   8.889   8.714  1.0867 -0.5456  0.7082
  236MOL0     H31824   3.710   8.470   8.870 -0.7862  0.0305 -1.6241
  236MOL0     H31825   3.716   8.588   9.006 -2.5433 -1.5840  1.6579
  236MOL0     H31826   3.497   8.634   9.011 -1.7302 -0.4659 -0.0074
  236MOL0     H31827   3.479   8.609   8.833  3.4387  1.3667 -0.2912
  236MOL0     H31828   3.510   8.375   8.859  1.4568  0.4371  0.5972
  236MOL0     H31829   3.514   8.380   9.034  0.1737  0.7993  0.6461
  236MOL0     H31830   3.261   8.481   8.876 -1.2833  0.4494 -0.0008
  236MOL0     H31831   3.280   8.498   9.043  1.6516 -0.1985  0.7760
  236MOL0     H31832   3.284   8.236   9.073  5.1766 -0.3137 -0.8487
  236MOL0     H31833   3.284   8.235   8.892 -2.9646 -0.5767  0.3353
  236MOL0     H31834   3.098   8.170   9.015  1.8866  0.9823  1.6771
  236MOL0     H31835   3.084   8.345   9.064 -0.9169  1.9640 -0.3637
  236MOL0     H31836   3.065   8.216   8.783  0.3700 -1.5814  1.0397
  236MOL0     H31837   3.064   8.395   8.813  0.6817  0.5301  1.2209
  236MOL0     H31838   2.855   8.395   8.921 -2.3834 -0.6325  1.8745
  236MOL0     H31839   2.838   8.318   8.762  0.4733  1.3706 -0.1103
  236MOL0     H31840   3.695   8.478   8.652 -0.7893 -0.2554 -2.4485
  236MOL0     H31841   3.735   8.501   8.418  0.7896  1.0529 -1.6633
  236MOL0     H31842   3.782   8.664   8.055  0.6459 -0.9050  2.1132
  236MOL0     H31843   3.819   8.613   7.834 -0.6327 -2.5596 -1.1025
  236MOL0     H31844   2.768   8.606   7.984 -2.5978 -1.4170 -1.8714
  236MOL0     H31845   2.544   8.650   8.072 -0.6705 -0.6639 -0.8933
  236MOL0     H31846   2.351   8.739   8.467  0.7658 -1.4819 -0.3642
  236MOL0     H31847   2.212   8.841   8.660  0.7325 -0.4952 -1.8774
  236MOL0     H31848   2.012   8.589   8.946  3.4344 -0.7282 -3.7313
  236MOL0     H31849   1.865   8.603   8.835 -1.1926 -0.3523  0.2116
  236MOL0     H31850   1.973   8.830   9.000 -1.5042  1.1471 -0.4033
  236MOL0     H31851   1.864   8.730   9.081 -1.3026  0.9605  0.8010
  236MOL0     H31852   1.688   8.802   8.945  0.8119 -1.3328 -0.1400
  236MOL0     H31853   1.799   8.849   8.807  0.2976 -4.9285  0.8829
  236MOL0     H31854   1.833   8.997   9.073  0.8142  3.3285 -0.0804
  236MOL0     H31855   1.837   9.061   8.906  0.8772 -1.6006  0.0122
  236MOL0     H31856   1.452   9.108   9.104 -0.3984  0.6166  0.1468
  236MOL0     H31857   2.029   8.472   8.730 -0.3062 -2.4233 -2.6453
  236MOL0     H31858   2.197   8.258   8.482 -0.2312 -0.4862  0.2647
  236MOL0     H31859   2.152   8.271   8.645 -0.0636 -3.1559 -1.8499
  236MOL0     H31860   2.031   8.311   8.523 -0.5827  1.4569 -0.4764
  237MOL0     O31861   3.027   3.034   4.683 -0.0816  0.9475  0.0334
  237MOL0     C31862   2.961   3.107   4.614  0.4255  0.9141 -0.0408
  237MOL0     O31863   2.821   3.093   4.606 -0.1627  0.3303 -0.4817
  237MOL0     C31864   2.761   2.993   4.682 -0.5246  0.2339  0.9742
  237MOL0     C31865   2.718   3.038   4.806 -0.7144 -0.5684  0.4847
  237MOL0     C31866   2.677   2.946   4.901  0.4044  0.4847  0.4830
  237MOL0     C31867   2.663   2.807   4.870  0.0985 -1.1918 -0.4532
  237MOL0     O31868   2.650   2.727   4.969 -0.8468  0.7704  0.2476
  237MOL0     C31869   2.638   2.584   4.970 -0.9034  0.0551 -0.1867
  237MOL0     C31870   2.766   2.508   4.924 -0.3090  0.0651 -1.2032
  237MOL0     C31871   2.872   2.491   5.035 -0.5026 -0.0279 -0.4694
  237MOL0     C31872   2.928   2.620   5.101  0.8261 -1.2126  0.1546
  237MOL0     C31873   3.007   2.703   4.992 -0.4496 -1.1887 -0.7540
  237MOL0     C31874   3.075   2.814   5.074 -0.1196 -0.3442 -0.4202
  237MOL0     C31875   3.154   2.910   4.986  0.2631  0.3906 -0.3534
  237MOL0     C31876   3.219   3.011   5.081  0.9195  0.4946  0.1727
  237MOL0     N31877   3.132   3.123   5.109 -0.2136  0.3490 -0.6817
  237MOL0     C31878   3.017   3.161   5.039  0.6356 -0.3589 -0.1555
  237MOL0     C31879   2.968   3.266   5.106 -1.0214 -0.6171  0.8528
  237MOL0     C31880   2.835   3.344   5.081 -0.1317  0.0559  0.9319
  237MOL0     C31881   2.716   3.263   5.137 -0.2079  0.2510  0.2564
  237MOL0     C31882   2.584   3.319   5.089 -0.8432  0.5966  0.3689
  237MOL0     C31883   2.457   3.253   5.159  0.6376 -0.5117 -0.4239
  237MOL0     O31884   2.449   3.277   5.299 -0.0654 -0.2526  0.0399
  237MOL0     C31885   2.507   3.183   5.386  0.9511 -0.4853 -1.2010
  237MOL0     C31886   2.536   3.048   5.365 -0.3974 -1.1530 -0.8193
  237MOL0     C31887   2.604   2.969   5.462 -0.2150 -0.1066  0.4998
  237MOL0     C31888   2.626   3.022   5.587  0.0734 -0.6322 -1.6983
  237MOL0     C31889   2.697   2.943   5.690 -0.5313 -0.2838 -0.8450
  237MOL0     O31890   2.741   3.011   5.799 -0.0569  0.6408 -0.0340
  237MOL0     C31891   2.816   2.954   5.896 -0.5804 -0.7502 -0.1238
  237MOL0     C31892   2.932   3.020   5.947  0.7692  0.5415 -0.6568
  237MOL0     C31893   3.020   2.979   6.043 -0.1783  0.0162 -0.0317
  237MOL0     C31894   2.985   2.857   6.101 -0.1188  0.6122 -1.0294
  237MOL0     O31895   3.067   2.792   6.193  0.2816 -0.0983 -0.2216
  237MOL0     C31896   3.182   2.858   6.251 -0.5854  0.8344  0.0470
  237MOL0     C31897   3.139   2.979   6.347 -1.0114  0.7228  0.5215
  237MOL0     C31898   3.063   2.930   6.470  0.0895 -0.3339  0.6875
  237MOL0     C31899   2.912   2.953   6.440  0.5781  0.4065 -0.5071
  237MOL0     C31900   2.823   2.835   6.487  0.0146  0.3720  0.4620
  237MOL0     C31901   2.672   2.858   6.471 -0.0349  0.4472  0.1808
  237MOL0     C31902   2.625   2.833   6.328 -0.3228  0.0045  0.2661
  237MOL0     C31903   2.480   2.823   6.311 -1.0862  0.9819 -0.3646
  237MOL0    Cl31904   2.440   2.852   6.131  0.7706  0.3276 -0.5592
  237MOL0     C31905   2.877   2.782   6.055  0.0619  0.1222 -0.0645
  237MOL0     C31906   2.791   2.835   5.956  0.9844 -0.3220 -0.0841
  237MOL0     O31907   2.723   2.825   5.670 -0.6600  0.1443  0.2092
  237MOL0     C31908   2.585   3.158   5.617 -0.2816  0.4442 -0.8198
  237MOL0     C31909   2.534   3.233   5.508 -0.2184  0.0658 -1.2177
  237MOL0     N31910   3.059   3.291   5.212 -0.3452  0.0096  0.0450
  237MOL0     N31911   3.152   3.204   5.215 -0.6454  0.3046 -0.0890
  237MOL0     C31912   2.681   2.768   4.737  0.1685 -0.1094 -0.4619
  237MOL0     C31913   2.732   2.863   4.640 -0.5691 -0.5973  0.3314
  237MOL0     C31914   3.018   3.218   4.532  0.2227  0.3214  0.6449
  237MOL0     C31915   2.945   3.256   4.420  0.0849 -0.5584  0.5023
  237MOL0     C31916   2.991   3.346   4.323  0.1835  0.2180 -0.7443
  237MOL0     C31917   3.121   3.393   4.335  0.5656 -0.5393  0.3125
  237MOL0     O31918   3.170   3.473   4.236 -0.3162  0.6909  0.1032
  237MOL0     C31919   3.144   3.613   4.247  0.5926  0.5345  0.7511
  237MOL0     C31920   3.260   3.698   4.197  0.4958  0.8042 -1.2124
  237MOL0     C31921   3.256   3.707   4.040  0.6742  0.2100 -0.7400
  237MOL0     C31922   3.392   3.768   3.997 -0.1246 -0.4558  0.0603
  237MOL0     C31923   3.374   3.827   3.867  0.8332 -0.7815 -0.0808
  237MOL0     C31924   3.347   3.866   3.753  1.7700  0.1431 -0.8642
  237MOL0     C31925   3.198   3.352   4.440 -0.1222  0.4102  0.8522
  237MOL0     C31926   3.146   3.261   4.539  0.4907 -0.7784  0.1504
  237MOL0     C31927   3.246   3.228   4.657 -0.4882 -0.3384 -0.1841
  237MOL0     H31928   2.738   3.140   4.836  1.4482 -0.4228 -1.2083
  237MOL0     H31929   2.663   2.977   5.004  1.7120  0.5180  0.6602
  237MOL0     H31930   2.608   2.551   5.070  3.2541  0.0638  1.2735
  237MOL0     H31931   2.564   2.564   4.892 -0.1900 -1.5336 -0.5002
  237MOL0     H31932   2.823   2.546   4.838  4.2913  0.3306  1.6302
  237MOL0     H31933   2.732   2.408   4.896  3.0969 -1.3369 -0.8119
  237MOL0     H31934   2.956   2.434   4.993 -0.4735  0.8112 -1.5984
  237MOL0     H31935   2.837   2.424   5.114  0.2010  0.0905 -0.0411
  237MOL0     H31936   2.854   2.683   5.150  1.6992  0.3352 -0.4164
  237MOL0     H31937   3.004   2.591   5.174  0.6744  1.2725  1.4378
  237MOL0     H31938   3.076   2.642   4.932 -2.1881 -2.0312 -2.0062
  237MOL0     H31939   2.941   2.736   4.911 -1.8321 -3.5219 -0.6707
  237MOL0     H31940   3.005   2.873   5.133  0.8710  2.5986 -1.9795
  237MOL0     H31941   3.145   2.763   5.141  4.1585 -0.5636 -4.5024
  237MOL0     H31942   3.090   2.947   4.906  0.2236 -0.0192 -0.5152
  237MOL0     H31943   3.240   2.865   4.936  1.0603  0.3168  1.0185
  237MOL0     H31944   3.247   2.962   5.174  0.4104  1.8760  1.0917
  237MOL0     H31945   3.301   3.057   5.025 -0.2172  0.1833 -1.8469
  237MOL0     H31946   2.979   3.129   4.942 -1.5820 -4.6911  1.8606
  237MOL0     H31947   2.853   3.439   5.133  1.4315  0.5808 -0.5039
  237MOL0     H31948   2.812   3.366   4.976 -2.2707 -2.4053  0.7566
  237MOL0     H31949   2.722   3.155   5.118 -0.1585 -0.0006  1.5728
  237MOL0     H31950   2.714   3.259   5.246 -1.7494  1.3409  0.3024
  237MOL0     H31951   2.577   3.315   4.980 -3.9060 -2.8631  0.4754
  237MOL0     H31952   2.581   3.425   5.116  0.5338  0.8504 -0.3784
  237MOL0     H31953   2.449   3.146   5.138 -1.4763 -0.6813  0.9972
  237MOL0     H31954   2.365   3.288   5.113  0.1812 -0.4921  0.4898
  237MOL0     H31955   2.532   3.003   5.266  1.4701 -1.8038 -0.6424
  237MOL0     H31956   2.646   2.872   5.439  1.9253  0.8765 -0.0809
  237MOL0     H31957   2.950   3.121   5.912  2.4372  0.5070  0.0317
  237MOL0     H31958   3.103   3.044   6.067 -0.5740 -0.2331  2.3018
  237MOL0     H31959   3.247   2.794   6.311  0.5859  1.5475 -0.4388
  237MOL0     H31960   3.236   2.887   6.160 -1.2058 -0.4352 -0.7568
  237MOL0     H31961   3.235   3.016   6.382  0.2721 -1.2823 -0.6933
  237MOL0     H31962   3.084   3.055   6.291 -1.4809 -0.9523 -1.4324
  237MOL0     H31963   3.088   2.828   6.501 -4.1481 -0.9715  2.7047
  237MOL0     H31964   3.090   3.002   6.547  1.5242  2.4716 -2.1895
  237MOL0     H31965   2.899   2.960   6.331 -0.9163  0.4667 -0.3400
  237MOL0     H31966   2.888   3.050   6.484  2.2815  1.1955 -1.2356
  237MOL0     H31967   2.848   2.827   6.593 -0.7930  1.7098  0.7796
  237MOL0     H31968   2.856   2.737   6.450  1.4801  1.8031 -2.3913
  237MOL0     H31969   2.611   2.789   6.529 -0.5165  1.2453  0.6342
  237MOL0     H31970   2.648   2.961   6.500 -2.5369 -0.5729  2.0617
  237MOL0     H31971   2.673   2.735   6.315  2.9143  1.0476  3.0318
  237MOL0     H31972   2.651   2.917   6.263 -1.1107  0.4350  0.5057
  237MOL0     H31973   2.459   2.721   6.346 -0.2824  0.3008 -1.7804
  237MOL0     H31974   2.420   2.892   6.372 -0.6902  1.6098 -0.6844
  237MOL0     H31975   2.862   2.684   6.100  0.9444  0.1710  0.3624
  237MOL0     H31976   2.706   2.778   5.920  2.0396 -1.3938 -0.9655
  237MOL0     H31977   2.607   3.207   5.712  1.8769  2.1772 -2.1104
  237MOL0     H31978   2.510   3.339   5.516  0.7017  0.2482 -0.7369
  237MOL0     H31979   2.666   2.667   4.700 -0.8068  0.1755 -0.8894
  237MOL0     H31980   2.761   2.830   4.541 -2.1712 -2.7209  0.4979
  237MOL0     H31981   2.848   3.209   4.411  0.1030 -1.0061  2.2928
  237MOL0     H31982   2.929   3.365   4.236 -1.8267  3.4111  1.1585
  237MOL0     H31983   3.121   3.641   4.350  1.6924  2.0954  0.6169
  237MOL0     H31984   3.046   3.633   4.203 -0.8835 -0.3526  3.3945
  237MOL0     H31985   3.353   3.655   4.235  0.4586  0.4895 -1.4719
  237MOL0     H31986   3.237   3.794   4.244 -0.6914  0.8433 -1.8261
  237MOL0     H31987   3.176   3.778   4.020  2.3339  2.7718  1.1136
  237MOL0     H31988   3.247   3.608   3.994 -0.8811 -0.5242  1.0331
  237MOL0     H31989   3.416   3.844   4.071 -0.3351 -0.4489  0.1201
  237MOL0     H31990   3.468   3.689   4.006 -0.2945 -0.6609 -0.2871
  237MOL0     H31991   3.316   3.906   3.658  1.5015  1.2928 -0.3016
  237MOL0     H31992   3.294   3.400   4.451 -0.9035  2.0205  0.9302
  237MOL0     H31993   3.193   3.227   4.753  1.2115 -0.4067  0.7986
  237MOL0     H31994   3.288   3.128   4.648  0.2139 -0.2087  1.2922
  237MOL0     H31995   3.331   3.297   4.664 -0.6976 -0.0757 -0.2056
  238MOL0     O31996   8.684   1.603   6.821 -0.4702  0.1977  0.8745
  238MOL0     C31997   8.703   1.665   6.929  0.3414 -0.2098 -0.0810
  238MOL0     O31998   8.617   1.663   7.034 -0.3033  0.4020  0.1341
  238MOL0     C31999   8.501   1.581   7.033  0.1140  0.0512  0.5668
  238MOL0     C32000   8.386   1.645   7.052 -0.4564  0.7651  0.1898
  238MOL0     C32001   8.271   1.565   7.063  0.0277  0.3456 -0.5116
  238MOL0     C32002   8.278   1.421   7.071  0.6642 -1.0873  0.0019
  238MOL0     O32003   8.174   1.330   7.087  0.2202  0.2795  0.1025
  238MOL0     C32004   8.036   1.372   7.060 -0.3252 -0.1317  0.0071
  238MOL0     C32005   7.949   1.444   7.164 -0.0840  0.6842  0.1426
  238MOL0     C32006   7.804   1.418   7.125  1.0254 -0.9113 -0.5411
  238MOL0     C32007   7.708   1.478   7.229 -0.0238 -0.1605 -0.3819
  238MOL0     C32008   7.582   1.517   7.172  0.2243  0.1787  0.0354
  238MOL0     C32009   7.493   1.574   7.290 -0.2713 -0.0565  0.5136
  238MOL0     C32010   7.366   1.633   7.238  0.3465 -0.2118  0.1009
  238MOL0     C32011   7.258   1.523   7.205  0.0176 -0.0748  0.4531
  238MOL0     N32012   7.155   1.592   7.141 -0.0505  0.0310 -0.4711
  238MOL0     C32013   7.031   1.628   7.184 -0.3030 -0.8009 -0.5427
  238MOL0     C32014   6.967   1.670   7.075  0.6116 -0.7217  0.3924
  238MOL0     C32015   6.821   1.688   7.060 -0.6023 -0.1205  0.5759
  238MOL0     C32016   6.762   1.816   7.114 -0.9249  0.3890 -0.1955
  238MOL0     C32017   6.613   1.822   7.097  0.7530 -0.1397 -0.1492
  238MOL0     C32018   6.537   1.744   7.211  0.1105  0.0106 -0.0127
  238MOL0     O32019   6.554   1.804   7.340  0.1171 -0.4856 -0.1240
  238MOL0     C32020   6.463   1.782   7.437 -0.6047  0.2136 -0.4751
  238MOL0     C32021   6.402   1.659   7.456  0.7586 -0.0723 -0.2965
  238MOL0     C32022   6.322   1.634   7.569 -0.7876 -0.2705  1.3877
  238MOL0     C32023   6.307   1.727   7.672  0.1593 -1.5793 -0.0603
  238MOL0     C32024   6.237   1.701   7.803  0.5865  0.9871  1.1531
  238MOL0     O32025   6.231   1.569   7.849 -0.1115 -0.0711  0.9890
  238MOL0     C32026   6.185   1.532   7.964  0.3388  0.3203 -0.3090
  238MOL0     C32027   6.050   1.553   7.981  0.7055  0.0993 -0.4418
  238MOL0     C32028   5.986   1.495   8.089 -0.0251  0.2179  0.6892
  238MOL0     C32029   6.050   1.439   8.196 -0.2615 -0.3640  0.9552
  238MOL0     O32030   5.983   1.397   8.318 -0.0018  0.3506  0.0994
  238MOL0     C32031   5.850   1.348   8.301 -0.4449  0.5964  0.0543
  238MOL0     C32032   5.777   1.304   8.428  0.1835  0.5088  0.4930
  238MOL0     C32033   5.627   1.265   8.406  0.3025  1.0237 -0.3712
  238MOL0     C32034   5.537   1.353   8.311  0.0296  0.6708  0.3220
  238MOL0     C32035   5.388   1.337   8.354 -0.1855 -0.9045 -0.0771
  238MOL0     C32036   5.357   1.467   8.437  0.6799 -0.2690  0.4940
  238MOL0     C32037   5.328   1.591   8.351 -0.6827 -0.3008 -0.1997
  238MOL0     C32038   5.334   1.724   8.420 -0.5221 -0.1797  0.7568
  238MOL0    Cl32039   5.202   1.743   8.541 -0.2369  0.0536  0.1390
  238MOL0     C32040   6.192   1.420   8.175  0.6953  0.1654  0.2454
  238MOL0     C32041   6.258   1.466   8.064 -0.7098 -0.0469  1.5681
  238MOL0     O32042   6.204   1.798   7.865 -0.1521 -0.9143  0.2430
  238MOL0     C32043   6.352   1.859   7.642  0.1063  0.0515  0.4493
  238MOL0     C32044   6.432   1.882   7.528 -0.4863  0.0704 -0.0875
  238MOL0     N32045   7.058   1.669   6.963 -0.3459 -0.2320  0.0673
  238MOL0     N32046   7.158   1.608   7.008  0.4278  0.2438  1.1629
  238MOL0     C32047   8.398   1.365   7.035 -0.5003  0.3435 -0.2226
  238MOL0     C32048   8.506   1.446   7.006 -0.6454 -0.2228  0.7032
  238MOL0     C32049   8.820   1.749   6.939  0.1043  0.3354  1.0089
  238MOL0     C32050   8.840   1.823   7.061 -1.0535  0.4407  0.5220
  238MOL0     C32051   8.953   1.904   7.073  0.4450 -0.1008  0.4211
  238MOL0     C32052   9.040   1.932   6.965 -1.1414  0.4747  0.8009
  238MOL0     O32053   9.144   2.024   6.959  0.1203 -0.8565 -0.2266
  238MOL0     C32054   9.217   2.037   7.083  0.7642  0.1351 -0.4820
  238MOL0     C32055   9.280   1.914   7.142 -0.3845  0.1918 -0.0193
  238MOL0     C32056   9.295   1.939   7.291 -0.2208 -1.0774 -0.3353
  238MOL0     C32057   9.381   1.834   7.356  0.1411 -0.2742  0.2360
  238MOL0     C32058   9.524   1.873   7.357 -0.4357  0.5321 -0.4785
  238MOL0     C32059   9.640   1.913   7.343  0.6630 -0.9294 -1.3153
  238MOL0     C32060   9.011   1.865   6.849  0.2995 -0.0018  0.6026
  238MOL0     C32061   8.911   1.772   6.828 -0.6490 -0.0282 -0.3194
  238MOL0     C32062   8.921   1.718   6.699 -0.0082  0.4770 -1.0123
  238MOL0     H32063   8.373   1.753   7.046 -3.9593  0.3993 -3.0173
  238MOL0     H32064   8.172   1.605   7.080 -0.4377 -1.6256  1.8708
  238MOL0     H32065   8.028   1.441   6.975  0.2168  1.0450  0.8743
  238MOL0     H32066   7.979   1.281   7.041 -1.2307 -0.1918  2.5887
  238MOL0     H32067   7.964   1.552   7.158 -0.3802  0.8767  2.3039
  238MOL0     H32068   7.968   1.404   7.264  2.2728  3.2812  0.8517
  238MOL0     H32069   7.785   1.310   7.122  0.1141 -1.0679  3.8565
  238MOL0     H32070   7.790   1.457   7.024  0.0959 -0.9374 -0.4301
  238MOL0     H32071   7.712   1.406   7.311  2.4860 -4.1349 -3.5654
  238MOL0     H32072   7.762   1.569   7.259  0.5215  0.5921 -3.3394
  238MOL0     H32073   7.598   1.584   7.088 -0.4032 -0.2223 -0.4072
  238MOL0     H32074   7.538   1.421   7.143 -2.6889  0.3363  3.2766
  238MOL0     H32075   7.471   1.499   7.366 -0.2535 -1.4655 -0.8073
  238MOL0     H32076   7.547   1.659   7.332  0.1716  0.5227 -1.1440
  238MOL0     H32077   7.387   1.687   7.146 -1.1369 -0.6131 -0.5043
  238MOL0     H32078   7.321   1.707   7.305 -1.7791 -0.7450 -0.6499
  238MOL0     H32079   7.295   1.443   7.140 -3.2670 -0.7591 -0.7564
  238MOL0     H32080   7.214   1.464   7.286  1.8275 -0.0876  1.4772
  238MOL0     H32081   6.979   1.607   7.277 -2.2447 -1.3387 -1.6939
  238MOL0     H32082   6.787   1.669   6.957 -1.4923 -1.3381  1.0753
  238MOL0     H32083   6.768   1.605   7.107 -3.2323 -0.0064 -1.9184
  238MOL0     H32084   6.791   1.842   7.216  0.3841  2.2374 -0.9781
  238MOL0     H32085   6.806   1.894   7.050  3.2490 -1.6372 -0.1307
  238MOL0     H32086   6.581   1.759   7.013 -0.1599 -1.1893  0.9580
  238MOL0     H32087   6.580   1.925   7.083  1.4842  0.2576  0.9809
  238MOL0     H32088   6.570   1.640   7.209  0.9600  0.2804 -0.4513
  238MOL0     H32089   6.435   1.747   7.174  0.3717 -2.1407 -1.0721
  238MOL0     H32090   6.422   1.578   7.387  1.8400  0.6721 -0.8762
  238MOL0     H32091   6.281   1.539   7.602 -0.1402 -0.5591  1.3747
  238MOL0     H32092   5.982   1.602   7.912  1.2855 -0.3324 -1.3374
  238MOL0     H32093   5.880   1.517   8.100  0.5919  4.2095  0.4020
  238MOL0     H32094   5.781   1.424   8.264 -2.3880 -0.2203  1.7893
  238MOL0     H32095   5.864   1.257   8.243  0.8475  1.9808 -1.9379
  238MOL0     H32096   5.821   1.212   8.468 -2.8664 -2.0848 -1.5789
  238MOL0     H32097   5.793   1.382   8.503  1.6393  3.2859 -2.4474
  238MOL0     H32098   5.616   1.158   8.387 -0.3748  0.7785  1.1788
  238MOL0     H32099   5.582   1.284   8.504 -1.1814 -1.3135 -0.5297
  238MOL0     H32100   5.540   1.318   8.207 -1.5546 -1.9818  1.0692
  238MOL0     H32101   5.568   1.458   8.310 -0.3481  0.8149 -1.7614
  238MOL0     H32102   5.371   1.244   8.409 -0.9409 -2.0349 -2.1091
  238MOL0     H32103   5.322   1.331   8.267 -1.0609  1.2675  0.3709
  238MOL0     H32104   5.280   1.438   8.509  0.3538  0.1807  0.3279
  238MOL0     H32105   5.439   1.485   8.507  0.7991 -0.1937  0.3375
  238MOL0     H32106   5.232   1.584   8.299  0.3880  0.4580 -2.3992
  238MOL0     H32107   5.412   1.600   8.281  1.1566 -0.9268  1.8245
  238MOL0     H32108   5.431   1.747   8.465  0.3447 -4.3585  1.3968
  238MOL0     H32109   5.310   1.804   8.350  0.6526  4.1739  4.7991
  238MOL0     H32110   6.242   1.348   8.238 -1.3646 -0.8292  0.8345
  238MOL0     H32111   6.365   1.446   8.057 -0.3619  1.2156  2.7299
  238MOL0     H32112   6.346   1.935   7.719 -1.5069 -0.9142  1.3141
  238MOL0     H32113   6.488   1.974   7.517  2.5473 -1.6553 -0.1269
  238MOL0     H32114   8.398   1.265   6.992 -3.5880  0.2247 -0.1271
  238MOL0     H32115   8.600   1.409   6.966 -1.4573 -1.6480  0.0536
  238MOL0     H32116   8.786   1.802   7.152 -0.4355 -0.5641  0.6704
  238MOL0     H32117   8.952   1.966   7.163 -1.9146 -2.5667  2.2466
  238MOL0     H32118   9.155   2.082   7.161  0.0026  0.7696 -1.4276
  238MOL0     H32119   9.304   2.102   7.068 -0.7511  2.1969 -0.8958
  238MOL0     H32120   9.375   1.896   7.090 -1.0929 -1.9113 -0.6847
  238MOL0     H32121   9.223   1.822   7.126  0.7232 -0.5612  0.2153
  238MOL0     H32122   9.195   1.923   7.331  0.2283 -0.3217  1.1491
  238MOL0     H32123   9.328   2.040   7.317 -0.6807 -1.3898  1.5646
  238MOL0     H32124   9.359   1.808   7.460 -2.4649 -2.5194 -0.7568
  238MOL0     H32125   9.377   1.742   7.298  0.1223 -0.5330  0.6422
  238MOL0     H32126   9.744   1.938   7.350  0.0305  1.4282  1.0486
  238MOL0     H32127   9.066   1.899   6.762 -0.6926 -1.1661 -0.5166
  238MOL0     H32128   8.823   1.705   6.652 -0.4153 -1.2623  0.2473
  238MOL0     H32129   8.993   1.761   6.628 -0.0417  3.0281  0.3669
  238MOL0     H32130   8.960   1.618   6.719  2.3192  1.7654  1.6299
  239MOL0     O32131   0.780   5.280   3.436 -0.1011  0.6264  0.4827
  239MOL0     C32132   0.859   5.187   3.442 -0.5899  0.2960  0.1271
  239MOL0     O32133   1.003   5.191   3.417  0.8416  0.1703  0.3143
  239MOL0     C32134   1.063   5.296   3.367 -0.6651 -0.4139  0.0775
  239MOL0     C32135   1.171   5.286   3.277  0.2881 -1.1634 -0.3308
  239MOL0     C32136   1.242   5.396   3.219  1.8103  1.3442  0.1901
  239MOL0     C32137   1.195   5.523   3.255 -0.0890 -0.0217 -0.5430
  239MOL0     O32138   1.243   5.643   3.215  0.6521  0.4694  0.9977
  239MOL0     C32139   1.270   5.655   3.069 -0.3785  0.7430 -0.1211
  239MOL0     C32140   1.275   5.800   3.034 -0.5351 -0.5839 -0.2417
  239MOL0     C32141   1.392   5.861   3.105  0.2883  0.6897  0.3658
  239MOL0     C32142   1.423   5.989   3.035 -0.5631 -0.3853  0.8546
  239MOL0     C32143   1.527   6.066   3.115 -0.0644 -0.9077 -0.4116
  239MOL0     C32144   1.579   6.174   3.021 -0.7046 -0.2944  0.6302
  239MOL0     C32145   1.520   6.309   3.052 -0.3668  0.6021  0.3558
  239MOL0     C32146   1.576   6.363   3.187 -0.2099  0.3948 -0.5043
  239MOL0     N32147   1.705   6.432   3.176 -0.1404 -0.2147 -0.6074
  239MOL0     C32148   1.712   6.561   3.121  0.1110  0.3404 -0.3523
  239MOL0     C32149   1.844   6.597   3.149  0.3794  0.9304 -0.3476
  239MOL0     C32150   1.916   6.726   3.131  0.3880 -0.0835 -0.7062
  239MOL0     C32151   1.870   6.806   3.006 -0.2690  0.5536 -0.4781
  239MOL0     C32152   1.957   6.933   3.000  0.5177  0.5611  0.0887
  239MOL0     C32153   1.929   7.020   2.877 -0.6684 -0.4148 -0.7272
  239MOL0     O32154   1.783   7.022   2.859  0.0891 -0.4257  0.5333
  239MOL0     C32155   1.731   7.110   2.760 -0.2053  0.1555  0.2407
  239MOL0     C32156   1.593   7.123   2.752  0.2835 -0.2363  0.1048
  239MOL0     C32157   1.523   7.215   2.677 -1.0993 -0.8248  1.2971
  239MOL0     C32158   1.597   7.310   2.603 -0.1045 -0.3210 -0.5667
  239MOL0     C32159   1.534   7.427   2.525 -0.8652  0.2161 -0.3886
  239MOL0     O32160   1.607   7.529   2.462 -0.2616  0.5353 -0.0617
  239MOL0     C32161   1.548   7.623   2.389 -0.7920 -0.6877  0.3094
  239MOL0     C32162   1.490   7.743   2.439 -0.4103  0.7150 -0.4396
  239MOL0     C32163   1.431   7.834   2.353  0.8786  0.0892 -1.0023
  239MOL0     C32164   1.430   7.807   2.216 -0.7049  0.8295 -0.2359
  239MOL0     O32165   1.356   7.874   2.118  0.3806 -0.1058 -0.1373
  239MOL0     C32166   1.233   7.934   2.171  0.3679  0.5748 -0.1565
  239MOL0     C32167   1.172   7.967   2.029 -0.5115 -0.9285  0.2685
  239MOL0     C32168   1.046   8.057   2.038  0.3469  0.3709  0.3438
  239MOL0     C32169   1.003   8.107   1.904  0.1612  0.3823 -0.2143
  239MOL0     C32170   0.876   8.192   1.911  0.7618 -0.3220 -0.5459
  239MOL0     C32171   0.848   8.267   1.783 -0.8629 -0.3329 -0.7280
  239MOL0     C32172   0.701   8.307   1.799 -0.2558  0.6059  0.4530
  239MOL0     C32173   0.646   8.378   1.680  0.3941 -0.2512  1.3873
  239MOL0    Cl32174   0.473   8.419   1.724  0.3962 -0.2084 -0.1879
  239MOL0     C32175   1.501   7.697   2.175  0.1740  0.3198  1.0041
  239MOL0     C32176   1.561   7.611   2.257  0.2297 -1.4407  0.4205
  239MOL0     O32177   1.415   7.411   2.508 -0.1662  0.1485  0.0776
  239MOL0     C32178   1.732   7.287   2.592  0.3219 -0.1413  0.4631
  239MOL0     C32179   1.796   7.187   2.668  0.5191 -0.3078  1.0253
  239MOL0     N32180   1.903   6.487   3.209 -0.2229  0.3092 -0.0105
  239MOL0     N32181   1.822   6.384   3.216 -0.7974  0.1046 -0.1741
  239MOL0     C32182   1.093   5.542   3.349  0.0927  0.0086 -0.1168
  239MOL0     C32183   1.038   5.428   3.413 -0.0851 -0.7795 -0.3371
  239MOL0     C32184   0.799   5.052   3.471 -0.6401 -0.1158 -0.7010
  239MOL0     C32185   0.870   4.933   3.436 -0.7032 -0.4804  0.1792
  239MOL0     C32186   0.814   4.803   3.464 -0.3722 -0.0004  0.8451
  239MOL0     C32187   0.695   4.788   3.523  0.9566  0.0155 -1.0895
  239MOL0     O32188   0.636   4.664   3.551 -0.3384  0.4553  0.7182
  239MOL0     C32189   0.686   4.608   3.670  0.1892 -0.1623 -0.0532
  239MOL0     C32190   0.592   4.486   3.701  0.1968 -0.0345  0.0844
  239MOL0     C32191   0.634   4.422   3.834  0.7759  0.3727  0.1955
  239MOL0     C32192   0.784   4.375   3.845  1.0033  0.4247  0.1804
  239MOL0     C32193   0.889   4.478   3.875  0.7393  0.7921  1.1749
  239MOL0     C32194   0.987   4.543   3.908  0.0053 -0.7619  0.5812
  239MOL0     C32195   0.622   4.904   3.562  0.2995 -0.3315 -0.2076
  239MOL0     C32196   0.674   5.037   3.543  0.2105 -0.4897 -0.6409
  239MOL0     C32197   0.592   5.151   3.592 -0.1708 -0.5538 -0.3281
  239MOL0     H32198   1.185   5.182   3.249  0.4090 -2.6276  4.2451
  239MOL0     H32199   1.331   5.378   3.160  1.4548  0.5274 -0.1114
  239MOL0     H32200   1.369   5.613   3.048 -0.0114  1.1052  0.8318
  239MOL0     H32201   1.194   5.600   3.013 -1.3132 -0.2803  2.0048
  239MOL0     H32202   1.190   5.856   3.073 -1.5310 -3.3167  1.8835
  239MOL0     H32203   1.288   5.801   2.925 -1.3093 -2.0097 -0.3828
  239MOL0     H32204   1.482   5.800   3.096 -0.1294  0.3672 -2.8255
  239MOL0     H32205   1.361   5.878   3.209 -2.3140 -1.3892  0.0641
  239MOL0     H32206   1.466   5.955   2.941  1.3411 -1.2098  1.9695
  239MOL0     H32207   1.333   6.048   3.013 -1.0964 -0.8270  1.7926
  239MOL0     H32208   1.472   6.099   3.204 -0.7294  1.8774 -1.7291
  239MOL0     H32209   1.603   5.994   3.144 -0.6273 -0.0870  3.6275
  239MOL0     H32210   1.687   6.175   3.033 -0.3529  0.2438 -1.9227
  239MOL0     H32211   1.555   6.149   2.917  0.1612 -0.5391  0.4833
  239MOL0     H32212   1.410   6.305   3.052 -0.3559 -2.0802  1.5048
  239MOL0     H32213   1.543   6.371   2.965  0.7164 -0.1993  0.0508
  239MOL0     H32214   1.507   6.444   3.212  0.4178  1.4562 -2.0456
  239MOL0     H32215   1.576   6.277   3.255 -2.4594  0.0847 -0.8286
  239MOL0     H32216   1.637   6.621   3.071 -2.5063 -2.0088  0.4437
  239MOL0     H32217   1.917   6.782   3.225  3.1072 -3.3143  1.4659
  239MOL0     H32218   2.021   6.694   3.123  0.7323 -1.1550  4.3472
  239MOL0     H32219   1.899   6.750   2.916  0.4487  0.3858 -0.1487
  239MOL0     H32220   1.762   6.819   3.002 -1.1664 -4.5457 -0.0899
  239MOL0     H32221   2.062   6.903   2.999  0.6680  1.0736  0.5109
  239MOL0     H32222   1.948   6.991   3.092  1.0232  1.5799 -0.4834
  239MOL0     H32223   1.971   6.989   2.781 -0.2389  0.9876 -1.0102
  239MOL0     H32224   1.970   7.121   2.886  1.4046 -1.1906 -0.8518
  239MOL0     H32225   1.537   7.056   2.817  1.2278 -1.4218 -0.2732
  239MOL0     H32226   1.415   7.209   2.668 -1.1699  1.4164 -0.0984
  239MOL0     H32227   1.486   7.755   2.547  2.1369  0.4245 -0.2301
  239MOL0     H32228   1.377   7.919   2.392  0.7559  0.2620 -1.5470
  239MOL0     H32229   1.169   7.863   2.225 -1.1790  0.1495 -2.4192
  239MOL0     H32230   1.257   8.026   2.225 -0.1751  0.3053  0.5668
  239MOL0     H32231   1.248   8.020   1.971 -0.8834  1.7312  1.9863
  239MOL0     H32232   1.146   7.881   1.967  0.5675 -0.6653 -0.5852
  239MOL0     H32233   0.961   8.004   2.083 -1.1176  4.1914  2.6006
  239MOL0     H32234   1.056   8.140   2.109  1.5448  1.0270 -0.5536
  239MOL0     H32235   0.977   8.019   1.845  0.8203 -1.6221  2.2706
  239MOL0     H32236   1.080   8.171   1.861  0.8466 -0.7613 -0.7226
  239MOL0     H32237   0.887   8.260   1.996  0.2574  3.4393 -3.2615
  239MOL0     H32238   0.797   8.117   1.924  2.1881 -1.4786  2.7012
  239MOL0     H32239   0.921   8.349   1.786  1.6374 -2.4349  1.1507
  239MOL0     H32240   0.860   8.207   1.692 -0.4295 -0.5509 -0.5303
  239MOL0     H32241   0.683   8.360   1.893  1.7431 -1.4331  2.0900
  239MOL0     H32242   0.641   8.216   1.808 -1.2072  0.9612 -1.5775
  239MOL0     H32243   0.706   8.464   1.649 -2.9960  0.5144 -4.3388
  239MOL0     H32244   0.652   8.312   1.594  0.2010  0.4285  0.8429
  239MOL0     H32245   1.506   7.677   2.069 -1.8790  0.4361  0.8346
  239MOL0     H32246   1.613   7.522   2.224 -0.8592 -2.2748  0.8985
  239MOL0     H32247   1.785   7.355   2.527 -1.1674  1.1269  0.5212
  239MOL0     H32248   1.903   7.176   2.662  0.3414 -1.2172 -1.7179
  239MOL0     H32249   1.048   5.639   3.369  1.2887  0.0124  3.0972
  239MOL0     H32250   0.960   5.444   3.487  0.8188 -2.1579  0.9863
  239MOL0     H32251   0.957   4.937   3.371 -0.4056 -2.0162  0.4382
  239MOL0     H32252   0.880   4.722   3.435  1.8595  2.3899 -1.1895
  239MOL0     H32253   0.698   4.678   3.753  2.3744  2.1836 -2.1626
  239MOL0     H32254   0.790   4.583   3.643  0.3978  0.6407 -0.0172
  239MOL0     H32255   0.591   4.408   3.624 -4.9470 -1.6299  1.4265
  239MOL0     H32256   0.488   4.514   3.719 -0.2585 -1.2161 -0.6298
  239MOL0     H32257   0.558   4.344   3.843  0.4583  0.4099 -1.7471
  239MOL0     H32258   0.626   4.498   3.913  0.3835  0.1255  0.4001
  239MOL0     H32259   0.771   4.299   3.923 -2.5190  1.5977  0.9149
  239MOL0     H32260   0.802   4.326   3.750 -1.9016 -1.8102  0.6570
  239MOL0     H32261   1.071   4.591   3.954 -0.0210  0.5701 -0.6762
  239MOL0     H32262   0.530   4.894   3.619  0.0585 -0.6621 -0.6396
  239MOL0     H32263   0.542   5.192   3.504  3.3567  5.0140 -0.2536
  239MOL0     H32264   0.522   5.123   3.671 -1.2990 -0.5952 -1.3173
  239MOL0     H32265   0.647   5.229   3.647  0.7981 -2.1688  1.1172
  240MOL0     O32266   0.815   9.909   2.113  0.0012  0.0981 -0.5381
  240MOL0     C32267   0.912   9.944   2.045 -0.0336  0.4349  0.0844
  240MOL0     O32268   1.020  10.021   2.093 -0.0528  0.3100  0.5729
  240MOL0     C32269   1.012  10.075   2.218 -0.3990  0.2793  0.9545
  240MOL0     C32270   0.969  10.211   2.224 -0.4394  0.2889  0.0366
  240MOL0     C32271   0.986  10.280   2.350  0.3192  0.4553  0.3206
  240MOL0     C32272   1.034  10.216   2.471  0.5983  0.1328  0.3768
  240MOL0     O32273   1.042  10.274   2.593  0.8096 -1.3304  0.2252
  240MOL0     C32274   1.027  10.420   2.606  0.3477 -0.2807  0.0977
  240MOL0     C32275   1.082  10.460   2.744  0.3127 -0.4406 -0.3457
  240MOL0     C32276   1.231  10.444   2.770 -0.3290 -0.4127  0.2795
  240MOL0     C32277   1.253  10.457   2.919 -0.6736 -0.7487 -0.3108
  240MOL0     C32278   1.406  10.421   2.973 -0.2232  0.9283 -0.2285
  240MOL0     C32279   1.504  10.534   2.961 -0.0774 -0.0692  0.7218
  240MOL0     C32280   1.627  10.506   3.044  0.0689 -0.6293 -0.7452
  240MOL0     C32281   1.711  10.633   3.044 -0.8064  0.4737 -0.4023
  240MOL0     N32282   1.846  10.625   3.106  0.4954 -0.4483 -0.0108
  240MOL0     C32283   1.957  10.647   3.032 -0.0650 -0.0315 -0.1756
  240MOL0     C32284   2.050  10.680   3.121  0.5777  0.6782 -0.4579
  240MOL0     C32285   2.185  10.717   3.086  0.1806 -0.4014  0.0837
  240MOL0     C32286   2.172  10.859   3.027 -0.6445 -0.2975  0.5376
  240MOL0     C32287   2.150  10.960   3.143 -0.2504 -0.2956  0.6573
  240MOL0     C32288   2.260  10.989   3.249  1.6347  0.0554 -0.1765
  240MOL0     O32289   2.387  10.997   3.186 -0.5246 -0.3540 -0.6509
  240MOL0     C32290   2.488  11.046   3.262  0.0346 -0.5294  0.4582
  240MOL0     C32291   2.482  11.117   3.384  0.8734 -0.3208  0.3769
  240MOL0     C32292   2.603  11.162   3.447  0.0408  0.2898 -0.0550
  240MOL0     C32293   2.726  11.140   3.393  0.4685  0.8053 -0.3568
  240MOL0     C32294   2.838  11.173   3.471  0.4360  0.0784  0.7513
  240MOL0     O32295   2.822  11.151   3.600 -0.0695  0.4799  0.0093
  240MOL0     C32296   2.903  11.189   3.704  0.7208  0.1963 -0.0362
  240MOL0     C32297   2.846  11.282   3.793 -0.5139 -0.3626  1.1152
  240MOL0     C32298   2.912  11.330   3.908 -0.0188  0.5281 -0.3066
  240MOL0     C32299   3.036  11.275   3.940  0.1016  0.5816 -1.1464
  240MOL0     O32300   3.112  11.331   4.041  0.0278 -0.4348 -0.1042
  240MOL0     C32301   3.133  11.476   4.035 -0.1252 -0.3051 -0.5877
  240MOL0     C32302   3.273  11.495   4.084  0.5607 -0.1693 -0.8610
  240MOL0     C32303   3.300  11.646   4.065 -0.0566  0.9209 -0.5973
  240MOL0     C32304   3.431  11.679   4.142 -0.5305 -0.1205  0.4562
  240MOL0     C32305   3.474  11.829   4.139  0.2177  0.1302  0.3950
  240MOL0     C32306   3.345  11.920   4.163  0.3219 -0.9363  0.1008
  240MOL0     C32307   3.369  12.064   4.202 -0.1440 -0.4968 -0.9613
  240MOL0     C32308   3.493  12.074   4.298  0.4116 -0.5403 -0.0652
  240MOL0    Cl32309   3.498  12.240   4.360 -0.7342  0.5490 -0.0056
  240MOL0     C32310   3.098  11.195   3.850 -0.4756  1.2044 -0.1061
  240MOL0     C32311   3.030  11.143   3.736  0.7324  0.3888  0.3374
  240MOL0     O32312   2.942  11.214   3.420 -0.5342  0.7869  0.3839
  240MOL0     C32313   2.731  11.085   3.259 -0.4749  1.1289  0.2178
  240MOL0     C32314   2.612  11.030   3.204 -0.6957  0.1527 -0.4463
  240MOL0     N32315   2.004  10.669   3.252  0.4105 -0.2291  0.0496
  240MOL0     N32316   1.875  10.641   3.240  0.2125  0.4208  0.3773
  240MOL0     C32317   1.079  10.080   2.447  0.5740 -0.4293 -0.3988
  240MOL0     C32318   1.081  10.019   2.324  0.3921  0.4225  0.1248
  240MOL0     C32319   0.910   9.899   1.900  1.2684 -0.0202  0.0866
  240MOL0     C32320   0.815   9.795   1.856  0.3161 -0.6755 -0.3143
  240MOL0     C32321   0.808   9.749   1.726 -0.3087 -0.1851  0.7338
  240MOL0     C32322   0.900   9.789   1.629 -0.4611 -0.5607 -0.0174
  240MOL0     O32323   0.897   9.741   1.498  0.5333  0.3105  0.1551
  240MOL0     C32324   0.828   9.824   1.408  0.1128 -0.4558 -0.8076
  240MOL0     C32325   0.862   9.788   1.265 -0.4404  0.4624 -0.4387
  240MOL0     C32326   1.010   9.762   1.249 -0.7626  0.2645 -0.2292
  240MOL0     C32327   1.033   9.734   1.100  0.5917  0.7740  0.0926
  240MOL0     C32328   0.986   9.595   1.062  0.4876 -0.2461 -0.3038
  240MOL0     C32329   0.958   9.479   1.035  1.1694 -0.4656 -0.1526
  240MOL0     C32330   0.995   9.887   1.667  0.0121 -0.3135 -0.6602
  240MOL0     C32331   0.997   9.952   1.790 -0.0285 -0.6801 -0.0493
  240MOL0     C32332   1.096  10.061   1.811 -0.2750  0.7422  0.1144
  240MOL0     H32333   0.931  10.266   2.139 -1.1964  2.5074  1.7164
  240MOL0     H32334   0.956  10.384   2.345  0.6501  0.5124 -0.8741
  240MOL0     H32335   1.077  10.476   2.527  3.1594 -1.4761  0.9081
  240MOL0     H32336   0.921  10.447   2.602 -0.2803 -2.7062 -2.2891
  240MOL0     H32337   1.019  10.425   2.826  1.1230  3.7857  2.3631
  240MOL0     H32338   1.067  10.568   2.742  0.4427 -0.4250 -0.4788
  240MOL0     H32339   1.284  10.519   2.711 -1.0789 -2.8105 -3.8941
  240MOL0     H32340   1.260  10.342   2.741 -3.8602 -1.3421 -0.5719
  240MOL0     H32341   1.224  10.556   2.955 -1.4528 -2.0167  2.8878
  240MOL0     H32342   1.186  10.393   2.977 -0.6108  0.6575  1.3903
  240MOL0     H32343   1.400  10.408   3.082  0.0370  1.4685 -0.1460
  240MOL0     H32344   1.427  10.323   2.929  0.5901  0.4996  1.0572
  240MOL0     H32345   1.519  10.558   2.855  0.7622  0.3770  0.9357
  240MOL0     H32346   1.449  10.621   2.999 -1.6547 -0.8434  0.3233
  240MOL0     H32347   1.692  10.432   2.996  0.3073 -0.6617 -0.3753
  240MOL0     H32348   1.585  10.482   3.142 -1.6070  1.4633 -0.8915
  240MOL0     H32349   1.711  10.671   2.941 -1.6459  0.4103 -0.4332
  240MOL0     H32350   1.670  10.710   3.109  1.7635 -0.5344  2.6507
  240MOL0     H32351   1.949  10.649   2.924 -2.0567  0.7166 -0.0694
  240MOL0     H32352   2.253  10.724   3.171 -0.6513 -0.8462  0.7963
  240MOL0     H32353   2.212  10.641   3.012  1.0734  0.5496 -0.5942
  240MOL0     H32354   2.258  10.879   2.962  0.4009  0.1906  2.0066
  240MOL0     H32355   2.090  10.876   2.957 -0.9052  0.0399  0.9216
  240MOL0     H32356   2.061  10.938   3.204 -0.2109  0.5916  1.0583
  240MOL0     H32357   2.135  11.058   3.097 -2.6673 -1.9575 -2.4931
  240MOL0     H32358   2.261  10.904   3.318  1.3027 -0.6632 -1.0345
  240MOL0     H32359   2.236  11.085   3.296 -0.9453 -1.3090  1.5757
  240MOL0     H32360   2.385  11.134   3.430 -0.6511 -1.1869 -2.2756
  240MOL0     H32361   2.585  11.209   3.543 -1.9892  0.3399 -0.4215
  240MOL0     H32362   2.749  11.329   3.781 -1.1021 -2.1210 -2.3558
  240MOL0     H32363   2.870  11.406   3.973 -2.0966 -1.0963  0.3379
  240MOL0     H32364   3.117  11.538   3.946 -0.9668  2.6248  1.4316
  240MOL0     H32365   3.069  11.516   4.115  2.0811 -0.1066  1.1834
  240MOL0     H32366   3.291  11.459   4.186  1.8179  0.2486 -0.9164
  240MOL0     H32367   3.341  11.435   4.022 -1.8881 -2.1188 -1.8811
  240MOL0     H32368   3.310  11.688   3.964  0.9501  2.2372  0.0093
  240MOL0     H32369   3.212  11.702   4.097 -0.3580 -0.6241  1.4442
  240MOL0     H32370   3.511  11.629   4.086  2.8781  0.4928  4.2933
  240MOL0     H32371   3.430  11.646   4.246  0.7020 -3.4418 -0.4357
  240MOL0     H32372   3.520  11.861   4.045  0.0039 -1.5521 -0.3132
  240MOL0     H32373   3.552  11.842   4.216 -0.7870  1.2193  1.2754
  240MOL0     H32374   3.270  11.923   4.083 -3.5215  1.4188  3.4208
  240MOL0     H32375   3.292  11.878   4.248 -2.1960  2.8216  0.6179
  240MOL0     H32376   3.284  12.098   4.261  2.0053 -1.4360  3.0236
  240MOL0     H32377   3.375  12.127   4.112 -2.2696  0.4786 -0.4797
  240MOL0     H32378   3.482  12.018   4.392  1.9739  1.1094  1.1773
  240MOL0     H32379   3.587  12.041   4.254 -0.0373  0.7272 -2.0697
  240MOL0     H32380   3.205  11.180   3.860  0.0567  4.4078  0.0521
  240MOL0     H32381   3.070  11.075   3.662 -1.3173 -1.3182  0.6839
  240MOL0     H32382   2.818  11.076   3.196 -1.0453 -3.6474 -0.2736
  240MOL0     H32383   2.611  10.982   3.106  1.6767  1.7609 -1.3627
  240MOL0     H32384   1.119  10.034   2.537 -1.5579  2.6268  2.3387
  240MOL0     H32385   1.106   9.913   2.318  1.3220  0.1689  4.6620
  240MOL0     H32386   0.747   9.755   1.931 -2.5580  1.2077 -1.7456
  240MOL0     H32387   0.737   9.671   1.700  0.1808 -1.1261  2.1026
  240MOL0     H32388   0.870   9.924   1.427  1.4121 -1.1463  0.0805
  240MOL0     H32389   0.719   9.829   1.421 -0.0593 -2.2784 -1.2788
  240MOL0     H32390   0.827   9.863   1.192 -0.8316 -0.0607 -0.7956
  240MOL0     H32391   0.802   9.698   1.249  0.6435 -0.7808  2.0463
  240MOL0     H32392   1.041   9.682   1.317  0.6193  2.0112  1.2933
  240MOL0     H32393   1.065   9.854   1.268 -2.6840  1.8640 -1.8620
  240MOL0     H32394   0.980   9.804   1.034  1.9566  1.8249  0.0856
  240MOL0     H32395   1.139   9.741   1.076 -0.1116  1.8095 -3.1214
  240MOL0     H32396   0.929   9.381   1.004  0.1445  0.2924 -1.7125
  240MOL0     H32397   1.066   9.913   1.589 -0.5971 -2.0361 -1.8589
  240MOL0     H32398   1.186  10.041   1.869  0.0168  0.7329 -0.3365
  240MOL0     H32399   1.120  10.104   1.714  2.3030  2.2369  1.3211
  240MOL0     H32400   1.055  10.145   1.868 -1.3541 -0.1458  0.6965
  241MOL0     O32401   4.175   4.697  10.899  0.0860  0.1809 -0.3002
  241MOL0     C32402   4.138   4.752  10.798  0.5504 -0.2158  0.2295
  241MOL0     O32403   4.197   4.730  10.675 -1.2335  0.5061  0.1387
  241MOL0     C32404   4.310   4.648  10.672 -1.1493  0.4985  0.0542
  241MOL0     C32405   4.299   4.515  10.662  0.2799 -0.0697 -0.7837
  241MOL0     C32406   4.410   4.431  10.644 -1.2558  0.2274  0.2282
  241MOL0     C32407   4.538   4.492  10.627 -0.2194 -0.7840  0.4983
  241MOL0     O32408   4.647   4.423  10.586 -1.0747 -0.4168  0.1785
  241MOL0     C32409   4.635   4.306  10.510 -0.1331  0.3574 -0.1825
  241MOL0     C32410   4.766   4.286  10.426  0.3221 -0.4513 -0.5883
  241MOL0     C32411   4.792   4.145  10.373  0.3572 -0.5780 -0.1355
  241MOL0     C32412   4.732   4.108  10.236 -0.1923  0.0650 -1.1530
  241MOL0     C32413   4.707   3.956  10.224  0.0241 -0.4840 -0.3237
  241MOL0     C32414   4.665   3.918  10.086 -0.0166 -0.0813 -0.4552
  241MOL0     C32415   4.602   3.783  10.079 -0.0875  0.6825  0.3325
  241MOL0     C32416   4.709   3.670  10.100  0.3099 -0.5306 -0.3943
  241MOL0     N32417   4.648   3.533  10.123 -0.2786  0.0804  0.1127
  241MOL0     C32418   4.658   3.460  10.234 -0.3543  1.4729 -0.1670
  241MOL0     C32419   4.611   3.332  10.207 -0.1774  0.4619  0.3050
  241MOL0     C32420   4.584   3.206  10.297  0.0611 -0.9431 -0.9168
  241MOL0     C32421   4.434   3.185  10.309 -0.8401 -0.6928 -0.2203
  241MOL0     C32422   4.374   3.300  10.395 -0.7232  0.1613 -0.8869
  241MOL0     C32423   4.220   3.279  10.424 -0.1336 -0.2213 -0.3594
  241MOL0     O32424   4.202   3.144  10.488  0.8609  0.8437  0.4763
  241MOL0     C32425   4.174   3.032  10.415  0.6915 -0.3243 -0.4655
  241MOL0     C32426   4.168   2.911  10.488  1.2860  0.0284 -0.6159
  241MOL0     C32427   4.138   2.785  10.437 -0.6155  0.3225 -0.6005
  241MOL0     C32428   4.110   2.783  10.298 -0.4401  0.1193 -0.2869
  241MOL0     C32429   4.082   2.653  10.231  0.6385 -0.3102  0.2514
  241MOL0     O32430   4.122   2.537  10.297  0.1583 -0.0302 -0.3781
  241MOL0     C32431   4.111   2.402  10.248  0.7503  0.5609  0.2191
  241MOL0     C32432   4.121   2.301  10.344 -0.2480  0.7280  0.8760
  241MOL0     C32433   4.094   2.171  10.303  1.3732 -0.8894  0.2727
  241MOL0     C32434   4.071   2.142  10.172 -0.9691 -0.0768 -0.6751
  241MOL0     O32435   4.050   2.006  10.140 -0.1779 -0.7869 -0.3826
  241MOL0     C32436   4.157   1.933  10.085 -0.0759  0.2627 -0.3723
  241MOL0     C32437   4.272   1.916  10.182  1.3541 -0.5620  0.6884
  241MOL0     C32438   4.372   1.798  10.143  0.2155  0.6687  0.4013
  241MOL0     C32439   4.470   1.778  10.260  1.5328  0.7228 -0.0119
  241MOL0     C32440   4.563   1.658  10.224 -0.3778  0.2062  0.6511
  241MOL0     C32441   4.667   1.714  10.122 -0.6662  0.3129 -0.2853
  241MOL0     C32442   4.760   1.600  10.066 -0.1966 -0.6472 -0.1641
  241MOL0     C32443   4.874   1.651   9.977 -0.8464 -0.4483 -0.8272
  241MOL0    Cl32444   4.895   1.528   9.858 -0.1248 -0.5295  0.5082
  241MOL0     C32445   4.067   2.242  10.075  0.2630 -0.0339 -0.6966
  241MOL0     C32446   4.093   2.377  10.110 -0.5731  0.2944  0.1110
  241MOL0     O32447   4.034   2.658  10.122 -0.0979  0.2648 -0.1501
  241MOL0     C32448   4.108   2.908  10.226  0.0097  0.0281 -0.1581
  241MOL0     C32449   4.145   3.027  10.280 -0.0623 -0.4477  0.7303
  241MOL0     N32450   4.592   3.329  10.073  0.2656 -0.0131  0.6947
  241MOL0     N32451   4.605   3.451  10.022  0.5731 -0.4963 -0.8788
  241MOL0     C32452   4.551   4.629  10.642  0.6401  0.0363  0.3172
  241MOL0     C32453   4.435   4.708  10.660  0.5599  0.6164  0.4103
  241MOL0     C32454   4.038   4.861  10.800  1.5518  0.1617 -0.0638
  241MOL0     C32455   3.996   4.922  10.682  0.2740 -0.5467  0.5738
  241MOL0     C32456   3.910   5.029  10.684  0.2734 -0.2781 -0.0520
  241MOL0     C32457   3.847   5.061  10.800 -0.6214 -0.0451 -0.0124
  241MOL0     O32458   3.762   5.176  10.793  0.5167  0.3878 -0.3104
  241MOL0     C32459   3.754   5.260  10.907 -0.4541 -0.0620 -0.0702
  241MOL0     C32460   3.702   5.396  10.879  0.0622 -0.5763  0.5510
  241MOL0     C32461   3.583   5.406  10.778 -0.8108  0.3534 -0.1854
  241MOL0     C32462   3.454   5.351  10.851 -0.2016  0.7363 -1.1068
  241MOL0     C32463   3.331   5.347  10.770 -0.4473 -0.5323 -0.3003
  241MOL0     C32464   3.236   5.340  10.694 -0.0910 -0.0690  0.5685
  241MOL0     C32465   3.874   4.999  10.924 -0.0385  0.4674 -0.9073
  241MOL0     C32466   3.975   4.901  10.929 -0.1573 -1.1415  0.3399
  241MOL0     C32467   4.022   4.849  11.066  0.8261 -0.4517 -1.5293
  241MOL0     H32468   4.195   4.484  10.657  0.6224 -1.4573  0.1380
  241MOL0     H32469   4.394   4.324  10.637 -1.6026  0.1584  1.8044
  241MOL0     H32470   4.602   4.229  10.580 -4.7866  2.8449  0.7950
  241MOL0     H32471   4.564   4.322  10.429 -0.3765  1.6777  0.2603
  241MOL0     H32472   4.847   4.300  10.499 -2.8156  0.9853  2.9118
  241MOL0     H32473   4.771   4.356  10.342 -0.3540 -0.9342 -1.0461
  241MOL0     H32474   4.738   4.070  10.432 -1.7964  0.6488 -0.4339
  241MOL0     H32475   4.900   4.128  10.378  0.4753  0.2861  0.3968
  241MOL0     H32476   4.629   4.144  10.252  0.2655  0.5387  0.9881
  241MOL0     H32477   4.788   4.154  10.154  2.9398 -3.4591 -1.2269
  241MOL0     H32478   4.797   3.900  10.248  0.5627 -1.2060 -3.5918
  241MOL0     H32479   4.628   3.929  10.295 -0.2868  1.0830 -0.0293
  241MOL0     H32480   4.589   3.988  10.050 -1.7565 -1.5521  0.1230
  241MOL0     H32481   4.754   3.924  10.023  0.8111  3.6338  0.8009
  241MOL0     H32482   4.583   3.779   9.971  0.0214 -0.1699  0.3353
  241MOL0     H32483   4.516   3.777  10.145 -1.5688 -4.1357 -1.5739
  241MOL0     H32484   4.768   3.666  10.008 -1.0403 -0.5599 -1.2850
  241MOL0     H32485   4.768   3.699  10.188  2.1134 -1.8910 -1.0868
  241MOL0     H32486   4.696   3.493  10.330  1.5032  1.4294 -0.8448
  241MOL0     H32487   4.624   3.121  10.240  1.0859 -0.1413 -1.4483
  241MOL0     H32488   4.630   3.206  10.396 -2.0715 -1.0233  0.1125
  241MOL0     H32489   4.391   3.173  10.209  0.8560 -0.1991 -1.0489
  241MOL0     H32490   4.415   3.094  10.365 -1.8928 -1.8469 -2.3219
  241MOL0     H32491   4.367   3.392  10.336  0.4274 -0.1011 -1.4656
  241MOL0     H32492   4.427   3.310  10.490 -0.1256 -0.5721 -1.1352
  241MOL0     H32493   4.153   3.292  10.339 -1.5433  0.5737  0.8402
  241MOL0     H32494   4.188   3.361  10.489 -1.1087 -1.2816  0.5342
  241MOL0     H32495   4.186   2.916  10.595  0.9437  1.0738 -0.6005
  241MOL0     H32496   4.128   2.705  10.510 -0.2778  2.6640  2.1832
  241MOL0     H32497   4.135   2.334  10.446 -0.8331  2.6160  0.3975
  241MOL0     H32498   4.076   2.088  10.371  0.7260 -2.0519 -1.2501
  241MOL0     H32499   4.119   1.836  10.052  1.0212  0.0175 -0.9420
  241MOL0     H32500   4.195   1.980   9.994  0.3797  0.2441 -0.1929
  241MOL0     H32501   4.331   2.008  10.174  0.4837 -0.0934 -0.9848
  241MOL0     H32502   4.235   1.907  10.284 -0.4606 -0.6895  0.0576
  241MOL0     H32503   4.322   1.702  10.128 -1.0248  1.2795  0.4281
  241MOL0     H32504   4.417   1.827  10.048 -0.8726 -0.4044 -0.4734
  241MOL0     H32505   4.406   1.745  10.343  0.8185  2.3892  0.1456
  241MOL0     H32506   4.517   1.870  10.297 -1.2328  2.1069  0.4246
  241MOL0     H32507   4.509   1.575  10.178  3.7221 -1.3695 -1.8784
  241MOL0     H32508   4.612   1.616  10.312  0.3996  1.0810  0.6502
  241MOL0     H32509   4.612   1.761  10.040 -0.7862  2.4771  0.9486
  241MOL0     H32510   4.717   1.804  10.159  0.9495 -0.7440  0.2217
  241MOL0     H32511   4.688   1.533  10.018 -1.2644  0.8888 -0.8046
  241MOL0     H32512   4.807   1.544  10.147 -0.3918  0.3734  0.6803
  241MOL0     H32513   4.852   1.742   9.920  0.5105  0.8348  0.6153
  241MOL0     H32514   4.961   1.666  10.041 -1.2602 -0.8203 -0.1598
  241MOL0     H32515   4.042   2.227   9.971  3.6524  1.3017 -1.8197
  241MOL0     H32516   4.082   2.455  10.035 -2.4990 -1.2165 -1.3066
  241MOL0     H32517   4.081   2.904  10.121  0.2380 -0.2430 -0.2074
  241MOL0     H32518   4.131   3.115  10.217 -0.0090 -1.9295 -1.4621
  241MOL0     H32519   4.654   4.663  10.653  1.0212 -0.4031 -1.4439
  241MOL0     H32520   4.437   4.816  10.671 -2.0644  1.2942 -3.5310
  241MOL0     H32521   4.053   4.908  10.591  2.4786  0.8568  1.6729
  241MOL0     H32522   3.895   5.097  10.600  3.3195  1.2465  0.4919
  241MOL0     H32523   3.851   5.274  10.955 -2.3313 -1.0591  4.4910
  241MOL0     H32524   3.694   5.209  10.983 -0.1591 -1.8274 -0.9636
  241MOL0     H32525   3.783   5.454  10.834 -1.6111  1.8213  0.4351
  241MOL0     H32526   3.681   5.452  10.970 -0.2924  0.6033 -0.2355
  241MOL0     H32527   3.600   5.356  10.682  0.2495 -1.7610  1.0240
  241MOL0     H32528   3.565   5.510  10.749 -3.4877 -0.2572 -0.9646
  241MOL0     H32529   3.477   5.257  10.903  2.4750  1.6055 -0.5615
  241MOL0     H32530   3.431   5.420  10.932 -3.4079 -1.0390 -0.3460
  241MOL0     H32531   3.146   5.319  10.641 -0.3422 -0.0499  0.9842
  241MOL0     H32532   3.831   5.025  11.020  0.5954 -0.6022 -0.3070
  241MOL0     H32533   4.129   4.830  11.077  0.9851  0.3863 -1.5728
  241MOL0     H32534   3.988   4.910  11.150 -0.8988  0.1249 -2.5895
  241MOL0     H32535   3.980   4.750  11.083 -1.2131  0.4285 -1.1155
  242MOL0     O32536   8.421   4.425   4.249  0.5831 -0.0452 -0.2628
  242MOL0     C32537   8.382   4.332   4.317  0.4190 -0.2768  0.1663
  242MOL0     O32538   8.364   4.338   4.454 -0.1489 -0.5629  0.6713
  242MOL0     C32539   8.333   4.458   4.518  0.2768  0.4147  0.4709
  242MOL0     C32540   8.392   4.473   4.648 -0.1477 -0.4390  0.4222
  242MOL0     C32541   8.363   4.585   4.713  0.9937  0.3699  0.5986
  242MOL0     C32542   8.277   4.685   4.664 -0.8548 -0.5895  0.5711
  242MOL0     O32543   8.271   4.805   4.725  0.9957  0.1078 -0.1460
  242MOL0     C32544   8.155   4.887   4.704 -1.0860 -0.3597 -0.5598
  242MOL0     C32545   8.144   5.004   4.804 -0.2567  0.7158  0.5478
  242MOL0     C32546   8.273   5.093   4.808 -0.1583  0.1386 -0.5497
  242MOL0     C32547   8.270   5.191   4.924 -0.8472  0.3172  0.6867
  242MOL0     C32548   8.409   5.255   4.929  0.4478 -0.1318  1.0969
  242MOL0     C32549   8.423   5.329   5.059 -0.8261 -0.1411  1.0001
  242MOL0     C32550   8.553   5.418   5.050  0.6830  0.6115 -0.4434
  242MOL0     C32551   8.601   5.448   5.196  0.2251 -0.2153 -0.9881
  242MOL0     N32552   8.731   5.521   5.203 -0.2107  0.0269 -0.3083
  242MOL0     C32553   8.741   5.659   5.218  0.2629 -0.2657 -0.7229
  242MOL0     C32554   8.869   5.675   5.202 -0.3832 -0.9262  0.0316
  242MOL0     C32555   8.934   5.808   5.216 -0.0209  1.4380  1.2591
  242MOL0     C32556   8.903   5.889   5.341 -0.1216  0.2016  0.4561
  242MOL0     C32557   8.977   6.028   5.355  0.1444  0.6019  0.0160
  242MOL0     C32558   8.922   6.111   5.480  0.1386 -0.2001 -0.3377
  242MOL0     O32559   8.890   6.023   5.594 -0.0385 -0.2746 -0.2219
  242MOL0     C32560   8.972   6.035   5.699  1.2363 -0.1188  0.1657
  242MOL0     C32561   8.919   6.085   5.810  0.2085  0.1021 -2.2422
  242MOL0     C32562   9.003   6.116   5.920  0.5961  0.0848  0.4217
  242MOL0     C32563   9.128   6.066   5.926 -0.4104  0.0063  0.1644
  242MOL0     C32564   9.198   6.060   6.058 -1.1005  0.8202  0.2173
  242MOL0     O32565   9.128   6.114   6.166 -0.4540  0.8623 -0.0870
  242MOL0     C32566   9.165   6.139   6.295 -0.5337  0.3316 -1.1283
  242MOL0     C32567   9.295   6.130   6.339  0.1043 -0.0786 -0.4699
  242MOL0     C32568   9.324   6.128   6.474  0.4517 -0.1836  0.1461
  242MOL0     C32569   9.230   6.178   6.562 -0.4434 -0.2806  0.3946
  242MOL0     O32570   9.284   6.175   6.687  0.4210 -0.0873  0.3954
  242MOL0     C32571   9.243   6.274   6.776 -0.0223 -0.3908 -0.0049
  242MOL0     C32572   9.291   6.426   6.750 -0.0662  0.0592  0.8370
  242MOL0     C32573   9.437   6.453   6.800 -0.2059 -1.0949  0.0946
  242MOL0     C32574   9.435   6.476   6.955  0.4405  0.3955  0.7704
  242MOL0     C32575   9.566   6.558   6.994  0.0778  1.7872 -1.0742
  242MOL0     C32576   9.691   6.479   6.978 -0.0027 -0.3512 -0.5006
  242MOL0     C32577   9.814   6.532   7.062 -0.6071  0.2502  0.1305
  242MOL0     C32578   9.950   6.486   7.017 -0.7617 -0.6662  0.0859
  242MOL0    Cl32579  10.060   6.566   7.129  0.3248 -0.2113  0.1107
  242MOL0     C32580   9.098   6.213   6.523 -1.5016  1.1278  1.3037
  242MOL0     C32581   9.064   6.189   6.382 -0.3120 -0.3673 -0.1107
  242MOL0     O32582   9.314   6.018   6.065 -0.5006 -0.5023  0.3133
  242MOL0     C32583   9.183   6.004   5.808 -0.4385  0.0775  0.4239
  242MOL0     C32584   9.106   5.995   5.692 -0.5237  0.5029  0.3093
  242MOL0     N32585   8.930   5.555   5.162 -0.3196  0.7285 -0.2248
  242MOL0     N32586   8.848   5.462   5.180  0.8970 -0.5684 -0.0972
  242MOL0     C32587   8.226   4.668   4.538 -0.2896 -0.5386  0.5270
  242MOL0     C32588   8.252   4.560   4.462 -0.4478  1.0006  0.6347
  242MOL0     C32589   8.369   4.207   4.238  0.3699  0.3808 -0.8026
  242MOL0     C32590   8.352   4.218   4.100 -0.4000 -0.3659  0.6582
  242MOL0     C32591   8.317   4.117   4.016  0.5095 -0.0691 -0.0323
  242MOL0     C32592   8.320   3.988   4.065 -0.0849  0.0239 -0.3278
  242MOL0     O32593   8.279   3.871   4.012 -0.2078 -0.5704  1.5033
  242MOL0     C32594   8.317   3.840   3.888 -0.2952 -0.3272  0.0694
  242MOL0     C32595   8.326   3.680   3.880  0.1942  0.0008  0.2119
  242MOL0     C32596   8.392   3.614   4.002  0.2944 -0.8547 -0.3831
  242MOL0     C32597   8.527   3.678   4.035 -0.0544  0.4443  0.3350
  242MOL0     C32598   8.631   3.650   3.931 -0.8932 -0.2429 -0.4283
  242MOL0     C32599   8.729   3.646   3.860  0.9900 -0.9765  1.3531
  242MOL0     C32600   8.345   3.967   4.202 -0.8204 -0.3033 -0.4593
  242MOL0     C32601   8.369   4.079   4.292 -0.5730  0.4982  0.2554
  242MOL0     C32602   8.380   4.053   4.437 -0.2277  0.1782  0.0296
  242MOL0     H32603   8.448   4.389   4.688  1.1062 -0.0700 -0.4963
  242MOL0     H32604   8.415   4.596   4.808  0.6282  4.1871  0.5286
  242MOL0     H32605   8.163   4.937   4.607  2.9325 -0.9579 -0.6955
  242MOL0     H32606   8.065   4.826   4.719 -1.6261  0.8898  1.6745
  242MOL0     H32607   8.111   4.968   4.902  3.0884  2.8241  2.6795
  242MOL0     H32608   8.061   5.069   4.775 -0.4076 -0.2128 -1.2267
  242MOL0     H32609   8.284   5.131   4.706  0.9802 -0.8571 -0.8170
  242MOL0     H32610   8.360   5.027   4.819  1.4098  1.8456 -2.0806
  242MOL0     H32611   8.194   5.268   4.907 -1.7249 -0.3887  1.3731
  242MOL0     H32612   8.252   5.138   5.017  0.2674 -0.7170  0.3369
  242MOL0     H32613   8.483   5.175   4.918 -1.1684 -1.7237  1.3737
  242MOL0     H32614   8.405   5.334   4.853  0.8152  0.4947  1.7217
  242MOL0     H32615   8.346   5.400   5.091  0.2848  1.0288  1.1722
  242MOL0     H32616   8.423   5.258   5.142 -1.2123  0.7083  1.7466
  242MOL0     H32617   8.555   5.511   4.994  3.7138  1.4964  0.9116
  242MOL0     H32618   8.626   5.352   5.002 -1.0907 -0.7780 -1.3605
  242MOL0     H32619   8.519   5.495   5.251 -1.9186 -1.1035 -3.1854
  242MOL0     H32620   8.611   5.357   5.255 -1.2691  0.7524  0.8628
  242MOL0     H32621   8.659   5.727   5.236  0.5531 -0.2189  0.5190
  242MOL0     H32622   9.042   5.795   5.225  0.3692  3.6504  0.4243
  242MOL0     H32623   8.914   5.865   5.125 -1.0788  0.4854  0.8599
  242MOL0     H32624   8.794   5.903   5.344 -0.8732 -2.6984 -3.9181
  242MOL0     H32625   8.920   5.831   5.433  1.1829  0.6719  0.5280
  242MOL0     H32626   8.964   6.087   5.264 -1.2201  4.4118  2.4375
  242MOL0     H32627   9.082   6.001   5.372 -0.2851 -2.1331 -1.1324
  242MOL0     H32628   8.831   6.167   5.456  0.1068  1.2334  2.6412
  242MOL0     H32629   9.002   6.183   5.501  1.1126 -0.3268 -3.0775
  242MOL0     H32630   8.813   6.108   5.809  0.1246 -0.1351 -0.8008
  242MOL0     H32631   8.961   6.171   6.003  2.6178 -0.2760  1.7517
  242MOL0     H32632   9.379   6.104   6.274 -0.6285 -0.5341 -1.2517
  242MOL0     H32633   9.422   6.098   6.511 -0.2819  0.5691  2.8350
  242MOL0     H32634   9.134   6.276   6.785  0.0982  1.1219  1.5663
  242MOL0     H32635   9.286   6.236   6.869 -0.8208 -0.3003  0.4057
  242MOL0     H32636   9.290   6.454   6.644  1.8048 -0.3782  0.6849
  242MOL0     H32637   9.214   6.488   6.799 -2.9136 -2.1111 -0.5653
  242MOL0     H32638   9.506   6.372   6.775  0.7819 -0.0040 -0.8262
  242MOL0     H32639   9.477   6.537   6.743  1.6516 -1.6146  0.5674
  242MOL0     H32640   9.426   6.379   7.005 -0.3001 -0.5258 -1.0548
  242MOL0     H32641   9.351   6.543   6.976  0.3934  1.1293 -1.4163
  242MOL0     H32642   9.560   6.573   7.102 -1.3508 -0.4478 -0.7825
  242MOL0     H32643   9.590   6.653   6.946  0.4744  2.6505  0.7753
  242MOL0     H32644   9.676   6.375   7.009 -0.9419  0.1474  0.8157
  242MOL0     H32645   9.715   6.484   6.871 -0.1999 -0.8050 -0.5671
  242MOL0     H32646   9.816   6.527   7.171  0.6435  2.7934  0.2969
  242MOL0     H32647   9.821   6.640   7.045  0.1797  0.3143  0.8549
  242MOL0     H32648   9.963   6.379   7.038  1.1714 -0.2811  1.1511
  242MOL0     H32649   9.976   6.510   6.913 -0.1683  1.8024  0.7523
  242MOL0     H32650   9.024   6.240   6.597 -1.0817  0.9096  1.8084
  242MOL0     H32651   8.964   6.200   6.343 -1.3431 -3.4718  1.3284
  242MOL0     H32652   9.276   5.949   5.798 -0.7139 -0.0367 -2.1902
  242MOL0     H32653   9.137   5.963   5.593 -5.0105 -0.1115 -1.1536
  242MOL0     H32654   8.167   4.744   4.488  0.0435  0.3411  1.4307
  242MOL0     H32655   8.209   4.549   4.363 -0.5238  1.5333  0.6073
  242MOL0     H32656   8.355   4.314   4.048  0.1922 -1.4576 -1.4353
  242MOL0     H32657   8.288   4.135   3.913  2.4726  1.2701 -0.4144
  242MOL0     H32658   8.418   3.881   3.896 -0.5271 -0.0569  3.0447
  242MOL0     H32659   8.248   3.890   3.821 -0.2392  0.1310  0.3483
  242MOL0     H32660   8.389   3.648   3.796  0.6176  1.8522 -0.2257
  242MOL0     H32661   8.225   3.643   3.861 -0.0879 -0.0737  1.7188
  242MOL0     H32662   8.436   3.515   3.992  0.8329 -0.8547  1.4385
  242MOL0     H32663   8.330   3.617   4.092 -1.8435 -0.8068 -1.7945
  242MOL0     H32664   8.527   3.786   4.057  1.8654  0.1712  2.0312
  242MOL0     H32665   8.572   3.639   4.127  1.0910  0.8799 -0.0131
  242MOL0     H32666   8.800   3.624   3.783 -1.9328 -1.0325 -1.5434
  242MOL0     H32667   8.341   3.863   4.230 -0.5913 -0.1999 -0.0398
  242MOL0     H32668   8.289   4.084   4.488 -0.0995  0.9924 -0.2108
  242MOL0     H32669   8.392   3.946   4.455  1.1530 -0.5940 -4.2332
  242MOL0     H32670   8.469   4.097   4.483 -1.4873  0.6785  2.0723
  243MOL0     O32671  11.222   8.270   5.728 -0.0393  0.3037 -0.5321
  243MOL0     C32672  11.221   8.225   5.614  0.0899 -0.0423  0.2791
  243MOL0     O32673  11.114   8.203   5.539  0.6380  0.1729  0.1124
  243MOL0     C32674  11.001   8.182   5.617  1.0510 -1.2834  0.4418
  243MOL0     C32675  10.898   8.280   5.627  0.0820 -0.8812  0.7966
  243MOL0     C32676  10.776   8.267   5.680 -0.1122 -0.0420  0.2345
  243MOL0     C32677  10.746   8.146   5.755 -0.6732 -0.8117  0.4442
  243MOL0     O32678  10.621   8.109   5.784  0.2364  0.2028 -0.3974
  243MOL0     C32679  10.518   8.212   5.799  0.4371 -1.0470  0.4002
  243MOL0     C32680  10.391   8.147   5.855 -0.4817 -0.2949 -0.5546
  243MOL0     C32681  10.289   8.250   5.914  0.2863 -0.1816 -0.1842
  243MOL0     C32682  10.140   8.204   5.923  1.0094  0.2996 -1.0690
  243MOL0     C32683  10.041   8.301   5.985 -0.0264 -0.2900 -0.1903
  243MOL0     C32684  10.000   8.405   5.889 -0.0864  0.3842  0.6932
  243MOL0     C32685   9.885   8.343   5.790 -0.1406  0.7565 -1.2163
  243MOL0     C32686   9.862   8.426   5.670 -0.3095 -0.6935  0.2065
  243MOL0     N32687   9.734   8.401   5.603  0.2627  0.3448 -0.3439
  243MOL0     C32688   9.719   8.361   5.473 -0.0600  0.4969  0.1926
  243MOL0     C32689   9.582   8.366   5.451  0.8455  0.0438  0.3233
  243MOL0     C32690   9.515   8.325   5.322  0.4100  0.4024  1.0558
  243MOL0     C32691   9.487   8.453   5.238 -0.8072  0.5309 -0.2722
  243MOL0     C32692   9.376   8.410   5.143  0.0097 -0.7511  0.0258
  243MOL0     C32693   9.337   8.532   5.055 -0.7528  0.5958 -0.7640
  243MOL0     O32694   9.323   8.488   4.920 -0.2820  0.8136  0.7408
  243MOL0     C32695   9.338   8.582   4.823 -0.3625 -0.5008  0.9031
  243MOL0     C32696   9.284   8.705   4.837  0.8858 -1.0348  0.3209
  243MOL0     C32697   9.274   8.788   4.725 -0.5274 -0.2792 -0.9825
  243MOL0     C32698   9.339   8.757   4.605 -0.4534 -0.2837  0.1629
  243MOL0     C32699   9.324   8.852   4.490 -0.1230  0.0535  0.2583
  243MOL0     O32700   9.226   8.947   4.484 -0.4624  0.1349  0.3276
  243MOL0     C32701   9.206   9.046   4.388 -0.2158 -1.0500 -0.9479
  243MOL0     C32702   9.076   9.087   4.348 -0.8403  0.0156  0.5222
  243MOL0     C32703   9.051   9.176   4.253 -0.1681  0.1599  0.8431
  243MOL0     C32704   9.159   9.242   4.189  0.1443 -0.6787 -0.3966
  243MOL0     O32705   9.146   9.331   4.087  0.1279  0.1216 -0.9066
  243MOL0     C32706   9.017   9.354   4.027  0.1701  1.4036 -0.3083
  243MOL0     C32707   9.034   9.455   3.912 -0.1207 -0.7709  0.2016
  243MOL0     C32708   9.040   9.591   3.968  0.3955  0.3689 -1.0847
  243MOL0     C32709   9.036   9.700   3.864 -0.0928  0.2321  0.9081
  243MOL0     C32710   9.022   9.846   3.925  0.3254 -0.0115 -0.1211
  243MOL0     C32711   8.974   9.956   3.836  0.1808 -0.0405 -0.2245
  243MOL0     C32712   9.043   9.981   3.700  0.5293 -1.1208  0.8605
  243MOL0     C32713   9.013  10.127   3.653 -0.0058  0.3649  0.2966
  243MOL0    Cl32714   8.834  10.140   3.625 -0.5001 -0.4556  0.5757
  243MOL0     C32715   9.291   9.213   4.235  0.1050 -0.8176  0.9123
  243MOL0     C32716   9.314   9.121   4.336  0.2862 -0.7630  0.5651
  243MOL0     O32717   9.393   8.821   4.394 -1.1488 -0.4774  0.4888
  243MOL0     C32718   9.399   8.630   4.597 -0.6014 -0.0488 -0.1936
  243MOL0     C32719   9.392   8.537   4.700 -0.9787  0.1105  0.5342
  243MOL0     N32720   9.519   8.401   5.569 -0.0818 -0.1547 -0.5869
  243MOL0     N32721   9.611   8.426   5.659  0.5834  0.1096 -0.1358
  243MOL0     C32722  10.852   8.047   5.757  0.2855 -0.3475 -0.0314
  243MOL0     C32723  10.973   8.062   5.679 -0.2303 -0.6320  0.0132
  243MOL0     C32724  11.344   8.234   5.539 -0.0687 -0.5738 -0.0860
  243MOL0     C32725  11.371   8.134   5.446  0.6296  0.5288 -0.3695
  243MOL0     C32726  11.476   8.129   5.360 -0.1061 -0.7133 -0.1609
  243MOL0     C32727  11.570   8.236   5.362  0.5336  0.9404  0.3537
  243MOL0     O32728  11.681   8.236   5.283  0.3801 -0.1046 -0.1068
  243MOL0     C32729  11.667   8.277   5.151 -0.6758  0.4563 -0.6618
  243MOL0     C32730  11.739   8.171   5.060 -0.3640  0.1850 -0.1876
  243MOL0     C32731  11.868   8.104   5.118 -1.8331 -0.1298 -0.5680
  243MOL0     C32732  11.902   7.964   5.049  0.5258  0.4088 -0.6298
  243MOL0     C32733  12.037   7.923   5.059 -0.6614  0.2659  0.1328
  243MOL0     C32734  12.142   7.866   5.051  0.1665  0.2612 -0.7496
  243MOL0     C32735  11.551   8.338   5.463 -0.9961 -0.4705  0.8772
  243MOL0     C32736  11.442   8.336   5.552 -0.8174 -0.9686 -0.1515
  243MOL0     C32737  11.449   8.451   5.667 -0.6057  1.3190  0.1829
  243MOL0     H32738  10.915   8.375   5.578  0.0494 -2.4776 -2.6292
  243MOL0     H32739  10.699   8.342   5.670 -0.6186 -0.3343  1.6224
  243MOL0     H32740  10.549   8.283   5.876 -1.1309  1.8107 -1.4346
  243MOL0     H32741  10.504   8.268   5.706 -1.0026  3.8829  3.2367
  243MOL0     H32742  10.415   8.074   5.933 -2.2460 -3.0932 -2.4290
  243MOL0     H32743  10.359   8.082   5.773  1.5536 -0.1607 -1.5120
  243MOL0     H32744  10.294   8.344   5.859  0.3700  1.4915  2.4881
  243MOL0     H32745  10.329   8.277   6.013  4.0812 -0.5486 -1.4302
  243MOL0     H32746  10.107   8.172   5.824 -0.1566  0.8321 -0.8777
  243MOL0     H32747  10.132   8.120   5.993 -1.7630  2.3251  1.3431
  243MOL0     H32748   9.952   8.244   6.015  0.4165 -0.2981  1.1875
  243MOL0     H32749  10.087   8.354   6.069  4.0506 -0.9725 -1.7442
  243MOL0     H32750   9.951   8.487   5.942 -0.5669 -0.9720  2.3991
  243MOL0     H32751  10.085   8.447   5.834 -0.9340  0.7298 -0.4012
  243MOL0     H32752   9.787   8.324   5.836  0.9135 -2.5995 -0.1343
  243MOL0     H32753   9.916   8.244   5.757 -0.2109  1.0785 -2.2925
  243MOL0     H32754   9.864   8.531   5.700 -1.8051 -0.3145 -0.8975
  243MOL0     H32755   9.943   8.416   5.597  0.6571  1.2997  0.9340
  243MOL0     H32756   9.788   8.320   5.400  0.5216 -1.1310  1.6005
  243MOL0     H32757   9.569   8.254   5.258  1.8288  1.9430  0.4660
  243MOL0     H32758   9.415   8.287   5.343 -1.2430  3.2885 -0.9126
  243MOL0     H32759   9.459   8.537   5.304 -4.0110  0.1030 -0.9516
  243MOL0     H32760   9.582   8.477   5.189 -1.5034 -1.0307 -2.4942
  243MOL0     H32761   9.284   8.370   5.186  0.0483 -0.8926 -0.0222
  243MOL0     H32762   9.419   8.334   5.076  3.8931  1.3196 -0.1240
  243MOL0     H32763   9.414   8.609   5.069  0.1428 -0.3563 -0.2607
  243MOL0     H32764   9.247   8.580   5.096  0.0193  0.8213  0.7793
  243MOL0     H32765   9.234   8.733   4.930  0.3406  2.6954 -0.9103
  243MOL0     H32766   9.219   8.881   4.738 -2.1928 -1.4081  0.6031
  243MOL0     H32767   8.992   9.030   4.387 -1.6923  0.1573 -1.0103
  243MOL0     H32768   8.948   9.200   4.229 -0.8450 -2.6319  0.5301
  243MOL0     H32769   8.992   9.253   3.993 -1.7799  1.2770  1.2470
  243MOL0     H32770   8.939   9.374   4.102 -1.9298  2.1359 -2.5443
  243MOL0     H32771   9.124   9.427   3.857  0.3722 -0.0885  0.6398
  243MOL0     H32772   8.949   9.447   3.844 -1.3553 -1.1197  1.7292
  243MOL0     H32773   8.967   9.602   4.049  1.3985 -0.7504  0.0057
  243MOL0     H32774   9.135   9.610   4.020 -1.2563  1.1853  1.8354
  243MOL0     H32775   8.946   9.680   3.805  0.4282 -2.8891  0.9641
  243MOL0     H32776   9.120   9.680   3.797 -0.9157 -0.3065 -0.0032
  243MOL0     H32777   9.118   9.889   3.955 -0.7465  2.0224  0.6302
  243MOL0     H32778   8.958   9.841   4.013  1.2911 -0.0275  0.5925
  243MOL0     H32779   8.871   9.925   3.814  0.0708 -0.0187  0.2430
  243MOL0     H32780   8.980  10.045   3.899  2.1447 -1.9532  2.5178
  243MOL0     H32781   9.003   9.905   3.633  0.7179 -0.7366  0.2970
  243MOL0     H32782   9.150   9.959   3.698  0.5330 -1.0781 -0.4857
  243MOL0     H32783   9.049  10.195   3.730 -3.7947 -0.2078  2.8784
  243MOL0     H32784   9.064  10.141   3.557  0.7178  1.3208  0.8170
  243MOL0     H32785   9.383   9.255   4.196 -1.7967  2.4576 -0.4608
  243MOL0     H32786   9.419   9.106   4.362  0.7045 -3.2616 -2.0936
  243MOL0     H32787   9.443   8.593   4.505 -0.4643  0.0170 -0.1559
  243MOL0     H32788   9.443   8.441   4.693 -0.8945  0.2872 -2.7074
  243MOL0     H32789  10.840   7.953   5.810 -1.5184  0.7333  1.5995
  243MOL0     H32790  11.041   7.978   5.668 -2.4047 -2.6484  0.9111
  243MOL0     H32791  11.296   8.056   5.441 -0.4875  1.5270  0.1030
  243MOL0     H32792  11.492   8.044   5.295  0.5767  0.3848 -1.4865
  243MOL0     H32793  11.717   8.370   5.123  1.8704 -1.3066 -2.3819
  243MOL0     H32794  11.563   8.292   5.121  0.4860  2.7394 -4.2436
  243MOL0     H32795  11.757   8.220   4.964 -0.9686 -2.3049 -1.6795
  243MOL0     H32796  11.664   8.092   5.052 -1.1203  0.4479  2.9853
  243MOL0     H32797  11.851   8.090   5.225  0.4330 -6.9934 -0.5828
  243MOL0     H32798  11.963   8.159   5.120 -0.1235 -2.8139 -1.2289
  243MOL0     H32799  11.855   7.881   5.103  0.0149  0.8465 -0.3874
  243MOL0     H32800  11.860   7.967   4.948 -1.3457 -0.3693  0.0738
  243MOL0     H32801  12.235   7.813   5.042  1.6957  2.4769  0.8947
  243MOL0     H32802  11.619   8.420   5.479  0.1442 -2.0290  5.3190
  243MOL0     H32803  11.539   8.433   5.725 -2.3757  0.3325  2.8267
  243MOL0     H32804  11.451   8.554   5.629  1.0182  0.8136 -1.2205
  243MOL0     H32805  11.355   8.454   5.724 -4.3148 -1.1286 -4.9787
  244MOL0     O32806   6.631   9.729   6.521 -0.0869  0.5278  0.2558
  244MOL0     C32807   6.714   9.731   6.428  0.8546  0.5625  1.1048
  244MOL0     O32808   6.750   9.840   6.361 -0.3873  0.8389 -0.1882
  244MOL0     C32809   6.751   9.953   6.437  0.0390  0.2558 -0.4274
  244MOL0     C32810   6.650  10.049   6.417 -0.1857 -0.4218 -0.3442
  244MOL0     C32811   6.646  10.163   6.493  0.8821  0.2339  0.0074
  244MOL0     C32812   6.747  10.202   6.578 -0.3904  0.0329 -0.1677
  244MOL0     O32813   6.749  10.323   6.630 -0.4858 -0.2641  0.5277
  244MOL0     C32814   6.817  10.344   6.755 -0.5638 -0.3715 -0.5773
  244MOL0     C32815   6.888  10.479   6.764 -1.1594  0.3050  0.3604
  244MOL0     C32816   6.790  10.596   6.739  0.1776 -0.5816  0.2382
  244MOL0     C32817   6.861  10.727   6.725  1.4940 -0.9063 -0.5423
  244MOL0     C32818   6.778  10.825   6.638  0.6184 -0.0915 -0.2570
  244MOL0     C32819   6.631  10.829   6.657  0.2816  0.0363 -1.1261
  244MOL0     C32820   6.567  10.931   6.566 -0.2112  0.5519  0.7484
  244MOL0     C32821   6.619  11.078   6.588 -0.1051 -0.1437 -0.0629
  244MOL0     N32822   6.726  11.121   6.498  0.1498  0.7080 -0.6464
  244MOL0     C32823   6.850  11.151   6.539  1.0385 -1.0620  0.6043
  244MOL0     C32824   6.919  11.177   6.429  0.5668 -0.3583  0.4876
  244MOL0     C32825   7.058  11.234   6.423  0.2982  0.2998  0.6711
  244MOL0     C32826   7.077  11.368   6.495 -0.3703 -0.4966  0.2891
  244MOL0     C32827   6.992  11.486   6.453  1.0749  0.7516  0.1906
  244MOL0     C32828   7.015  11.595   6.558  0.1913 -0.4276 -0.1318
  244MOL0     O32829   6.980  11.554   6.690 -0.1357  0.0541  0.6824
  244MOL0     C32830   6.853  11.501   6.710  0.5382  0.9870 -0.1282
  244MOL0     C32831   6.735  11.552   6.655 -0.1731  0.0332  0.2934
  244MOL0     C32832   6.610  11.501   6.686 -0.4606 -0.4626 -0.2089
  244MOL0     C32833   6.592  11.385   6.771  0.8953 -1.2051  0.1666
  244MOL0     C32834   6.452  11.338   6.791 -0.0545 -0.9180 -1.0949
  244MOL0     O32835   6.354  11.377   6.706  0.1811  0.4986  0.4205
  244MOL0     C32836   6.221  11.363   6.737 -0.1472  0.0538 -1.3781
  244MOL0     C32837   6.169  11.231   6.748  0.3952 -0.1040  0.2462
  244MOL0     C32838   6.024  11.214   6.765 -0.7795 -1.3088 -1.1798
  244MOL0     C32839   5.935  11.317   6.807  0.0227 -0.0584 -0.4468
  244MOL0     O32840   5.804  11.295   6.831  0.4293  0.6258 -0.6446
  244MOL0     C32841   5.754  11.164   6.865  0.3796  0.2775 -0.1137
  244MOL0     C32842   5.608  11.170   6.913  0.7348 -0.3648  0.1095
  244MOL0     C32843   5.606  11.208   7.062 -0.6115 -0.0621  0.9213
  244MOL0     C32844   5.466  11.267   7.099 -0.0769 -0.1341  0.1465
  244MOL0     C32845   5.477  11.357   7.225 -0.6453 -0.1072  0.6833
  244MOL0     C32846   5.535  11.277   7.347  0.7210  0.7990 -0.2205
  244MOL0     C32847   5.448  11.164   7.406 -0.0908  0.4611 -0.6841
  244MOL0     C32848   5.517  11.086   7.514 -0.5572 -0.2640  0.3149
  244MOL0    Cl32849   5.485  10.904   7.513  0.4658  0.1582  0.3155
  244MOL0     C32850   5.999  11.445   6.808  0.3572 -0.7486  0.2687
  244MOL0     C32851   6.129  11.467   6.767 -0.1341  0.3604  0.5149
  244MOL0     O32852   6.421  11.265   6.889 -0.9074  0.5997  0.7083
  244MOL0     C32853   6.707  11.339   6.826 -0.0066 -1.0538 -0.3033
  244MOL0     C32854   6.837  11.394   6.800  0.8127 -0.7414  0.7008
  244MOL0     N32855   6.838  11.172   6.316  0.1273  0.1422  0.4741
  244MOL0     N32856   6.722  11.129   6.361 -0.2716 -0.6026  0.5896
  244MOL0     C32857   6.855  10.102   6.601 -0.1308 -0.2966  0.2598
  244MOL0     C32858   6.858   9.984   6.527 -0.1964 -1.3539 -1.1660
  244MOL0     C32859   6.751   9.601   6.366  0.4326 -0.0681  0.1551
  244MOL0     C32860   6.733   9.492   6.457 -0.6010  1.0116  0.6968
  244MOL0     C32861   6.747   9.356   6.409 -0.3617  0.1648  0.8350
  244MOL0     C32862   6.768   9.330   6.277 -0.6799  0.4370 -0.3401
  244MOL0     O32863   6.777   9.197   6.243  0.0345  0.8023 -0.4352
  244MOL0     C32864   6.818   9.152   6.115  0.6985  0.0896  0.1814
  244MOL0     C32865   6.858   9.002   6.092  0.5477 -0.3779  0.2747
  244MOL0     C32866   6.996   8.980   6.133 -0.8846  0.3893 -0.5939
  244MOL0     C32867   7.074   8.893   6.030 -0.2616  0.1960 -0.6086
  244MOL0     C32868   7.103   8.948   5.894  0.7177  0.5830  0.9744
  244MOL0     C32869   7.140   8.981   5.780  0.8378  0.1468  0.1563
  244MOL0     C32870   6.772   9.437   6.182  0.8260 -1.1080 -0.3520
  244MOL0     C32871   6.763   9.572   6.223 -0.2122  0.1579  0.5287
  244MOL0     C32872   6.752   9.669   6.119  0.3706  0.6397  0.5723
  244MOL0     H32873   6.568  10.030   6.349  0.4634 -0.7615 -1.0435
  244MOL0     H32874   6.562  10.228   6.472 -0.7694 -1.1421  2.0154
  244MOL0     H32875   6.747  10.326   6.837 -3.5377  1.6489 -2.4895
  244MOL0     H32876   6.891  10.271   6.790 -0.5774  0.5807  1.6620
  244MOL0     H32877   6.975  10.480   6.698 -2.4129  2.0431 -1.4004
  244MOL0     H32878   6.932  10.473   6.864 -0.3083  1.0580  0.0484
  244MOL0     H32879   6.709  10.603   6.812  0.8025  0.3477  0.8696
  244MOL0     H32880   6.740  10.576   6.644  1.1964  1.1380 -0.7152
  244MOL0     H32881   6.867  10.771   6.825  0.5131  3.9061 -2.3627
  244MOL0     H32882   6.961  10.702   6.690 -0.0814 -4.4842 -3.1187
  244MOL0     H32883   6.822  10.924   6.653  1.3489 -0.4945  0.3077
  244MOL0     H32884   6.796  10.797   6.534 -0.5898  1.3866 -0.8838
  244MOL0     H32885   6.582  10.733   6.638  2.6764 -1.4141 -0.4573
  244MOL0     H32886   6.608  10.850   6.761  0.1517 -1.0310 -0.9316
  244MOL0     H32887   6.460  10.927   6.591 -0.6200  1.3261 -0.7872
  244MOL0     H32888   6.571  10.904   6.460  0.3691 -1.9230  1.3445
  244MOL0     H32889   6.530  11.138   6.566 -0.1810 -0.7683 -1.6527
  244MOL0     H32890   6.644  11.082   6.694  1.9262  0.7141 -0.5377
  244MOL0     H32891   6.874  11.175   6.642 -2.6914  0.6069  1.2746
  244MOL0     H32892   7.134  11.165   6.461 -0.0588  0.7406  2.2466
  244MOL0     H32893   7.082  11.252   6.318  1.7270 -2.0746  0.5205
  244MOL0     H32894   7.073  11.361   6.604  2.0949 -1.6520  0.3806
  244MOL0     H32895   7.175  11.406   6.465 -0.8581  0.3913 -0.2352
  244MOL0     H32896   6.891  11.445   6.448  1.1330  0.7565 -2.2764
  244MOL0     H32897   7.018  11.523   6.354  0.2423 -3.2632 -1.7514
  244MOL0     H32898   6.955  11.685   6.539  0.7021  0.1898  1.0200
  244MOL0     H32899   7.118  11.629   6.572  0.1294 -0.7563  1.2477
  244MOL0     H32900   6.730  11.639   6.591 -0.3434  1.1398  1.7551
  244MOL0     H32901   6.526  11.542   6.631 -1.1228 -2.8040 -1.0803
  244MOL0     H32902   6.232  11.143   6.737 -0.4375 -0.4834 -1.9041
  244MOL0     H32903   5.979  11.115   6.773  0.7575 -1.9759 -0.3079
  244MOL0     H32904   5.752  11.115   6.767  0.6782 -0.6787  0.3550
  244MOL0     H32905   5.816  11.108   6.935 -1.1398 -2.1141 -0.5633
  244MOL0     H32906   5.561  11.248   6.852  3.4971 -0.7459 -2.7841
  244MOL0     H32907   5.556  11.074   6.915  0.1137 -0.0207  0.8325
  244MOL0     H32908   5.632  11.126   7.128  1.7718  0.7886  1.1197
  244MOL0     H32909   5.689  11.273   7.089  1.6256 -3.5713  3.2348
  244MOL0     H32910   5.391  11.188   7.115 -1.7152  1.1366 -0.9825
  244MOL0     H32911   5.427  11.325   7.015 -2.1438 -1.3214  0.2040
  244MOL0     H32912   5.375  11.385   7.251 -0.6806 -0.7881  1.3193
  244MOL0     H32913   5.544  11.440   7.200  0.7556 -1.6400 -0.9936
  244MOL0     H32914   5.628  11.230   7.312  1.7410  2.3959  0.2526
  244MOL0     H32915   5.567  11.348   7.423  0.9821 -0.2303  0.6647
  244MOL0     H32916   5.424  11.102   7.320  2.1288 -0.9959 -0.3294
  244MOL0     H32917   5.357  11.206   7.450 -0.0010 -0.7865  0.7774
  244MOL0     H32918   5.625  11.099   7.498 -0.3711 -1.2374  0.6909
  244MOL0     H32919   5.501  11.132   7.611 -0.2617 -0.7479  0.6013
  244MOL0     H32920   5.943  11.529   6.849  1.4313  0.8793 -1.4653
  244MOL0     H32921   6.169  11.567   6.766 -0.3732  0.5766 -3.1829
  244MOL0     H32922   6.702  11.262   6.902  3.0206 -1.5502 -0.4729
  244MOL0     H32923   6.918  11.337   6.845 -0.0561 -0.5092  2.6599
  244MOL0     H32924   6.951  10.122   6.646  1.6998  0.9299 -3.7077
  244MOL0     H32925   6.948   9.924   6.529 -0.9844 -2.7672 -3.2840
  244MOL0     H32926   6.704   9.512   6.559 -2.9210  3.9406 -0.3969
  244MOL0     H32927   6.741   9.267   6.471 -0.0641 -1.7671 -1.7834
  244MOL0     H32928   6.898   9.208   6.066  0.1227  0.9566  0.2098
  244MOL0     H32929   6.738   9.188   6.049  2.0890  0.3527 -1.4314
  244MOL0     H32930   6.838   8.973   5.988  0.0315  0.8961 -0.0143
  244MOL0     H32931   6.787   8.947   6.154 -0.7790  2.5313  1.5282
  244MOL0     H32932   7.004   8.932   6.231 -0.9268  0.9829 -0.2896
  244MOL0     H32933   7.042   9.079   6.147  1.0809 -0.4967 -0.4410
  244MOL0     H32934   7.176   8.874   6.064 -0.2361  0.8935 -0.2964
  244MOL0     H32935   7.018   8.800   6.019  1.4324 -1.6143  3.7571
  244MOL0     H32936   7.166   9.016   5.682 -2.6315  1.8002 -0.3171
  244MOL0     H32937   6.785   9.418   6.076 -0.7561 -0.0217 -0.7759
  244MOL0     H32938   6.830   9.744   6.132  1.4316 -0.6848  2.4532
  244MOL0     H32939   6.748   9.639   6.014 -1.9258  2.8153 -0.0446
  244MOL0     H32940   6.652   9.714   6.122  0.4243  1.0985 -2.0932
  245MOL0     O32941   3.031   4.121   7.508 -0.1168 -0.2564 -0.7001
  245MOL0     C32942   3.043   4.186   7.401 -0.3559  0.2565 -1.0596
  245MOL0     O32943   3.049   4.323   7.384  0.3961  0.2526  0.0419
  245MOL0     C32944   3.064   4.413   7.490  0.4237  1.2736  0.1569
  245MOL0     C32945   2.967   4.419   7.589 -0.3255  0.6522  0.0568
  245MOL0     C32946   2.990   4.505   7.700  0.1819 -0.6771 -0.6073
  245MOL0     C32947   3.105   4.579   7.715  0.7898 -0.2433 -0.1538
  245MOL0     O32948   3.128   4.633   7.845  0.1201  0.5953 -0.8249
  245MOL0     C32949   3.256   4.700   7.861 -0.9769  0.0458  0.0933
  245MOL0     C32950   3.276   4.843   7.798  0.0134  0.2741 -0.6200
  245MOL0     C32951   3.195   4.964   7.839 -0.1944  0.9862  0.4314
  245MOL0     C32952   3.206   4.981   7.990  0.4347 -1.0507  0.7954
  245MOL0     C32953   3.101   5.082   8.040 -0.2275 -0.2477 -0.2667
  245MOL0     C32954   3.072   5.212   7.954 -0.8476  0.1200 -0.5637
  245MOL0     C32955   2.979   5.318   8.017  0.1570  0.7904  0.3300
  245MOL0     C32956   2.971   5.445   7.934 -0.2665 -0.4376  0.5785
  245MOL0     N32957   2.908   5.426   7.810 -0.5478 -0.5729 -1.2687
  245MOL0     C32958   2.972   5.405   7.687 -0.2069 -0.1652 -0.7035
  245MOL0     C32959   2.884   5.437   7.591 -0.6551 -0.1322 -0.1271
  245MOL0     C32960   2.902   5.466   7.446  0.5864 -0.4096 -0.3294
  245MOL0     C32961   2.960   5.343   7.381 -0.1136  0.1006  0.7079
  245MOL0     C32962   2.947   5.352   7.227 -0.1622 -1.2015 -0.2414
  245MOL0     C32963   2.815   5.338   7.149  0.5549  0.4558 -0.6073
  245MOL0     O32964   2.720   5.444   7.184  0.3397 -0.4419  0.1173
  245MOL0     C32965   2.591   5.429   7.144  0.2464 -0.3640  0.2578
  245MOL0     C32966   2.506   5.522   7.194  0.3208  0.5247 -0.2045
  245MOL0     C32967   2.371   5.534   7.162 -0.2369 -0.2983  0.4010
  245MOL0     C32968   2.315   5.433   7.079 -0.2323 -0.4937  0.6826
  245MOL0     C32969   2.170   5.436   7.053 -1.7069  0.1980  0.1658
  245MOL0     O32970   2.105   5.559   7.073 -0.4331  0.0646  0.6534
  245MOL0     C32971   1.973   5.557   7.053 -0.2875  0.4717  0.8688
  245MOL0     C32972   1.931   5.664   6.964  0.4556  0.3919 -0.5830
  245MOL0     C32973   1.802   5.676   6.932  0.3631  0.4818  0.7087
  245MOL0     C32974   1.709   5.588   6.985 -0.2544 -0.0543  0.1841
  245MOL0     O32975   1.573   5.584   6.964 -0.7650  0.3941 -0.0403
  245MOL0     C32976   1.534   5.630   6.834  0.8536 -0.0983 -0.3236
  245MOL0     C32977   1.404   5.575   6.797 -0.4079  0.1419 -0.5360
  245MOL0     C32978   1.289   5.616   6.895 -0.4466 -0.8026  0.9215
  245MOL0     C32979   1.145   5.606   6.849  0.1948 -0.0886  1.0123
  245MOL0     C32980   1.110   5.655   6.715  0.2038  0.2397 -0.2128
  245MOL0     C32981   1.118   5.804   6.702 -0.4002  0.5700 -0.5173
  245MOL0     C32982   1.027   5.856   6.582 -0.4215 -0.8001 -0.5067
  245MOL0     C32983   1.077   5.991   6.545 -0.1132  0.0498  0.3085
  245MOL0    Cl32984   0.954   6.082   6.447 -1.0574 -0.2631  0.4349
  245MOL0     C32985   1.756   5.492   7.079  0.5885 -0.5799 -0.1535
  245MOL0     C32986   1.886   5.472   7.114 -1.2767 -0.9895 -0.6830
  245MOL0     O32987   2.123   5.329   7.014  0.3768 -0.1861 -0.0586
  245MOL0     C32988   2.398   5.335   7.026  0.0012  0.5822  0.0170
  245MOL0     C32989   2.537   5.334   7.054 -0.4963 -0.4319 -0.3627
  245MOL0     N32990   2.771   5.469   7.661  0.2879 -0.2009 -0.0803
  245MOL0     N32991   2.792   5.482   7.778  0.5941 -0.6948 -0.6467
  245MOL0     C32992   3.202   4.580   7.599 -0.2689 -0.4758 -0.5866
  245MOL0     C32993   3.182   4.488   7.496 -0.2402  0.2551 -0.4082
  245MOL0     C32994   3.047   4.112   7.272 -0.5507 -0.0619  1.0940
  245MOL0     C32995   3.137   4.175   7.179  0.2101  0.0969 -0.8374
  245MOL0     C32996   3.155   4.107   7.057 -0.0652 -1.5654  0.0042
  245MOL0     C32997   3.087   3.993   7.014 -0.7595 -0.0395 -0.2884
  245MOL0     O32998   3.096   3.932   6.892 -0.7359  0.7118  0.2059
  245MOL0     C32999   3.178   3.994   6.785 -0.3314  0.8656  0.0322
  245MOL0     C33000   3.164   3.927   6.648 -1.3763 -0.9822  0.4490
  245MOL0     C33001   3.235   4.003   6.541  0.6157  0.0272  0.5007
  245MOL0     C33002   3.200   3.971   6.389  1.0868  1.0721 -0.8102
  245MOL0     C33003   3.052   3.961   6.371  0.3112  0.2832 -0.0252
  245MOL0     C33004   2.936   3.966   6.356  0.8000 -0.2472  0.8595
  245MOL0     C33005   3.004   3.930   7.112 -0.1892  0.2443  0.2308
  245MOL0     C33006   2.976   3.994   7.238 -0.3216  0.4090  0.2917
  245MOL0     C33007   2.867   3.917   7.317 -0.0587  0.0039  0.2375
  245MOL0     H33008   2.879   4.355   7.594 -1.0521  1.2965 -2.5464
  245MOL0     H33009   2.924   4.503   7.786  1.6980 -0.6050  0.5992
  245MOL0     H33010   3.285   4.691   7.966 -1.7484  0.7592  0.3784
  245MOL0     H33011   3.341   4.641   7.824  0.2495  0.7722  1.6496
  245MOL0     H33012   3.269   4.838   7.689  1.3886  1.8315 -0.8245
  245MOL0     H33013   3.384   4.855   7.810  0.2326 -1.7034 -0.3893
  245MOL0     H33014   3.090   4.956   7.809  0.5110  1.2757 -2.3230
  245MOL0     H33015   3.228   5.052   7.784  0.2123 -0.5010 -1.8162
  245MOL0     H33016   3.185   4.891   8.048 -2.1835  0.2965  2.1061
  245MOL0     H33017   3.302   5.029   8.007 -0.7785  0.4686  4.1145
  245MOL0     H33018   3.002   5.035   8.043 -0.0992 -0.4794  2.0450
  245MOL0     H33019   3.120   5.116   8.142  1.6188  1.5662 -1.1368
  245MOL0     H33020   3.163   5.272   7.941 -0.0787  0.2115  3.7631
  245MOL0     H33021   3.038   5.192   7.852  1.4639  0.8962 -1.5537
  245MOL0     H33022   3.025   5.336   8.114  1.2659 -2.2103  0.4523
  245MOL0     H33023   2.881   5.276   8.041 -0.9962  3.8628  1.4817
  245MOL0     H33024   2.914   5.526   7.980 -1.1619  0.2137 -1.5460
  245MOL0     H33025   3.070   5.487   7.913 -0.2524 -0.6755  0.1646
  245MOL0     H33026   3.078   5.383   7.685 -0.1100  0.1712  0.1608
  245MOL0     H33027   2.817   5.513   7.398  0.3154  0.0062  0.5412
  245MOL0     H33028   2.974   5.548   7.441  0.3229 -0.1032  0.6837
  245MOL0     H33029   3.065   5.336   7.409  0.5804 -1.3604 -1.9267
  245MOL0     H33030   2.910   5.251   7.414 -2.8549  1.6537  1.1595
  245MOL0     H33031   3.022   5.280   7.192  2.7398  0.8610  1.2873
  245MOL0     H33032   2.988   5.445   7.186  0.6650 -0.9522  1.0930
  245MOL0     H33033   2.766   5.243   7.173  0.1310  1.1336  1.3689
  245MOL0     H33034   2.852   5.349   7.047  1.7817 -1.9079 -0.4692
  245MOL0     H33035   2.552   5.596   7.258  1.2172  1.4504 -1.8674
  245MOL0     H33036   2.314   5.620   7.198  3.5132  3.1229 -1.0901
  245MOL0     H33037   2.007   5.735   6.931  2.0558 -1.1146 -0.2458
  245MOL0     H33038   1.780   5.751   6.856  0.6551  0.6956  0.8307
  245MOL0     H33039   1.519   5.739   6.832 -1.1912 -0.2793  1.3189
  245MOL0     H33040   1.599   5.598   6.753 -0.1277  0.2589 -1.2766
  245MOL0     H33041   1.379   5.615   6.698 -3.2955  0.8551  0.3997
  245MOL0     H33042   1.414   5.466   6.795  1.5343  0.2348 -4.2835
  245MOL0     H33043   1.302   5.566   6.991 -1.3134 -0.9984  0.9482
  245MOL0     H33044   1.291   5.720   6.931 -5.5178 -0.5361  1.1039
  245MOL0     H33045   1.088   5.665   6.921 -0.1687 -1.4313  1.8743
  245MOL0     H33046   1.125   5.498   6.855  2.8974 -0.8847 -1.7140
  245MOL0     H33047   1.009   5.618   6.695  1.1121 -1.6973 -1.5201
  245MOL0     H33048   1.166   5.611   6.632 -0.8319 -0.2801 -0.6515
  245MOL0     H33049   1.097   5.844   6.801 -0.5528 -0.4371 -0.1314
  245MOL0     H33050   1.221   5.828   6.674 -0.0210 -0.0785  0.2933
  245MOL0     H33051   0.932   5.870   6.636 -0.4708  0.2911 -0.8627
  245MOL0     H33052   1.017   5.787   6.498 -1.7905 -2.6719  1.0840
  245MOL0     H33053   1.100   6.043   6.639  0.5183 -0.5053  0.4759
  245MOL0     H33054   1.175   5.989   6.495 -0.4036  1.3073 -0.3496
  245MOL0     H33055   1.678   5.440   7.134 -3.4056  2.2933 -2.5205
  245MOL0     H33056   1.921   5.398   7.185 -1.1667 -1.0665 -0.8189
  245MOL0     H33057   2.359   5.250   6.971  1.2940  0.9442 -1.5409
  245MOL0     H33058   2.611   5.266   7.011  1.5521  1.0592  0.6425
  245MOL0     H33059   3.296   4.632   7.611 -1.1620  0.9512  0.5938
  245MOL0     H33060   3.252   4.487   7.413 -0.1319 -1.4988 -0.3359
  245MOL0     H33061   3.186   4.270   7.197 -3.1272  1.7548  0.4589
  245MOL0     H33062   3.233   4.149   6.994 -0.2995  1.8725  1.7307
  245MOL0     H33063   3.285   4.006   6.802  0.2199 -0.3787 -2.2071
  245MOL0     H33064   3.126   4.090   6.775 -0.7794  0.6756  0.4659
  245MOL0     H33065   3.059   3.922   6.620 -0.8931 -3.0510 -1.3131
  245MOL0     H33066   3.209   3.827   6.649  1.0499  0.0256  0.4291
  245MOL0     H33067   3.341   3.984   6.559  0.0996 -6.4047 -0.9016
  245MOL0     H33068   3.233   4.111   6.560  0.8768  0.4288 -1.4775
  245MOL0     H33069   3.245   4.043   6.320 -0.4465  1.4270 -1.5058
  245MOL0     H33070   3.257   3.881   6.365  1.8285  0.4450  2.7391
  245MOL0     H33071   2.830   3.964   6.343  1.1046  0.1916 -2.6917
  245MOL0     H33072   2.950   3.836   7.107 -1.2477  0.7031  2.0582
  245MOL0     H33073   2.898   3.874   7.413 -5.5022 -0.1914  2.2325
  245MOL0     H33074   2.788   3.980   7.359 -1.9229 -3.6416  2.7569
  245MOL0     H33075   2.822   3.838   7.258  0.8372 -0.1803 -0.2162
  246MOL0     O33076  11.461   1.838   9.263 -0.8349 -0.4833  0.6177
  246MOL0     C33077  11.535   1.747   9.223  0.8626 -0.4238 -0.0403
  246MOL0     O33078  11.530   1.617   9.263  0.4880 -0.2040  0.1483
  246MOL0     C33079  11.430   1.570   9.343 -0.0429  0.0954  0.2994
  246MOL0     C33080  11.392   1.637   9.460  0.7842  0.3124 -0.2600
  246MOL0     C33081  11.298   1.571   9.544 -0.0206 -0.5727 -0.0274
  246MOL0     C33082  11.233   1.453   9.509 -0.5000 -0.1960  0.4682
  246MOL0     O33083  11.136   1.406   9.592 -0.4074 -0.4970  0.1406
  246MOL0     C33084  11.099   1.267   9.593  0.1954  0.0751 -0.6281
  246MOL0     C33085  10.994   1.245   9.711 -1.0907  0.1765  0.2358
  246MOL0     C33086  10.954   1.089   9.715  0.3440 -0.1008  0.9543
  246MOL0     C33087  10.822   1.064   9.803 -1.3672 -0.2811  0.2255
  246MOL0     C33088  10.779   0.920   9.789 -0.7679 -0.5288  0.4821
  246MOL0     C33089  10.630   0.907   9.834 -0.2963 -0.2136 -0.4761
  246MOL0     C33090  10.571   0.764   9.803 -0.2627  0.2354 -0.2471
  246MOL0     C33091  10.652   0.652   9.869  0.1300  0.2084 -0.5353
  246MOL0     N33092  10.583   0.524   9.868  0.3522 -1.0598  0.3322
  246MOL0     C33093  10.505   0.470   9.768 -0.3965 -0.4640  0.5522
  246MOL0     C33094  10.477   0.340   9.800 -0.4864 -0.3657  0.3338
  246MOL0     C33095  10.400   0.232   9.731 -0.6564 -0.2942 -1.4405
  246MOL0     C33096  10.252   0.247   9.705 -0.3908  0.7907 -0.3945
  246MOL0     C33097  10.168   0.219   9.833  0.2199 -0.2865  0.8368
  246MOL0     C33098  10.014   0.190   9.804 -0.1278 -0.0200  0.0136
  246MOL0     O33099   9.976   0.057   9.787  0.2024  0.7531  0.4260
  246MOL0     C33100   9.982   0.000   9.667 -1.3400 -0.0496 -0.3745
  246MOL0     C33101  10.107  -0.062   9.634 -0.8704 -0.0676  0.5545
  246MOL0     C33102  10.122  -0.111   9.497  0.0637  0.5265  0.6611
  246MOL0     C33103  10.020  -0.093   9.397 -0.2036  0.1292  1.0142
  246MOL0     C33104  10.038  -0.140   9.254  1.1121  0.4037  1.0998
  246MOL0     O33105  10.158  -0.209   9.223 -0.1547  0.1500 -0.2488
  246MOL0     C33106  10.160  -0.285   9.107  0.4308 -0.9614 -0.0421
  246MOL0     C33107  10.269  -0.291   9.024  0.8141  0.4487  0.4184
  246MOL0     C33108  10.263  -0.365   8.904 -0.0648  0.5547 -0.0696
  246MOL0     C33109  10.157  -0.443   8.875  0.3700  0.4468 -0.6130
  246MOL0     O33110  10.149  -0.525   8.770  0.6296 -0.3759 -0.1547
  246MOL0     C33111  10.192  -0.460   8.653 -1.2804 -0.3909 -1.0976
  246MOL0     C33112  10.141  -0.547   8.538  0.0823 -0.8593  0.1459
  246MOL0     C33113   9.983  -0.553   8.523  0.1671  1.0010  0.3690
  246MOL0     C33114   9.950  -0.644   8.403  0.1547 -0.1734 -0.1143
  246MOL0     C33115   9.805  -0.687   8.391  0.0615  0.8690  0.6267
  246MOL0     C33116   9.769  -0.770   8.272  0.1519 -0.1646 -0.1909
  246MOL0     C33117   9.807  -0.920   8.282  0.9195  0.0394 -0.2075
  246MOL0     C33118   9.717  -1.004   8.194 -0.0158 -0.0484  0.5109
  246MOL0    Cl33119   9.734  -1.178   8.242  0.5701  0.0147 -0.0899
  246MOL0     C33120  10.051  -0.452   8.973  0.2804 -1.3863 -0.0153
  246MOL0     C33121  10.055  -0.374   9.086 -0.5476 -1.0189  0.3704
  246MOL0     O33122   9.949  -0.103   9.174  0.8016  0.7393 -0.2876
  246MOL0     C33123   9.896  -0.041   9.441  0.1063  0.3939 -0.4052
  246MOL0     C33124   9.890   0.015   9.566  0.1594 -0.9467  0.0216
  246MOL0     N33125  10.542   0.316   9.926 -0.7297 -0.4381  0.1470
  246MOL0     N33126  10.600   0.427   9.958 -0.6923  0.4339 -0.1424
  246MOL0     C33127  11.267   1.392   9.387 -0.2679  0.4765  0.1555
  246MOL0     C33128  11.359   1.450   9.306  0.0426 -0.2156 -0.6535
  246MOL0     C33129  11.651   1.777   9.136  0.8684  0.4265 -0.0916
  246MOL0     C33130  11.680   1.678   9.040  0.6006 -0.1148 -0.7988
  246MOL0     C33131  11.795   1.685   8.962  0.5697  0.1644 -0.0917
  246MOL0     C33132  11.880   1.792   8.980 -0.2639 -0.0592  0.8492
  246MOL0     O33133  11.986   1.796   8.889  0.1517  0.1772 -0.6633
  246MOL0     C33134  12.122   1.800   8.937 -0.3467 -0.3516 -0.3404
  246MOL0     C33135  12.210   1.681   8.892 -0.3959 -0.0371  0.3144
  246MOL0     C33136  12.173   1.542   8.948 -0.5323 -0.3171 -0.3199
  246MOL0     C33137  12.221   1.512   9.088 -0.7539  0.2085  0.8590
  246MOL0     C33138  12.150   1.401   9.158  0.0912 -0.4763  0.6328
  246MOL0     C33139  12.081   1.325   9.221 -0.5087 -0.8946 -0.5466
  246MOL0     C33140  11.842   1.894   9.064 -0.1129  0.8329 -0.0516
  246MOL0     C33141  11.727   1.888   9.149  0.2023 -0.9360 -0.5719
  246MOL0     C33142  11.718   1.996   9.259  0.9921  0.3516  0.9508
  246MOL0     H33143  11.443   1.732   9.474  1.8631 -0.2267 -0.4946
  246MOL0     H33144  11.263   1.628   9.630  0.7391 -3.6099  2.4558
  246MOL0     H33145  11.061   1.233   9.496 -3.4053  1.9534 -0.0798
  246MOL0     H33146  11.185   1.204   9.614  1.3613  1.8611  0.1449
  246MOL0     H33147  10.909   1.311   9.694  0.7855  2.0423 -2.9287
  246MOL0     H33148  11.046   1.271   9.803 -3.0543 -0.7774  1.6877
  246MOL0     H33149  11.035   1.018   9.731 -1.7388 -2.8200  0.3669
  246MOL0     H33150  10.928   1.065   9.611  1.0610  0.6742  0.5813
  246MOL0     H33151  10.843   1.084   9.908 -0.0691  2.6559 -0.4720
  246MOL0     H33152  10.747   1.135   9.766 -1.3176  0.0237  0.7058
  246MOL0     H33153  10.793   0.889   9.685 -0.9315  1.4092 -0.1549
  246MOL0     H33154  10.841   0.859   9.855 -3.4742  0.0306  3.8493
  246MOL0     H33155  10.626   0.925   9.942 -1.1894 -1.1059 -0.3445
  246MOL0     H33156  10.566   0.973   9.777 -3.2887 -2.3448  0.1694
  246MOL0     H33157  10.569   0.731   9.699  1.7848  0.3516 -0.3713
  246MOL0     H33158  10.472   0.767   9.849  0.4247 -3.1371  1.7954
  246MOL0     H33159  10.748   0.653   9.818  0.7068 -0.1651  0.5009
  246MOL0     H33160  10.662   0.677   9.975 -1.0674  2.6218 -0.9136
  246MOL0     H33161  10.486   0.506   9.667  1.0164 -0.9160  0.1110
  246MOL0     H33162  10.455   0.227   9.636 -0.5864 -1.1350 -1.3711
  246MOL0     H33163  10.427   0.143   9.789 -0.7752 -0.3759 -1.5102
  246MOL0     H33164  10.237   0.351   9.676  0.2584  0.5090 -1.8151
  246MOL0     H33165  10.222   0.188   9.618 -0.5162  0.7367 -0.3146
  246MOL0     H33166  10.181   0.300   9.905 -0.5250  0.7715 -0.1862
  246MOL0     H33167  10.218   0.131   9.875  2.1070 -0.2773 -1.2050
  246MOL0     H33168   9.982   0.243   9.713 -1.5451  4.7747  2.9333
  246MOL0     H33169   9.944   0.227   9.880 -1.5302 -1.3663 -0.5445
  246MOL0     H33170  10.196  -0.062   9.696 -0.2108  1.0707 -0.3439
  246MOL0     H33171  10.218  -0.155   9.468 -0.2646 -1.6284  2.5708
  246MOL0     H33172  10.359  -0.235   9.048  1.3390  0.4785 -1.4427
  246MOL0     H33173  10.341  -0.359   8.829 -1.2129  1.2804 -1.2482
  246MOL0     H33174  10.159  -0.356   8.650  3.9268  1.7177  1.4914
  246MOL0     H33175  10.300  -0.462   8.635 -0.8216 -1.5094  1.3998
  246MOL0     H33176  10.176  -0.501   8.445 -2.1110 -2.2654 -1.4716
  246MOL0     H33177  10.185  -0.647   8.528 -0.3887 -1.0496 -0.0096
  246MOL0     H33178   9.943  -0.606   8.609  2.0484  0.3291  0.8831
  246MOL0     H33179   9.939  -0.455   8.501 -0.6660  1.4759  3.6293
  246MOL0     H33180  10.011  -0.735   8.403  0.9694  0.3511  0.7116
  246MOL0     H33181   9.973  -0.590   8.311 -0.5665  0.2270 -0.0658
  246MOL0     H33182   9.740  -0.599   8.400 -2.9451 -0.6327 -3.4669
  246MOL0     H33183   9.790  -0.744   8.483  0.5998 -1.5921 -0.7250
  246MOL0     H33184   9.660  -0.763   8.264 -0.3561 -4.8463 -0.5229
  246MOL0     H33185   9.825  -0.727   8.189  2.7918  1.1149  2.0885
  246MOL0     H33186   9.804  -0.950   8.387  1.6112  1.6930  0.3289
  246MOL0     H33187   9.912  -0.938   8.257  0.9586  0.8959 -0.7136
  246MOL0     H33188   9.614  -0.973   8.213 -0.2452 -1.6662  2.1482
  246MOL0     H33189   9.744  -0.978   8.091 -1.7758  0.9030  0.2517
  246MOL0     H33190   9.969  -0.522   8.973 -0.2070 -0.8449  1.0306
  246MOL0     H33191   9.978  -0.389   9.161 -1.2141 -0.3982 -0.1741
  246MOL0     H33192   9.822  -0.037   9.362  0.2244 -7.1538 -1.7222
  246MOL0     H33193   9.800   0.072   9.586  0.9519 -0.2769  1.9951
  246MOL0     H33194  11.222   1.304   9.344  0.8996  1.0643 -2.4562
  246MOL0     H33195  11.390   1.396   9.216  1.4597  0.4526 -0.5840
  246MOL0     H33196  11.613   1.594   9.028 -1.0089  0.8073  1.1339
  246MOL0     H33197  11.808   1.605   8.889  0.4742  0.6102 -0.6063
  246MOL0     H33198  12.131   1.801   9.046  1.1165  1.7998 -0.4179
  246MOL0     H33199  12.179   1.885   8.897 -1.4686 -0.4388 -2.2410
  246MOL0     H33200  12.310   1.701   8.933 -0.3679 -0.4030  0.4288
  246MOL0     H33201  12.213   1.678   8.783 -0.2643 -0.8508  0.3338
  246MOL0     H33202  12.202   1.457   8.886 -4.3313 -0.6604 -1.9037
  246MOL0     H33203  12.064   1.548   8.952 -0.4965  0.0863  0.0912
  246MOL0     H33204  12.329   1.497   9.074 -0.5072  1.1612  1.6335
  246MOL0     H33205  12.204   1.603   9.145 -1.7383  1.1970 -0.9534
  246MOL0     H33206  12.017   1.256   9.272  1.2078 -0.5538  2.3531
  246MOL0     H33207  11.894   1.989   9.057 -1.1918  1.5408  1.0167
  246MOL0     H33208  11.749   2.094   9.220  1.7599  0.1441  1.0214
  246MOL0     H33209  11.621   1.989   9.309  0.3481 -1.8216 -0.4641
  246MOL0     H33210  11.793   1.982   9.337  2.0354  0.6224  0.0368
  247MOL0     O33211   4.758   6.635  11.099  0.3431 -0.4162  0.0756
  247MOL0     C33212   4.755   6.650  10.979 -0.1956  0.4081  0.8420
  247MOL0     O33213   4.676   6.737  10.910  0.2648  0.3854 -0.4889
  247MOL0     C33214   4.586   6.820  10.977 -0.9015  0.3211  0.2592
  247MOL0     C33215   4.642   6.934  11.036 -0.2752  0.0248  0.1336
  247MOL0     C33216   4.558   7.020  11.116 -0.0567  0.4455 -0.0283
  247MOL0     C33217   4.419   6.996  11.130 -0.8437 -0.0644 -0.4630
  247MOL0     O33218   4.352   7.078  11.217 -0.4590 -0.7014 -0.1497
  247MOL0     C33219   4.216   7.085  11.207  0.5192  0.5842 -0.2810
  247MOL0     C33220   4.162   7.198  11.296 -0.2235  0.6269  0.3672
  247MOL0     C33221   4.162   7.183  11.442 -0.9397  0.1716 -0.3343
  247MOL0     C33222   4.301   7.135  11.510 -0.0294 -0.3924  0.3535
  247MOL0     C33223   4.299   7.145  11.666  0.1415  0.1591 -0.2219
  247MOL0     C33224   4.418   7.072  11.741 -0.6323  0.0828  1.0175
  247MOL0     C33225   4.425   7.102  11.889  0.4041  1.1018  0.9510
  247MOL0     C33226   4.314   7.040  11.972  0.0613 -0.3181  0.1783
  247MOL0     N33227   4.330   6.900  12.002  0.2772  0.1464 -0.3931
  247MOL0     C33228   4.359   6.849  12.129 -0.8148  1.0196 -0.7659
  247MOL0     C33229   4.308   6.726  12.133  0.5174 -0.1896 -0.1831
  247MOL0     C33230   4.313   6.633  12.241  0.0368 -0.7855  0.0616
  247MOL0     C33231   4.461   6.602  12.259 -0.3957  0.6235  0.5124
  247MOL0     C33232   4.474   6.502  12.378 -0.1637  0.5700 -0.1814
  247MOL0     C33233   4.611   6.431  12.376  0.4884  0.0353  0.5510
  247MOL0     O33234   4.604   6.305  12.443  0.3138  1.0312  0.0323
  247MOL0     C33235   4.720   6.232  12.467 -0.2382 -0.5116 -0.3471
  247MOL0     C33236   4.720   6.088  12.452  0.0523 -0.2599  0.2945
  247MOL0     C33237   4.821   6.005  12.489 -0.2749 -0.1207  0.7894
  247MOL0     C33238   4.937   6.056  12.529  0.7947  1.2708 -0.6942
  247MOL0     C33239   5.052   5.967  12.554 -0.4042 -0.9626 -0.1013
  247MOL0     O33240   5.161   6.029  12.611  0.4413  1.1036 -0.1980
  247MOL0     C33241   5.256   5.948  12.668 -0.2640 -0.1365 -0.3675
  247MOL0     C33242   5.368   6.029  12.702  0.1629 -0.1822  0.3294
  247MOL0     C33243   5.486   5.986  12.767  0.4316 -0.4089  0.3155
  247MOL0     C33244   5.498   5.849  12.800  1.7671 -0.9151  0.1637
  247MOL0     O33245   5.614   5.794  12.838 -0.0685 -0.0413 -0.0705
  247MOL0     C33246   5.733   5.852  12.786 -0.0861 -0.5022  0.5597
  247MOL0     C33247   5.851   5.768  12.806 -0.4433  0.1902  0.7034
  247MOL0     C33248   5.840   5.621  12.739 -0.0366 -0.3934 -0.1261
  247MOL0     C33249   5.810   5.631  12.587 -0.2860  0.8555 -0.0934
  247MOL0     C33250   5.836   5.493  12.519 -1.1675  0.5432 -0.0249
  247MOL0     C33251   5.982   5.460  12.511 -1.1253 -0.0272 -0.0738
  247MOL0     C33252   6.018   5.356  12.411  0.0146 -0.5268  0.0866
  247MOL0     C33253   6.065   5.230  12.480 -0.2659  0.1957 -0.3313
  247MOL0    Cl33254   6.234   5.246  12.540  0.1214 -0.5504 -0.2069
  247MOL0     C33255   5.388   5.768  12.765 -0.6360  0.0985  0.4829
  247MOL0     C33256   5.273   5.810  12.691 -0.3006 -0.0514 -0.8983
  247MOL0     O33257   5.031   5.847  12.549 -0.2869  0.3680  0.1162
  247MOL0     C33258   4.948   6.189  12.558  0.1029 -0.2985  1.0529
  247MOL0     C33259   4.835   6.280  12.528  0.2132 -0.5179 -0.3380
  247MOL0     N33260   4.248   6.690  12.008 -0.1838  0.1891 -0.4859
  247MOL0     N33261   4.261   6.799  11.934 -0.5577  0.0792  0.5016
  247MOL0     C33262   4.361   6.881  11.062 -0.4258 -0.7453  0.1181
  247MOL0     C33263   4.445   6.803  10.982 -0.6253 -0.1519  0.1579
  247MOL0     C33264   4.857   6.572  10.896  0.6551  1.5155 -0.8941
  247MOL0     C33265   4.903   6.635  10.776 -0.2351 -0.6795 -0.1385
  247MOL0     C33266   5.002   6.571  10.702 -0.0536 -0.6623 -0.3551
  247MOL0     C33267   5.052   6.446  10.744 -0.4886 -0.6831  0.7294
  247MOL0     O33268   5.166   6.406  10.663  0.6803 -0.4955 -0.4261
  247MOL0     C33269   5.290   6.487  10.643 -0.5317 -0.5007 -0.0749
  247MOL0     C33270   5.397   6.393  10.598  0.0304  0.8369  0.4159
  247MOL0     C33271   5.377   6.370  10.440 -0.3998  0.7237 -0.7568
  247MOL0     C33272   5.481   6.307  10.369 -0.4743  0.5012 -0.4058
  247MOL0     C33273   5.522   6.184  10.430 -0.5344  0.7927  0.0948
  247MOL0     C33274   5.570   6.087  10.485 -0.0188  0.1833 -0.2159
  247MOL0     C33275   5.003   6.383  10.849 -0.1128 -0.2433 -0.9151
  247MOL0     C33276   4.912   6.448  10.936  0.3233  0.0235  0.3326
  247MOL0     C33277   4.892   6.373  11.062 -0.2082 -0.7418 -0.1821
  247MOL0     H33278   4.750   6.946  11.038 -0.2978  0.1992  0.3126
  247MOL0     H33279   4.604   7.102  11.170 -3.7516  2.6721  0.0404
  247MOL0     H33280   4.181   7.100  11.105 -2.1081  2.2834  0.7570
  247MOL0     H33281   4.168   6.999  11.255 -1.1279  1.1046 -0.9272
  247MOL0     H33282   4.057   7.213  11.272 -0.1066 -1.4324 -1.7130
  247MOL0     H33283   4.212   7.293  11.274  2.5112 -0.4548  1.3952
  247MOL0     H33284   4.081   7.120  11.480  1.4750 -3.7667 -1.2013
  247MOL0     H33285   4.144   7.283  11.483  0.9255 -0.1798  1.5149
  247MOL0     H33286   4.337   7.033  11.496 -0.0213 -0.0682 -2.5045
  247MOL0     H33287   4.382   7.195  11.468 -2.0478 -0.1147 -3.5404
  247MOL0     H33288   4.283   7.246  11.705  1.2254  1.0027 -1.8672
  247MOL0     H33289   4.205   7.095  11.692 -1.0959  1.9822 -0.9124
  247MOL0     H33290   4.411   6.965  11.717  0.8710  0.2453 -0.3920
  247MOL0     H33291   4.514   7.105  11.700 -0.7289 -0.6088  0.2107
  247MOL0     H33292   4.443   7.209  11.906 -0.9179  1.2133  1.7230
  247MOL0     H33293   4.515   7.053  11.928  0.8965 -1.3233 -2.7546
  247MOL0     H33294   4.312   7.086  12.071  1.4302 -0.6996  0.4006
  247MOL0     H33295   4.214   7.062  11.931  0.1264 -2.0110 -0.9508
  247MOL0     H33296   4.404   6.898  12.215  4.1335  0.3712 -2.6323
  247MOL0     H33297   4.268   6.668  12.335 -2.9170 -3.5596 -0.1402
  247MOL0     H33298   4.261   6.544  12.206 -0.3302 -0.6201  0.1786
  247MOL0     H33299   4.501   6.552  12.171 -0.9770 -0.8694  1.0704
  247MOL0     H33300   4.524   6.691  12.273  1.8063 -0.1992 -3.0099
  247MOL0     H33301   4.384   6.441  12.369 -1.7562  2.5546  1.2964
  247MOL0     H33302   4.460   6.535  12.481 -1.0768 -1.0328  0.2462
  247MOL0     H33303   4.688   6.490  12.427  0.1469 -0.7295  1.9808
  247MOL0     H33304   4.637   6.424  12.270  1.3508  1.4945  0.6384
  247MOL0     H33305   4.626   6.041  12.423  1.6188 -2.9493 -0.7449
  247MOL0     H33306   4.805   5.899  12.473 -2.7198  0.2745  0.3184
  247MOL0     H33307   5.346   6.130  12.670 -0.9269 -0.9105 -1.3505
  247MOL0     H33308   5.563   6.058  12.790  1.5019 -2.1361  2.4537
  247MOL0     H33309   5.727   5.852  12.676 -0.8678  2.4564  0.5032
  247MOL0     H33310   5.741   5.951  12.833  0.4193 -0.9119  1.3534
  247MOL0     H33311   5.939   5.822  12.771 -0.7739  0.1626 -0.2010
  247MOL0     H33312   5.863   5.765  12.915 -2.0906  1.7951  0.9926
  247MOL0     H33313   5.935   5.573  12.766  0.8541  2.3275  2.0201
  247MOL0     H33314   5.759   5.566  12.788 -0.1863  0.0118  0.0883
  247MOL0     H33315   5.867   5.715  12.546  2.0298 -0.0598  1.0751
  247MOL0     H33316   5.705   5.660  12.575  0.3954  2.6640 -2.4683
  247MOL0     H33317   5.788   5.496  12.421  0.4934 -1.7014 -1.0064
  247MOL0     H33318   5.785   5.409  12.566 -2.9610 -0.9066 -4.1035
  247MOL0     H33319   6.043   5.545  12.478 -1.5329  0.8019  1.2234
  247MOL0     H33320   6.020   5.431  12.610 -2.1705 -0.5191  0.1927
  247MOL0     H33321   6.092   5.396  12.341  1.0459 -1.3362  0.6849
  247MOL0     H33322   5.930   5.326  12.353 -0.1101  1.7326 -0.9898
  247MOL0     H33323   6.001   5.211  12.566 -1.3992  2.3406 -0.6319
  247MOL0     H33324   6.059   5.141  12.417 -1.6448 -0.6582  0.9525
  247MOL0     H33325   5.415   5.665  12.783  1.5510  0.4574 -0.4489
  247MOL0     H33326   5.202   5.730  12.674 -2.0035  0.2104  3.6418
  247MOL0     H33327   5.041   6.238  12.588  0.0263 -0.1439  1.0401
  247MOL0     H33328   4.829   6.387  12.547 -4.1393 -0.4383 -1.2787
  247MOL0     H33329   4.254   6.867  11.072 -0.9946  0.1983 -3.3998
  247MOL0     H33330   4.422   6.710  10.931  2.3089 -0.3827 -0.9306
  247MOL0     H33331   4.871   6.735  10.746  1.3594 -0.0717  0.0562
  247MOL0     H33332   5.039   6.615  10.610 -2.0376 -0.2395 -0.9990
  247MOL0     H33333   5.325   6.533  10.735 -0.3485  0.0643 -0.4189
  247MOL0     H33334   5.273   6.571  10.575 -1.1144 -0.3393  0.2720
  247MOL0     H33335   5.392   6.302  10.658  1.2627 -1.4187 -2.6354
  247MOL0     H33336   5.494   6.443  10.609  0.6864 -0.2991 -0.0365
  247MOL0     H33337   5.359   6.470  10.398  2.0382  0.8160 -1.7494
  247MOL0     H33338   5.290   6.304  10.437 -2.0536  2.6217  1.5647
  247MOL0     H33339   5.456   6.287  10.264  0.2811  2.7370 -1.0681
  247MOL0     H33340   5.571   6.368  10.372 -1.6321  2.3016  3.3040
  247MOL0     H33341   5.585   6.012  10.559 -1.4308 -1.3772 -1.4321
  247MOL0     H33342   5.036   6.282  10.869 -0.4422 -0.2678 -0.4864
  247MOL0     H33343   4.898   6.265  11.049 -5.6849 -1.3601 -0.0332
  247MOL0     H33344   4.961   6.399  11.142 -0.9074  0.4425  0.0668
  247MOL0     H33345   4.794   6.391  11.107 -0.0517 -2.1767  0.7835
  248MOL0     O33346   6.077   8.548   3.658  0.1823  0.6325 -0.4028
  248MOL0     C33347   6.040   8.432   3.666  0.4561 -0.1669 -0.3654
  248MOL0     O33348   6.037   8.355   3.774  0.1517 -0.0197 -0.2672
  248MOL0     C33349   6.094   8.410   3.886  0.2640  0.6487 -0.7037
  248MOL0     C33350   6.008   8.454   3.989  0.2824 -0.3572  0.2000
  248MOL0     C33351   6.053   8.513   4.109  1.5259  0.0959  0.2508
  248MOL0     C33352   6.190   8.541   4.114  0.6567  0.6042 -0.6569
  248MOL0     O33353   6.231   8.620   4.214  0.6655 -0.5803 -0.4042
  248MOL0     C33354   6.372   8.629   4.242 -0.6583 -0.3861  0.0901
  248MOL0     C33355   6.392   8.702   4.376 -0.3649  0.5806  0.1112
  248MOL0     C33356   6.512   8.669   4.455  0.6884  0.4757  0.4692
  248MOL0     C33357   6.522   8.528   4.498 -0.1689 -0.5077  0.4298
  248MOL0     C33358   6.597   8.506   4.624 -1.2545 -0.1078  0.2602
  248MOL0     C33359   6.550   8.585   4.755  0.0818  0.7188  0.8530
  248MOL0     C33360   6.417   8.521   4.814 -0.0218 -0.7796  0.8684
  248MOL0     C33361   6.387   8.593   4.950 -0.3630  0.1058  0.6492
  248MOL0     N33362   6.272   8.555   5.035  0.2496 -0.4008  0.1167
  248MOL0     C33363   6.242   8.415   5.057  0.1352 -0.4110  0.3645
  248MOL0     C33364   6.126   8.426   5.130  0.7984 -0.0672  0.4098
  248MOL0     C33365   6.053   8.308   5.190  0.4109 -0.6809 -0.2414
  248MOL0     C33366   5.952   8.242   5.093 -0.1519  0.1963 -0.8208
  248MOL0     C33367   5.819   8.317   5.100  0.3251  0.2144  0.3037
  248MOL0     C33368   5.703   8.238   5.024 -0.5228  0.3390 -1.0469
  248MOL0     O33369   5.733   8.243   4.891 -0.0295  0.1730  0.9489
  248MOL0     C33370   5.731   8.117   4.820  0.8668  0.4217 -0.6784
  248MOL0     C33371   5.618   8.022   4.830  0.1555  0.4809  0.2231
  248MOL0     C33372   5.619   7.911   4.755  0.4260 -0.0085 -0.3460
  248MOL0     C33373   5.728   7.885   4.669 -0.7747  0.1713  0.1869
  248MOL0     C33374   5.725   7.768   4.577 -0.4974  0.1551  0.4978
  248MOL0     O33375   5.812   7.774   4.467 -0.0079 -0.1176 -0.0682
  248MOL0     C33376   5.807   7.675   4.378 -0.6960 -0.9389  0.1101
  248MOL0     C33377   5.694   7.625   4.330  0.7856  0.2567  0.0455
  248MOL0     C33378   5.708   7.539   4.221  0.0525 -0.3130  0.2133
  248MOL0     C33379   5.822   7.515   4.153 -0.4023  0.1734  1.1618
  248MOL0     O33380   5.827   7.421   4.047 -0.8184 -0.2896 -0.1718
  248MOL0     C33381   5.888   7.476   3.922  0.6839  0.2841  0.0869
  248MOL0     C33382   5.822   7.402   3.804 -0.4917 -0.2079  0.7764
  248MOL0     C33383   5.888   7.265   3.774  0.2574 -0.1850  0.8116
  248MOL0     C33384   5.926   7.241   3.626 -0.4015 -1.1310  0.1093
  248MOL0     C33385   5.837   7.139   3.549 -1.0099  0.4531  0.2071
  248MOL0     C33386   5.697   7.200   3.525  0.3227  0.6810 -0.1055
  248MOL0     C33387   5.583   7.084   3.508  0.3211  0.8078 -0.4553
  248MOL0     C33388   5.441   7.161   3.506  0.2517  0.2989  0.1264
  248MOL0    Cl33389   5.377   7.169   3.667  0.4923 -0.3002 -0.1236
  248MOL0     C33390   5.939   7.571   4.201 -0.1791 -0.5091 -0.9496
  248MOL0     C33391   5.934   7.657   4.315  0.5457  0.4229 -0.4060
  248MOL0     O33392   5.660   7.677   4.615  0.2967  1.3683  0.1704
  248MOL0     C33393   5.845   7.965   4.675  0.3535 -0.5873 -0.5212
  248MOL0     C33394   5.849   8.080   4.750 -0.4444 -0.1814 -0.1272
  248MOL0     N33395   6.091   8.559   5.141  0.2426  0.1895  0.2403
  248MOL0     N33396   6.186   8.633   5.099 -0.2549  0.6592 -0.1591
  248MOL0     C33397   6.280   8.500   4.013 -0.3685 -0.5021  0.5627
  248MOL0     C33398   6.228   8.429   3.908 -0.3802 -0.3396  1.1803
  248MOL0     C33399   5.988   8.363   3.549  0.4437  0.8097  0.3948
  248MOL0     C33400   5.962   8.220   3.548 -0.3132 -0.3753 -0.3147
  248MOL0     C33401   5.930   8.148   3.435 -0.5423  0.1286 -0.1932
  248MOL0     C33402   5.892   8.217   3.324 -0.1602  0.2045 -0.6356
  248MOL0     O33403   5.832   8.133   3.234  0.0575  0.4370 -0.1464
  248MOL0     C33404   5.740   8.193   3.143  0.3759  0.0284  0.7552
  248MOL0     C33405   5.668   8.095   3.045 -0.0465 -0.2753  0.5038
  248MOL0     C33406   5.768   8.020   2.956  0.3094 -0.6018 -0.4813
  248MOL0     C33407   5.717   7.878   2.940  0.1856  0.9282 -0.5194
  248MOL0     C33408   5.597   7.873   2.862  0.4589 -1.1402  0.9354
  248MOL0     C33409   5.491   7.890   2.803 -0.3651 -0.7692  0.1309
  248MOL0     C33410   5.896   8.360   3.322  0.4232 -0.2090 -0.1486
  248MOL0     C33411   5.961   8.433   3.430  0.7683  0.8089 -0.7706
  248MOL0     C33412   5.988   8.580   3.403 -0.4464 -0.4400 -0.2581
  248MOL0     H33413   5.901   8.452   3.971  0.3751 -2.0982 -0.4222
  248MOL0     H33414   5.988   8.545   4.190  1.4475  4.0683 -1.1833
  248MOL0     H33415   6.414   8.528   4.241 -2.4251 -1.2244 -3.2531
  248MOL0     H33416   6.427   8.674   4.159 -1.1585 -0.7855 -0.4713
  248MOL0     H33417   6.298   8.689   4.430 -1.2449 -0.7334 -1.6067
  248MOL0     H33418   6.403   8.809   4.361  2.2406  0.1117 -1.9970
  248MOL0     H33419   6.527   8.738   4.539  4.4325  1.5418 -0.9084
  248MOL0     H33420   6.599   8.687   4.392  1.6071 -1.9329  0.9390
  248MOL0     H33421   6.432   8.467   4.499  1.0937 -2.6591 -2.4781
  248MOL0     H33422   6.582   8.471   4.426  1.3386 -1.0942  2.0702
  248MOL0     H33423   6.608   8.399   4.643  0.6248 -0.8484 -3.7846
  248MOL0     H33424   6.694   8.549   4.596 -2.3949  0.2158 -4.0132
  248MOL0     H33425   6.629   8.569   4.829  1.0194 -0.3108 -0.3174
  248MOL0     H33426   6.539   8.692   4.736  2.0213  0.8313  0.0395
  248MOL0     H33427   6.430   8.415   4.835  0.0401 -0.1647  4.7650
  248MOL0     H33428   6.334   8.542   4.745  0.9293 -2.2464 -0.7953
  248MOL0     H33429   6.480   8.597   5.008 -1.1525  1.6716  1.8635
  248MOL0     H33430   6.379   8.701   4.935 -0.3276  0.4107  2.5484
  248MOL0     H33431   6.309   8.330   5.042 -0.6984 -1.0571  0.2650
  248MOL0     H33432   6.129   8.236   5.223 -0.8588 -1.0079  2.1481
  248MOL0     H33433   6.011   8.356   5.279  0.3228  3.2486 -2.1803
  248MOL0     H33434   5.989   8.249   4.991  0.3928  1.5439 -0.5599
  248MOL0     H33435   5.934   8.138   5.119  1.7297  0.1247  0.4415
  248MOL0     H33436   5.834   8.413   5.050 -1.1880 -1.5630 -4.0739
  248MOL0     H33437   5.784   8.330   5.202  1.2010  2.4372  0.3814
  248MOL0     H33438   5.601   8.276   5.039 -2.1811 -2.7251 -3.3308
  248MOL0     H33439   5.700   8.132   5.051 -3.0700  0.4325 -0.7451
  248MOL0     H33440   5.531   8.052   4.888  0.5045 -0.3327  1.2063
  248MOL0     H33441   5.522   7.864   4.750  1.1214 -1.4642 -0.8839
  248MOL0     H33442   5.597   7.634   4.378 -0.4147  1.8317 -2.4153
  248MOL0     H33443   5.617   7.491   4.183  0.1968  0.8693 -1.7632
  248MOL0     H33444   5.878   7.584   3.909  1.5347  0.5779  1.5606
  248MOL0     H33445   5.995   7.456   3.932  0.4348 -0.1500  2.5983
  248MOL0     H33446   5.716   7.377   3.813 -0.5249 -0.4059 -0.1014
  248MOL0     H33447   5.847   7.464   3.718  4.0123 -0.2007  1.8649
  248MOL0     H33448   5.983   7.270   3.827  1.5064  0.5564 -1.3774
  248MOL0     H33449   5.832   7.180   3.816 -0.7527 -0.4677 -0.9820
  248MOL0     H33450   6.032   7.213   3.636  1.0551  3.8427  1.4502
  248MOL0     H33451   5.932   7.339   3.578  1.1530 -0.4168  1.6553
  248MOL0     H33452   5.825   7.049   3.609  0.9236  0.1629  0.2384
  248MOL0     H33453   5.885   7.110   3.455 -1.3465 -3.8346  1.1653
  248MOL0     H33454   5.675   7.262   3.613 -0.3036 -0.5896  0.6609
  248MOL0     H33455   5.696   7.273   3.443  2.2257  1.0687  0.1697
  248MOL0     H33456   5.584   7.011   3.588 -2.0927 -1.3556 -2.2278
  248MOL0     H33457   5.588   7.030   3.413  1.6941 -0.1513  0.1434
  248MOL0     H33458   5.441   7.262   3.464 -1.7497  0.0132 -0.6969
  248MOL0     H33459   5.365   7.114   3.443 -1.8060  1.4864  1.5748
  248MOL0     H33460   6.031   7.546   4.149 -0.7537 -0.2498 -2.1287
  248MOL0     H33461   6.031   7.685   4.356  1.0131 -0.4747 -0.8635
  248MOL0     H33462   5.938   7.939   4.626  1.8161  1.8999  0.7069
  248MOL0     H33463   5.927   8.155   4.755 -0.8272  0.1840  0.5836
  248MOL0     H33464   6.385   8.525   4.021 -0.6970  1.5687 -0.7955
  248MOL0     H33465   6.296   8.408   3.826 -0.8298  0.8645  0.4714
  248MOL0     H33466   5.973   8.181   3.649 -1.3180 -0.2376 -0.1373
  248MOL0     H33467   5.911   8.042   3.447  4.0491 -0.6279  2.7254
  248MOL0     H33468   5.802   8.251   3.072  1.5400 -2.7586 -0.6579
  248MOL0     H33469   5.677   8.260   3.202 -1.4979  0.9575 -2.1074
  248MOL0     H33470   5.596   8.153   2.988  1.3861  0.2165 -0.8990
  248MOL0     H33471   5.610   8.032   3.112 -2.2281  0.6283 -0.4629
  248MOL0     H33472   5.866   8.015   3.004 -1.7317 -3.4807  4.1158
  248MOL0     H33473   5.778   8.074   2.861 -3.7171  0.7070 -0.3377
  248MOL0     H33474   5.794   7.817   2.892  1.1630  0.3568  1.6551
  248MOL0     H33475   5.701   7.817   3.029  2.0694 -1.7085 -1.8414
  248MOL0     H33476   5.403   7.912   2.746  0.8664 -1.7689 -2.2622
  248MOL0     H33477   5.891   8.417   3.229  1.7190 -1.0301 -0.7610
  248MOL0     H33478   6.096   8.589   3.416 -0.6049 -0.5164  1.3105
  248MOL0     H33479   5.949   8.622   3.309  0.4221  0.6492 -0.1539
  248MOL0     H33480   5.937   8.635   3.482  0.9011  0.6093 -0.0979
  249MOL0     O33481   2.898   6.160   3.007  0.5557  0.5592 -0.2852
  249MOL0     C33482   2.972   6.066   3.052 -0.2736 -0.5265 -0.2408
  249MOL0     O33483   3.012   6.045   3.182  1.0903 -0.0006  0.0545
  249MOL0     C33484   3.013   6.132   3.285 -0.4127 -0.3559  0.4679
  249MOL0     C33485   3.036   6.266   3.264  0.2870 -0.0723 -0.5395
  249MOL0     C33486   3.038   6.351   3.367 -0.0742  0.1237  0.4278
  249MOL0     C33487   3.039   6.317   3.509  0.5604  0.4056  0.0085
  249MOL0     O33488   3.047   6.405   3.611 -0.0682 -0.3741 -0.7554
  249MOL0     C33489   3.107   6.540   3.590 -0.0141  1.0991 -0.4282
  249MOL0     C33490   3.159   6.569   3.733 -0.3947  0.1972  1.0489
  249MOL0     C33491   3.245   6.688   3.740  0.2118  0.4649  0.2776
  249MOL0     C33492   3.329   6.700   3.865  0.3628 -0.2475  0.2621
  249MOL0     C33493   3.395   6.837   3.874 -0.3593 -0.2069  0.2580
  249MOL0     C33494   3.306   6.933   3.952  0.9649 -0.0933  0.4131
  249MOL0     C33495   3.372   7.072   3.970  0.2556 -0.3616  0.5993
  249MOL0     C33496   3.516   7.086   4.009  0.0849  1.0157 -0.7140
  249MOL0     N33497   3.551   7.218   4.052 -0.7725  0.0686  0.2672
  249MOL0     C33498   3.490   7.303   4.144  0.2313  0.0256  0.6066
  249MOL0     C33499   3.550   7.419   4.124  0.1265  0.0083  0.9136
  249MOL0     C33500   3.511   7.545   4.200  0.1181  0.2847 -0.5966
  249MOL0     C33501   3.617   7.656   4.196 -0.0439  0.1917  0.4520
  249MOL0     C33502   3.767   7.604   4.218 -0.0125  0.4037  0.0257
  249MOL0     C33503   3.846   7.713   4.282  0.0160 -0.3831  0.5875
  249MOL0     O33504   3.988   7.687   4.269  0.5653  0.0285  0.2781
  249MOL0     C33505   4.084   7.770   4.320 -0.3870 -0.1947 -0.6920
  249MOL0     C33506   4.207   7.720   4.351  0.2923  1.1295  0.6046
  249MOL0     C33507   4.312   7.802   4.380  0.2220 -0.1643  0.0140
  249MOL0     C33508   4.292   7.944   4.384  0.4987 -0.1434 -0.6138
  249MOL0     C33509   4.404   8.047   4.407  1.0448  0.0737  0.1531
  249MOL0     O33510   4.527   7.992   4.376 -1.3876 -1.0177 -0.8688
  249MOL0     C33511   4.614   8.086   4.324  0.3351  0.0125  0.0255
  249MOL0     C33512   4.713   8.146   4.403  0.6556  0.3754 -0.8808
  249MOL0     C33513   4.799   8.236   4.351 -0.3970 -0.8220  0.1684
  249MOL0     C33514   4.767   8.288   4.224 -0.1220 -0.2701 -1.5070
  249MOL0     O33515   4.842   8.395   4.188  0.0843 -1.0998 -0.4258
  249MOL0     C33516   4.894   8.410   4.051  0.3208  1.0048 -0.4699
  249MOL0     C33517   4.909   8.558   4.019  0.1722 -0.0646  0.8777
  249MOL0     C33518   4.973   8.571   3.881  0.3593  0.3191  0.1818
  249MOL0     C33519   5.053   8.704   3.871  0.0292 -0.1695 -0.5633
  249MOL0     C33520   4.962   8.825   3.835 -0.3618 -0.0043 -1.3136
  249MOL0     C33521   5.052   8.943   3.799  0.5379  0.6526 -0.4951
  249MOL0     C33522   5.122   9.009   3.918  0.0888  0.4327 -0.4479
  249MOL0     C33523   5.216   9.128   3.888 -0.7736  0.1089  0.5106
  249MOL0    Cl33524   5.352   9.095   3.788  0.4097 -0.0669 -0.0635
  249MOL0     C33525   4.689   8.221   4.133 -0.3564 -0.8317  0.8142
  249MOL0     C33526   4.615   8.115   4.190 -0.0570  0.5699  0.5204
  249MOL0     O33527   4.378   8.168   4.418  0.1490  1.0791 -0.3201
  249MOL0     C33528   4.163   7.996   4.365 -0.0686 -0.3971 -1.3791
  249MOL0     C33529   4.059   7.911   4.337 -0.5421 -0.7851  0.8708
  249MOL0     N33530   3.642   7.406   4.025 -0.2930 -0.2012 -0.3370
  249MOL0     N33531   3.640   7.284   3.981  0.1750  0.1918  0.3282
  249MOL0     C33532   3.031   6.173   3.529 -0.6585 -0.6421 -0.9975
  249MOL0     C33533   3.020   6.083   3.416  0.6051  0.5820 -0.1031
  249MOL0     C33534   3.003   5.957   2.948  0.5566 -1.0740  0.0211
  249MOL0     C33535   2.985   5.824   2.989  0.1347 -0.2323  0.7498
  249MOL0     C33536   2.987   5.724   2.899  0.2475 -0.3079  1.1467
  249MOL0     C33537   2.997   5.739   2.765  0.6323  0.9947 -0.0645
  249MOL0     O33538   2.997   5.627   2.683 -0.5386 -0.2427 -0.2449
  249MOL0     C33539   2.920   5.513   2.708 -0.5235  0.6385 -0.1649
  249MOL0     C33540   2.855   5.437   2.587 -0.1484 -0.2946 -0.0570
  249MOL0     C33541   2.755   5.533   2.524 -0.2524 -0.0409 -0.4156
  249MOL0     C33542   2.725   5.493   2.377  0.1068  0.1120 -0.4017
  249MOL0     C33543   2.590   5.529   2.337  0.1869 -0.1289 -0.2219
  249MOL0     C33544   2.488   5.575   2.303 -0.1800  1.4450 -0.1563
  249MOL0     C33545   3.018   5.870   2.717 -0.2497 -0.1379  0.1865
  249MOL0     C33546   3.016   5.981   2.806  0.2927  0.2638  0.1745
  249MOL0     C33547   3.031   6.125   2.750 -0.1479  0.0480  0.4416
  249MOL0     H33548   3.042   6.308   3.164 -0.6052  1.6350  0.0932
  249MOL0     H33549   3.037   6.459   3.355  4.0495  0.0960 -1.7178
  249MOL0     H33550   3.192   6.518   3.526  1.6761 -1.6969  2.4425
  249MOL0     H33551   3.032   6.612   3.555 -0.0604 -0.1249 -3.0575
  249MOL0     H33552   3.222   6.483   3.756  0.0593 -0.5299 -2.3350
  249MOL0     H33553   3.079   6.569   3.807 -1.7359  0.0268 -0.3454
  249MOL0     H33554   3.173   6.769   3.728 -2.4820 -1.8442 -0.1566
  249MOL0     H33555   3.315   6.692   3.656 -1.1655 -3.1714 -1.2730
  249MOL0     H33556   3.258   6.685   3.947 -2.0617 -0.8158 -1.8102
  249MOL0     H33557   3.398   6.616   3.854  1.6687  0.3854  2.7920
  249MOL0     H33558   3.489   6.827   3.929 -0.0989 -1.6443 -0.4209
  249MOL0     H33559   3.420   6.875   3.774  1.1485  3.7902  1.9221
  249MOL0     H33560   3.214   6.948   3.895  1.9906 -0.7724 -1.5461
  249MOL0     H33561   3.283   6.885   4.047  1.9119 -1.4397 -0.0008
  249MOL0     H33562   3.316   7.137   4.038  0.5758  1.1583 -0.5182
  249MOL0     H33563   3.364   7.120   3.872  2.4682 -0.6794  0.1985
  249MOL0     H33564   3.545   7.035   4.101  1.3358  1.6069 -0.7457
  249MOL0     H33565   3.590   7.052   3.936  0.7612  0.6283  0.1368
  249MOL0     H33566   3.401   7.279   4.201 -0.7672  0.5089 -0.7171
  249MOL0     H33567   3.420   7.593   4.162 -0.0138  2.2369  1.9245
  249MOL0     H33568   3.490   7.539   4.307 -1.7873  3.8389 -0.6211
  249MOL0     H33569   3.616   7.697   4.095  1.3460 -4.2228 -1.6447
  249MOL0     H33570   3.591   7.727   4.275  1.5689 -1.4727  2.6081
  249MOL0     H33571   3.819   7.576   4.126  0.0365  1.7268 -0.3660
  249MOL0     H33572   3.764   7.507   4.268 -0.0862  0.1437 -0.4850
  249MOL0     H33573   3.815   7.730   4.385 -0.1240  0.2287  0.4494
  249MOL0     H33574   3.817   7.798   4.219  1.2207 -2.0580 -2.4406
  249MOL0     H33575   4.220   7.613   4.352 -1.3882  0.8914  1.6248
  249MOL0     H33576   4.403   7.754   4.416 -1.4467 -1.9090  2.1772
  249MOL0     H33577   4.708   8.110   4.506  0.7740  2.5920 -0.0420
  249MOL0     H33578   4.885   8.273   4.405  0.7918 -0.2742 -1.9932
  249MOL0     H33579   4.992   8.362   4.053 -0.6996 -1.1846  0.6180
  249MOL0     H33580   4.824   8.373   3.977 -0.9999 -0.4027  1.3828
  249MOL0     H33581   4.809   8.601   4.014  0.7267  1.2042  0.2530
  249MOL0     H33582   4.975   8.606   4.092 -1.2749  6.0543 -1.2648
  249MOL0     H33583   5.044   8.489   3.866  0.9110  0.8172  0.0442
  249MOL0     H33584   4.898   8.564   3.802  1.9613 -4.0827 -1.2811
  249MOL0     H33585   5.125   8.683   3.792  0.1181 -1.3309 -0.1970
  249MOL0     H33586   5.091   8.715   3.973 -0.6033 -3.3074  0.1332
  249MOL0     H33587   4.888   8.835   3.914 -1.0877 -3.4841 -1.3770
  249MOL0     H33588   4.917   8.812   3.736  2.5739  2.5389 -3.1875
  249MOL0     H33589   5.134   8.913   3.732  1.5463  0.5986  0.7278
  249MOL0     H33590   4.989   9.021   3.755  0.1322  0.4259 -0.3221
  249MOL0     H33591   5.195   8.941   3.963  0.4261 -0.0716 -1.7035
  249MOL0     H33592   5.035   9.037   3.978 -2.2380 -1.2520 -2.8112
  249MOL0     H33593   5.160   9.217   3.860 -0.7856 -0.6807 -2.4000
  249MOL0     H33594   5.254   9.172   3.980  0.6258  3.3406 -1.4179
  249MOL0     H33595   4.660   8.270   4.041 -0.7744  1.3332  2.0129
  249MOL0     H33596   4.544   8.062   4.128  1.4490  1.8023 -2.4581
  249MOL0     H33597   4.153   8.104   4.362  0.9808 -0.2152  0.1439
  249MOL0     H33598   3.973   7.968   4.301  1.4720  0.9945 -1.4829
  249MOL0     H33599   3.036   6.138   3.632 -2.2410  2.7883  0.4107
  249MOL0     H33600   3.030   5.976   3.429  0.8005  0.6809  0.6354
  249MOL0     H33601   2.975   5.813   3.096  2.2182  1.9060  1.2508
  249MOL0     H33602   2.997   5.626   2.944 -1.1180 -0.8606  0.2973
  249MOL0     H33603   2.836   5.536   2.774 -0.3296  1.2773 -0.1342
  249MOL0     H33604   2.983   5.436   2.755  0.7181 -0.9911 -4.1134
  249MOL0     H33605   2.800   5.349   2.621  1.7743 -2.5915 -2.4615
  249MOL0     H33606   2.927   5.398   2.514  0.0298 -3.0024  1.4314
  249MOL0     H33607   2.799   5.633   2.523  0.8221 -0.4835 -2.3082
  249MOL0     H33608   2.662   5.518   2.581 -0.5179 -0.8559 -1.0435
  249MOL0     H33609   2.795   5.548   2.313  0.7280 -0.9680 -0.6835
  249MOL0     H33610   2.744   5.387   2.355  1.5634  0.3048 -0.1990
  249MOL0     H33611   2.393   5.605   2.264 -0.7644 -2.4307 -2.1959
  249MOL0     H33612   3.049   5.870   2.613  3.3544  0.2613  1.1205
  249MOL0     H33613   3.122   6.169   2.793  1.8492 -2.9155 -0.4190
  249MOL0     H33614   3.066   6.105   2.648  0.4128 -1.6320  0.9347
  249MOL0     H33615   2.951   6.199   2.756  0.1631  0.4761 -0.3812
  250MOL0     O33616   5.234   0.417   1.215  0.3960  0.4625 -0.2432
  250MOL0     C33617   5.277   0.301   1.233  1.1030  0.3447  0.6277
  250MOL0     O33618   5.202   0.201   1.292  0.1089  0.2963  0.4652
  250MOL0     C33619   5.076   0.226   1.340 -0.4295 -0.1920  1.4037
  250MOL0     C33620   4.972   0.298   1.269  0.1360 -0.0371 -0.3343
  250MOL0     C33621   4.846   0.320   1.321  0.7807  0.3345 -1.1071
  250MOL0     C33622   4.814   0.249   1.439  0.4995 -0.0324  0.0083
  250MOL0     O33623   4.683   0.236   1.493 -0.1625 -0.2585  0.1860
  250MOL0     C33624   4.580   0.325   1.442  0.4193  0.1345  0.2709
  250MOL0     C33625   4.462   0.321   1.528  0.4702  0.0110 -0.7333
  250MOL0     C33626   4.382   0.190   1.509  0.6332  0.4553  0.1722
  250MOL0     C33627   4.257   0.167   1.594 -0.1011 -0.2082  0.1799
  250MOL0     C33628   4.190   0.031   1.599 -0.4346  0.3711  0.1635
  250MOL0     C33629   4.053   0.043   1.676 -0.1778  0.6178  0.3198
  250MOL0     C33630   3.986  -0.100   1.655 -0.5782  0.6133 -0.8279
  250MOL0     C33631   3.871  -0.101   1.765 -0.1626 -0.5372  0.0497
  250MOL0     N33632   3.810  -0.233   1.750 -0.2470 -0.9634  0.0675
  250MOL0     C33633   3.699  -0.267   1.674 -0.5118  0.8264 -0.8405
  250MOL0     C33634   3.700  -0.401   1.671 -0.0131  0.8939 -0.0528
  250MOL0     C33635   3.619  -0.490   1.583 -0.6986  0.7062 -0.2089
  250MOL0     C33636   3.476  -0.472   1.617  0.0805  0.0843  0.5117
  250MOL0     C33637   3.442  -0.511   1.766 -0.3508 -0.4180  0.4928
  250MOL0     C33638   3.487  -0.650   1.805 -0.2908  0.4514  0.4172
  250MOL0     O33639   3.397  -0.691   1.908 -0.6773 -0.4279 -0.0199
  250MOL0     C33640   3.442  -0.800   1.984  0.4298  0.6594  0.1693
  250MOL0     C33641   3.340  -0.855   2.058 -0.3044  0.2991  0.5666
  250MOL0     C33642   3.376  -0.958   2.149 -0.4150  0.5398  0.8481
  250MOL0     C33643   3.500  -1.018   2.148 -0.6610 -0.5622 -0.5190
  250MOL0     C33644   3.530  -1.142   2.229  0.6587  0.0055  1.0073
  250MOL0     O33645   3.419  -1.178   2.304  0.5801  0.1600  0.3443
  250MOL0     C33646   3.394  -1.303   2.351  0.3811 -1.1388 -0.4555
  250MOL0     C33647   3.462  -1.419   2.324  0.4790 -1.0520  0.6599
  250MOL0     C33648   3.431  -1.536   2.393 -0.1801  0.6425  0.6946
  250MOL0     C33649   3.332  -1.538   2.487 -0.0853  0.0294 -1.1698
  250MOL0     O33650   3.306  -1.648   2.561  0.5278 -0.1503 -0.9418
  250MOL0     C33651   3.317  -1.629   2.705  0.3866  0.3020 -0.4139
  250MOL0     C33652   3.356  -1.767   2.764 -0.5262 -0.3014  0.3182
  250MOL0     C33653   3.491  -1.828   2.714  0.0500  0.1578 -0.3668
  250MOL0     C33654   3.614  -1.752   2.760  0.3890  0.0699 -0.4322
  250MOL0     C33655   3.744  -1.799   2.696  1.1161 -0.0472  0.4548
  250MOL0     C33656   3.747  -1.795   2.536 -0.3399 -0.1406 -0.4994
  250MOL0     C33657   3.891  -1.774   2.480  0.1910 -0.5363  0.8110
  250MOL0     C33658   3.918  -1.728   2.336 -0.4602 -0.3367 -0.4178
  250MOL0    Cl33659   3.952  -1.546   2.346  0.2146 -0.0113 -0.1638
  250MOL0     C33660   3.265  -1.420   2.522  0.1951  0.0317  0.1137
  250MOL0     C33661   3.298  -1.306   2.459 -0.0902  0.1251  0.2306
  250MOL0     O33662   3.630  -1.209   2.210 -0.5028  0.0558 -0.1397
  250MOL0     C33663   3.604  -0.952   2.077 -0.5162 -0.2424  0.0950
  250MOL0     C33664   3.571  -0.845   2.002  0.4428 -0.3108  1.5021
  250MOL0     N33665   3.804  -0.449   1.753  0.6590 -0.3673 -0.1191
  250MOL0     N33666   3.865  -0.349   1.796 -0.5514 -0.3686 -0.2733
  250MOL0     C33667   4.912   0.188   1.513  0.5856  0.1804 -0.2759
  250MOL0     C33668   5.042   0.170   1.461 -0.0990 -0.0168  0.1760
  250MOL0     C33669   5.405   0.269   1.166 -0.0759  0.4928  0.0333
  250MOL0     C33670   5.477   0.373   1.111  1.0554  0.1825 -0.0153
  250MOL0     C33671   5.595   0.357   1.052 -0.3928 -0.8272  1.2140
  250MOL0     C33672   5.647   0.232   1.026 -0.2132  0.6430 -0.3727
  250MOL0     O33673   5.765   0.227   0.953  0.0918  0.1270  0.2456
  250MOL0     C33674   5.796   0.101   0.885  0.5022 -0.4832 -0.4630
  250MOL0     C33675   5.897   0.032   0.977 -0.3575  0.1210  0.3705
  250MOL0     C33676   5.900  -0.109   0.927 -0.0600  0.0522 -0.8402
  250MOL0     C33677   5.988  -0.141   0.812  0.3895  0.0686 -0.2892
  250MOL0     C33678   6.038  -0.278   0.812 -0.1590 -0.4288  1.2341
  250MOL0     C33679   6.063  -0.391   0.821 -0.0621  0.3137  0.8868
  250MOL0     C33680   5.581   0.124   1.086  0.4754 -0.6132 -0.2507
  250MOL0     C33681   5.465   0.137   1.164 -1.4997 -0.3094  0.5370
  250MOL0     C33682   5.416   0.014   1.250 -0.4773 -0.2993  0.3697
  250MOL0     H33683   5.009   0.349   1.181  2.1207 -0.4460  0.2096
  250MOL0     H33684   4.767   0.380   1.277  1.0866  0.1450 -1.9237
  250MOL0     H33685   4.611   0.430   1.445 -0.3116  0.3666 -0.0811
  250MOL0     H33686   4.551   0.304   1.339 -1.7887 -0.1110  0.8997
  250MOL0     H33687   4.408   0.415   1.513  0.0611  0.5330  2.9400
  250MOL0     H33688   4.494   0.314   1.633 -0.8880 -3.3600 -0.4072
  250MOL0     H33689   4.446   0.101   1.514  2.1454  1.4974  0.2472
  250MOL0     H33690   4.342   0.188   1.407 -3.1754 -0.3391  1.5377
  250MOL0     H33691   4.281   0.192   1.697 -0.6843 -0.7571  0.4547
  250MOL0     H33692   4.184   0.242   1.561 -0.6345 -0.5946  0.4578
  250MOL0     H33693   4.170   0.011   1.493 -2.3988  0.5414  0.4780
  250MOL0     H33694   4.266  -0.041   1.631 -0.0178 -0.6029 -2.7117
  250MOL0     H33695   4.068   0.066   1.782  0.2849  0.0213  0.3865
  250MOL0     H33696   3.989   0.120   1.633 -0.1431  0.6504  0.3268
  250MOL0     H33697   4.061  -0.175   1.679 -0.6177  0.6717 -0.5267
  250MOL0     H33698   3.954  -0.107   1.550  4.0589  0.7454 -2.4823
  250MOL0     H33699   3.892  -0.090   1.872 -1.4614  0.2074  0.2459
  250MOL0     H33700   3.787  -0.034   1.746 -0.6581 -1.4138 -0.9683
  250MOL0     H33701   3.619  -0.210   1.629 -1.8531 -1.3482 -1.3780
  250MOL0     H33702   3.654  -0.482   1.480  0.7187  3.7149  0.4023
  250MOL0     H33703   3.648  -0.590   1.619  1.1772  1.6088  0.9433
  250MOL0     H33704   3.456  -0.369   1.585  1.6088 -0.9123 -4.4520
  250MOL0     H33705   3.417  -0.533   1.547 -0.6081  0.4580  0.7511
  250MOL0     H33706   3.334  -0.503   1.784 -0.2365  1.6739  0.4851
  250MOL0     H33707   3.489  -0.433   1.827  0.9656 -1.4882  0.8750
  250MOL0     H33708   3.587  -0.638   1.849 -0.7462 -1.8057  2.2470
  250MOL0     H33709   3.477  -0.722   1.723 -3.6756  1.0503  0.1938
  250MOL0     H33710   3.243  -0.808   2.056 -1.0806 -1.2279  0.4620
  250MOL0     H33711   3.303  -1.003   2.214 -0.2321 -0.8706  0.1268
  250MOL0     H33712   3.539  -1.436   2.249 -0.4338 -0.4632 -0.4398
  250MOL0     H33713   3.493  -1.625   2.385 -0.1281  0.8541 -2.6164
  250MOL0     H33714   3.396  -1.561   2.738 -0.3814  0.6770  0.7201
  250MOL0     H33715   3.226  -1.591   2.752  0.9992  0.9040  0.3145
  250MOL0     H33716   3.361  -1.766   2.874 -0.6987  0.7606  0.3186
  250MOL0     H33717   3.276  -1.839   2.742  1.3346 -2.3832 -0.0556
  250MOL0     H33718   3.504  -1.929   2.754  0.7908  1.1639  2.1055
  250MOL0     H33719   3.492  -1.832   2.604  2.0873  0.9888 -0.4346
  250MOL0     H33720   3.616  -1.741   2.869  1.7036  2.5062 -0.6346
  250MOL0     H33721   3.598  -1.650   2.724 -3.6026  0.1730  1.0484
  250MOL0     H33722   3.758  -1.901   2.732 -0.3506 -0.9599 -1.3759
  250MOL0     H33723   3.825  -1.743   2.743  0.7661 -0.8458  2.0850
  250MOL0     H33724   3.708  -1.888   2.494 -1.3291  1.3107 -3.0261
  250MOL0     H33725   3.683  -1.716   2.494  0.2353  0.3567 -0.4501
  250MOL0     H33726   3.949  -1.865   2.495  0.4176 -0.8351 -1.4884
  250MOL0     H33727   3.939  -1.701   2.545  0.0792 -0.0247  0.3273
  250MOL0     H33728   4.008  -1.776   2.297  0.6777 -0.0409  1.7047
  250MOL0     H33729   3.835  -1.741   2.267 -0.2027 -0.4088 -0.7155
  250MOL0     H33730   3.209  -1.402   2.613  0.0995 -0.1786  0.0978
  250MOL0     H33731   3.256  -1.209   2.484  0.6513  0.1581  1.4181
  250MOL0     H33732   3.700  -1.000   2.061 -0.3443 -0.4764  1.6497
  250MOL0     H33733   3.644  -0.795   1.939 -1.7891  0.5784 -0.5526
  250MOL0     H33734   4.866   0.134   1.595  0.3280 -0.4854 -0.8491
  250MOL0     H33735   5.114   0.115   1.521  3.0165  0.8572 -2.4581
  250MOL0     H33736   5.447   0.478   1.111 -1.0004 -0.2458 -3.4752
  250MOL0     H33737   5.646   0.442   1.008 -0.9308  0.3772  2.8475
  250MOL0     H33738   5.848   0.125   0.792  1.8047 -1.9495 -0.1477
  250MOL0     H33739   5.706   0.043   0.859  1.2913 -2.0483  0.2001
  250MOL0     H33740   5.855   0.033   1.078 -0.3991  2.0333  0.3629
  250MOL0     H33741   5.992   0.086   0.967  0.2583 -1.0452 -0.2745
  250MOL0     H33742   5.799  -0.147   0.908 -0.1955 -0.0585  0.0362
  250MOL0     H33743   5.935  -0.168   1.012 -0.4730  2.1037  0.8439
  250MOL0     H33744   5.925  -0.122   0.725 -0.3407  2.1551  0.6350
  250MOL0     H33745   6.069  -0.069   0.800 -0.6383  1.2586 -0.2389
  250MOL0     H33746   6.071  -0.497   0.830  1.4563  0.0859 -1.9749
  250MOL0     H33747   5.620   0.023   1.086 -0.7398 -1.0928 -0.0938
  250MOL0     H33748   5.494  -0.061   1.268 -2.1280 -1.8510  1.3541
  250MOL0     H33749   5.395   0.040   1.353  2.6738 -2.6578  1.8013
  250MOL0     H33750   5.326  -0.031   1.208 -1.9967  0.5181  2.5955
  251MOL0     O33751   2.980   8.248   2.057 -0.4482 -0.0474 -1.0634
  251MOL0     C33752   2.881   8.190   2.106  0.7160  0.0457  0.4411
  251MOL0     O33753   2.747   8.236   2.103 -0.2300  0.4190  0.1990
  251MOL0     C33754   2.731   8.361   2.054  0.7217 -1.2503 -0.5072
  251MOL0     C33755   2.786   8.469   2.125 -1.5129  0.4952 -0.1173
  251MOL0     C33756   2.779   8.604   2.095  1.1021 -0.5870 -0.5522
  251MOL0     C33757   2.693   8.634   1.980  1.3912 -1.2087  0.4707
  251MOL0     O33758   2.664   8.763   1.932 -0.3432 -0.5241  0.3337
  251MOL0     C33759   2.718   8.878   1.992  0.3152  0.2282  0.2417
  251MOL0     C33760   2.655   8.990   1.904  0.2213 -0.0418  0.1456
  251MOL0     C33761   2.739   9.120   1.914  1.0213  0.3003 -0.3040
  251MOL0     C33762   2.713   9.191   2.049  0.2443 -0.2678  0.2624
  251MOL0     C33763   2.752   9.342   2.038  0.5851  0.4227  0.4354
  251MOL0     C33764   2.721   9.404   2.166 -0.1247  0.5954 -0.4474
  251MOL0     C33765   2.733   9.558   2.154 -0.1191  0.1690 -1.2407
  251MOL0     C33766   2.675   9.648   2.264 -0.5663  0.0469  0.5656
  251MOL0     N33767   2.655   9.795   2.227 -0.9856  0.9720  0.0528
  251MOL0     C33768   2.562   9.826   2.136  0.7935 -0.4381  0.0713
  251MOL0     C33769   2.580   9.958   2.104  0.2097 -0.8865  0.1850
  251MOL0     C33770   2.499  10.031   2.004 -0.3268  1.2099  0.5569
  251MOL0     C33771   2.575  10.083   1.879  0.2222  0.0989  0.6610
  251MOL0     C33772   2.650   9.974   1.806 -0.2811  1.1222  0.0204
  251MOL0     C33773   2.594   9.838   1.785 -1.0458 -0.8196 -0.3620
  251MOL0     O33774   2.702   9.755   1.736  0.9837 -0.2857 -0.0817
  251MOL0     C33775   2.661   9.630   1.699  0.1931 -0.2025 -0.0863
  251MOL0     C33776   2.526   9.584   1.701 -0.5216 -0.4182  0.0477
  251MOL0     C33777   2.496   9.461   1.649  0.5452  0.0325  0.6772
  251MOL0     C33778   2.589   9.380   1.589  0.7269  0.7989  0.1952
  251MOL0     C33779   2.559   9.250   1.522  0.3386 -0.2762  0.9427
  251MOL0     O33780   2.610   9.225   1.398 -0.0561 -0.8238 -0.4780
  251MOL0     C33781   2.578   9.105   1.336  0.4420  0.2867  0.4136
  251MOL0     C33782   2.442   9.051   1.324  0.0330 -0.5199  1.5996
  251MOL0     C33783   2.408   8.916   1.291 -0.5745  0.5526 -0.1669
  251MOL0     C33784   2.518   8.842   1.257  0.3831  0.3343  0.0172
  251MOL0     O33785   2.483   8.730   1.192 -0.3371  0.1980 -0.8164
  251MOL0     C33786   2.569   8.662   1.108  0.6955 -0.4635 -1.1145
  251MOL0     C33787   2.590   8.751   0.987  0.7412  0.4224  1.1288
  251MOL0     C33788   2.627   8.671   0.861  0.3197 -0.3269  0.1761
  251MOL0     C33789   2.759   8.591   0.881  0.2561  0.5258  0.2049
  251MOL0     C33790   2.838   8.577   0.747  0.5787  0.3767 -0.7288
  251MOL0     C33791   2.788   8.486   0.635  0.1748 -0.3813  0.5481
  251MOL0     C33792   2.871   8.508   0.514  0.5349  0.7806  0.7516
  251MOL0     C33793   3.009   8.440   0.528  0.5339  0.4237 -0.2130
  251MOL0    Cl33794   3.117   8.465   0.393 -0.6436  0.0048 -0.3321
  251MOL0     C33795   2.652   8.885   1.265 -0.3564 -1.0510 -0.1587
  251MOL0     C33796   2.681   9.016   1.318 -0.7353  0.6377 -0.3950
  251MOL0     O33797   2.486   9.173   1.585 -0.4819 -0.1009  0.7302
  251MOL0     C33798   2.724   9.414   1.591  0.1553  0.3024  0.0053
  251MOL0     C33799   2.762   9.545   1.645  0.2124  0.1767  0.8588
  251MOL0     N33800   2.702   9.990   2.168 -1.2110  0.4643 -0.0794
  251MOL0     N33801   2.739   9.896   2.247 -0.3567 -0.5298 -0.4816
  251MOL0     C33802   2.626   8.528   1.911  0.0661  0.4500  0.2720
  251MOL0     C33803   2.644   8.393   1.956  1.0559  0.0602 -0.6481
  251MOL0     C33804   2.905   8.052   2.155 -0.5564 -0.3583 -0.7120
  251MOL0     C33805   2.817   7.946   2.127 -0.7862  0.5988  0.2139
  251MOL0     C33806   2.853   7.821   2.173 -0.0029 -0.3588  1.4563
  251MOL0     C33807   2.973   7.779   2.233 -0.2743  0.6528 -1.1343
  251MOL0     O33808   2.974   7.643   2.281  0.3240 -0.6032 -0.1898
  251MOL0     C33809   3.093   7.595   2.332 -0.7733 -0.4967  0.3805
  251MOL0     C33810   3.104   7.628   2.478 -0.0058  0.3407 -0.0185
  251MOL0     C33811   3.199   7.524   2.542  0.3294  0.8254  0.2837
  251MOL0     C33812   3.239   7.583   2.676  0.7343  0.6720 -0.8187
  251MOL0     C33813   3.115   7.591   2.759  0.0208 -1.1888  0.4913
  251MOL0     C33814   3.021   7.605   2.848  0.1696  0.2105  0.3384
  251MOL0     C33815   3.066   7.882   2.259  0.2253 -0.5668  0.6103
  251MOL0     C33816   3.026   8.020   2.220 -0.4632 -0.4942  0.4249
  251MOL0     C33817   3.130   8.122   2.265 -0.7178  0.3169  0.3949
  251MOL0     H33818   2.852   8.440   2.207 -0.5002 -0.9169 -1.3655
  251MOL0     H33819   2.847   8.667   2.151  0.7750 -0.1550 -0.6363
  251MOL0     H33820   2.689   8.881   2.097 -0.3565  1.2402  0.0381
  251MOL0     H33821   2.827   8.872   1.984  0.2883  0.8898 -0.6968
  251MOL0     H33822   2.552   9.014   1.934  0.4607 -2.3508  3.3104
  251MOL0     H33823   2.660   8.958   1.799  0.3408 -1.9068  0.6740
  251MOL0     H33824   2.707   9.179   1.827 -2.4218 -0.7573  0.0974
  251MOL0     H33825   2.843   9.090   1.897  0.9624 -1.7642  2.3102
  251MOL0     H33826   2.608   9.173   2.073 -0.5852  1.7553 -1.4833
  251MOL0     H33827   2.777   9.144   2.124 -0.8441 -2.5969 -0.1801
  251MOL0     H33828   2.856   9.360   2.009 -0.0200  1.7047 -1.0715
  251MOL0     H33829   2.681   9.380   1.965 -1.9153 -2.1127  1.3165
  251MOL0     H33830   2.617   9.373   2.181  0.6805 -2.2857 -0.2167
  251MOL0     H33831   2.787   9.349   2.233  0.1953 -0.1973 -1.3903
  251MOL0     H33832   2.686   9.590   2.061  2.5921 -0.4390 -2.9253
  251MOL0     H33833   2.839   9.583   2.163 -0.6545  2.2395  0.0002
  251MOL0     H33834   2.585   9.606   2.311  1.2027 -5.0487 -0.0914
  251MOL0     H33835   2.754   9.649   2.339  1.5404 -0.4884 -1.5412
  251MOL0     H33836   2.496   9.752   2.093 -0.7086 -0.6431  2.5137
  251MOL0     H33837   2.427   9.961   1.960  1.6959 -0.2060 -0.6525
  251MOL0     H33838   2.445  10.113   2.053 -0.5396  0.5449  1.4886
  251MOL0     H33839   2.500  10.119   1.808  1.5165  2.9928  0.6112
  251MOL0     H33840   2.648  10.163   1.896  2.7058 -2.3839  2.5643
  251MOL0     H33841   2.752   9.952   1.838  0.0068  3.1086  0.6197
  251MOL0     H33842   2.657  10.006   1.702 -2.1536 -2.6086 -1.4339
  251MOL0     H33843   2.516   9.848   1.709 -1.0385  2.7837 -0.0922
  251MOL0     H33844   2.544   9.805   1.877 -1.7705 -0.5168 -0.6348
  251MOL0     H33845   2.445   9.648   1.734 -1.0176 -2.2548  2.7267
  251MOL0     H33846   2.393   9.427   1.651  1.1723 -2.0128  0.2126
  251MOL0     H33847   2.355   9.114   1.341 -0.9474 -0.9532 -1.2853
  251MOL0     H33848   2.308   8.875   1.291 -1.2207  2.0116  1.6570
  251MOL0     H33849   2.662   8.639   1.162 -0.9867 -1.2081  1.7035
  251MOL0     H33850   2.531   8.565   1.077  1.5165 -0.8905 -0.8212
  251MOL0     H33851   2.494   8.803   0.975  1.1685  0.5261 -3.8541
  251MOL0     H33852   2.665   8.830   0.995  0.6591  0.6025  0.2670
  251MOL0     H33853   2.556   8.591   0.837  3.0742 -3.6193  2.1686
  251MOL0     H33854   2.636   8.740   0.776  3.8053 -0.6776  0.1129
  251MOL0     H33855   2.736   8.494   0.925 -1.2588  1.2184  1.0163
  251MOL0     H33856   2.826   8.652   0.943  0.5703  0.8648 -0.4571
  251MOL0     H33857   2.943   8.554   0.768 -0.2106 -2.3907  0.6591
  251MOL0     H33858   2.827   8.677   0.704  1.1085  0.7504 -0.0127
  251MOL0     H33859   2.801   8.385   0.675  2.6979 -0.1415  0.5483
  251MOL0     H33860   2.682   8.500   0.615  0.4843  0.5592 -0.5306
  251MOL0     H33861   2.900   8.613   0.502 -0.7764  1.0976  0.1345
  251MOL0     H33862   2.819   8.456   0.434  0.4620  0.6154  0.9053
  251MOL0     H33863   3.062   8.474   0.617  0.8045  1.8689 -0.8809
  251MOL0     H33864   2.993   8.332   0.534  3.5315 -0.3512 -3.2350
  251MOL0     H33865   2.736   8.822   1.237  1.7037  1.6794 -0.5689
  251MOL0     H33866   2.787   9.028   1.338 -0.2376 -1.8306 -1.1524
  251MOL0     H33867   2.802   9.348   1.556 -0.9501  0.1887 -2.5156
  251MOL0     H33868   2.868   9.571   1.640  0.7627 -0.2967  5.4611
  251MOL0     H33869   2.563   8.542   1.824 -0.6685 -0.5284  0.6284
  251MOL0     H33870   2.609   8.303   1.906 -2.1508  2.0745 -2.3969
  251MOL0     H33871   2.730   7.943   2.063  0.5853  0.9217 -1.7610
  251MOL0     H33872   2.793   7.738   2.138  2.3004 -1.5108  0.0202
  251MOL0     H33873   3.177   7.638   2.276 -0.7553  0.8357  1.3884
  251MOL0     H33874   3.098   7.486   2.325  1.8729 -0.5599  2.0775
  251MOL0     H33875   3.004   7.606   2.516 -0.7587 -0.5441 -2.3048
  251MOL0     H33876   3.139   7.731   2.491  0.7048  0.2967 -1.3622
  251MOL0     H33877   3.276   7.503   2.467 -1.2951 -2.2107 -0.7577
  251MOL0     H33878   3.143   7.430   2.541 -0.1776  1.0979 -1.6505
  251MOL0     H33879   3.306   7.520   2.736 -1.2617 -3.5349 -2.6414
  251MOL0     H33880   3.291   7.679   2.670  0.4821  1.0388  1.7499
  251MOL0     H33881   2.935   7.620   2.910 -1.1639  0.3465 -1.4710
  251MOL0     H33882   3.164   7.868   2.303  1.4867  1.0221 -1.4537
  251MOL0     H33883   3.166   8.103   2.367 -5.2726  3.7677  3.0225
  251MOL0     H33884   3.202   8.122   2.183  0.1555 -1.1801  1.1332
  251MOL0     H33885   3.092   8.224   2.272  1.9747  1.5923 -1.5251
  252MOL0     O33886   5.121   8.347   7.413  0.5557  0.4045 -0.0619
  252MOL0     C33887   5.181   8.453   7.447  0.7874 -0.0802 -0.0641
  252MOL0     O33888   5.320   8.462   7.481 -0.5885 -0.0155  0.3400
  252MOL0     C33889   5.379   8.340   7.460  0.5462  0.0573 -0.5865
  252MOL0     C33890   5.349   8.212   7.528 -0.3310 -0.3600  0.6182
  252MOL0     C33891   5.426   8.102   7.490  0.1507  0.3130  0.3318
  252MOL0     C33892   5.526   8.110   7.395  0.2080 -0.2137  0.0636
  252MOL0     O33893   5.588   7.995   7.354  0.4823  0.3818 -0.0933
  252MOL0     C33894   5.696   8.001   7.262 -0.0570 -1.1429  0.2420
  252MOL0     C33895   5.795   7.876   7.275  0.4170  0.7158  0.9860
  252MOL0     C33896   5.808   7.817   7.415  1.2128  0.1775 -0.0787
  252MOL0     C33897   5.910   7.697   7.425 -0.2181  0.5160  0.4092
  252MOL0     C33898   5.912   7.639   7.573  0.3628 -0.1733 -0.0988
  252MOL0     C33899   5.993   7.512   7.578  1.0681  0.3159  0.4322
  252MOL0     C33900   6.147   7.531   7.554  0.7515 -0.2116 -0.2292
  252MOL0     C33901   6.223   7.415   7.501  0.2115 -0.1167  0.3688
  252MOL0     N33902   6.224   7.310   7.606 -0.1907  0.1133 -0.6610
  252MOL0     C33903   6.257   7.317   7.742 -0.0363 -0.0645  0.6223
  252MOL0     C33904   6.210   7.202   7.801 -0.3775 -0.2088  0.2974
  252MOL0     C33905   6.215   7.181   7.949  0.4155  0.5156 -0.7845
  252MOL0     C33906   6.100   7.259   8.019  0.2891 -1.0794 -0.3732
  252MOL0     C33907   6.100   7.210   8.167  0.5601  0.3221  0.6564
  252MOL0     C33908   6.008   7.287   8.260 -0.0344  0.3725  0.5375
  252MOL0     O33909   5.884   7.310   8.195 -1.1913 -0.1836  0.9392
  252MOL0     C33910   5.804   7.399   8.253 -0.0310 -0.0765 -0.6366
  252MOL0     C33911   5.790   7.431   8.394 -0.3314 -0.5452  0.8555
  252MOL0     C33912   5.709   7.542   8.432 -0.7662  0.4894  0.4980
  252MOL0     C33913   5.649   7.623   8.336 -1.4033 -0.4144  0.5003
  252MOL0     C33914   5.558   7.735   8.388  0.1356  0.4159  0.5907
  252MOL0     O33915   5.605   7.793   8.508  0.2727  0.2386 -0.0173
  252MOL0     C33916   5.549   7.904   8.570  0.4813  0.2885 -0.0570
  252MOL0     C33917   5.518   8.020   8.501  0.8610  0.5016  0.0558
  252MOL0     C33918   5.459   8.131   8.561  0.5537  0.3217  0.4256
  252MOL0     C33919   5.449   8.127   8.700 -0.6288  0.0493  0.7997
  252MOL0     O33920   5.407   8.243   8.754  0.1288 -0.0731 -0.4551
  252MOL0     C33921   5.387   8.260   8.898  0.3600 -0.5881 -0.6268
  252MOL0     C33922   5.369   8.406   8.935  0.3459  1.0687  0.2272
  252MOL0     C33923   5.238   8.482   8.895  0.9091 -0.1771 -0.0343
  252MOL0     C33924   5.225   8.493   8.738 -0.0851  0.0446 -0.6054
  252MOL0     C33925   5.084   8.548   8.698  0.5346  0.4325 -0.1371
  252MOL0     C33926   5.083   8.618   8.556 -0.1247  0.4815  0.1513
  252MOL0     C33927   5.127   8.770   8.559 -0.3789  0.9380  0.4382
  252MOL0     C33928   5.151   8.822   8.415 -0.4389  0.1328 -0.0281
  252MOL0    Cl33929   5.285   8.723   8.332 -0.2519  0.8735  0.1439
  252MOL0     C33930   5.486   8.010   8.776 -0.2198  0.1978 -0.7196
  252MOL0     C33931   5.534   7.901   8.706 -0.3011 -0.3153  0.0279
  252MOL0     O33932   5.464   7.784   8.317 -0.0118  0.8984 -0.8454
  252MOL0     C33933   5.664   7.589   8.203  0.7099 -0.0489  1.0385
  252MOL0     C33934   5.735   7.480   8.158 -0.5078  0.0851  0.8557
  252MOL0     N33935   6.175   7.115   7.694 -0.2327 -0.9135 -0.5699
  252MOL0     N33936   6.183   7.186   7.587  0.6062 -0.1969 -0.5514
  252MOL0     C33937   5.550   8.236   7.337  0.1140 -0.6663  0.0131
  252MOL0     C33938   5.487   8.346   7.375  0.0550 -0.4129 -0.3314
  252MOL0     C33939   5.097   8.571   7.441  0.6215 -0.7443  0.3086
  252MOL0     C33940   4.998   8.573   7.338 -0.3490 -0.0869 -0.3861
  252MOL0     C33941   4.903   8.681   7.332  1.2391  0.0046 -0.8148
  252MOL0     C33942   4.907   8.787   7.429 -1.1516  0.0370 -0.0237
  252MOL0     O33943   4.819   8.891   7.435 -0.2880  0.2407 -0.5867
  252MOL0     C33944   4.720   8.908   7.329  1.2680 -0.4179  1.3292
  252MOL0     C33945   4.650   9.046   7.332 -0.7486  0.5664  0.3869
  252MOL0     C33946   4.741   9.170   7.280  0.6107  0.0093 -0.6825
  252MOL0     C33947   4.653   9.299   7.306 -0.5960  0.4228  0.4357
  252MOL0     C33948   4.649   9.346   7.443 -0.1600  0.7969 -0.2634
  252MOL0     C33949   4.627   9.389   7.553  0.5702  0.0916 -1.0669
  252MOL0     C33950   5.023   8.795   7.512 -0.0964  0.0168 -1.0503
  252MOL0     C33951   5.114   8.687   7.521 -0.3847  0.0086  1.1957
  252MOL0     C33952   5.234   8.716   7.610 -0.2803  0.5931  0.2943
  252MOL0     H33953   5.263   8.203   7.593 -1.9306  2.4946 -0.8856
  252MOL0     H33954   5.415   8.003   7.532 -0.5814 -0.7274 -2.1492
  252MOL0     H33955   5.650   8.009   7.163  0.7176 -0.8001 -0.0946
  252MOL0     H33956   5.764   8.083   7.288  0.0720 -0.6817 -1.4495
  252MOL0     H33957   5.892   7.916   7.245 -0.1800  3.9867  2.9709
  252MOL0     H33958   5.761   7.805   7.198  4.7252  0.0523 -0.5463
  252MOL0     H33959   5.711   7.786   7.456  1.5980 -1.2411 -0.1765
  252MOL0     H33960   5.828   7.893   7.491  0.1878 -0.0370  0.4329
  252MOL0     H33961   5.870   7.616   7.363 -3.0117  1.0763  1.3399
  252MOL0     H33962   6.009   7.730   7.393 -0.1602 -1.6354 -1.9716
  252MOL0     H33963   5.962   7.712   7.638  1.4160 -0.1055 -0.9586
  252MOL0     H33964   5.806   7.626   7.597  0.8618 -2.8649  0.9990
  252MOL0     H33965   5.988   7.470   7.679  0.8551  1.0830  0.7433
  252MOL0     H33966   5.964   7.426   7.516 -0.2954 -1.0759  2.8216
  252MOL0     H33967   6.188   7.557   7.653  0.1736 -0.1092 -0.0151
  252MOL0     H33968   6.178   7.612   7.488  1.6274  0.8505  1.4046
  252MOL0     H33969   6.171   7.394   7.407  0.9833 -1.5164  0.2311
  252MOL0     H33970   6.328   7.437   7.477 -0.1002  0.3128 -0.6436
  252MOL0     H33971   6.296   7.403   7.796 -0.4689 -0.2483  1.2327
  252MOL0     H33972   6.220   7.073   7.966  0.7360  0.1530 -2.9487
  252MOL0     H33973   6.311   7.217   7.989  2.0553 -1.3824 -2.7134
  252MOL0     H33974   6.120   7.366   8.012 -1.3567 -0.8418 -3.9057
  252MOL0     H33975   6.004   7.241   7.969 -0.3463 -2.0641  1.1264
  252MOL0     H33976   6.206   7.213   8.195  1.8056 -3.2916 -2.8254
  252MOL0     H33977   6.078   7.103   8.174  1.5834  0.1954  2.5991
  252MOL0     H33978   6.052   7.383   8.287  2.6122 -0.0546 -1.6907
  252MOL0     H33979   5.996   7.233   8.354  0.6637  1.5498  1.3237
  252MOL0     H33980   5.834   7.374   8.475 -2.9269  0.4726  3.1850
  252MOL0     H33981   5.692   7.540   8.539  1.4034 -0.5439  0.8827
  252MOL0     H33982   5.532   8.011   8.394  0.4834  1.2974 -0.0711
  252MOL0     H33983   5.435   8.217   8.500 -2.6249 -1.5126 -1.1913
  252MOL0     H33984   5.306   8.199   8.939 -0.5321 -0.9092 -2.7324
  252MOL0     H33985   5.482   8.237   8.947  0.3964  2.9136  1.3047
  252MOL0     H33986   5.365   8.413   9.044  0.4102  0.9797  0.2347
  252MOL0     H33987   5.458   8.457   8.897  0.8469  1.4064  1.8064
  252MOL0     H33988   5.153   8.431   8.940 -0.1623  0.3940 -1.3463
  252MOL0     H33989   5.236   8.583   8.936 -0.3772  0.2487 -1.0974
  252MOL0     H33990   5.239   8.398   8.686 -1.4209 -1.6567  1.9328
  252MOL0     H33991   5.299   8.564   8.701  0.6140  0.0718  0.7849
  252MOL0     H33992   5.057   8.623   8.773 -1.2090 -2.0826  1.9225
  252MOL0     H33993   5.005   8.472   8.697  1.2292 -0.3323 -2.3915
  252MOL0     H33994   5.149   8.562   8.490 -2.1209  0.9591 -2.4057
  252MOL0     H33995   4.979   8.599   8.526 -0.3714  2.6275 -0.5416
  252MOL0     H33996   5.224   8.777   8.607  0.1412  4.0260 -0.8187
  252MOL0     H33997   5.059   8.827   8.623 -2.3866 -1.2943  0.4308
  252MOL0     H33998   5.058   8.820   8.356 -0.6625  2.8881  0.0802
  252MOL0     H33999   5.180   8.927   8.426  4.6880 -1.2509  2.2091
  252MOL0     H34000   5.478   8.020   8.883  0.5420  2.2806 -0.8103
  252MOL0     H34001   5.585   7.828   8.768  1.2101 -2.3755 -3.3202
  252MOL0     H34002   5.615   7.645   8.125  0.1879 -3.2984 -1.1319
  252MOL0     H34003   5.745   7.464   8.051  0.6485  1.5691  0.7059
  252MOL0     H34004   5.623   8.239   7.257 -0.5499 -1.7769 -0.6687
  252MOL0     H34005   5.523   8.440   7.333 -3.0743  1.2417  0.3679
  252MOL0     H34006   4.972   8.488   7.275  2.6086 -2.5927  1.4603
  252MOL0     H34007   4.818   8.679   7.265 -0.4968 -0.5437  1.3011
  252MOL0     H34008   4.639   8.836   7.347  3.0783 -2.9022  0.0617
  252MOL0     H34009   4.757   8.905   7.226 -2.0630 -0.9652 -0.0064
  252MOL0     H34010   4.624   9.064   7.437  0.2486 -2.6625  1.2900
  252MOL0     H34011   4.558   9.035   7.274 -1.9450 -0.7255  2.4290
  252MOL0     H34012   4.738   9.145   7.174 -3.4243  0.0642 -0.7487
  252MOL0     H34013   4.840   9.161   7.327 -0.4671 -5.0563  1.2760
  252MOL0     H34014   4.686   9.381   7.242  0.5027 -0.4220 -0.1041
  252MOL0     H34015   4.548   9.271   7.293 -0.8445  1.0283  1.0817
  252MOL0     H34016   4.591   9.414   7.651 -2.8315 -2.4737 -1.4637
  252MOL0     H34017   5.040   8.884   7.572 -0.3577 -0.6091 -0.0171
  252MOL0     H34018   5.259   8.623   7.663 -0.1748 -0.2255 -1.1467
  252MOL0     H34019   5.325   8.743   7.555 -0.1868  1.5987  0.9140
  252MOL0     H34020   5.223   8.797   7.683 -1.2510 -1.2484  2.2958
  253MOL0     O34021   4.792   5.941   9.210  0.1009  0.4496  0.0154
  253MOL0     C34022   4.772   6.024   9.117 -0.5367  0.6630  1.2630
  253MOL0     O34023   4.701   6.129   9.137 -0.0287 -0.3692  0.6323
  253MOL0     C34024   4.670   6.206   9.032 -0.5418 -0.8650 -0.0525
  253MOL0     C34025   4.764   6.306   9.004  0.0369 -0.3400 -0.8858
  253MOL0     C34026   4.730   6.408   8.912 -0.3251  0.8704  0.9078
  253MOL0     C34027   4.617   6.397   8.832 -0.0935 -0.4292 -0.9506
  253MOL0     O34028   4.594   6.496   8.740  0.5902  1.1276 -0.4466
  253MOL0     C34029   4.686   6.532   8.637 -0.5606 -0.2459  0.0834
  253MOL0     C34030   4.626   6.630   8.535  0.3767 -0.5725 -0.2218
  253MOL0     C34031   4.709   6.621   8.409  0.0621 -0.2473  0.0725
  253MOL0     C34032   4.702   6.752   8.332  0.7902  0.0477  0.1035
  253MOL0     C34033   4.786   6.732   8.212 -1.0083 -0.7917  0.5410
  253MOL0     C34034   4.790   6.855   8.118 -0.0625 -0.1668 -0.6902
  253MOL0     C34035   4.655   6.892   8.073  1.2518  0.3229  0.3930
  253MOL0     C34036   4.581   6.795   7.975 -0.4421 -0.2586 -0.4851
  253MOL0     N34037   4.460   6.855   7.929  0.3155  0.1798 -0.4950
  253MOL0     C34038   4.446   6.988   7.902 -0.3262 -0.1963  0.1429
  253MOL0     C34039   4.328   6.992   7.832  0.0832  0.3756 -0.4173
  253MOL0     C34040   4.269   7.119   7.774 -0.1759  0.0998 -0.2987
  253MOL0     C34041   4.253   7.097   7.621  0.0379 -0.0158 -0.4578
  253MOL0     C34042   4.172   7.216   7.573 -1.0531 -0.6208 -0.5193
  253MOL0     C34043   4.251   7.346   7.582  0.5291 -1.2919  0.9920
  253MOL0     O34044   4.208   7.423   7.465  0.2101  1.2506 -1.1703
  253MOL0     C34045   4.252   7.402   7.337  0.3526  0.3841 -0.9602
  253MOL0     C34046   4.362   7.329   7.303  0.2974 -0.4369  0.5789
  253MOL0     C34047   4.395   7.310   7.169 -0.2252 -0.8000 -0.5976
  253MOL0     C34048   4.314   7.358   7.062  0.4937  0.5297  0.2290
  253MOL0     C34049   4.346   7.325   6.916 -0.2802  0.3276 -0.3164
  253MOL0     O34050   4.277   7.389   6.816  0.0441  0.2747  0.8262
  253MOL0     C34051   4.285   7.328   6.695 -0.9624 -0.4896 -0.1674
  253MOL0     C34052   4.190   7.245   6.652  0.5094  0.6131 -0.0871
  253MOL0     C34053   4.190   7.190   6.530  0.6326 -0.3867 -0.1514
  253MOL0     C34054   4.286   7.225   6.441  0.1434  0.6538  0.6153
  253MOL0     O34055   4.273   7.156   6.319 -0.7091  0.0754 -0.3655
  253MOL0     C34056   4.361   7.179   6.200  0.1811 -0.3354 -0.2409
  253MOL0     C34057   4.477   7.085   6.211  0.8311 -0.2954 -0.0476
  253MOL0     C34058   4.574   7.121   6.102 -0.4554 -0.8324 -0.2472
  253MOL0     C34059   4.705   7.053   6.116  0.2423 -1.0392 -0.0523
  253MOL0     C34060   4.796   7.070   5.995 -0.0928 -0.5873  0.0410
  253MOL0     C34061   4.747   6.987   5.872 -0.6338  0.3304 -0.2766
  253MOL0     C34062   4.771   6.836   5.899  0.4898  0.2905  0.6879
  253MOL0     C34063   4.788   6.763   5.764  0.0810  0.4634  0.5122
  253MOL0    Cl34064   4.803   6.587   5.794  0.1380 -0.4977 -0.4768
  253MOL0     C34065   4.393   7.299   6.485  1.8977  0.1137 -0.5862
  253MOL0     C34066   4.384   7.353   6.606  0.7999  0.8204 -0.4297
  253MOL0     O34067   4.427   7.231   6.902 -0.7809 -0.2128 -0.9718
  253MOL0     C34068   4.211   7.446   7.101 -0.9068  1.1729 -0.2103
  253MOL0     C34069   4.178   7.464   7.238 -0.7046  0.0164 -0.0995
  253MOL0     N34070   4.291   6.860   7.800 -0.4082 -0.1893  0.4868
  253MOL0     N34071   4.364   6.785   7.869  0.6011  0.7759 -0.8973
  253MOL0     C34072   4.522   6.299   8.864 -0.1592  0.5431 -0.2902
  253MOL0     C34073   4.558   6.191   8.960  0.4819 -0.5203  0.0060
  253MOL0     C34074   4.818   5.965   8.983 -0.5400  0.9733  0.9618
  253MOL0     C34075   4.946   5.987   8.932 -0.1053 -0.3865  0.0944
  253MOL0     C34076   4.994   5.940   8.816 -0.3203 -0.6693  0.4515
  253MOL0     C34077   4.913   5.869   8.728 -0.5252 -0.1494 -0.2335
  253MOL0     O34078   4.954   5.833   8.601  0.6305 -0.3087  1.6471
  253MOL0     C34079   4.904   5.719   8.537  0.1848  0.0657 -1.0984
  253MOL0     C34080   4.975   5.697   8.405 -0.4208  0.1243  0.4949
  253MOL0     C34081   5.114   5.630   8.404 -0.3540  0.0891 -0.1859
  253MOL0     C34082   5.155   5.576   8.268 -0.5195 -0.9497 -1.1030
  253MOL0     C34083   5.095   5.451   8.232  0.8848 -0.9430  2.0944
  253MOL0     C34084   5.047   5.342   8.208  0.1063  0.9084 -0.3033
  253MOL0     C34085   4.788   5.830   8.777 -0.1533  0.3513 -1.1497
  253MOL0     C34086   4.740   5.876   8.904 -0.2496 -0.6555  0.6945
  253MOL0     C34087   4.603   5.825   8.956 -0.2789 -0.3823 -0.0477
  253MOL0     H34088   4.842   6.308   9.080 -1.0514  2.1717  0.2601
  253MOL0     H34089   4.808   6.482   8.894  1.0108 -0.8514 -0.8365
  253MOL0     H34090   4.766   6.588   8.687 -0.2462  0.6840 -1.4092
  253MOL0     H34091   4.728   6.438   8.601 -2.4930 -1.4083  0.6896
  253MOL0     H34092   4.634   6.726   8.587  0.0053 -1.6196  1.8911
  253MOL0     H34093   4.522   6.604   8.516 -0.0913  1.2056 -0.2579
  253MOL0     H34094   4.672   6.537   8.350 -0.5094  0.0371  0.0133
  253MOL0     H34095   4.811   6.602   8.444 -0.1497  1.4595  1.7984
  253MOL0     H34096   4.599   6.769   8.301  1.3816  1.5166 -1.1571
  253MOL0     H34097   4.744   6.827   8.400 -0.6909  0.3825  0.6776
  253MOL0     H34098   4.890   6.708   8.238 -0.5760  0.0971 -0.2895
  253MOL0     H34099   4.746   6.644   8.161 -1.0449 -1.3190  1.4481
  253MOL0     H34100   4.845   6.937   8.166 -0.5117  0.7617 -1.6976
  253MOL0     H34101   4.854   6.815   8.039  1.8356 -0.6033  0.9884
  253MOL0     H34102   4.684   6.979   8.013  6.7791  0.1273  2.2470
  253MOL0     H34103   4.590   6.919   8.156  0.6391  0.7928 -0.2322
  253MOL0     H34104   4.642   6.760   7.890 -0.9556 -0.5674 -0.7323
  253MOL0     H34105   4.559   6.703   8.031 -0.1668  0.2991  0.5610
  253MOL0     H34106   4.514   7.069   7.927  1.0381 -1.1752 -0.2291
  253MOL0     H34107   4.167   7.128   7.813 -1.3843 -0.7568 -3.0366
  253MOL0     H34108   4.328   7.209   7.796 -0.2398  0.7013 -2.3987
  253MOL0     H34109   4.356   7.095   7.584  1.0821  1.2067  2.1181
  253MOL0     H34110   4.198   7.005   7.604 -1.6319  0.5221  1.5526
  253MOL0     H34111   4.073   7.220   7.619 -0.6938 -0.0559  0.2195
  253MOL0     H34112   4.176   7.198   7.465  1.6118 -0.7660 -0.4462
  253MOL0     H34113   4.360   7.337   7.591  0.6287  0.2568  1.5047
  253MOL0     H34114   4.223   7.401   7.673  2.1315  1.7688 -0.2424
  253MOL0     H34115   4.419   7.290   7.386  2.7443  0.1292 -0.7389
  253MOL0     H34116   4.484   7.248   7.156  1.0976  0.3167  2.3405
  253MOL0     H34117   4.108   7.226   6.721  0.9072  0.0778  0.2401
  253MOL0     H34118   4.107   7.128   6.499 -1.2869  2.3663 -0.9512
  253MOL0     H34119   4.307   7.155   6.108 -1.8163 -1.5759  1.1890
  253MOL0     H34120   4.388   7.285   6.203 -1.0677  0.0345 -1.2569
  253MOL0     H34121   4.528   7.092   6.307 -1.2272  0.5017  1.0433
  253MOL0     H34122   4.434   6.984   6.206 -3.7633  1.4533 -0.3705
  253MOL0     H34123   4.535   7.082   6.008  2.4385 -2.5200 -0.8612
  253MOL0     H34124   4.586   7.230   6.100 -0.1706 -0.8740 -1.2298
  253MOL0     H34125   4.675   6.950   6.138 -2.6277  0.2444  2.9427
  253MOL0     H34126   4.764   7.093   6.199 -0.1248 -2.5702  1.0011
  253MOL0     H34127   4.894   7.031   6.025  0.5416  0.5826 -0.4307
  253MOL0     H34128   4.795   7.173   5.960  2.9126 -0.1544  0.9255
  253MOL0     H34129   4.645   7.008   5.840  0.0439  3.4185 -0.6881
  253MOL0     H34130   4.809   7.004   5.783  2.7356 -0.6265  1.7155
  253MOL0     H34131   4.677   6.798   5.940 -0.2956 -0.7706 -1.8484
  253MOL0     H34132   4.850   6.809   5.969  0.9106 -1.1963 -0.2900
  253MOL0     H34133   4.706   6.792   5.698  0.2914  0.7176  0.3618
  253MOL0     H34134   4.877   6.808   5.720 -0.6221  2.2886  0.8281
  253MOL0     H34135   4.481   7.319   6.424  2.6324  1.2714  0.7937
  253MOL0     H34136   4.460   7.428   6.624  0.0117  2.9304 -4.5946
  253MOL0     H34137   4.139   7.490   7.033 -0.1742  1.3850 -0.8752
  253MOL0     H34138   4.084   7.511   7.266 -0.6420  3.1404 -4.1616
  253MOL0     H34139   4.425   6.293   8.815  1.1449  1.7020 -3.2090
  253MOL0     H34140   4.489   6.115   8.997 -0.1085 -1.2667 -2.4597
  253MOL0     H34141   5.011   6.053   8.987  0.8303  0.7379 -2.2377
  253MOL0     H34142   5.099   5.964   8.804 -1.0383  3.3048  0.4476
  253MOL0     H34143   4.795   5.722   8.521 -0.2220 -0.7505  1.1411
  253MOL0     H34144   4.922   5.626   8.590 -0.1518  0.1661 -0.8049
  253MOL0     H34145   4.990   5.800   8.370 -1.5782  0.6945  1.5890
  253MOL0     H34146   4.910   5.645   8.333 -0.5746  0.9151  0.0436
  253MOL0     H34147   5.110   5.545   8.474  2.5106  0.2384  0.2778
  253MOL0     H34148   5.179   5.709   8.443  0.6746 -0.6237 -0.4017
  253MOL0     H34149   5.132   5.648   8.190 -0.7393  0.3887  0.1546
  253MOL0     H34150   5.264   5.577   8.270 -0.5170  0.3598 -1.2624
  253MOL0     H34151   5.014   5.242   8.186  1.6154  0.0359  1.1728
  253MOL0     H34152   4.721   5.763   8.725  0.9147 -1.3953 -0.3631
  253MOL0     H34153   4.614   5.733   9.013  2.5678 -1.5677 -2.2477
  253MOL0     H34154   4.554   5.898   9.021  1.3505 -0.1573  0.9751
  253MOL0     H34155   4.542   5.799   8.869  0.4321 -1.1275 -0.3400
  254MOL0     O34156   0.650   3.406   3.294  0.2889 -0.1230  0.2191
  254MOL0     C34157   0.535   3.423   3.351  0.1740 -0.6157  0.9814
  254MOL0     O34158   0.417   3.471   3.288 -0.8391  0.1822 -0.6694
  254MOL0     C34159   0.416   3.487   3.154 -0.7961 -0.1313 -0.3334
  254MOL0     C34160   0.392   3.609   3.085  0.7162 -0.0088  0.1495
  254MOL0     C34161   0.391   3.615   2.948 -0.0881 -0.3639  0.2816
  254MOL0     C34162   0.415   3.507   2.875  0.0989  0.0551  0.8370
  254MOL0     O34163   0.415   3.517   2.735 -0.2232 -0.2481  0.0047
  254MOL0     C34164   0.441   3.399   2.655  0.4086 -0.1421 -1.0295
  254MOL0     C34165   0.437   3.439   2.512 -0.5530  0.3987 -0.2886
  254MOL0     C34166   0.397   3.309   2.433 -0.1793 -0.0762 -0.2107
  254MOL0     C34167   0.503   3.190   2.441  0.3277  0.5918  0.3071
  254MOL0     C34168   0.472   3.091   2.319 -0.6721  0.9678 -0.3739
  254MOL0     C34169   0.365   2.996   2.354 -0.2465 -0.6274  0.1803
  254MOL0     C34170   0.289   2.938   2.230  1.0707  0.1940  0.9044
  254MOL0     C34171   0.350   2.815   2.159  0.9364 -1.4291 -0.4194
  254MOL0     N34172   0.487   2.808   2.148  0.2776 -0.5192 -0.3746
  254MOL0     C34173   0.566   2.888   2.067 -1.5071  0.5438 -0.0301
  254MOL0     C34174   0.695   2.843   2.093 -0.3889 -0.2628 -0.2655
  254MOL0     C34175   0.817   2.892   2.029  0.1955 -0.0374  0.8688
  254MOL0     C34176   0.940   2.910   2.118 -0.0734  0.5925 -0.1178
  254MOL0     C34177   1.069   2.899   2.040  0.0534  0.9573  0.2403
  254MOL0     C34178   1.100   3.019   1.957  0.2984  0.3872  0.4692
  254MOL0     O34179   1.016   3.032   1.843  0.7248  0.8154 -0.3495
  254MOL0     C34180   1.032   3.140   1.765  0.8076  0.1854  1.6704
  254MOL0     C34181   0.931   3.167   1.675  0.5868 -0.3674 -0.9107
  254MOL0     C34182   0.939   3.273   1.586 -0.4128  0.4244 -0.0987
  254MOL0     C34183   1.043   3.369   1.591 -0.4918  0.6579 -0.7253
  254MOL0     C34184   1.055   3.487   1.495  1.3715 -0.7751  0.0745
  254MOL0     O34185   0.955   3.506   1.404  0.2153 -0.0670 -0.1209
  254MOL0     C34186   0.971   3.611   1.317  0.1388  0.5636  0.5122
  254MOL0     C34187   0.907   3.728   1.328  0.4397  0.0689 -0.7969
  254MOL0     C34188   0.920   3.836   1.243 -0.1069  0.5412  0.5602
  254MOL0     C34189   1.008   3.821   1.140 -0.6360 -0.2354  0.4170
  254MOL0     O34190   1.019   3.925   1.047 -0.0586  0.3289  0.2407
  254MOL0     C34191   0.887   3.952   0.990  0.5990 -0.4096 -0.6535
  254MOL0     C34192   0.919   4.029   0.864  0.0212 -0.1978 -0.3650
  254MOL0     C34193   0.801   4.070   0.778  0.7921 -0.1965  0.3583
  254MOL0     C34194   0.766   3.960   0.688 -0.8310 -0.4313 -0.7837
  254MOL0     C34195   0.742   4.003   0.547  0.8220  0.5456 -0.8987
  254MOL0     C34196   0.697   3.892   0.457 -0.0109  0.4397  0.0920
  254MOL0     C34197   0.569   3.810   0.475  0.2273  0.0479  0.3245
  254MOL0     C34198   0.511   3.775   0.340 -1.2009  0.3094 -0.0811
  254MOL0    Cl34199   0.356   3.706   0.381  0.3637  0.8059 -0.6971
  254MOL0     C34200   1.093   3.709   1.124  0.3528  0.3094 -0.0356
  254MOL0     C34201   1.063   3.597   1.206 -0.4131 -0.7990 -0.8964
  254MOL0     O34202   1.147   3.567   1.509 -1.2207  0.0886 -0.0925
  254MOL0     C34203   1.144   3.343   1.678  0.9011 -1.3477  1.1437
  254MOL0     C34204   1.144   3.233   1.761  0.0712  0.7771  0.2987
  254MOL0     N34205   0.683   2.733   2.183  0.5142 -0.9039  0.8953
  254MOL0     N34206   0.560   2.721   2.221 -0.1024  0.0527  0.3145
  254MOL0     C34207   0.413   3.384   2.934 -0.3529  0.2003 -0.2906
  254MOL0     C34208   0.418   3.372   3.076  0.3566 -1.3417  0.6216
  254MOL0     C34209   0.536   3.428   3.506 -0.0426 -1.0362  1.3728
  254MOL0     C34210   0.446   3.507   3.571  0.2586 -1.1783  0.1056
  254MOL0     C34211   0.437   3.505   3.714  0.2031 -0.3081 -0.4420
  254MOL0     C34212   0.519   3.420   3.792 -1.0483 -0.0947 -0.2436
  254MOL0     O34213   0.500   3.417   3.927  0.3638  0.3584 -0.9423
  254MOL0     C34214   0.423   3.298   3.966  0.7863  0.5434 -0.4353
  254MOL0     C34215   0.275   3.329   3.990  1.3178 -0.4895  0.4414
  254MOL0     C34216   0.246   3.460   4.058  0.6847  0.4202 -0.0869
  254MOL0     C34217   0.099   3.459   4.103  0.6836  0.2092 -0.7721
  254MOL0     C34218   0.063   3.580   4.175 -0.3556 -0.1154  0.3930
  254MOL0     C34219   0.032   3.689   4.230 -1.0841  0.5466  0.1257
  254MOL0     C34220   0.611   3.355   3.724  0.4194  0.2582  0.7821
  254MOL0     C34221   0.626   3.353   3.582  0.1152  0.1953  0.0468
  254MOL0     C34222   0.744   3.274   3.519  0.0292  0.3710  0.1044
  254MOL0     H34223   0.376   3.700   3.141  1.9504  0.1725  0.2249
  254MOL0     H34224   0.386   3.714   2.903  0.7947 -0.5164 -0.1753
  254MOL0     H34225   0.530   3.343   2.684 -1.8560 -2.6845  1.6132
  254MOL0     H34226   0.357   3.332   2.674 -0.2133  1.2126  1.4703
  254MOL0     H34227   0.522   3.491   2.466 -0.2971 -0.7818 -1.2120
  254MOL0     H34228   0.346   3.499   2.503 -0.7535  1.2474  4.6935
  254MOL0     H34229   0.382   3.340   2.329 -3.5944 -3.7487 -1.0607
  254MOL0     H34230   0.297   3.279   2.465 -0.9859  2.6696  0.1342
  254MOL0     H34231   0.605   3.227   2.424 -0.3379  1.1780 -3.3836
  254MOL0     H34232   0.491   3.137   2.536 -0.3812 -0.3630 -0.2948
  254MOL0     H34233   0.447   3.147   2.228 -0.0339  1.3956 -0.2922
  254MOL0     H34234   0.566   3.041   2.296 -1.3058  0.4955 -2.0918
  254MOL0     H34235   0.411   2.918   2.415 -0.2196 -0.6976  0.0699
  254MOL0     H34236   0.286   3.042   2.415 -0.6280 -4.2212  2.6812
  254MOL0     H34237   0.290   3.023   2.161  2.8303 -1.2979 -1.0458
  254MOL0     H34238   0.191   2.906   2.267  0.4983  2.2731  1.3553
  254MOL0     H34239   0.314   2.727   2.215  2.9633 -2.5856 -0.8324
  254MOL0     H34240   0.300   2.804   2.063 -2.2264 -0.7324  1.0105
  254MOL0     H34241   0.543   2.957   1.987  1.9579 -0.4020 -2.0613
  254MOL0     H34242   0.836   2.822   1.947  0.0841  1.0263 -0.0961
  254MOL0     H34243   0.798   2.990   1.985 -0.4918  0.9338  3.1491
  254MOL0     H34244   0.931   3.006   2.170 -0.3349  0.1619  0.6510
  254MOL0     H34245   0.929   2.823   2.184  1.0112 -0.3643 -1.1516
  254MOL0     H34246   1.057   2.801   1.992 -0.5782  1.4264 -0.6028
  254MOL0     H34247   1.148   2.883   2.113  0.2969 -6.1186 -0.8769
  254MOL0     H34248   1.205   3.009   1.930  1.4299  2.8555  3.4433
  254MOL0     H34249   1.091   3.108   2.019  1.1507  2.5003 -2.2560
  254MOL0     H34250   0.835   3.116   1.680 -1.4527  2.8840 -3.2068
  254MOL0     H34251   0.871   3.285   1.503  0.0945 -3.5537 -1.2869
  254MOL0     H34252   0.850   3.742   1.419  2.4119 -0.9736  0.6800
  254MOL0     H34253   0.860   3.926   1.240 -2.2969 -0.8821 -1.0710
  254MOL0     H34254   0.838   3.860   0.958  0.3278 -0.0953 -1.1490
  254MOL0     H34255   0.829   4.017   1.056 -0.8841  0.5737 -2.8256
  254MOL0     H34256   0.954   4.130   0.889  1.3446 -0.4251 -1.2175
  254MOL0     H34257   0.995   3.980   0.803  0.7873 -0.8649  1.0663
  254MOL0     H34258   0.706   4.098   0.825  0.5754 -3.8186  2.4669
  254MOL0     H34259   0.831   4.158   0.721  2.3138 -2.5847 -2.8411
  254MOL0     H34260   0.685   3.892   0.718  0.0394 -1.3325 -0.4086
  254MOL0     H34261   0.849   3.890   0.674  0.4727  0.7789  0.4904
  254MOL0     H34262   0.838   4.030   0.501  0.1584  0.5346 -2.3467
  254MOL0     H34263   0.680   4.093   0.543 -0.0446  0.7062  5.5776
  254MOL0     H34264   0.691   3.939   0.359 -1.7432 -0.3837 -0.2463
  254MOL0     H34265   0.775   3.816   0.453 -2.0467 -1.7733 -0.1715
  254MOL0     H34266   0.495   3.864   0.535 -0.1327 -0.6533  0.5293
  254MOL0     H34267   0.596   3.718   0.528  0.3990  0.6447  1.2844
  254MOL0     H34268   0.504   3.864   0.276 -1.8253  1.2290  1.2301
  254MOL0     H34269   0.576   3.705   0.286 -0.9206  0.5642 -0.0768
  254MOL0     H34270   1.170   3.695   1.048 -1.4535  0.6217 -2.0002
  254MOL0     H34271   1.109   3.498   1.201 -2.2383 -2.1182  3.5321
  254MOL0     H34272   1.230   3.410   1.682  0.1516 -0.1437 -1.0742
  254MOL0     H34273   1.232   3.229   1.824  1.2681  3.0651 -1.0864
  254MOL0     H34274   0.438   3.299   2.871  1.9308  1.8609 -1.7631
  254MOL0     H34275   0.434   3.273   3.116 -0.4766 -2.5986 -1.9562
  254MOL0     H34276   0.368   3.565   3.523  0.7405 -2.2612 -2.1199
  254MOL0     H34277   0.359   3.562   3.764  0.3085 -1.4061  1.0111
  254MOL0     H34278   0.477   3.246   4.045  1.4970 -1.4506 -2.1356
  254MOL0     H34279   0.415   3.215   3.895  1.0488  2.1622 -2.4458
  254MOL0     H34280   0.221   3.246   4.037 -2.0013  1.4786  0.4552
  254MOL0     H34281   0.228   3.341   3.892  0.7996 -1.0577  0.6114
  254MOL0     H34282   0.265   3.549   3.997  0.8312  1.2815  1.1775
  254MOL0     H34283   0.304   3.459   4.151 -1.4137 -0.8984  1.2753
  254MOL0     H34284   0.034   3.464   4.016 -0.5110 -1.9312 -0.0925
  254MOL0     H34285   0.094   3.371   4.169  1.5831  0.4750 -0.3210
  254MOL0     H34286  -0.000   3.783   4.269  3.2558  1.2847  2.5579
  254MOL0     H34287   0.683   3.305   3.788  0.2853 -0.4824  0.3637
  254MOL0     H34288   0.703   3.204   3.446  2.1600 -1.0410  0.1668
  254MOL0     H34289   0.823   3.332   3.472  1.6435 -2.3915 -0.7946
  254MOL0     H34290   0.800   3.215   3.593  0.3542  0.8989  0.2775
  255MOL0     O34291   6.376   8.378   3.018  0.4689  0.0521  0.4771
  255MOL0     C34292   6.336   8.433   2.912  0.3855  0.1390 -0.4756
  255MOL0     O34293   6.307   8.368   2.795 -0.3944 -0.0801 -0.1845
  255MOL0     C34294   6.297   8.231   2.786  0.6851  0.4994  0.3529
  255MOL0     C34295   6.264   8.143   2.894  0.2263 -0.0586 -0.2108
  255MOL0     C34296   6.246   8.001   2.863  0.6412  0.3025  0.0428
  255MOL0     C34297   6.276   7.955   2.735 -0.2301  0.3933 -0.1998
  255MOL0     O34298   6.269   7.823   2.688  0.8816  0.5819  0.0041
  255MOL0     C34299   6.242   7.709   2.780  0.2435 -0.2412  0.0790
  255MOL0     C34300   6.085   7.700   2.789  0.0122  0.5140 -0.2720
  255MOL0     C34301   6.064   7.591   2.891 -0.1417  0.3742 -1.1694
  255MOL0     C34302   6.066   7.448   2.826 -0.0259  0.1964 -0.2820
  255MOL0     C34303   5.998   7.343   2.920 -0.2915 -0.7665  0.2100
  255MOL0     C34304   6.011   7.205   2.862  0.6185  0.2546 -0.3366
  255MOL0     C34305   5.919   7.176   2.736 -0.0204 -0.5386  1.4503
  255MOL0     C34306   5.955   7.032   2.691  0.3976  0.6431  0.1951
  255MOL0     N34307   6.081   7.017   2.615 -1.2326 -0.8134 -0.0256
  255MOL0     C34308   6.112   7.081   2.496 -0.0788 -0.0030  0.6002
  255MOL0     C34309   6.228   7.026   2.452 -0.4473 -0.3522 -0.6386
  255MOL0     C34310   6.314   7.039   2.327 -0.4959  0.1721  0.2651
  255MOL0     C34311   6.234   7.112   2.219 -0.1001 -0.6796 -0.2167
  255MOL0     C34312   6.318   7.127   2.090  0.3663 -0.5279  0.8270
  255MOL0     C34313   6.340   7.271   2.053 -0.1140  1.2952  0.4939
  255MOL0     O34314   6.403   7.288   1.927  0.4366  0.1265 -0.0511
  255MOL0     C34315   6.424   7.420   1.889  0.3578  1.0374  0.0853
  255MOL0     C34316   6.361   7.532   1.941  0.2794  0.0945  0.5836
  255MOL0     C34317   6.376   7.661   1.883  0.3456  0.2636  0.5285
  255MOL0     C34318   6.470   7.679   1.779  0.0539 -1.2409  1.0432
  255MOL0     C34319   6.493   7.811   1.713 -1.7642  0.2799 -0.5532
  255MOL0     O34320   6.431   7.924   1.763 -0.9840 -0.0886  0.4315
  255MOL0     C34321   6.483   8.043   1.731 -0.7076 -0.5423  0.4644
  255MOL0     C34322   6.491   8.132   1.843 -0.2794  0.0315  0.1909
  255MOL0     C34323   6.534   8.262   1.823 -1.6906 -0.5949 -0.3323
  255MOL0     C34324   6.557   8.315   1.693 -0.3780  0.0589 -0.3036
  255MOL0     O34325   6.608   8.441   1.663  0.0274 -1.0466 -0.8863
  255MOL0     C34326   6.736   8.462   1.723  0.5195 -0.2899  0.2120
  255MOL0     C34327   6.795   8.594   1.657  0.0166 -0.0260  0.0268
  255MOL0     C34328   6.935   8.622   1.728  0.4933 -0.8496  0.6255
  255MOL0     C34329   6.975   8.767   1.680 -0.5577 -0.9168  0.5870
  255MOL0     C34330   7.115   8.796   1.727 -0.6036 -0.3551 -0.6363
  255MOL0     C34331   7.171   8.911   1.650  0.4463 -1.3723  0.4005
  255MOL0     C34332   7.304   8.945   1.710 -0.0497  0.2078 -0.1073
  255MOL0     C34333   7.316   9.098   1.713  0.4816 -0.4214  0.1348
  255MOL0    Cl34334   7.480   9.159   1.722  0.1878  0.0498  0.1812
  255MOL0     C34335   6.551   8.223   1.582  0.5128  0.2138  0.7000
  255MOL0     C34336   6.513   8.091   1.603 -0.2671  0.2022  0.1419
  255MOL0     O34337   6.567   7.812   1.610 -0.6270  0.8388  0.0591
  255MOL0     C34338   6.544   7.569   1.739  0.5408  0.4711 -0.1883
  255MOL0     C34339   6.517   7.443   1.787  0.4054  0.2919 -0.5914
  255MOL0     N34340   6.273   6.938   2.549  0.5496 -0.5946 -0.4884
  255MOL0     N34341   6.180   6.923   2.639  0.3878 -0.5637  0.9194
  255MOL0     C34342   6.321   8.044   2.635  0.3442 -0.6560  0.2143
  255MOL0     C34343   6.331   8.176   2.662 -0.1612 -1.1688  0.4976
  255MOL0     C34344   6.313   8.585   2.910 -0.1853 -0.5059 -0.1437
  255MOL0     C34345   6.306   8.653   2.783  0.0544 -0.2135  0.0500
  255MOL0     C34346   6.304   8.794   2.761 -0.3989  0.3697  1.3358
  255MOL0     C34347   6.292   8.873   2.872  0.3569 -0.4386  0.1883
  255MOL0     O34348   6.298   9.016   2.867  0.0858  0.8963  0.3012
  255MOL0     C34349   6.174   9.088   2.875  0.0396  0.2028  0.4603
  255MOL0     C34350   6.129   9.111   2.725  0.2351  0.1660  0.4341
  255MOL0     C34351   6.237   9.176   2.639  0.5522 -0.0254  0.6489
  255MOL0     C34352   6.219   9.158   2.485  0.1412 -0.3382  0.3804
  255MOL0     C34353   6.275   9.030   2.453 -0.2047  0.6273 -0.1627
  255MOL0     C34354   6.304   8.921   2.397 -0.0731  0.0507 -0.0643
  255MOL0     C34355   6.296   8.820   3.002 -0.6320 -0.1224 -0.7645
  255MOL0     C34356   6.311   8.677   3.030 -0.0695 -1.3291 -0.1374
  255MOL0     C34357   6.337   8.632   3.171 -0.4626 -0.7312 -0.3119
  255MOL0     H34358   6.233   8.182   2.991 -2.6308  1.0818 -1.4507
  255MOL0     H34359   6.202   7.936   2.937 -0.3517  1.3907  0.4281
  255MOL0     H34360   6.288   7.626   2.726 -1.3609 -0.5300 -0.9110
  255MOL0     H34361   6.295   7.720   2.875  0.6236 -0.7872 -0.0658
  255MOL0     H34362   6.046   7.668   2.692 -0.0373 -0.9405  0.1992
  255MOL0     H34363   6.022   7.781   2.826 -1.3722 -0.5836 -0.1282
  255MOL0     H34364   5.967   7.613   2.936 -0.6558  0.4348 -2.2790
  255MOL0     H34365   6.132   7.574   2.974 -3.0097 -3.4267  0.7380
  255MOL0     H34366   6.017   7.438   2.728 -0.7126  1.5052 -0.0937
  255MOL0     H34367   6.170   7.415   2.815 -0.7902 -2.5890  0.1468
  255MOL0     H34368   6.052   7.326   3.013  1.4034  0.0867 -0.5629
  255MOL0     H34369   5.893   7.374   2.924  0.1712  0.8581  0.3693
  255MOL0     H34370   6.114   7.185   2.831  0.8796  0.5576  0.3125
  255MOL0     H34371   5.977   7.134   2.938  0.3484 -0.0314 -0.7236
  255MOL0     H34372   5.937   7.257   2.665  0.4890 -1.8560  0.0083
  255MOL0     H34373   5.811   7.175   2.752  0.2930 -3.4487  4.3702
  255MOL0     H34374   5.957   6.976   2.785  1.5304 -0.4575 -0.4511
  255MOL0     H34375   5.877   6.993   2.626 -0.9720  1.2258  1.4386
  255MOL0     H34376   6.050   7.150   2.440  0.4103 -0.7267 -0.8921
  255MOL0     H34377   6.409   7.091   2.345 -0.2872 -0.0359 -0.2052
  255MOL0     H34378   6.344   6.940   2.291  1.0841  0.1938  1.4011
  255MOL0     H34379   6.138   7.063   2.201  0.0507 -0.5043 -1.6079
  255MOL0     H34380   6.208   7.213   2.255 -0.8285 -0.0521 -2.3762
  255MOL0     H34381   6.282   7.062   2.010  0.6991 -0.8617  0.9458
  255MOL0     H34382   6.418   7.085   2.106  0.2964 -1.3529 -0.7185
  255MOL0     H34383   6.393   7.334   2.125 -0.5241  0.5469  1.4905
  255MOL0     H34384   6.237   7.309   2.049 -0.0720  1.3521 -3.7310
  255MOL0     H34385   6.281   7.540   2.014 -2.2853 -1.4800 -1.8475
  255MOL0     H34386   6.321   7.748   1.919 -1.3801  0.3330 -1.9509
  255MOL0     H34387   6.460   8.111   1.945 -0.5384 -1.8125 -0.2235
  255MOL0     H34388   6.551   8.322   1.912 -0.8099 -4.1187  2.1136
  255MOL0     H34389   6.723   8.479   1.830 -2.2266  2.1347 -0.3764
  255MOL0     H34390   6.810   8.383   1.708 -0.4332 -0.8883 -1.5707
  255MOL0     H34391   6.816   8.574   1.552 -2.2991  0.3405 -0.5767
  255MOL0     H34392   6.730   8.682   1.659  0.0782  0.0263 -0.2564
  255MOL0     H34393   6.914   8.628   1.835  1.0824  0.0711  0.6997
  255MOL0     H34394   7.011   8.546   1.711 -1.8626 -3.8507  2.4091
  255MOL0     H34395   6.913   8.852   1.707  0.5941 -0.3331  1.5182
  255MOL0     H34396   6.979   8.756   1.571 -1.4035 -2.0383  0.6462
  255MOL0     H34397   7.171   8.707   1.700 -0.4291 -0.3969 -0.1357
  255MOL0     H34398   7.111   8.818   1.834 -0.3892 -1.3146 -0.4243
  255MOL0     H34399   7.174   8.890   1.542 -1.7639 -0.5286  0.1378
  255MOL0     H34400   7.105   8.998   1.652 -0.5794 -2.0301 -1.6405
  255MOL0     H34401   7.386   8.905   1.651  1.7391  1.4803  1.3958
  255MOL0     H34402   7.320   8.909   1.812 -0.4545 -3.5510 -1.2449
  255MOL0     H34403   7.267   9.145   1.628  0.6405  1.2078  0.8935
  255MOL0     H34404   7.263   9.122   1.806  0.4079  2.3891 -0.5426
  255MOL0     H34405   6.582   8.251   1.482  1.4660 -2.5516  0.1228
  255MOL0     H34406   6.485   8.034   1.515 -2.0810 -0.8907  1.3521
  255MOL0     H34407   6.607   7.564   1.651  1.0424  0.7366  0.1479
  255MOL0     H34408   6.575   7.360   1.748  0.9983 -0.7785  2.3610
  255MOL0     H34409   6.333   8.006   2.534  2.3467  3.2831 -1.2588
  255MOL0     H34410   6.368   8.239   2.582 -0.0358  0.2882  1.6511
  255MOL0     H34411   6.298   8.600   2.688 -2.3819 -0.5321  0.3798
  255MOL0     H34412   6.295   8.848   2.667  1.0811 -1.4117  0.0908
  255MOL0     H34413   6.174   9.187   2.922 -0.9955  0.1147  0.6651
  255MOL0     H34414   6.093   9.028   2.917 -0.5100  0.3482 -0.3522
  255MOL0     H34415   6.034   9.165   2.721 -0.2541 -0.6245  0.9295
  255MOL0     H34416   6.125   9.007   2.691  5.9210 -0.3586  0.4458
  255MOL0     H34417   6.339   9.163   2.675  1.3182  3.2836  0.0425
  255MOL0     H34418   6.221   9.280   2.668  4.3546 -0.1761  4.0412
  255MOL0     H34419   6.117   9.156   2.445  1.0588 -0.9730 -2.0926
  255MOL0     H34420   6.281   9.238   2.445 -2.1235  0.8532 -0.9693
  255MOL0     H34421   6.316   8.826   2.349  3.2278  0.7206 -0.8151
  255MOL0     H34422   6.312   8.888   3.085 -0.6579 -1.8016  0.6756
  255MOL0     H34423   6.262   8.687   3.229  1.7230  4.2419 -1.6018
  255MOL0     H34424   6.315   8.530   3.203  3.9884 -1.4373  1.2933
  255MOL0     H34425   6.439   8.657   3.202 -1.0143 -0.3767  1.3492
  256MOL0     O34426   3.467   3.334   6.101  0.5495 -0.0137 -0.5999
  256MOL0     C34427   3.523   3.231   6.123 -0.3675 -0.8769 -0.7117
  256MOL0     O34428   3.494   3.110   6.068 -0.9196  0.1199  0.5361
  256MOL0     C34429   3.403   3.087   5.967 -0.2754 -0.8853  0.3583
  256MOL0     C34430   3.372   3.187   5.867  0.4328 -0.4323  0.1595
  256MOL0     C34431   3.300   3.146   5.749  0.9872 -0.4092  0.7607
  256MOL0     C34432   3.263   3.014   5.735 -0.8123 -0.4820  0.2634
  256MOL0     O34433   3.193   2.966   5.632  0.3746  0.4517  0.0574
  256MOL0     C34434   3.120   3.051   5.554 -0.2890 -0.1058 -0.0190
  256MOL0     C34435   3.065   2.977   5.421  0.5518  0.1042 -0.1547
  256MOL0     C34436   2.982   2.862   5.462  0.0602 -0.0094  0.7167
  256MOL0     C34437   3.058   2.730   5.467  0.6301 -0.4728 -0.5234
  256MOL0     C34438   2.955   2.611   5.491  0.4341 -0.3319 -0.3274
  256MOL0     C34439   3.031   2.491   5.523 -0.8880 -0.4706 -0.7052
  256MOL0     C34440   3.084   2.417   5.402  0.6035  0.4209  0.2936
  256MOL0     C34441   3.174   2.290   5.432  0.9786 -0.2488 -0.0181
  256MOL0     N34442   3.117   2.193   5.531 -1.1286 -0.8500 -0.4872
  256MOL0     C34443   3.151   2.203   5.664 -1.1234  0.8400 -0.3332
  256MOL0     C34444   3.059   2.121   5.722  0.1531  0.6034 -0.8338
  256MOL0     C34445   3.050   2.095   5.872  0.7978 -0.1114 -0.1979
  256MOL0     C34446   3.037   1.946   5.895  0.4552 -0.4159 -0.6554
  256MOL0     C34447   2.993   1.933   6.041 -0.4470 -0.5109 -0.0157
  256MOL0     C34448   3.101   1.957   6.144  0.7519 -0.2345  0.2925
  256MOL0     O34449   3.229   1.900   6.102  0.1993  0.0018  0.0720
  256MOL0     C34450   3.345   1.939   6.162  1.1155  0.3995  0.1013
  256MOL0     C34451   3.455   1.898   6.091  0.2381 -1.3063  1.2996
  256MOL0     C34452   3.586   1.951   6.121  0.4240  0.5165  0.2452
  256MOL0     C34453   3.599   2.041   6.229  0.2072 -1.1455 -0.0944
  256MOL0     C34454   3.736   2.091   6.272  0.1993 -0.3476 -0.7657
  256MOL0     O34455   3.842   2.045   6.193 -0.0864 -0.1721 -0.0929
  256MOL0     C34456   3.961   2.124   6.196  0.0367 -0.4213 -0.0655
  256MOL0     C34457   4.087   2.064   6.206  0.0689 -0.2461 -0.7853
  256MOL0     C34458   4.200   2.148   6.199 -0.4314  0.2350 -1.2495
  256MOL0     C34459   4.196   2.289   6.190 -0.2684 -0.2525 -0.0574
  256MOL0     O34460   4.304   2.377   6.156  1.1840 -0.3315  0.5347
  256MOL0     C34461   4.421   2.344   6.241 -0.2248 -0.8452 -0.3428
  256MOL0     C34462   4.408   2.408   6.380  0.0394 -0.2250 -0.4772
  256MOL0     C34463   4.524   2.359   6.471  0.0464  0.6089 -0.1180
  256MOL0     C34464   4.663   2.417   6.454  0.0434 -0.5374 -0.0372
  256MOL0     C34465   4.749   2.351   6.560  0.2173 -1.0080 -0.4785
  256MOL0     C34466   4.860   2.442   6.605  1.0817 -0.2762  0.3296
  256MOL0     C34467   4.954   2.380   6.700  0.0739 -1.0672  0.6125
  256MOL0     C34468   5.015   2.481   6.806 -0.9226 -0.1077  0.4959
  256MOL0    Cl34469   5.111   2.616   6.725 -0.3484 -0.2313 -0.4052
  256MOL0     C34470   4.072   2.352   6.174  0.5437 -0.2127  0.2358
  256MOL0     C34471   3.959   2.262   6.177  0.2754  0.0953 -0.1103
  256MOL0     O34472   3.753   2.147   6.383 -0.0086 -0.1026 -0.1970
  256MOL0     C34473   3.485   2.069   6.303  0.0976 -0.1505  0.1996
  256MOL0     C34474   3.358   2.022   6.268 -0.0786 -0.3272 -0.2530
  256MOL0     N34475   2.963   2.083   5.630 -0.4447  0.1340  0.8397
  256MOL0     N34476   2.994   2.139   5.520  0.3664  0.2720 -0.0631
  256MOL0     C34477   3.301   2.925   5.823 -0.3338  0.4164 -0.6306
  256MOL0     C34478   3.372   2.955   5.938  0.9392 -0.4973 -1.1452
  256MOL0     C34479   3.644   3.250   6.202  0.5927 -0.6377  1.0038
  256MOL0     C34480   3.741   3.341   6.153 -0.7372  0.4221  0.4153
  256MOL0     C34481   3.862   3.348   6.219 -0.5368  0.8016  0.7491
  256MOL0     C34482   3.897   3.267   6.327 -0.0138  0.2843  0.7650
  256MOL0     O34483   4.025   3.276   6.376  0.2658 -0.4663  0.1622
  256MOL0     C34484   4.080   3.165   6.449 -0.3814  0.3766 -1.0228
  256MOL0     C34485   4.234   3.139   6.423  0.1299  0.2694 -0.0593
  256MOL0     C34486   4.321   3.263   6.457  0.1610 -0.4203  0.3374
  256MOL0     C34487   4.471   3.252   6.432  0.4878 -0.3244  0.7181
  256MOL0     C34488   4.492   3.164   6.319  0.0232  0.4584 -0.5663
  256MOL0     C34489   4.509   3.078   6.241  0.0875  0.3929  0.6974
  256MOL0     C34490   3.797   3.188   6.387 -0.0510  0.3559 -0.4372
  256MOL0     C34491   3.670   3.173   6.317 -0.8443  0.5997 -0.2532
  256MOL0     C34492   3.581   3.070   6.369  0.3693 -0.7909  0.0453
  256MOL0     H34493   3.391   3.294   5.876  2.5566 -0.9046  1.8761
  256MOL0     H34494   3.286   3.219   5.670 -0.0444 -1.0192  0.3637
  256MOL0     H34495   3.039   3.084   5.619 -1.1102  2.5066 -2.1820
  256MOL0     H34496   3.170   3.145   5.530 -1.6914  1.8771  4.0270
  256MOL0     H34497   3.150   2.934   5.367 -0.2765 -1.4986 -0.2518
  256MOL0     H34498   3.007   3.046   5.359 -1.0367 -2.4746 -1.7337
  256MOL0     H34499   2.913   2.862   5.377  1.1963 -0.1997 -0.2347
  256MOL0     H34500   2.916   2.873   5.549 -2.6781 -0.3055 -1.1822
  256MOL0     H34501   3.114   2.710   5.375 -1.3867  1.3465 -2.2337
  256MOL0     H34502   3.123   2.735   5.555  2.9902 -0.3533 -2.1710
  256MOL0     H34503   2.886   2.636   5.572  2.5001 -0.5634  1.6016
  256MOL0     H34504   2.886   2.603   5.407  0.2101  3.3518 -0.6506
  256MOL0     H34505   3.109   2.506   5.598 -4.2686 -1.0900  3.3201
  256MOL0     H34506   2.965   2.419   5.574  1.7998 -1.8558  1.0779
  256MOL0     H34507   3.131   2.491   5.337 -0.2279  0.3560 -0.3991
  256MOL0     H34508   3.004   2.376   5.340  2.6829  0.2618 -2.4820
  256MOL0     H34509   3.195   2.235   5.340  2.4043 -0.1282  0.2071
  256MOL0     H34510   3.266   2.335   5.471 -0.3632 -0.4289  3.8730
  256MOL0     H34511   3.228   2.270   5.701  2.1265 -1.5730 -2.2419
  256MOL0     H34512   3.148   2.126   5.911  1.3634 -0.4485 -1.2942
  256MOL0     H34513   2.965   2.150   5.912 -0.2902 -0.9582 -1.2687
  256MOL0     H34514   2.957   1.922   5.823 -2.8161  5.3357  0.4491
  256MOL0     H34515   3.125   1.886   5.872  0.8703  0.0219 -0.2237
  256MOL0     H34516   2.941   1.836   6.044 -0.7935 -0.3042  2.0479
  256MOL0     H34517   2.913   2.000   6.073  2.3599  1.2294  4.1340
  256MOL0     H34518   3.063   1.901   6.230 -0.9714 -1.3335 -1.0950
  256MOL0     H34519   3.107   2.060   6.178  1.4446 -0.9477  2.4630
  256MOL0     H34520   3.443   1.844   5.997  1.3248 -0.8250  0.8639
  256MOL0     H34521   3.672   1.917   6.064  1.0181  1.9250  0.2692
  256MOL0     H34522   4.099   1.957   6.206 -0.9041 -0.4880  2.7129
  256MOL0     H34523   4.293   2.094   6.192 -0.0777  0.7677 -0.7375
  256MOL0     H34524   4.436   2.235   6.243 -1.7515 -1.0675  1.4230
  256MOL0     H34525   4.507   2.388   6.190 -1.9818  0.6062 -2.2521
  256MOL0     H34526   4.417   2.517   6.373  0.7492 -0.2676 -0.3467
  256MOL0     H34527   4.315   2.382   6.431  1.8143 -4.4282  1.0580
  256MOL0     H34528   4.504   2.398   6.571  3.1185  0.6627  0.5666
  256MOL0     H34529   4.519   2.252   6.493  2.4806  0.5414  0.3951
  256MOL0     H34530   4.660   2.526   6.456 -1.5963 -0.5580  0.8826
  256MOL0     H34531   4.692   2.390   6.352 -0.7310 -0.7634 -0.2050
  256MOL0     H34532   4.789   2.266   6.505  1.4558 -0.0178 -1.1630
  256MOL0     H34533   4.693   2.306   6.642  0.6484 -1.9272 -0.6720
  256MOL0     H34534   4.901   2.482   6.511 -2.1024  0.5569 -0.8389
  256MOL0     H34535   4.807   2.528   6.648 -0.1832 -0.4196 -0.8703
  256MOL0     H34536   5.030   2.327   6.640  0.6423  0.0555  0.3141
  256MOL0     H34537   4.915   2.303   6.766 -1.6556  0.0185  0.9087
  256MOL0     H34538   4.937   2.535   6.860 -1.2490  0.3476 -0.4124
  256MOL0     H34539   5.083   2.430   6.876 -0.1352  1.1483  0.6929
  256MOL0     H34540   4.074   2.460   6.162 -0.6572  0.5498  4.8626
  256MOL0     H34541   3.859   2.304   6.172 -0.7220 -1.5719  2.8450
  256MOL0     H34542   3.480   2.124   6.396 -1.7939 -0.5291  0.3498
  256MOL0     H34543   3.269   2.045   6.324  0.1402  1.8580 -0.7224
  256MOL0     H34544   3.276   2.821   5.810 -0.3145  0.5244 -1.6380
  256MOL0     H34545   3.392   2.877   6.011  0.1985 -2.4732 -2.9397
  256MOL0     H34546   3.725   3.403   6.065 -0.7717  2.5656  1.8710
  256MOL0     H34547   3.937   3.411   6.173 -2.3708  1.9227 -0.8802
  256MOL0     H34548   4.027   3.069   6.440 -1.5100  0.6024  1.9997
  256MOL0     H34549   4.075   3.202   6.552 -1.9641 -2.4157  0.0383
  256MOL0     H34550   4.257   3.092   6.327  0.9484 -0.6395  0.5701
  256MOL0     H34551   4.259   3.061   6.495  2.2534  0.1545 -0.8727
  256MOL0     H34552   4.307   3.302   6.559  2.1222  0.9408  0.1640
  256MOL0     H34553   4.274   3.342   6.398 -0.8376 -1.1031  0.2131
  256MOL0     H34554   4.497   3.356   6.410  2.3914 -1.0859 -0.8723
  256MOL0     H34555   4.537   3.223   6.513  1.5359  2.1809  0.8412
  256MOL0     H34556   4.523   2.988   6.186  0.2381  0.8923 -0.0889
  256MOL0     H34557   3.811   3.114   6.466 -2.5690 -0.1452 -0.3914
  256MOL0     H34558   3.497   3.101   6.431  2.3979 -0.6171  2.9361
  256MOL0     H34559   3.538   3.019   6.282  1.9105 -1.8804 -0.1355
  256MOL0     H34560   3.640   2.999   6.428  2.4240  0.8602  0.1068
  257MOL0     O34561   5.345   7.109   8.762 -0.3505  0.2375 -0.1164
  257MOL0     C34562   5.246   7.054   8.809  0.4753 -1.2158 -0.5630
  257MOL0     O34563   5.251   6.987   8.928  0.4344  0.5470 -0.9354
  257MOL0     C34564   5.368   6.973   8.998 -0.9945  0.0895  0.8028
  257MOL0     C34565   5.443   6.856   9.001  0.7190 -1.1719  0.4510
  257MOL0     C34566   5.550   6.839   9.089  0.2251 -0.2180  0.2818
  257MOL0     C34567   5.598   6.946   9.146 -0.6327 -0.0647 -0.2417
  257MOL0     O34568   5.707   6.916   9.222 -0.1969  0.4885 -0.5885
  257MOL0     C34569   5.723   6.972   9.350 -0.3914 -0.7726 -0.5709
  257MOL0     C34570   5.848   7.066   9.366  0.6953 -0.8288 -0.9606
  257MOL0     C34571   5.830   7.154   9.496 -0.3360  0.7279 -0.9558
  257MOL0     C34572   5.861   7.070   9.621  0.2048  0.1433 -0.1511
  257MOL0     C34573   5.920   7.150   9.735  0.7442 -0.3703  0.5273
  257MOL0     C34574   5.930   7.045   9.850 -0.2263  0.6000 -0.3685
  257MOL0     C34575   5.803   7.020   9.928  0.8678 -0.1546 -0.9924
  257MOL0     C34576   5.819   6.924  10.045  0.4338  0.0797  0.8268
  257MOL0     N34577   5.696   6.902  10.127 -0.5117 -0.2214  0.3844
  257MOL0     C34578   5.619   6.792  10.118  0.5801 -0.7919  0.9469
  257MOL0     C34579   5.524   6.807  10.215 -0.0075 -0.1507  0.3309
  257MOL0     C34580   5.423   6.704  10.241  0.4470 -0.0595  0.2336
  257MOL0     C34581   5.310   6.723  10.139  0.0601  0.0351  0.3671
  257MOL0     C34582   5.194   6.631  10.174  0.2475 -0.2795  0.1925
  257MOL0     C34583   5.066   6.695  10.234  0.2408 -0.9703 -0.5186
  257MOL0     O34584   5.062   6.722  10.379  0.3786 -0.7368  0.3562
  257MOL0     C34585   4.968   6.803  10.430 -0.0014  0.3544 -0.2917
  257MOL0     C34586   4.835   6.790  10.382  0.8348  0.0253 -0.6331
  257MOL0     C34587   4.736   6.862  10.456 -0.6780 -1.2237  0.6473
  257MOL0     C34588   4.774   6.971  10.544 -0.0768  0.9503 -0.5453
  257MOL0     C34589   4.675   7.055  10.617 -0.9612 -0.0526  0.6860
  257MOL0     O34590   4.551   7.007  10.625  0.6823  0.9483  0.8308
  257MOL0     C34591   4.450   7.099  10.651  0.8725  0.0014  0.4546
  257MOL0     C34592   4.408   7.195  10.551  0.3274 -0.6865  1.4136
  257MOL0     C34593   4.321   7.293  10.588 -0.5251 -0.1151 -1.7247
  257MOL0     C34594   4.269   7.298  10.716  0.3574  0.2457 -0.6707
  257MOL0     O34595   4.180   7.398  10.755  0.2899 -0.0317  0.3232
  257MOL0     C34596   4.155   7.420  10.888  0.8047 -0.3810 -0.8504
  257MOL0     C34597   4.046   7.516  10.889  0.2123 -0.8667 -0.3539
  257MOL0     C34598   3.972   7.508  11.016  0.3847 -0.6843 -0.1417
  257MOL0     C34599   4.043   7.575  11.128  1.1962  0.3769  1.4903
  257MOL0     C34600   3.972   7.547  11.260 -0.2235 -0.4851 -0.3246
  257MOL0     C34601   4.029   7.631  11.371  1.0856 -0.1450  0.2472
  257MOL0     C34602   3.978   7.772  11.371 -0.2087 -0.7805 -0.0587
  257MOL0     C34603   4.051   7.860  11.475  0.1076 -0.0791 -0.8370
  257MOL0    Cl34604   4.037   7.793  11.638  0.1036  0.0084 -0.5067
  257MOL0     C34605   4.304   7.210  10.811 -0.2867  0.8802 -0.4034
  257MOL0     C34606   4.398   7.099  10.778  0.8006 -0.5922 -0.4937
  257MOL0     O34607   4.712   7.161  10.668  0.1196  0.4435 -0.4801
  257MOL0     C34608   4.912   6.978  10.583  0.3989  0.1633 -0.5430
  257MOL0     C34609   5.003   6.884  10.536  0.0828 -0.2184  0.0116
  257MOL0     N34610   5.539   6.917  10.290  0.2436  0.3671 -0.6806
  257MOL0     N34611   5.652   6.971  10.239 -0.3002 -0.8760 -0.8127
  257MOL0     C34612   5.532   7.071   9.147 -1.5017  0.0206  0.6634
  257MOL0     C34613   5.414   7.081   9.085  0.6416  0.0436  0.6808
  257MOL0     C34614   5.115   7.070   8.740 -0.3291  0.3230 -0.5251
  257MOL0     C34615   4.993   7.078   8.810 -0.9025  0.1754  0.4415
  257MOL0     C34616   4.867   7.075   8.748  0.6065 -0.6320 -0.2324
  257MOL0     C34617   4.855   7.045   8.612  0.4362 -0.6527 -0.8330
  257MOL0     O34618   4.732   7.077   8.562 -0.2267  0.7853  0.3706
  257MOL0     C34619   4.728   7.138   8.437 -0.2590  0.0134 -0.3196
  257MOL0     C34620   4.748   7.289   8.464 -0.6020 -0.8834  0.0114
  257MOL0     C34621   4.725   7.371   8.337 -0.4356 -0.5796  1.4316
  257MOL0     C34622   4.827   7.332   8.223  0.7549  0.1432  0.6890
  257MOL0     C34623   4.961   7.334   8.279 -0.1004  0.1613 -0.4158
  257MOL0     C34624   5.072   7.327   8.327 -0.1030 -0.6899  0.1956
  257MOL0     C34625   4.972   7.019   8.546 -0.0724  0.7246 -0.8740
  257MOL0     C34626   5.106   7.034   8.599  0.1279  0.3364 -0.8465
  257MOL0     C34627   5.214   7.018   8.501 -0.5068 -0.1223  0.8580
  257MOL0     H34628   5.415   6.772   8.938 -2.2833 -0.8397  1.2035
  257MOL0     H34629   5.592   6.740   9.082  4.0703  1.2883 -0.3373
  257MOL0     H34630   5.634   7.021   9.391  0.6222 -0.0716  0.8832
  257MOL0     H34631   5.736   6.890   9.422  0.7963  0.4118  0.6220
  257MOL0     H34632   5.846   7.145   9.291  0.4002  1.3379  1.2089
  257MOL0     H34633   5.942   7.012   9.352 -0.5271 -2.8721 -1.6511
  257MOL0     H34634   5.736   7.210   9.501  0.1626  1.4932  2.3557
  257MOL0     H34635   5.915   7.223   9.486  1.1297 -0.7868  0.5174
  257MOL0     H34636   5.769   7.022   9.654  0.6110 -0.9497 -0.5722
  257MOL0     H34637   5.928   6.989   9.591 -2.2318 -2.2820  0.5068
  257MOL0     H34638   6.018   7.189   9.705  0.9893  0.0981  1.8577
  257MOL0     H34639   5.857   7.234   9.766 -1.3929 -2.0151  0.8310
  257MOL0     H34640   5.975   6.953   9.813 -1.3023  0.1354 -0.5448
  257MOL0     H34641   5.996   7.096   9.921  0.5612 -2.1112  0.9431
  257MOL0     H34642   5.729   6.985   9.855  1.2276 -0.4388 -1.2277
  257MOL0     H34643   5.767   7.113   9.973 -0.8317 -2.1786  2.1858
  257MOL0     H34644   5.868   6.841   9.994  0.8760  1.5783 -1.3345
  257MOL0     H34645   5.891   6.964  10.117  0.7639 -1.4108  1.3635
  257MOL0     H34646   5.623   6.705  10.053 -0.4172 -1.0229  1.1789
  257MOL0     H34647   5.460   6.602  10.222  2.3361  0.6367 -0.0575
  257MOL0     H34648   5.393   6.695  10.345 -0.3364  0.5484  0.0647
  257MOL0     H34649   5.269   6.824  10.133 -1.2259 -0.2436  2.9420
  257MOL0     H34650   5.350   6.692  10.042  0.2691  2.3195 -0.3154
  257MOL0     H34651   5.232   6.551  10.239 -1.6404 -0.7467  0.7879
  257MOL0     H34652   5.162   6.580  10.083 -0.4483  0.0886  0.2266
  257MOL0     H34653   4.980   6.630  10.220 -1.4866 -0.0436  4.0299
  257MOL0     H34654   5.043   6.789  10.183  0.9048 -0.0562  0.8076
  257MOL0     H34655   4.811   6.743  10.287  1.5295  3.5057 -2.7124
  257MOL0     H34656   4.634   6.830  10.439 -1.7631  2.7971 -1.6083
  257MOL0     H34657   4.442   7.196  10.448 -1.8476  1.7537  0.6273
  257MOL0     H34658   4.290   7.359  10.508  1.3925  1.3267 -1.3605
  257MOL0     H34659   4.121   7.330  10.940  1.8327 -1.4992 -2.0374
  257MOL0     H34660   4.238   7.470  10.941 -0.3802  0.0265  0.6976
  257MOL0     H34661   4.082   7.618  10.870  0.1407 -1.3894 -3.8849
  257MOL0     H34662   3.975   7.495  10.808 -2.7371 -1.2558  2.1479
  257MOL0     H34663   3.875   7.560  11.019  0.0086 -1.3970  2.4679
  257MOL0     H34664   3.946   7.407  11.050 -0.4865 -0.6739 -0.7507
  257MOL0     H34665   4.042   7.680  11.098 -0.5943 -0.1731 -0.6940
  257MOL0     H34666   4.145   7.535  11.127  0.6804 -1.0290  0.6476
  257MOL0     H34667   3.987   7.442  11.286 -1.5616 -0.1963  1.8689
  257MOL0     H34668   3.863   7.555  11.257 -0.3372 -1.9920 -0.6947
  257MOL0     H34669   4.000   7.571  11.457 -0.4771 -3.5071 -2.3644
  257MOL0     H34670   4.138   7.638  11.365  1.2616 -2.5830 -0.4155
  257MOL0     H34671   3.870   7.781  11.384 -0.0478 -2.3897  3.6102
  257MOL0     H34672   4.012   7.835  11.288  0.5423  2.1191  2.2701
  257MOL0     H34673   4.156   7.868  11.445  1.2917 -1.5946  2.3712
  257MOL0     H34674   4.001   7.956  11.483  3.3450  1.5995  2.6657
  257MOL0     H34675   4.264   7.205  10.911 -2.3176  2.5148 -1.0571
  257MOL0     H34676   4.431   7.034  10.858  1.4363  1.4885  0.9978
  257MOL0     H34677   4.925   7.047  10.666 -0.1287 -0.2820 -0.0832
  257MOL0     H34678   5.104   6.890  10.576  0.2917 -1.0381 -0.3706
  257MOL0     H34679   5.588   7.150   9.195  1.5638 -0.6509 -1.5080
  257MOL0     H34680   5.352   7.170   9.092  1.1343  0.4740 -0.2214
  257MOL0     H34681   5.003   7.088   8.918 -1.8147  1.2378  0.4464
  257MOL0     H34682   4.773   7.098   8.798  1.5576  1.9772  0.5776
  257MOL0     H34683   4.646   7.124   8.366  1.1685  1.2935 -2.3656
  257MOL0     H34684   4.816   7.106   8.379 -0.1940  2.8859 -2.0378
  257MOL0     H34685   4.845   7.312   8.509 -1.3282  2.9281 -0.0633
  257MOL0     H34686   4.677   7.318   8.542 -0.4365  3.4831 -1.2018
  257MOL0     H34687   4.744   7.479   8.346 -1.8373 -0.3898  2.5193
  257MOL0     H34688   4.619   7.373   8.312  0.0815  2.1246 -1.2535
  257MOL0     H34689   4.802   7.233   8.184 -1.5658  0.1183  2.0881
  257MOL0     H34690   4.819   7.405   8.141 -0.5212 -1.5586 -0.7980
  257MOL0     H34691   5.172   7.323   8.366  0.6608  0.4222 -1.4805
  257MOL0     H34692   4.966   6.990   8.442  6.3126  1.6105 -1.9121
  257MOL0     H34693   5.185   6.978   8.403 -0.0687 -0.8761  1.0216
  257MOL0     H34694   5.273   7.110   8.492  1.8538 -1.6036  0.0542
  257MOL0     H34695   5.281   6.941   8.541 -0.8997 -0.9430 -0.0103
  258MOL0     O34696   9.578   9.405   4.326 -0.2436 -0.3056 -0.1058
  258MOL0     C34697   9.603   9.520   4.376  0.2153  0.1139 -0.4524
  258MOL0     O34698   9.589   9.548   4.511  0.5858  0.0869 -0.1088
  258MOL0     C34699   9.520   9.472   4.604  0.6734 -0.8381 -1.9851
  258MOL0     C34700   9.533   9.531   4.735  0.2185  0.0865 -0.1771
  258MOL0     C34701   9.465   9.481   4.847  0.0944  0.8198 -0.3799
  258MOL0     C34702   9.394   9.365   4.825  0.1623 -0.5995 -0.4205
  258MOL0     O34703   9.323   9.311   4.926 -0.1995 -0.1111 -0.2142
  258MOL0     C34704   9.396   9.249   5.038 -0.7785  0.8679 -0.3468
  258MOL0     C34705   9.487   9.137   4.986  0.0144 -1.1281 -0.4688
  258MOL0     C34706   9.549   9.057   5.105  0.8333  0.0834  1.0390
  258MOL0     C34707   9.456   8.938   5.149  0.0436 -0.3202  0.0299
  258MOL0     C34708   9.451   8.897   5.299  0.3676 -0.4338  0.9914
  258MOL0     C34709   9.591   8.834   5.334 -0.0677 -0.1167 -0.3415
  258MOL0     C34710   9.585   8.749   5.456  0.8715 -0.4976  0.2450
  258MOL0     C34711   9.625   8.816   5.584  0.0034  0.3687  0.7122
  258MOL0     N34712   9.531   8.910   5.632  0.6013 -0.5714 -0.2716
  258MOL0     C34713   9.403   8.901   5.682  0.1365  0.0231 -0.3236
  258MOL0     C34714   9.362   9.031   5.699  0.3240  0.8838 -0.2676
  258MOL0     C34715   9.236   9.088   5.764 -0.2267  0.3739  0.0109
  258MOL0     C34716   9.262   9.109   5.914 -0.2377 -0.4107 -0.1743
  258MOL0     C34717   9.214   8.996   5.999  0.5330 -0.1840  0.1331
  258MOL0     C34718   9.286   9.003   6.132  0.3729 -0.1664  0.9638
  258MOL0     O34719   9.252   9.131   6.204 -1.1398  0.2219  0.2858
  258MOL0     C34720   9.144   9.129   6.287 -0.4869  0.2479  1.2196
  258MOL0     C34721   9.067   9.244   6.314 -0.5440  0.1194  0.1645
  258MOL0     C34722   8.961   9.263   6.395 -0.2081  0.2873  0.7044
  258MOL0     C34723   8.922   9.152   6.470  0.0808 -0.7279 -0.4250
  258MOL0     C34724   8.818   9.175   6.569  0.4545 -0.1538 -0.2244
  258MOL0     O34725   8.786   9.307   6.600 -0.6577 -0.0611 -0.4023
  258MOL0     C34726   8.669   9.340   6.660 -0.3192  0.2940 -0.4106
  258MOL0     C34727   8.669   9.467   6.729  0.3307  0.0649 -0.3840
  258MOL0     C34728   8.553   9.508   6.789  0.1459 -0.0775 -0.9198
  258MOL0     C34729   8.426   9.438   6.767 -0.4031 -0.4328 -1.0172
  258MOL0     O34730   8.314   9.495   6.813  0.5346 -0.0619 -0.6469
  258MOL0     C34731   8.184   9.478   6.758 -0.5347  0.2188 -0.1224
  258MOL0     C34732   8.110   9.368   6.823  0.0572  0.7086 -0.7658
  258MOL0     C34733   7.977   9.348   6.746 -0.9633 -0.7881 -0.2453
  258MOL0     C34734   7.852   9.415   6.809 -0.1227  0.5019 -0.3374
  258MOL0     C34735   7.731   9.430   6.713 -0.2638  0.3858  0.0113
  258MOL0     C34736   7.682   9.296   6.692  0.6602  0.2898  0.2111
  258MOL0     C34737   7.560   9.305   6.589 -0.5729 -0.0438 -1.3281
  258MOL0     C34738   7.476   9.190   6.543  0.2965 -0.0918 -0.1129
  258MOL0    Cl34739   7.549   9.088   6.422  0.1942  0.4757 -0.3762
  258MOL0     C34740   8.435   9.319   6.691 -0.2938 -0.2459  0.8575
  258MOL0     C34741   8.550   9.271   6.643 -0.0031 -0.4028 -0.2667
  258MOL0     O34742   8.759   9.073   6.609  0.3240 -0.3999  0.1781
  258MOL0     C34743   8.996   9.036   6.455 -0.2972  0.0931 -0.1964
  258MOL0     C34744   9.100   9.017   6.363  0.6868 -0.8056 -0.3750
  258MOL0     N34745   9.464   9.113   5.669 -0.2506  0.6901 -0.5498
  258MOL0     N34746   9.560   9.043   5.621 -1.0231  0.6144 -0.3160
  258MOL0     C34747   9.392   9.299   4.700  1.1470  0.0513 -0.6510
  258MOL0     C34748   9.449   9.353   4.588 -0.3253 -0.0293  0.4634
  258MOL0     C34749   9.674   9.607   4.288 -0.7320 -0.4125  0.8971
  258MOL0     C34750   9.712   9.567   4.151 -0.2376  0.4274 -0.5953
  258MOL0     C34751   9.798   9.644   4.074  0.3901 -0.6678  0.8117
  258MOL0     C34752   9.835   9.771   4.113  0.3933 -0.0864 -0.8135
  258MOL0     O34753   9.902   9.855   4.035 -1.0201 -0.6408  0.4231
  258MOL0     C34754  10.037   9.891   4.086 -0.7218  0.2542 -0.0353
  258MOL0     C34755  10.051  10.044   4.089  0.1878  0.2413  0.5043
  258MOL0     C34756  10.021  10.112   3.949  1.3553 -0.6783  0.1872
  258MOL0     C34757  10.144  10.148   3.873 -0.4799  1.7066 -0.2433
  258MOL0     C34758  10.241  10.040   3.863  1.0445 -0.3078 -0.4065
  258MOL0     C34759  10.325   9.957   3.858  0.9731  0.3214 -0.5400
  258MOL0     C34760   9.794   9.818   4.243  0.0184  0.0014  0.1813
  258MOL0     C34761   9.722   9.734   4.336  0.5991 -0.5909 -0.0982
  258MOL0     C34762   9.707   9.797   4.469 -0.2454 -0.9623 -0.5010
  258MOL0     H34763   9.606   9.608   4.755  1.6537  0.0960 -4.4274
  258MOL0     H34764   9.478   9.519   4.948  2.3551 -0.8198  0.0175
  258MOL0     H34765   9.449   9.331   5.087 -1.6233  1.8069 -0.9663
  258MOL0     H34766   9.333   9.201   5.113  1.7353 -0.2745  1.1435
  258MOL0     H34767   9.564   9.191   4.930  0.6694 -1.9966 -0.4176
  258MOL0     H34768   9.422   9.081   4.918  0.1024 -0.3355 -1.2199
  258MOL0     H34769   9.571   9.124   5.189 -2.3170 -1.3577  3.1805
  258MOL0     H34770   9.647   9.016   5.075 -0.2021  0.0345 -2.8047
  258MOL0     H34771   9.352   8.961   5.127 -1.1175 -2.8734  2.2659
  258MOL0     H34772   9.476   8.850   5.087 -1.1535 -0.7195  0.1960
  258MOL0     H34773   9.423   8.980   5.365  1.3031 -0.1673  1.0731
  258MOL0     H34774   9.364   8.832   5.314 -0.4660  0.4607  0.1767
  258MOL0     H34775   9.613   8.765   5.253  0.7471 -0.5503  0.2386
  258MOL0     H34776   9.670   8.910   5.344 -0.8074  0.5135  1.0064
  258MOL0     H34777   9.665   8.675   5.449 -0.3265 -1.8010 -0.0252
  258MOL0     H34778   9.485   8.706   5.469 -1.4583  3.7550 -1.5767
  258MOL0     H34779   9.638   8.743   5.664  0.2685  0.8718  1.1302
  258MOL0     H34780   9.723   8.864   5.580 -0.0262  0.6475 -4.9905
  258MOL0     H34781   9.336   8.816   5.691 -1.2215  1.2142  1.4142
  258MOL0     H34782   9.219   9.191   5.729  2.8492  0.9682 -0.0961
  258MOL0     H34783   9.151   9.024   5.743 -0.7885  0.8227  0.8735
  258MOL0     H34784   9.368   9.117   5.938 -0.4973 -1.8672  1.6158
  258MOL0     H34785   9.210   9.204   5.931 -0.6536 -0.4115 -1.3284
  258MOL0     H34786   9.230   8.902   5.944 -1.5712  0.0357 -0.9711
  258MOL0     H34787   9.106   8.990   6.018 -0.1139  0.5591 -2.7258
  258MOL0     H34788   9.395   8.997   6.123  0.2421 -1.5703 -0.1451
  258MOL0     H34789   9.261   8.918   6.195  0.4691 -0.0615  1.1442
  258MOL0     H34790   9.084   9.334   6.256  0.9080  0.9641  1.8156
  258MOL0     H34791   8.902   9.355   6.392  0.0960  0.4869  0.8127
  258MOL0     H34792   8.759   9.526   6.737  0.6381 -0.6596  3.4118
  258MOL0     H34793   8.555   9.600   6.847  2.6349 -0.8850  0.4183
  258MOL0     H34794   8.118   9.564   6.773 -3.5530 -2.0335  0.5015
  258MOL0     H34795   8.193   9.462   6.650  3.5805  0.0241  0.0935
  258MOL0     H34796   8.165   9.274   6.816  0.6880  1.1076 -1.3314
  258MOL0     H34797   8.101   9.390   6.929 -1.6620 -0.8211 -0.5462
  258MOL0     H34798   7.992   9.397   6.649  0.2085 -2.1590 -0.7866
  258MOL0     H34799   7.961   9.240   6.738 -1.5954 -0.6158 -1.5174
  258MOL0     H34800   7.893   9.512   6.839  2.5590 -1.5828  3.5291
  258MOL0     H34801   7.836   9.366   6.905  6.3393 -5.2683 -1.4390
  258MOL0     H34802   7.764   9.479   6.621  3.0369 -0.5422  0.5640
  258MOL0     H34803   7.666   9.499   6.768 -0.0341  1.8103 -1.4300
  258MOL0     H34804   7.764   9.238   6.649  0.3940 -0.2791  0.4621
  258MOL0     H34805   7.644   9.248   6.783  1.8696 -1.6763 -0.2654
  258MOL0     H34806   7.603   9.355   6.502 -2.1277  2.8055 -0.5814
  258MOL0     H34807   7.482   9.367   6.633  0.3891  0.5987 -0.4858
  258MOL0     H34808   7.442   9.132   6.629  1.0460 -3.1688 -1.7576
  258MOL0     H34809   7.391   9.232   6.487  1.3781  0.3920 -1.4696
  258MOL0     H34810   8.347   9.268   6.652  1.4911  0.4631 -4.9702
  258MOL0     H34811   8.548   9.196   6.565  0.8603 -1.2474  0.4933
  258MOL0     H34812   8.977   8.953   6.523  1.2260  0.0477  0.2077
  258MOL0     H34813   9.149   8.921   6.367  1.5169 -0.3686  0.4152
  258MOL0     H34814   9.330   9.209   4.703  1.5246 -0.2273 -1.0600
  258MOL0     H34815   9.443   9.299   4.494 -2.0060  0.2483  0.3784
  258MOL0     H34816   9.687   9.464   4.131  1.6194 -0.6832  2.2205
  258MOL0     H34817   9.848   9.612   3.984 -1.8247 -1.6690 -0.1399
  258MOL0     H34818  10.108   9.838   4.022 -1.0233 -1.5424  1.0556
  258MOL0     H34819  10.049   9.846   4.185 -3.0847 -0.9157 -0.2225
  258MOL0     H34820  10.154  10.065   4.119  0.1974  0.4735  0.3161
  258MOL0     H34821   9.997  10.092   4.170  2.0770 -0.1921  2.0857
  258MOL0     H34822   9.959  10.203   3.954  1.3860 -0.5549 -1.2689
  258MOL0     H34823   9.967  10.041   3.886 -2.1132  2.3548 -0.5873
  258MOL0     H34824  10.117  10.178   3.771  0.7259 -2.0858 -1.8725
  258MOL0     H34825  10.187  10.239   3.918 -3.9166  1.3007  4.6169
  258MOL0     H34826  10.402   9.888   3.833  0.5910  0.1950 -1.3956
  258MOL0     H34827   9.835   9.914   4.271  2.0485  0.2816 -3.1982
  258MOL0     H34828   9.600   9.805   4.489 -0.2972  0.9453 -1.2353
  258MOL0     H34829   9.768   9.740   4.539 -0.0489 -1.0984 -0.7824
  258MOL0     H34830   9.745   9.900   4.464  1.3011 -1.2034  3.2084
  259MOL0     O34831   7.207   1.619   3.357  0.1072 -0.3513 -0.2167
  259MOL0     C34832   7.097   1.603   3.405 -0.1681 -1.0004 -0.1272
  259MOL0     O34833   7.071   1.545   3.523 -0.5782 -0.8341 -0.7852
  259MOL0     C34834   7.175   1.483   3.589  0.3952 -1.0636 -0.6217
  259MOL0     C34835   7.191   1.505   3.727  0.1038 -0.3777  0.5686
  259MOL0     C34836   7.289   1.435   3.801  0.1488  0.7575  0.4487
  259MOL0     C34837   7.373   1.346   3.739 -0.0702 -0.0995  0.2269
  259MOL0     O34838   7.468   1.285   3.824 -1.2622 -0.4034 -1.1532
  259MOL0     C34839   7.482   1.146   3.826  0.7519  0.1402  0.2040
  259MOL0     C34840   7.564   1.084   3.932  0.4433  0.0591  0.8922
  259MOL0     C34841   7.714   1.105   3.933 -0.0331  0.1413  0.5512
  259MOL0     C34842   7.783   0.981   3.870 -0.2952  0.4748  0.1241
  259MOL0     C34843   7.939   1.003   3.841  0.1363  0.1022  0.4560
  259MOL0     C34844   7.958   1.072   3.708  0.5342  0.0029  0.6223
  259MOL0     C34845   7.918   0.982   3.582  0.1467 -0.1692  0.3805
  259MOL0     C34846   8.006   1.032   3.456 -0.0895 -0.0828 -0.8013
  259MOL0     N34847   8.012   0.931   3.347  0.4461 -0.2929 -0.7685
  259MOL0     C34848   7.983   0.792   3.351 -0.2917 -0.2890 -0.2473
  259MOL0     C34849   7.987   0.764   3.217  0.7204 -0.6100  0.2243
  259MOL0     C34850   7.976   0.624   3.160  0.3056 -0.3248 -0.2041
  259MOL0     C34851   7.847   0.557   3.191 -0.1891 -0.3284 -0.2003
  259MOL0     C34852   7.748   0.586   3.082  0.1548  0.1854  0.3880
  259MOL0     C34853   7.764   0.511   2.950 -0.6316 -0.9028 -0.5104
  259MOL0     O34854   7.735   0.376   2.974 -1.0959 -0.5615  0.0711
  259MOL0     C34855   7.788   0.271   2.898  0.5391 -0.1140 -0.6559
  259MOL0     C34856   7.916   0.272   2.836  1.0779  0.0241  0.3259
  259MOL0     C34857   7.956   0.152   2.772  1.1557 -0.2026 -0.6259
  259MOL0     C34858   7.880   0.032   2.776  0.0240 -0.4554  0.5588
  259MOL0     C34859   7.934  -0.098   2.724  0.0933  0.4193 -0.5957
  259MOL0     O34860   8.070  -0.101   2.691  0.0796  0.7707  0.3466
  259MOL0     C34861   8.124  -0.217   2.649  0.0401 -0.2624  0.2184
  259MOL0     C34862   8.130  -0.331   2.725 -0.2963 -0.4497 -0.3069
  259MOL0     C34863   8.203  -0.440   2.669  0.0625 -0.4627 -0.2844
  259MOL0     C34864   8.259  -0.431   2.544 -0.1688  0.0393  0.3643
  259MOL0     O34865   8.322  -0.534   2.473 -0.2130  0.2813  0.2688
  259MOL0     C34866   8.359  -0.647   2.544 -0.9099  0.3287 -0.3328
  259MOL0     C34867   8.483  -0.712   2.476 -0.1935  0.4556 -0.6411
  259MOL0     C34868   8.611  -0.621   2.489  0.7836  0.2183 -0.4755
  259MOL0     C34869   8.737  -0.695   2.457  0.2478  1.1958 -0.0641
  259MOL0     C34870   8.859  -0.607   2.441 -0.4181 -0.5520  0.2719
  259MOL0     C34871   8.974  -0.706   2.390  0.3931  0.1543  0.0241
  259MOL0     C34872   9.103  -0.607   2.394  0.6348  0.1042  0.4425
  259MOL0     C34873   9.233  -0.682   2.378 -0.2742  0.0165 -0.1606
  259MOL0    Cl34874   9.280  -0.761   2.534 -0.3285  0.3785 -0.8546
  259MOL0     C34875   8.249  -0.307   2.479 -0.1295 -0.1864  0.3283
  259MOL0     C34876   8.169  -0.206   2.522 -0.3280 -0.0955  0.2452
  259MOL0     O34877   7.853  -0.186   2.714 -0.1336  0.4666  1.2183
  259MOL0     C34878   7.753   0.033   2.841 -0.3367 -0.7103 -0.3951
  259MOL0     C34879   7.703   0.159   2.896  0.4531  0.0805 -0.9122
  259MOL0     N34880   8.014   0.882   3.145  0.2597 -0.3105  0.0691
  259MOL0     N34881   8.037   0.973   3.228  0.2563  0.0445 -0.5577
  259MOL0     C34882   7.352   1.315   3.604  0.2794  0.3383  0.0322
  259MOL0     C34883   7.253   1.386   3.532  0.1153  0.3872  0.6944
  259MOL0     C34884   6.972   1.624   3.306 -0.7116 -0.6493 -0.2065
  259MOL0     C34885   6.881   1.518   3.292  0.0575  1.0307 -0.6478
  259MOL0     C34886   6.762   1.541   3.218 -1.0960  0.2481  0.0473
  259MOL0     C34887   6.731   1.665   3.158 -0.3006 -0.1815  0.1375
  259MOL0     O34888   6.618   1.694   3.088  0.9571 -0.1377 -0.4393
  259MOL0     C34889   6.518   1.594   3.083  0.5890  0.0035 -0.1949
  259MOL0     C34890   6.409   1.639   2.974 -0.4797  0.5695 -0.0980
  259MOL0     C34891   6.366   1.784   2.980 -0.0367 -0.6294  0.3151
  259MOL0     C34892   6.473   1.885   2.931 -0.4243 -0.6011 -0.8148
  259MOL0     C34893   6.418   2.012   2.878 -0.9911 -0.9195  0.1683
  259MOL0     C34894   6.370   2.114   2.853  0.5290  0.4148 -0.5360
  259MOL0     C34895   6.833   1.757   3.160 -0.3519 -0.1275  0.1533
  259MOL0     C34896   6.951   1.739   3.229  0.2532 -0.6972 -1.1793
  259MOL0     C34897   7.062   1.840   3.201  0.1247 -0.0273 -0.1848
  259MOL0     H34898   7.130   1.580   3.777 -1.4373 -0.9959 -0.3238
  259MOL0     H34899   7.301   1.434   3.909  3.3515  0.6285  0.1971
  259MOL0     H34900   7.385   1.095   3.838 -0.6346  2.4833 -0.4063
  259MOL0     H34901   7.515   1.114   3.727 -0.4920  0.8547 -0.4741
  259MOL0     H34902   7.541   0.977   3.925  1.3525 -0.4576  4.2878
  259MOL0     H34903   7.530   1.124   4.028  2.6216  0.0463  1.7079
  259MOL0     H34904   7.749   1.115   4.036  3.3241  1.8343 -0.6169
  259MOL0     H34905   7.750   1.190   3.874  0.0411  0.1226  0.5695
  259MOL0     H34906   7.766   0.896   3.937 -1.0853  0.5303 -0.0041
  259MOL0     H34907   7.726   0.956   3.781 -1.4146 -0.1129  0.9833
  259MOL0     H34908   7.988   1.055   3.924 -1.5945  0.7359  1.1371
  259MOL0     H34909   8.003   0.914   3.836  2.8927  2.0280 -1.3542
  259MOL0     H34910   7.883   1.152   3.702 -1.3094 -1.7492 -1.4560
  259MOL0     H34911   8.062   1.104   3.697  0.3759 -0.1920 -1.9261
  259MOL0     H34912   7.813   1.001   3.561  0.3172  2.8025  1.7088
  259MOL0     H34913   7.935   0.876   3.598  0.0770 -0.9743 -3.8362
  259MOL0     H34914   7.968   1.124   3.412  1.1428 -0.0639 -1.8714
  259MOL0     H34915   8.112   1.043   3.482 -0.0859  0.9556 -1.2256
  259MOL0     H34916   7.960   0.732   3.438  0.0252 -0.3400 -0.1987
  259MOL0     H34917   8.001   0.627   3.054 -1.3506  0.3590 -0.5967
  259MOL0     H34918   8.054   0.571   3.216 -0.0675  0.5332  1.2020
  259MOL0     H34919   7.876   0.451   3.184  1.8885  0.0602  1.3608
  259MOL0     H34920   7.801   0.577   3.288 -2.1225 -2.3535 -0.6223
  259MOL0     H34921   7.751   0.692   3.054 -0.6327  0.4199  1.1514
  259MOL0     H34922   7.647   0.572   3.121 -0.2815  1.9448 -0.0163
  259MOL0     H34923   7.867   0.517   2.915 -0.2177 -2.9915  0.1950
  259MOL0     H34924   7.697   0.561   2.879  1.2330  3.6256  0.5631
  259MOL0     H34925   7.986   0.352   2.855 -0.6057  1.4051  1.0064
  259MOL0     H34926   8.056   0.139   2.732  1.0121 -0.1745 -0.9968
  259MOL0     H34927   8.085  -0.331   2.823  0.0912 -0.4222 -0.1262
  259MOL0     H34928   8.219  -0.534   2.721  0.4890 -1.2889 -1.8534
  259MOL0     H34929   8.394  -0.619   2.644 -3.5575  3.1648 -0.0547
  259MOL0     H34930   8.281  -0.723   2.548  0.2959 -1.0256 -1.4674
  259MOL0     H34931   8.510  -0.808   2.521  0.7500 -0.2437 -2.5913
  259MOL0     H34932   8.459  -0.726   2.370 -2.4021 -2.2525  0.0845
  259MOL0     H34933   8.596  -0.525   2.437  0.5561  0.4503  0.0070
  259MOL0     H34934   8.641  -0.594   2.591  2.4770 -1.2487 -0.5505
  259MOL0     H34935   8.725  -0.737   2.357 -0.9956  2.6869 -0.5842
  259MOL0     H34936   8.770  -0.766   2.533  2.2907 -0.6295 -2.4676
  259MOL0     H34937   8.886  -0.569   2.540  3.4835 -4.8499  1.2067
  259MOL0     H34938   8.846  -0.525   2.369  0.2541 -0.5758  0.1257
  259MOL0     H34939   8.985  -0.791   2.458 -0.5809  1.6673  2.1772
  259MOL0     H34940   8.946  -0.735   2.288  0.7580  2.0087 -0.6459
  259MOL0     H34941   9.111  -0.546   2.485 -0.8472  2.7389 -1.0852
  259MOL0     H34942   9.100  -0.531   2.315  3.2722  1.8552  1.8601
  259MOL0     H34943   9.216  -0.759   2.302 -2.6650  0.6199 -0.3117
  259MOL0     H34944   9.317  -0.628   2.335  0.2434 -3.3626 -4.0497
  259MOL0     H34945   8.304  -0.298   2.386 -0.9313 -0.7222 -0.2137
  259MOL0     H34946   8.154  -0.110   2.472 -2.1118  0.3044  1.4303
  259MOL0     H34947   7.688  -0.053   2.855 -0.9197  0.1362  2.8528
  259MOL0     H34948   7.614   0.157   2.958  0.4112 -2.3516 -0.9700
  259MOL0     H34949   7.417   1.244   3.554 -2.4338 -2.6608  0.3639
  259MOL0     H34950   7.240   1.363   3.426 -2.5944  1.6944  0.6685
  259MOL0     H34951   6.883   1.428   3.352 -0.8689  2.2895  1.4032
  259MOL0     H34952   6.698   1.454   3.228  2.3918 -2.7291 -1.1087
  259MOL0     H34953   6.471   1.588   3.182 -1.5900  4.4912 -0.7075
  259MOL0     H34954   6.570   1.504   3.051 -0.0396 -1.0886  1.6779
  259MOL0     H34955   6.323   1.573   2.988 -2.3003  2.9892  0.7034
  259MOL0     H34956   6.459   1.625   2.878  3.1011  2.1075  1.3568
  259MOL0     H34957   6.353   1.801   3.088 -3.0709 -1.3801  0.1522
  259MOL0     H34958   6.280   1.798   2.915  0.3185  0.0171 -0.0235
  259MOL0     H34959   6.524   1.906   3.026 -5.0042 -1.7728  2.2711
  259MOL0     H34960   6.544   1.839   2.862 -0.1362 -3.5298  1.2210
  259MOL0     H34961   6.318   2.203   2.825  0.2236  0.4566  0.1587
  259MOL0     H34962   6.811   1.851   3.111  2.8664 -0.6887 -2.6821
  259MOL0     H34963   7.114   1.852   3.297 -0.8523 -0.2162  0.3883
  259MOL0     H34964   7.133   1.792   3.134 -1.6348 -2.2446 -0.5967
  259MOL0     H34965   7.030   1.935   3.156 -0.7018 -1.4762 -2.8651
  260MOL0     O34966   3.058   9.492   6.065 -0.1711 -0.6051 -0.1454
  260MOL0     C34967   3.012   9.594   6.098  0.3989 -0.3643 -0.0581
  260MOL0     O34968   2.881   9.616   6.138  0.7018  0.5534 -0.0679
  260MOL0     C34969   2.799   9.509   6.128 -0.0794  0.3627  0.9150
  260MOL0     C34970   2.713   9.518   6.014  0.2389  0.0834  0.1733
  260MOL0     C34971   2.628   9.412   5.982 -0.1823  0.2018 -0.2526
  260MOL0     C34972   2.616   9.299   6.055  0.5232  0.1027 -0.4966
  260MOL0     O34973   2.515   9.208   6.052  0.5616  0.1118 -1.0216
  260MOL0     C34974   2.505   9.159   5.911  0.3076  0.5841 -0.0105
  260MOL0     C34975   2.385   9.058   5.900  0.6237 -0.1278 -0.1259
  260MOL0     C34976   2.409   8.939   5.994 -0.1064 -0.5566  0.1225
  260MOL0     C34977   2.309   8.829   5.945  0.9379 -0.0295  0.0441
  260MOL0     C34978   2.295   8.691   6.022  0.9965 -0.6310  0.0521
  260MOL0     C34979   2.252   8.701   6.172 -0.0414  1.0647  0.3546
  260MOL0     C34980   2.365   8.736   6.274 -0.8453  0.6599  0.6753
  260MOL0     C34981   2.342   8.681   6.414 -0.1520 -0.4810 -0.4618
  260MOL0     N34982   2.210   8.718   6.467 -1.0723 -0.1777 -0.0556
  260MOL0     C34983   2.202   8.849   6.530  0.7493 -0.0942 -0.8131
  260MOL0     C34984   2.074   8.856   6.577 -0.2949  0.3312  0.2535
  260MOL0     C34985   2.032   8.976   6.663 -0.4784 -0.7873  0.1893
  260MOL0     C34986   1.890   8.965   6.711 -0.2791 -0.8378  0.3711
  260MOL0     C34987   1.863   8.854   6.809 -0.0108  0.3342 -0.7465
  260MOL0     C34988   1.923   8.851   6.946 -0.0374 -0.0499 -0.1024
  260MOL0     O34989   1.917   8.981   7.009 -0.5304 -0.0678  0.1113
  260MOL0     C34990   1.968   8.989   7.138 -0.2190  0.2222 -0.6409
  260MOL0     C34991   1.999   8.888   7.221  0.0819 -0.9679 -0.1985
  260MOL0     C34992   2.030   8.919   7.359  0.9727  0.1258 -0.7326
  260MOL0     C34993   2.012   9.054   7.409  0.2599  0.0516 -0.0906
  260MOL0     C34994   2.030   9.083   7.546 -0.3446  0.7829 -0.4743
  260MOL0     O34995   2.083   8.983   7.624 -0.0216  0.1202 -0.1143
  260MOL0     C34996   2.109   9.010   7.758 -0.0895 -0.3861 -0.4689
  260MOL0     C34997   2.074   8.902   7.845  0.0419 -1.0885 -0.2960
  260MOL0     C34998   2.082   8.925   7.981  0.0138  0.2320  0.0441
  260MOL0     C34999   2.138   9.051   8.031  0.0497  0.2640  0.1870
  260MOL0     O35000   2.162   9.063   8.163  0.0361 -0.0047 -0.5767
  260MOL0     C35001   2.266   8.994   8.224 -0.0780  0.2104 -0.6948
  260MOL0     C35002   2.348   9.097   8.304 -0.0217 -1.3164 -0.3339
  260MOL0     C35003   2.288   9.152   8.429 -0.7536  0.2660 -0.8242
  260MOL0     C35004   2.406   9.208   8.515  0.4300  0.9087 -0.2752
  260MOL0     C35005   2.366   9.197   8.666  0.7540  0.8647 -0.5608
  260MOL0     C35006   2.255   9.295   8.694  0.4385  0.1902 -0.6328
  260MOL0     C35007   2.210   9.278   8.849  0.1126 -0.6938  0.1065
  260MOL0     C35008   2.086   9.361   8.889 -0.6912  0.2470  0.5883
  260MOL0    Cl35009   1.926   9.299   8.815 -0.6411  0.0111 -0.1926
  260MOL0     C35010   2.177   9.154   7.939 -0.3280  0.6864 -0.0261
  260MOL0     C35011   2.164   9.133   7.803  0.4343 -0.3769 -0.1827
  260MOL0     O35012   1.981   9.190   7.588 -0.5679 -0.0399  0.0140
  260MOL0     C35013   1.983   9.164   7.322 -0.0112 -0.0126 -0.4612
  260MOL0     C35014   1.965   9.123   7.178  0.0995 -0.0095  0.0226
  260MOL0     N35015   2.018   8.731   6.553 -0.3644  0.4855 -0.1760
  260MOL0     N35016   2.091   8.653   6.484  0.7952 -0.5766  0.8627
  260MOL0     C35017   2.697   9.296   6.169 -0.0892 -0.3580 -0.6287
  260MOL0     C35018   2.784   9.402   6.217  0.3876  0.3367 -0.2900
  260MOL0     C35019   3.094   9.724   6.079  0.8466 -0.7059  0.0664
  260MOL0     C35020   3.025   9.850   6.103  0.3175 -0.5538 -0.2379
  260MOL0     C35021   3.096   9.974   6.098  0.4202 -0.4148 -0.2722
  260MOL0     C35022   3.239   9.975   6.078 -0.5909  0.4670  0.5117
  260MOL0     O35023   3.334  10.076   6.071 -0.0975  0.8797  0.9932
  260MOL0     C35024   3.293  10.207   6.093 -0.1477 -1.1508 -0.1860
  260MOL0     C35025   3.210  10.275   5.995  0.0685 -0.1638  0.1939
  260MOL0     C35026   3.285  10.310   5.865 -0.2592 -0.8784  0.6986
  260MOL0     C35027   3.183  10.374   5.767  0.4035 -0.7228  1.7177
  260MOL0     C35028   3.214  10.379   5.622 -0.0591  0.4196  0.0608
  260MOL0     C35029   3.224  10.384   5.499  0.1338  0.4643  0.5145
  260MOL0     C35030   3.299   9.849   6.067 -0.0798 -0.3512 -0.5188
  260MOL0     C35031   3.233   9.726   6.061  1.1235  0.1633 -0.8089
  260MOL0     C35032   3.311   9.602   6.032 -1.2829 -0.5311  0.0450
  260MOL0     H35033   2.714   9.610   5.957 -1.2276  0.0129  0.0050
  260MOL0     H35034   2.568   9.438   5.895 -0.2565 -2.5748 -1.1180
  260MOL0     H35035   2.470   9.238   5.844 -2.2375  1.4725  2.2248
  260MOL0     H35036   2.603   9.115   5.886  0.6397  0.2033  1.8297
  260MOL0     H35037   2.377   9.036   5.793  1.1489  0.5407 -0.3128
  260MOL0     H35038   2.294   9.109   5.931  1.4321  0.3643  1.6163
  260MOL0     H35039   2.392   8.969   6.098 -1.5214 -1.0720  0.0572
  260MOL0     H35040   2.511   8.911   5.964  0.0424  1.4874 -1.4382
  260MOL0     H35041   2.206   8.865   5.948  0.4562 -1.3976  0.9444
  260MOL0     H35042   2.356   8.816   5.847  1.3993 -1.6125  0.4412
  260MOL0     H35043   2.212   8.637   5.977 -1.3188  2.6594  0.0170
  260MOL0     H35044   2.385   8.628   6.016  1.6160  0.3549 -2.3514
  260MOL0     H35045   2.173   8.777   6.175 -0.6250  0.5361 -0.8718
  260MOL0     H35046   2.205   8.609   6.209  0.2259  0.8131  0.0665
  260MOL0     H35047   2.368   8.845   6.281  0.2303  0.6845  0.0590
  260MOL0     H35048   2.465   8.714   6.236 -1.7946  0.3426 -1.8329
  260MOL0     H35049   2.358   8.573   6.428  1.4086 -0.0740  1.5539
  260MOL0     H35050   2.421   8.728   6.474 -0.3022  1.4055 -1.6857
  260MOL0     H35051   2.287   8.917   6.532  1.1950 -0.6595 -0.1253
  260MOL0     H35052   2.101   8.978   6.747 -0.0268  1.4356 -0.1791
  260MOL0     H35053   2.052   9.067   6.606 -0.9111  0.2293  1.6212
  260MOL0     H35054   1.848   9.052   6.762 -0.9327 -1.5452  1.0666
  260MOL0     H35055   1.818   8.958   6.628  0.0752  0.4172 -0.0636
  260MOL0     H35056   1.885   8.755   6.768  1.6070 -0.6559  2.2062
  260MOL0     H35057   1.754   8.859   6.822  0.1524  1.0835  0.5479
  260MOL0     H35058   2.026   8.817   6.937  0.5972  0.9114  2.6215
  260MOL0     H35059   1.870   8.777   7.007 -2.7342  0.5184 -1.5746
  260MOL0     H35060   2.016   8.786   7.190  1.1142 -1.2375  1.1810
  260MOL0     H35061   2.043   8.835   7.426 -1.4308 -1.6022 -2.2522
  260MOL0     H35062   2.016   8.817   7.810 -1.5518 -0.3701  0.5021
  260MOL0     H35063   2.057   8.847   8.053  1.0525 -1.5595 -1.4524
  260MOL0     H35064   2.233   8.920   8.298 -1.0337  1.6639  0.3903
  260MOL0     H35065   2.327   8.952   8.143  3.5268  0.9288  1.4499
  260MOL0     H35066   2.439   9.043   8.332  2.7321  2.4793 -1.0445
  260MOL0     H35067   2.375   9.174   8.230  1.9484  1.1883  2.6963
  260MOL0     H35068   2.206   9.222   8.410 -1.2471 -0.4488 -1.3539
  260MOL0     H35069   2.244   9.067   8.481  0.1319  0.0628 -0.3920
  260MOL0     H35070   2.409   9.309   8.473  0.9180  0.8176 -0.4747
  260MOL0     H35071   2.503   9.161   8.495  0.6823  1.4588 -0.3579
  260MOL0     H35072   2.454   9.213   8.729 -0.3272 -1.1083  1.5930
  260MOL0     H35073   2.347   9.090   8.680  5.3737 -0.1309 -0.2884
  260MOL0     H35074   2.285   9.399   8.679 -1.3203  1.0715  1.4121
  260MOL0     H35075   2.170   9.262   8.633  0.9593 -0.6577 -0.9189
  260MOL0     H35076   2.300   9.303   8.906 -0.8539 -2.6016  2.6636
  260MOL0     H35077   2.195   9.172   8.869  0.7872 -0.4416  2.2359
  260MOL0     H35078   2.089   9.368   8.998  0.6759 -2.3431  0.7862
  260MOL0     H35079   2.080   9.463   8.849 -4.1688  0.2587  0.9096
  260MOL0     H35080   2.215   9.246   7.981  4.2678 -0.9566 -0.0039
  260MOL0     H35081   2.187   9.213   7.733 -1.6152 -0.0048 -0.4838
  260MOL0     H35082   1.991   9.268   7.352  2.6052 -0.3366  0.2028
  260MOL0     H35083   1.936   9.197   7.105 -2.4362 -1.0324 -0.1034
  260MOL0     H35084   2.682   9.217   6.242 -0.7627  2.4472  2.5496
  260MOL0     H35085   2.837   9.396   6.312 -0.0341  0.6190 -0.0334
  260MOL0     H35086   2.929   9.860   6.152  1.4178  0.7509  1.8262
  260MOL0     H35087   3.045  10.067   6.119  1.8685  0.2252  0.5482
  260MOL0     H35088   3.376  10.278   6.097 -1.5699  0.6152 -0.5696
  260MOL0     H35089   3.235  10.217   6.186  2.9602  1.6322  1.6748
  260MOL0     H35090   3.170  10.370   6.033  1.1901 -0.2509  1.6674
  260MOL0     H35091   3.114  10.224   5.981 -0.5604  1.2511 -0.8273
  260MOL0     H35092   3.326  10.221   5.816  1.4320 -0.3120  1.0330
  260MOL0     H35093   3.374  10.374   5.874 -1.5941  1.2865 -0.6349
  260MOL0     H35094   3.090  10.316   5.771 -0.8495  0.4224 -3.4630
  260MOL0     H35095   3.157  10.476   5.799 -3.5526 -1.4778  1.3824
  260MOL0     H35096   3.226  10.399   5.393 -0.3347 -0.8849  0.2916
  260MOL0     H35097   3.407   9.848   6.058  0.2460 -1.9308  2.4314
  260MOL0     H35098   3.289   9.577   5.927 -3.6445  1.1441  0.0432
  260MOL0     H35099   3.415   9.630   6.047 -1.7949  1.7508 -0.1641
  260MOL0     H35100   3.301   9.510   6.090 -0.2478 -0.5538  0.1944
  261MOL0     O35101   0.573  10.627   2.583  0.3472 -0.3369 -0.2091
  261MOL0     C35102   0.502  10.519   2.578  0.0687 -0.5352 -0.2570
  261MOL0     O35103   0.366  10.506   2.560  0.5101  0.3025  0.2490
  261MOL0     C35104   0.296  10.622   2.549  0.7778  0.9153 -0.3611
  261MOL0     C35105   0.324  10.724   2.640  0.0539 -0.3554  0.0524
  261MOL0     C35106   0.250  10.837   2.652  1.0890 -0.0077 -0.1068
  261MOL0     C35107   0.150  10.862   2.563  0.6337 -0.0971 -0.0859
  261MOL0     O35108   0.069  10.974   2.578  0.0410  0.2783 -0.2308
  261MOL0     C35109   0.061  11.054   2.459  0.6540 -0.3142  0.4966
  261MOL0     C35110  -0.088  11.044   2.414  0.5459  0.2055 -0.2751
  261MOL0     C35111  -0.121  11.171   2.331 -0.3763  0.6291  0.2658
  261MOL0     C35112  -0.263  11.165   2.282 -0.1292  0.6271  0.2325
  261MOL0     C35113  -0.286  11.248   2.157  0.4512 -0.1023 -0.5369
  261MOL0     C35114  -0.437  11.285   2.126 -0.2386 -0.2151  0.4854
  261MOL0     C35115  -0.446  11.332   1.979  0.2073  0.4227 -0.3510
  261MOL0     C35116  -0.565  11.443   1.985 -1.1228  0.9344  0.6148
  261MOL0     N35117  -0.600  11.520   1.867  0.0710  0.9868 -0.0930
  261MOL0     C35118  -0.597  11.468   1.743 -0.3802 -0.8665  0.2772
  261MOL0     C35119  -0.588  11.573   1.661  0.6320 -0.2523 -0.2448
  261MOL0     C35120  -0.592  11.577   1.504  0.1015  0.1003 -0.1388
  261MOL0     C35121  -0.489  11.487   1.434  0.1695  0.5426 -0.0240
  261MOL0     C35122  -0.551  11.354   1.403  0.3426  0.4657  0.8097
  261MOL0     C35123  -0.459  11.269   1.306 -0.3402  0.3266  0.2077
  261MOL0     O35124  -0.520  11.253   1.175 -0.4446  0.2336  0.4868
  261MOL0     C35125  -0.436  11.283   1.069  0.2484 -0.0700 -0.1889
  261MOL0     C35126  -0.423  11.423   1.041 -0.1891  0.4594 -0.3367
  261MOL0     C35127  -0.323  11.472   0.949 -0.0635  0.4755 -0.7805
  261MOL0     C35128  -0.258  11.374   0.869  0.8025 -0.4726  0.5718
  261MOL0     C35129  -0.170  11.411   0.764 -0.9532  0.2916  0.3280
  261MOL0     O35130  -0.173  11.540   0.727  0.4243  0.1525  0.1520
  261MOL0     C35131  -0.131  11.574   0.607 -0.2175 -0.2135  0.8004
  261MOL0     C35132  -0.157  11.508   0.493 -0.3147 -0.6167  0.1955
  261MOL0     C35133  -0.114  11.554   0.371 -0.4017 -0.3919  0.6918
  261MOL0     C35134  -0.025  11.664   0.363 -0.4888 -0.4210 -0.0779
  261MOL0     O35135   0.034  11.711   0.245 -0.3253  0.2270 -0.2465
  261MOL0     C35136   0.012  11.636   0.125  0.0329  0.3085  0.1369
  261MOL0     C35137   0.042  11.739   0.017  0.0571 -0.0918 -0.0431
  261MOL0     C35138   0.026  11.686  -0.126 -0.6614 -0.0192 -0.5449
  261MOL0     C35139   0.123  11.765  -0.211  0.3252  0.5426 -1.0307
  261MOL0     C35140   0.124  11.704  -0.346  0.2417  0.8803 -0.1766
  261MOL0     C35141   0.227  11.761  -0.455  0.4485  0.1643  0.1333
  261MOL0     C35142   0.202  11.908  -0.503 -0.4077  0.7421  0.4478
  261MOL0     C35143   0.053  11.948  -0.521 -0.1386 -0.1653  0.3232
  261MOL0    Cl35144  -0.034  11.879  -0.659 -0.0783 -0.0620 -0.1490
  261MOL0     C35145   0.007  11.730   0.481 -0.7951 -1.2610  0.9021
  261MOL0     C35146  -0.049  11.687   0.601  0.1128 -0.4208 -0.9592
  261MOL0     O35147  -0.081  11.328   0.732 -0.3322 -0.5733 -0.3756
  261MOL0     C35148  -0.275  11.234   0.896  0.6682  0.0037  0.0555
  261MOL0     C35149  -0.363  11.190   0.999  0.4582 -0.5188 -0.2229
  261MOL0     N35150  -0.594  11.695   1.741  0.3429 -0.4509 -0.1663
  261MOL0     N35151  -0.597  11.657   1.859 -0.2176 -0.5798 -0.7973
  261MOL0     C35152   0.126  10.762   2.470  0.4388 -0.1698  0.1501
  261MOL0     C35153   0.182  10.638   2.465 -0.9291 -0.3927 -0.2611
  261MOL0     C35154   0.580  10.395   2.578 -0.1363  0.2205  0.2089
  261MOL0     C35155   0.560  10.294   2.476  0.7568 -0.5242  0.4609
  261MOL0     C35156   0.640  10.178   2.475  0.5166 -0.1888 -0.6659
  261MOL0     C35157   0.728  10.143   2.582  0.3307  0.5536  0.1142
  261MOL0     O35158   0.808  10.026   2.583 -0.2525 -0.8462  0.0004
  261MOL0     C35159   0.776   9.925   2.486 -0.8412 -0.9525  0.3416
  261MOL0     C35160   0.867   9.803   2.505  0.0539 -0.7821 -0.2816
  261MOL0     C35161   0.860   9.703   2.383  0.4800 -1.1014  0.0921
  261MOL0     C35162   0.724   9.664   2.333 -0.0711  1.0072 -0.2141
  261MOL0     C35163   0.660   9.595   2.441  0.2393 -0.4805 -0.4567
  261MOL0     C35164   0.610   9.568   2.549  0.7897  0.1918 -0.4258
  261MOL0     C35165   0.741  10.240   2.681 -0.3268 -0.2115  0.9844
  261MOL0     C35166   0.681  10.365   2.679  0.2677 -0.0244  0.4054
  261MOL0     C35167   0.708  10.457   2.796  0.0767  0.3731  0.2125
  261MOL0     H35168   0.391  10.703   2.723 -0.6236 -0.7504  0.5090
  261MOL0     H35169   0.277  10.906   2.731 -0.0664 -1.1776  1.3627
  261MOL0     H35170   0.076  11.159   2.486  0.9686  0.4410 -2.3006
  261MOL0     H35171   0.132  11.026   2.381 -0.3670  1.2724 -1.0826
  261MOL0     H35172  -0.161  11.012   2.490  0.9480  0.1952  0.1097
  261MOL0     H35173  -0.097  10.960   2.345  2.3200 -0.1877 -0.0703
  261MOL0     H35174  -0.055  11.163   2.245 -1.3450 -2.9919 -0.2743
  261MOL0     H35175  -0.105  11.266   2.385 -0.5760 -0.2578  1.9711
  261MOL0     H35176  -0.293  11.060   2.277  0.8476  0.1495  2.8069
  261MOL0     H35177  -0.329  11.191   2.365  1.9594  0.9101  1.8997
  261MOL0     H35178  -0.237  11.346   2.155 -3.3207  1.9466 -2.2933
  261MOL0     H35179  -0.254  11.183   2.074 -2.2672  0.6947 -2.3282
  261MOL0     H35180  -0.493  11.192   2.140  0.0817 -0.5090 -0.1465
  261MOL0     H35181  -0.473  11.352   2.204 -2.8390 -0.1858 -0.6345
  261MOL0     H35182  -0.474  11.261   1.900  0.5423  0.6609 -0.6827
  261MOL0     H35183  -0.354  11.373   1.938 -0.3958 -0.8417 -3.2222
  261MOL0     H35184  -0.635  11.375   2.034  2.2740 -3.1769  0.3912
  261MOL0     H35185  -0.529  11.523   2.051  0.2131  0.2766  0.7265
  261MOL0     H35186  -0.604  11.364   1.714 -2.0306  0.2095 -3.9320
  261MOL0     H35187  -0.690  11.569   1.457  0.1768  0.1900 -0.3098
  261MOL0     H35188  -0.557  11.677   1.478 -1.6859  0.5712 -0.9259
  261MOL0     H35189  -0.440  11.531   1.347  2.2832 -1.0386  0.2833
  261MOL0     H35190  -0.405  11.467   1.501 -0.4179 -0.3898  0.4586
  261MOL0     H35191  -0.645  11.374   1.351  0.6657  0.6606  0.2950
  261MOL0     H35192  -0.587  11.299   1.490 -1.4833 -0.9381 -0.7281
  261MOL0     H35193  -0.438  11.175   1.358  0.1472 -0.0413 -0.6472
  261MOL0     H35194  -0.369  11.328   1.287 -0.4936  0.9269  1.2573
  261MOL0     H35195  -0.464  11.501   1.104  1.4100  1.0222  0.0371
  261MOL0     H35196  -0.333  11.579   0.932 -1.7246  0.5967  0.6312
  261MOL0     H35197  -0.224  11.424   0.506  1.1741 -1.6514  1.5801
  261MOL0     H35198  -0.154  11.501   0.286  0.7853 -2.5319  1.3952
  261MOL0     H35199   0.093  11.565   0.140  0.6971  1.3310  1.6409
  261MOL0     H35200  -0.089  11.602   0.100 -0.5267  2.1640 -0.2897
  261MOL0     H35201  -0.034  11.816   0.032 -1.2598 -1.3589  0.0482
  261MOL0     H35202   0.143  11.781   0.023 -0.2824  0.7238  0.1417
  261MOL0     H35203   0.049  11.580  -0.120 -0.1289  0.1300  0.1087
  261MOL0     H35204  -0.077  11.699  -0.160 -1.0129  1.5462  0.9705
  261MOL0     H35205   0.225  11.764  -0.172  0.7773  2.5960 -2.0070
  261MOL0     H35206   0.096  11.871  -0.219  1.2438  1.0327  1.4180
  261MOL0     H35207   0.020  11.702  -0.379  0.7168 -2.1578 -1.8300
  261MOL0     H35208   0.144  11.598  -0.328  0.4496  1.1894  1.5378
  261MOL0     H35209   0.326  11.749  -0.410  0.0475  1.8699  1.5915
  261MOL0     H35210   0.239  11.701  -0.546 -0.7017 -0.6085  0.4714
  261MOL0     H35211   0.254  11.926  -0.597 -1.2468 -0.9323 -0.3935
  261MOL0     H35212   0.249  11.972  -0.428  0.5676 -0.5110  0.9511
  261MOL0     H35213  -0.006  11.930  -0.431  3.2421 -0.1593  2.7539
  261MOL0     H35214   0.048  12.057  -0.532  0.6338 -0.2541 -1.1340
  261MOL0     H35215   0.063  11.823   0.481 -2.4610 -0.1960 -0.7054
  261MOL0     H35216  -0.018  11.737   0.692  1.3501  0.5995 -1.9045
  261MOL0     H35217  -0.224  11.165   0.829 -3.6334 -0.1234 -3.6159
  261MOL0     H35218  -0.369  11.082   1.014 -1.5017 -0.3207  0.7021
  261MOL0     H35219   0.037  10.775   2.409 -0.1838 -2.5889  0.4364
  261MOL0     H35220   0.159  10.568   2.385 -2.9468 -0.2912  0.1718
  261MOL0     H35221   0.482  10.304   2.401  2.5192  1.1094 -1.2826
  261MOL0     H35222   0.628  10.116   2.387  4.6537 -0.8396 -0.9556
  261MOL0     H35223   0.789   9.973   2.388 -3.8964 -1.1424 -0.2648
  261MOL0     H35224   0.669   9.901   2.496 -1.0886  0.0510  0.2224
  261MOL0     H35225   0.843   9.755   2.600  1.6407 -0.0165  0.5352
  261MOL0     H35226   0.974   9.826   2.508 -0.0655 -0.3040  0.6476
  261MOL0     H35227   0.918   9.612   2.404 -0.0898 -0.9720  2.5470
  261MOL0     H35228   0.917   9.739   2.297  0.9203  0.7304  1.0965
  261MOL0     H35229   0.655   9.744   2.306 -2.9108 -1.6577 -1.5107
  261MOL0     H35230   0.721   9.600   2.244  2.2842  2.0245 -1.1134
  261MOL0     H35231   0.560   9.541   2.639  2.2163  1.0711  0.6747
  261MOL0     H35232   0.818  10.217   2.755  0.3591  0.4976  0.5109
  261MOL0     H35233   0.615  10.480   2.850 -1.5955  1.2078 -2.7867
  261MOL0     H35234   0.786  10.417   2.862  2.8137  1.5116 -2.1158
  261MOL0     H35235   0.748  10.555   2.766  0.8611  0.8186  2.5265
  262MOL0     O35236   2.945   8.919   1.130 -0.0677 -0.6071 -0.0454
  262MOL0     C35237   3.007   8.943   1.031  0.7548  0.0584 -0.1112
  262MOL0     O35238   3.007   9.053   0.953  0.1164 -0.4796 -0.0751
  262MOL0     C35239   2.904   9.143   0.980 -1.3277 -0.9582 -0.5113
  262MOL0     C35240   2.803   9.173   0.895  0.2788 -0.9248  0.5908
  262MOL0     C35241   2.704   9.282   0.933  0.1474 -0.5014 -0.0990
  262MOL0     C35242   2.726   9.351   1.045  0.6132 -0.6782 -0.1188
  262MOL0     O35243   2.635   9.451   1.085 -0.2851 -0.5754  0.3110
  262MOL0     C35244   2.688   9.546   1.186 -0.0433  0.0701  0.4999
  262MOL0     C35245   2.580   9.650   1.212  0.8732 -0.1541  0.9801
  262MOL0     C35246   2.626   9.764   1.308 -0.4719  0.4379  0.9264
  262MOL0     C35247   2.512   9.845   1.350 -0.2058  0.6432  0.0593
  262MOL0     C35248   2.510   9.983   1.288  0.1761 -0.8687  0.1135
  262MOL0     C35249   2.503   9.979   1.127 -0.4235 -0.3159 -0.3143
  262MOL0     C35250   2.372   9.924   1.071 -0.3475 -1.0099 -0.2098
  262MOL0     C35251   2.336   9.969   0.924 -0.5505 -0.5312  0.5396
  262MOL0     N35252   2.199   9.919   0.878  0.0471  0.3317 -0.2674
  262MOL0     C35253   2.157   9.792   0.852 -1.3413  0.6322  0.0791
  262MOL0     C35254   2.032   9.798   0.805 -0.4862  0.5723  0.0091
  262MOL0     C35255   1.958   9.675   0.773 -0.3830 -0.5480  0.2848
  262MOL0     C35256   1.875   9.628   0.892 -0.2698 -0.0628 -0.3941
  262MOL0     C35257   1.732   9.695   0.924  0.7082 -0.5096  0.6902
  262MOL0     C35258   1.644   9.663   0.800  0.7558 -0.5160 -0.1499
  262MOL0     O35259   1.503   9.642   0.817  0.2024  0.6918 -0.2971
  262MOL0     C35260   1.463   9.527   0.865  0.3636 -0.5579 -0.6806
  262MOL0     C35261   1.548   9.423   0.911 -0.3501  0.9641  0.4615
  262MOL0     C35262   1.493   9.306   0.968  1.1811 -0.9484  0.2527
  262MOL0     C35263   1.353   9.286   0.969 -0.3684  0.8105  0.5500
  262MOL0     C35264   1.298   9.159   1.033  0.1546 -0.7667  0.4846
  262MOL0     O35265   1.393   9.074   1.080  0.7303  0.0242  0.8366
  262MOL0     C35266   1.366   8.975   1.174 -0.5385 -0.1315  0.5550
  262MOL0     C35267   1.336   8.991   1.313  0.8084  0.4391 -0.1857
  262MOL0     C35268   1.338   8.872   1.392  0.0395  0.1261 -0.3005
  262MOL0     C35269   1.359   8.745   1.345  0.1937  1.4051 -0.2031
  262MOL0     O35270   1.360   8.637   1.430 -0.1040 -0.7201 -0.0293
  262MOL0     C35271   1.462   8.645   1.524 -0.4567  0.5631 -0.0242
  262MOL0     C35272   1.545   8.525   1.505  0.2308 -0.3218 -1.1239
  262MOL0     C35273   1.484   8.389   1.501  0.0819  0.7245  0.7529
  262MOL0     C35274   1.442   8.349   1.641  0.2732  0.1406 -0.8145
  262MOL0     C35275   1.407   8.206   1.667  0.9313 -0.4965 -0.7949
  262MOL0     C35276   1.287   8.155   1.585 -0.7659  0.1327 -0.4134
  262MOL0     C35277   1.234   8.014   1.637 -0.2300 -0.0029  0.0701
  262MOL0     C35278   1.142   7.946   1.529 -0.4610  0.1101  0.6331
  262MOL0    Cl35279   1.208   7.957   1.353 -0.0818 -0.1815  0.3152
  262MOL0     C35280   1.382   8.737   1.207  0.5517 -0.2524  0.8633
  262MOL0     C35281   1.384   8.845   1.126 -0.0097 -0.4172 -0.3498
  262MOL0     O35282   1.173   9.144   1.049 -0.5244  0.0014 -0.7745
  262MOL0     C35283   1.268   9.388   0.916 -0.5018  0.5629  0.5443
  262MOL0     C35284   1.331   9.503   0.868  1.3736  0.2084 -0.1317
  262MOL0     N35285   1.991   9.932   0.806 -0.3345 -0.3828  1.0061
  262MOL0     N35286   2.086   9.999   0.855 -1.4337 -0.5527 -0.7561
  262MOL0     C35287   2.829   9.311   1.129 -0.8410  0.8283  0.8071
  262MOL0     C35288   2.923   9.210   1.098  0.7735 -0.5666 -0.8463
  262MOL0     C35289   3.080   8.829   0.972  0.8778  0.3296 -0.2654
  262MOL0     C35290   3.149   8.848   0.854  1.5722 -0.1446  0.2939
  262MOL0     C35291   3.238   8.750   0.803  0.1025 -0.7699 -0.1788
  262MOL0     C35292   3.256   8.626   0.868 -0.1788  0.7642 -0.2515
  262MOL0     O35293   3.331   8.523   0.827 -0.6380  0.2342 -0.5324
  262MOL0     C35294   3.397   8.544   0.702  1.1432  0.1876 -0.2714
  262MOL0     C35295   3.461   8.404   0.668 -0.4417 -1.1161  0.4293
  262MOL0     C35296   3.365   8.299   0.627 -0.6246  1.1334  0.7221
  262MOL0     C35297   3.426   8.172   0.574  0.3165 -0.5430  0.0574
  262MOL0     C35298   3.354   8.052   0.634  0.3289 -0.1580  0.9342
  262MOL0     C35299   3.282   7.973   0.686 -0.2498 -0.4782  0.4539
  262MOL0     C35300   3.180   8.608   0.983  1.0120  0.3939 -0.3539
  262MOL0     C35301   3.095   8.699   1.039  0.2872 -0.8218 -1.4963
  262MOL0     C35302   3.025   8.646   1.167  0.4877  0.2576 -0.6526
  262MOL0     H35303   2.781   9.114   0.806 -0.2108 -1.6263  1.1641
  262MOL0     H35304   2.617   9.305   0.873 -0.7699 -1.8841  0.6370
  262MOL0     H35305   2.724   9.494   1.275 -0.8240 -2.1924 -0.4301
  262MOL0     H35306   2.770   9.599   1.137 -2.0435  2.9150 -0.0672
  262MOL0     H35307   2.496   9.595   1.254 -1.6154  2.0316 -0.8462
  262MOL0     H35308   2.554   9.690   1.114  0.8169  1.7283  1.7275
  262MOL0     H35309   2.706   9.829   1.272 -1.5020  2.1257  1.5456
  262MOL0     H35310   2.674   9.720   1.395  4.3352  2.8548 -0.1410
  262MOL0     H35311   2.413   9.800   1.335  0.7606 -1.6642  0.2906
  262MOL0     H35312   2.519   9.871   1.456 -1.7344  1.4117  0.0103
  262MOL0     H35313   2.423  10.035   1.327 -1.1530 -0.3465 -3.2366
  262MOL0     H35314   2.600  10.036   1.321 -0.8302  2.2171 -1.7109
  262MOL0     H35315   2.505  10.087   1.109 -0.6489  0.2280  2.4528
  262MOL0     H35316   2.594   9.938   1.083  2.6978  3.6100  1.8387
  262MOL0     H35317   2.292   9.963   1.135 -0.3494 -3.5036  1.4569
  262MOL0     H35318   2.385   9.816   1.084  2.9356 -0.7042 -0.0649
  262MOL0     H35319   2.343  10.077   0.905 -2.0431 -0.8431 -2.3576
  262MOL0     H35320   2.416   9.936   0.857  0.0866  2.2128 -0.1618
  262MOL0     H35321   2.220   9.703   0.854  0.0408  1.4033 -2.8283
  262MOL0     H35322   1.895   9.690   0.685 -0.7130  1.0438  0.7596
  262MOL0     H35323   2.030   9.594   0.756 -1.4689 -1.9722  2.0371
  262MOL0     H35324   1.871   9.518   0.885 -2.2966 -0.1173  0.8081
  262MOL0     H35325   1.930   9.655   0.982 -2.2435 -2.1727  1.6057
  262MOL0     H35326   1.741   9.804   0.939 -1.5994 -0.4276  1.9595
  262MOL0     H35327   1.684   9.651   1.012 -0.9011 -0.3180 -0.0542
  262MOL0     H35328   1.685   9.577   0.747 -1.1249 -1.6986  0.1899
  262MOL0     H35329   1.656   9.742   0.726 -0.1027 -1.8530 -1.7808
  262MOL0     H35330   1.656   9.423   0.905 -0.3891 -0.2446 -0.4249
  262MOL0     H35331   1.557   9.222   0.994  4.3859  1.3502  0.3287
  262MOL0     H35332   1.317   9.086   1.361  2.7555  1.8870 -2.0755
  262MOL0     H35333   1.318   8.879   1.498 -3.8568  2.8623 -1.0172
  262MOL0     H35334   1.528   8.728   1.497 -0.8052  0.4105 -1.4768
  262MOL0     H35335   1.426   8.652   1.627  0.1214 -0.5710  0.2696
  262MOL0     H35336   1.606   8.544   1.416  1.9210  0.0693  0.0815
  262MOL0     H35337   1.619   8.534   1.585  0.1941 -1.0119 -1.0084
  262MOL0     H35338   1.399   8.379   1.432  0.4962  2.5309 -0.0837
  262MOL0     H35339   1.554   8.315   1.463 -0.6966  0.4733 -0.2411
  262MOL0     H35340   1.367   8.417   1.682 -1.0082 -1.7048  0.0427
  262MOL0     H35341   1.528   8.381   1.700  2.0925 -0.8712 -2.7730
  262MOL0     H35342   1.378   8.205   1.772  2.2929 -0.6359 -0.3943
  262MOL0     H35343   1.500   8.154   1.641 -0.8888 -3.7361 -1.2370
  262MOL0     H35344   1.205   8.227   1.586  1.2231  2.5347 -0.4970
  262MOL0     H35345   1.344   8.154   1.491 -1.8652 -0.5008 -1.0956
  262MOL0     H35346   1.166   8.040   1.719 -0.8951  0.6020 -0.6564
  262MOL0     H35347   1.320   7.954   1.667  0.8267  0.4969 -1.8314
  262MOL0     H35348   1.129   7.842   1.560 -0.0493 -0.1906 -0.1760
  262MOL0     H35349   1.044   7.992   1.545 -1.7906 -2.6227  0.8821
  262MOL0     H35350   1.392   8.635   1.170 -1.4173 -0.2858  0.2857
  262MOL0     H35351   1.418   8.835   1.023  0.4528 -0.3239 -0.2109
  262MOL0     H35352   1.162   9.367   0.907 -0.5927  1.0265  0.5307
  262MOL0     H35353   1.264   9.583   0.838  1.0262 -0.5227 -1.3635
  262MOL0     H35354   2.845   9.341   1.232  1.6860 -0.1205  0.7694
  262MOL0     H35355   2.995   9.178   1.173 -0.7406  1.7524  1.7789
  262MOL0     H35356   3.145   8.943   0.802  2.1553 -1.7002 -2.8013
  262MOL0     H35357   3.272   8.753   0.700  2.4506 -0.1763  0.5512
  262MOL0     H35358   3.481   8.614   0.702  3.7672 -2.6307 -2.6655
  262MOL0     H35359   3.327   8.575   0.624 -0.9642  1.9753  2.1582
  262MOL0     H35360   3.517   8.382   0.760 -2.6070  0.5688  2.2383
  262MOL0     H35361   3.540   8.419   0.593  2.0979 -0.8314  2.9694
  262MOL0     H35362   3.300   8.333   0.545 -0.2891  1.4107  0.5674
  262MOL0     H35363   3.292   8.271   0.703 -2.5053 -1.8552 -1.9122
  262MOL0     H35364   3.426   8.160   0.466 -0.4048 -0.4624  0.0440
  262MOL0     H35365   3.529   8.172   0.610  0.2395 -0.7368  0.2833
  262MOL0     H35366   3.212   7.919   0.747  2.4719 -1.7726  2.6413
  262MOL0     H35367   3.193   8.515   1.038 -1.6791  1.1940  1.8464
  262MOL0     H35368   3.098   8.637   1.248 -1.0761  0.7282  0.8675
  262MOL0     H35369   2.939   8.700   1.207  1.0935  1.2995 -0.7045
  262MOL0     H35370   2.995   8.543   1.151 -1.3690  0.0847  2.9249
  263MOL0     O35371  10.214   1.982   4.326  0.3471  0.3357 -0.1516
  263MOL0     C35372  10.207   1.959   4.451 -1.0269  0.5818 -0.3054
  263MOL0     O35373  10.116   2.013   4.530  0.6523  0.4911  0.1079
  263MOL0     C35374  10.013   2.087   4.478  0.6874 -0.0528  0.2622
  263MOL0     C35375   9.937   2.039   4.371  0.4536  0.7077  0.5082
  263MOL0     C35376   9.829   2.114   4.330  0.1070 -0.3703  0.4846
  263MOL0     C35377   9.790   2.237   4.392 -0.8800  0.7953  0.7675
  263MOL0     O35378   9.671   2.299   4.356 -0.6819 -0.1018 -0.5232
  263MOL0     C35379   9.640   2.342   4.223  1.0061  0.2825 -0.1012
  263MOL0     C35380   9.499   2.425   4.211  0.8574  0.4385 -0.0637
  263MOL0     C35381   9.386   2.338   4.275 -0.7729  0.4289  0.4783
  263MOL0     C35382   9.249   2.359   4.197 -0.1546  0.1734 -0.4848
  263MOL0     C35383   9.133   2.336   4.293 -0.3245  1.0034  0.6612
  263MOL0     C35384   9.105   2.475   4.357 -0.2578 -0.4453  0.1198
  263MOL0     C35385   8.996   2.453   4.469 -0.3424  0.3959 -0.7736
  263MOL0     C35386   8.860   2.438   4.408 -0.4047 -0.6404 -0.1385
  263MOL0     N35387   8.779   2.337   4.484  0.6110 -0.5948 -0.1225
  263MOL0     C35388   8.730   2.222   4.434  0.2645 -0.8297  0.4915
  263MOL0     C35389   8.663   2.162   4.538  0.8925 -0.4996  1.5467
  263MOL0     C35390   8.584   2.036   4.524 -0.0791  0.3307  0.7497
  263MOL0     C35391   8.644   1.936   4.430  0.3494  0.5138 -0.1035
  263MOL0     C35392   8.794   1.903   4.469  0.9022  0.4469 -0.3125
  263MOL0     C35393   8.828   1.778   4.379 -0.5127 -0.5516 -0.6489
  263MOL0     O35394   8.765   1.659   4.420 -0.4653  0.3077  0.2540
  263MOL0     C35395   8.803   1.553   4.334  0.8472  0.9306 -0.4203
  263MOL0     C35396   8.899   1.551   4.227  1.2914  0.5109  0.1290
  263MOL0     C35397   8.897   1.442   4.138 -0.0087  0.6203  0.1044
  263MOL0     C35398   8.813   1.330   4.158 -0.6623 -0.2955  0.8060
  263MOL0     C35399   8.825   1.210   4.074  0.6837 -0.3504  0.1260
  263MOL0     O35400   8.925   1.204   3.989  0.1416 -0.4748 -0.0050
  263MOL0     C35401   8.912   1.132   3.878 -0.6606 -0.0154 -1.0644
  263MOL0     C35402   8.948   1.198   3.758  0.0293  0.4509 -0.9793
  263MOL0     C35403   8.956   1.126   3.638  0.3774 -0.8247  0.4071
  263MOL0     C35404   8.935   0.990   3.640 -0.0990  0.2381 -0.8005
  263MOL0     O35405   8.963   0.927   3.526  0.1773 -0.1510  0.0920
  263MOL0     C35406   8.850   0.909   3.432 -1.1228  0.0375 -0.1953
  263MOL0     C35407   8.898   0.814   3.324 -0.3004  0.9217 -0.6110
  263MOL0     C35408   9.009   0.882   3.232  0.2081 -0.3350 -0.2205
  263MOL0     C35409   8.939   0.988   3.146 -0.2116  0.4621  0.0602
  263MOL0     C35410   9.034   1.050   3.046  0.3600  0.3244 -0.2683
  263MOL0     C35411   8.954   1.141   2.951  0.0209  0.2787 -1.3748
  263MOL0     C35412   9.046   1.182   2.826  0.4171  0.6761 -0.7481
  263MOL0     C35413   8.959   1.284   2.742  0.9486  0.3341  0.1280
  263MOL0    Cl35414   8.846   1.210   2.625  0.1174 -0.1333  0.3233
  263MOL0     C35415   8.903   0.920   3.754  0.6319 -0.1566  0.2348
  263MOL0     C35416   8.890   0.991   3.873  0.3819 -0.1345 -1.1602
  263MOL0     O35417   8.741   1.124   4.094  0.3922 -0.2592  0.5193
  263MOL0     C35418   8.721   1.336   4.264  0.6568  0.1079 -0.3466
  263MOL0     C35419   8.719   1.443   4.350 -0.6701  0.5192  0.7255
  263MOL0     N35420   8.670   2.247   4.651  0.1019 -0.0151 -0.5040
  263MOL0     N35421   8.747   2.346   4.617  0.4968  0.9047 -0.5195
  263MOL0     C35422   9.878   2.291   4.490 -0.1556 -0.9155  0.7614
  263MOL0     C35423   9.993   2.219   4.533  0.1687  0.0293 -1.2872
  263MOL0     C35424  10.316   1.863   4.510 -1.6347 -0.7216 -0.4212
  263MOL0     C35425  10.416   1.804   4.419  0.2666  0.7416  0.1889
  263MOL0     C35426  10.526   1.737   4.465  1.2179  0.2047  0.0808
  263MOL0     C35427  10.545   1.731   4.605 -0.5923 -0.3015  0.2312
  263MOL0     O35428  10.662   1.667   4.651  0.2659  0.2949  0.6091
  263MOL0     C35429  10.681   1.625   4.788 -0.5471  0.5054  0.5077
  263MOL0     C35430  10.585   1.519   4.840  0.1134  0.9570  0.1116
  263MOL0     C35431  10.587   1.376   4.778 -0.1925 -0.0647  1.0535
  263MOL0     C35432  10.727   1.306   4.752 -0.1438 -0.0683 -1.2733
  263MOL0     C35433  10.784   1.357   4.624  0.1685  0.5232  0.3531
  263MOL0     C35434  10.815   1.411   4.520 -0.6391  0.0868 -0.1433
  263MOL0     C35435  10.464   1.793   4.695 -0.5965 -0.3721  0.0534
  263MOL0     C35436  10.342   1.848   4.650  0.3710  0.1903  1.1018
  263MOL0     C35437  10.237   1.889   4.749  0.2206 -0.6347  0.1485
  263MOL0     H35438   9.951   1.940   4.329 -1.9678 -0.4384  2.1411
  263MOL0     H35439   9.750   2.082   4.262 -2.0876  1.6689  1.9082
  263MOL0     H35440   9.720   2.409   4.190  4.5232 -3.4084  0.1399
  263MOL0     H35441   9.629   2.259   4.152  1.2250 -0.1111  0.3218
  263MOL0     H35442   9.470   2.442   4.107 -0.6147  3.3679  0.7164
  263MOL0     H35443   9.510   2.518   4.268  0.6305 -1.7054  3.8053
  263MOL0     H35444   9.383   2.369   4.380  1.4745 -0.3200  0.8236
  263MOL0     H35445   9.414   2.234   4.257  1.3970  1.0580 -0.0817
  263MOL0     H35446   9.244   2.461   4.160 -2.9170  1.1080  2.0616
  263MOL0     H35447   9.244   2.281   4.121  2.2881  0.3789 -0.9436
  263MOL0     H35448   9.046   2.297   4.239  0.7255  0.3786 -0.6440
  263MOL0     H35449   9.170   2.275   4.376  1.2324  1.2105  0.1477
  263MOL0     H35450   9.192   2.514   4.412  1.8863 -5.1004  0.4932
  263MOL0     H35451   9.072   2.547   4.281  1.6694 -1.9083 -2.2734
  263MOL0     H35452   8.992   2.519   4.556 -0.3900 -2.0030  1.1350
  263MOL0     H35453   9.020   2.357   4.515  1.7773  1.2230 -0.0174
  263MOL0     H35454   8.806   2.532   4.418 -1.6601 -1.3939  0.5717
  263MOL0     H35455   8.875   2.410   4.304 -2.1380 -1.5271 -0.2016
  263MOL0     H35456   8.745   2.186   4.333 -5.0348 -0.4226 -0.7232
  263MOL0     H35457   8.566   1.994   4.623 -0.8521 -0.9454  0.0923
  263MOL0     H35458   8.486   2.053   4.479 -0.2289 -1.6076  0.2281
  263MOL0     H35459   8.581   1.848   4.445 -1.7681  2.1521  1.2126
  263MOL0     H35460   8.640   1.986   4.333  1.6104  3.0652  1.0429
  263MOL0     H35461   8.795   1.880   4.576 -0.2432 -0.0556 -0.3958
  263MOL0     H35462   8.856   1.990   4.448  0.4877  0.9998  0.6890
  263MOL0     H35463   8.935   1.757   4.387 -0.3529  0.0483 -1.0997
  263MOL0     H35464   8.813   1.804   4.273 -0.4958 -2.8438 -1.2644
  263MOL0     H35465   8.959   1.639   4.203 -0.5682  2.4110  1.9637
  263MOL0     H35466   8.975   1.449   4.063  0.9602 -3.7525  0.4423
  263MOL0     H35467   8.969   1.305   3.757  0.3720  0.3846 -2.2108
  263MOL0     H35468   8.957   1.178   3.543  1.7631 -1.5525  0.0027
  263MOL0     H35469   8.762   0.869   3.484  0.3657 -3.4034 -0.0132
  263MOL0     H35470   8.820   1.007   3.395  1.6245  0.6665 -1.0121
  263MOL0     H35471   8.938   0.720   3.363 -3.6529 -0.2850  0.2487
  263MOL0     H35472   8.818   0.778   3.259 -2.7151 -0.0408  2.6673
  263MOL0     H35473   9.102   0.911   3.281  0.2280 -3.0977  1.5945
  263MOL0     H35474   9.029   0.794   3.170  1.3032  0.5709 -1.2055
  263MOL0     H35475   8.896   1.068   3.207 -1.4772 -0.7144  0.7682
  263MOL0     H35476   8.853   0.946   3.093  0.3314 -0.9443  0.2372
  263MOL0     H35477   9.096   0.979   2.991  0.2036 -1.5573  1.8216
  263MOL0     H35478   9.104   1.115   3.099 -1.2576  1.1226  1.0172
  263MOL0     H35479   8.864   1.082   2.929  1.6679 -3.6108  1.1096
  263MOL0     H35480   8.915   1.226   3.008 -0.1129  0.9270 -2.4096
  263MOL0     H35481   9.082   1.095   2.770 -0.4367  0.8792 -1.6494
  263MOL0     H35482   9.129   1.233   2.875 -1.0497  0.5314  2.0365
  263MOL0     H35483   8.896   1.346   2.807  0.2048  1.4334 -1.5774
  263MOL0     H35484   9.031   1.345   2.688  2.2469  0.0850  1.5030
  263MOL0     H35485   8.908   0.812   3.748 -1.1260 -0.1918 -1.8809
  263MOL0     H35486   8.863   0.940   3.965  1.7179  2.4245  0.7966
  263MOL0     H35487   8.635   1.274   4.286 -1.9121  3.1082 -1.1530
  263MOL0     H35488   8.651   1.442   4.434 -0.6514 -2.4849  0.7812
  263MOL0     H35489   9.854   2.394   4.517 -2.2230 -1.4465  1.1318
  263MOL0     H35490  10.057   2.263   4.608  3.0336 -1.4155 -2.7208
  263MOL0     H35491  10.396   1.816   4.313 -0.1966 -3.0128 -0.2581
  263MOL0     H35492  10.591   1.688   4.393 -3.5075 -4.4282 -1.6701
  263MOL0     H35493  10.666   1.715   4.849  3.6916  1.6735  0.1716
  263MOL0     H35494  10.785   1.593   4.794 -0.1277  1.7195 -0.0251
  263MOL0     H35495  10.483   1.554   4.824 -0.2760 -0.5146 -0.8582
  263MOL0     H35496  10.599   1.514   4.948 -5.6059 -3.4790  1.1473
  263MOL0     H35497  10.547   1.377   4.676  0.9272 -1.5110  0.5665
  263MOL0     H35498  10.528   1.303   4.833  2.0146 -2.5905  0.2599
  263MOL0     H35499  10.796   1.341   4.829  0.1667  1.0577 -2.0284
  263MOL0     H35500  10.709   1.198   4.750 -3.9320  0.4207 -0.1756
  263MOL0     H35501  10.824   1.458   4.424  1.9609 -1.0008 -0.5290
  263MOL0     H35502  10.474   1.784   4.802  1.3769 -0.5495 -0.1189
  263MOL0     H35503  10.144   1.844   4.711  1.3676 -3.0813 -0.0011
  263MOL0     H35504  10.264   1.843   4.844  0.0358  0.8744  0.9503
  263MOL0     H35505  10.232   1.997   4.762  1.1905 -0.8352  2.5893
  264MOL0     O35506  10.328   2.066   5.242 -0.1920 -0.6961 -1.3511
  264MOL0     C35507  10.430   2.116   5.184  0.0357  0.4478  0.9732
  264MOL0     O35508  10.556   2.109   5.230 -0.3659  0.0966  0.5795
  264MOL0     C35509  10.646   2.210   5.208  0.2098 -0.1502 -0.3649
  264MOL0     C35510  10.618   2.337   5.249  0.0457 -0.5575  0.3140
  264MOL0     C35511  10.713   2.445   5.254 -0.3685  0.6428  0.5128
  264MOL0     C35512  10.847   2.413   5.229  0.4230 -0.0464 -1.0262
  264MOL0     O35513  10.932   2.518   5.239  0.1952  0.3827 -0.1216
  264MOL0     C35514  11.011   2.543   5.124  0.1431  0.0173 -0.0572
  264MOL0     C35515  11.131   2.630   5.155 -0.0943  1.5086  0.0839
  264MOL0     C35516  11.206   2.663   5.026  0.0612 -0.0319 -0.3669
  264MOL0     C35517  11.303   2.548   4.986 -0.1294 -0.4785 -0.7682
  264MOL0     C35518  11.408   2.590   4.891  0.0926  0.5459 -0.1178
  264MOL0     C35519  11.502   2.470   4.853  0.4535  0.6042  0.5325
  264MOL0     C35520  11.596   2.487   4.730  0.7255  0.6954 -0.2222
  264MOL0     C35521  11.677   2.359   4.697  0.1727 -0.2663  0.0897
  264MOL0     N35522  11.800   2.401   4.619 -0.1869 -0.2529 -0.7491
  264MOL0     C35523  11.815   2.382   4.485  0.2921  0.8920 -0.2567
  264MOL0     C35524  11.945   2.413   4.454  0.1935  0.1667  0.7961
  264MOL0     C35525  12.002   2.406   4.324 -1.4733  0.1861 -0.2877
  264MOL0     C35526  11.960   2.521   4.228 -0.3285  0.7043  0.0692
  264MOL0     C35527  12.057   2.534   4.104  0.5900 -0.3044 -0.0074
  264MOL0     C35528  12.037   2.424   3.999  0.0810  0.1574 -0.0114
  264MOL0     O35529  12.121   2.468   3.886  0.5542 -0.5571  0.1125
  264MOL0     C35530  12.098   2.411   3.766 -0.2085  0.0116  1.4558
  264MOL0     C35531  12.162   2.471   3.665 -0.0853 -0.3054 -0.2857
  264MOL0     C35532  12.140   2.427   3.530 -0.7800  0.0772  0.1237
  264MOL0     C35533  12.068   2.309   3.505 -0.4614 -1.5003 -0.6035
  264MOL0     C35534  12.064   2.264   3.369 -0.0082  0.0268  0.1665
  264MOL0     O35535  11.981   2.156   3.346  0.1985 -0.0961 -0.3912
  264MOL0     C35536  11.961   2.095   3.222  0.5896  0.1760  0.0200
  264MOL0     C35537  12.016   2.129   3.095 -0.1738  1.4959  0.0911
  264MOL0     C35538  12.004   2.051   2.983  1.0646 -0.5247  0.8839
  264MOL0     C35539  11.936   1.933   2.997  0.3125 -0.1589  0.8798
  264MOL0     O35540  11.915   1.867   2.878 -0.6047  1.0005  0.8341
  264MOL0     C35541  11.844   1.736   2.877 -0.3203 -0.0443 -0.2275
  264MOL0     C35542  11.784   1.684   2.744  0.5772  0.0417  0.2258
  264MOL0     C35543  11.639   1.723   2.732  0.7351 -0.1632 -0.6697
  264MOL0     C35544  11.566   1.635   2.634 -0.3947 -0.0231  0.7323
  264MOL0     C35545  11.463   1.714   2.550  0.0675 -0.1746 -0.1996
  264MOL0     C35546  11.358   1.614   2.506  0.7110 -0.6225 -0.0416
  264MOL0     C35547  11.238   1.679   2.436  1.0604  0.1325 -0.6411
  264MOL0     C35548  11.112   1.590   2.420  0.1958  0.0176 -0.0330
  264MOL0    Cl35549  11.015   1.682   2.302 -0.6021  0.3623 -0.1960
  264MOL0     C35550  11.874   1.895   3.113  0.5672  0.1338 -1.3075
  264MOL0     C35551  11.890   1.974   3.228 -0.2613  0.3696 -0.0278
  264MOL0     O35552  12.136   2.319   3.286  0.4161 -0.2680 -0.0385
  264MOL0     C35553  12.000   2.247   3.613  1.0491  0.0171 -0.4208
  264MOL0     C35554  12.025   2.292   3.741 -0.2110  0.4782 -0.1802
  264MOL0     N35555  12.014   2.451   4.569  1.0354 -0.5186 -0.1185
  264MOL0     N35556  11.919   2.449   4.664 -0.6995 -0.5131 -0.0900
  264MOL0     C35557  10.881   2.273   5.206 -0.5445 -0.9034  0.8123
  264MOL0     C35558  10.780   2.178   5.182 -0.1453  1.0997  0.1994
  264MOL0     C35559  10.418   2.159   5.040  0.1473  0.2665 -0.0943
  264MOL0     C35560  10.506   2.110   4.945 -0.8126 -1.1291  0.0212
  264MOL0     C35561  10.494   2.151   4.816 -0.3717  0.2332  0.7108
  264MOL0     C35562  10.392   2.242   4.782 -0.9922  0.8855 -0.6159
  264MOL0     O35563  10.355   2.280   4.657 -0.8137 -0.5740 -0.6887
  264MOL0     C35564  10.435   2.234   4.550 -1.1672  1.2900 -0.0095
  264MOL0     C35565  10.370   2.285   4.419  0.0256  0.2149 -0.3031
  264MOL0     C35566  10.400   2.431   4.388 -0.2576 -0.5271 -0.0020
  264MOL0     C35567  10.337   2.538   4.468  0.4180  0.1024  0.5226
  264MOL0     C35568  10.188   2.550   4.463 -0.0413 -0.1967 -0.9344
  264MOL0     C35569  10.075   2.565   4.435  0.0835  0.2337  0.7024
  264MOL0     C35570  10.320   2.303   4.874 -0.6632 -0.1144  0.1660
  264MOL0     C35571  10.329   2.258   5.008 -0.6121  0.7282 -0.0321
  264MOL0     C35572  10.230   2.311   5.109  0.6250  0.0824  0.0211
  264MOL0     H35573  10.514   2.363   5.263  0.2292  0.5007 -0.2141
  264MOL0     H35574  10.679   2.547   5.267 -2.4951  0.1951 -1.0204
  264MOL0     H35575  11.045   2.444   5.091 -1.8539 -0.8043  0.1620
  264MOL0     H35576  10.941   2.573   5.046  0.6406 -4.3476 -2.5641
  264MOL0     H35577  11.193   2.579   5.229 -1.2279 -0.7031 -0.3989
  264MOL0     H35578  11.095   2.727   5.191  2.7648  1.9492  2.1013
  264MOL0     H35579  11.258   2.758   5.041 -0.8655  0.5428 -0.7121
  264MOL0     H35580  11.131   2.686   4.950 -0.2554 -0.6722 -0.2604
  264MOL0     H35581  11.361   2.513   5.072 -0.4038 -1.6365 -1.0371
  264MOL0     H35582  11.243   2.464   4.949 -0.5029 -1.5795  2.0955
  264MOL0     H35583  11.376   2.642   4.800  3.1673  2.5971 -0.1717
  264MOL0     H35584  11.471   2.660   4.947 -0.9223  0.0849  1.7027
  264MOL0     H35585  11.559   2.445   4.942 -1.8680 -4.0649  0.9818
  264MOL0     H35586  11.433   2.386   4.843 -1.9817  2.1657  2.8609
  264MOL0     H35587  11.667   2.564   4.763  1.7777  0.1533 -1.1355
  264MOL0     H35588  11.530   2.514   4.647 -2.0511  0.2863  1.7274
  264MOL0     H35589  11.698   2.319   4.797  1.4033 -0.0481 -0.0744
  264MOL0     H35590  11.619   2.280   4.647  1.0810 -3.7148  3.9035
  264MOL0     H35591  11.749   2.336   4.412 -3.5407  5.2868 -0.0350
  264MOL0     H35592  12.111   2.396   4.320 -1.3237  1.3962  0.3191
  264MOL0     H35593  11.976   2.306   4.287 -0.5722 -0.0881 -0.2257
  264MOL0     H35594  11.855   2.498   4.210 -0.5749 -2.3421  4.0111
  264MOL0     H35595  11.957   2.609   4.293 -0.8053 -2.3261  4.7178
  264MOL0     H35596  12.159   2.537   4.142  0.3807 -0.4824  0.5818
  264MOL0     H35597  12.039   2.633   4.061  2.9290  0.3418  0.3430
  264MOL0     H35598  11.934   2.438   3.964 -0.1457 -2.2904 -0.4565
  264MOL0     H35599  12.047   2.323   4.038  0.8826  0.5475  0.8361
  264MOL0     H35600  12.218   2.563   3.677  0.5542 -0.8446  0.9889
  264MOL0     H35601  12.177   2.489   3.450 -3.0246  0.1341 -0.9195
  264MOL0     H35602  12.068   2.221   3.072  1.1961  1.4435  2.5587
  264MOL0     H35603  12.044   2.068   2.884 -0.6111  1.0198  0.4048
  264MOL0     H35604  11.921   1.672   2.921  0.7541  2.0214  1.1039
  264MOL0     H35605  11.762   1.731   2.949 -0.4989 -1.0087 -0.4911
  264MOL0     H35606  11.840   1.716   2.656  0.7803 -1.6800 -0.3213
  264MOL0     H35607  11.792   1.575   2.741 -1.8703 -0.4093  3.8359
  264MOL0     H35608  11.585   1.700   2.824  0.1668 -3.0057 -1.6110
  264MOL0     H35609  11.640   1.829   2.706 -3.3197 -0.2603 -1.8986
  264MOL0     H35610  11.510   1.553   2.679 -0.6042 -1.4424 -1.9472
  264MOL0     H35611  11.639   1.592   2.566 -0.8657 -3.7094  2.3456
  264MOL0     H35612  11.509   1.750   2.458  1.3384 -0.9759  0.0884
  264MOL0     H35613  11.432   1.800   2.610  2.8647  0.4730  0.4869
  264MOL0     H35614  11.412   1.544   2.441  0.0516 -1.9623  0.8256
  264MOL0     H35615  11.317   1.549   2.583  1.5174 -1.5529 -0.3772
  264MOL0     H35616  11.264   1.726   2.340  1.6759  1.9552  0.3686
  264MOL0     H35617  11.193   1.761   2.493 -0.1003 -0.1020 -1.2092
  264MOL0     H35618  11.139   1.491   2.384 -2.8564 -0.9895  0.1897
  264MOL0     H35619  11.067   1.571   2.518 -0.5576  2.3638  0.1427
  264MOL0     H35620  11.819   1.804   3.131  1.1935 -0.4308 -2.1670
  264MOL0     H35621  11.843   1.950   3.322 -0.5836 -2.3155 -0.7983
  264MOL0     H35622  11.928   2.168   3.594  1.1306 -0.5511  1.4004
  264MOL0     H35623  11.985   2.247   3.831 -1.1768  0.8239 -0.4286
  264MOL0     H35624  10.985   2.247   5.187 -0.0637  0.7515  1.0187
  264MOL0     H35625  10.806   2.074   5.164 -0.5165  0.3159  3.5246
  264MOL0     H35626  10.570   2.026   4.971  0.6669 -0.7490 -2.1133
  264MOL0     H35627  10.560   2.103   4.745 -2.0724 -2.4931  0.8123
  264MOL0     H35628  10.429   2.125   4.543  1.0117  1.1781 -0.7689
  264MOL0     H35629  10.539   2.264   4.559  0.6078 -3.5396 -1.3784
  264MOL0     H35630  10.262   2.277   4.437  0.1560  2.2542  1.8538
  264MOL0     H35631  10.388   2.223   4.331 -1.4940 -0.5711 -0.0972
  264MOL0     H35632  10.373   2.438   4.282  1.7898 -0.5121 -0.5674
  264MOL0     H35633  10.503   2.464   4.402 -0.6789  2.0424 -2.0363
  264MOL0     H35634  10.360   2.512   4.572  1.3772 -1.0953  0.0259
  264MOL0     H35635  10.385   2.632   4.439 -1.9976  1.4560  0.6223
  264MOL0     H35636   9.974   2.567   4.400  0.1449  1.0319  0.5569
  264MOL0     H35637  10.239   2.365   4.838 -0.5768 -0.1011 -0.0069
  264MOL0     H35638  10.168   2.385   5.058  0.6961  0.6086  0.6811
  264MOL0     H35639  10.161   2.229   5.131  1.2244 -0.0725  1.4250
  264MOL0     H35640  10.268   2.365   5.196 -0.3210  1.0794 -0.1682
  265MOL0     O35641  11.075   9.632  11.420 -0.6115  0.1524  0.2125
  265MOL0     C35642  10.999   9.575  11.341 -0.4522 -0.6052  0.4554
  265MOL0     O35643  11.034   9.457  11.280 -0.2563  0.2415  0.2899
  265MOL0     C35644  11.153   9.398  11.305 -0.1183 -0.8970  0.6794
  265MOL0     C35645  11.158   9.312  11.407  0.5563  0.1886 -0.5254
  265MOL0     C35646  11.277   9.250  11.445 -0.3539  0.1860  0.0271
  265MOL0     C35647  11.401   9.273  11.379 -0.1328  0.0790  0.0048
  265MOL0     O35648  11.528   9.226  11.409 -0.1045  0.2439  0.6369
  265MOL0     C35649  11.543   9.085  11.461 -0.8181 -0.2312  0.0964
  265MOL0     C35650  11.694   9.068  11.489 -0.7968  0.6865  0.0409
  265MOL0     C35651  11.787   9.095  11.369 -0.0169 -0.3451  0.8065
  265MOL0     C35652  11.935   9.099  11.399 -0.4476  0.2106  0.1332
  265MOL0     C35653  12.008   9.107  11.258 -0.2131 -0.7659 -0.4863
  265MOL0     C35654  12.158   9.113  11.268 -0.0267 -0.5386 -0.4054
  265MOL0     C35655  12.226   9.244  11.311 -0.0717 -0.1693 -0.0785
  265MOL0     C35656  12.379   9.215  11.321 -0.0222  0.0541 -0.4238
  265MOL0     N35657  12.461   9.333  11.340 -0.1137 -0.3398 -0.2617
  265MOL0     C35658  12.410   9.453  11.382 -0.0069  0.0657  0.1828
  265MOL0     C35659  12.514   9.541  11.400  0.5348 -0.1475 -0.7679
  265MOL0     C35660  12.500   9.675  11.468  0.1460 -0.7116  0.1746
  265MOL0     C35661  12.575   9.791  11.401  0.3778 -0.5039 -0.3004
  265MOL0     C35662  12.716   9.827  11.432  0.3463  0.5262 -0.6695
  265MOL0     C35663  12.760   9.932  11.337  0.2972  0.5898  0.1433
  265MOL0     O35664  12.739   9.909  11.195  0.1008 -0.4531  0.1036
  265MOL0     C35665  12.834   9.828  11.141  0.6653  0.3867  0.2308
  265MOL0     C35666  12.934   9.900  11.068 -0.3476 -0.6743  0.3543
  265MOL0     C35667  13.039   9.825  11.009 -0.3565  0.0223 -0.7214
  265MOL0     C35668  13.032   9.677  11.012 -0.3099 -0.9973 -0.5634
  265MOL0     C35669  13.138   9.594  10.953 -0.5044  0.2484 -0.4416
  265MOL0     O35670  13.223   9.657  10.867  0.6310 -0.2084 -0.5792
  265MOL0     C35671  13.342   9.602  10.816 -0.4543 -0.5295  0.0391
  265MOL0     C35672  13.386   9.650  10.695 -0.7310 -1.0597  0.6880
  265MOL0     C35673  13.491   9.587  10.626 -0.0661 -0.1183  0.7930
  265MOL0     C35674  13.561   9.483  10.677 -0.0074  0.0820  0.2706
  265MOL0     O35675  13.656   9.419  10.601 -0.3761 -0.1183  0.6627
  265MOL0     C35676  13.730   9.310  10.654  0.9827  0.4781 -0.0960
  265MOL0     C35677  13.824   9.259  10.553 -0.2249  0.5467  1.1090
  265MOL0     C35678  13.772   9.149  10.468 -0.5880  0.0231  0.4012
  265MOL0     C35679  13.873   9.127  10.341 -0.7411  0.3340 -0.0847
  265MOL0     C35680  13.843   8.997  10.280 -0.1094 -0.3895  1.1976
  265MOL0     C35681  13.811   8.875  10.366 -0.4140 -0.9507 -0.6171
  265MOL0     C35682  13.833   8.743  10.284  0.2506 -0.5534 -0.4742
  265MOL0     C35683  13.978   8.698  10.279  0.7743  0.2266  0.8943
  265MOL0    Cl35684  14.026   8.642  10.431  0.3903 -0.4655 -0.1823
  265MOL0     C35685  13.522   9.444  10.807  0.0383 -0.5026 -0.0173
  265MOL0     C35686  13.418   9.506  10.881  0.0318  0.0998  1.2923
  265MOL0     O35687  13.122   9.472  10.969  0.1092 -0.0754  0.8050
  265MOL0     C35688  12.928   9.616  11.087  0.2010 -0.8935  0.0958
  265MOL0     C35689  12.824   9.688  11.145  0.0533  0.3574  0.2108
  265MOL0     N35690  12.625   9.477  11.349 -0.6490 -0.6821  1.1285
  265MOL0     N35691  12.593   9.354  11.313  0.5295  0.3326 -0.1065
  265MOL0     C35692  11.390   9.363  11.270  0.2771  0.5139  0.1223
  265MOL0     C35693  11.267   9.417  11.224  0.1615  0.3239  0.1592
  265MOL0     C35694  10.867   9.630  11.298 -1.0320 -0.0437 -0.7158
  265MOL0     C35695  10.759   9.532  11.278 -0.5142 -0.7367 -0.1206
  265MOL0     C35696  10.642   9.584  11.224  0.5090 -0.2353 -0.4457
  265MOL0     C35697  10.625   9.715  11.201  0.3588 -0.4746  0.3377
  265MOL0     O35698  10.508   9.780  11.159  0.4704 -0.0200 -0.2356
  265MOL0     C35699  10.383   9.709  11.155 -0.1861  1.4690  0.1748
  265MOL0     C35700  10.363   9.611  11.032  0.1331  1.1609  0.0186
  265MOL0     C35701  10.315   9.685  10.906  0.1693  0.7927  0.5210
  265MOL0     C35702  10.245   9.589  10.811  0.2197  0.0248 -0.4785
  265MOL0     C35703  10.107   9.572  10.857 -0.1894 -0.7662  0.2008
  265MOL0     C35704  10.000   9.555  10.911  0.2675 -0.0233 -0.2580
  265MOL0     C35705  10.721   9.802  11.217 -1.1524  0.0517 -0.1197
  265MOL0     C35706  10.848   9.768  11.269 -0.6800 -0.7461  0.5764
  265MOL0     C35707  10.953   9.878  11.261 -0.1524 -0.6644 -1.7058
  265MOL0     H35708  11.068   9.294  11.464  0.0025  1.0325 -1.1039
  265MOL0     H35709  11.288   9.188  11.533  1.7387  2.4601  1.5342
  265MOL0     H35710  11.489   9.070  11.555  0.0062 -1.6747  0.3713
  265MOL0     H35711  11.515   9.004  11.393  4.5080 -1.8760 -0.6347
  265MOL0     H35712  11.719   8.970  11.530 -3.1416 -0.0755 -0.2024
  265MOL0     H35713  11.723   9.144  11.562 -0.0952 -0.4597  0.9795
  265MOL0     H35714  11.756   9.187  11.319 -0.5091 -0.2643  1.2573
  265MOL0     H35715  11.777   9.011  11.299  1.6367  0.5172 -0.5300
  265MOL0     H35716  11.969   9.188  11.452  0.0222  0.1084  0.0073
  265MOL0     H35717  11.972   9.007  11.445 -0.5811 -0.7224 -1.5461
  265MOL0     H35718  11.978   9.015  11.208 -0.7377  0.1947 -1.9991
  265MOL0     H35719  11.964   9.192  11.206  4.4261  2.1638 -0.2157
  265MOL0     H35720  12.176   9.033  11.340  3.1149  1.1327  0.9068
  265MOL0     H35721  12.201   9.090  11.170 -0.2762  1.6536 -1.0790
  265MOL0     H35722  12.181   9.282  11.403 -3.0736  1.3700 -2.0187
  265MOL0     H35723  12.205   9.312  11.227  1.0845 -2.0729 -2.0195
  265MOL0     H35724  12.393   9.143  11.401 -1.3927 -1.1305 -1.1918
  265MOL0     H35725  12.406   9.179  11.221 -1.7786 -0.3396 -0.8020
  265MOL0     H35726  12.311   9.480  11.416  0.0776  6.3487 -3.0801
  265MOL0     H35727  12.396   9.709  11.466  0.6703  1.2328  2.0989
  265MOL0     H35728  12.530   9.669  11.573 -1.5365  0.5833  0.7723
  265MOL0     H35729  12.552   9.780  11.294 -0.7963  1.2587 -0.2654
  265MOL0     H35730  12.522   9.883  11.425 -0.0136 -0.6089 -0.7413
  265MOL0     H35731  12.773   9.734  11.420 -0.1548  0.1107  0.1184
  265MOL0     H35732  12.732   9.871  11.531 -2.9304  1.1594 -0.3178
  265MOL0     H35733  12.869   9.941  11.348  0.5488  2.7970 -2.9812
  265MOL0     H35734  12.720  10.031  11.360 -0.5014  0.7289 -1.6985
  265MOL0     H35735  12.922  10.007  11.056  2.0199 -0.2692  0.9765
  265MOL0     H35736  13.132   9.871  10.976  0.9834  0.2112  2.8248
  265MOL0     H35737  13.328   9.731  10.653  0.5841  0.1978  1.1759
  265MOL0     H35738  13.507   9.614  10.523 -2.7691  3.9714  1.1803
  265MOL0     H35739  13.781   9.333  10.748  0.1722  1.1735  0.1839
  265MOL0     H35740  13.664   9.230  10.689 -0.6209  1.8516  0.1140
  265MOL0     H35741  13.850   9.349  10.496  0.8240  2.9638  5.0260
  265MOL0     H35742  13.918   9.231  10.601  0.1629  0.7841  0.5087
  265MOL0     H35743  13.759   9.064  10.535  1.1830  1.8321  3.2663
  265MOL0     H35744  13.672   9.164  10.428  0.2937  1.1828 -1.5297
  265MOL0     H35745  13.972   9.122  10.388 -0.1579 -0.7306 -1.3777
  265MOL0     H35746  13.864   9.208  10.268 -2.6441  0.6854  0.4722
  265MOL0     H35747  13.928   8.967  10.218 -2.6795 -2.6938 -1.4983
  265MOL0     H35748  13.752   8.995  10.220  1.3971 -0.3020 -1.1961
  265MOL0     H35749  13.884   8.874  10.447  1.8785  1.5013 -2.4974
  265MOL0     H35750  13.711   8.895  10.406  0.3921  1.3262  0.3941
  265MOL0     H35751  13.810   8.773  10.182  2.6809  1.4630 -0.5297
  265MOL0     H35752  13.786   8.653  10.326  0.1406 -0.1437  0.3036
  265MOL0     H35753  13.989   8.610  10.215  1.1023 -0.8683  2.3896
  265MOL0     H35754  14.043   8.773  10.233 -1.0137  0.2015 -1.8743
  265MOL0     H35755  13.582   9.375  10.867  0.6839  0.7944  0.8628
  265MOL0     H35756  13.403   9.475  10.984  1.9420 -0.8911  1.3198
  265MOL0     H35757  12.921   9.509  11.100  0.0579 -0.8186  0.6638
  265MOL0     H35758  12.733   9.648  11.191 -0.0694  0.4355  0.0368
  265MOL0     H35759  11.485   9.390  11.226  1.4279  0.6750  2.5410
  265MOL0     H35760  11.259   9.485  11.140  0.7044 -0.4934 -0.5721
  265MOL0     H35761  10.769   9.430  11.312 -1.1972 -0.9240 -0.4656
  265MOL0     H35762  10.561   9.519  11.193  1.7259 -1.4436 -1.1924
  265MOL0     H35763  10.305   9.786  11.154 -0.5032  1.1781  1.2170
  265MOL0     H35764  10.368   9.653  11.247  0.9984 -0.1804 -0.5902
  265MOL0     H35765  10.284   9.547  11.071  0.2159  1.8472  1.3666
  265MOL0     H35766  10.452   9.550  11.014  0.4020  1.5021  0.1724
  265MOL0     H35767  10.407   9.717  10.856  0.1552  0.9863  0.6146
  265MOL0     H35768  10.242   9.763  10.929 -0.0267  0.4631  1.0271
  265MOL0     H35769  10.238   9.636  10.713  0.9709  0.7066 -0.2164
  265MOL0     H35770  10.286   9.488  10.805 -0.3798 -0.4827  2.4521
  265MOL0     H35771   9.906   9.551  10.962 -0.5213  0.9161 -1.5722
  265MOL0     H35772  10.698   9.904  11.186 -0.5775  0.1978 -0.0747
  265MOL0     H35773  11.010   9.885  11.168  0.2541  2.3567 -1.3304
  265MOL0     H35774  10.901   9.974  11.272 -0.3015 -0.9791  1.1070
  265MOL0     H35775  11.018   9.887  11.349 -2.2243  0.1109 -0.1685
  266MOL0     O35776   4.266   4.310   0.639  1.1867 -0.7196 -0.0770
  266MOL0     C35777   4.267   4.386   0.541  0.8859 -0.4351 -0.7337
  266MOL0     O35778   4.172   4.486   0.522  0.3069 -0.0068  0.8280
  266MOL0     C35779   4.077   4.497   0.627  0.3644  0.3929 -0.3363
  266MOL0     C35780   4.110   4.560   0.745  0.0126  0.4454 -0.5160
  266MOL0     C35781   4.025   4.576   0.855  0.4154 -0.0739  0.3473
  266MOL0     C35782   3.892   4.537   0.846 -0.6024  0.8628 -0.1243
  266MOL0     O35783   3.800   4.552   0.947  0.9664 -0.0759  0.2602
  266MOL0     C35784   3.829   4.524   1.085  0.9090  0.3979 -0.4249
  266MOL0     C35785   3.848   4.651   1.161 -0.6950  0.2487  0.2260
  266MOL0     C35786   3.851   4.632   1.324 -0.6222  0.0757 -0.1992
  266MOL0     C35787   3.743   4.548   1.396 -0.3605 -0.6550  0.6825
  266MOL0     C35788   3.614   4.624   1.362 -0.1854 -0.3925  0.3350
  266MOL0     C35789   3.602   4.760   1.441  0.7687  1.2193 -0.0124
  266MOL0     C35790   3.515   4.849   1.346  0.8839 -0.5659 -0.1011
  266MOL0     C35791   3.449   4.961   1.424  1.4461 -1.5358 -1.0455
  266MOL0     N35792   3.345   4.922   1.526  0.0443 -0.3370 -0.6056
  266MOL0     C35793   3.322   4.988   1.644  1.0102 -0.8488  0.3682
  266MOL0     C35794   3.229   4.913   1.716  0.1555 -0.1480 -0.6891
  266MOL0     C35795   3.154   4.956   1.843  0.7095 -0.0137 -0.2140
  266MOL0     C35796   3.200   4.881   1.969 -0.0522  1.0788  0.2999
  266MOL0     C35797   3.357   4.862   1.996  0.5515  0.0640  0.3842
  266MOL0     C35798   3.387   4.799   2.127  0.1573 -1.0137  0.3625
  266MOL0     O35799   3.359   4.657   2.113 -0.1504 -0.2886  0.6808
  266MOL0     C35800   3.405   4.587   2.216 -0.9190 -1.0850  0.5729
  266MOL0     C35801   3.501   4.485   2.190  0.1773  0.4660  0.3090
  266MOL0     C35802   3.551   4.404   2.293 -0.3031  0.2704  0.1328
  266MOL0     C35803   3.508   4.430   2.422  0.2644 -0.0118  0.2333
  266MOL0     C35804   3.537   4.333   2.535  0.2197  0.4460  1.5292
  266MOL0     O35805   3.429   4.322   2.629 -0.7416  0.9034 -0.1082
  266MOL0     C35806   3.426   4.211   2.716  0.2966 -0.6953  0.1624
  266MOL0     C35807   3.337   4.226   2.826  0.0217 -1.5090 -0.5735
  266MOL0     C35808   3.314   4.132   2.926  0.2221  0.0075 -0.1449
  266MOL0     C35809   3.365   3.999   2.901 -0.0439  0.7298 -1.9845
  266MOL0     O35810   3.329   3.882   2.976 -0.2948 -0.5570  0.2450
  266MOL0     C35811   3.252   3.892   3.098 -0.4433 -0.7634  0.0936
  266MOL0     C35812   3.249   3.757   3.177 -0.6252 -0.5057 -0.4162
  266MOL0     C35813   3.387   3.741   3.249  0.5343  0.8702 -0.0048
  266MOL0     C35814   3.364   3.634   3.360 -0.4132 -0.1772 -0.8997
  266MOL0     C35815   3.497   3.605   3.437  0.7030  0.0149  0.2870
  266MOL0     C35816   3.457   3.509   3.553 -1.0721 -0.5591  0.4988
  266MOL0     C35817   3.602   3.485   3.620  0.0013  0.4787 -0.2308
  266MOL0     C35818   3.606   3.381   3.730 -0.6504  0.1192 -0.2170
  266MOL0    Cl35819   3.555   3.238   3.679  0.3487  0.1798  0.0547
  266MOL0     C35820   3.448   3.979   2.788  0.5335  0.0252 -0.0743
  266MOL0     C35821   3.476   4.080   2.695  0.2257  0.1970  0.9632
  266MOL0     O35822   3.636   4.261   2.521  0.1093  0.2887 -0.3396
  266MOL0     C35823   3.414   4.535   2.452  0.6098 -0.1974 -0.3861
  266MOL0     C35824   3.362   4.606   2.344  1.0337 -0.6869  0.6715
  266MOL0     N35825   3.204   4.799   1.641 -0.5418  0.1146 -1.0964
  266MOL0     N35826   3.261   4.810   1.530 -0.1869 -0.5435  0.2025
  266MOL0     C35827   3.859   4.465   0.726 -0.7248  0.1306  0.0717
  266MOL0     C35828   3.942   4.450   0.611 -0.7855  0.9493 -0.3184
  266MOL0     C35829   4.373   4.379   0.441  0.8522 -0.5186  0.0542
  266MOL0     C35830   4.393   4.490   0.350  0.3367  0.2256 -0.3608
  266MOL0     C35831   4.492   4.496   0.250  1.1966  0.1624 -0.1878
  266MOL0     C35832   4.577   4.387   0.228  1.1353  0.5446  0.1490
  266MOL0     O35833   4.687   4.401   0.140  0.0000 -0.8507  0.5833
  266MOL0     C35834   4.793   4.309   0.145 -0.6432 -0.2527  0.1370
  266MOL0     C35835   4.911   4.345   0.252 -0.0585 -0.2210  0.7031
  266MOL0     C35836   4.935   4.503   0.240 -0.1537  0.8730  0.7097
  266MOL0     C35837   5.061   4.562   0.313 -0.2864  0.4522  0.2228
  266MOL0     C35838   5.185   4.522   0.246  0.2230 -0.4953 -0.5537
  266MOL0     C35839   5.286   4.516   0.183 -0.0120 -0.2166 -0.4001
  266MOL0     C35840   4.560   4.285   0.313 -0.1431 -0.5776  0.2080
  266MOL0     C35841   4.464   4.279   0.418 -0.6170 -0.1309  0.3704
  266MOL0     C35842   4.478   4.160   0.519  0.5298  0.3787  0.1069
  266MOL0     H35843   4.208   4.602   0.762  0.4347 -0.6310 -0.1503
  266MOL0     H35844   4.055   4.648   0.931 -1.0715  2.7998 -1.6067
  266MOL0     H35845   3.753   4.463   1.133  0.2494  2.2379  0.9744
  266MOL0     H35846   3.917   4.459   1.093 -0.7179 -1.6299  2.9799
  266MOL0     H35847   3.773   4.720   1.119  1.6187  2.1197 -1.1277
  266MOL0     H35848   3.944   4.689   1.126  1.2406 -3.6998  0.8199
  266MOL0     H35849   3.860   4.730   1.371 -1.3365  0.5322 -0.9875
  266MOL0     H35850   3.950   4.588   1.337  0.1497  1.3874 -1.3624
  266MOL0     H35851   3.735   4.444   1.363  1.3773 -0.5407 -0.2525
  266MOL0     H35852   3.764   4.557   1.503  0.8785  5.0667  0.2907
  266MOL0     H35853   3.607   4.632   1.254  1.8527  1.0798  0.2568
  266MOL0     H35854   3.523   4.567   1.382 -2.9845  3.4216 -0.4574
  266MOL0     H35855   3.551   4.745   1.537 -0.1343  3.3424 -0.1174
  266MOL0     H35856   3.699   4.809   1.450  0.6364  1.7528 -1.3537
  266MOL0     H35857   3.443   4.780   1.301  0.3829  0.6261 -1.1946
  266MOL0     H35858   3.584   4.880   1.266  0.0302 -0.9019 -0.9808
  266MOL0     H35859   3.530   5.021   1.468 -1.3362  2.0408 -0.3560
  266MOL0     H35860   3.401   5.033   1.359  1.0934 -0.2613  0.5479
  266MOL0     H35861   3.362   5.085   1.674  1.2343 -0.1742 -1.8906
  266MOL0     H35862   3.152   5.063   1.862 -0.8793 -0.4781  3.1321
  266MOL0     H35863   3.046   4.939   1.836  0.0210  2.9784  1.3988
  266MOL0     H35864   3.151   4.934   2.051 -0.5028  2.1249 -0.6097
  266MOL0     H35865   3.157   4.781   1.971  1.6209  0.2673 -1.1881
  266MOL0     H35866   3.390   4.966   1.992  0.3342  0.1051 -1.0765
  266MOL0     H35867   3.402   4.806   1.913  0.8655  2.4418 -1.1424
  266MOL0     H35868   3.315   4.844   2.196 -0.8431 -1.6765 -0.2292
  266MOL0     H35869   3.485   4.826   2.167 -1.3051  3.1612  1.6407
  266MOL0     H35870   3.527   4.457   2.088  0.7689  0.3586  0.4865
  266MOL0     H35871   3.619   4.326   2.260  1.0637  1.4767  0.0071
  266MOL0     H35872   3.283   4.320   2.829 -0.0305 -1.5616  1.7563
  266MOL0     H35873   3.233   4.154   2.995 -1.2047  1.5005 -2.2173
  266MOL0     H35874   3.301   3.965   3.163 -1.1202  1.9380 -2.2189
  266MOL0     H35875   3.149   3.916   3.071 -1.1547 -0.3546  2.8958
  266MOL0     H35876   3.171   3.766   3.252 -0.6820  0.5542 -0.5941
  266MOL0     H35877   3.227   3.670   3.114 -2.0228 -0.2968 -0.2454
  266MOL0     H35878   3.469   3.713   3.182 -0.3122 -0.0073 -0.7053
  266MOL0     H35879   3.419   3.837   3.292  1.1562  0.0959  1.3190
  266MOL0     H35880   3.330   3.545   3.306 -3.8984  0.9535 -0.8594
  266MOL0     H35881   3.285   3.656   3.432 -0.0516 -1.3334 -0.1272
  266MOL0     H35882   3.548   3.693   3.477  0.6159  1.3945 -2.3469
  266MOL0     H35883   3.568   3.561   3.366  0.0212  0.2001 -0.5318
  266MOL0     H35884   3.388   3.552   3.626  1.4039  2.0835  1.4705
  266MOL0     H35885   3.426   3.414   3.509  0.6248 -1.7343  1.7181
  266MOL0     H35886   3.646   3.580   3.651  2.2069 -0.4038 -0.4529
  266MOL0     H35887   3.677   3.443   3.552 -1.1653 -1.4555 -0.4063
  266MOL0     H35888   3.713   3.368   3.751 -0.1352  0.7824 -2.2069
  266MOL0     H35889   3.545   3.402   3.818 -1.7460 -1.8748 -0.4449
  266MOL0     H35890   3.483   3.877   2.789 -1.0965 -0.5708 -0.0057
  266MOL0     H35891   3.546   4.067   2.613 -0.2161  1.7968  0.3142
  266MOL0     H35892   3.375   4.560   2.550  4.4303 -2.9500  2.1406
  266MOL0     H35893   3.277   4.671   2.365 -0.4374 -1.5164 -2.1154
  266MOL0     H35894   3.766   4.409   0.727 -0.8528  0.3133 -1.0881
  266MOL0     H35895   3.912   4.393   0.524 -1.3853  1.1069 -0.2267
  266MOL0     H35896   4.318   4.569   0.349 -0.1835 -0.2705 -1.3181
  266MOL0     H35897   4.501   4.573   0.174 -0.0964 -1.9429 -2.6307
  266MOL0     H35898   4.830   4.323   0.043  2.9369  0.8186  1.4276
  266MOL0     H35899   4.752   4.208   0.157 -2.6427  0.4874 -0.0696
  266MOL0     H35900   5.006   4.295   0.232 -0.0565  0.3409 -0.8185
  266MOL0     H35901   4.876   4.323   0.353  3.8219 -3.3023  1.6114
  266MOL0     H35902   4.852   4.559   0.285 -0.9688  1.8797 -1.8827
  266MOL0     H35903   4.944   4.537   0.137  1.2340  1.9622  1.1538
  266MOL0     H35904   5.055   4.670   0.330  3.0671  1.0839 -1.5974
  266MOL0     H35905   5.060   4.514   0.411  0.2380 -0.5124 -0.2345
  266MOL0     H35906   5.375   4.516   0.125 -0.4834  0.0334 -1.1331
  266MOL0     H35907   4.624   4.198   0.308 -2.5839 -2.4947  0.4701
  266MOL0     H35908   4.381   4.109   0.527 -0.4142  2.2176  1.0088
  266MOL0     H35909   4.553   4.085   0.494 -1.5588 -1.2240 -1.7378
  266MOL0     H35910   4.495   4.202   0.618 -2.1307  5.2431 -1.1570
  267MOL0     O35911   3.312   8.203   3.205  0.4388 -0.4048  0.2903
  267MOL0     C35912   3.330   8.104   3.134 -0.3377  0.2259  0.3984
  267MOL0     O35913   3.230   8.038   3.066  0.0840 -0.2195 -0.1371
  267MOL0     C35914   3.100   8.082   3.087  0.2143  0.0417 -0.3463
  267MOL0     C35915   3.012   8.000   3.148 -0.0190 -0.3275  0.3178
  267MOL0     C35916   2.878   8.046   3.172 -1.0932  0.0519  0.4422
  267MOL0     C35917   2.836   8.175   3.136 -0.0143 -0.3164 -0.3336
  267MOL0     O35918   2.712   8.220   3.160  0.3919  0.8401  0.8671
  267MOL0     C35919   2.685   8.216   3.303  0.1449  0.8575  0.7874
  267MOL0     C35920   2.578   8.332   3.333  0.0026  0.6188  0.5605
  267MOL0     C35921   2.592   8.466   3.268 -0.4239  0.1218 -0.7230
  267MOL0     C35922   2.723   8.530   3.301 -0.4708  0.5492 -0.5652
  267MOL0     C35923   2.749   8.644   3.208  0.4803 -0.1841 -0.4474
  267MOL0     C35924   2.888   8.700   3.233 -0.4457 -0.1332 -1.3541
  267MOL0     C35925   2.876   8.800   3.348 -0.1172  0.2367  0.4713
  267MOL0     C35926   3.021   8.814   3.418  0.6299  0.5426  0.7687
  267MOL0     N35927   3.121   8.897   3.353 -0.5609 -0.3512  0.2413
  267MOL0     C35928   3.243   8.851   3.305  0.6896  0.8731 -0.5466
  267MOL0     C35929   3.293   8.958   3.230  1.0392  0.2181  0.2706
  267MOL0     C35930   3.385   8.958   3.114 -0.1958 -0.1970  0.3852
  267MOL0     C35931   3.531   8.932   3.165 -1.1799  0.5586 -1.3052
  267MOL0     C35932   3.602   9.069   3.175  0.0250  0.1246 -0.1871
  267MOL0     C35933   3.753   9.054   3.204 -0.6567  0.3607  0.6405
  267MOL0     O35934   3.826   8.974   3.106 -0.2002 -0.0903  0.1441
  267MOL0     C35935   3.858   9.036   2.978  0.8514 -0.5185 -1.6054
  267MOL0     C35936   3.835   9.173   2.942 -0.3225  0.7802  0.3483
  267MOL0     C35937   3.855   9.207   2.807 -0.7910  0.3243 -0.4226
  267MOL0     C35938   3.901   9.109   2.713  0.0021 -0.6523 -0.3632
  267MOL0     C35939   3.944   9.141   2.578  0.5765 -0.1827  0.1961
  267MOL0     O35940   4.030   9.058   2.517  0.1595 -0.5217  0.0136
  267MOL0     C35941   4.086   9.094   2.405  0.2763  0.4546  0.3077
  267MOL0     C35942   4.046   9.049   2.282 -0.8507 -0.0776 -0.5355
  267MOL0     C35943   4.119   9.081   2.168 -0.7045  0.0568 -0.5291
  267MOL0     C35944   4.252   9.150   2.173  1.2522  0.2880  0.0830
  267MOL0     O35945   4.324   9.169   2.058 -0.1209 -0.8452 -0.5312
  267MOL0     C35946   4.395   9.295   2.056 -0.3604  0.5770  0.5328
  267MOL0     C35947   4.356   9.356   1.929  0.6864 -0.1276  1.1847
  267MOL0     C35948   4.437   9.481   1.900 -0.4919 -0.0010  0.5036
  267MOL0     C35949   4.441   9.573   2.030  0.2149  0.0601  0.8637
  267MOL0     C35950   4.303   9.617   2.070  0.6746  0.1389 -0.3062
  267MOL0     C35951   4.323   9.724   2.188 -0.4687 -0.7093  0.1070
  267MOL0     C35952   4.335   9.657   2.327  0.2179  0.0415 -0.2228
  267MOL0     C35953   4.340   9.754   2.454 -0.0646  0.1961  0.3509
  267MOL0    Cl35954   4.491   9.844   2.462 -0.2895  0.3886 -0.0436
  267MOL0     C35955   4.291   9.186   2.305 -0.8667 -0.3262  0.9105
  267MOL0     C35956   4.206   9.158   2.411 -0.0048  0.2648 -0.6584
  267MOL0     O35957   3.891   9.241   2.521  0.0993 -0.0122  0.0161
  267MOL0     C35958   3.921   8.976   2.753 -0.6120 -0.6220 -0.3694
  267MOL0     C35959   3.905   8.944   2.893 -0.0679 -0.1675 -0.3344
  267MOL0     N35960   3.210   9.064   3.249  0.0857  0.3451  0.3839
  267MOL0     N35961   3.107   9.031   3.318 -0.8423 -0.8032 -0.1834
  267MOL0     C35962   2.929   8.247   3.062  0.2914 -0.1233  0.9111
  267MOL0     C35963   3.056   8.208   3.039 -0.1958 -0.1224  0.0867
  267MOL0     C35964   3.469   8.060   3.102 -0.1446  0.2047 -0.2067
  267MOL0     C35965   3.565   8.159   3.119 -0.3815  0.3934  0.7184
  267MOL0     C35966   3.706   8.131   3.103 -0.1707 -0.4228  0.6896
  267MOL0     C35967   3.749   8.004   3.082 -0.0871 -0.1655  0.0280
  267MOL0     O35968   3.889   7.984   3.080  1.3387  0.7922  0.1694
  267MOL0     C35969   3.942   7.849   3.069  0.5637 -0.6029 -0.5373
  267MOL0     C35970   4.074   7.838   3.144  0.1546  0.7075 -0.3497
  267MOL0     C35971   4.108   7.685   3.177 -0.0365 -0.0441  0.0698
  267MOL0     C35972   4.123   7.585   3.050 -0.5668 -0.2560 -0.0662
  267MOL0     C35973   4.152   7.446   3.074  0.0676 -0.3123 -0.6524
  267MOL0     C35974   4.148   7.327   3.078  0.0676 -0.8596 -0.5752
  267MOL0     C35975   3.650   7.907   3.061  0.0780  0.3319 -0.9267
  267MOL0     C35976   3.514   7.930   3.069 -0.4705 -0.2357 -0.1318
  267MOL0     C35977   3.415   7.809   3.064 -0.9701 -0.0117  0.0069
  267MOL0     H35978   3.050   7.905   3.181 -3.6671 -0.7785  4.0043
  267MOL0     H35979   2.801   7.979   3.210 -1.2287  0.1713  0.3760
  267MOL0     H35980   2.634   8.124   3.334  1.0026  0.5948  1.4792
  267MOL0     H35981   2.778   8.214   3.362 -0.0600 -1.3421  1.1312
  267MOL0     H35982   2.581   8.343   3.442  2.6467 -3.6303  1.1410
  267MOL0     H35983   2.479   8.290   3.311  0.6627 -0.3781 -0.6416
  267MOL0     H35984   2.520   8.543   3.299  1.0156  0.8523  0.9705
  267MOL0     H35985   2.590   8.462   3.159  0.7162  1.2585 -0.8046
  267MOL0     H35986   2.726   8.563   3.405  3.2371  2.9616 -1.2270
  267MOL0     H35987   2.805   8.460   3.286 -2.6064 -2.0025 -1.2458
  267MOL0     H35988   2.762   8.622   3.101  2.1646  0.7380 -0.4650
  267MOL0     H35989   2.666   8.716   3.215  2.9707  2.7811  0.7306
  267MOL0     H35990   2.959   8.623   3.263 -0.3693  0.9220  1.5246
  267MOL0     H35991   2.928   8.751   3.145  1.3011  0.3965 -0.3157
  267MOL0     H35992   2.818   8.741   3.420  0.7793 -1.2668 -0.0075
  267MOL0     H35993   2.822   8.893   3.330 -1.3934 -0.5853 -0.1136
  267MOL0     H35994   3.025   8.862   3.516  2.3564 -1.5408  1.8000
  267MOL0     H35995   3.067   8.715   3.420  1.9633  1.1396  0.5344
  267MOL0     H35996   3.268   8.747   3.327 -1.7567  0.8240  3.0294
  267MOL0     H35997   3.355   8.876   3.048 -1.0841  1.1155 -0.8942
  267MOL0     H35998   3.367   9.051   3.061 -1.7346 -0.7049 -0.0371
  267MOL0     H35999   3.531   8.890   3.266 -1.6871  2.7577 -0.3389
  267MOL0     H36000   3.577   8.865   3.092  1.9392  2.3555 -1.1756
  267MOL0     H36001   3.559   9.131   3.254  1.5440 -0.2777  1.0169
  267MOL0     H36002   3.589   9.111   3.075 -1.1252  2.0879  0.7342
  267MOL0     H36003   3.762   9.001   3.299  0.9971 -2.6140 -1.0452
  267MOL0     H36004   3.803   9.151   3.216  3.0286 -1.4681  1.4990
  267MOL0     H36005   3.797   9.240   3.017  0.3510  0.6945  0.7795
  267MOL0     H36006   3.844   9.310   2.775 -1.4457  0.4190  0.0992
  267MOL0     H36007   3.961   8.983   2.266 -0.5560 -1.7422  3.5303
  267MOL0     H36008   4.079   9.053   2.071  0.2369 -1.0286 -0.6174
  267MOL0     H36009   4.361   9.347   2.146 -1.8738 -0.0897  0.3899
  267MOL0     H36010   4.503   9.278   2.051 -0.5800 -1.6390  1.7582
  267MOL0     H36011   4.394   9.293   1.848  0.1666 -1.8741  2.2607
  267MOL0     H36012   4.250   9.383   1.920  1.4224  2.3162 -2.2852
  267MOL0     H36013   4.542   9.459   1.882 -0.4030  1.0366 -0.2675
  267MOL0     H36014   4.399   9.529   1.810  2.4146  1.1233 -0.2069
  267MOL0     H36015   4.496   9.665   2.008 -0.5825  0.9068  2.2761
  267MOL0     H36016   4.478   9.521   2.118 -0.0302 -2.1988 -0.2766
  267MOL0     H36017   4.245   9.530   2.100  1.2242  0.2694  1.1941
  267MOL0     H36018   4.251   9.663   1.985 -0.0634 -1.4028 -0.7195
  267MOL0     H36019   4.407   9.793   2.176 -2.1891  1.3205 -1.2342
  267MOL0     H36020   4.235   9.790   2.187  0.3599  0.5828  2.5827
  267MOL0     H36021   4.422   9.591   2.331 -0.3000 -0.6262  0.3404
  267MOL0     H36022   4.244   9.598   2.341  1.0689 -0.9003  1.6882
  267MOL0     H36023   4.250   9.817   2.452  0.3409  0.7833  0.4546
  267MOL0     H36024   4.320   9.697   2.545 -0.8998  0.5607  0.4080
  267MOL0     H36025   4.393   9.212   2.331  0.0134  0.3199 -2.6467
  267MOL0     H36026   4.245   9.189   2.507  3.5150  1.8324 -2.3989
  267MOL0     H36027   3.961   8.904   2.683  0.1318  0.2207 -0.8245
  267MOL0     H36028   3.911   8.839   2.920 -0.4371  0.0435  0.5822
  267MOL0     H36029   2.891   8.343   3.027  1.2391 -0.2678 -0.6503
  267MOL0     H36030   3.123   8.268   2.978  0.5288  1.0490  1.9520
  267MOL0     H36031   3.538   8.262   3.138  0.1640  1.2019 -2.3911
  267MOL0     H36032   3.782   8.201   3.136  1.1569  0.3369 -3.4758
  267MOL0     H36033   3.951   7.832   2.961  1.4808 -3.1154 -0.1298
  267MOL0     H36034   3.872   7.772   3.102  0.7245 -2.4383 -3.9870
  267MOL0     H36035   4.057   7.882   3.243 -2.2314 -1.8330  0.4714
  267MOL0     H36036   4.163   7.882   3.098  1.5508  0.6352  2.0531
  267MOL0     H36037   4.039   7.648   3.253 -1.7965 -1.7441 -2.2063
  267MOL0     H36038   4.203   7.666   3.228 -0.2360 -3.2490 -0.5570
  267MOL0     H36039   4.043   7.598   2.977  0.0741 -0.3356 -0.7921
  267MOL0     H36040   4.208   7.624   2.994  0.3044  1.5557  2.3150
  267MOL0     H36041   4.151   7.220   3.072  2.6687 -0.7897 -1.8677
  267MOL0     H36042   3.671   7.804   3.033 -1.4410  0.2043 -1.7080
  267MOL0     H36043   3.473   7.717   3.055 -2.5087 -1.3433  2.5710
  267MOL0     H36044   3.348   7.802   3.150 -2.3760 -0.7444 -1.0892
  267MOL0     H36045   3.354   7.820   2.974  1.5737  1.6546 -1.6399
  268MOL0     O36046   1.847   4.974   8.641  0.0198  0.1475  0.1321
  268MOL0     C36047   1.944   4.951   8.707 -0.8073  0.9322  1.2958
  268MOL0     O36048   2.062   4.996   8.677  0.6063 -0.4839  0.7575
  268MOL0     C36049   2.083   5.054   8.558 -0.4438 -1.4413 -0.5747
  268MOL0     C36050   2.060   5.191   8.550  1.0591  0.0715 -0.6288
  268MOL0     C36051   2.105   5.261   8.446 -0.1433 -1.3548 -0.3246
  268MOL0     C36052   2.152   5.194   8.338  0.4252  0.3365 -0.4046
  268MOL0     O36053   2.206   5.271   8.235  0.1810 -0.0518 -0.2046
  268MOL0     C36054   2.122   5.271   8.114 -0.1301 -0.5114  0.5370
  268MOL0     C36055   2.112   5.411   8.050 -0.5724  0.1212 -0.3018
  268MOL0     C36056   2.022   5.510   8.119 -0.1018  0.2655 -0.0402
  268MOL0     C36057   1.874   5.461   8.099 -0.4688  0.2785 -0.4635
  268MOL0     C36058   1.784   5.580   8.127  0.9143  0.9996  0.9725
  268MOL0     C36059   1.781   5.685   8.013 -0.1750  0.2222  0.0262
  268MOL0     C36060   1.761   5.633   7.870 -0.2271 -0.5118  0.7263
  268MOL0     C36061   1.748   5.755   7.770  0.4574 -0.2845  0.2479
  268MOL0     N36062   1.690   5.731   7.636  0.1483  0.4522  0.0064
  268MOL0     C36063   1.555   5.745   7.605  0.2182 -0.1997  0.2723
  268MOL0     C36064   1.524   5.672   7.494 -1.1155  0.7345 -0.1354
  268MOL0     C36065   1.402   5.678   7.415 -0.2750 -0.1037 -0.5998
  268MOL0     C36066   1.352   5.559   7.332 -0.8690 -0.7197  0.6914
  268MOL0     C36067   1.393   5.425   7.388 -0.3119 -0.3619 -0.1740
  268MOL0     C36068   1.319   5.307   7.334  0.3171  0.3307  0.0838
  268MOL0     O36069   1.316   5.308   7.193  0.3571 -0.3485 -0.0062
  268MOL0     C36070   1.212   5.245   7.130 -0.2735  0.5226  1.0988
  268MOL0     C36071   1.128   5.151   7.202  0.6829  0.2061 -0.0605
  268MOL0     C36072   1.022   5.100   7.133  0.8710  1.2887 -0.7460
  268MOL0     C36073   0.997   5.124   6.996  1.2932  0.1995  0.2489
  268MOL0     C36074   0.886   5.048   6.934  0.2786  0.7690 -0.5191
  268MOL0     O36075   0.832   4.938   7.005 -0.3551  0.6826  0.0939
  268MOL0     C36076   0.768   4.837   6.936 -0.5278  0.1770  0.2918
  268MOL0     C36077   0.853   4.753   6.855  0.2865 -0.1466  1.3697
  268MOL0     C36078   0.806   4.644   6.784  0.8162  0.5011  0.4443
  268MOL0     C36079   0.678   4.597   6.794  0.0322 -0.4942  0.0745
  268MOL0     O36080   0.635   4.487   6.733 -0.2613 -1.3309 -0.0411
  268MOL0     C36081   0.641   4.485   6.589 -0.3380  0.9077  0.3679
  268MOL0     C36082   0.542   4.368   6.548  0.2485 -1.0475 -0.3949
  268MOL0     C36083   0.565   4.328   6.401  0.1397 -0.3883 -0.1540
  268MOL0     C36084   0.589   4.176   6.402  0.5623 -0.5830  0.2452
  268MOL0     C36085   0.593   4.108   6.265 -0.2971  0.5201 -0.4080
  268MOL0     C36086   0.468   4.106   6.189  0.4984  0.0535 -0.1997
  268MOL0     C36087   0.475   4.058   6.037 -0.7771  0.5327 -0.3039
  268MOL0     C36088   0.347   4.027   5.974  0.3308  0.4251  0.5839
  268MOL0    Cl36089   0.241   4.167   6.013 -0.3418 -0.4741  0.0684
  268MOL0     C36090   0.591   4.675   6.876 -0.3958 -0.2197 -0.3605
  268MOL0     C36091   0.640   4.792   6.955 -0.0475 -0.5664 -0.8205
  268MOL0     O36092   0.847   5.085   6.826  0.5381 -0.0328  0.6987
  268MOL0     C36093   1.086   5.205   6.920  1.2267 -0.5118 -0.4039
  268MOL0     C36094   1.186   5.271   6.993  0.3692 -1.2395  0.2141
  268MOL0     N36095   1.656   5.629   7.458  0.2138 -0.8385 -0.1085
  268MOL0     N36096   1.756   5.662   7.536  0.1870  0.5137 -0.4967
  268MOL0     C36097   2.183   5.055   8.343  0.2656  0.0093  0.8195
  268MOL0     C36098   2.147   4.988   8.454 -0.3951  0.4485 -0.4059
  268MOL0     C36099   1.936   4.885   8.842 -0.1598  0.4796  0.4706
  268MOL0     C36100   2.048   4.808   8.891 -0.3156 -0.4901 -0.4378
  268MOL0     C36101   2.047   4.745   9.013  0.6890  0.7889  0.6197
  268MOL0     C36102   1.925   4.744   9.092  0.1238  0.0684  0.2772
  268MOL0     O36103   1.922   4.665   9.206  0.1291 -0.6219 -0.0474
  268MOL0     C36104   1.799   4.598   9.242 -0.4392  0.0264  0.3025
  268MOL0     C36105   1.755   4.496   9.141 -0.2718 -0.5369 -0.3058
  268MOL0     C36106   1.865   4.391   9.114 -0.2798 -0.1856 -0.3541
  268MOL0     C36107   1.804   4.281   9.027  0.2430 -0.0768  0.8665
  268MOL0     C36108   1.916   4.209   8.956  0.2774 -0.1866  0.9243
  268MOL0     C36109   1.995   4.137   8.893 -0.0087  0.2853 -0.1365
  268MOL0     C36110   1.815   4.818   9.038 -0.3152 -0.4108  0.5095
  268MOL0     C36111   1.813   4.888   8.915 -1.1294 -0.7183 -0.5063
  268MOL0     C36112   1.687   4.961   8.878  0.2830  0.5707  0.2493
  268MOL0     H36113   1.992   5.242   8.617  1.7603 -1.7933  1.6644
  268MOL0     H36114   2.092   5.368   8.457  0.0675 -1.5607  2.9535
  268MOL0     H36115   2.174   5.201   8.048  0.6511 -0.8198  1.4626
  268MOL0     H36116   2.021   5.236   8.137 -1.5310  1.3546 -2.2019
  268MOL0     H36117   2.068   5.398   7.951  1.2821 -0.6104 -1.0758
  268MOL0     H36118   2.213   5.452   8.048  0.8475 -3.0828 -0.4605
  268MOL0     H36119   2.037   5.611   8.080 -1.8831  1.4243  2.1027
  268MOL0     H36120   2.052   5.512   8.224 -1.5853 -1.0912  0.4533
  268MOL0     H36121   1.860   5.411   8.003 -0.0968 -1.7053  0.4687
  268MOL0     H36122   1.848   5.375   8.162 -2.7383 -0.2607 -2.0125
  268MOL0     H36123   1.684   5.535   8.137  0.6112  1.6401  0.8392
  268MOL0     H36124   1.790   5.642   8.217  0.2703  2.2972  0.1443
  268MOL0     H36125   1.705   5.759   8.039 -0.8730  0.4193 -2.3648
  268MOL0     H36126   1.877   5.735   8.028  1.6004 -2.9703  0.3551
  268MOL0     H36127   1.679   5.562   7.867  1.7512 -2.9334  0.8559
  268MOL0     H36128   1.852   5.574   7.854 -1.1467 -1.4350 -1.3427
  268MOL0     H36129   1.699   5.838   7.822  3.1511  1.1684  0.6714
  268MOL0     H36130   1.850   5.790   7.753  0.9567 -2.0124 -0.4579
  268MOL0     H36131   1.482   5.788   7.672  0.1631 -3.7267  2.7369
  268MOL0     H36132   1.321   5.709   7.483  0.2447 -2.8782  1.4530
  268MOL0     H36133   1.421   5.761   7.346 -1.4889 -2.6060 -4.1936
  268MOL0     H36134   1.244   5.557   7.315 -0.4723  0.2786 -2.7041
  268MOL0     H36135   1.400   5.574   7.235  2.7948  4.8240  2.8567
  268MOL0     H36136   1.380   5.421   7.496 -0.1117  0.4129 -0.1215
  268MOL0     H36137   1.501   5.416   7.376  0.5735  1.6146  4.3233
  268MOL0     H36138   1.217   5.324   7.371  1.4370 -0.2248  3.8830
  268MOL0     H36139   1.354   5.213   7.376 -1.0548 -0.1933  0.1153
  268MOL0     H36140   1.164   5.109   7.296 -1.1848 -1.6971 -0.1192
  268MOL0     H36141   0.976   5.024   7.196  0.2968  1.3085 -1.1338
  268MOL0     H36142   0.958   4.778   6.851  0.1823  0.5729  2.7155
  268MOL0     H36143   0.873   4.594   6.715 -2.5823  1.6508 -4.2339
  268MOL0     H36144   0.618   4.573   6.529  1.7306 -0.6803 -3.1530
  268MOL0     H36145   0.745   4.459   6.565 -0.6127  0.0904  0.0217
  268MOL0     H36146   0.560   4.290   6.622  1.7785 -0.1423  0.2372
  268MOL0     H36147   0.439   4.404   6.564  1.1757  0.6435  2.4835
  268MOL0     H36148   0.469   4.352   6.354  0.5885 -0.2415 -1.0044
  268MOL0     H36149   0.653   4.381   6.364  0.6870 -1.1291  0.0596
  268MOL0     H36150   0.516   4.125   6.465 -0.4065 -1.6689 -1.6519
  268MOL0     H36151   0.685   4.162   6.452  0.0411 -1.6084  1.0031
  268MOL0     H36152   0.614   4.002   6.284 -1.8718  0.1974 -0.2679
  268MOL0     H36153   0.668   4.147   6.197  0.2862 -1.8816 -1.2446
  268MOL0     H36154   0.393   4.048   6.243 -0.3447  2.9957  2.0756
  268MOL0     H36155   0.423   4.206   6.196  0.9182  0.1849  0.9763
  268MOL0     H36156   0.543   3.972   6.039 -0.2482  0.9420 -0.3105
  268MOL0     H36157   0.526   4.135   5.979 -1.0840 -0.1203 -1.4785
  268MOL0     H36158   0.367   4.023   5.867 -0.2883  4.3021  0.1779
  268MOL0     H36159   0.317   3.934   6.024  2.1624 -1.1536 -1.0560
  268MOL0     H36160   0.488   4.644   6.880 -1.1541  1.8153 -2.2516
  268MOL0     H36161   0.561   4.847   7.005  0.2391 -0.7787 -0.1177
  268MOL0     H36162   1.078   5.219   6.812 -0.5782 -4.4860 -0.9644
  268MOL0     H36163   1.250   5.347   6.950 -0.8712 -0.5145 -0.4071
  268MOL0     H36164   2.217   5.016   8.248 -1.9817  1.3212 -0.6287
  268MOL0     H36165   2.169   4.882   8.467  3.6855  1.0830 -0.8282
  268MOL0     H36166   2.138   4.790   8.833 -1.3278 -0.3473 -2.1340
  268MOL0     H36167   2.127   4.681   9.050  0.1714 -2.0802 -2.7006
  268MOL0     H36168   1.722   4.669   9.271  2.2774  2.6595  1.5790
  268MOL0     H36169   1.839   4.545   9.329  2.4201  3.6954  1.4589
  268MOL0     H36170   1.724   4.547   9.049  0.6014 -0.6614 -0.6856
  268MOL0     H36171   1.668   4.442   9.179  1.3525 -3.8434 -0.8211
  268MOL0     H36172   1.912   4.355   9.206 -0.5013  0.3271 -0.0308
  268MOL0     H36173   1.934   4.449   9.054 -1.0612  2.5407  1.2178
  268MOL0     H36174   1.747   4.218   9.096  2.8263 -0.3802  2.8849
  268MOL0     H36175   1.741   4.311   8.943  0.7658 -0.6157  0.2595
  268MOL0     H36176   2.064   4.077   8.837 -0.0690  0.5754 -0.5226
  268MOL0     H36177   1.733   4.827   9.108 -1.9030 -3.0560 -0.8454
  268MOL0     H36178   1.718   5.064   8.860  0.4900  0.2118 -1.7067
  268MOL0     H36179   1.623   4.916   8.801 -1.3836  2.8951  0.1763
  268MOL0     H36180   1.622   4.947   8.964 -1.3608 -0.2913 -1.0636
  269MOL0     O36181   2.707  10.295   4.685 -0.4626  0.8712 -0.1616
  269MOL0     C36182   2.788  10.369   4.747  0.3751 -0.0086  0.6847
  269MOL0     O36183   2.855  10.341   4.865  0.6517  0.5204 -0.8746
  269MOL0     C36184   2.879  10.213   4.901 -0.3942 -0.9345 -0.9176
  269MOL0     C36185   2.881  10.185   5.040  0.7655 -0.5792 -0.2614
  269MOL0     C36186   2.916  10.058   5.093 -0.0307 -0.2990  0.5231
  269MOL0     C36187   2.941   9.954   5.008 -0.8308 -0.1718 -0.7460
  269MOL0     O36188   2.971   9.824   5.061  0.8685  0.1234 -0.7019
  269MOL0     C36189   2.893   9.776   5.168 -0.4240  0.1920 -0.0748
  269MOL0     C36190   2.947   9.642   5.204 -0.1513  0.0318 -0.6589
  269MOL0     C36191   2.868   9.572   5.321  0.0658  0.2374  0.6759
  269MOL0     C36192   2.929   9.439   5.371  0.8023 -0.0654  1.6831
  269MOL0     C36193   2.829   9.361   5.455  0.4844  1.7627  0.1939
  269MOL0     C36194   2.896   9.236   5.497  1.1370  0.3411  0.0655
  269MOL0     C36195   2.789   9.141   5.564  0.9018 -0.0984  1.1794
  269MOL0     C36196   2.740   9.049   5.451  0.2728 -0.0814 -0.8115
  269MOL0     N36197   2.600   8.990   5.488 -1.1626 -0.3193 -0.1327
  269MOL0     C36198   2.476   9.052   5.472  0.8635  0.0059  0.8703
  269MOL0     C36199   2.389   8.976   5.543  0.2813 -0.0379  0.1908
  269MOL0     C36200   2.246   8.993   5.538 -0.5560  0.4256 -0.1648
  269MOL0     C36201   2.192   8.996   5.394 -0.6944  0.9564 -0.2521
  269MOL0     C36202   2.203   8.853   5.322 -0.8843 -0.1601  0.0880
  269MOL0     C36203   2.140   8.857   5.183  0.1893 -0.5463 -0.5609
  269MOL0     O36204   2.088   8.725   5.143 -0.6931 -0.3186  0.8239
  269MOL0     C36205   2.184   8.634   5.098 -0.8023  0.0119 -0.4562
  269MOL0     C36206   2.316   8.656   5.045 -0.3600 -1.3459  0.4924
  269MOL0     C36207   2.388   8.556   4.998 -0.4734  0.3165  0.1019
  269MOL0     C36208   2.339   8.423   4.995 -0.2020  0.2728 -0.4608
  269MOL0     C36209   2.421   8.313   4.957  0.9185  0.2161 -0.8062
  269MOL0     O36210   2.544   8.342   4.916 -0.1113 -0.1449  0.5871
  269MOL0     C36211   2.604   8.276   4.802  0.6961 -0.0623 -0.7496
  269MOL0     C36212   2.572   8.148   4.744  0.5029 -0.6094 -0.1330
  269MOL0     C36213   2.649   8.105   4.641  0.6225 -0.1334 -1.0148
  269MOL0     C36214   2.762   8.173   4.598 -0.2393 -1.4805  0.4652
  269MOL0     O36215   2.826   8.130   4.483 -0.1568  0.5904  0.1968
  269MOL0     C36216   2.825   7.986   4.458 -0.1640 -0.2231  0.0757
  269MOL0     C36217   2.967   7.948   4.416  0.1561  0.6273  0.3095
  269MOL0     C36218   3.080   7.979   4.507  0.2764 -0.4164 -0.6091
  269MOL0     C36219   3.209   7.929   4.468  0.0430  0.0969  0.6573
  269MOL0     C36220   3.333   7.984   4.560 -0.0105  0.4128  0.0085
  269MOL0     C36221   3.464   7.943   4.504 -0.8489 -0.1323 -0.2111
  269MOL0     C36222   3.572   7.963   4.616 -0.8318  0.2925 -0.4481
  269MOL0     C36223   3.709   7.950   4.563 -1.0702 -0.3631  0.3536
  269MOL0    Cl36224   3.768   8.102   4.496 -0.2239  0.2472 -0.4235
  269MOL0     C36225   2.795   8.296   4.655 -0.7930  0.0748  0.6698
  269MOL0     C36226   2.712   8.350   4.754 -0.2562 -0.8550 -0.1113
  269MOL0     O36227   2.379   8.191   4.963  0.0333 -0.9295  0.4228
  269MOL0     C36228   2.211   8.400   5.057  0.6816 -0.7045 -0.6656
  269MOL0     C36229   2.131   8.509   5.097  0.3445  0.2264  0.1179
  269MOL0     N36230   2.462   8.878   5.607  0.8393 -0.1332  0.0826
  269MOL0     N36231   2.581   8.874   5.559 -0.4039  0.7593  0.7855
  269MOL0     C36232   2.955   9.980   4.870 -0.0636 -0.3261  0.1373
  269MOL0     C36233   2.921  10.110   4.818 -0.2638 -0.4325  0.6643
  269MOL0     C36234   2.797  10.509   4.704  0.8522 -0.8388 -0.7267
  269MOL0     C36235   2.790  10.621   4.804 -0.3062 -0.2139  0.0795
  269MOL0     C36236   2.820  10.755   4.769  0.5219  0.2333  0.6629
  269MOL0     C36237   2.854  10.778   4.643 -0.3827  0.0564 -0.3285
  269MOL0     O36238   2.865  10.905   4.591  0.1932  0.3697  0.5681
  269MOL0     C36239   2.991  10.947   4.549 -0.5480 -0.5527 -0.3111
  269MOL0     C36240   2.998  11.097   4.554  1.2868  0.2521  0.0726
  269MOL0     C36241   2.887  11.178   4.471 -0.7785 -0.2185 -1.2258
  269MOL0     C36242   2.869  11.139   4.323 -0.8682 -0.6718 -1.0395
  269MOL0     C36243   2.778  11.246   4.257  0.2473  0.0315 -0.7127
  269MOL0     C36244   2.727  11.341   4.207 -0.3340 -0.4412 -0.4703
  269MOL0     C36245   2.850  10.676   4.546 -0.2606  0.3470 -0.0163
  269MOL0     C36246   2.834  10.542   4.571  0.1647  1.1488  0.6214
  269MOL0     C36247   2.847  10.434   4.457  0.3198 -0.1088 -0.6054
  269MOL0     H36248   2.860  10.268   5.107 -0.0007  1.6192 -3.0264
  269MOL0     H36249   2.913  10.046   5.201  0.0276 -5.8682  0.1990
  269MOL0     H36250   2.906   9.835   5.259  3.5437 -0.5150 -0.0104
  269MOL0     H36251   2.786   9.768   5.146 -0.4886  0.2235  0.2170
  269MOL0     H36252   3.053   9.662   5.224  0.7063 -3.0610 -1.6258
  269MOL0     H36253   2.942   9.580   5.115 -2.1525 -0.5756 -0.1694
  269MOL0     H36254   2.771   9.564   5.272  0.6324  0.7619 -0.5784
  269MOL0     H36255   2.851   9.637   5.407  2.8028  1.5082  0.3608
  269MOL0     H36256   2.963   9.384   5.283  0.9556  1.3527  0.8134
  269MOL0     H36257   3.020   9.471   5.424 -0.5118  3.7063  1.9861
  269MOL0     H36258   2.798   9.413   5.545  0.6641  0.4444  1.0515
  269MOL0     H36259   2.739   9.338   5.397  1.2373  1.9640 -1.1051
  269MOL0     H36260   2.961   9.192   5.421  3.3021  2.0297  0.8467
  269MOL0     H36261   2.968   9.260   5.575  2.1029 -0.9111 -0.4095
  269MOL0     H36262   2.704   9.179   5.621 -0.2528 -2.0258  0.8317
  269MOL0     H36263   2.827   9.084   5.649 -3.2143 -1.0165  2.6642
  269MOL0     H36264   2.734   9.100   5.354 -1.6712 -0.6897 -1.0530
  269MOL0     H36265   2.810   8.966   5.442  1.8111  0.8301  1.6039
  269MOL0     H36266   2.441   9.135   5.412 -1.7210 -0.2687  1.8595
  269MOL0     H36267   2.204   8.912   5.597 -2.2491  1.9777  0.8426
  269MOL0     H36268   2.216   9.089   5.580 -2.4428  1.5347 -3.6795
  269MOL0     H36269   2.088   9.027   5.393 -0.0841  3.1286 -0.2684
  269MOL0     H36270   2.245   9.072   5.337  1.0826 -0.3219 -0.4038
  269MOL0     H36271   2.138   8.792   5.386  2.0898 -2.3094  1.3082
  269MOL0     H36272   2.305   8.815   5.316 -1.9305 -3.2334  0.0537
  269MOL0     H36273   2.217   8.894   5.115 -1.6467 -1.2548 -3.1999
  269MOL0     H36274   2.048   8.916   5.187 -1.4886 -2.9565 -0.7339
  269MOL0     H36275   2.348   8.759   5.037  0.8627 -1.7851 -0.7992
  269MOL0     H36276   2.492   8.576   4.975 -0.4920 -1.3252 -1.6004
  269MOL0     H36277   2.481   8.100   4.777 -0.4304  1.7322  0.9767
  269MOL0     H36278   2.623   8.006   4.605 -1.2179 -1.4251  3.2376
  269MOL0     H36279   2.800   7.920   4.542 -1.6017 -2.4998 -2.0045
  269MOL0     H36280   2.761   7.956   4.375  1.9717 -2.2504 -0.9477
  269MOL0     H36281   2.960   7.845   4.379 -1.4838  0.5098  0.8513
  269MOL0     H36282   2.981   8.009   4.327  3.2533  1.0215  0.9509
  269MOL0     H36283   3.081   8.088   4.508 -0.0626 -0.3816  2.1480
  269MOL0     H36284   3.058   7.941   4.607  2.4225  1.3196  0.5966
  269MOL0     H36285   3.226   7.971   4.368 -2.5639  1.7932  0.8255
  269MOL0     H36286   3.209   7.821   4.452 -0.6530  0.2259 -0.3371
  269MOL0     H36287   3.327   7.932   4.656 -1.1460  0.9470  0.2445
  269MOL0     H36288   3.328   8.093   4.570  1.5849  0.7154 -1.8734
  269MOL0     H36289   3.465   7.833   4.502 -1.5506 -0.1712  0.8237
  269MOL0     H36290   3.498   7.979   4.406  0.5187 -1.0878 -0.1220
  269MOL0     H36291   3.562   7.880   4.687 -1.1925 -0.8025 -1.7412
  269MOL0     H36292   3.559   8.062   4.661 -0.3915  0.1853 -0.0695
  269MOL0     H36293   3.778   7.934   4.647  0.1493 -0.9400 -0.7210
  269MOL0     H36294   3.711   7.870   4.488 -3.4108  2.0951 -2.6232
  269MOL0     H36295   2.883   8.350   4.622 -0.8092  1.1777  2.3049
  269MOL0     H36296   2.723   8.455   4.779 -5.2691 -0.2627  0.5620
  269MOL0     H36297   2.174   8.302   5.085 -0.3486 -0.1491 -0.0195
  269MOL0     H36298   2.032   8.500   5.141 -0.3390  1.1670 -1.1618
  269MOL0     H36299   2.981   9.888   4.818 -2.1674 -2.4364  2.5426
  269MOL0     H36300   2.938  10.142   4.716  1.9308  3.2958  2.0083
  269MOL0     H36301   2.770  10.597   4.908  0.7043  0.1827  0.3751
  269MOL0     H36302   2.834  10.834   4.842  3.1513 -2.2022  3.0733
  269MOL0     H36303   3.012  10.921   4.445 -1.0502  0.1399 -0.6017
  269MOL0     H36304   3.074  10.909   4.608 -0.9128  0.7526  1.1335
  269MOL0     H36305   3.096  11.140   4.531  0.0544  4.3474  1.5566
  269MOL0     H36306   2.981  11.120   4.660  0.0040 -1.3374  0.2425
  269MOL0     H36307   2.922  11.282   4.475 -0.0079 -0.4495  3.5213
  269MOL0     H36308   2.792  11.167   4.524 -0.0002 -0.7884  0.0823
  269MOL0     H36309   2.957  11.134   4.259 -1.2753 -1.2919 -1.5650
  269MOL0     H36310   2.828  11.038   4.318  1.9573 -1.9096 -0.6492
  269MOL0     H36311   2.684  11.431   4.166  0.0414  0.2467  0.6042
  269MOL0     H36312   2.876  10.703   4.444 -2.5779  3.6063  0.1083
  269MOL0     H36313   2.882  10.477   4.363  1.2177  1.6685  0.4801
  269MOL0     H36314   2.928  10.371   4.495  0.7320  1.1924  0.7665
  269MOL0     H36315   2.760  10.369   4.446  1.0579 -1.6284  1.7287
  270MOL0     O36316   7.833  10.028   2.059  0.1335  0.7429  0.3586
  270MOL0     C36317   7.744   9.957   2.091  0.6581  0.3792 -0.8137
  270MOL0     O36318   7.757   9.819   2.112 -0.9308  0.0267  0.5884
  270MOL0     C36319   7.881   9.761   2.136 -0.2227 -0.6776  0.1597
  270MOL0     C36320   8.008   9.828   2.142 -0.4894  0.8380 -0.1733
  270MOL0     C36321   8.124   9.757   2.153  0.5549  0.2699 -0.4742
  270MOL0     C36322   8.131   9.614   2.173  1.0639 -0.1666 -0.0063
  270MOL0     O36323   8.252   9.562   2.200 -0.1307  0.0637  0.2440
  270MOL0     C36324   8.261   9.425   2.170  0.0420 -0.2610  0.6377
  270MOL0     C36325   8.411   9.391   2.186  0.7369 -0.0647 -0.0557
  270MOL0     C36326   8.456   9.425   2.324  0.6579  0.2909  0.7610
  270MOL0     C36327   8.603   9.381   2.339 -1.4408 -0.2267  0.1402
  270MOL0     C36328   8.667   9.435   2.474  1.2767 -0.4542 -0.7135
  270MOL0     C36329   8.796   9.367   2.499 -0.5928 -0.4487 -0.2558
  270MOL0     C36330   8.839   9.383   2.654 -0.5412  0.1605  1.1066
  270MOL0     C36331   8.985   9.345   2.672 -0.3989  0.1977  0.0651
  270MOL0     N36332   9.023   9.314   2.808  0.8284 -0.1662 -0.1693
  270MOL0     C36333   9.153   9.277   2.843  1.0295 -0.8379  0.1945
  270MOL0     C36334   9.165   9.292   2.972  0.2254 -0.2368 -0.7150
  270MOL0     C36335   9.277   9.268   3.071 -0.0872  1.1062 -0.6127
  270MOL0     C36336   9.227   9.291   3.216 -0.1588 -0.3824 -0.4841
  270MOL0     C36337   9.340   9.304   3.317  0.2976  0.4361  0.2720
  270MOL0     C36338   9.404   9.449   3.321  0.0400 -0.4423 -1.1606
  270MOL0     O36339   9.308   9.557   3.344 -0.1427 -0.8010  0.2986
  270MOL0     C36340   9.345   9.686   3.375 -0.0742 -0.3836 -0.2448
  270MOL0     C36341   9.477   9.730   3.344 -0.4085 -0.5995 -0.1935
  270MOL0     C36342   9.510   9.863   3.365 -0.8767  0.0890 -0.6708
  270MOL0     C36343   9.417   9.955   3.409  0.1768  0.3103 -0.3262
  270MOL0     C36344   9.441  10.100   3.411  0.8362  0.5685 -0.4501
  270MOL0     O36345   9.358  10.169   3.496 -0.5286 -0.1555  0.2457
  270MOL0     C36346   9.393  10.294   3.557  0.0386 -0.0426  0.0016
  270MOL0     C36347   9.479  10.394   3.507 -1.1683  0.4052  0.4867
  270MOL0     C36348   9.503  10.514   3.563 -0.3243 -0.1600 -0.3325
  270MOL0     C36349   9.460  10.541   3.690  0.7727  0.2388 -0.2178
  270MOL0     O36350   9.504  10.663   3.742 -0.3880  0.2543  0.5702
  270MOL0     C36351   9.457  10.736   3.857  0.1772  0.2033  0.2740
  270MOL0     C36352   9.546  10.851   3.896 -0.0392 -0.9653  1.4244
  270MOL0     C36353   9.595  10.935   3.764 -0.4998  0.3490  0.1169
  270MOL0     C36354   9.660  11.067   3.812  0.6011  0.0815 -0.4689
  270MOL0     C36355   9.768  11.136   3.724 -0.1511  0.5199 -0.1551
  270MOL0     C36356   9.713  11.215   3.608 -0.2300  0.6631 -0.6680
  270MOL0     C36357   9.833  11.283   3.532  0.2534 -0.2096 -0.5357
  270MOL0     C36358   9.801  11.424   3.500  0.0142 -0.0578  0.4753
  270MOL0    Cl36359   9.846  11.546   3.623  0.0845  0.2369  0.2112
  270MOL0     C36360   9.364  10.451   3.751 -0.4938 -0.2076 -0.2771
  270MOL0     C36361   9.332  10.327   3.683 -0.4611  0.0693 -1.0947
  270MOL0     O36362   9.548  10.144   3.372  0.2112 -0.8116  0.1936
  270MOL0     C36363   9.281   9.905   3.442  0.3738 -0.4554  0.4695
  270MOL0     C36364   9.245   9.773   3.433 -0.0503  0.3869  0.8345
  270MOL0     N36365   9.036   9.341   3.016 -0.5218  0.5629 -0.2711
  270MOL0     N36366   8.952   9.336   2.921 -0.2404  0.4408 -0.9749
  270MOL0     C36367   8.000   9.556   2.167  0.1844 -1.4359 -0.4901
  270MOL0     C36368   7.880   9.624   2.149 -0.1758  0.1549 -0.2947
  270MOL0     C36369   7.610  10.012   2.103  0.0294  0.3206 -0.1484
  270MOL0     C36370   7.512   9.952   2.186  0.8365 -0.4299 -0.3570
  270MOL0     C36371   7.378  10.000   2.190 -0.2377 -0.1585 -0.8335
  270MOL0     C36372   7.351  10.118   2.118  0.6195 -1.6063 -0.0085
  270MOL0     O36373   7.239  10.201   2.115  0.5623  0.3377 -0.9396
  270MOL0     C36374   7.110  10.144   2.156 -0.2743 -1.2003 -0.6465
  270MOL0     C36375   7.016  10.268   2.176  0.4657 -0.1651 -1.0819
  270MOL0     C36376   6.911  10.278   2.072  0.5156 -1.2022  0.3218
  270MOL0     C36377   6.795  10.372   2.123  0.3675  0.3267 -0.5482
  270MOL0     C36378   6.718  10.401   2.005  0.6163  0.1237 -0.0959
  270MOL0     C36379   6.650  10.446   1.914 -0.4227  0.3675 -0.3466
  270MOL0     C36380   7.448  10.185   2.049  0.6452  0.3187 -0.1223
  270MOL0     C36381   7.568  10.122   2.030  0.3885 -0.0868 -0.6048
  270MOL0     C36382   7.651  10.198   1.925  0.3243 -0.2592 -0.1719
  270MOL0     H36383   8.024   9.935   2.144 -0.1455  0.8237 -1.4171
  270MOL0     H36384   8.226   9.796   2.154  0.4754  0.4788 -0.4224
  270MOL0     H36385   8.213   9.359   2.243  0.2669 -0.0599  0.9658
  270MOL0     H36386   8.228   9.408   2.067 -1.0238 -0.2611  0.9633
  270MOL0     H36387   8.475   9.444   2.115 -0.9023 -0.7584 -2.1684
  270MOL0     H36388   8.413   9.283   2.165  0.1190  0.0662 -0.8204
  270MOL0     H36389   8.400   9.370   2.400  2.7279  0.9696  2.9120
  270MOL0     H36390   8.433   9.529   2.351  1.2427  1.0209 -1.3807
  270MOL0     H36391   8.604   9.272   2.343  0.6763 -0.2447  2.6815
  270MOL0     H36392   8.660   9.416   2.253 -1.5892  1.4284  0.6690
  270MOL0     H36393   8.686   9.542   2.476  1.3745 -0.3819 -2.9405
  270MOL0     H36394   8.591   9.406   2.548  1.1872 -1.6293 -1.2321
  270MOL0     H36395   8.781   9.260   2.485  1.5529 -0.8190 -0.0605
  270MOL0     H36396   8.880   9.403   2.439 -1.6370  2.0079 -0.3706
  270MOL0     H36397   8.774   9.320   2.716 -0.7115  0.1917  0.9627
  270MOL0     H36398   8.835   9.491   2.669  2.3258  0.6643 -0.8772
  270MOL0     H36399   9.001   9.251   2.620  0.6787  0.7059 -0.5574
  270MOL0     H36400   9.063   9.419   2.653  0.4439 -0.9854 -1.2287
  270MOL0     H36401   9.232   9.247   2.774  1.3105 -0.4949  0.3666
  270MOL0     H36402   9.314   9.167   3.047 -0.6399  1.4151 -3.0064
  270MOL0     H36403   9.361   9.335   3.051  0.1873  1.5030  1.6470
  270MOL0     H36404   9.162   9.378   3.230 -0.2112 -0.9004  3.6995
  270MOL0     H36405   9.164   9.204   3.238  2.1810 -2.0385  0.0112
  270MOL0     H36406   9.422   9.234   3.302 -1.9466 -2.6351  1.3443
  270MOL0     H36407   9.293   9.277   3.412  1.0921 -1.1020  0.2604
  270MOL0     H36408   9.446   9.461   3.221  1.8701 -3.5540 -0.8888
  270MOL0     H36409   9.488   9.449   3.392  0.7030  1.0234 -1.8925
  270MOL0     H36410   9.555   9.663   3.309  1.8283  1.9110 -0.2649
  270MOL0     H36411   9.609   9.892   3.330 -0.6101 -0.5653 -0.4638
  270MOL0     H36412   9.499  10.390   3.401  1.3741  1.1293  0.8804
  270MOL0     H36413   9.569  10.591   3.525  2.3298  0.0897  4.0650
  270MOL0     H36414   9.355  10.771   3.840 -0.5885 -2.3169 -0.9082
  270MOL0     H36415   9.468  10.671   3.944 -1.1272  1.7397  1.6635
  270MOL0     H36416   9.479  10.911   3.958  0.3098  0.9177  0.0651
  270MOL0     H36417   9.629  10.830   3.964 -1.0918 -1.2827  2.6425
  270MOL0     H36418   9.668  10.880   3.703 -0.2553  0.9260 -0.1195
  270MOL0     H36419   9.505  10.960   3.707 -1.2968 -0.5534  0.9407
  270MOL0     H36420   9.698  11.048   3.913  0.7501  2.4162 -0.0497
  270MOL0     H36421   9.584  11.145   3.807  0.5706  0.0232 -4.9620
  270MOL0     H36422   9.834  11.051   3.705  0.6405  0.4890  2.4399
  270MOL0     H36423   9.837  11.197   3.783  1.9284  0.2842 -2.1779
  270MOL0     H36424   9.646  11.142   3.560 -0.8108 -2.1015  3.7289
  270MOL0     H36425   9.639  11.275   3.662 -1.6263 -0.8234 -0.8338
  270MOL0     H36426   9.862  11.222   3.446  2.1506  1.1474 -0.9137
  270MOL0     H36427   9.920  11.293   3.597 -0.9173  0.3049  1.0130
  270MOL0     H36428   9.861  11.456   3.414  0.5607  0.2591  0.9695
  270MOL0     H36429   9.696  11.441   3.472  0.7227  0.8941 -1.8762
  270MOL0     H36430   9.326  10.471   3.851  0.2022  0.4090 -0.1224
  270MOL0     H36431   9.271  10.247   3.724  1.6770 -1.8436 -1.4568
  270MOL0     H36432   9.200   9.972   3.469  1.3253  0.9905 -0.1127
  270MOL0     H36433   9.141   9.744   3.442 -0.5886  0.0040 -4.1798
  270MOL0     H36434   7.998   9.449   2.185  4.0099 -1.7017 -0.7305
  270MOL0     H36435   7.787   9.569   2.156  0.5575 -0.9778  1.2476
  270MOL0     H36436   7.537   9.862   2.241 -3.1615 -1.5245 -0.0033
  270MOL0     H36437   7.295   9.959   2.246 -0.3891  0.2908 -0.7259
  270MOL0     H36438   7.100  10.081   2.245 -0.6141  0.0012  0.1922
  270MOL0     H36439   7.083  10.099   2.061  0.3840  2.5166 -2.8041
  270MOL0     H36440   7.079  10.358   2.183 -1.4846  1.2048 -0.2444
  270MOL0     H36441   6.958  10.258   2.268 -0.2972 -1.4585 -1.6781
  270MOL0     H36442   6.863  10.187   2.037 -1.6712 -0.0114  0.0114
  270MOL0     H36443   6.955  10.327   1.985 -0.8815  0.1870  0.3471
  270MOL0     H36444   6.731  10.322   2.197 -0.6572  4.3279  1.5557
  270MOL0     H36445   6.837  10.461   2.170  2.2020 -1.2254  0.9252
  270MOL0     H36446   6.577  10.472   1.840  0.0427  1.9829 -0.2668
  270MOL0     H36447   7.409  10.268   1.993 -1.3650 -1.6432 -1.8324
  270MOL0     H36448   7.677  10.127   1.846 -1.1021  0.5003 -1.3624
  270MOL0     H36449   7.602  10.281   1.873  1.7714  0.6950 -0.0887
  270MOL0     H36450   7.742  10.234   1.975  0.8857 -0.7425 -0.8316
  271MOL0     O36451   6.500   8.966   0.172 -0.0808  0.1851 -0.6711
  271MOL0     C36452   6.540   8.890   0.266 -0.5031 -0.0282  0.0562
  271MOL0     O36453   6.464   8.821   0.351 -0.2840  0.9503  0.6792
  271MOL0     C36454   6.338   8.790   0.319 -0.0344 -1.2658  0.3799
  271MOL0     C36455   6.299   8.667   0.267  0.0167  0.1972 -0.7998
  271MOL0     C36456   6.168   8.636   0.230 -0.1473  0.4701  0.3535
  271MOL0     C36457   6.059   8.725   0.264  0.2979  0.1563  0.6652
  271MOL0     O36458   5.927   8.705   0.220 -0.0681 -0.1588 -0.0499
  271MOL0     C36459   5.883   8.582   0.171 -0.4022  0.4464  0.0643
  271MOL0     C36460   5.726   8.607   0.163 -0.1599  0.2480 -0.1559
  271MOL0     C36461   5.683   8.732   0.084  0.3669  0.9773  0.2105
  271MOL0     C36462   5.729   8.720  -0.066 -0.2277  0.2570  0.0101
  271MOL0     C36463   5.677   8.826  -0.160 -0.2907  0.3771  0.2382
  271MOL0     C36464   5.534   8.824  -0.198  0.7400 -0.0682 -0.0754
  271MOL0     C36465   5.506   8.929  -0.303  0.5557  0.5683  0.0489
  271MOL0     C36466   5.365   8.919  -0.351  0.5739  0.2267 -0.8135
  271MOL0     N36467   5.326   9.023  -0.448 -0.2624 -0.2901 -0.4207
  271MOL0     C36468   5.343   9.028  -0.582 -0.3273  0.0010  1.8957
  271MOL0     C36469   5.297   9.144  -0.616  1.1234 -0.2734  1.1726
  271MOL0     C36470   5.294   9.227  -0.751  0.3762 -0.8192  0.0480
  271MOL0     C36471   5.175   9.340  -0.757 -0.1454  0.0403 -0.4458
  271MOL0     C36472   5.157   9.381  -0.906 -0.2464 -0.2603  0.6987
  271MOL0     C36473   5.057   9.488  -0.926  0.1933  0.0855 -0.3521
  271MOL0     O36474   5.089   9.611  -0.862 -0.8057  0.0039 -1.0570
  271MOL0     C36475   5.026   9.727  -0.891  0.5898 -0.9279 -0.1819
  271MOL0     C36476   5.065   9.837  -0.819 -0.4402  0.3115  0.1535
  271MOL0     C36477   5.012   9.959  -0.835 -0.1591 -0.4587 -0.2335
  271MOL0     C36478   4.904   9.978  -0.916  0.1205  0.2786  1.1613
  271MOL0     C36479   4.841  10.116  -0.934  0.1978 -0.3855  0.0146
  271MOL0     O36480   4.897  10.216  -0.862 -0.0075 -0.1432 -0.2014
  271MOL0     C36481   4.832  10.336  -0.872 -0.1949  0.1106  0.0852
  271MOL0     C36482   4.769  10.390  -0.757  0.1965  0.7563  0.1108
  271MOL0     C36483   4.733  10.525  -0.762  0.2437 -0.7355  1.1632
  271MOL0     C36484   4.753  10.604  -0.881  0.2681  0.8682 -0.2456
  271MOL0     O36485   4.719  10.743  -0.893 -0.7088  0.1615  0.2727
  271MOL0     C36486   4.671  10.810  -0.779  0.0382 -0.1798 -0.1914
  271MOL0     C36487   4.638  10.955  -0.804 -0.6332 -0.1700  0.3540
  271MOL0     C36488   4.569  11.013  -0.683 -0.0404 -0.1387 -0.1724
  271MOL0     C36489   4.511  11.141  -0.734  0.5227 -0.9689  0.0368
  271MOL0     C36490   4.620  11.250  -0.719  0.3361 -0.3434  0.2354
  271MOL0     C36491   4.571  11.382  -0.782  0.2220  0.1508  0.2413
  271MOL0     C36492   4.677  11.498  -0.784  0.6779  0.9648 -0.8428
  271MOL0     C36493   4.647  11.600  -0.891 -1.1681  0.3027 -0.5848
  271MOL0    Cl36494   4.528  11.712  -0.806  0.4746  0.1018  0.7558
  271MOL0     C36495   4.819  10.547  -0.982 -0.4883 -0.2964 -0.1325
  271MOL0     C36496   4.855  10.414  -0.985 -0.2941  1.3338 -0.8361
  271MOL0     O36497   4.762  10.129  -1.023  0.7899  0.4062  0.0965
  271MOL0     C36498   4.856   9.867  -0.990  0.1519 -0.3983 -0.3573
  271MOL0     C36499   4.910   9.740  -0.968 -0.6388 -0.1635 -0.4818
  271MOL0     N36500   5.238   9.200  -0.507 -0.7939 -0.3168  0.6280
  271MOL0     N36501   5.257   9.130  -0.407 -1.0011  0.9143  0.0476
  271MOL0     C36502   6.099   8.846   0.320  0.6264  0.4850 -0.0681
  271MOL0     C36503   6.236   8.880   0.340  0.5256 -0.0507  0.1581
  271MOL0     C36504   6.685   8.891   0.291 -0.4628  0.1178  0.4598
  271MOL0     C36505   6.756   9.003   0.314  0.0924  0.5179  1.0203
  271MOL0     C36506   6.898   8.998   0.329 -0.0393 -0.1721  0.2424
  271MOL0     C36507   6.970   8.878   0.320 -0.6962 -0.0481 -0.5872
  271MOL0     O36508   7.110   8.866   0.331  0.3357  0.0883  0.0655
  271MOL0     C36509   7.181   8.983   0.301  0.0407 -0.8033 -0.4385
  271MOL0     C36510   7.334   8.970   0.274  0.1913  0.0762 -0.3998
  271MOL0     C36511   7.363   8.872   0.164  1.5655  0.7024  0.0119
  271MOL0     C36512   7.505   8.851   0.113 -0.4856  0.0917  0.1449
  271MOL0     C36513   7.574   8.779   0.215 -0.4785  0.5339 -0.0595
  271MOL0     C36514   7.635   8.716   0.295  0.1048 -0.4144  0.2744
  271MOL0     C36515   6.890   8.761   0.310 -0.0591 -0.6108  0.1711
  271MOL0     C36516   6.756   8.763   0.286  0.5954  0.1964 -0.0935
  271MOL0     C36517   6.682   8.627   0.273 -0.4668  0.2982 -0.6848
  271MOL0     H36518   6.379   8.608   0.222 -0.7857 -0.4084 -1.4615
  271MOL0     H36519   6.137   8.551   0.170 -0.0100 -0.5201  1.6532
  271MOL0     H36520   5.924   8.549   0.075  2.8954  0.0604  1.4718
  271MOL0     H36521   5.908   8.502   0.241 -2.6796 -0.8160 -0.4645
  271MOL0     H36522   5.695   8.619   0.267  0.3326 -3.0548  0.5111
  271MOL0     H36523   5.664   8.526   0.121 -0.7504  2.5074 -4.1534
  271MOL0     H36524   5.722   8.823   0.132  0.6017  0.6586  0.6276
  271MOL0     H36525   5.577   8.750   0.100  0.8926  3.6038  1.2745
  271MOL0     H36526   5.838   8.719  -0.079 -0.3555 -0.0814 -1.1847
  271MOL0     H36527   5.704   8.621  -0.104  0.9483  0.4692 -1.4189
  271MOL0     H36528   5.710   8.923  -0.123  0.9418 -0.0568  0.3404
  271MOL0     H36529   5.728   8.821  -0.257 -0.3369  1.3633  0.1507
  271MOL0     H36530   5.497   8.724  -0.222  1.9514 -0.8993  1.2988
  271MOL0     H36531   5.474   8.847  -0.109  2.2504  1.0606  0.7071
  271MOL0     H36532   5.561   8.907  -0.395 -0.2452 -2.9857  0.2865
  271MOL0     H36533   5.532   9.026  -0.259  2.7236  0.6134 -1.1726
  271MOL0     H36534   5.365   8.816  -0.388  0.9026 -0.6731  1.4919
  271MOL0     H36535   5.289   8.926  -0.273  0.7267  3.0641 -0.7980
  271MOL0     H36536   5.412   8.969  -0.642 -2.1297  1.5740 -2.1152
  271MOL0     H36537   5.393   9.262  -0.781  0.0793 -0.9522 -1.1396
  271MOL0     H36538   5.263   9.150  -0.822 -0.2786  1.0661 -1.8065
  271MOL0     H36539   5.078   9.294  -0.735  0.2267 -1.0720 -1.0847
  271MOL0     H36540   5.196   9.432  -0.702  0.8922  1.5117 -3.1372
  271MOL0     H36541   5.127   9.294  -0.964  0.0102  0.4922 -0.5988
  271MOL0     H36542   5.248   9.421  -0.953  0.0020  0.6396  1.8823
  271MOL0     H36543   4.961   9.449  -0.892  0.4235  2.0421  3.0796
  271MOL0     H36544   5.060   9.506  -1.034 -0.0888  1.7981 -0.1041
  271MOL0     H36545   5.143   9.813  -0.747  1.2213 -3.0302 -2.4653
  271MOL0     H36546   5.055  10.039  -0.775 -1.2503 -1.0855  1.4427
  271MOL0     H36547   4.780  10.328  -0.668 -0.8997 -0.3629 -0.5011
  271MOL0     H36548   4.680  10.551  -0.671 -1.6956 -1.5048  0.3010
  271MOL0     H36549   4.575  10.779  -0.736 -1.1113  3.7448  0.5509
  271MOL0     H36550   4.748  10.797  -0.702 -0.7331  1.3735  0.9049
  271MOL0     H36551   4.723  11.018  -0.833 -1.3169  0.9847  0.7840
  271MOL0     H36552   4.558  10.947  -0.878 -2.4477 -0.6604  2.2662
  271MOL0     H36553   4.485  10.949  -0.652  0.9416 -2.3392 -1.7568
  271MOL0     H36554   4.650  11.022  -0.610  1.5659  2.7839 -2.1282
  271MOL0     H36555   4.439  11.176  -0.660  3.3392  0.8935  2.1160
  271MOL0     H36556   4.459  11.133  -0.830 -1.3494 -0.3403  0.9676
  271MOL0     H36557   4.707  11.221  -0.779 -1.3099  0.8731 -3.0134
  271MOL0     H36558   4.637  11.271  -0.614  3.6876  0.4300 -0.3527
  271MOL0     H36559   4.548  11.371  -0.889  2.1273  0.1924 -0.2250
  271MOL0     H36560   4.486  11.428  -0.732 -1.0281 -1.9074  0.0898
  271MOL0     H36561   4.778  11.460  -0.801  0.6678  1.6934 -2.8804
  271MOL0     H36562   4.693  11.550  -0.689  4.1061 -1.0904 -0.1457
  271MOL0     H36563   4.737  11.660  -0.908 -2.3932  1.9999 -1.4041
  271MOL0     H36564   4.611  11.569  -0.990 -2.6458 -2.0631  0.6206
  271MOL0     H36565   4.843  10.603  -1.073  2.1831 -1.8672 -0.4872
  271MOL0     H36566   4.901  10.369  -1.072 -2.5013 -1.1752 -0.8454
  271MOL0     H36567   4.772   9.876  -1.058 -2.9872  0.8802  3.2603
  271MOL0     H36568   4.868   9.652  -1.017  0.1410 -1.1112  0.5042
  271MOL0     H36569   6.021   8.919   0.339 -1.0810 -1.1170 -0.6047
  271MOL0     H36570   6.256   8.978   0.382  4.2067  0.1564 -1.6109
  271MOL0     H36571   6.701   9.097   0.308  1.1335  1.1305  0.9260
  271MOL0     H36572   6.943   9.097   0.333 -0.8231  0.3316 -1.9316
  271MOL0     H36573   7.173   9.069   0.368  3.0247 -0.3713 -0.5349
  271MOL0     H36574   7.134   9.007   0.205 -4.6004 -5.0764  0.3491
  271MOL0     H36575   7.376   8.929   0.366  0.6364 -2.9983 -1.8557
  271MOL0     H36576   7.378   9.062   0.235  3.3010 -1.6788 -1.3918
  271MOL0     H36577   7.297   8.897   0.081  1.4086 -1.5788 -0.6060
  271MOL0     H36578   7.317   8.776   0.191 -1.4426  1.4539 -1.9498
  271MOL0     H36579   7.494   8.789   0.023  0.7501  0.4179 -0.2527
  271MOL0     H36580   7.555   8.943   0.082  2.7278 -0.7343  2.3186
  271MOL0     H36581   7.699   8.657   0.358 -1.0621 -2.8214 -0.6550
  271MOL0     H36582   6.947   8.670   0.301  1.4692  0.2644  0.5499
  271MOL0     H36583   6.622   8.626   0.182  0.4173 -2.4715 -1.3456
  271MOL0     H36584   6.752   8.543   0.261  1.0645  1.3909  0.2564
  271MOL0     H36585   6.620   8.610   0.361  1.1492 -0.2954  0.4004
  272MOL0     O36586   4.714   4.885   9.072  0.0163  0.1345 -0.3231
  272MOL0     C36587   4.698   5.005   9.072  0.4214 -0.3729  0.0335
  272MOL0     O36588   4.761   5.083   8.983  0.2888 -1.6317 -0.4533
  272MOL0     C36589   4.849   5.025   8.900  0.0179  0.3961  0.4824
  272MOL0     C36590   4.799   4.980   8.774 -0.2910 -0.4292  0.3071
  272MOL0     C36591   4.882   4.929   8.679 -1.1141 -0.3574 -0.3429
  272MOL0     C36592   5.022   4.919   8.708 -0.4117  0.4250  0.0309
  272MOL0     O36593   5.120   4.870   8.620 -0.1185 -1.2288 -0.0142
  272MOL0     C36594   5.086   4.773   8.520  0.4062  0.1384  0.1978
  272MOL0     C36595   5.210   4.745   8.441  0.1944  0.6905  0.2788
  272MOL0     C36596   5.279   4.870   8.385 -0.2321  0.4242  0.2187
  272MOL0     C36597   5.397   4.833   8.299 -0.6631 -0.4254 -0.5791
  272MOL0     C36598   5.476   4.957   8.258  0.2031 -0.6508  0.6587
  272MOL0     C36599   5.410   5.045   8.153 -0.9836  0.1117  0.7180
  272MOL0     C36600   5.448   5.188   8.157  0.4879  0.0165 -0.2143
  272MOL0     C36601   5.392   5.259   8.029  0.4607 -0.2996  0.2414
  272MOL0     N36602   5.458   5.268   7.901  0.6590  0.0264  0.2344
  272MOL0     C36603   5.557   5.188   7.851 -0.2243  0.1110 -0.1556
  272MOL0     C36604   5.549   5.226   7.716 -0.2381  0.0068 -0.0851
  272MOL0     C36605   5.649   5.188   7.616  0.9653 -0.0049 -0.2287
  272MOL0     C36606   5.745   5.307   7.572  0.5958 -0.3919  0.5013
  272MOL0     C36607   5.856   5.356   7.670  0.4460  0.1274 -0.4396
  272MOL0     C36608   5.960   5.246   7.696  0.5002  0.0748  0.9912
  272MOL0     O36609   6.083   5.310   7.728  0.2523 -0.4275 -0.4245
  272MOL0     C36610   6.183   5.221   7.765 -0.5107 -0.1979  0.3223
  272MOL0     C36611   6.283   5.265   7.859 -0.3354  0.7926 -0.1459
  272MOL0     C36612   6.394   5.182   7.887  0.4283  0.3646 -0.5231
  272MOL0     C36613   6.422   5.061   7.821  0.3659  1.0333  0.3171
  272MOL0     C36614   6.545   4.986   7.859  0.0669 -0.2897 -0.3953
  272MOL0     O36615   6.559   4.865   7.795 -0.6266 -0.3176 -0.7985
  272MOL0     C36616   6.668   4.790   7.815  0.3106  1.1360  0.2017
  272MOL0     C36617   6.756   4.769   7.715  1.3114 -0.0526  0.1935
  272MOL0     C36618   6.870   4.682   7.727 -0.6073  0.6088  0.7246
  272MOL0     C36619   6.891   4.626   7.851  0.7719  0.3267 -0.3332
  272MOL0     O36620   6.992   4.534   7.877 -0.1917 -0.2073 -0.3364
  272MOL0     C36621   7.110   4.515   7.799  0.0592 -0.0332 -0.7105
  272MOL0     C36622   7.221   4.458   7.890 -0.7633  0.8130  0.0820
  272MOL0     C36623   7.270   4.536   8.011 -0.8843  0.3634  0.2524
  272MOL0     C36624   7.301   4.687   7.991  0.6981  0.1904 -0.5799
  272MOL0     C36625   7.362   4.768   8.115 -0.1292  0.5139  0.1725
  272MOL0     C36626   7.512   4.747   8.137 -0.6744  0.2089 -0.3978
  272MOL0     C36627   7.573   4.823   8.254  0.5525 -0.4346 -0.5450
  272MOL0     C36628   7.573   4.979   8.223 -0.0859  0.1126 -0.0272
  272MOL0    Cl36629   7.642   5.045   8.377  0.0441  0.1712 -0.2745
  272MOL0     C36630   6.794   4.639   7.962 -0.0001 -0.1619  1.0785
  272MOL0     C36631   6.683   4.718   7.939  0.1196  0.1172 -0.2198
  272MOL0     O36632   6.627   5.034   7.941  0.8278  0.3241 -0.1209
  272MOL0     C36633   6.316   5.011   7.734  0.1806 -0.4585 -0.4165
  272MOL0     C36634   6.197   5.090   7.702  0.0035  0.4078 -0.7437
  272MOL0     N36635   5.459   5.333   7.693 -0.2318  0.8609 -0.7362
  272MOL0     N36636   5.404   5.349   7.808  0.0275 -0.0725  0.2869
  272MOL0     C36637   5.074   4.981   8.817 -0.7652  0.7612  0.0021
  272MOL0     C36638   4.990   5.040   8.912 -0.9394  0.4410 -0.2520
  272MOL0     C36639   4.603   5.064   9.166  0.5757 -0.9258 -0.2660
  272MOL0     C36640   4.610   5.203   9.189  0.4784  0.6142  0.1975
  272MOL0     C36641   4.520   5.265   9.261  0.9017  0.1152  0.1364
  272MOL0     C36642   4.402   5.206   9.309 -1.1196  0.5082 -0.1493
  272MOL0     O36643   4.292   5.260   9.371  0.0862  0.0832  0.3904
  272MOL0     C36644   4.256   5.393   9.322 -0.3049 -0.0248 -0.7865
  272MOL0     C36645   4.285   5.505   9.427 -0.5265 -0.1963  0.0608
  272MOL0     C36646   4.195   5.625   9.400  0.1791 -0.2015  0.6212
  272MOL0     C36647   4.220   5.696   9.266  0.5289  0.6880 -0.0170
  272MOL0     C36648   4.345   5.764   9.278  0.0597  0.0326 -0.2151
  272MOL0     C36649   4.450   5.827   9.283 -0.8384 -0.0250 -0.7367
  272MOL0     C36650   4.399   5.068   9.289 -0.5488  1.1067 -0.4421
  272MOL0     C36651   4.500   4.992   9.223  0.4262  0.8012  0.0715
  272MOL0     C36652   4.486   4.842   9.213  0.1916 -0.0577 -0.8301
  272MOL0     H36653   4.691   4.988   8.763 -0.7956 -4.3094  1.0261
  272MOL0     H36654   4.858   4.898   8.578  2.0873 -3.9046 -0.2658
  272MOL0     H36655   5.037   4.687   8.567 -1.1575  0.8562 -0.0559
  272MOL0     H36656   5.013   4.823   8.456  0.3354 -0.2808 -0.0531
  272MOL0     H36657   5.187   4.670   8.365  3.8876 -2.3918  1.8218
  272MOL0     H36658   5.274   4.702   8.519  1.8807  0.9368 -0.9238
  272MOL0     H36659   5.317   4.926   8.471 -0.8937 -0.0135  0.8093
  272MOL0     H36660   5.212   4.929   8.323 -0.6880 -1.6143 -1.3433
  272MOL0     H36661   5.453   4.754   8.350  0.1439  0.1702 -0.5404
  272MOL0     H36662   5.360   4.786   8.207  0.9302 -2.2386 -0.3537
  272MOL0     H36663   5.476   5.020   8.347 -1.5887  1.2010 -0.5659
  272MOL0     H36664   5.578   4.940   8.223  0.8072  5.4604 -1.6729
  272MOL0     H36665   5.433   4.998   8.056  0.7614  2.5545 -0.1648
  272MOL0     H36666   5.302   5.037   8.165 -0.9367  1.0772  1.9157
  272MOL0     H36667   5.556   5.204   8.158  0.4443  0.3460  0.8708
  272MOL0     H36668   5.404   5.235   8.246  5.0024  0.6702  1.9936
  272MOL0     H36669   5.286   5.232   8.017  0.3711  0.8843 -2.4001
  272MOL0     H36670   5.395   5.364   8.060  0.9772 -0.8163  2.0995
  272MOL0     H36671   5.616   5.125   7.916  0.6435 -0.2621 -1.2613
  272MOL0     H36672   5.707   5.108   7.664  1.5390  0.2099 -0.5524
  272MOL0     H36673   5.600   5.155   7.525  0.3913 -2.0100  0.7529
  272MOL0     H36674   5.783   5.291   7.471 -1.3361  1.5878 -0.6265
  272MOL0     H36675   5.690   5.398   7.548  1.1638 -0.8542 -3.0226
  272MOL0     H36676   5.814   5.384   7.768  0.5688  0.3316 -0.4452
  272MOL0     H36677   5.910   5.442   7.631  0.1732  0.4719 -0.0707
  272MOL0     H36678   5.975   5.199   7.598  0.6671  2.4857 -0.2105
  272MOL0     H36679   5.926   5.164   7.760 -0.1126 -1.4156 -1.1400
  272MOL0     H36680   6.274   5.362   7.907  0.1466 -0.1437  1.9470
  272MOL0     H36681   6.454   5.213   7.972 -3.6627 -0.5293  3.0072
  272MOL0     H36682   6.733   4.817   7.621 -0.4571 -1.1590  0.0167
  272MOL0     H36683   6.940   4.669   7.646  2.1123  0.1976  2.9818
  272MOL0     H36684   7.090   4.437   7.725  2.0134  1.7340 -3.2613
  272MOL0     H36685   7.133   4.610   7.750 -0.9001 -0.5764 -2.3017
  272MOL0     H36686   7.188   4.362   7.932 -2.1933  1.4369  0.4666
  272MOL0     H36687   7.303   4.437   7.822 -1.3003  2.6558 -1.1991
  272MOL0     H36688   7.193   4.518   8.087 -1.4884 -2.6510 -0.9208
  272MOL0     H36689   7.356   4.483   8.051 -0.3629  2.8780  2.7817
  272MOL0     H36690   7.204   4.730   7.964  0.4388 -0.2146 -0.3067
  272MOL0     H36691   7.367   4.696   7.904  1.9285 -3.0006 -0.1228
  272MOL0     H36692   7.318   4.736   8.210  0.3193 -1.2607 -0.1741
  272MOL0     H36693   7.338   4.874   8.104 -0.0484  0.4205 -1.0386
  272MOL0     H36694   7.511   4.639   8.159 -3.1219  0.1016 -0.8122
  272MOL0     H36695   7.571   4.777   8.050 -1.7924  0.4049 -1.1069
  272MOL0     H36696   7.673   4.780   8.264 -0.1599 -1.8490  1.0064
  272MOL0     H36697   7.513   4.795   8.341  0.2138  1.3792 -0.1534
  272MOL0     H36698   7.631   5.002   8.133 -1.4676  0.8192 -0.7747
  272MOL0     H36699   7.472   5.019   8.205  1.0897  3.6345  0.4664
  272MOL0     H36700   6.821   4.578   8.047  0.8454  0.1250  1.0256
  272MOL0     H36701   6.604   4.743   8.010  1.4852  2.3470  0.6011
  272MOL0     H36702   6.324   4.914   7.685  2.1720 -0.7804  0.4297
  272MOL0     H36703   6.124   5.052   7.632 -0.5790  0.2186 -0.0553
  272MOL0     H36704   5.182   4.983   8.824 -0.6429 -1.5492 -0.1955
  272MOL0     H36705   5.029   5.091   9.000  1.2457  0.1558 -1.0057
  272MOL0     H36706   4.697   5.260   9.158  1.1131 -1.2853 -1.7543
  272MOL0     H36707   4.528   5.373   9.271 -0.5107  0.1807  0.8396
  272MOL0     H36708   4.148   5.400   9.307 -0.4209  0.9951  0.3486
  272MOL0     H36709   4.300   5.425   9.228  1.9566  2.8582  1.0632
  272MOL0     H36710   4.388   5.535   9.406 -0.7672 -0.5659 -1.9004
  272MOL0     H36711   4.276   5.472   9.531  3.0294  0.0980  0.5863
  272MOL0     H36712   4.211   5.689   9.488 -0.2986 -3.3700  3.2223
  272MOL0     H36713   4.088   5.604   9.404 -0.5762  2.8256 -0.9047
  272MOL0     H36714   4.197   5.628   9.183  0.9663 -0.3005  0.6546
  272MOL0     H36715   4.144   5.774   9.253 -0.6736 -0.6669 -1.5880
  272MOL0     H36716   4.552   5.856   9.299 -0.0670 -3.2456  1.2464
  272MOL0     H36717   4.322   5.013   9.343  1.0744  0.3890  1.2159
  272MOL0     H36718   4.407   4.804   9.279  0.2566  0.6210 -0.3409
  272MOL0     H36719   4.463   4.818   9.109 -2.1595 -1.5296 -0.0487
  272MOL0     H36720   4.584   4.803   9.241  0.4162 -1.3916 -3.2774
  273MOL0     O36721   0.722   5.785  11.366 -0.6007 -0.3634 -0.4755
  273MOL0     C36722   0.694   5.851  11.465 -0.5458 -0.1304  0.0953
  273MOL0     O36723   0.778   5.950  11.518  0.8423 -0.5028  0.5998
  273MOL0     C36724   0.885   5.979  11.432  0.2577  0.2140 -0.1247
  273MOL0     C36725   1.016   5.927  11.443 -0.5046  0.0730 -0.4964
  273MOL0     C36726   1.117   5.958  11.348 -0.3092 -0.2976  0.3334
  273MOL0     C36727   1.088   6.052  11.245 -0.0522 -0.1226 -0.0614
  273MOL0     O36728   1.168   6.091  11.138  0.5686 -0.4590 -1.0549
  273MOL0     C36729   1.289   6.014  11.113 -0.6083 -0.4597 -0.6401
  273MOL0     C36730   1.383   6.091  11.016 -0.5241 -0.3105  0.3661
  273MOL0     C36731   1.518   6.013  10.986  0.2811 -0.3331  0.7075
  273MOL0     C36732   1.582   5.949  11.112 -0.9125 -0.7116 -0.4202
  273MOL0     C36733   1.731   5.895  11.099  0.0792  0.2481 -0.0557
  273MOL0     C36734   1.747   5.755  11.025  1.1454 -1.0508  0.2159
  273MOL0     C36735   1.883   5.707  11.073  0.6683 -0.8663 -0.0659
  273MOL0     C36736   1.895   5.565  11.035 -0.0856  0.4288 -1.2873
  273MOL0     N36737   1.966   5.493  11.137 -0.5522 -0.0930  0.1083
  273MOL0     C36738   1.922   5.407  11.236 -0.1384  0.1695 -0.3037
  273MOL0     C36739   2.034   5.383  11.306  0.3269 -0.7484 -0.4103
  273MOL0     C36740   2.018   5.297  11.431 -0.2862 -0.1528 -0.3513
  273MOL0     C36741   1.888   5.236  11.475  0.8316 -0.4350 -0.0123
  273MOL0     C36742   1.848   5.110  11.384 -0.4659 -0.4276 -1.1900
  273MOL0     C36743   1.788   5.004  11.477  0.0038 -0.2016  0.3529
  273MOL0     O36744   1.671   5.054  11.548  0.0574 -0.3968 -0.1372
  273MOL0     C36745   1.546   5.014  11.508 -0.1908  0.2937  0.3358
  273MOL0     C36746   1.509   5.036  11.380 -0.0114 -0.2903  0.1342
  273MOL0     C36747   1.380   5.022  11.337  0.1094 -0.1974 -0.6095
  273MOL0     C36748   1.284   4.985  11.434  1.0805  0.1177  0.9694
  273MOL0     C36749   1.144   4.967  11.392  0.2715 -0.9199  1.7229
  273MOL0     O36750   1.062   4.904  11.486 -0.0250 -0.2491  0.9059
  273MOL0     C36751   0.947   4.845  11.448 -0.0818  1.0743  0.4590
  273MOL0     C36752   0.910   4.802  11.314 -0.2421  0.4398  0.3373
  273MOL0     C36753   0.783   4.750  11.288 -1.3554  0.3695  0.0245
  273MOL0     C36754   0.690   4.733  11.390  0.1625  0.4915  0.7828
  273MOL0     O36755   0.564   4.682  11.356  0.4354  0.3375 -0.7611
  273MOL0     C36756   0.457   4.695  11.449 -0.5755  0.5478 -0.6389
  273MOL0     C36757   0.334   4.638  11.379 -0.5378 -0.6211  0.7742
  273MOL0     C36758   0.313   4.492  11.423 -0.5429  0.1999 -0.1557
  273MOL0     C36759   0.198   4.427  11.338 -0.5470  0.2103 -0.3006
  273MOL0     C36760   0.232   4.290  11.273 -0.2352 -0.2384  0.5077
  273MOL0     C36761   0.276   4.184  11.383  0.4300 -0.2867 -0.1823
  273MOL0     C36762   0.179   4.141  11.490 -0.8076  0.3322  0.6054
  273MOL0     C36763   0.205   3.994  11.534  0.4040 -0.9166  0.4773
  273MOL0    Cl36764   0.078   3.935  11.654 -0.6302 -0.1503  0.1033
  273MOL0     C36765   0.724   4.786  11.516  0.1114 -0.5339 -0.4127
  273MOL0     C36766   0.859   4.839  11.543  0.3892  0.0791 -0.3359
  273MOL0     O36767   1.110   5.007  11.284 -0.3863 -0.3184  0.5003
  273MOL0     C36768   1.318   4.959  11.565  0.3347  0.7342  0.5995
  273MOL0     C36769   1.456   4.973  11.598 -0.0409  0.1453  0.0003
  273MOL0     N36770   2.144   5.450  11.254  0.8268  0.2292 -0.2302
  273MOL0     N36771   2.099   5.519  11.153  0.2571  0.4781  0.0425
  273MOL0     C36772   0.962   6.115  11.245  0.3288  0.2361 -0.2125
  273MOL0     C36773   0.868   6.082  11.334  0.1771  0.2926 -0.4109
  273MOL0     C36774   0.569   5.814  11.543  0.0670  0.0359  0.3135
  273MOL0     C36775   0.524   5.677  11.534 -0.4646  0.0740  0.7007
  273MOL0     C36776   0.402   5.632  11.585 -0.1502 -0.0170  0.2909
  273MOL0     C36777   0.331   5.723  11.667  0.1751 -0.6027 -0.2694
  273MOL0     O36778   0.218   5.673  11.726 -0.0082 -0.9900  0.1864
  273MOL0     C36779   0.161   5.761  11.825  0.1589 -0.2733 -0.1544
  273MOL0     C36780   0.052   5.675  11.902 -0.0371 -0.2324  0.5223
  273MOL0     C36781  -0.041   5.753  11.993 -0.1307 -0.0020  0.6154
  273MOL0     C36782  -0.095   5.668  12.104  0.2364  0.5074 -0.9786
  273MOL0     C36783  -0.166   5.746  12.198  0.3402  0.0465 -0.0460
  273MOL0     C36784  -0.207   5.813  12.290 -0.9221 -0.0673  0.4960
  273MOL0     C36785   0.382   5.856  11.685 -0.1574 -0.1257 -0.4615
  273MOL0     C36786   0.494   5.908  11.621 -0.1905  0.5515  0.5457
  273MOL0     C36787   0.541   6.060  11.635  1.3268 -0.0976  0.5827
  273MOL0     H36788   1.030   5.850  11.518  2.9085 -2.3472 -3.2973
  273MOL0     H36789   1.204   5.894  11.362  0.1342  0.4830  1.1696
  273MOL0     H36790   1.355   6.007  11.200  0.3090 -4.2318 -1.4933
  273MOL0     H36791   1.275   5.917  11.066  1.9043 -0.1603 -2.1831
  273MOL0     H36792   1.430   6.175  11.068 -1.5200  0.8484 -0.5479
  273MOL0     H36793   1.337   6.130  10.924  2.6107  0.5991 -0.9846
  273MOL0     H36794   1.588   6.090  10.953 -0.7392 -0.1258 -1.1074
  273MOL0     H36795   1.497   5.937  10.910  0.2513  1.3440 -1.0239
  273MOL0     H36796   1.590   6.021  11.194  3.3557 -1.5010  0.0781
  273MOL0     H36797   1.529   5.861  11.150  0.7206 -1.5370  0.0278
  273MOL0     H36798   1.806   5.964  11.058  1.4668 -0.3094  1.4402
  273MOL0     H36799   1.760   5.869  11.201 -4.3415 -3.3004  0.5701
  273MOL0     H36800   1.662   5.689  11.045 -0.0443 -0.1874 -1.6900
  273MOL0     H36801   1.750   5.775  10.917 -1.9811  0.8568  0.3767
  273MOL0     H36802   1.904   5.717  11.180  0.9874 -1.5001 -0.0594
  273MOL0     H36803   1.961   5.763  11.020  0.3987 -1.7561 -1.4616
  273MOL0     H36804   1.801   5.513  11.017  0.9297 -1.5472 -1.0964
  273MOL0     H36805   1.946   5.551  10.940  1.7185 -1.0369 -0.1850
  273MOL0     H36806   1.817   5.391  11.258 -0.5503  1.2092 -1.3535
  273MOL0     H36807   2.094   5.220  11.414  0.7603  0.9579 -0.8844
  273MOL0     H36808   2.063   5.354  11.512 -1.6812 -0.0678  0.3855
  273MOL0     H36809   1.896   5.197  11.576  1.7057 -1.0524 -0.3138
  273MOL0     H36810   1.808   5.310  11.468  0.5022 -0.8600 -1.1359
  273MOL0     H36811   1.942   5.070  11.343  1.3148  0.6999  1.5385
  273MOL0     H36812   1.788   5.146  11.300  0.2407 -0.2487 -1.6292
  273MOL0     H36813   1.856   4.968  11.555 -1.8989  1.2725  2.8359
  273MOL0     H36814   1.773   4.922  11.405  4.7094  0.6046 -1.9179
  273MOL0     H36815   1.577   5.080  11.307  0.3657  1.7936  1.6660
  273MOL0     H36816   1.338   5.048  11.240 -5.2745 -1.0040  1.1571
  273MOL0     H36817   0.971   4.817  11.225 -0.8915 -0.9495 -0.3751
  273MOL0     H36818   0.742   4.732  11.190 -0.1981  3.1993 -1.0975
  273MOL0     H36819   0.473   4.647  11.546 -0.7749  3.7167  1.0951
  273MOL0     H36820   0.436   4.799  11.477 -0.0126  0.6580 -0.6186
  273MOL0     H36821   0.246   4.698  11.402  0.9950  0.9782  2.8347
  273MOL0     H36822   0.349   4.635  11.270  2.6903 -0.6111  1.0995
  273MOL0     H36823   0.401   4.428  11.412 -0.4283 -0.1243  2.1625
  273MOL0     H36824   0.288   4.481  11.529  0.9130 -1.8042  0.0372
  273MOL0     H36825   0.151   4.485  11.258 -0.4451  0.4818 -0.1648
  273MOL0     H36826   0.112   4.426  11.405 -3.2868 -2.0340 -3.5323
  273MOL0     H36827   0.315   4.293  11.202  2.0768  3.1055  3.0671
  273MOL0     H36828   0.139   4.262  11.222  0.3855 -2.3610  0.4264
  273MOL0     H36829   0.294   4.093  11.326 -1.2004 -0.1588 -0.9437
  273MOL0     H36830   0.370   4.220  11.426 -1.1771  1.4196  2.2176
  273MOL0     H36831   0.084   4.132  11.438 -1.0855 -3.9856  1.4647
  273MOL0     H36832   0.174   4.196  11.585  5.1130  1.1678  0.8036
  273MOL0     H36833   0.215   3.931  11.445  1.6597  0.3828 -0.3371
  273MOL0     H36834   0.307   4.000  11.571  0.7040 -4.6712  0.6333
  273MOL0     H36835   0.668   4.775  11.608  1.2896 -3.9061  0.0345
  273MOL0     H36836   0.888   4.880  11.639  1.1361  1.6115 -1.1658
  273MOL0     H36837   1.239   4.940  11.637  0.4504 -0.0118  0.5345
  273MOL0     H36838   1.491   4.947  11.698  0.6941 -0.3316 -0.3679
  273MOL0     H36839   0.927   6.185  11.169  0.4885 -0.1952 -0.6818
  273MOL0     H36840   0.769   6.127  11.320 -1.2392 -1.8938  1.8060
  273MOL0     H36841   0.581   5.607  11.474  2.5288  3.7887 -1.2017
  273MOL0     H36842   0.367   5.531  11.566 -0.8614  0.7013 -2.6534
  273MOL0     H36843   0.114   5.852  11.785 -0.4663 -0.6079 -0.1929
  273MOL0     H36844   0.234   5.805  11.893  1.3012 -0.8808 -0.9734
  273MOL0     H36845   0.107   5.602  11.961 -0.5059 -2.0286 -1.1584
  273MOL0     H36846  -0.008   5.614  11.834  2.0598 -1.4709 -0.3308
  273MOL0     H36847  -0.126   5.781  11.931 -0.6331 -0.5377  1.0588
  273MOL0     H36848   0.018   5.841  12.022  1.8121  0.4062 -3.7735
  273MOL0     H36849  -0.161   5.594  12.058  1.0541 -0.0863 -1.2353
  273MOL0     H36850  -0.016   5.613  12.157 -0.9796 -1.3018 -0.9517
  273MOL0     H36851  -0.256   5.864  12.371  1.2736 -0.7969  2.3871
  273MOL0     H36852   0.334   5.925  11.753  3.3720 -0.2008  2.3719
  273MOL0     H36853   0.557   6.102  11.535 -0.3795 -0.9176 -0.0698
  273MOL0     H36854   0.448   6.103  11.673  0.4128 -1.6567  0.1977
  273MOL0     H36855   0.622   6.074  11.706 -0.3142  4.5483  1.9145
  274MOL0     O36856   0.187   4.983   1.803  0.0389 -0.2387  0.1495
  274MOL0     C36857   0.273   5.068   1.793 -0.1651 -0.7039  0.0658
  274MOL0     O36858   0.239   5.201   1.756 -0.6537 -0.2896  0.0768
  274MOL0     C36859   0.113   5.244   1.753 -0.1405  0.0472 -0.6108
  274MOL0     C36860   0.079   5.353   1.815  0.7112  0.3607 -0.4181
  274MOL0     C36861  -0.053   5.402   1.812  0.4482  0.5557  1.0219
  274MOL0     C36862  -0.154   5.332   1.743 -0.2588 -0.7396  0.4138
  274MOL0     O36863  -0.279   5.390   1.733 -1.0051  0.0464  0.1204
  274MOL0     C36864  -0.308   5.432   1.594  0.1355  0.4080  0.3948
  274MOL0     C36865  -0.453   5.465   1.566 -0.5265  0.6337 -0.2593
  274MOL0     C36866  -0.474   5.557   1.447  0.1504 -1.0142 -0.3032
  274MOL0     C36867  -0.389   5.519   1.322 -0.2843  0.3591 -0.7867
  274MOL0     C36868  -0.432   5.601   1.196  0.1762  0.4207  0.8250
  274MOL0     C36869  -0.572   5.572   1.145 -0.2169  0.2603 -0.8302
  274MOL0     C36870  -0.599   5.609   0.995  0.4023  1.0191 -0.2419
  274MOL0     C36871  -0.721   5.701   0.988  0.9946  1.1026  0.2024
  274MOL0     N36872  -0.713   5.820   1.064 -0.7839  1.1459  0.5077
  274MOL0     C36873  -0.820   5.870   1.130 -0.3685 -0.5691 -0.1069
  274MOL0     C36874  -0.780   5.992   1.167  0.7759 -0.4609 -0.1582
  274MOL0     C36875  -0.866   6.076   1.260  0.4073  0.1395  0.0996
  274MOL0     C36876  -0.821   6.091   1.401 -0.6789 -0.2019 -0.1015
  274MOL0     C36877  -0.802   5.956   1.469  0.9510 -0.0280 -0.1153
  274MOL0     C36878  -0.711   5.968   1.596  0.7547  0.1176  0.3918
  274MOL0     O36879  -0.795   5.981   1.713 -0.7834  0.3270  1.3841
  274MOL0     C36880  -0.801   5.866   1.781  0.3091  0.0130  0.4635
  274MOL0     C36881  -0.919   5.793   1.767  0.5136  0.3716 -0.4770
  274MOL0     C36882  -0.930   5.675   1.844  0.3946  0.4972 -0.4947
  274MOL0     C36883  -0.823   5.620   1.913  0.7244  0.0835 -0.7464
  274MOL0     C36884  -0.840   5.486   1.960 -0.8336  0.0072  0.1544
  274MOL0     O36885  -0.970   5.427   1.949  0.3000 -0.1323  0.2119
  274MOL0     C36886  -0.992   5.294   1.986  0.1899 -0.2062  0.9637
  274MOL0     C36887  -0.899   5.187   1.975 -0.1666  0.8268 -1.0252
  274MOL0     C36888  -0.941   5.049   1.973  0.6133 -0.2543 -0.9567
  274MOL0     C36889  -1.077   5.017   1.999  0.3550  0.0523  0.0557
  274MOL0     O36890  -1.104   4.878   2.007 -0.2300  0.0748  0.5190
  274MOL0     C36891  -1.203   4.834   2.098 -0.3339  1.0478 -0.0063
  274MOL0     C36892  -1.173   4.678   2.112  0.1745 -0.9632 -0.6271
  274MOL0     C36893  -1.132   4.632   2.263  0.7034 -1.1017  0.1836
  274MOL0     C36894  -1.153   4.484   2.283  0.7057 -0.0544  0.3993
  274MOL0     C36895  -1.101   4.421   2.403  0.0920 -0.8707 -0.1969
  274MOL0     C36896  -0.954   4.440   2.414  0.3664  0.8967 -0.5894
  274MOL0     C36897  -0.879   4.310   2.451  0.1532  0.6339 -0.5687
  274MOL0     C36898  -0.733   4.318   2.425 -1.0815 -0.2729 -0.6839
  274MOL0    Cl36899  -0.704   4.347   2.255 -0.1682  0.2113 -0.8614
  274MOL0     C36900  -1.169   5.128   2.015  0.1433  0.3073  0.0457
  274MOL0     C36901  -1.129   5.255   1.986 -1.0699 -0.9334 -0.3437
  274MOL0     O36902  -0.747   5.429   2.010 -0.1918  0.0909  0.2737
  274MOL0     C36903  -0.716   5.698   1.933 -0.6348  0.5525  0.0553
  274MOL0     C36904  -0.700   5.826   1.870  0.4427 -0.0779 -0.2734
  274MOL0     N36905  -0.657   6.028   1.112  0.6839 -0.4579 -0.2972
  274MOL0     N36906  -0.619   5.924   1.047  0.0730 -0.3129 -0.4230
  274MOL0     C36907  -0.118   5.222   1.677  0.0228 -0.2521 -0.4746
  274MOL0     C36908   0.021   5.192   1.670 -0.1250  1.2767  0.4632
  274MOL0     C36909   0.412   5.030   1.821  0.3435  0.3044 -0.0295
  274MOL0     C36910   0.452   4.895   1.817  0.3752  0.8575  0.1630
  274MOL0     C36911   0.590   4.856   1.849 -0.4978 -0.3770 -0.6484
  274MOL0     C36912   0.684   4.962   1.874  0.7339  0.7531 -0.0287
  274MOL0     O36913   0.803   4.929   1.933 -0.3886 -0.8041  0.1349
  274MOL0     C36914   0.854   4.800   1.911 -0.2391  0.6496 -0.3319
  274MOL0     C36915   1.006   4.791   1.951 -1.0116 -0.3538 -0.7257
  274MOL0     C36916   1.044   4.865   2.077 -0.5461 -0.3663 -0.9553
  274MOL0     C36917   0.968   4.824   2.203 -0.0481  0.2941 -0.0280
  274MOL0     C36918   1.032   4.917   2.304  0.7607  0.8418 -1.0875
  274MOL0     C36919   1.105   4.958   2.391  0.5311 -0.9705  0.1752
  274MOL0     C36920   0.646   5.099   1.866 -0.8118  0.6802 -0.5251
  274MOL0     C36921   0.506   5.130   1.844  0.0092  0.4001 -0.7799
  274MOL0     C36922   0.471   5.277   1.877 -0.7422 -0.0991 -1.4782
  274MOL0     H36923   0.155   5.401   1.876  1.5374 -0.0149 -1.1448
  274MOL0     H36924  -0.078   5.485   1.877 -0.3698 -0.1488  1.6351
  274MOL0     H36925  -0.257   5.526   1.575 -0.1903  0.2033 -1.7341
  274MOL0     H36926  -0.277   5.353   1.525  0.3215  1.3402 -0.6050
  274MOL0     H36927  -0.496   5.512   1.655 -2.4145 -2.6567  0.7007
  274MOL0     H36928  -0.493   5.365   1.548  2.4343 -0.4335 -1.5162
  274MOL0     H36929  -0.459   5.661   1.476  1.1109 -1.5713  1.3293
  274MOL0     H36930  -0.576   5.547   1.410  0.9406 -1.3585 -2.5913
  274MOL0     H36931  -0.284   5.546   1.336 -0.7511  1.7513  0.2040
  274MOL0     H36932  -0.410   5.415   1.296 -4.8805  1.1011 -0.7434
  274MOL0     H36933  -0.424   5.709   1.212 -1.0345  0.4722  1.2005
  274MOL0     H36934  -0.354   5.584   1.122 -0.5828  0.6387 -0.0501
  274MOL0     H36935  -0.603   5.467   1.151 -1.4468  0.6063 -0.8178
  274MOL0     H36936  -0.647   5.603   1.218 -2.0577 -2.4195 -1.4092
  274MOL0     H36937  -0.609   5.515   0.938  1.4552 -0.7800  2.3704
  274MOL0     H36938  -0.507   5.645   0.949  2.8498 -7.3891 -4.0953
  274MOL0     H36939  -0.753   5.730   0.888  1.2442  0.4201 -0.0803
  274MOL0     H36940  -0.803   5.639   1.027  1.9859  0.1015  0.7581
  274MOL0     H36941  -0.910   5.811   1.136  0.4025 -1.9504 -1.3224
  274MOL0     H36942  -0.881   6.178   1.222  1.1292 -0.0055 -0.6239
  274MOL0     H36943  -0.967   6.036   1.274  0.2214 -0.2123 -1.9347
  274MOL0     H36944  -0.732   6.154   1.403 -1.4073  0.9089 -1.2145
  274MOL0     H36945  -0.892   6.139   1.470  1.1879 -1.3412  2.8261
  274MOL0     H36946  -0.756   5.878   1.407 -1.0458 -0.0340 -1.7037
  274MOL0     H36947  -0.904   5.921   1.489 -0.5152  3.1271 -1.3421
  274MOL0     H36948  -0.650   6.057   1.578 -1.2545  1.1581 -1.8859
  274MOL0     H36949  -0.648   5.879   1.603 -1.1928 -1.1900  2.5394
  274MOL0     H36950  -1.003   5.831   1.709 -3.8307 -0.6837  4.3337
  274MOL0     H36951  -1.019   5.618   1.819  0.3589 -0.2578  1.2037
  274MOL0     H36952  -0.795   5.206   1.953  0.2206 -1.7322 -1.7065
  274MOL0     H36953  -0.867   4.971   1.958  3.0008  1.8976 -1.0736
  274MOL0     H36954  -1.208   4.875   2.199 -2.3572  0.7550  0.0614
  274MOL0     H36955  -1.305   4.852   2.063 -0.2031  2.3141  0.2270
  274MOL0     H36956  -1.263   4.621   2.084 -0.1080 -1.2986  0.8759
  274MOL0     H36957  -1.092   4.639   2.050  0.2648 -3.0307  0.7160
  274MOL0     H36958  -1.032   4.676   2.271  0.2597 -0.4441  3.1614
  274MOL0     H36959  -1.193   4.681   2.339 -0.3897  1.3277 -2.0729
  274MOL0     H36960  -1.110   4.429   2.199  0.3453 -1.1616  0.9237
  274MOL0     H36961  -1.260   4.460   2.279  0.7481 -0.8324  2.4595
  274MOL0     H36962  -1.109   4.312   2.410  2.5111 -1.0247  1.4989
  274MOL0     H36963  -1.153   4.466   2.488  0.9888 -0.7460  0.3073
  274MOL0     H36964  -0.905   4.486   2.328 -1.4940 -1.6663 -3.2513
  274MOL0     H36965  -0.934   4.508   2.496 -4.7884  1.8476  0.2434
  274MOL0     H36966  -0.910   4.225   2.391  2.6065 -1.3078  0.7236
  274MOL0     H36967  -0.900   4.292   2.557 -0.4567 -0.2248 -0.8270
  274MOL0     H36968  -0.681   4.404   2.469  2.8682 -1.0259 -3.2921
  274MOL0     H36969  -0.680   4.225   2.450  0.5006  1.0807  1.3834
  274MOL0     H36970  -1.277   5.121   2.025 -0.1468  0.5083 -2.3706
  274MOL0     H36971  -1.187   5.343   1.961  0.1648 -0.0784 -0.3409
  274MOL0     H36972  -0.631   5.675   1.996 -0.6493  4.3262  1.7352
  274MOL0     H36973  -0.605   5.877   1.870  1.7652 -2.2323 -3.2711
  274MOL0     H36974  -0.187   5.160   1.620 -0.6369 -0.1331  0.1837
  274MOL0     H36975   0.033   5.102   1.609  1.7854  0.0690  2.4597
  274MOL0     H36976   0.384   4.813   1.796 -1.9451  2.2865  1.5768
  274MOL0     H36977   0.617   4.751   1.855  0.7473  0.0070  2.5519
  274MOL0     H36978   0.839   4.754   1.813  3.7501 -0.7815 -0.4193
  274MOL0     H36979   0.790   4.738   1.975  1.4666  0.8200  1.6752
  274MOL0     H36980   1.067   4.832   1.870 -2.5764  0.3842 -1.5903
  274MOL0     H36981   1.036   4.687   1.949  1.8610  0.4091 -2.0552
  274MOL0     H36982   1.039   4.971   2.053 -0.1076 -0.5257 -1.7947
  274MOL0     H36983   1.146   4.833   2.102 -1.0437 -1.1707  0.1003
  274MOL0     H36984   0.860   4.836   2.190 -0.0841 -1.4344 -1.7679
  274MOL0     H36985   0.990   4.721   2.229  2.1022  0.3209 -1.4838
  274MOL0     H36986   1.176   5.016   2.446  2.6680 -1.4129 -1.9382
  274MOL0     H36987   0.728   5.168   1.882 -0.4682  0.2987 -0.6356
  274MOL0     H36988   0.458   5.337   1.787 -1.3940  0.1835 -1.2054
  274MOL0     H36989   0.385   5.285   1.945  0.3438  0.2193 -0.1089
  274MOL0     H36990   0.558   5.319   1.928 -2.5000 -0.4837  2.2264
  275MOL0     O36991   8.288   2.512   7.605  0.2199  0.4065  0.2268
  275MOL0     C36992   8.350   2.464   7.697 -1.5868 -0.8476 -0.6692
  275MOL0     O36993   8.297   2.409   7.809 -0.4682 -0.2047  0.0447
  275MOL0     C36994   8.160   2.415   7.828 -0.1123 -1.3076 -0.2987
  275MOL0     C36995   8.073   2.321   7.779  0.0302  0.1360 -0.0285
  275MOL0     C36996   7.947   2.335   7.806  0.1006 -0.6882 -0.3264
  275MOL0     C36997   7.893   2.449   7.875  0.1936  0.3361 -0.0021
  275MOL0     O36998   7.760   2.474   7.898  0.3405  0.4498  0.4452
  275MOL0     C36999   7.665   2.399   7.821  0.2725 -0.2452  0.7770
  275MOL0     C37000   7.518   2.448   7.833  0.3437 -0.5890  0.2613
  275MOL0     C37001   7.494   2.586   7.763  1.0128  0.6912  0.0970
  275MOL0     C37002   7.355   2.651   7.798  0.3644 -0.7092 -0.0979
  275MOL0     C37003   7.333   2.786   7.734  0.5372 -0.2920  0.3145
  275MOL0     C37004   7.233   2.870   7.810  0.6076 -0.1740  0.3073
  275MOL0     C37005   7.089   2.803   7.812  0.5765  0.0634  0.1450
  275MOL0     C37006   7.010   2.811   7.682 -0.2465  0.6701 -0.6303
  275MOL0     N37007   6.952   2.680   7.650 -0.5360 -0.5849  0.1175
  275MOL0     C37008   7.006   2.599   7.557  0.4324  0.4988  0.3782
  275MOL0     C37009   6.952   2.475   7.585  0.1550 -1.2445  0.8381
  275MOL0     C37010   6.959   2.346   7.503  0.3178  0.3030  0.3396
  275MOL0     C37011   7.094   2.280   7.524  0.5730 -0.2579  0.9159
  275MOL0     C37012   7.165   2.294   7.664 -0.1785  0.1635 -0.1844
  275MOL0     C37013   7.079   2.221   7.760  0.1757  0.2825  0.8628
  275MOL0     O37014   7.150   2.207   7.888  0.4306  0.6161 -0.4310
  275MOL0     C37015   7.164   2.316   7.975  0.2100  0.0906  0.4574
  275MOL0     C37016   7.056   2.411   7.970  0.4601 -0.2600 -1.2882
  275MOL0     C37017   7.065   2.513   8.066 -0.2048 -0.2639  0.5120
  275MOL0     C37018   7.159   2.516   8.169  0.4239  0.4239  0.2827
  275MOL0     C37019   7.141   2.612   8.275 -0.5525 -1.0966 -0.0201
  275MOL0     O37020   7.031   2.689   8.281  0.0907  0.6482 -0.0864
  275MOL0     C37021   7.012   2.784   8.379 -0.9773 -0.6301  0.7148
  275MOL0     C37022   7.119   2.862   8.437 -0.2226  0.2866  0.4483
  275MOL0     C37023   7.088   2.953   8.540 -0.2035  0.1156  0.1595
  275MOL0     C37024   6.971   2.960   8.602  0.0331 -0.4182 -0.2777
  275MOL0     O37025   6.953   3.038   8.709 -0.4443  0.5653 -0.4608
  275MOL0     C37026   6.943   3.172   8.675 -0.4176  0.0332  0.1075
  275MOL0     C37027   6.871   3.259   8.776  0.6324 -0.3041 -0.5811
  275MOL0     C37028   6.949   3.259   8.912  0.1503  0.3405  0.2361
  275MOL0     C37029   7.095   3.303   8.900 -0.3440  0.5740 -0.5906
  275MOL0     C37030   7.163   3.314   9.036 -0.3375 -1.2612  0.1609
  275MOL0     C37031   7.308   3.366   9.025 -0.1090  0.4386 -0.2021
  275MOL0     C37032   7.337   3.490   8.953 -0.2395 -0.5752 -0.6989
  275MOL0     C37033   7.490   3.516   8.945  0.6016 -0.7083  0.5907
  275MOL0    Cl37034   7.523   3.684   8.884  0.4805  0.0171  0.2675
  275MOL0     C37035   6.861   2.902   8.538  0.0497  1.2325  0.1357
  275MOL0     C37036   6.880   2.802   8.431 -0.8668  0.6666 -0.7391
  275MOL0     O37037   7.231   2.609   8.367 -0.1513  0.2402  0.4689
  275MOL0     C37038   7.262   2.421   8.171 -1.0677 -1.0480 -1.3832
  275MOL0     C37039   7.265   2.330   8.071 -0.3732 -0.0631  0.4853
  275MOL0     N37040   6.865   2.493   7.691  0.4550 -0.0994  0.0796
  275MOL0     N37041   6.852   2.618   7.718 -0.4783  0.0800 -0.9063
  275MOL0     C37042   7.977   2.549   7.920 -0.8395 -0.1656  0.3642
  275MOL0     C37043   8.114   2.530   7.899  0.0642  0.3358  0.0534
  275MOL0     C37044   8.497   2.482   7.696  0.1159  0.3662 -0.6533
  275MOL0     C37045   8.560   2.483   7.820  0.4822  0.3241 -0.0524
  275MOL0     C37046   8.696   2.475   7.835 -0.1211  0.6284 -0.5599
  275MOL0     C37047   8.776   2.497   7.723 -0.5285  0.6536  0.1063
  275MOL0     O37048   8.908   2.491   7.756 -0.3834 -0.9052  0.4608
  275MOL0     C37049   9.007   2.485   7.654  1.0931  0.5276  0.2286
  275MOL0     C37050   9.144   2.473   7.710 -0.7095  1.1392  0.8371
  275MOL0     C37051   9.147   2.383   7.823 -0.4379  0.5371  0.1472
  275MOL0     C37052   9.280   2.319   7.858 -0.3133 -0.3168  0.2013
  275MOL0     C37053   9.331   2.225   7.761 -0.5804  0.6553  0.3166
  275MOL0     C37054   9.378   2.134   7.693 -0.8551 -0.3496  0.1850
  275MOL0     C37055   8.716   2.521   7.596  0.2330 -0.3443 -0.0997
  275MOL0     C37056   8.576   2.507   7.579 -0.6932 -0.0771  0.0257
  275MOL0     C37057   8.527   2.492   7.438 -1.4801  0.3916 -0.2568
  275MOL0     H37058   8.115   2.248   7.710 -0.0971  1.2414 -1.3231
  275MOL0     H37059   7.885   2.259   7.762  3.4620 -2.8358 -1.6945
  275MOL0     H37060   7.694   2.402   7.716  0.1614  0.6781  0.7590
  275MOL0     H37061   7.671   2.294   7.851 -1.1596  0.2307  2.9657
  275MOL0     H37062   7.472   2.434   7.931  1.9700  0.8081  1.2882
  275MOL0     H37063   7.466   2.376   7.770 -4.3445  1.6507  1.1898
  275MOL0     H37064   7.492   2.559   7.657 -2.2600 -0.7431  0.3892
  275MOL0     H37065   7.572   2.660   7.784 -0.4542  1.7101  2.5544
  275MOL0     H37066   7.268   2.593   7.767 -2.9738  1.8927  3.3263
  275MOL0     H37067   7.344   2.675   7.904 -2.5678  1.4852 -0.7723
  275MOL0     H37068   7.423   2.844   7.759  0.3737  0.7868 -1.4652
  275MOL0     H37069   7.318   2.776   7.626 -5.8580 -0.0293  0.8059
  275MOL0     H37070   7.260   2.886   7.915  2.3823  2.6233 -0.4541
  275MOL0     H37071   7.228   2.969   7.765  2.7446  0.0162  0.3746
  275MOL0     H37072   7.036   2.871   7.880 -1.2821 -0.9921 -0.1748
  275MOL0     H37073   7.079   2.700   7.847  0.3321 -0.5144 -1.5639
  275MOL0     H37074   6.929   2.880   7.704  2.3375  3.5912  0.3983
  275MOL0     H37075   7.072   2.847   7.599 -0.4843  1.5928 -0.4097
  275MOL0     H37076   7.067   2.629   7.472 -0.4312 -0.4900 -0.6266
  275MOL0     H37077   6.883   2.280   7.545  1.9685 -0.9233  1.5195
  275MOL0     H37078   6.947   2.373   7.397  5.4125 -1.6926 -1.0138
  275MOL0     H37079   7.076   2.175   7.501  3.9287 -1.4628  3.0910
  275MOL0     H37080   7.170   2.309   7.449 -0.0682  0.7490  0.6327
  275MOL0     H37081   7.185   2.397   7.698 -0.8441  0.2377 -0.0190
  275MOL0     H37082   7.262   2.243   7.656 -0.3808 -0.7018  2.1054
  275MOL0     H37083   7.070   2.121   7.718  0.4241  0.7879 -0.4477
  275MOL0     H37084   6.979   2.267   7.762 -0.9765 -1.6921 -2.4998
  275MOL0     H37085   6.959   2.419   7.921 -0.6827  0.3191  0.8932
  275MOL0     H37086   6.980   2.579   8.074 -0.1023  0.3378 -2.3707
  275MOL0     H37087   7.223   2.846   8.413 -0.2581  1.9751 -1.0794
  275MOL0     H37088   7.172   3.005   8.585  1.8183 -3.1844  0.5855
  275MOL0     H37089   7.044   3.213   8.666  1.3285 -2.8838  3.6820
  275MOL0     H37090   6.891   3.202   8.584 -0.4819  1.2030  0.5110
  275MOL0     H37091   6.846   3.362   8.746  1.5610 -0.0253 -0.4226
  275MOL0     H37092   6.775   3.210   8.792  1.7968 -1.5601  4.0466
  275MOL0     H37093   6.896   3.335   8.970 -0.3896  0.6568 -0.6621
  275MOL0     H37094   6.933   3.166   8.967 -4.6531  0.8684  0.1687
  275MOL0     H37095   7.092   3.400   8.850  0.7761  0.0045 -1.8081
  275MOL0     H37096   7.154   3.224   8.854  0.2771  0.0058  1.0881
  275MOL0     H37097   7.178   3.214   9.078  0.3626 -0.5487  1.6583
  275MOL0     H37098   7.114   3.375   9.112  2.6561 -0.8333  1.9023
  275MOL0     H37099   7.350   3.378   9.126  2.8961  2.6725 -1.5683
  275MOL0     H37100   7.368   3.290   8.973 -0.1115  0.8198 -0.7616
  275MOL0     H37101   7.293   3.575   9.006 -0.6914 -1.1474 -0.1495
  275MOL0     H37102   7.294   3.487   8.852  0.0657 -2.2111 -0.8094
  275MOL0     H37103   7.527   3.513   9.048 -1.1381 -2.4311  1.2205
  275MOL0     H37104   7.548   3.437   8.896  0.9242  0.0309 -0.2476
  275MOL0     H37105   6.767   2.927   8.586  0.3996 -1.3370  2.4393
  275MOL0     H37106   6.803   2.739   8.387 -0.7958 -0.2453  0.3845
  275MOL0     H37107   7.340   2.438   8.244 -1.4689 -0.5357 -1.0720
  275MOL0     H37108   7.339   2.250   8.070 -0.6244 -0.2959 -0.4369
  275MOL0     H37109   7.943   2.630   7.983  1.1354  0.6975  0.3829
  275MOL0     H37110   8.184   2.607   7.930 -0.0147  0.2403  0.4773
  275MOL0     H37111   8.505   2.474   7.913  2.9086 -1.3233  1.3372
  275MOL0     H37112   8.745   2.456   7.929 -1.9888  1.3418  0.6109
  275MOL0     H37113   9.002   2.571   7.586  0.6625  0.6752  0.4385
  275MOL0     H37114   8.981   2.396   7.597  1.0239 -2.2267  4.1955
  275MOL0     H37115   9.191   2.567   7.741  2.9109  0.2203 -1.2449
  275MOL0     H37116   9.211   2.448   7.628 -1.6743  2.9038 -0.5620
  275MOL0     H37117   9.081   2.297   7.804 -1.0154  1.3508 -1.7997
  275MOL0     H37118   9.114   2.436   7.913 -0.1334 -0.2331  0.7297
  275MOL0     H37119   9.357   2.396   7.866  2.4288 -2.8057 -0.5405
  275MOL0     H37120   9.279   2.264   7.953 -0.4976 -0.0087  0.3786
  275MOL0     H37121   9.408   2.057   7.625 -1.3609 -1.4677  1.2008
  275MOL0     H37122   8.777   2.519   7.506 -2.6317 -2.8032 -2.1633
  275MOL0     H37123   8.529   2.388   7.403 -2.9787  0.5657 -0.9522
  275MOL0     H37124   8.434   2.549   7.424 -1.0290  1.8639  2.2883
  275MOL0     H37125   8.592   2.552   7.373 -0.2556 -1.7656 -1.1074
  276MOL0     O37126   8.211   1.624   4.253  0.2248 -0.2663  0.4028
  276MOL0     C37127   8.221   1.740   4.223 -0.7615 -0.3609  0.3521
  276MOL0     O37128   8.293   1.792   4.111 -0.0722  0.0826  0.2556
  276MOL0     C37129   8.348   1.709   4.014 -0.4875 -0.3346 -1.5372
  276MOL0     C37130   8.419   1.594   4.045  0.4435 -1.2894 -0.3701
  276MOL0     C37131   8.469   1.516   3.947 -0.7918  0.5109 -0.1313
  276MOL0     C37132   8.462   1.556   3.812  0.4203  0.1794  0.0414
  276MOL0     O37133   8.530   1.485   3.714 -1.1829  0.7690  0.0669
  276MOL0     C37134   8.590   1.361   3.749  0.1529  0.3285 -0.2736
  276MOL0     C37135   8.496   1.242   3.738 -0.0370  0.5380 -0.5228
  276MOL0     C37136   8.569   1.107   3.751 -0.7735 -0.0116  0.0720
  276MOL0     C37137   8.478   0.985   3.747 -0.0355  0.2313 -0.5263
  276MOL0     C37138   8.551   0.850   3.736  0.9759 -0.3197  0.2172
  276MOL0     C37139   8.461   0.741   3.787 -0.1597 -0.5592  0.3043
  276MOL0     C37140   8.323   0.740   3.732 -0.5890  0.9910 -0.1151
  276MOL0     C37141   8.259   0.613   3.792  0.3164  0.6586  0.7551
  276MOL0     N37142   8.128   0.583   3.731 -0.5102  0.3558 -0.2272
  276MOL0     C37143   8.012   0.638   3.767 -0.7148 -0.4745 -0.3369
  276MOL0     C37144   7.924   0.592   3.675  0.3675  0.1415  0.1958
  276MOL0     C37145   7.773   0.633   3.660  0.0301  0.1086 -0.9389
  276MOL0     C37146   7.695   0.536   3.745  0.5878 -0.8651  0.4186
  276MOL0     C37147   7.546   0.561   3.740  0.0977 -0.1353  0.0084
  276MOL0     C37148   7.467   0.458   3.820 -0.6386  0.0170  0.6040
  276MOL0     O37149   7.456   0.333   3.751  0.4115  0.5716 -0.0746
  276MOL0     C37150   7.410   0.225   3.825  0.7786  0.7125 -0.3298
  276MOL0     C37151   7.322   0.232   3.939 -0.5888 -0.2908  0.7577
  276MOL0     C37152   7.260   0.123   3.995  0.2350  0.5943  0.1648
  276MOL0     C37153   7.280  -0.010   3.945  0.4061 -0.4083  0.7213
  276MOL0     C37154   7.205  -0.124   3.986  0.3745 -0.2169  0.3223
  276MOL0     O37155   7.193  -0.229   3.905 -0.9353  0.0335 -0.2053
  276MOL0     C37156   7.129  -0.346   3.939 -0.2982  0.8177 -0.1074
  276MOL0     C37157   7.105  -0.391   4.063  0.0838  0.3657  0.4718
  276MOL0     C37158   7.033  -0.513   4.077  0.5779  0.0949 -1.0037
  276MOL0     C37159   6.991  -0.598   3.969 -0.7640  0.1121 -0.0885
  276MOL0     O37160   6.934  -0.716   4.004  0.6046  0.3088  0.0645
  276MOL0     C37161   6.953  -0.822   3.912  0.0587  0.4755 -0.5420
  276MOL0     C37162   6.829  -0.851   3.819 -0.6930 -0.6057  0.7075
  276MOL0     C37163   6.873  -0.985   3.744 -0.4178  0.9047 -1.2314
  276MOL0     C37164   6.763  -1.053   3.666  0.2020  0.3959  0.6870
  276MOL0     C37165   6.739  -0.988   3.528  0.9959 -0.9849  0.4428
  276MOL0     C37166   6.616  -1.054   3.463 -0.5853 -0.3912  0.1622
  276MOL0     C37167   6.580  -0.973   3.338 -1.3327  0.0485  0.3360
  276MOL0     C37168   6.435  -0.992   3.289  0.3782  0.2815 -0.2285
  276MOL0    Cl37169   6.382  -1.161   3.315  0.3102  0.2936  0.2059
  276MOL0     C37170   7.029  -0.547   3.840  1.3000  1.3952 -0.0968
  276MOL0     C37171   7.096  -0.421   3.832 -0.2763 -0.6827 -0.5660
  276MOL0     O37172   7.143  -0.110   4.088 -0.2099  0.9264 -0.5558
  276MOL0     C37173   7.378  -0.017   3.831 -0.5762 -1.0360 -0.1985
  276MOL0     C37174   7.437   0.098   3.776 -0.3026 -1.0009  0.6647
  276MOL0     N37175   7.983   0.512   3.582  0.4842  0.2528 -0.2009
  276MOL0     N37176   8.109   0.507   3.618 -0.3050  0.8609 -0.4726
  276MOL0     C37177   8.374   1.654   3.774  0.0626  0.0090 -0.3219
  276MOL0     C37178   8.329   1.732   3.880 -0.1427  0.1804  1.6848
  276MOL0     C37179   8.135   1.847   4.299 -0.3105 -0.0149  0.2070
  276MOL0     C37180   8.118   1.971   4.235 -0.2327  0.1989 -0.1899
  276MOL0     C37181   8.049   2.074   4.292 -0.4178 -0.3713 -0.1895
  276MOL0     C37182   7.971   2.062   4.408 -0.1022  0.9034 -0.3165
  276MOL0     O37183   7.901   2.163   4.472 -0.3470 -0.5584 -0.6592
  276MOL0     C37184   7.846   2.279   4.411 -0.8188  1.2751 -0.2562
  276MOL0     C37185   7.936   2.403   4.416  0.1156  0.2270  0.2493
  276MOL0     C37186   7.973   2.419   4.570 -0.3163  0.1767  0.0439
  276MOL0     C37187   8.051   2.554   4.585  1.2889 -0.4246  0.9671
  276MOL0     C37188   7.966   2.678   4.588  0.1638 -0.0713 -0.3486
  276MOL0     C37189   7.877   2.760   4.578  0.1749 -1.9425  0.0872
  276MOL0     C37190   7.981   1.934   4.469  0.6937  0.5752  0.1920
  276MOL0     C37191   8.070   1.834   4.426  0.5731  0.0339  0.2586
  276MOL0     C37192   8.081   1.707   4.501  0.4717 -0.4728  0.9422
  276MOL0     H37193   8.449   1.570   4.146  0.9385 -2.5654 -0.8002
  276MOL0     H37194   8.508   1.424   3.988 -0.3167  1.7587  2.3774
  276MOL0     H37195   8.670   1.371   3.675  2.6409  2.8505  2.5087
  276MOL0     H37196   8.635   1.347   3.848  0.7720  1.5689 -0.3535
  276MOL0     H37197   8.449   1.255   3.640 -0.3597  0.8556 -0.3331
  276MOL0     H37198   8.410   1.240   3.806 -0.8196 -2.7061 -1.4400
  276MOL0     H37199   8.633   1.106   3.840  2.8133 -0.1600 -2.2642
  276MOL0     H37200   8.638   1.089   3.667  0.0505  0.0504  0.7258
  276MOL0     H37201   8.405   0.988   3.829  1.5608  4.8995  1.0538
  276MOL0     H37202   8.414   0.993   3.659 -2.8823  1.1170  1.4496
  276MOL0     H37203   8.575   0.825   3.632  0.1226  0.0877 -0.0906
  276MOL0     H37204   8.653   0.837   3.773  1.1358 -1.5317 -0.6137
  276MOL0     H37205   8.522   0.650   3.781  4.2472  1.9390  1.8566
  276MOL0     H37206   8.454   0.749   3.896  0.6800  0.1753  0.3205
  276MOL0     H37207   8.340   0.731   3.624  1.9139 -0.9364  0.3342
  276MOL0     H37208   8.265   0.830   3.753 -0.8046  0.9971 -0.7115
  276MOL0     H37209   8.325   0.531   3.763 -1.5776 -0.5122 -0.4651
  276MOL0     H37210   8.252   0.620   3.901 -0.2331 -3.0074  1.0699
  276MOL0     H37211   7.986   0.708   3.845  1.5377  1.7464 -1.4291
  276MOL0     H37212   7.755   0.734   3.697 -1.8496 -0.1733 -0.9671
  276MOL0     H37213   7.743   0.628   3.555 -0.9678  1.4444 -0.7420
  276MOL0     H37214   7.703   0.433   3.708 -1.2068 -0.6786 -0.6502
  276MOL0     H37215   7.725   0.541   3.850  0.0472  1.5425  0.5222
  276MOL0     H37216   7.522   0.544   3.635  0.7094 -2.0589  0.1400
  276MOL0     H37217   7.517   0.662   3.771  2.0882 -0.1293  2.0885
  276MOL0     H37218   7.369   0.494   3.853  0.0376  2.0350  0.5274
  276MOL0     H37219   7.522   0.447   3.914 -1.1413 -1.4847  0.7530
  276MOL0     H37220   7.292   0.330   3.974  0.2975 -0.7323  2.8711
  276MOL0     H37221   7.189   0.150   4.072  0.4073  1.9043 -0.1086
  276MOL0     H37222   7.146  -0.346   4.153 -0.2181  1.9561 -0.1687
  276MOL0     H37223   7.005  -0.529   4.181  1.3124  3.2828 -0.2081
  276MOL0     H37224   7.049  -0.808   3.862  0.3642  1.4498  0.2737
  276MOL0     H37225   6.961  -0.913   3.971  1.6463 -0.8121 -2.6033
  276MOL0     H37226   6.729  -0.851   3.862 -2.1950  1.8464 -2.3689
  276MOL0     H37227   6.815  -0.772   3.745  0.0888 -0.8384  0.2984
  276MOL0     H37228   6.960  -0.984   3.677  3.4788 -1.7947  3.1307
  276MOL0     H37229   6.902  -1.058   3.821  0.7787 -0.7317 -3.1545
  276MOL0     H37230   6.669  -1.057   3.722 -0.5018 -0.7682 -0.5203
  276MOL0     H37231   6.793  -1.159   3.664 -0.6140  0.1507 -1.8420
  276MOL0     H37232   6.826  -1.003   3.463  0.1064 -1.0902 -0.7324
  276MOL0     H37233   6.719  -0.882   3.547 -0.3414 -1.4129  1.5832
  276MOL0     H37234   6.638  -1.153   3.424 -0.4503  0.2031 -1.3190
  276MOL0     H37235   6.530  -1.055   3.532  1.7177  2.3440  3.4441
  276MOL0     H37236   6.649  -0.989   3.255 -1.0481  0.5447  0.4691
  276MOL0     H37237   6.582  -0.864   3.353 -0.8471  0.1255 -0.2548
  276MOL0     H37238   6.370  -0.930   3.352  2.2293 -0.5754  2.6926
  276MOL0     H37239   6.429  -0.946   3.189  0.3827  0.8532  0.0276
  276MOL0     H37240   6.989  -0.598   3.753  2.1246 -1.1381  0.8997
  276MOL0     H37241   7.115  -0.389   3.730  1.4931 -0.0777 -0.0838
  276MOL0     H37242   7.394  -0.117   3.792  0.0411 -0.5052 -1.3933
  276MOL0     H37243   7.503   0.094   3.690  0.9928  2.1174  1.4019
  276MOL0     H37244   8.348   1.679   3.671 -0.9118 -2.1966 -0.6806
  276MOL0     H37245   8.265   1.812   3.844  1.9878  0.9410 -0.6085
  276MOL0     H37246   8.160   1.984   4.136 -1.5998 -0.7504 -0.9244
  276MOL0     H37247   8.036   2.173   4.250 -0.9876 -0.0386  0.7424
  276MOL0     H37248   7.748   2.305   4.452 -0.5574  2.2435 -0.2321
  276MOL0     H37249   7.826   2.247   4.309  0.8891 -0.8848 -0.0070
  276MOL0     H37250   7.876   2.487   4.378 -0.1523  0.6100  1.4459
  276MOL0     H37251   8.028   2.398   4.359  0.2442 -1.5670  0.5688
  276MOL0     H37252   8.039   2.339   4.604 -0.3961  0.5669  1.1470
  276MOL0     H37253   7.891   2.422   4.642 -0.2917  1.8146  0.0316
  276MOL0     H37254   8.092   2.561   4.686  1.0938 -1.0492  1.0970
  276MOL0     H37255   8.117   2.567   4.499 -0.2356 -2.5007 -0.6223
  276MOL0     H37256   7.789   2.819   4.563  1.2130  0.3857  2.3061
  276MOL0     H37257   7.920   1.930   4.559  0.4182  1.7241  0.0767
  276MOL0     H37258   8.025   1.721   4.594 -4.6396  1.0251 -1.9763
  276MOL0     H37259   8.034   1.625   4.447 -0.0827 -1.2818  2.5664
  276MOL0     H37260   8.184   1.674   4.515  0.6715 -0.7700 -1.0121
  277MOL0     O37261   3.068   8.920   6.658 -0.5739  0.4903  0.3842
  277MOL0     C37262   2.981   8.985   6.603  0.6337  0.5642 -0.3156
  277MOL0     O37263   2.999   9.068   6.502 -0.2495  0.3970  0.0539
  277MOL0     C37264   3.130   9.111   6.464  0.6627  0.0656 -0.1142
  277MOL0     C37265   3.137   9.170   6.335 -0.6394  0.4984 -0.2609
  277MOL0     C37266   3.253   9.200   6.276  0.4932 -1.1601  0.3197
  277MOL0     C37267   3.372   9.186   6.345  1.1125 -0.1427  0.3666
  277MOL0     O37268   3.490   9.204   6.289  0.1887  0.4023 -0.5928
  277MOL0     C37269   3.569   9.085   6.277 -0.3825 -0.2659 -0.1604
  277MOL0     C37270   3.726   9.131   6.252 -0.2667  0.9946  0.3748
  277MOL0     C37271   3.741   9.171   6.107  1.0693  0.3763 -0.7889
  277MOL0     C37272   3.893   9.194   6.077 -0.0606  0.4248  0.0852
  277MOL0     C37273   3.915   9.178   5.928 -0.1439  0.3411 -0.6050
  277MOL0     C37274   4.062   9.188   5.890  1.3010 -0.4197 -0.5420
  277MOL0     C37275   4.091   9.155   5.746  0.4536  0.4018 -0.5391
  277MOL0     C37276   4.051   9.007   5.724  0.1097  0.3252  0.4155
  277MOL0     N37277   4.092   8.960   5.602  0.2385  0.5410  0.3586
  277MOL0     C37278   4.028   8.867   5.526  0.0957  0.7076  0.0536
  277MOL0     C37279   4.100   8.847   5.420  0.0804 -0.2952  0.7232
  277MOL0     C37280   4.067   8.745   5.305 -1.1234  0.2520  0.5782
  277MOL0     C37281   4.178   8.646   5.289 -0.0333 -0.6265 -0.0694
  277MOL0     C37282   4.173   8.557   5.162 -1.3376  0.6893 -0.5423
  277MOL0     C37283   4.257   8.429   5.174  0.0205  0.5520 -0.4026
  277MOL0     O37284   4.396   8.444   5.185 -0.0207 -0.2130 -0.3128
  277MOL0     C37285   4.473   8.325   5.204  1.6003  0.1783  0.6454
  277MOL0     C37286   4.602   8.342   5.181  0.3436 -0.2194 -0.0404
  277MOL0     C37287   4.690   8.232   5.180  0.4641  0.1983  0.2701
  277MOL0     C37288   4.646   8.096   5.217  0.2473  0.0063 -0.0507
  277MOL0     C37289   4.743   7.986   5.254  0.1406  0.4311 -1.6087
  277MOL0     O37290   4.860   7.996   5.195 -0.4289 -0.6203  0.6053
  277MOL0     C37291   4.960   7.913   5.248  0.4016 -0.0551  0.6396
  277MOL0     C37292   4.958   7.773   5.228 -0.3982  0.4822  0.7550
  277MOL0     C37293   5.052   7.687   5.288 -0.0109 -0.1076 -0.2071
  277MOL0     C37294   5.148   7.750   5.368  0.0634 -0.6190  0.3330
  277MOL0     O37295   5.226   7.684   5.463  0.5030  0.8227  0.2623
  277MOL0     C37296   5.251   7.543   5.447  0.3695  0.2451  0.2296
  277MOL0     C37297   5.355   7.506   5.558 -0.0588  0.2841 -0.2256
  277MOL0     C37298   5.329   7.549   5.704  0.2710  0.1356 -0.8167
  277MOL0     C37299   5.199   7.480   5.750  0.8081  0.0894 -0.7278
  277MOL0     C37300   5.155   7.548   5.884 -0.3014 -0.2945 -0.9134
  277MOL0     C37301   5.274   7.558   5.990  0.4508  0.4023  0.1807
  277MOL0     C37302   5.214   7.592   6.124  0.9206 -0.2330 -0.0179
  277MOL0     C37303   5.325   7.615   6.228  0.1078  0.5372 -0.3684
  277MOL0    Cl37304   5.250   7.609   6.392  0.4231  0.1306  0.4022
  277MOL0     C37305   5.155   7.887   5.381 -0.0433  0.1943 -0.3598
  277MOL0     C37306   5.066   7.973   5.318 -0.5234  0.8927  0.8741
  277MOL0     O37307   4.705   7.901   5.332 -0.0567  0.9764 -0.0685
  277MOL0     C37308   4.508   8.088   5.245 -0.8920  0.2745 -0.1993
  277MOL0     C37309   4.423   8.200   5.228  0.7364  0.1860  0.2888
  277MOL0     N37310   4.209   8.934   5.431  0.5265 -0.0433 -0.3508
  277MOL0     N37311   4.209   8.986   5.548  0.2115 -0.0726 -0.1295
  277MOL0     C37312   3.373   9.139   6.480  0.2929  0.1116  1.2276
  277MOL0     C37313   3.248   9.111   6.545 -0.7645  0.5864  0.6724
  277MOL0     C37314   2.838   8.972   6.651 -0.6050 -0.3886 -0.0799
  277MOL0     C37315   2.732   8.972   6.553 -0.3396 -0.4399 -0.6996
  277MOL0     C37316   2.595   8.966   6.589 -0.3046 -0.9389 -0.5001
  277MOL0     C37317   2.561   8.951   6.731  0.6906 -1.3056  0.9778
  277MOL0     O37318   2.441   8.932   6.777  0.3743 -0.6353  1.1413
  277MOL0     C37319   2.429   8.821   6.870 -0.5813 -0.4274  0.3835
  277MOL0     C37320   2.325   8.728   6.828  0.7302  1.4146 -1.1280
  277MOL0     C37321   2.303   8.634   6.942 -0.5899  0.8450  0.2168
  277MOL0     C37322   2.186   8.549   6.911 -0.3557  0.2984 -0.4334
  277MOL0     C37323   2.117   8.504   7.032  0.1634 -0.0882  0.0932
  277MOL0     C37324   2.058   8.456   7.129  0.5642  0.3876  0.1056
  277MOL0     C37325   2.667   8.950   6.823 -0.4513  0.8307 -0.0683
  277MOL0     C37326   2.800   8.969   6.791  0.1014 -0.0269  0.8204
  277MOL0     C37327   2.899   8.987   6.904  0.6067 -0.8824  0.1119
  277MOL0     H37328   3.040   9.202   6.299 -2.3882 -1.0322  2.6824
  277MOL0     H37329   3.257   9.247   6.178 -0.2655 -0.0124  0.8109
  277MOL0     H37330   3.578   9.030   6.371 -0.4047  1.0286  0.6232
  277MOL0     H37331   3.526   9.030   6.193  1.2775 -0.4243 -0.9509
  277MOL0     H37332   3.791   9.044   6.260 -1.6739 -0.3874 -2.1104
  277MOL0     H37333   3.760   9.198   6.332 -1.1640 -1.1517  2.6963
  277MOL0     H37334   3.682   9.260   6.084  0.8060  0.4900  0.2379
  277MOL0     H37335   3.703   9.086   6.049  1.2593 -1.0372  1.0554
  277MOL0     H37336   3.915   9.292   6.121  0.6697  0.5870 -0.5983
  277MOL0     H37337   3.957   9.124   6.132  0.2266  1.4658  1.1088
  277MOL0     H37338   3.873   9.082   5.898 -0.1378  0.9719 -2.7890
  277MOL0     H37339   3.845   9.251   5.887 -1.7792 -0.7042  0.2287
  277MOL0     H37340   4.097   9.286   5.924  0.1291 -0.8782  2.3266
  277MOL0     H37341   4.105   9.115   5.960 -1.7641 -1.9408 -0.0273
  277MOL0     H37342   4.196   9.174   5.722  0.2019 -0.8787 -2.9777
  277MOL0     H37343   4.034   9.221   5.681  0.5628  4.8841  3.3104
  277MOL0     H37344   4.104   8.943   5.796 -0.4476  0.4843  0.9780
  277MOL0     H37345   3.942   9.006   5.727  0.0871  0.2399 -0.3429
  277MOL0     H37346   3.937   8.817   5.556  3.0592 -2.8777  4.3803
  277MOL0     H37347   3.974   8.688   5.316 -0.1375 -2.1725 -2.1926
  277MOL0     H37348   4.064   8.801   5.212  0.0992 -2.7307 -1.4250
  277MOL0     H37349   4.273   8.699   5.284 -0.4684  0.1419 -0.3614
  277MOL0     H37350   4.178   8.579   5.376  1.6406 -2.2691 -1.2557
  277MOL0     H37351   4.207   8.607   5.071 -1.5319 -1.1988 -1.6922
  277MOL0     H37352   4.070   8.522   5.147 -1.8116  1.9634 -0.4563
  277MOL0     H37353   4.240   8.360   5.091  1.1936 -2.3092  1.5402
  277MOL0     H37354   4.216   8.383   5.265  1.6440  1.1198  0.6833
  277MOL0     H37355   4.642   8.442   5.164 -0.6347  0.0055 -1.1644
  277MOL0     H37356   4.792   8.248   5.146  0.4104  0.0442  0.0400
  277MOL0     H37357   4.873   7.733   5.173  0.0934  2.4610 -1.6746
  277MOL0     H37358   5.047   7.580   5.270 -1.8598  0.4380 -3.7742
  277MOL0     H37359   5.158   7.490   5.469 -2.0676  2.2738 -3.9357
  277MOL0     H37360   5.289   7.511   5.349  0.5204 -0.7174  0.5917
  277MOL0     H37361   5.369   7.397   5.567 -0.2944  0.2999  0.4286
  277MOL0     H37362   5.453   7.549   5.536 -0.3015 -0.6580 -3.7800
  277MOL0     H37363   5.418   7.519   5.760  1.2082 -2.3773 -3.4136
  277MOL0     H37364   5.318   7.656   5.720  0.8914  0.3721 -1.9011
  277MOL0     H37365   5.213   7.372   5.761  0.1603  0.0434 -0.3329
  277MOL0     H37366   5.122   7.500   5.676  0.3806  0.9205 -0.0785
  277MOL0     H37367   5.086   7.479   5.933  1.6435 -1.3514  0.5019
  277MOL0     H37368   5.111   7.647   5.871 -3.5923 -1.7317 -1.6045
  277MOL0     H37369   5.336   7.468   5.996 -0.8450 -0.5351 -0.1161
  277MOL0     H37370   5.351   7.627   5.951  1.0900 -2.6026 -4.8366
  277MOL0     H37371   5.149   7.511   6.159 -1.3593  1.5735  0.1330
  277MOL0     H37372   5.166   7.690   6.117 -4.1229 -2.3912  0.1661
  277MOL0     H37373   5.392   7.529   6.221 -1.0590 -0.7748  2.7262
  277MOL0     H37374   5.374   7.710   6.203  0.8323  0.5176  0.8875
  277MOL0     H37375   5.230   7.933   5.444 -0.6020 -0.1533  0.5730
  277MOL0     H37376   5.065   8.080   5.334 -2.2185  0.9134  0.8084
  277MOL0     H37377   4.459   7.995   5.274 -0.1759 -1.4877 -4.0060
  277MOL0     H37378   4.318   8.183   5.252  1.3348 -1.8983  1.6324
  277MOL0     H37379   3.469   9.133   6.531  1.0333 -1.3167 -0.2181
  277MOL0     H37380   3.251   9.061   6.641  1.0060  2.0183  1.4204
  277MOL0     H37381   2.771   8.986   6.452  2.7220 -0.9641  0.3208
  277MOL0     H37382   2.525   8.979   6.507  0.7090  2.6071 -1.0074
  277MOL0     H37383   2.399   8.861   6.967 -1.7162 -0.4554  0.0541
  277MOL0     H37384   2.523   8.769   6.891  0.4884  1.0345 -0.5708
  277MOL0     H37385   2.351   8.668   6.740 -0.9061 -0.3534 -0.4797
  277MOL0     H37386   2.228   8.776   6.814  0.3004  1.6964  2.1062
  277MOL0     H37387   2.292   8.690   7.036 -0.2958 -1.3680  1.6410
  277MOL0     H37388   2.394   8.576   6.959  1.3376  3.6340  0.1700
  277MOL0     H37389   2.117   8.590   6.837 -1.3268  1.1216  0.8760
  277MOL0     H37390   2.230   8.460   6.866  2.7770  1.9791 -0.9950
  277MOL0     H37391   2.002   8.414   7.210  0.4319 -1.0026 -0.6858
  277MOL0     H37392   2.650   8.935   6.929 -1.9497  1.6752 -0.1585
  277MOL0     H37393   2.955   8.893   6.912  1.1843 -0.5096  0.4819
  277MOL0     H37394   2.973   9.062   6.877 -2.4259  3.0943  1.7545
  277MOL0     H37395   2.857   9.015   7.001 -1.3477  0.1210 -0.9485
  278MOL0     O37396   7.281   3.586  10.932 -0.3185 -0.6497 -0.1013
  278MOL0     C37397   7.245   3.663  11.022  0.1881  0.1666 -0.7783
  278MOL0     O37398   7.118   3.694  11.065  0.6112  0.0688 -0.3069
  278MOL0     C37399   7.014   3.606  11.031 -1.7029  0.2261 -0.1855
  278MOL0     C37400   6.901   3.665  10.982 -0.3576  0.6438  0.0380
  278MOL0     C37401   6.791   3.582  10.965 -0.1775 -0.2594 -0.3515
  278MOL0     C37402   6.788   3.449  11.006 -0.1241 -0.7146 -0.0106
  278MOL0     O37403   6.670   3.378  10.993  0.6026 -0.0291 -0.0611
  278MOL0     C37404   6.598   3.382  11.119  0.0681 -0.1505  0.8090
  278MOL0     C37405   6.518   3.247  11.130  0.5821  0.2334 -0.5426
  278MOL0     C37406   6.466   3.231  11.276 -1.0203  0.9410  0.6438
  278MOL0     C37407   6.317   3.178  11.284 -0.1858 -0.3488 -0.5080
  278MOL0     C37408   6.215   3.286  11.323  0.0398  0.5602  0.9945
  278MOL0     C37409   6.226   3.416  11.236  0.3447  0.3942  0.3027
  278MOL0     C37410   6.188   3.543  11.313  0.1484 -0.5894  0.3147
  278MOL0     C37411   6.292   3.627  11.397  0.6076 -0.6383  0.1546
  278MOL0     N37412   6.248   3.766  11.419 -0.3812  0.4582  0.3458
  278MOL0     C37413   6.263   3.862  11.322 -0.0311  0.4325 -0.6359
  278MOL0     C37414   6.211   3.968  11.378 -0.6754 -0.5664 -0.1283
  278MOL0     C37415   6.212   4.099  11.304 -0.1496  0.0958 -0.1504
  278MOL0     C37416   6.165   4.208  11.390  0.2272 -0.2576 -1.2691
  278MOL0     C37417   6.187   4.350  11.322  0.3917  0.0186 -0.0946
  278MOL0     C37418   6.163   4.463  11.420 -0.1606 -0.1959 -0.6416
  278MOL0     O37419   6.127   4.576  11.339 -0.7063 -0.1485  0.4046
  278MOL0     C37420   6.069   4.687  11.396 -0.3209  0.7446  0.2720
  278MOL0     C37421   6.017   4.781  11.308 -0.0978 -0.9705 -0.4981
  278MOL0     C37422   5.962   4.903  11.354 -0.1220  0.4207  0.3770
  278MOL0     C37423   5.940   4.929  11.482 -0.7502 -0.0937  0.0478
  278MOL0     C37424   5.855   5.045  11.517  0.0277 -0.2527  0.3932
  278MOL0     O37425   5.781   5.099  11.419  0.6121  0.0272  0.6753
  278MOL0     C37426   5.681   5.187  11.440  0.3876  0.2291 -0.6176
  278MOL0     C37427   5.626   5.268  11.329 -0.0834  0.4973  0.2855
  278MOL0     C37428   5.521   5.364  11.336 -1.2464  0.1152  0.7578
  278MOL0     C37429   5.463   5.385  11.470  0.6170 -0.0812 -0.0385
  278MOL0     O37430   5.365   5.472  11.508 -0.3921 -0.4741 -0.8993
  278MOL0     C37431   5.317   5.563  11.410 -0.4415 -1.4957  0.2707
  278MOL0     C37432   5.412   5.691  11.417  0.5495  0.0742 -0.5594
  278MOL0     C37433   5.348   5.808  11.341 -0.7159  0.6721  0.2588
  278MOL0     C37434   5.441   5.932  11.358  0.2745 -0.2883  0.3019
  278MOL0     C37435   5.380   6.047  11.285 -0.8074  0.2698  0.6190
  278MOL0     C37436   5.257   6.100  11.359  0.0416  0.2228 -0.3880
  278MOL0     C37437   5.198   6.229  11.291  0.4417  0.6256  0.9266
  278MOL0     C37438   5.298   6.346  11.309 -0.1617  0.4093  0.3067
  278MOL0    Cl37439   5.351   6.357  11.477  0.1157  0.3692  0.0714
  278MOL0     C37440   5.515   5.312  11.574  0.7825  0.0745 -0.7003
  278MOL0     C37441   5.617   5.217  11.555 -0.8123  0.4603 -0.4684
  278MOL0     O37442   5.863   5.086  11.629 -0.5806  0.2783  0.3865
  278MOL0     C37443   6.005   4.847  11.585  0.7820 -0.1181  0.4326
  278MOL0     C37444   6.071   4.722  11.536 -0.1053  0.0293  0.4965
  278MOL0     N37445   6.175   3.942  11.507 -0.5693  0.2653  0.0720
  278MOL0     N37446   6.196   3.813  11.530 -0.7684 -0.0765  0.4629
  278MOL0     C37447   6.907   3.392  11.055  1.1933 -0.2383  0.2595
  278MOL0     C37448   7.015   3.471  11.068 -0.1967  0.4870 -0.1757
  278MOL0     C37449   7.344   3.747  11.080  1.1610 -0.0076  0.1679
  278MOL0     C37450   7.324   3.891  11.083 -0.4233  1.0644 -0.4180
  278MOL0     C37451   7.417   3.975  11.134  0.8820  0.5260  0.0139
  278MOL0     C37452   7.541   3.920  11.165  0.1799 -1.3755 -0.5450
  278MOL0     O37453   7.641   4.003  11.208  0.4355  0.6487 -1.0796
  278MOL0     C37454   7.614   4.088  11.321 -0.1135 -0.7490  0.0800
  278MOL0     C37455   7.732   4.142  11.393  0.0792 -0.4776 -0.6675
  278MOL0     C37456   7.812   4.250  11.330  0.9772  0.6425 -0.7322
  278MOL0     C37457   7.878   4.200  11.199  0.0158  0.3366 -1.0847
  278MOL0     C37458   7.992   4.273  11.151 -0.2222 -0.6473 -0.1337
  278MOL0     C37459   8.083   4.316  11.079  0.9255 -0.3674  0.7772
  278MOL0     C37460   7.574   3.799  11.144 -0.6630  1.5490  0.5272
  278MOL0     C37461   7.469   3.706  11.114 -0.4300 -0.5108  0.6315
  278MOL0     C37462   7.524   3.565  11.092  0.6371  0.8750  0.2131
  278MOL0     H37463   6.910   3.768  10.948  1.5980  1.2319  2.0910
  278MOL0     H37464   6.700   3.621  10.921  0.5637 -0.0666 -1.7782
  278MOL0     H37465   6.666   3.383  11.204  2.2892 -0.6606 -0.8712
  278MOL0     H37466   6.535   3.472  11.119 -0.1875 -0.3296  0.7489
  278MOL0     H37467   6.578   3.157  11.118  2.5384  0.8371  3.1249
  278MOL0     H37468   6.432   3.239  11.063  0.4189 -0.2552 -0.2854
  278MOL0     H37469   6.474   3.319  11.340  0.6653 -0.3330  2.2888
  278MOL0     H37470   6.539   3.169  11.329  1.7768  1.0899 -2.6733
  278MOL0     H37471   6.288   3.143  11.185  3.4050 -2.5655 -0.9599
  278MOL0     H37472   6.308   3.094  11.354 -0.7671  0.4923  0.4749
  278MOL0     H37473   6.119   3.235  11.320  0.2542 -0.0861  3.2359
  278MOL0     H37474   6.258   3.316  11.419 -1.4622  4.7838  0.5429
  278MOL0     H37475   6.331   3.429  11.207  0.8910 -1.7327  1.1505
  278MOL0     H37476   6.168   3.395  11.146 -2.4980 -0.1710  2.1581
  278MOL0     H37477   6.110   3.526  11.388 -0.9015  1.1578 -0.3186
  278MOL0     H37478   6.147   3.599  11.228  0.3040 -2.7825 -1.2834
  278MOL0     H37479   6.307   3.586  11.497 -1.7606 -0.8604  0.4596
  278MOL0     H37480   6.386   3.609  11.344 -0.4245 -4.6326 -0.6255
  278MOL0     H37481   6.305   3.863  11.222 -2.2431  2.0369 -1.6373
  278MOL0     H37482   6.309   4.123  11.259 -0.3795  0.2866 -0.5554
  278MOL0     H37483   6.131   4.083  11.231 -1.4996 -5.4105  2.0300
  278MOL0     H37484   6.062   4.203  11.425  0.2350 -3.4374 -1.3591
  278MOL0     H37485   6.221   4.207  11.484 -3.1990  1.6205  0.9975
  278MOL0     H37486   6.117   4.360  11.239  0.5851 -1.0448 -0.3995
  278MOL0     H37487   6.284   4.371  11.278 -1.0062  0.6923 -3.0644
  278MOL0     H37488   6.255   4.482  11.475 -0.7653 -0.5953  0.5541
  278MOL0     H37489   6.083   4.436  11.490  1.8873  0.0379  1.9461
  278MOL0     H37490   6.016   4.779  11.199 -2.9248  0.9183 -0.6048
  278MOL0     H37491   5.917   4.963  11.276 -2.3040  0.7045  1.7591
  278MOL0     H37492   5.672   5.246  11.233 -0.5895  0.3611  0.0748
  278MOL0     H37493   5.486   5.419  11.249 -1.0270  1.3553  1.4351
  278MOL0     H37494   5.314   5.520  11.309 -2.4587  1.2149 -0.9490
  278MOL0     H37495   5.214   5.578  11.444 -0.4412  0.3961 -0.4371
  278MOL0     H37496   5.416   5.711  11.524 -0.6459  0.9304 -0.6481
  278MOL0     H37497   5.515   5.674  11.385  0.1944 -0.8677 -1.2680
  278MOL0     H37498   5.344   5.781  11.235  1.3692  2.3641 -0.3218
  278MOL0     H37499   5.244   5.830  11.367 -0.7653 -0.3443  0.9978
  278MOL0     H37500   5.537   5.911  11.311 -0.2419  0.0782 -0.9725
  278MOL0     H37501   5.454   5.954  11.465 -3.6220  1.8672  0.5356
  278MOL0     H37502   5.333   6.019  11.190  0.2279 -0.3586  0.2703
  278MOL0     H37503   5.461   6.118  11.269 -2.5280  1.9481 -1.0493
  278MOL0     H37504   5.173   6.031  11.365  1.3537 -1.3487  0.7883
  278MOL0     H37505   5.279   6.113  11.465 -0.6308  0.4792 -0.2807
  278MOL0     H37506   5.111   6.263  11.348  0.5862 -1.1888  2.3194
  278MOL0     H37507   5.169   6.224  11.186  3.0010  4.7225 -0.1902
  278MOL0     H37508   5.386   6.330  11.245 -0.3668 -0.4982  0.2401
  278MOL0     H37509   5.253   6.441  11.277 -2.7841  0.3681  3.4210
  278MOL0     H37510   5.473   5.307  11.674 -0.5004 -1.2639 -1.2565
  278MOL0     H37511   5.648   5.166  11.646  0.9091 -0.8051 -1.7011
  278MOL0     H37512   5.998   4.865  11.692 -1.9279  1.9789  0.0144
  278MOL0     H37513   6.115   4.657  11.611  0.3676 -0.6033 -0.3055
  278MOL0     H37514   6.909   3.286  11.076  0.2350 -0.3982 -0.3829
  278MOL0     H37515   7.109   3.446  11.117 -1.3140  0.8628  2.3180
  278MOL0     H37516   7.229   3.926  11.045 -1.1788 -0.5894 -0.1520
  278MOL0     H37517   7.414   4.083  11.142  4.4938  0.5974  3.0536
  278MOL0     H37518   7.562   4.039  11.404 -1.2185  1.4964  0.7949
  278MOL0     H37519   7.549   4.168  11.285 -0.8281 -0.7467  1.3161
  278MOL0     H37520   7.790   4.054  11.420 -1.6239 -1.6958 -0.8105
  278MOL0     H37521   7.692   4.178  11.488 -3.1082 -3.0033 -0.8367
  278MOL0     H37522   7.895   4.285  11.393  2.3228  0.2910 -2.2498
  278MOL0     H37523   7.752   4.337  11.303  0.1446  0.3458  0.1160
  278MOL0     H37524   7.928   4.106  11.225  0.8317  0.7401 -1.1953
  278MOL0     H37525   7.802   4.187  11.122  0.5952 -0.9854 -1.4704
  278MOL0     H37526   8.166   4.363  11.030 -1.1150  0.8490 -1.7563
  278MOL0     H37527   7.674   3.758  11.146 -0.6734  0.7036 -4.0234
  278MOL0     H37528   7.610   3.548  11.159 -1.1017  1.6010  2.7846
  278MOL0     H37529   7.453   3.482  11.097 -0.2329  1.5022 -1.2875
  278MOL0     H37530   7.546   3.574  10.985 -3.2009  5.0853 -0.5569
  279MOL0     O37531   9.951   5.619   5.026 -0.1507 -0.1930  0.7277
  279MOL0     C37532   9.944   5.730   4.976 -1.1151 -0.3915 -0.4664
  279MOL0     O37533  10.039   5.790   4.893 -0.3250  0.4685  0.4996
  279MOL0     C37534  10.148   5.723   4.857 -1.0050  0.8440 -0.6745
  279MOL0     C37535  10.243   5.686   4.956  0.0373 -0.1880 -0.2524
  279MOL0     C37536  10.362   5.619   4.929 -0.5878  0.1373 -0.1275
  279MOL0     C37537  10.390   5.584   4.790  0.5457 -0.3515  0.2146
  279MOL0     O37538  10.509   5.524   4.758 -0.2360  0.1449 -0.0306
  279MOL0     C37539  10.560   5.531   4.614  1.6007  0.9336  0.0672
  279MOL0     C37540  10.519   5.393   4.559 -0.4559  0.5149 -1.0346
  279MOL0     C37541  10.591   5.285   4.649  0.0503 -1.1015 -0.0032
  279MOL0     C37542  10.567   5.143   4.597 -0.1818  0.2055 -0.6821
  279MOL0     C37543  10.620   5.047   4.711 -0.6570  1.1170 -0.1762
  279MOL0     C37544  10.598   4.909   4.655  0.5026 -0.4903  0.2430
  279MOL0     C37545  10.729   4.867   4.583  0.8452 -0.2921 -0.1521
  279MOL0     C37546  10.729   4.712   4.544  0.3052  0.8888  0.0890
  279MOL0     N37547  10.847   4.670   4.462  0.2716  0.8488  0.4218
  279MOL0     C37548  10.937   4.571   4.497  0.0833  1.0316 -0.8595
  279MOL0     C37549  11.010   4.541   4.394  0.2116  0.1419 -0.4597
  279MOL0     C37550  11.117   4.442   4.379  0.6900 -0.2182 -0.2899
  279MOL0     C37551  11.122   4.357   4.251 -0.3495 -0.5710 -0.2587
  279MOL0     C37552  11.213   4.236   4.247 -0.1019 -0.7603  0.7645
  279MOL0     C37553  11.248   4.197   4.108 -0.1526 -0.0401 -0.1408
  279MOL0     O37554  11.333   4.076   4.111 -0.5074  0.1599  0.5760
  279MOL0     C37555  11.340   4.008   3.994  0.2073 -1.1363 -0.5298
  279MOL0     C37556  11.323   3.868   3.990 -0.0196  0.1381 -0.3072
  279MOL0     C37557  11.293   3.796   3.868 -0.5064  0.1981 -0.1684
  279MOL0     C37558  11.304   3.864   3.749  0.3532  0.4403 -0.3804
  279MOL0     C37559  11.283   3.794   3.622 -0.0772 -0.1882  0.0885
  279MOL0     O37560  11.280   3.663   3.622  0.6884  0.1308 -0.1193
  279MOL0     C37561  11.303   3.606   3.501 -0.0802 -0.2268 -0.6481
  279MOL0     C37562  11.431   3.547   3.472 -0.7420 -1.0086  0.8771
  279MOL0     C37563  11.455   3.497   3.344  0.1938  0.4897 -0.2775
  279MOL0     C37564  11.363   3.488   3.243  0.0115 -0.3565 -0.4191
  279MOL0     O37565  11.394   3.466   3.116  0.6887  0.2904 -0.1338
  279MOL0     C37566  11.524   3.484   3.073  0.1723 -0.4172  0.3920
  279MOL0     C37567  11.520   3.515   2.923 -0.7639 -0.1864 -0.4187
  279MOL0     C37568  11.470   3.401   2.839 -1.1497  0.0032  0.4318
  279MOL0     C37569  11.560   3.272   2.849  0.1160  0.2650  0.1524
  279MOL0     C37570  11.544   3.191   2.715 -0.4840 -0.2460 -0.9607
  279MOL0     C37571  11.601   3.033   2.716  0.7330  0.1379  0.4589
  279MOL0     C37572  11.754   3.018   2.756 -0.0446  0.6901 -0.0701
  279MOL0     C37573  11.790   2.984   2.903  0.0583  0.9474 -0.5557
  279MOL0    Cl37574  11.710   2.824   2.944 -0.2135  0.1714  0.0365
  279MOL0     C37575  11.238   3.536   3.276 -0.0089 -0.4933 -0.9411
  279MOL0     C37576  11.204   3.592   3.398  0.1799 -0.0013 -0.2202
  279MOL0     O37577  11.274   3.865   3.521 -0.0930  0.1164 -0.3905
  279MOL0     C37578  11.328   3.999   3.749 -0.9969 -0.0734  0.3253
  279MOL0     C37579  11.340   4.070   3.869  0.6724 -0.0270 -0.5863
  279MOL0     N37580  10.976   4.637   4.299 -0.2424 -0.6762 -0.5417
  279MOL0     N37581  10.879   4.708   4.339 -0.0030 -0.0215 -0.5282
  279MOL0     C37582  10.292   5.628   4.691 -0.0315  0.9420 -0.6339
  279MOL0     C37583  10.170   5.689   4.726 -0.5576  0.2712 -0.1211
  279MOL0     C37584   9.816   5.815   5.002 -0.9340  1.2195  0.0883
  279MOL0     C37585   9.806   5.936   4.924 -0.2794  0.8749 -0.4481
  279MOL0     C37586   9.691   6.017   4.939  0.2367 -0.1169 -0.1766
  279MOL0     C37587   9.603   6.004   5.044 -0.5987  0.0326 -0.2731
  279MOL0     O37588   9.508   6.104   5.068  0.2744  0.1623 -0.3760
  279MOL0     C37589   9.385   6.065   5.143 -0.8120 -0.9324 -0.0082
  279MOL0     C37590   9.273   6.141   5.084 -0.1802  0.3980 -0.1549
  279MOL0     C37591   9.292   6.294   5.094 -0.7303 -0.0325  0.2003
  279MOL0     C37592   9.304   6.339   5.238  0.0853 -0.4634 -0.6321
  279MOL0     C37593   9.311   6.485   5.243  0.0823 -0.3295  0.2441
  279MOL0     C37594   9.303   6.609   5.248 -0.3716  0.0414  0.3276
  279MOL0     C37595   9.621   5.893   5.128 -0.8129 -0.7813  0.1233
  279MOL0     C37596   9.713   5.787   5.098  0.9040 -0.5291  0.6150
  279MOL0     C37597   9.700   5.656   5.177  0.6632 -0.0106 -0.0055
  279MOL0     H37598  10.235   5.712   5.061  1.8194  0.7711 -0.3184
  279MOL0     H37599  10.434   5.595   5.007  0.3783 -0.1115 -1.0648
  279MOL0     H37600  10.515   5.612   4.556  1.4513 -1.2979 -3.1563
  279MOL0     H37601  10.668   5.545   4.629  1.5657  1.2670  0.0364
  279MOL0     H37602  10.560   5.385   4.458  0.0649 -0.0538 -0.7857
  279MOL0     H37603  10.413   5.370   4.549 -1.2713  2.8815  1.0490
  279MOL0     H37604  10.541   5.284   4.746  0.4119  2.0869  0.3150
  279MOL0     H37605  10.699   5.299   4.664 -0.1796  2.6192 -0.7398
  279MOL0     H37606  10.458   5.139   4.590 -0.0599 -0.6732 -2.6628
  279MOL0     H37607  10.611   5.143   4.497 -1.0846 -2.1816 -1.1492
  279MOL0     H37608  10.720   5.074   4.746 -0.1061  1.7896 -2.1543
  279MOL0     H37609  10.555   5.061   4.797 -2.5006  0.8761 -1.4774
  279MOL0     H37610  10.584   4.840   4.739  1.2200 -1.4444 -0.4059
  279MOL0     H37611  10.518   4.908   4.581 -1.2584  0.1619  2.0467
  279MOL0     H37612  10.820   4.885   4.641  0.9359  1.2413 -0.7219
  279MOL0     H37613  10.743   4.924   4.490 -1.6863  0.4683 -0.1512
  279MOL0     H37614  10.734   4.651   4.635  1.8500 -0.2804 -0.7436
  279MOL0     H37615  10.641   4.685   4.485  0.5085 -0.5625  0.4161
  279MOL0     H37616  10.947   4.524   4.594  0.1523  0.5417 -1.1005
  279MOL0     H37617  11.212   4.491   4.401 -0.0904  1.2535 -0.1024
  279MOL0     H37618  11.110   4.380   4.468 -2.6892  0.5673  0.1273
  279MOL0     H37619  11.019   4.319   4.247 -1.3771  1.6818  1.9928
  279MOL0     H37620  11.132   4.418   4.161  5.1203 -1.2454 -0.4144
  279MOL0     H37621  11.170   4.147   4.295  0.2125  0.5701  3.7875
  279MOL0     H37622  11.312   4.248   4.293  1.0005  1.4702 -1.8995
  279MOL0     H37623  11.285   4.289   4.062 -2.3933  3.2967  3.9517
  279MOL0     H37624  11.156   4.179   4.053 -0.2753  1.8317 -0.6196
  279MOL0     H37625  11.306   3.821   4.087 -1.6036  4.3472  1.6755
  279MOL0     H37626  11.256   3.694   3.873  0.8025 -0.3017 -0.1795
  279MOL0     H37627  11.502   3.552   3.554 -0.5075 -1.3112  0.6962
  279MOL0     H37628  11.555   3.456   3.333 -0.3664 -0.5762 -1.8628
  279MOL0     H37629  11.571   3.573   3.116 -0.0252  0.0084 -0.2645
  279MOL0     H37630  11.580   3.392   3.092  0.0854 -0.8195 -1.1678
  279MOL0     H37631  11.455   3.602   2.909  0.9137  1.1064 -0.4394
  279MOL0     H37632  11.626   3.534   2.902 -0.0168  0.0695  3.0774
  279MOL0     H37633  11.364   3.390   2.864 -0.2001 -2.9396  3.9631
  279MOL0     H37634  11.486   3.436   2.736  1.5752  2.0490  1.4187
  279MOL0     H37635  11.536   3.204   2.932  1.0929 -0.5952 -0.2357
  279MOL0     H37636  11.662   3.303   2.871  0.2440  1.3110 -1.7980
  279MOL0     H37637  11.585   3.246   2.630 -1.0103  3.2176  0.8853
  279MOL0     H37638  11.436   3.185   2.701 -0.5994  1.3200 -0.8763
  279MOL0     H37639  11.537   2.973   2.781  0.2701 -0.1959 -0.2891
  279MOL0     H37640  11.573   2.982   2.623 -1.0742 -1.4158  1.7771
  279MOL0     H37641  11.812   3.109   2.738  1.7313 -0.4027 -0.0435
  279MOL0     H37642  11.797   2.940   2.693  0.5047 -0.3372  1.5201
  279MOL0     H37643  11.898   2.968   2.910 -0.2739 -3.7493 -2.9127
  279MOL0     H37644  11.758   3.063   2.972  2.8241  1.1538  0.6180
  279MOL0     H37645  11.156   3.543   3.206  0.6614 -2.0305 -1.9293
  279MOL0     H37646  11.104   3.630   3.419  0.9942  0.1962  4.1912
  279MOL0     H37647  11.322   4.052   3.655  4.8463  2.4399  0.9751
  279MOL0     H37648  11.361   4.176   3.861  1.5031 -0.1095  0.3142
  279MOL0     H37649  10.307   5.612   4.585  2.5440 -2.1050  0.0653
  279MOL0     H37650  10.092   5.698   4.650 -0.8518 -0.4823  0.0732
  279MOL0     H37651   9.881   5.961   4.850  2.0552 -0.5682  1.2829
  279MOL0     H37652   9.680   6.093   4.863 -1.6002 -2.0217 -1.9264
  279MOL0     H37653   9.398   6.079   5.251  1.7048  0.8926 -0.4489
  279MOL0     H37654   9.372   5.956   5.142 -0.4745 -1.1572  3.6664
  279MOL0     H37655   9.177   6.126   5.135 -0.7288 -1.4021 -1.6103
  279MOL0     H37656   9.266   6.116   4.978 -0.7755 -0.9955  0.1827
  279MOL0     H37657   9.211   6.344   5.040  0.7003 -0.5782 -2.6980
  279MOL0     H37658   9.374   6.336   5.034 -0.7515  0.2237  0.3467
  279MOL0     H37659   9.221   6.299   5.296 -0.4237 -0.5866 -1.4247
  279MOL0     H37660   9.403   6.316   5.279  1.3651  3.2067 -1.3629
  279MOL0     H37661   9.318   6.715   5.253  1.2688 -0.1949  2.9215
  279MOL0     H37662   9.556   5.872   5.212 -3.6336  2.0693 -1.1258
  279MOL0     H37663   9.711   5.570   5.110  1.8127  0.9959 -1.1856
  279MOL0     H37664   9.776   5.664   5.255 -1.3397  0.2815  2.0086
  279MOL0     H37665   9.609   5.644   5.236  1.0445 -2.5374  0.2069
  280MOL0     O37666   1.501   3.103   9.309 -0.3648  0.1996 -0.5640
  280MOL0     C37667   1.617   3.133   9.283  0.0288  1.1076 -1.2536
  280MOL0     O37668   1.704   3.194   9.367  0.2151 -0.8225 -0.0520
  280MOL0     C37669   1.652   3.242   9.483  1.1043  0.5565 -0.6909
  280MOL0     C37670   1.704   3.201   9.603  0.2503 -0.1086  0.4588
  280MOL0     C37671   1.650   3.244   9.727  0.7845 -0.7493 -1.6360
  280MOL0     C37672   1.527   3.303   9.736 -0.1141  0.3007  0.4343
  280MOL0     O37673   1.468   3.334   9.853  0.6133 -0.0840  0.1972
  280MOL0     C37674   1.469   3.236   9.954 -0.3731  0.4478 -0.3597
  280MOL0     C37675   1.355   3.259  10.048 -0.0979 -0.4771  0.4981
  280MOL0     C37676   1.370   3.200  10.190 -0.6119 -0.3382  0.6762
  280MOL0     C37677   1.288   3.082  10.219 -0.7204  0.3408  0.7482
  280MOL0     C37678   1.309   3.041  10.365  0.8520 -0.0157 -0.4315
  280MOL0     C37679   1.211   2.933  10.405  0.2647  0.2767 -0.4742
  280MOL0     C37680   1.209   2.914  10.562 -0.2803 -0.3561 -1.9338
  280MOL0     C37681   1.152   3.031  10.640  0.1624  0.7965  0.2951
  280MOL0     N37682   1.102   2.989  10.770 -0.7045 -0.4254 -0.2461
  280MOL0     C37683   1.172   2.956  10.886 -0.2251  0.5790 -0.3692
  280MOL0     C37684   1.085   2.888  10.963 -0.3033  0.1423  0.6735
  280MOL0     C37685   1.098   2.847  11.112 -1.3684 -0.0414 -0.0314
  280MOL0     C37686   1.189   2.713  11.116 -0.4643  0.6338  0.3314
  280MOL0     C37687   1.190   2.659  11.265 -0.5582 -0.0984  0.3522
  280MOL0     C37688   1.274   2.535  11.282 -0.4986 -0.0261 -0.1813
  280MOL0     O37689   1.299   2.531  11.433 -0.3840  0.2878 -0.1759
  280MOL0     C37690   1.369   2.428  11.497  0.4387  0.5088  0.0387
  280MOL0     C37691   1.373   2.441  11.632 -0.7139 -0.7271  0.4800
  280MOL0     C37692   1.432   2.339  11.710 -0.2139 -0.4526  0.9732
  280MOL0     C37693   1.457   2.215  11.654  0.0944  0.1146  0.5745
  280MOL0     C37694   1.527   2.109  11.731 -0.1927 -0.0768 -0.1588
  280MOL0     O37695   1.483   2.073  11.851 -0.8057 -0.6164 -0.3746
  280MOL0     C37696   1.562   2.018  11.945 -0.2963 -1.3079  0.6924
  280MOL0     C37697   1.701   2.030  11.954 -0.4100 -0.1063 -0.2204
  280MOL0     C37698   1.776   1.952  12.045 -0.0790  0.8016  0.1400
  280MOL0     C37699   1.707   1.858  12.123  0.1607  0.4466  0.7228
  280MOL0     O37700   1.755   1.768  12.216  0.1430  0.2611  0.7046
  280MOL0     C37701   1.899   1.749  12.229 -0.8388  0.8275 -0.8288
  280MOL0     C37702   1.920   1.608  12.301  0.4744 -0.0076 -0.7227
  280MOL0     C37703   1.906   1.491  12.210  0.1752 -0.1938  0.4984
  280MOL0     C37704   1.923   1.358  12.286  0.0314  0.0826  0.9860
  280MOL0     C37705   1.850   1.249  12.204  0.3729  1.0458 -0.0839
  280MOL0     C37706   1.892   1.109  12.260  0.5962  0.5058  0.0214
  280MOL0     C37707   1.876   1.105  12.409  0.1831 -0.2315  0.1386
  280MOL0     C37708   1.835   0.974  12.471  0.1813  0.0868  0.1862
  280MOL0    Cl37709   1.861   0.987  12.652 -0.0105  0.3081  0.3649
  280MOL0     C37710   1.569   1.844  12.111  0.7525  0.3651 -0.5444
  280MOL0     C37711   1.495   1.924  12.021  0.6508  0.0592 -0.6554
  280MOL0     O37712   1.607   2.047  11.663  0.0001 -0.8166 -0.7677
  280MOL0     C37713   1.442   2.200  11.514 -0.3893  0.2417  0.5011
  280MOL0     C37714   1.402   2.302  11.432 -0.5145  0.2688  0.3374
  280MOL0     N37715   0.966   2.884  10.893  0.5427 -0.1091  0.2944
  280MOL0     N37716   0.978   2.953  10.785  0.5347  0.5222  0.0808
  280MOL0     C37717   1.475   3.360   9.613  0.4413  0.3736  0.0971
  280MOL0     C37718   1.537   3.319   9.487  0.9399 -0.7517 -0.0521
  280MOL0     C37719   1.683   3.121   9.144 -0.6267 -0.6244  0.3206
  280MOL0     C37720   1.829   3.138   9.134  0.1554 -1.2639  0.5229
  280MOL0     C37721   1.883   3.123   9.004 -0.3811 -0.0504  0.3665
  280MOL0     C37722   1.815   3.089   8.893 -0.4997 -0.7083  0.2470
  280MOL0     O37723   1.881   3.057   8.777  0.7724 -0.5040 -0.1564
  280MOL0     C37724   1.941   3.182   8.719  0.1306 -0.4346 -0.0524
  280MOL0     C37725   1.911   3.195   8.567 -0.1692  0.4247 -0.0693
  280MOL0     C37726   1.831   3.328   8.544 -0.9367  0.1485 -0.9743
  280MOL0     C37727   1.836   3.381   8.396 -0.8882 -0.0900 -0.3436
  280MOL0     C37728   1.775   3.290   8.295  0.9505 -0.4694 -0.9472
  280MOL0     C37729   1.726   3.222   8.211 -0.9622  0.5552 -0.1355
  280MOL0     C37730   1.679   3.072   8.902 -0.8806 -0.3325 -0.1805
  280MOL0     C37731   1.610   3.081   9.025 -0.2119 -0.6297  0.0741
  280MOL0     C37732   1.457   3.046   9.023  0.3554  0.0055  0.4731
  280MOL0     H37733   1.781   3.124   9.602 -1.8172 -2.2843  0.1276
  280MOL0     H37734   1.695   3.243   9.826 -2.0088  2.2707 -0.1439
  280MOL0     H37735   1.454   3.142   9.901 -0.1626  0.1992  0.0168
  280MOL0     H37736   1.556   3.225  10.020 -2.6674 -0.6320  2.6849
  280MOL0     H37737   1.257   3.233  10.008 -0.6772  1.1709  0.7745
  280MOL0     H37738   1.347   3.368  10.061  0.0841 -0.1739 -1.6326
  280MOL0     H37739   1.351   3.279  10.264  1.3745  0.3257  0.5376
  280MOL0     H37740   1.471   3.160  10.201 -1.2874 -2.0764  0.9436
  280MOL0     H37741   1.184   3.116  10.210 -0.6255  0.4931  0.1561
  280MOL0     H37742   1.311   3.002  10.148  0.2328  0.4197  0.9605
  280MOL0     H37743   1.405   2.989  10.371  0.9356  0.3450  1.9902
  280MOL0     H37744   1.300   3.132  10.424 -2.0190 -0.1380 -0.5609
  280MOL0     H37745   1.114   2.962  10.366  1.1418  0.9205 -2.2982
  280MOL0     H37746   1.239   2.841  10.354 -1.7310 -0.6619  0.0407
  280MOL0     H37747   1.309   2.896  10.602 -0.4194  1.8886 -0.3781
  280MOL0     H37748   1.139   2.836  10.592  0.0541  1.3211  4.5953
  280MOL0     H37749   1.219   3.117  10.649 -1.5422  2.1403  0.7009
  280MOL0     H37750   1.061   3.068  10.591 -1.2653  0.4877  2.5903
  280MOL0     H37751   1.272   2.977  10.921  0.0130 -2.6510  1.2860
  280MOL0     H37752   1.148   2.929  11.164 -1.7281  0.6191 -0.7033
  280MOL0     H37753   1.000   2.833  11.157 -1.9208 -2.8691 -1.8587
  280MOL0     H37754   1.143   2.631  11.060 -0.9297 -0.9789  2.8727
  280MOL0     H37755   1.290   2.730  11.079 -0.1483 -3.0987 -0.9423
  280MOL0     H37756   1.084   2.660  11.293 -0.8764 -1.2975 -0.7230
  280MOL0     H37757   1.230   2.746  11.318 -3.0119  2.6737 -1.9720
  280MOL0     H37758   1.370   2.545  11.230 -0.9768 -0.9952 -1.3027
  280MOL0     H37759   1.225   2.449  11.236 -0.0700  0.4165 -1.5184
  280MOL0     H37760   1.340   2.538  11.668 -1.6344 -1.2220  1.0463
  280MOL0     H37761   1.463   2.367  11.810  0.8242  2.3486 -0.0383
  280MOL0     H37762   1.744   2.096  11.880 -1.7732 -0.7705 -1.6502
  280MOL0     H37763   1.885   1.952  12.047 -0.0777 -0.1739  1.5153
  280MOL0     H37764   1.951   1.746  12.133  0.5415  0.8673 -0.1016
  280MOL0     H37765   1.939   1.836  12.281 -3.9140  2.3187 -0.7132
  280MOL0     H37766   2.024   1.609  12.335  0.2194 -0.5417  0.1050
  280MOL0     H37767   1.863   1.600  12.393  3.8481 -0.3987  1.5104
  280MOL0     H37768   1.808   1.493  12.161  0.2886 -0.1495  0.2672
  280MOL0     H37769   1.988   1.499  12.137 -0.6468  0.5139 -0.3830
  280MOL0     H37770   1.870   1.374  12.381  0.7268  1.5560  1.1400
  280MOL0     H37771   2.025   1.328  12.310  0.1444 -1.7556 -1.3969
  280MOL0     H37772   1.869   1.256  12.096  1.6684  3.3516  0.2306
  280MOL0     H37773   1.742   1.252  12.221  0.3889 -1.0111  0.6964
  280MOL0     H37774   1.824   1.035  12.218  3.1254 -1.0545 -1.5329
  280MOL0     H37775   1.992   1.073  12.234 -0.6013 -2.1788 -1.2354
  280MOL0     H37776   1.804   1.178  12.448  3.0341  1.4606  2.6093
  280MOL0     H37777   1.976   1.126  12.447  0.8760 -1.3629 -1.0138
  280MOL0     H37778   1.731   0.950  12.446 -0.7347  1.2875  2.5440
  280MOL0     H37779   1.894   0.894  12.427 -0.2763 -1.2092  1.8658
  280MOL0     H37780   1.515   1.769  12.167 -1.6098  0.3286 -2.6619
  280MOL0     H37781   1.387   1.912  12.016  0.4549  0.6440  1.3977
  280MOL0     H37782   1.477   2.104  11.477  0.7177  0.3579  1.2160
  280MOL0     H37783   1.386   2.300  11.325  0.0846 -4.4512  0.1307
  280MOL0     H37784   1.392   3.430   9.619 -1.5814 -1.9939  3.2052
  280MOL0     H37785   1.504   3.345   9.387  1.3456 -0.8656 -0.2158
  280MOL0     H37786   1.887   3.149   9.224 -1.6500  0.9943  1.5189
  280MOL0     H37787   1.990   3.140   8.993 -0.5105  1.5822  1.3238
  280MOL0     H37788   2.049   3.169   8.724  0.2339 -1.9089 -3.3726
  280MOL0     H37789   1.913   3.275   8.770  3.3674  2.2490 -2.6943
  280MOL0     H37790   1.858   3.111   8.520 -0.6364  2.2475 -3.0595
  280MOL0     H37791   1.997   3.209   8.501 -1.2473  2.6048 -1.1447
  280MOL0     H37792   1.866   3.414   8.602 -1.9932  1.3680 -2.0773
  280MOL0     H37793   1.729   3.304   8.572 -1.0048  1.4807  0.0328
  280MOL0     H37794   1.781   3.473   8.377 -0.6042  0.4372  1.2901
  280MOL0     H37795   1.935   3.403   8.354 -0.3438 -3.5383 -1.1952
  280MOL0     H37796   1.682   3.158   8.137  0.6346 -0.2296 -0.4532
  280MOL0     H37797   1.629   3.056   8.807 -0.7766 -1.1646 -0.1025
  280MOL0     H37798   1.431   3.000   8.927  1.7897 -1.3417  0.6869
  280MOL0     H37799   1.425   2.978   9.102 -0.6309  1.3676  1.2914
  280MOL0     H37800   1.411   3.143   9.045  0.1213  0.1079 -0.4284
  281MOL0     O37801   7.435   6.988   1.272  0.6574 -0.5187 -0.3124
  281MOL0     C37802   7.332   6.917   1.286 -1.0447  0.3847 -0.1581
  281MOL0     O37803   7.313   6.788   1.251 -0.0268  0.3177 -0.0128
  281MOL0     C37804   7.426   6.722   1.201 -0.2404 -1.4890  0.8251
  281MOL0     C37805   7.534   6.695   1.289  0.7540  0.5444  0.5103
  281MOL0     C37806   7.644   6.635   1.230 -1.1449 -0.0997  0.7214
  281MOL0     C37807   7.648   6.594   1.093 -0.2456 -0.2090 -0.0068
  281MOL0     O37808   7.764   6.542   1.048 -0.0517 -0.0338 -0.6804
  281MOL0     C37809   7.807   6.601   0.924 -0.1493  0.2114  0.4667
  281MOL0     C37810   7.957   6.582   0.912 -0.5013 -0.3585 -0.9123
  281MOL0     C37811   7.989   6.431   0.906 -0.4879 -0.4986 -0.3588
  281MOL0     C37812   8.132   6.399   0.879 -0.7970 -0.7016  0.1884
  281MOL0     C37813   8.143   6.256   0.826 -0.2534 -0.4678 -0.4432
  281MOL0     C37814   8.288   6.195   0.831 -0.1750  0.5619 -0.0982
  281MOL0     C37815   8.346   6.148   0.967  0.5502 -0.0516  0.2265
  281MOL0     C37816   8.485   6.210   1.003  0.1834  1.1095 -0.0490
  281MOL0     N37817   8.465   6.355   1.023  0.6546  0.1496 -0.6208
  281MOL0     C37818   8.434   6.435   1.135 -0.1092  0.1705  0.6845
  281MOL0     C37819   8.437   6.565   1.092 -0.5647  0.9113  0.3531
  281MOL0     C37820   8.411   6.681   1.171  0.1991 -0.5394 -0.0397
  281MOL0     C37821   8.521   6.703   1.279  0.3507 -0.7416 -0.1286
  281MOL0     C37822   8.467   6.761   1.415 -0.2347  0.1931 -0.4552
  281MOL0     C37823   8.575   6.803   1.519  0.1701 -0.4964 -0.4881
  281MOL0     O37824   8.517   6.879   1.627 -0.3334  0.6977  0.4828
  281MOL0     C37825   8.596   6.965   1.696 -0.7158  0.6728  0.5199
  281MOL0     C37826   8.528   7.052   1.779  0.1696 -0.4866 -0.8956
  281MOL0     C37827   8.599   7.150   1.854  1.5050 -0.5660 -0.1483
  281MOL0     C37828   8.731   7.164   1.839 -0.4941  0.5219  0.7007
  281MOL0     C37829   8.806   7.281   1.908 -0.5693  0.4278 -0.5798
  281MOL0     O37830   8.940   7.287   1.892  0.2947  0.5883 -0.3872
  281MOL0     C37831   9.009   7.393   1.946  0.4266  0.8399 -0.5497
  281MOL0     C37832   9.020   7.402   2.085 -0.1942  0.6222 -0.7842
  281MOL0     C37833   9.112   7.491   2.134 -0.0387  0.0342 -1.1929
  281MOL0     C37834   9.189   7.583   2.066  0.2629  0.0763 -0.0771
  281MOL0     O37835   9.270   7.664   2.136  0.2125 -0.2053  0.3459
  281MOL0     C37836   9.390   7.693   2.073 -0.0940  0.4079  0.3300
  281MOL0     C37837   9.383   7.843   2.010  0.7568  0.5476  0.2244
  281MOL0     C37838   9.382   7.953   2.106  0.2481 -0.5920  0.0435
  281MOL0     C37839   9.333   8.086   2.044 -0.0442 -0.4525 -0.7732
  281MOL0     C37840   9.266   8.162   2.170 -0.0336  0.1752  0.9380
  281MOL0     C37841   9.180   8.282   2.138 -0.4702  0.1950 -0.9697
  281MOL0     C37842   9.276   8.406   2.135  0.5461 -0.1955  0.3383
  281MOL0     C37843   9.196   8.535   2.097  0.1518 -0.5286  0.2078
  281MOL0    Cl37844   9.130   8.601   2.261 -0.4177 -0.3006  0.1351
  281MOL0     C37845   9.168   7.583   1.929  0.9029  0.9594  1.0813
  281MOL0     C37846   9.079   7.485   1.865  0.7672  0.2198 -0.1412
  281MOL0     O37847   8.736   7.363   1.962 -0.1072 -0.4807 -0.2891
  281MOL0     C37848   8.805   7.085   1.749 -0.5475 -0.9322 -1.2161
  281MOL0     C37849   8.734   6.980   1.679 -0.2214  0.1069  0.4918
  281MOL0     N37850   8.471   6.569   0.970 -0.0033 -0.3136 -0.0046
  281MOL0     N37851   8.495   6.447   0.928  0.4074 -0.0321  0.9029
  281MOL0     C37852   7.531   6.622   1.018 -0.7594 -0.5661  0.0985
  281MOL0     C37853   7.418   6.674   1.079  0.6646  0.3641 -0.3235
  281MOL0     C37854   7.213   6.966   1.369  0.1842 -0.3027 -0.4193
  281MOL0     C37855   7.089   6.890   1.366  0.2108  0.4567  0.4511
  281MOL0     C37856   6.982   6.930   1.450  0.8937  0.1117 -0.5722
  281MOL0     C37857   6.995   7.036   1.538  0.0191  0.2041 -0.5205
  281MOL0     O37858   6.894   7.083   1.623 -0.1664  0.5101 -0.0839
  281MOL0     C37859   6.836   6.983   1.710 -0.3145 -0.0698 -0.3375
  281MOL0     C37860   6.751   7.052   1.819  0.4275  0.0488 -0.1047
  281MOL0     C37861   6.833   7.148   1.908  0.2143  0.9808  0.2038
  281MOL0     C37862   6.954   7.083   1.991 -0.4044  0.5620  0.9352
  281MOL0     C37863   7.008   7.186   2.083 -0.6581 -0.9800  0.1443
  281MOL0     C37864   7.054   7.280   2.147  0.3955  0.8424  1.0839
  281MOL0     C37865   7.112   7.106   1.549 -0.3539 -0.1017  0.8186
  281MOL0     C37866   7.228   7.067   1.473 -0.1425 -0.6720 -0.2080
  281MOL0     C37867   7.360   7.142   1.500 -0.4202  0.1766  0.4624
  281MOL0     H37868   7.532   6.725   1.393  0.6367  1.4975  0.2420
  281MOL0     H37869   7.737   6.614   1.283 -0.3702 -2.5684 -1.4131
  281MOL0     H37870   7.770   6.559   0.831 -0.1070  3.6918 -1.2690
  281MOL0     H37871   7.779   6.706   0.918 -0.2414  0.1738  0.2573
  281MOL0     H37872   8.001   6.635   0.997  0.4319 -1.4687 -0.6883
  281MOL0     H37873   7.995   6.636   0.825 -3.3729 -1.2606 -2.8897
  281MOL0     H37874   7.941   6.394   0.814 -1.0317 -0.0276 -0.2665
  281MOL0     H37875   7.959   6.379   0.998  1.6173 -0.0704  0.6274
  281MOL0     H37876   8.160   6.464   0.795 -0.9988  1.2060  1.5353
  281MOL0     H37877   8.194   6.417   0.968 -0.3145 -0.1047 -0.2506
  281MOL0     H37878   8.078   6.198   0.893  0.4125  0.5752  1.1474
  281MOL0     H37879   8.089   6.245   0.732 -1.6116 -0.7301  0.3318
  281MOL0     H37880   8.304   6.116   0.757  1.9367  1.3357 -0.5427
  281MOL0     H37881   8.351   6.274   0.789  1.4089 -0.1538  0.8593
  281MOL0     H37882   8.370   6.042   0.975  1.0148 -0.5474 -4.4371
  281MOL0     H37883   8.283   6.191   1.045 -1.2048 -0.1435 -1.0901
  281MOL0     H37884   8.523   6.158   1.091  0.4076 -1.5232 -1.5983
  281MOL0     H37885   8.557   6.200   0.922 -1.4211  0.3632 -1.4425
  281MOL0     H37886   8.438   6.396   1.236  2.7981 -1.9911 -0.1292
  281MOL0     H37887   8.393   6.763   1.101 -2.4251 -2.5577 -1.9556
  281MOL0     H37888   8.317   6.670   1.226  0.7781  0.7838  1.2862
  281MOL0     H37889   8.567   6.608   1.307  1.2492 -0.7356 -1.5076
  281MOL0     H37890   8.601   6.768   1.241  0.1924 -0.2083  0.4187
  281MOL0     H37891   8.397   6.694   1.465  1.5248 -1.4644 -0.0904
  281MOL0     H37892   8.409   6.850   1.389 -0.9746 -0.1380  0.0329
  281MOL0     H37893   8.655   6.858   1.469 -2.5621  2.5282 -1.9761
  281MOL0     H37894   8.623   6.713   1.558  1.8430 -0.6902 -2.8289
  281MOL0     H37895   8.422   7.035   1.794  0.7669 -2.5701  1.8702
  281MOL0     H37896   8.549   7.207   1.931  1.9298 -1.4587  0.8156
  281MOL0     H37897   8.976   7.334   2.157  0.4853  3.0572  2.1025
  281MOL0     H37898   9.114   7.499   2.242 -3.7982  4.4402 -1.1701
  281MOL0     H37899   9.470   7.685   2.147 -2.6908 -0.1051  3.3124
  281MOL0     H37900   9.411   7.617   1.997 -2.1458 -2.6961  2.5473
  281MOL0     H37901   9.475   7.854   1.952  1.2012  1.8528  1.1414
  281MOL0     H37902   9.289   7.850   1.955 -0.2341  0.9534  1.8923
  281MOL0     H37903   9.328   7.927   2.198 -1.6852 -0.6913 -1.0641
  281MOL0     H37904   9.483   7.963   2.146  0.3307 -2.2109  0.3192
  281MOL0     H37905   9.254   8.069   1.970 -0.0053 -1.7563 -0.5351
  281MOL0     H37906   9.408   8.142   1.988  1.6349 -2.1784 -0.3576
  281MOL0     H37907   9.339   8.199   2.243  0.2261 -1.4167  1.5283
  281MOL0     H37908   9.203   8.091   2.225 -2.5624  2.0575  0.6367
  281MOL0     H37909   9.138   8.267   2.038 -0.2129  0.2624 -1.0875
  281MOL0     H37910   9.101   8.295   2.212  1.5566 -1.6636  1.7199
  281MOL0     H37911   9.359   8.385   2.068 -1.4077 -1.8194 -1.7464
  281MOL0     H37912   9.322   8.420   2.233  0.1330  1.1529  0.3583
  281MOL0     H37913   9.268   8.610   2.063  0.3062 -0.7484  0.0434
  281MOL0     H37914   9.111   8.519   2.030 -2.2326 -0.2454  2.9905
  281MOL0     H37915   9.225   7.650   1.865  1.1586 -0.7367 -0.5229
  281MOL0     H37916   9.066   7.475   1.758 -0.0492 -0.5380  0.0176
  281MOL0     H37917   8.911   7.110   1.743  0.0641 -2.1780  1.9731
  281MOL0     H37918   8.791   6.918   1.611  2.2102  1.9388  0.6946
  281MOL0     H37919   7.530   6.596   0.913  0.9743 -2.0773  0.4131
  281MOL0     H37920   7.327   6.688   1.023 -1.3025  1.1412  2.7976
  281MOL0     H37921   7.073   6.793   1.319 -1.6288  0.6221  0.6308
  281MOL0     H37922   6.891   6.871   1.450  0.4027  0.8115  0.9344
  281MOL0     H37923   6.914   6.938   1.772  0.0463  1.8780  0.7412
  281MOL0     H37924   6.768   6.916   1.658 -1.9989  1.5223 -0.3192
  281MOL0     H37925   6.737   6.967   1.887  5.1637 -2.9672 -2.3362
  281MOL0     H37926   6.660   7.100   1.782  0.7537  1.5717  0.9484
  281MOL0     H37927   6.768   7.190   1.985 -2.5891 -1.6113 -0.5436
  281MOL0     H37928   6.871   7.221   1.836 -1.6764  2.4355  0.6022
  281MOL0     H37929   6.920   6.997   2.049  0.8321 -0.5628  0.0601
  281MOL0     H37930   7.034   7.035   1.934  0.0322 -2.1971  3.6027
  281MOL0     H37931   7.090   7.373   2.187  0.3430  1.2864  0.1211
  281MOL0     H37932   7.133   7.191   1.613 -0.9213 -0.4292  1.4475
  281MOL0     H37933   7.417   7.183   1.416  0.3459 -0.7646  0.5110
  281MOL0     H37934   7.342   7.227   1.566 -3.4870 -1.3270  1.7501
  281MOL0     H37935   7.425   7.070   1.549 -3.4970 -2.8726  0.4251
  282MOL0     O37936   2.468   1.463   1.958  0.0694  0.7259 -0.4831
  282MOL0     C37937   2.449   1.435   1.840  0.0309 -0.9829 -0.0008
  282MOL0     O37938   2.402   1.314   1.796 -0.1979  0.3802 -0.5538
  282MOL0     C37939   2.360   1.228   1.893  0.4231  0.0747 -0.2234
  282MOL0     C37940   2.437   1.115   1.920  0.5638  0.6061  0.2243
  282MOL0     C37941   2.392   1.014   2.007 -0.0063 -1.0610 -0.4999
  282MOL0     C37942   2.279   1.037   2.082 -0.5715 -0.2726 -0.9773
  282MOL0     O37943   2.253   0.934   2.166  0.1880  0.1329 -0.7985
  282MOL0     C37944   2.162   0.944   2.280 -0.0600  0.6043  0.2154
  282MOL0     C37945   2.217   1.021   2.399 -0.1210  0.0116  0.4030
  282MOL0     C37946   2.350   0.962   2.450  0.7890 -0.3504  0.2609
  282MOL0     C37947   2.399   1.037   2.570  0.3108  0.3098 -0.7128
  282MOL0     C37948   2.508   0.972   2.645 -0.9952  0.2168  0.0929
  282MOL0     C37949   2.583   1.057   2.745 -0.7910 -0.1780  0.5234
  282MOL0     C37950   2.671   0.979   2.850  0.1215 -0.2806  0.4980
  282MOL0     C37951   2.780   0.885   2.797 -0.0503  0.1068 -0.1018
  282MOL0     N37952   2.828   0.781   2.888  0.2373 -1.0911  0.3982
  282MOL0     C37953   2.763   0.666   2.910 -0.2999 -0.2982  0.2874
  282MOL0     C37954   2.850   0.590   2.979 -0.7380 -1.0895  0.2297
  282MOL0     C37955   2.813   0.447   3.014  0.2255 -0.0818  0.1176
  282MOL0     C37956   2.778   0.429   3.164  0.0608 -0.1413 -1.1801
  282MOL0     C37957   2.659   0.513   3.210 -0.2024 -0.0700  0.5631
  282MOL0     C37958   2.527   0.490   3.151 -0.3255 -0.0053 -0.3526
  282MOL0     O37959   2.483   0.360   3.201  0.2244 -0.1091  0.2981
  282MOL0     C37960   2.390   0.302   3.120 -0.8598 -0.3026  1.4449
  282MOL0     C37961   2.410   0.163   3.084 -0.2872  0.0357 -0.6862
  282MOL0     C37962   2.312   0.094   3.023  0.2286 -0.5411 -0.7505
  282MOL0     C37963   2.190   0.158   2.993 -0.1720  0.0022 -0.6784
  282MOL0     C37964   2.074   0.083   2.927 -0.6127 -0.0787 -0.4775
  282MOL0     O37965   2.096  -0.039   2.886  0.4131  0.0913  0.5661
  282MOL0     C37966   1.997  -0.109   2.807 -0.3803 -0.3458  0.1581
  282MOL0     C37967   1.940  -0.063   2.683  0.8331 -0.1160 -0.1564
  282MOL0     C37968   1.862  -0.149   2.607 -0.3283 -0.4135 -0.6543
  282MOL0     C37969   1.816  -0.270   2.669 -0.0068  0.3929 -0.2374
  282MOL0     O37970   1.749  -0.368   2.598 -0.1182  0.3334 -0.0056
  282MOL0     C37971   1.707  -0.327   2.471  0.3266  0.8144  0.3391
  282MOL0     C37972   1.640  -0.434   2.393 -0.1509  0.2287  0.3052
  282MOL0     C37973   1.539  -0.380   2.309  0.0677 -0.9230  0.1075
  282MOL0     C37974   1.516  -0.477   2.194  0.7750 -0.3444 -0.4467
  282MOL0     C37975   1.392  -0.438   2.116  0.1979 -0.6407 -0.5393
  282MOL0     C37976   1.376  -0.522   1.987  0.1924  1.0050  0.0807
  282MOL0     C37977   1.246  -0.488   1.911 -0.6352 -0.9229 -0.1340
  282MOL0     C37978   1.244  -0.584   1.794 -0.6388 -0.2836 -0.2463
  282MOL0    Cl37979   1.093  -0.566   1.703 -0.3692  0.0226  0.2244
  282MOL0     C37980   1.861  -0.315   2.791  0.0186  0.2320  0.3303
  282MOL0     C37981   1.967  -0.238   2.847 -0.2501 -0.5839 -1.3807
  282MOL0     O37982   1.969   0.144   2.906 -0.0862  0.1539 -0.5401
  282MOL0     C37983   2.170   0.297   3.022 -0.1893 -0.4209 -0.1633
  282MOL0     C37984   2.275   0.363   3.081 -0.1571 -1.5704 -0.0007
  282MOL0     N37985   2.959   0.678   3.015 -0.3624 -0.6697 -0.3447
  282MOL0     N37986   2.949   0.789   2.951 -0.0753  0.2522 -0.1646
  282MOL0     C37987   2.202   1.153   2.065 -0.8624  0.2505 -0.7535
  282MOL0     C37988   2.244   1.249   1.965  0.4416  0.7642 -0.1177
  282MOL0     C37989   2.483   1.539   1.736 -0.3012  0.2551 -0.1260
  282MOL0     C37990   2.536   1.499   1.608  1.2369  0.2911  0.3444
  282MOL0     C37991   2.553   1.584   1.500  0.0017  1.0077 -0.5624
  282MOL0     C37992   2.522   1.713   1.503 -0.5264 -0.2570 -0.2060
  282MOL0     O37993   2.531   1.812   1.412  0.0007 -0.7089  0.0040
  282MOL0     C37994   2.564   1.781   1.277  0.0270 -0.1470  0.7833
  282MOL0     C37995   2.439   1.784   1.195  0.1016  0.2046 -0.2026
  282MOL0     C37996   2.475   1.741   1.057  0.1747  0.3638 -0.7337
  282MOL0     C37997   2.352   1.695   0.968  0.2269  0.1181  0.3666
  282MOL0     C37998   2.237   1.788   0.986  0.0360 -0.3404 -0.7862
  282MOL0     C37999   2.132   1.857   0.999 -0.7034  0.2708 -0.1436
  282MOL0     C38000   2.480   1.768   1.628 -0.4616 -0.0221  0.3301
  282MOL0     C38001   2.473   1.680   1.744 -0.7483 -0.3067 -0.0094
  282MOL0     C38002   2.464   1.746   1.880  0.0685 -0.1349 -0.0585
  282MOL0     H38003   2.535   1.103   1.877  0.9630 -3.8078  1.7915
  282MOL0     H38004   2.442   0.918   2.010 -0.2186 -1.1449  0.9258
  282MOL0     H38005   2.069   0.995   2.252  0.1233 -0.1794 -2.0288
  282MOL0     H38006   2.128   0.846   2.314 -0.2573  0.2065 -1.0593
  282MOL0     H38007   2.134   1.026   2.470  0.2500  1.4468  0.7850
  282MOL0     H38008   2.234   1.123   2.362 -3.9423  0.7220  0.2260
  282MOL0     H38009   2.429   0.949   2.375 -1.3974 -1.1779 -2.0348
  282MOL0     H38010   2.336   0.856   2.470  2.5261 -0.4738  1.0221
  282MOL0     H38011   2.424   1.140   2.543 -0.9595  0.5158 -1.1593
  282MOL0     H38012   2.319   1.051   2.643  2.1344 -3.8711  2.4967
  282MOL0     H38013   2.463   0.881   2.687 -0.1828  0.0660  0.6432
  282MOL0     H38014   2.571   0.936   2.563  0.8245  0.7240  1.2114
  282MOL0     H38015   2.647   1.134   2.699  0.3519 -1.1044  0.5120
  282MOL0     H38016   2.509   1.107   2.808 -1.7517  1.2098 -1.5978
  282MOL0     H38017   2.599   0.929   2.915  0.8980 -1.0928  0.7520
  282MOL0     H38018   2.707   1.057   2.918 -0.1792  2.4133 -2.2209
  282MOL0     H38019   2.741   0.829   2.711 -0.1168  1.4303 -0.9578
  282MOL0     H38020   2.866   0.942   2.762  1.8755 -0.6164  2.9889
  282MOL0     H38021   2.660   0.641   2.887 -0.2121 -0.9389  0.5853
  282MOL0     H38022   2.733   0.412   2.947  0.0880 -0.1289  0.3049
  282MOL0     H38023   2.897   0.380   2.997 -1.7039 -2.6527  0.0514
  282MOL0     H38024   2.760   0.321   3.175 -0.4177 -0.0737 -1.2457
  282MOL0     H38025   2.863   0.452   3.228 -1.4547  2.6039  0.0168
  282MOL0     H38026   2.695   0.615   3.192  0.9301 -0.3098  1.4086
  282MOL0     H38027   2.651   0.511   3.319  4.2895 -1.1886  1.0343
  282MOL0     H38028   2.537   0.497   3.043  3.4341 -0.4037 -0.1608
  282MOL0     H38029   2.459   0.573   3.172  1.6440  1.2239  1.6326
  282MOL0     H38030   2.505   0.113   3.099 -0.5331 -1.4661 -3.4420
  282MOL0     H38031   2.323  -0.013   3.007 -2.6206 -1.4239  2.0394
  282MOL0     H38032   1.957   0.032   2.634 -1.6455 -0.1049 -1.1262
  282MOL0     H38033   1.847  -0.115   2.505  5.2562  0.6773 -1.4177
  282MOL0     H38034   1.644  -0.237   2.474  1.4520  1.6775 -0.7359
  282MOL0     H38035   1.785  -0.295   2.401  1.4917 -0.7077  0.9050
  282MOL0     H38036   1.723  -0.481   2.338  0.2069 -0.4305  1.3895
  282MOL0     H38037   1.592  -0.502   2.463 -4.3651  3.0565  0.5217
  282MOL0     H38038   1.447  -0.359   2.364 -0.7092 -2.3164 -0.5855
  282MOL0     H38039   1.569  -0.283   2.270 -0.8530 -1.2052 -1.3929
  282MOL0     H38040   1.498  -0.575   2.240  1.0152  0.5179  1.5934
  282MOL0     H38041   1.594  -0.485   2.117 -0.4887 -2.1016 -1.6476
  282MOL0     H38042   1.400  -0.333   2.086 -0.1805 -0.0906  1.1883
  282MOL0     H38043   1.313  -0.435   2.191  2.2801  1.0623  1.7882
  282MOL0     H38044   1.454  -0.512   1.912 -0.3245  0.3781 -0.5584
  282MOL0     H38045   1.367  -0.627   2.016 -0.6117  0.0689 -3.1437
  282MOL0     H38046   1.246  -0.386   1.870  0.3756 -0.8565  0.0036
  282MOL0     H38047   1.157  -0.518   1.967 -0.0284 -4.2925 -0.7843
  282MOL0     H38048   1.325  -0.573   1.721  0.0268 -1.1484  0.3341
  282MOL0     H38049   1.247  -0.690   1.819 -3.0130  0.0126  1.6150
  282MOL0     H38050   1.834  -0.416   2.823 -1.6250  0.4951 -0.1136
  282MOL0     H38051   2.014  -0.286   2.932 -5.9726 -0.4362  2.4128
  282MOL0     H38052   2.080   0.358   3.010 -1.1860 -1.6350  0.9008
  282MOL0     H38053   2.260   0.468   3.103  0.8229 -1.2309 -0.8573
  282MOL0     H38054   2.106   1.168   2.115  0.1552 -1.4033  1.8692
  282MOL0     H38055   2.188   1.342   1.956 -3.5737 -0.9109  3.8206
  282MOL0     H38056   2.565   1.395   1.604 -2.1119 -0.7355 -0.9913
  282MOL0     H38057   2.601   1.536   1.415  2.8120  2.1693  0.2407
  282MOL0     H38058   2.609   1.681   1.270  1.7778  0.3946  3.1534
  282MOL0     H38059   2.640   1.845   1.231  0.4296 -0.7008  0.6678
  282MOL0     H38060   2.394   1.883   1.200 -0.2574 -0.0001  0.8261
  282MOL0     H38061   2.362   1.712   1.224 -1.5102  0.9235 -2.4127
  282MOL0     H38062   2.540   1.653   1.050 -0.5627 -0.0682 -4.6462
  282MOL0     H38063   2.532   1.821   1.009 -2.3205  1.2429 -2.3836
  282MOL0     H38064   2.379   1.696   0.862 -0.2462  2.1554  0.2283
  282MOL0     H38065   2.316   1.601   1.010  0.3537 -0.7034 -1.2883
  282MOL0     H38066   2.063   1.938   1.010  2.5137  3.2567 -0.0939
  282MOL0     H38067   2.469   1.875   1.642  0.0167  0.1365 -0.4406
  282MOL0     H38068   2.464   1.854   1.860 -0.4465 -0.6068 -3.1489
  282MOL0     H38069   2.374   1.716   1.935 -0.4949  0.7899 -0.4394
  282MOL0     H38070   2.553   1.722   1.938 -1.4364 -0.2570  2.3624
  283MOL0     O38071   7.259  11.192   0.684 -0.2872  0.9835 -0.5420
  283MOL0     C38072   7.333  11.268   0.741 -0.3538 -0.9070 -0.2404
  283MOL0     O38073   7.404  11.237   0.848  0.2383  0.0266 -0.4895
  283MOL0     C38074   7.375  11.114   0.908 -1.4838 -0.4674  0.3427
  283MOL0     C38075   7.264  11.110   0.986  0.3870  0.6471  1.1300
  283MOL0     C38076   7.221  10.997   1.054 -0.0913 -0.0461 -0.1023
  283MOL0     C38077   7.294  10.886   1.035  0.8582  0.0238 -0.5446
  283MOL0     O38078   7.247  10.780   1.107  0.0263  0.1204 -0.3712
  283MOL0     C38079   7.226  10.666   1.025 -0.5824  0.8343 -0.0904
  283MOL0     C38080   7.146  10.566   1.099 -0.3142  0.0206 -0.9921
  283MOL0     C38081   7.200  10.506   1.228  0.0650 -0.2390  0.6201
  283MOL0     C38082   7.181  10.358   1.214 -0.0375  0.0466 -1.1978
  283MOL0     C38083   7.225  10.278   1.339  0.5242  1.0195  0.6192
  283MOL0     C38084   7.183  10.124   1.334 -0.5292 -0.3010 -0.4004
  283MOL0     C38085   7.271  10.063   1.226 -0.2426  0.5236  0.7473
  283MOL0     C38086   7.266   9.915   1.219  0.1751 -0.3932  0.3609
  283MOL0     N38087   7.137   9.852   1.180 -0.9442  0.2565 -0.2426
  283MOL0     C38088   7.060   9.851   1.065 -0.2785  0.2174  0.5002
  283MOL0     C38089   6.959   9.764   1.082 -0.6563  0.1800 -0.5790
  283MOL0     C38090   6.865   9.758   0.967 -0.0499  1.1305 -0.8988
  283MOL0     C38091   6.895   9.636   0.871  0.0532  0.2076  0.0038
  283MOL0     C38092   6.849   9.501   0.941 -1.0169 -0.2107  0.4499
  283MOL0     C38093   6.921   9.375   0.895 -0.6887  0.4720 -0.0293
  283MOL0     O38094   6.860   9.334   0.779  0.5164  0.1889 -0.4083
  283MOL0     C38095   6.777   9.224   0.791  0.3216 -0.7973  0.5211
  283MOL0     C38096   6.776   9.128   0.685  0.0687 -0.7075  0.3896
  283MOL0     C38097   6.695   9.011   0.690  0.5416  0.9373 -0.3599
  283MOL0     C38098   6.609   8.989   0.799  0.1627 -0.6928  0.3917
  283MOL0     C38099   6.516   8.874   0.808 -0.8347 -0.0037  0.1426
  283MOL0     O38100   6.494   8.803   0.697 -0.1157  0.6858 -0.1875
  283MOL0     C38101   6.428   8.682   0.715 -0.3202 -0.6945 -0.1905
  283MOL0     C38102   6.496   8.559   0.726  0.4391  0.0584  0.3807
  283MOL0     C38103   6.426   8.438   0.744 -0.3380  0.2305  1.2994
  283MOL0     C38104   6.287   8.448   0.761 -0.1158  0.0613 -0.0318
  283MOL0     O38105   6.199   8.349   0.786  0.1868  0.1154 -0.8579
  283MOL0     C38106   6.247   8.212   0.825 -0.0498 -0.5461 -0.1747
  283MOL0     C38107   6.131   8.138   0.887 -0.1359 -0.4323 -0.8324
  283MOL0     C38108   6.066   8.053   0.776 -0.0139  0.2827 -0.3041
  283MOL0     C38109   5.961   7.963   0.846 -0.4668  0.1555 -0.1006
  283MOL0     C38110   5.886   7.869   0.757 -0.9066  0.5864 -0.1770
  283MOL0     C38111   5.780   7.788   0.834  0.6577 -0.0676  0.3280
  283MOL0     C38112   5.659   7.868   0.863 -0.1663 -0.8578 -0.7176
  283MOL0     C38113   5.525   7.792   0.893  0.4188  0.3027 -0.2641
  283MOL0    Cl38114   5.474   7.697   0.751  0.1828 -0.5386 -0.0706
  283MOL0     C38115   6.220   8.569   0.748  0.4432 -0.1838 -0.0277
  283MOL0     C38116   6.292   8.685   0.730 -0.4522 -0.5136 -0.1551
  283MOL0     O38117   6.469   8.853   0.920 -1.0401 -1.0286  0.1481
  283MOL0     C38118   6.626   9.072   0.905 -0.4545 -1.1330  0.0903
  283MOL0     C38119   6.710   9.183   0.907  0.6219 -0.2077  0.0976
  283MOL0     N38120   6.973   9.708   1.203 -0.0939 -0.4931  0.1498
  283MOL0     N38121   7.072   9.759   1.262  0.1273 -0.5379 -0.2940
  283MOL0     C38122   7.416  10.884   0.968 -0.1055 -0.4815  0.3444
  283MOL0     C38123   7.452  11.000   0.898 -0.0052  0.2726 -0.4708
  283MOL0     C38124   7.333  11.408   0.678  0.1399 -0.1744 -0.2698
  283MOL0     C38125   7.262  11.423   0.562  0.8611 -0.2248  0.0003
  283MOL0     C38126   7.269  11.534   0.489  0.2851  0.0087 -0.4264
  283MOL0     C38127   7.339  11.651   0.532 -0.6057  0.8572 -0.0659
  283MOL0     O38128   7.326  11.766   0.457 -0.2371 -0.0557  0.7794
  283MOL0     C38129   7.422  11.870   0.459 -0.6051  0.5526 -0.7703
  283MOL0     C38130   7.470  11.896   0.321 -0.3480  0.2554  0.7838
  283MOL0     C38131   7.537  11.768   0.256  0.3761 -0.4748 -0.3250
  283MOL0     C38132   7.480  11.743   0.118 -0.6885 -0.3549 -0.4770
  283MOL0     C38133   7.345  11.698   0.128 -0.2362  0.5552 -0.7316
  283MOL0     C38134   7.235  11.665   0.101  0.6804  1.1347 -0.3227
  283MOL0     C38135   7.405  11.634   0.650  0.2994  0.1056 -0.2267
  283MOL0     C38136   7.419  11.516   0.719 -0.2640  0.0111  0.8817
  283MOL0     C38137   7.515  11.514   0.839  0.5353  0.0830 -0.3155
  283MOL0     H38138   7.192  11.191   0.990  0.5876  0.8078  1.6895
  283MOL0     H38139   7.129  10.989   1.112 -0.4241  2.4086 -0.1544
  283MOL0     H38140   7.157  10.676   0.940 -1.3213 -0.2639  0.3534
  283MOL0     H38141   7.321  10.618   1.000 -0.5735 -1.7694  4.1135
  283MOL0     H38142   7.126  10.493   1.019  3.7739  0.1553 -2.3971
  283MOL0     H38143   7.049  10.611   1.121  0.1753  2.1576 -2.8493
  283MOL0     H38144   7.155  10.547   1.319  4.7028  0.2811  2.9459
  283MOL0     H38145   7.307  10.526   1.236  0.1304  0.7126 -1.7949
  283MOL0     H38146   7.072  10.346   1.217  0.1348 -1.7330 -0.0348
  283MOL0     H38147   7.223  10.319   1.121  0.9072 -3.7601  0.6147
  283MOL0     H38148   7.334  10.275   1.347  0.6767  3.0510  0.0119
  283MOL0     H38149   7.182  10.329   1.426 -4.1744 -0.8614 -0.3236
  283MOL0     H38150   7.211  10.086   1.433 -1.9537  1.1950  0.6269
  283MOL0     H38151   7.077  10.099   1.321 -0.8331  1.7888 -2.7962
  283MOL0     H38152   7.380  10.069   1.236  0.3366  0.2638 -3.4683
  283MOL0     H38153   7.235  10.088   1.126  0.2901 -0.6894  0.2346
  283MOL0     H38154   7.345   9.864   1.163  0.8254 -2.5044  2.9796
  283MOL0     H38155   7.291   9.891   1.323  0.8652 -0.4190  0.1950
  283MOL0     H38156   7.083   9.897   0.970  0.9708  0.5756  0.9580
  283MOL0     H38157   6.767   9.741   1.012 -0.8921 -0.2882 -3.0966
  283MOL0     H38158   6.862   9.850   0.908 -1.0787  0.0851 -2.5725
  283MOL0     H38159   6.836   9.641   0.779  0.6913  0.6576 -0.3818
  283MOL0     H38160   7.000   9.632   0.842  0.2816  4.3642 -0.3197
  283MOL0     H38161   6.741   9.496   0.924 -0.9762  3.2600 -1.9459
  283MOL0     H38162   6.855   9.506   1.050 -0.7363  2.0538  0.3778
  283MOL0     H38163   6.911   9.292   0.965  0.2747  0.3025 -0.0783
  283MOL0     H38164   7.027   9.401   0.881 -1.0634  0.3502 -4.6984
  283MOL0     H38165   6.841   9.137   0.598 -0.9084  1.5161 -0.1931
  283MOL0     H38166   6.699   8.938   0.610  1.2219  0.4328  0.1288
  283MOL0     H38167   6.603   8.551   0.707  0.7722 -1.8868  2.6488
  283MOL0     H38168   6.482   8.345   0.752 -0.7117 -0.1935 -0.5704
  283MOL0     H38169   6.286   8.165   0.734  0.0196 -0.5443 -0.1463
  283MOL0     H38170   6.327   8.225   0.898  0.8148 -3.2038 -0.5510
  283MOL0     H38171   6.176   8.069   0.959  0.7941  0.2533 -0.7380
  283MOL0     H38172   6.065   8.215   0.928 -0.3242 -1.8789  1.8241
  283MOL0     H38173   6.012   8.117   0.705 -0.9631 -0.0728  0.0744
  283MOL0     H38174   6.146   8.004   0.720 -1.5496 -1.1368 -1.3480
  283MOL0     H38175   5.888   8.034   0.888 -0.9532  0.6403 -1.7000
  283MOL0     H38176   6.004   7.904   0.927 -1.6101  2.3854  2.3180
  283MOL0     H38177   5.957   7.797   0.714 -1.1972 -0.8679  1.6677
  283MOL0     H38178   5.843   7.915   0.667  0.0972 -0.4405 -1.2120
  283MOL0     H38179   5.754   7.713   0.759  0.9873 -3.5288  3.4226
  283MOL0     H38180   5.831   7.746   0.921 -1.1469  0.9228  1.9225
  283MOL0     H38181   5.636   7.937   0.780 -1.1204  2.0394  1.7706
  283MOL0     H38182   5.675   7.927   0.954 -0.0847 -2.4032  0.2978
  283MOL0     H38183   5.544   7.712   0.965 -1.1565 -2.8426 -3.0369
  283MOL0     H38184   5.439   7.852   0.922 -0.5433 -0.9336 -0.4820
  283MOL0     H38185   6.112   8.575   0.742  0.5349  1.3683 -0.5584
  283MOL0     H38186   6.251   8.785   0.720  3.8269  1.5455  0.9750
  283MOL0     H38187   6.561   9.056   0.991 -0.8177 -1.4954 -0.2498
  283MOL0     H38188   6.705   9.237   1.001  1.8332 -1.4452  0.9206
  283MOL0     H38189   7.488  10.803   0.975 -1.2450 -2.1749 -4.0748
  283MOL0     H38190   7.552  11.023   0.862  0.4401  3.1110  2.1711
  283MOL0     H38191   7.218  11.333   0.520  0.4745  0.0755 -0.2433
  283MOL0     H38192   7.214  11.537   0.396 -0.8213  0.2282  0.2206
  283MOL0     H38193   7.508  11.847   0.522 -1.4576 -0.5604  0.0289
  283MOL0     H38194   7.367  11.957   0.497  2.1999  1.8234  0.6291
  283MOL0     H38195   7.534  11.985   0.314 -2.6241  1.9070 -4.1118
  283MOL0     H38196   7.388  11.926   0.255 -3.8162 -0.5730  4.3696
  283MOL0     H38197   7.518  11.679   0.317  3.4529 -2.5704 -2.1445
  283MOL0     H38198   7.645  11.785   0.255  0.6204 -1.7847  0.8511
  283MOL0     H38199   7.501  11.832   0.059 -0.2248 -0.7538 -0.9296
  283MOL0     H38200   7.537  11.660   0.075 -0.9796  0.2792 -2.1467
  283MOL0     H38201   7.135  11.634   0.082  1.0358  1.8549 -4.0873
  283MOL0     H38202   7.455  11.729   0.670 -3.2774  1.9245  1.0699
  283MOL0     H38203   7.455  11.502   0.929  1.2818 -1.7993 -0.0327
  283MOL0     H38204   7.587  11.433   0.827 -0.1923 -0.3071 -2.8575
  283MOL0     H38205   7.556  11.614   0.850 -2.3755  1.3694 -0.1308
  284MOL0     O38206   0.285   9.139   0.784  0.2588  0.6450 -0.3152
  284MOL0     C38207   0.240   9.221   0.864  0.6463  1.3799 -1.4919
  284MOL0     O38208   0.198   9.348   0.844 -0.3528  0.0607  0.0754
  284MOL0     C38209   0.186   9.389   0.715  0.2631 -0.7319  0.2581
  284MOL0     C38210   0.138   9.308   0.606 -0.2058  0.1939 -1.0441
  284MOL0     C38211   0.126   9.360   0.476 -0.7184  0.3657 -1.1923
  284MOL0     C38212   0.156   9.488   0.439 -0.0693  1.6454 -1.5786
  284MOL0     O38213   0.141   9.541   0.312  0.3382 -0.1619  0.3637
  284MOL0     C38214   0.097   9.461   0.205 -0.3342  0.4511  0.2710
  284MOL0     C38215   0.121   9.543   0.079 -0.1840 -0.1716  1.6589
  284MOL0     C38216   0.272   9.525   0.020  0.4502  0.3569 -0.4739
  284MOL0     C38217   0.280   9.547  -0.131  0.6990  0.5259 -0.6205
  284MOL0     C38218   0.418   9.516  -0.186 -0.7842 -0.4637 -0.6183
  284MOL0     C38219   0.423   9.489  -0.342  0.4801  1.0975 -0.1435
  284MOL0     C38220   0.369   9.611  -0.409 -0.2688 -0.6346  1.2229
  284MOL0     C38221   0.444   9.744  -0.396  0.1034  0.0572 -0.4920
  284MOL0     N38222   0.592   9.727  -0.385  0.1033 -0.1293  0.3783
  284MOL0     C38223   0.678   9.691  -0.492 -0.1839 -0.0882 -0.6322
  284MOL0     C38224   0.802   9.725  -0.452  0.5707 -0.6279  0.0916
  284MOL0     C38225   0.930   9.705  -0.522  0.6133 -0.5691 -0.0792
  284MOL0     C38226   0.951   9.794  -0.650 -0.3559  0.3404 -0.3699
  284MOL0     C38227   0.960   9.950  -0.625  0.8933 -0.7544 -1.3309
  284MOL0     C38228   1.056   9.979  -0.507 -0.7262 -0.3503  0.1659
  284MOL0     O38229   1.081  10.111  -0.473  0.0833 -0.2808  0.1432
  284MOL0     C38230   1.026  10.168  -0.365  0.7430 -0.8969  0.2118
  284MOL0     C38231   0.993  10.298  -0.376  0.4751  0.6666  0.1348
  284MOL0     C38232   0.915  10.364  -0.278  0.8074 -1.7550 -0.4948
  284MOL0     C38233   0.867  10.303  -0.160 -0.4211 -0.2545  0.6469
  284MOL0     C38234   0.790  10.372  -0.061 -0.2393  0.0425  0.7501
  284MOL0     O38235   0.750  10.495  -0.099  0.5425 -0.0952  0.0564
  284MOL0     C38236   0.677  10.584  -0.030  0.2259 -0.5156 -0.0527
  284MOL0     C38237   0.642  10.578   0.103 -0.0192  0.3510  0.1710
  284MOL0     C38238   0.566  10.685   0.162 -0.3864  1.0369  0.5770
  284MOL0     C38239   0.540  10.804   0.093 -0.0904 -0.3571  0.6452
  284MOL0     O38240   0.479  10.905   0.160 -0.2429 -0.9202 -0.1430
  284MOL0     C38241   0.497  11.044   0.136  0.8204  0.6413  0.7484
  284MOL0     C38242   0.499  11.138   0.257  0.2299  0.6143  0.7941
  284MOL0     C38243   0.604  11.096   0.351 -0.0848  0.2912 -0.4971
  284MOL0     C38244   0.626  11.186   0.468 -0.3635  0.1100 -0.2204
  284MOL0     C38245   0.492  11.219   0.532  0.1061 -0.8540  0.2108
  284MOL0     C38246   0.497  11.262   0.685 -1.2735 -0.2127  0.6223
  284MOL0     C38247   0.620  11.361   0.714  0.3726  0.9241 -0.2132
  284MOL0     C38248   0.638  11.380   0.868 -0.1021 -0.6019  1.0201
  284MOL0    Cl38249   0.514  11.492   0.943  0.3393 -0.1661 -0.1737
  284MOL0     C38250   0.557  10.810  -0.046  0.4053  0.0387  0.1932
  284MOL0     C38251   0.627  10.699  -0.099  0.9306 -0.0475 -0.7332
  284MOL0     O38252   0.755  10.321   0.045 -0.8098  0.2275 -0.1064
  284MOL0     C38253   0.901  10.172  -0.148  0.0197  0.0301 -0.8884
  284MOL0     C38254   0.973  10.109  -0.252 -0.3273  0.4939 -0.0775
  284MOL0     N38255   0.794   9.787  -0.326 -0.2151 -0.6155  0.4197
  284MOL0     N38256   0.671   9.787  -0.296 -0.3616 -0.0881 -0.0405
  284MOL0     C38257   0.194   9.568   0.544 -0.3263 -0.7666  0.8291
  284MOL0     C38258   0.206   9.525   0.677 -0.1885  0.7182 -0.3940
  284MOL0     C38259   0.231   9.179   1.012 -0.6721 -0.4941  0.0489
  284MOL0     C38260   0.318   9.255   1.100  0.0481 -0.5182 -0.0173
  284MOL0     C38261   0.339   9.221   1.228  0.3019 -0.7899 -0.1374
  284MOL0     C38262   0.268   9.114   1.286 -0.4845 -0.3965 -0.4902
  284MOL0     O38263   0.292   9.067   1.413  0.6724  0.4178  0.2953
  284MOL0     C38264   0.424   9.009   1.427  0.0675  0.7955  0.9184
  284MOL0     C38265   0.435   8.854   1.388 -0.0529  0.0160 -0.9884
  284MOL0     C38266   0.563   8.778   1.450  0.3292 -0.0793  0.6704
  284MOL0     C38267   0.588   8.631   1.416 -0.1475 -1.1646  0.5402
  284MOL0     C38268   0.613   8.639   1.270  0.2495 -0.2805 -1.0477
  284MOL0     C38269   0.616   8.626   1.158 -0.5638  0.6042 -0.0158
  284MOL0     C38270   0.184   9.038   1.205 -0.0433 -0.2584 -0.6514
  284MOL0     C38271   0.153   9.085   1.079  0.2685  0.0816  0.7033
  284MOL0     C38272   0.056   9.006   0.996 -0.2992 -0.3494 -0.0635
  284MOL0     H38273   0.104   9.210   0.636  0.7816  0.0958 -0.1608
  284MOL0     H38274   0.091   9.286   0.405 -1.3187  0.1517 -0.6830
  284MOL0     H38275   0.138   9.360   0.199 -1.7246 -0.1172 -0.1567
  284MOL0     H38276  -0.009   9.438   0.219 -0.1509  0.2831  1.5016
  284MOL0     H38277   0.103   9.649   0.096 -0.8670 -0.1278  0.7684
  284MOL0     H38278   0.050   9.508   0.003 -0.2105  1.5324  0.8528
  284MOL0     H38279   0.302   9.420   0.030 -3.9604 -1.2509 -1.8318
  284MOL0     H38280   0.332   9.594   0.079  0.5854 -1.8590  2.2046
  284MOL0     H38281   0.207   9.486  -0.185 -1.4619  2.6380 -0.3053
  284MOL0     H38282   0.247   9.649  -0.156 -1.1502 -0.0756 -0.8146
  284MOL0     H38283   0.479   9.603  -0.161 -0.1649 -1.4009  1.3433
  284MOL0     H38284   0.469   9.445  -0.121  0.2745  3.0280  2.7278
  284MOL0     H38285   0.527   9.475  -0.375  0.6628  0.8988  0.4902
  284MOL0     H38286   0.365   9.400  -0.367  3.6425 -0.6496 -1.8884
  284MOL0     H38287   0.262   9.629  -0.399 -0.4171 -0.5907 -0.2696
  284MOL0     H38288   0.374   9.584  -0.515 -3.3025 -0.0919  0.8482
  284MOL0     H38289   0.416   9.813  -0.475 -2.6716 -1.7977 -1.3020
  284MOL0     H38290   0.408   9.782  -0.300 -2.4086  0.3409 -1.4651
  284MOL0     H38291   0.647   9.655  -0.589  3.5006 -1.8628 -1.3229
  284MOL0     H38292   1.013   9.731  -0.457  2.0737 -1.8581 -1.3253
  284MOL0     H38293   0.946   9.600  -0.548 -2.2953 -0.6635 -1.9371
  284MOL0     H38294   1.050   9.768  -0.690 -0.6290 -0.8672 -0.3159
  284MOL0     H38295   0.872   9.780  -0.725  0.1077 -2.9689 -0.4042
  284MOL0     H38296   0.859   9.977  -0.595  0.5626  1.6588 -4.0838
  284MOL0     H38297   0.994  10.001  -0.716  1.2905 -1.2334 -1.4563
  284MOL0     H38298   1.150   9.942  -0.548 -1.3817 -1.4444 -0.3862
  284MOL0     H38299   1.020   9.921  -0.422 -2.1781  0.5873  0.2216
  284MOL0     H38300   1.027  10.346  -0.467 -2.5059 -1.5625 -2.3464
  284MOL0     H38301   0.900  10.471  -0.288  2.5082 -0.9521  3.6862
  284MOL0     H38302   0.687  10.501   0.166  1.4582 -2.4698 -3.9310
  284MOL0     H38303   0.540  10.686   0.268 -0.7877 -2.0512  0.6168
  284MOL0     H38304   0.593  11.055   0.086 -0.1665  3.0307 -0.8213
  284MOL0     H38305   0.427  11.084   0.062  0.7274  0.8284  0.9375
  284MOL0     H38306   0.531  11.241   0.234 -0.8457  1.1744  1.7006
  284MOL0     H38307   0.400  11.138   0.304 -1.9102  3.2709 -3.0915
  284MOL0     H38308   0.584  10.997   0.392 -3.3182  0.9917 -0.1243
  284MOL0     H38309   0.697  11.084   0.295 -1.4787 -0.3376 -2.8444
  284MOL0     H38310   0.691  11.270   0.445 -0.0795 -0.3663 -1.2354
  284MOL0     H38311   0.691  11.124   0.530  2.1874 -0.1346 -2.9200
  284MOL0     H38312   0.431  11.128   0.535 -0.3610 -0.5295  0.5984
  284MOL0     H38313   0.434  11.294   0.478  1.4778 -2.3984 -3.7456
  284MOL0     H38314   0.403  11.313   0.710 -2.1772 -0.4359 -1.9982
  284MOL0     H38315   0.498  11.173   0.748 -0.0467 -1.2160 -0.7409
  284MOL0     H38316   0.603  11.458   0.667  1.5716  1.6528  0.7796
  284MOL0     H38317   0.707  11.316   0.666 -0.4941  0.0867 -1.0310
  284MOL0     H38318   0.642  11.279   0.911  0.0887 -1.3777 -0.7083
  284MOL0     H38319   0.731  11.438   0.874 -1.3450  1.5183  0.7472
  284MOL0     H38320   0.513  10.889  -0.106 -0.4121 -0.2944  0.3304
  284MOL0     H38321   0.651  10.689  -0.204  0.0548 -1.0532 -0.8582
  284MOL0     H38322   0.876  10.112  -0.062  1.0340 -1.0019 -1.2913
  284MOL0     H38323   0.986  10.001  -0.248  1.1896  0.5795 -1.5079
  284MOL0     H38324   0.211   9.673   0.519 -0.0150 -0.9237  0.3665
  284MOL0     H38325   0.232   9.603   0.748  3.1455 -1.0403  0.5147
  284MOL0     H38326   0.382   9.339   1.078  0.2953 -0.4089  1.0513
  284MOL0     H38327   0.386   9.283   1.304 -0.3578  1.3398 -1.3695
  284MOL0     H38328   0.452   9.022   1.532 -1.4020 -1.3199  1.6359
  284MOL0     H38329   0.492   9.059   1.357 -1.5811  0.3249 -1.1349
  284MOL0     H38330   0.425   8.842   1.280  0.2661 -1.4097 -0.8840
  284MOL0     H38331   0.351   8.804   1.437 -0.8682 -1.2614 -3.5462
  284MOL0     H38332   0.554   8.797   1.557  0.4479  0.6036  0.5638
  284MOL0     H38333   0.659   8.817   1.414  0.5120 -0.7314  0.4405
  284MOL0     H38334   0.670   8.592   1.477  0.0127 -1.5395  0.0900
  284MOL0     H38335   0.508   8.557   1.429 -1.0602 -0.7490 -2.0666
  284MOL0     H38336   0.606   8.619   1.052 -2.0497  0.9227  0.0814
  284MOL0     H38337   0.140   8.946   1.242 -3.1581  1.4069  0.1090
  284MOL0     H38338  -0.013   9.078   0.950  1.2606  1.3021  0.0565
  284MOL0     H38339   0.117   8.966   0.916 -0.2941 -4.3467  1.7203
  284MOL0     H38340   0.008   8.925   1.052 -2.1907  0.8814  0.2276
  285MOL0     O38341   2.371   5.390   8.822  0.3806  0.2010  1.0566
  285MOL0     C38342   2.316   5.488   8.874 -1.1996 -0.5259 -0.2241
  285MOL0     O38343   2.371   5.608   8.895 -0.4154 -0.3670  0.2277
  285MOL0     C38344   2.495   5.636   8.841 -0.4340  0.1478  0.0297
  285MOL0     C38345   2.537   5.614   8.708 -0.7840  1.2695 -0.0485
  285MOL0     C38346   2.671   5.644   8.666 -0.0975 -0.1331 -0.8699
  285MOL0     C38347   2.760   5.712   8.760 -0.4386  0.4839 -0.6167
  285MOL0     O38348   2.894   5.731   8.732  0.3455 -0.7820 -0.7946
  285MOL0     C38349   2.930   5.807   8.616 -0.5323 -0.2476  0.8999
  285MOL0     C38350   3.085   5.811   8.615  0.5784 -0.3978  0.7574
  285MOL0     C38351   3.138   5.922   8.706 -0.3068 -0.3249 -0.6212
  285MOL0     C38352   3.280   5.875   8.749  0.4599 -0.8706 -0.5198
  285MOL0     C38353   3.331   5.948   8.874 -1.0210 -0.7642 -1.8879
  285MOL0     C38354   3.483   5.912   8.895 -0.8504  0.2494  0.0106
  285MOL0     C38355   3.531   5.987   9.020 -0.7050 -0.5840 -0.1623
  285MOL0     C38356   3.484   5.915   9.153 -0.2997 -0.3555 -0.0821
  285MOL0     N38357   3.573   5.811   9.179 -0.2172  0.2942 -0.4285
  285MOL0     C38358   3.557   5.679   9.143  0.2157  0.3430  0.2650
  285MOL0     C38359   3.675   5.626   9.163 -0.4367  0.0701  0.9294
  285MOL0     C38360   3.695   5.483   9.116 -0.4342  0.6260  0.6046
  285MOL0     C38361   3.840   5.440   9.131  0.6927 -0.3991 -1.1294
  285MOL0     C38362   3.868   5.302   9.090  0.5017  0.1193  0.0585
  285MOL0     C38363   4.020   5.266   9.083  0.4358 -0.0738  0.3416
  285MOL0     O38364   4.071   5.364   8.980  0.3659  0.4385 -0.4180
  285MOL0     C38365   4.203   5.376   8.948 -0.5013  0.5103 -0.4661
  285MOL0     C38366   4.319   5.293   8.968  1.3464 -0.1702 -0.4971
  285MOL0     C38367   4.451   5.313   8.917  0.1844  0.3265  0.7945
  285MOL0     C38368   4.467   5.423   8.835 -0.3951  0.1575 -0.8516
  285MOL0     C38369   4.597   5.436   8.764  1.1361  1.0693  0.2658
  285MOL0     O38370   4.703   5.374   8.828 -0.0755  0.3843 -0.7797
  285MOL0     C38371   4.836   5.383   8.791 -0.2603 -0.1033  0.6376
  285MOL0     C38372   4.905   5.474   8.869 -0.2015  0.4452  0.1719
  285MOL0     C38373   5.035   5.519   8.838 -0.6464  0.5007 -0.4720
  285MOL0     C38374   5.110   5.456   8.738  0.0324 -0.2289  0.1762
  285MOL0     O38375   5.239   5.487   8.713 -0.2698 -0.1933 -1.1980
  285MOL0     C38376   5.334   5.407   8.777  0.8320 -0.1959 -0.2129
  285MOL0     C38377   5.372   5.278   8.701 -1.0579 -0.0365  1.0838
  285MOL0     C38378   5.487   5.207   8.752  0.5867  0.2696  1.0741
  285MOL0     C38379   5.531   5.097   8.643 -0.7448  0.7040 -0.1008
  285MOL0     C38380   5.684   5.051   8.656 -0.1602  0.3938  0.0029
  285MOL0     C38381   5.715   4.932   8.591  0.5928  0.6083 -0.6086
  285MOL0     C38382   5.863   4.903   8.610  0.3624 -0.7340  0.4690
  285MOL0     C38383   5.901   4.793   8.509  0.8338 -0.5754  0.1140
  285MOL0    Cl38384   5.811   4.644   8.539  0.0755 -0.1248 -0.0909
  285MOL0     C38385   5.041   5.353   8.665  0.2878 -0.1331  0.0511
  285MOL0     C38386   4.905   5.321   8.687  0.7125 -0.2957 -0.0514
  285MOL0     O38387   4.614   5.518   8.669  0.7929  0.2806 -0.2146
  285MOL0     C38388   4.356   5.505   8.814 -0.4206 -0.9132 -0.6060
  285MOL0     C38389   4.235   5.498   8.885  0.4187  0.0517  0.4304
  285MOL0     N38390   3.763   5.725   9.206  0.5223  0.7126  0.1821
  285MOL0     N38391   3.704   5.837   9.222  0.2821 -0.4854  0.2775
  285MOL0     C38392   2.722   5.735   8.888  0.4647 -0.4963  0.4992
  285MOL0     C38393   2.589   5.695   8.926 -1.0187 -0.4790 -0.0908
  285MOL0     C38394   2.178   5.474   8.921 -0.5578  0.3624  0.4196
  285MOL0     C38395   2.102   5.358   8.876 -0.5776  0.3152  0.3576
  285MOL0     C38396   1.968   5.346   8.906 -0.2264 -0.5093  0.4866
  285MOL0     C38397   1.904   5.442   8.966  0.1320 -1.2262 -0.9872
  285MOL0     O38398   1.774   5.422   8.997  0.1489 -0.1620 -1.1149
  285MOL0     C38399   1.691   5.499   9.099 -0.8223 -0.5931  0.0601
  285MOL0     C38400   1.564   5.418   9.129  0.2252  0.5712 -0.6807
  285MOL0     C38401   1.483   5.389   8.994 -0.4902 -0.1944  0.0776
  285MOL0     C38402   1.450   5.243   8.993  0.2154 -0.1924 -0.7437
  285MOL0     C38403   1.391   5.193   8.867 -0.5157  0.9234 -0.5384
  285MOL0     C38404   1.331   5.137   8.772  0.5253 -0.8831  0.2001
  285MOL0     C38405   1.969   5.553   9.007 -0.5005  0.1826 -0.3348
  285MOL0     C38406   2.108   5.573   9.002  0.2000  0.6741 -0.2539
  285MOL0     C38407   2.185   5.683   9.081  1.1790 -0.2284  0.3095
  285MOL0     H38408   2.474   5.576   8.628 -0.3114 -0.1848  0.2355
  285MOL0     H38409   2.702   5.632   8.562  2.2877  1.9986 -0.5215
  285MOL0     H38410   2.900   5.760   8.523 -2.0485  0.3797  1.0309
  285MOL0     H38411   2.898   5.912   8.608  0.5323  0.0387  0.2182
  285MOL0     H38412   3.134   5.819   8.518  0.9876  2.9391  1.1315
  285MOL0     H38413   3.109   5.712   8.655  0.2396 -0.2336  1.3886
  285MOL0     H38414   3.084   5.928   8.802  1.4496 -2.3542  0.6036
  285MOL0     H38415   3.144   6.016   8.651  1.2336  0.7066  1.1862
  285MOL0     H38416   3.288   5.767   8.766 -1.8622 -1.1723 -1.1289
  285MOL0     H38417   3.348   5.897   8.666  0.9852  0.5624  0.2516
  285MOL0     H38418   3.320   6.056   8.865 -2.3495 -0.5474  1.0783
  285MOL0     H38419   3.275   5.913   8.962  2.0888 -1.2936  0.0530
  285MOL0     H38420   3.500   5.804   8.896  2.1534  0.5397 -2.6722
  285MOL0     H38421   3.542   5.955   8.814 -1.8332  5.2882  1.5903
  285MOL0     H38422   3.478   6.082   9.027 -2.0140 -0.8632 -3.8435
  285MOL0     H38423   3.639   6.003   9.013 -0.6104 -1.6187 -1.6516
  285MOL0     H38424   3.485   5.991   9.231 -2.1789 -1.5008  1.1497
  285MOL0     H38425   3.381   5.882   9.136 -0.3213 -0.9309  1.1072
  285MOL0     H38426   3.468   5.628   9.107  0.7518 -1.2818  1.1099
  285MOL0     H38427   3.628   5.413   9.168 -1.5052 -0.0764 -1.5920
  285MOL0     H38428   3.678   5.474   9.008 -1.7815 -0.7961  0.8979
  285MOL0     H38429   3.907   5.511   9.082  2.2944  0.9378  2.5890
  285MOL0     H38430   3.871   5.464   9.233  4.3203  4.5664 -2.9959
  285MOL0     H38431   3.838   5.295   8.985 -2.2101  0.3158  0.7361
  285MOL0     H38432   3.810   5.226   9.144 -0.7013  0.2676 -0.9919
  285MOL0     H38433   4.031   5.159   9.064  1.2968 -0.0692  0.7806
  285MOL0     H38434   4.074   5.279   9.177 -1.9752 -2.3878  2.1840
  285MOL0     H38435   4.306   5.196   9.014 -0.8620 -0.1263 -0.9288
  285MOL0     H38436   4.526   5.236   8.937 -2.4348 -2.0901  2.1413
  285MOL0     H38437   4.847   5.514   8.951 -0.1602 -1.5016  1.2284
  285MOL0     H38438   5.078   5.604   8.889  2.2457  1.5807 -4.2527
  285MOL0     H38439   5.427   5.464   8.784 -0.9933  3.0556 -0.8944
  285MOL0     H38440   5.298   5.387   8.878  1.8800 -1.1669 -0.0053
  285MOL0     H38441   5.289   5.206   8.703  0.1898 -1.5270  0.7954
  285MOL0     H38442   5.373   5.316   8.599  0.7378 -1.0428  0.6841
  285MOL0     H38443   5.565   5.282   8.770  1.4999 -1.2979  4.2374
  285MOL0     H38444   5.462   5.164   8.849  1.5473  0.0255  1.2257
  285MOL0     H38445   5.518   5.123   8.538  1.7017 -1.6415 -1.1000
  285MOL0     H38446   5.479   5.004   8.668  0.6796 -0.7588 -2.2385
  285MOL0     H38447   5.706   5.034   8.761 -2.9645 -0.3488  0.5579
  285MOL0     H38448   5.738   5.135   8.610 -0.0049 -0.0701 -0.6823
  285MOL0     H38449   5.667   4.849   8.644  3.4029 -0.1657  0.9109
  285MOL0     H38450   5.679   4.938   8.488 -0.9747 -0.3208 -0.1541
  285MOL0     H38451   5.883   4.869   8.712 -2.5643 -1.0333  1.0494
  285MOL0     H38452   5.920   4.994   8.593 -1.8434  0.8017  0.9322
  285MOL0     H38453   5.879   4.830   8.408 -0.3487 -0.4719  0.4013
  285MOL0     H38454   6.009   4.778   8.524  0.7517 -1.7869 -0.3949
  285MOL0     H38455   5.104   5.313   8.586  0.2674  1.1784 -0.6555
  285MOL0     H38456   4.856   5.245   8.626 -1.0861 -0.5354  1.5722
  285MOL0     H38457   4.358   5.581   8.736 -1.6300  0.8243  0.9532
  285MOL0     H38458   4.155   5.568   8.865  0.0239 -0.7959 -1.0579
  285MOL0     H38459   2.792   5.782   8.956 -0.8402  1.2012  0.7150
  285MOL0     H38460   2.565   5.723   9.027 -0.1331 -1.6391  0.4684
  285MOL0     H38461   2.154   5.272   8.835 -0.9771 -0.3771  1.2458
  285MOL0     H38462   1.916   5.259   8.869 -1.5104  0.1207  0.7736
  285MOL0     H38463   1.677   5.595   9.050  6.3245  1.3317  0.5992
  285MOL0     H38464   1.752   5.513   9.188  3.0060 -6.3929 -1.0917
  285MOL0     H38465   1.517   5.482   9.204  1.7082 -0.7976  1.5448
  285MOL0     H38466   1.591   5.323   9.176 -1.8919 -0.8200 -2.0758
  285MOL0     H38467   1.536   5.413   8.901 -0.3196  3.2950  0.9726
  285MOL0     H38468   1.383   5.434   8.992  0.2274  1.4444 -0.2296
  285MOL0     H38469   1.531   5.171   9.005 -1.1389 -2.0403 -2.1365
  285MOL0     H38470   1.372   5.238   9.070  0.6050 -0.2937 -0.3523
  285MOL0     H38471   1.294   5.093   8.682  0.6437 -0.1092 -0.2256
  285MOL0     H38472   1.920   5.624   9.073 -0.3181 -0.6347  0.7205
  285MOL0     H38473   2.232   5.761   9.021  1.0686 -0.9463 -0.7315
  285MOL0     H38474   2.115   5.730   9.151 -0.8498  0.2209 -1.9166
  285MOL0     H38475   2.261   5.624   9.133  1.3864 -0.4506 -0.2433
  286MOL0     O38476   1.195   1.743   0.330  0.2349  0.2570  0.5932
  286MOL0     C38477   1.267   1.734   0.229  0.4922 -0.8694 -0.2915
  286MOL0     O38478   1.374   1.662   0.231 -0.0360  0.1659 -0.4825
  286MOL0     C38479   1.399   1.561   0.324 -0.8165  0.3552 -0.8879
  286MOL0     C38480   1.529   1.569   0.398  0.5735  0.3128  0.4430
  286MOL0     C38481   1.551   1.452   0.473  0.4788  0.3033  0.0537
  286MOL0     C38482   1.466   1.354   0.496  0.1200 -0.7399 -0.1357
  286MOL0     O38483   1.510   1.257   0.583  1.1251  0.2051  0.0884
  286MOL0     C38484   1.445   1.132   0.587 -0.2771  0.1611 -1.0762
  286MOL0     C38485   1.524   1.036   0.687 -0.0578  0.3776 -0.5394
  286MOL0     C38486   1.511   0.883   0.659 -0.0422 -0.5519 -0.4228
  286MOL0     C38487   1.367   0.829   0.692  0.2458 -0.2078  0.7183
  286MOL0     C38488   1.334   0.682   0.638 -0.1861 -0.1730  0.4677
  286MOL0     C38489   1.445   0.584   0.654 -0.6080 -0.2366  1.2142
  286MOL0     C38490   1.395   0.434   0.623 -0.3376 -0.0399  0.3866
  286MOL0     C38491   1.524   0.341   0.649  0.0446  0.5600  0.0244
  286MOL0     N38492   1.488   0.202   0.632 -0.2551 -0.7274  0.0920
  286MOL0     C38493   1.432   0.163   0.515 -0.1117 -0.2191  0.4190
  286MOL0     C38494   1.395   0.037   0.541 -0.0943  0.5510  0.0289
  286MOL0     C38495   1.344  -0.071   0.449  0.5990  0.9838  0.0529
  286MOL0     C38496   1.391  -0.080   0.309 -0.1972  0.1061  0.2346
  286MOL0     C38497   1.529  -0.148   0.287 -0.1771  0.4833 -0.4232
  286MOL0     C38498   1.638  -0.060   0.324  0.2109  0.5576  0.1042
  286MOL0     O38499   1.658   0.044   0.232 -0.3872 -0.6086 -0.1876
  286MOL0     C38500   1.752   0.145   0.266 -0.5404  1.4507  0.4359
  286MOL0     C38501   1.866   0.109   0.346  0.4625 -0.4556  0.2137
  286MOL0     C38502   1.961   0.212   0.376  0.2051  0.6045 -0.0218
  286MOL0     C38503   1.947   0.342   0.331 -0.0648 -0.2158  0.3654
  286MOL0     C38504   2.056   0.429   0.354  1.0024 -0.5623  0.5022
  286MOL0     O38505   2.165   0.392   0.424 -0.3195  0.2172 -0.0023
  286MOL0     C38506   2.266   0.486   0.431 -0.7310  1.0267 -0.1322
  286MOL0     C38507   2.384   0.457   0.371 -0.2664  1.1986 -0.1672
  286MOL0     C38508   2.492   0.541   0.373 -0.0213  0.0247 -0.1999
  286MOL0     C38509   2.489   0.646   0.461 -0.1348 -0.3267  0.6618
  286MOL0     O38510   2.610   0.717   0.469 -0.3278  0.2460  0.2791
  286MOL0     C38511   2.649   0.794   0.588  1.0344  0.3642 -0.3495
  286MOL0     C38512   2.722   0.696   0.695  0.7832 -0.1784 -1.3987
  286MOL0     C38513   2.765   0.779   0.822  0.3982  0.6828 -0.0160
  286MOL0     C38514   2.790   0.680   0.945 -0.0061 -0.3739  0.4925
  286MOL0     C38515   2.839   0.766   1.061 -0.8228  0.1730  0.4646
  286MOL0     C38516   2.877   0.672   1.188 -0.1749 -0.1693 -1.1042
  286MOL0     C38517   2.956   0.734   1.302  0.2580 -0.2057  0.6116
  286MOL0     C38518   2.984   0.630   1.415  0.6827  0.6324 -0.4280
  286MOL0    Cl38519   3.113   0.520   1.357 -0.6155 -0.0601 -0.4434
  286MOL0     C38520   2.371   0.684   0.529  0.7209  0.6129  0.5808
  286MOL0     C38521   2.259   0.598   0.523 -0.3160  0.9778  0.2508
  286MOL0     O38522   2.045   0.540   0.302  1.3770  0.1806  0.1312
  286MOL0     C38523   1.833   0.375   0.249 -0.9512  0.9702  0.3554
  286MOL0     C38524   1.737   0.275   0.222  0.4773 -0.3913 -0.6430
  286MOL0     N38525   1.421   0.016   0.680  0.4376  0.3110  0.0397
  286MOL0     N38526   1.484   0.117   0.731  0.7177  0.4195  0.0558
  286MOL0     C38527   1.337   1.350   0.442 -0.2375 -0.3065  0.7044
  286MOL0     C38528   1.310   1.449   0.350  0.4925 -1.0240 -0.0191
  286MOL0     C38529   1.255   1.817   0.108  0.0500  0.2665  0.1998
  286MOL0     C38530   1.330   1.789  -0.006 -0.0794  1.0190  0.5191
  286MOL0     C38531   1.313   1.862  -0.124  0.1196  0.9722 -0.4413
  286MOL0     C38532   1.222   1.967  -0.132 -0.1312  0.0392  0.1714
  286MOL0     O38533   1.184   2.033  -0.245 -0.5296 -0.5738  0.0155
  286MOL0     C38534   1.253   2.006  -0.369  0.4238  0.2268  0.0959
  286MOL0     C38535   1.198   2.088  -0.497  0.1743  0.1868  0.1407
  286MOL0     C38536   1.224   2.232  -0.486 -0.2944  0.5771  0.0964
  286MOL0     C38537   1.277   2.303  -0.619  0.4878  0.4344 -0.1680
  286MOL0     C38538   1.425   2.281  -0.630 -0.9842 -0.3387  0.6974
  286MOL0     C38539   1.545   2.266  -0.650 -0.2988 -0.5678  0.6940
  286MOL0     C38540   1.157   2.001  -0.019  0.5542 -0.3287 -0.3611
  286MOL0     C38541   1.174   1.938   0.103 -0.5047 -0.4439 -0.8479
  286MOL0     C38542   1.084   1.975   0.216 -0.8284 -0.6063 -0.2204
  286MOL0     H38543   1.592   1.656   0.395  0.1436  0.6802  1.4856
  286MOL0     H38544   1.652   1.451   0.513  0.4833  0.4502  0.0469
  286MOL0     H38545   1.342   1.145   0.620  0.2650 -1.8607  1.7452
  286MOL0     H38546   1.440   1.084   0.489 -1.8007  0.1337 -1.0034
  286MOL0     H38547   1.478   1.045   0.786 -1.8488 -2.2762 -0.9952
  286MOL0     H38548   1.631   1.056   0.686 -0.0442  0.3671  0.4277
  286MOL0     H38549   1.583   0.826   0.718  0.1309  1.1932  1.1083
  286MOL0     H38550   1.531   0.864   0.553  0.3618 -1.8661 -0.1331
  286MOL0     H38551   1.354   0.836   0.800 -2.2571 -2.5653  0.6657
  286MOL0     H38552   1.306   0.904   0.640  0.2127 -0.8178 -0.1500
  286MOL0     H38553   1.244   0.646   0.688 -0.1460  0.6929  1.1836
  286MOL0     H38554   1.319   0.697   0.530 -1.1671  1.4846  0.8026
  286MOL0     H38555   1.525   0.599   0.581 -1.1711  1.0251  0.8225
  286MOL0     H38556   1.485   0.603   0.753 -1.4591 -0.2956  1.5831
  286MOL0     H38557   1.354   0.431   0.522 -0.8716  3.1724  0.3888
  286MOL0     H38558   1.319   0.410   0.698 -2.2963  3.9837 -0.0454
  286MOL0     H38559   1.601   0.354   0.572 -0.8031 -2.2824 -1.4406
  286MOL0     H38560   1.564   0.360   0.748  3.2575 -0.1662 -1.0340
  286MOL0     H38561   1.439   0.213   0.419 -0.7715 -0.8395  0.0425
  286MOL0     H38562   1.345  -0.171   0.493 -4.2102  0.5544 -0.3167
  286MOL0     H38563   1.238  -0.047   0.439 -0.5602 -3.9142 -2.9586
  286MOL0     H38564   1.310  -0.127   0.254 -0.9434  1.1626  0.3880
  286MOL0     H38565   1.386   0.025   0.278 -2.4311  0.0360  0.2416
  286MOL0     H38566   1.533  -0.164   0.179  3.3751  4.1573 -1.0635
  286MOL0     H38567   1.535  -0.246   0.335  0.5695  0.2841 -0.9148
  286MOL0     H38568   1.728  -0.121   0.318  0.3312  0.4627  2.2713
  286MOL0     H38569   1.629  -0.016   0.424  1.7250 -0.0223  0.5258
  286MOL0     H38570   1.891   0.004   0.360 -0.3439 -0.4388  1.9404
  286MOL0     H38571   2.053   0.177   0.424 -0.2281 -1.2427 -0.4487
  286MOL0     H38572   2.379   0.372   0.305  2.8599  1.9402 -1.5671
  286MOL0     H38573   2.579   0.533   0.309  0.5257  1.4777  0.3210
  286MOL0     H38574   2.719   0.868   0.549  0.4138  0.0473 -2.1826
  286MOL0     H38575   2.563   0.846   0.631  1.0993 -0.1339  0.4150
  286MOL0     H38576   2.651   0.622   0.732  1.4185  1.8604  5.2266
  286MOL0     H38577   2.816   0.649   0.665  1.3735 -1.2113  1.6469
  286MOL0     H38578   2.862   0.828   0.806  1.6054 -0.8779  2.0726
  286MOL0     H38579   2.694   0.857   0.851  1.3811  0.9561  1.7508
  286MOL0     H38580   2.863   0.604   0.915 -0.2208  0.8309 -3.7956
  286MOL0     H38581   2.696   0.630   0.971 -0.9853  1.7601  1.2821
  286MOL0     H38582   2.763   0.841   1.085 -0.7807  1.0147 -1.7887
  286MOL0     H38583   2.928   0.828   1.050 -1.4498  1.3866  1.8529
  286MOL0     H38584   2.783   0.645   1.237 -0.1848  1.0528 -0.3984
  286MOL0     H38585   2.931   0.596   1.130  2.0723  0.6427 -0.1994
  286MOL0     H38586   2.888   0.811   1.339 -3.1918 -3.0500  0.7401
  286MOL0     H38587   3.045   0.778   1.257  0.2030 -2.5817 -2.1190
  286MOL0     H38588   3.016   0.696   1.496 -0.0959  1.6403 -0.9149
  286MOL0     H38589   2.898   0.570   1.447  1.1962 -0.7625 -1.5576
  286MOL0     H38590   2.371   0.777   0.584 -2.5216  2.7058 -2.5611
  286MOL0     H38591   2.164   0.628   0.565 -0.7583 -1.0553  0.8232
  286MOL0     H38592   1.824   0.481   0.229  0.7931  1.8125  3.4703
  286MOL0     H38593   1.651   0.307   0.165  0.8776 -0.1827 -1.1360
  286MOL0     H38594   1.267   1.270   0.462 -0.0282 -0.4390  0.9001
  286MOL0     H38595   1.216   1.465   0.297 -1.6328  0.6209  3.7982
  286MOL0     H38596   1.399   1.705  -0.003 -0.4114  0.6994 -0.3670
  286MOL0     H38597   1.364   1.825  -0.213  0.5748  0.4502  0.0214
  286MOL0     H38598   1.257   1.900  -0.395  1.4287  0.3289 -0.1943
  286MOL0     H38599   1.358   2.033  -0.356  0.8085  0.1858 -2.3250
  286MOL0     H38600   1.090   2.068  -0.497 -0.1829  1.8496  1.9968
  286MOL0     H38601   1.234   2.057  -0.596  1.5650  4.4680 -0.8982
  286MOL0     H38602   1.299   2.246  -0.407 -0.9593  1.8254  0.5358
  286MOL0     H38603   1.135   2.281  -0.446  1.0484  2.7304  0.6430
  286MOL0     H38604   1.220   2.252  -0.698  2.2441 -1.2598 -0.4183
  286MOL0     H38605   1.240   2.406  -0.620 -1.9548 -0.3483  1.2644
  286MOL0     H38606   1.649   2.249  -0.670 -0.7048 -0.9256 -1.3136
  286MOL0     H38607   1.081   2.076  -0.035  2.5140  1.1655 -3.6901
  286MOL0     H38608   1.014   2.049   0.177 -1.6415 -1.8662 -1.2223
  286MOL0     H38609   1.028   1.886   0.245 -0.7058 -0.0268  1.9761
  286MOL0     H38610   1.152   2.016   0.292 -1.5186 -1.7433  1.0518
  287MOL0     O38611   5.556   8.375   4.144 -0.9089 -0.1901  0.4100
  287MOL0     C38612   5.476   8.469   4.148 -0.0573  0.2454  1.1224
  287MOL0     O38613   5.337   8.461   4.114  0.0772  0.8083  0.0068
  287MOL0     C38614   5.294   8.330   4.103  0.5683 -1.5343 -0.3160
  287MOL0     C38615   5.217   8.280   4.208 -0.1854  0.7068 -0.0562
  287MOL0     C38616   5.154   8.154   4.186 -0.2729  0.7464 -0.3068
  287MOL0     C38617   5.176   8.081   4.071  0.1438  0.4062  0.9179
  287MOL0     O38618   5.121   7.958   4.042  0.2945  0.1286 -0.0278
  287MOL0     C38619   4.975   7.956   4.056  0.2918  0.1516 -0.7442
  287MOL0     C38620   4.929   7.818   4.086  0.6930 -0.1755 -0.2890
  287MOL0     C38621   5.013   7.723   4.182 -0.6990 -0.6766  0.0901
  287MOL0     C38622   5.041   7.781   4.321  0.4644 -0.2098  0.4140
  287MOL0     C38623   5.159   7.711   4.384  0.0617  0.2691 -0.0958
  287MOL0     C38624   5.134   7.564   4.427 -0.0083  0.0591  0.3025
  287MOL0     C38625   5.225   7.517   4.547 -0.7300  0.6608 -0.4592
  287MOL0     C38626   5.372   7.498   4.504 -0.1368 -0.1786  0.5235
  287MOL0     N38627   5.388   7.399   4.400 -0.2927 -0.3383  0.0575
  287MOL0     C38628   5.382   7.412   4.266 -0.1268 -0.8299  0.4264
  287MOL0     C38629   5.414   7.286   4.210  0.1565  0.7436 -0.4508
  287MOL0     C38630   5.418   7.249   4.067  0.1959  0.4583  0.4560
  287MOL0     C38631   5.559   7.243   4.002 -0.0519 -0.2520 -0.2627
  287MOL0     C38632   5.650   7.139   4.069  0.6067  1.2489 -0.6645
  287MOL0     C38633   5.611   6.993   4.060 -0.5421  1.4519  0.4251
  287MOL0     O38634   5.634   6.961   3.925 -0.0943  0.2150  0.0142
  287MOL0     C38635   5.606   6.824   3.900 -0.1536 -0.2804  0.0333
  287MOL0     C38636   5.636   6.783   3.775 -0.6693  0.6345 -0.5026
  287MOL0     C38637   5.616   6.644   3.740  0.2402 -1.2485 -0.7840
  287MOL0     C38638   5.571   6.555   3.837 -0.1277  0.4638 -0.3789
  287MOL0     C38639   5.556   6.410   3.802  0.4207 -0.2974  0.3808
  287MOL0     O38640   5.505   6.331   3.898  0.3937  0.6049 -0.2999
  287MOL0     C38641   5.478   6.201   3.878  0.6173  0.0748 -0.7666
  287MOL0     C38642   5.569   6.100   3.857 -0.5596 -0.0824  0.1771
  287MOL0     C38643   5.531   5.959   3.847 -0.0208 -0.4161  0.3419
  287MOL0     C38644   5.400   5.923   3.845 -0.2964  0.0921  0.5700
  287MOL0     O38645   5.357   5.794   3.808 -0.6206  1.0362 -0.4134
  287MOL0     C38646   5.234   5.749   3.873 -0.1082 -0.1240 -0.1758
  287MOL0     C38647   5.208   5.608   3.831  0.0989 -0.6685 -1.1985
  287MOL0     C38648   5.094   5.532   3.880 -0.6466  0.2831 -0.0324
  287MOL0     C38649   5.020   5.449   3.775  0.2376 -0.1893 -0.5913
  287MOL0     C38650   5.118   5.342   3.715  0.3817  0.3317  0.2802
  287MOL0     C38651   5.051   5.205   3.702 -0.7359 -0.5277 -0.7480
  287MOL0     C38652   4.930   5.214   3.603 -0.1532 -0.3836  0.1909
  287MOL0     C38653   4.947   5.117   3.491  0.3382 -0.7226 -0.4030
  287MOL0    Cl38654   4.957   4.961   3.557 -0.4371  0.0856  0.2063
  287MOL0     C38655   5.310   6.030   3.857  1.2704  0.5177  0.6147
  287MOL0     C38656   5.346   6.162   3.873 -0.5975  0.7140  0.7383
  287MOL0     O38657   5.592   6.370   3.693  0.2945 -0.8095  0.1803
  287MOL0     C38658   5.526   6.603   3.959 -0.0771  0.4064 -0.1667
  287MOL0     C38659   5.545   6.735   3.992  0.8247  0.1526 -0.6078
  287MOL0     N38660   5.425   7.198   4.318  0.3661  0.3686  0.0160
  287MOL0     N38661   5.424   7.272   4.424  0.3675  0.0405 -0.5725
  287MOL0     C38662   5.263   8.131   3.967 -0.2899 -0.5442 -0.1021
  287MOL0     C38663   5.322   8.264   3.988 -0.5501  0.7396 -0.1315
  287MOL0     C38664   5.527   8.607   4.189 -0.3424  0.4811 -0.4578
  287MOL0     C38665   5.440   8.715   4.148 -0.1176  0.1109  0.4784
  287MOL0     C38666   5.470   8.839   4.191 -0.2046  0.1439 -0.2018
  287MOL0     C38667   5.595   8.870   4.251  0.0272 -1.4674 -0.8034
  287MOL0     O38668   5.625   9.003   4.262  0.1177  0.0215  0.4538
  287MOL0     C38669   5.751   9.039   4.334  0.2467  0.0077 -0.1526
  287MOL0     C38670   5.767   9.196   4.349  0.0808  0.8711 -0.5738
  287MOL0     C38671   5.792   9.273   4.215 -0.0018  0.5669  0.4218
  287MOL0     C38672   5.933   9.279   4.160  0.4365  0.7950 -1.1622
  287MOL0     C38673   5.997   9.405   4.196  0.5292  0.0724  0.2953
  287MOL0     C38674   6.058   9.506   4.229  0.2708  0.1988  1.2307
  287MOL0     C38675   5.694   8.767   4.281 -0.6377 -0.1463  0.5670
  287MOL0     C38676   5.650   8.635   4.254 -1.1724  0.1090 -0.0441
  287MOL0     C38677   5.741   8.529   4.308  0.0898 -0.3967 -0.8256
  287MOL0     H38678   5.190   8.334   4.298 -1.4719  0.1638 -0.0881
  287MOL0     H38679   5.089   8.114   4.264  2.7534 -0.2200  1.9099
  287MOL0     H38680   4.940   8.013   4.143  0.4378  1.5454 -1.5735
  287MOL0     H38681   4.927   7.998   3.968  2.2828  1.7290 -1.1464
  287MOL0     H38682   4.915   7.760   3.994 -0.0829 -1.9999  0.9133
  287MOL0     H38683   4.836   7.834   4.141  1.4012  1.1412  0.5706
  287MOL0     H38684   5.106   7.694   4.131  0.1349 -0.3991  1.4156
  287MOL0     H38685   4.946   7.639   4.203 -2.0520  1.0273  3.3362
  287MOL0     H38686   5.057   7.888   4.311 -2.3660  0.3213  0.8810
  287MOL0     H38687   4.958   7.760   4.389  1.6762 -2.0008  1.4535
  287MOL0     H38688   5.243   7.719   4.313 -1.6697 -1.5197 -2.5080
  287MOL0     H38689   5.190   7.765   4.474  1.5437 -0.2875 -0.2335
  287MOL0     H38690   5.030   7.558   4.461  0.8522 -3.4321  2.9209
  287MOL0     H38691   5.140   7.490   4.347 -1.1550 -0.2566  0.4853
  287MOL0     H38692   5.208   7.410   4.565  6.2131 -1.4629 -3.1939
  287MOL0     H38693   5.219   7.573   4.640 -1.2819 -0.0313 -0.0609
  287MOL0     H38694   5.413   7.592   4.468  1.0086 -2.4251 -5.1278
  287MOL0     H38695   5.433   7.474   4.592 -0.4317  0.3126  0.8618
  287MOL0     H38696   5.361   7.506   4.216 -0.0361  0.3205  2.4323
  287MOL0     H38697   5.355   7.160   4.054  1.4429 -0.3260 -0.4912
  287MOL0     H38698   5.366   7.327   4.012 -0.5506  1.1439  2.0726
  287MOL0     H38699   5.533   7.207   3.902  1.8262  1.4001 -1.4024
  287MOL0     H38700   5.606   7.341   4.010  1.9437 -1.2891  4.2151
  287MOL0     H38701   5.663   7.164   4.175 -1.1673  0.3864 -0.2136
  287MOL0     H38702   5.753   7.152   4.034  0.6666 -0.1787 -1.0639
  287MOL0     H38703   5.502   6.983   4.071 -0.6702  1.5397 -0.6371
  287MOL0     H38704   5.663   6.932   4.133  0.8969 -0.3424 -1.9609
  287MOL0     H38705   5.672   6.866   3.714  1.8404  0.6577  0.8924
  287MOL0     H38706   5.638   6.619   3.637  0.0863  2.1241 -1.7355
  287MOL0     H38707   5.677   6.108   3.860 -0.3679 -1.1812 -1.9912
  287MOL0     H38708   5.609   5.883   3.842  1.1141  0.7672 -0.5669
  287MOL0     H38709   5.253   5.747   3.981  0.2517  1.5774 -0.1726
  287MOL0     H38710   5.147   5.808   3.841  0.6091  1.2541  0.3134
  287MOL0     H38711   5.204   5.606   3.722 -0.4938 -2.9155 -1.1896
  287MOL0     H38712   5.292   5.545   3.863 -0.0849 -0.6948 -0.7498
  287MOL0     H38713   5.123   5.456   3.954 -1.4601  2.9700  3.2970
  287MOL0     H38714   5.015   5.594   3.924 -0.3681  0.3391  0.3921
  287MOL0     H38715   4.975   5.503   3.691 -5.1083 -4.6576 -1.1746
  287MOL0     H38716   4.924   5.417   3.817 -0.9232  1.4408 -1.8446
  287MOL0     H38717   5.201   5.330   3.785 -1.2663 -2.3665  1.9537
  287MOL0     H38718   5.150   5.370   3.614 -0.6500  0.6642  0.0297
  287MOL0     H38719   5.131   5.140   3.665  0.4440 -1.3053  2.7677
  287MOL0     H38720   5.031   5.168   3.803  1.7457  0.6996  0.2643
  287MOL0     H38721   4.924   5.312   3.554  0.2387 -0.8032 -0.7268
  287MOL0     H38722   4.835   5.197   3.655 -2.4772  3.2180 -2.3493
  287MOL0     H38723   4.863   5.129   3.421  1.5253 -2.9651 -2.3663
  287MOL0     H38724   5.030   5.139   3.424  1.3933 -2.1150  0.3815
  287MOL0     H38725   5.203   6.014   3.856  1.2499  0.6002 -1.4758
  287MOL0     H38726   5.281   6.249   3.886 -1.3550  0.0780  1.2697
  287MOL0     H38727   5.476   6.535   4.027 -2.3455 -0.9326 -2.9616
  287MOL0     H38728   5.515   6.762   4.093  2.1221 -1.2357  0.1940
  287MOL0     H38729   5.263   8.082   3.870  1.8726 -0.5828 -0.1159
  287MOL0     H38730   5.372   8.305   3.901  1.0053 -0.9786 -0.1194
  287MOL0     H38731   5.355   8.681   4.091  0.8965 -2.0155  0.1360
  287MOL0     H38732   5.401   8.920   4.171  0.2047  0.8599  1.2168
  287MOL0     H38733   5.843   8.988   4.303  0.0250 -1.4339  1.4355
  287MOL0     H38734   5.758   9.010   4.439  1.9019 -2.5572 -0.8659
  287MOL0     H38735   5.843   9.221   4.423 -1.5183  2.1845  0.7006
  287MOL0     H38736   5.673   9.236   4.388  0.5387  1.3927 -0.0055
  287MOL0     H38737   5.750   9.372   4.235 -0.2102  1.2603 -2.8836
  287MOL0     H38738   5.731   9.240   4.132  2.1709  1.2647 -1.5727
  287MOL0     H38739   5.984   9.190   4.197  0.4278  1.3334  0.2147
  287MOL0     H38740   5.915   9.278   4.052 -3.0660 -0.3625 -0.6879
  287MOL0     H38741   6.112   9.593   4.260  1.0627  0.2232 -0.1377
  287MOL0     H38742   5.791   8.791   4.322 -0.5301  3.7783 -1.4861
  287MOL0     H38743   5.826   8.570   4.363  1.3709 -3.2571 -0.4609
  287MOL0     H38744   5.685   8.469   4.381 -0.5810  0.9405 -0.2221
  287MOL0     H38745   5.773   8.474   4.218  3.3563  0.7853 -0.5164
  288MOL0     O38746  11.045   6.182   7.176  0.1364  0.0697  0.0171
  288MOL0     C38747  10.996   6.296   7.184 -0.7618 -0.0419 -0.3124
  288MOL0     O38748  10.950   6.364   7.077  0.6509  0.9287  0.0656
  288MOL0     C38749  10.965   6.291   6.959 -0.2658 -1.3416  0.0414
  288MOL0     C38750  10.847   6.255   6.899  0.0859  0.4544  0.1123
  288MOL0     C38751  10.858   6.174   6.780 -0.3306 -0.1863 -0.6896
  288MOL0     C38752  10.977   6.149   6.708 -0.4990 -0.1188  0.7888
  288MOL0     O38753  10.987   6.074   6.585 -0.4002  0.3315  0.6003
  288MOL0     C38754  10.862   6.066   6.500 -0.3940 -0.5429 -0.3479
  288MOL0     C38755  10.781   5.951   6.535  0.7729  0.2650  0.5725
  288MOL0     C38756  10.640   5.968   6.472  0.2682  1.2207 -0.6288
  288MOL0     C38757  10.616   5.861   6.359 -0.4211  0.2192  0.4513
  288MOL0     C38758  10.464   5.870   6.325  0.9596 -0.1148 -0.3063
  288MOL0     C38759  10.381   5.782   6.410 -0.3464  0.7541 -0.3830
  288MOL0     C38760  10.227   5.802   6.385 -0.2875 -0.5437 -0.0663
  288MOL0     C38761  10.168   5.727   6.268  0.3334  0.1428  0.0199
  288MOL0     N38762  10.036   5.793   6.247  0.0373  0.4642 -0.3086
  288MOL0     C38763   9.912   5.781   6.317  0.2768  0.1092  0.4044
  288MOL0     C38764   9.821   5.867   6.263  0.3013  1.0577  0.8951
  288MOL0     C38765   9.683   5.886   6.317 -0.4392 -0.0757  0.4922
  288MOL0     C38766   9.583   5.806   6.237 -0.2972  0.9092 -0.0838
  288MOL0     C38767   9.438   5.801   6.283  0.0909 -0.2133  0.2884
  288MOL0     C38768   9.355   5.703   6.202  0.1848  0.4126 -0.3201
  288MOL0     O38769   9.416   5.568   6.185 -0.2843 -0.0152  0.0784
  288MOL0     C38770   9.339   5.474   6.121  0.1939  0.1430 -0.3290
  288MOL0     C38771   9.204   5.496   6.082 -0.2644 -0.5362 -0.2961
  288MOL0     C38772   9.131   5.387   6.034  1.5656 -0.1893  0.7676
  288MOL0     C38773   9.188   5.257   6.022 -0.2057 -0.6273  0.8743
  288MOL0     C38774   9.120   5.140   5.973 -0.2596 -0.6730 -0.4826
  288MOL0     O38775   9.173   5.050   5.871 -0.0303 -0.6853 -0.3335
  288MOL0     C38776   9.093   4.957   5.812  0.5258 -0.0608  0.3259
  288MOL0     C38777   9.029   4.844   5.875 -0.0458 -0.4358 -0.3859
  288MOL0     C38778   8.962   4.748   5.795 -0.1635  0.5019 -0.0201
  288MOL0     C38779   8.960   4.758   5.652  0.2190 -0.4808  0.2684
  288MOL0     O38780   8.901   4.657   5.584 -0.1402  0.5483  0.1620
  288MOL0     C38781   8.888   4.684   5.439  1.0682  0.8637  0.0914
  288MOL0     C38782   8.757   4.621   5.389  0.1156  0.1846  0.2082
  288MOL0     C38783   8.621   4.654   5.457  0.0644 -0.5931 -0.2597
  288MOL0     C38784   8.585   4.804   5.456  0.8794 -0.2996 -0.0817
  288MOL0     C38785   8.470   4.840   5.545  0.4732  0.3499  0.1725
  288MOL0     C38786   8.412   4.988   5.523  0.1447  0.1500  0.2390
  288MOL0     C38787   8.348   5.035   5.649  0.0880 -0.0247  0.3261
  288MOL0     C38788   8.294   5.180   5.655 -0.1128 -0.1264 -0.6242
  288MOL0    Cl38789   8.218   5.209   5.493  0.1658 -0.2584  0.2423
  288MOL0     C38790   9.028   4.865   5.585  0.0545  0.2252  0.3780
  288MOL0     C38791   9.104   4.959   5.664 -0.6721 -0.4916 -0.1039
  288MOL0     O38792   9.010   5.129   6.031  0.3498 -0.5065  0.7440
  288MOL0     C38793   9.326   5.238   6.050 -0.4151  0.2935  0.4691
  288MOL0     C38794   9.403   5.354   6.092 -0.2455 -0.4613 -0.0204
  288MOL0     N38795   9.888   5.928   6.161  0.8867 -0.8248 -0.7288
  288MOL0     N38796  10.016   5.889   6.158  0.5400 -0.3919  1.0804
  288MOL0     C38797  11.089   6.224   6.761 -1.2745  1.3533  0.2842
  288MOL0     C38798  11.087   6.284   6.888 -0.3687  0.1071  0.0706
  288MOL0     C38799  10.995   6.371   7.314 -0.1465  0.1921 -0.7344
  288MOL0     C38800  11.003   6.504   7.303 -0.6395 -0.2189  0.1160
  288MOL0     C38801  11.007   6.595   7.408  0.3252  0.2369 -0.3608
  288MOL0     C38802  11.022   6.539   7.538  0.1371 -0.5712 -0.0464
  288MOL0     O38803  11.051   6.636   7.635 -0.3402 -0.2541 -0.0159
  288MOL0     C38804  11.065   6.587   7.774  0.1292 -0.8666  0.7039
  288MOL0     C38805  11.103   6.709   7.861 -0.7018 -0.2320 -0.6295
  288MOL0     C38806  10.979   6.784   7.921 -0.7158 -0.5606  0.1291
  288MOL0     C38807  10.965   6.787   8.072  0.1170  1.0602  0.1525
  288MOL0     C38808  11.038   6.908   8.128  1.0223  0.7130  0.1681
  288MOL0     C38809  11.112   6.996   8.168 -0.1693  0.0731 -0.2841
  288MOL0     C38810  11.025   6.400   7.554  0.2838 -0.0686 -1.0881
  288MOL0     C38811  11.002   6.317   7.444 -0.0954 -0.3633 -0.2222
  288MOL0     C38812  10.994   6.170   7.478 -0.5070 -0.1307  1.0517
  288MOL0     H38813  10.757   6.288   6.950  0.2045  1.2941 -0.2163
  288MOL0     H38814  10.768   6.134   6.736 -3.9041  2.2663  3.5402
  288MOL0     H38815  10.811   6.163   6.506 -1.7484 -1.2786  3.7886
  288MOL0     H38816  10.882   6.046   6.395  0.2727  0.7670 -0.4869
  288MOL0     H38817  10.765   5.951   6.643 -0.0199  0.3436  0.4627
  288MOL0     H38818  10.821   5.854   6.504 -3.4295 -0.7779 -2.4412
  288MOL0     H38819  10.623   6.068   6.432  2.5461  1.7958 -0.3202
  288MOL0     H38820  10.584   5.943   6.562  2.6395  1.2084  0.9510
  288MOL0     H38821  10.669   5.894   6.269 -1.0995  2.3716  0.7674
  288MOL0     H38822  10.645   5.766   6.404  2.1262  1.3224  1.3127
  288MOL0     H38823  10.421   5.968   6.345 -4.1869 -2.3376  1.3239
  288MOL0     H38824  10.439   5.850   6.221 -3.0065  2.7506 -0.1036
  288MOL0     H38825  10.418   5.680   6.400 -0.4701  0.8564 -2.4377
  288MOL0     H38826  10.408   5.805   6.513  1.5685  0.9905 -0.8909
  288MOL0     H38827  10.205   5.908   6.371  1.3612 -0.3363 -1.3850
  288MOL0     H38828  10.170   5.780   6.476  1.4716  1.3662  1.6100
  288MOL0     H38829  10.238   5.731   6.184 -1.1528  0.0915 -1.2827
  288MOL0     H38830  10.148   5.623   6.294 -1.4357  0.6040  0.6494
  288MOL0     H38831   9.892   5.724   6.407 -3.9164 -1.5284 -1.3270
  288MOL0     H38832   9.686   5.872   6.425 -0.7044  0.7404  0.6111
  288MOL0     H38833   9.643   5.988   6.310 -3.4729 -1.2590 -1.6466
  288MOL0     H38834   9.579   5.854   6.139 -0.7725  0.6491 -0.1938
  288MOL0     H38835   9.626   5.705   6.234  1.4826  1.4262  3.2601
  288MOL0     H38836   9.386   5.897   6.288  0.4564  0.1996 -2.3510
  288MOL0     H38837   9.436   5.762   6.386 -1.0864  1.8922  1.1364
  288MOL0     H38838   9.339   5.745   6.102 -0.6569 -0.4231 -0.5489
  288MOL0     H38839   9.253   5.696   6.243  0.5447  3.0036  1.2321
  288MOL0     H38840   9.155   5.592   6.096  0.3949 -0.4400  1.7219
  288MOL0     H38841   9.024   5.391   6.014  1.5777 -3.1654 -0.4106
  288MOL0     H38842   9.040   4.830   5.982 -2.1618  1.0911  0.1001
  288MOL0     H38843   8.932   4.658   5.846 -0.8215 -0.4761 -2.0284
  288MOL0     H38844   8.875   4.786   5.402  0.5571  0.8875  0.3294
  288MOL0     H38845   8.966   4.636   5.379  0.1051  0.3651 -0.7938
  288MOL0     H38846   8.749   4.644   5.283  2.0651  3.6640  0.6717
  288MOL0     H38847   8.772   4.514   5.403  2.3174  0.6164  1.7173
  288MOL0     H38848   8.541   4.609   5.397  1.3412 -0.7673 -1.8835
  288MOL0     H38849   8.615   4.631   5.564 -2.3876  0.1916 -0.1582
  288MOL0     H38850   8.562   4.837   5.355  0.0717  2.6111  0.9482
  288MOL0     H38851   8.665   4.874   5.480 -0.2515  0.3488  2.1236
  288MOL0     H38852   8.494   4.839   5.652 -0.6720  0.2201  0.4387
  288MOL0     H38853   8.392   4.764   5.533  0.1698  0.8208 -0.9900
  288MOL0     H38854   8.492   5.054   5.488 -0.8654  0.8582 -0.7698
  288MOL0     H38855   8.337   4.978   5.444 -0.5065  0.2733  0.8371
  288MOL0     H38856   8.429   5.036   5.723  2.2541 -1.2566 -1.8806
  288MOL0     H38857   8.261   4.972   5.673  1.1667 -0.9281  2.0712
  288MOL0     H38858   8.213   5.189   5.728 -3.2999 -0.8867 -3.7970
  288MOL0     H38859   8.382   5.241   5.678  0.3173 -2.2345  5.0241
  288MOL0     H38860   9.023   4.867   5.477 -1.9364 -0.4434  0.4221
  288MOL0     H38861   9.163   5.040   5.623  0.1947 -0.4102  1.2369
  288MOL0     H38862   9.369   5.139   6.040  0.5111  0.7059  0.2318
  288MOL0     H38863   9.511   5.345   6.106 -0.3863 -2.3537  0.1193
  288MOL0     H38864  11.179   6.217   6.701 -2.0110  1.7396 -0.9134
  288MOL0     H38865  11.175   6.332   6.931 -1.0575 -0.9417  2.8457
  288MOL0     H38866  11.010   6.551   7.205 -2.4067  3.3413  1.5108
  288MOL0     H38867  11.002   6.703   7.401 -1.1958  0.1797 -0.4666
  288MOL0     H38868  11.146   6.515   7.786  0.6965  0.0393  2.4977
  288MOL0     H38869  10.974   6.536   7.807  0.2087  0.4162  3.1045
  288MOL0     H38870  11.162   6.780   7.803  0.5182  0.2718  1.1408
  288MOL0     H38871  11.163   6.675   7.946  1.1317 -0.1142 -1.8281
  288MOL0     H38872  10.884   6.737   7.894 -0.9684 -1.3351  2.1866
  288MOL0     H38873  10.980   6.885   7.878  1.7963 -0.5795 -0.0007
  288MOL0     H38874  10.864   6.794   8.112 -0.5723  1.2089 -1.5072
  288MOL0     H38875  11.015   6.700   8.114  0.6399  0.7551 -1.0477
  288MOL0     H38876  11.184   7.073   8.186  2.1755 -1.3083 -3.0023
  288MOL0     H38877  11.034   6.354   7.652 -3.5214  0.9028 -0.1216
  288MOL0     H38878  10.972   6.152   7.584  0.3357 -1.1182  1.0779
  288MOL0     H38879  10.905   6.129   7.430 -1.2729  3.0975 -0.5368
  288MOL0     H38880  11.094   6.127   7.463 -0.0750 -0.0373  3.2745
  289MOL0     O38881   6.538   8.733   3.952 -0.2278 -0.4364  1.0355
  289MOL0     C38882   6.463   8.758   3.861  0.1908  0.1464  0.0832
  289MOL0     O38883   6.342   8.816   3.880  0.5340  0.1361  0.0777
  289MOL0     C38884   6.313   8.899   3.985 -0.1275 -0.1636 -0.8932
  289MOL0     C38885   6.398   9.005   4.019  0.1439  0.3131  0.9628
  289MOL0     C38886   6.392   9.088   4.128  0.3487 -0.1501  0.6192
  289MOL0     C38887   6.266   9.074   4.207 -1.2049  0.6543  0.5220
  289MOL0     O38888   6.232   9.151   4.313 -1.0744 -0.1051 -0.0217
  289MOL0     C38889   6.321   9.165   4.433  0.0154 -0.2109  1.2261
  289MOL0     C38890   6.250   9.083   4.540  1.2231  0.9386 -0.3273
  289MOL0     C38891   6.362   9.038   4.634 -0.4062 -0.1537  0.6145
  289MOL0     C38892   6.305   9.025   4.777  1.3802 -0.2238 -0.1480
  289MOL0     C38893   6.418   8.990   4.881  0.3119  0.3001 -1.3680
  289MOL0     C38894   6.373   8.971   5.027  0.4492  0.4188  0.3320
  289MOL0     C38895   6.351   9.107   5.101 -0.3967  0.5611  0.4643
  289MOL0     C38896   6.272   9.074   5.232 -0.3023  0.1022  0.2002
  289MOL0     N38897   6.211   9.185   5.295  0.7805  0.5135 -0.9151
  289MOL0     C38898   6.277   9.308   5.315  0.7573  0.7009  0.5265
  289MOL0     C38899   6.180   9.396   5.325  0.1292  0.3495 -0.3993
  289MOL0     C38900   6.199   9.538   5.368  0.7577 -0.2070 -0.0360
  289MOL0     C38901   6.136   9.643   5.266  0.2161 -0.1021  0.4016
  289MOL0     C38902   6.245   9.672   5.148  0.0535 -1.2808 -0.3702
  289MOL0     C38903   6.205   9.772   5.040 -0.1936 -1.0175  0.1014
  289MOL0     O38904   6.063   9.754   5.007 -0.5280 -0.4067 -0.1452
  289MOL0     C38905   6.003   9.827   4.909 -0.6932  1.0246 -0.1375
  289MOL0     C38906   5.866   9.810   4.903  0.3884 -0.0057  0.0752
  289MOL0     C38907   5.786   9.891   4.812  0.1648 -0.9050  0.1542
  289MOL0     C38908   5.841   9.989   4.723  0.6722 -0.0199  0.2269
  289MOL0     C38909   5.755  10.066   4.631  0.6315  0.1859 -0.8273
  289MOL0     O38910   5.816  10.171   4.567 -0.0546 -0.1464  0.5354
  289MOL0     C38911   5.744  10.274   4.503 -0.0872  0.1273 -1.0687
  289MOL0     C38912   5.619  10.275   4.447 -0.3378 -0.6996 -1.1465
  289MOL0     C38913   5.555  10.397   4.419  0.2716  0.1942  0.2206
  289MOL0     C38914   5.635  10.516   4.418  0.2242  0.8865  0.4903
  289MOL0     O38915   5.588  10.635   4.362 -0.2101  0.4705 -0.1336
  289MOL0     C38916   5.444  10.637   4.367 -0.0949  0.1384 -0.1907
  289MOL0     C38917   5.399  10.786   4.347 -0.2115 -0.2854  0.1796
  289MOL0     C38918   5.251  10.807   4.381 -0.1292  0.3098  0.1465
  289MOL0     C38919   5.210  10.950   4.335 -0.2269  0.5513  0.0160
  289MOL0     C38920   5.312  11.057   4.401  0.5416 -1.0754  0.1643
  289MOL0     C38921   5.331  11.063   4.555 -0.1266  0.1716 -0.3867
  289MOL0     C38922   5.447  11.164   4.591  0.0413  0.2309 -0.6270
  289MOL0     C38923   5.433  11.190   4.748 -0.1040  0.8129  0.4104
  289MOL0    Cl38924   5.280  11.248   4.798 -0.3957 -0.4359 -0.0675
  289MOL0     C38925   5.766  10.512   4.446 -0.0168  0.7683 -0.0955
  289MOL0     C38926   5.825  10.392   4.492  0.1849 -0.2219 -0.2214
  289MOL0     O38927   5.637  10.041   4.637  0.3899 -0.0622 -0.6005
  289MOL0     C38928   5.985   9.997   4.729 -0.5089  0.2646  0.3967
  289MOL0     C38929   6.065   9.914   4.816 -0.4706 -0.5559 -0.1912
  289MOL0     N38930   6.055   9.336   5.321 -0.0451 -0.2627 -0.7473
  289MOL0     N38931   6.074   9.209   5.311  0.3131 -0.6393 -0.3608
  289MOL0     C38932   6.170   8.983   4.159  0.2172 -0.5383  0.0555
  289MOL0     C38933   6.200   8.887   4.052  0.4368 -0.3257  0.7296
  289MOL0     C38934   6.498   8.702   3.729  0.5448 -0.1686  0.0108
  289MOL0     C38935   6.394   8.645   3.652 -1.3111  0.1772 -0.1561
  289MOL0     C38936   6.428   8.576   3.537 -0.0055  0.3310 -0.5485
  289MOL0     C38937   6.554   8.571   3.494 -0.0249 -0.2341  0.6953
  289MOL0     O38938   6.567   8.480   3.388  0.7174  0.2718  0.2754
  289MOL0     C38939   6.689   8.477   3.318  0.3025 -0.0403  0.0320
  289MOL0     C38940   6.659   8.393   3.194 -1.2044 -0.3057  0.1057
  289MOL0     C38941   6.610   8.249   3.229  0.3396 -0.0001 -0.2725
  289MOL0     C38942   6.625   8.156   3.114  0.1719  0.3483 -0.3134
  289MOL0     C38943   6.763   8.107   3.081  0.2912  0.4821  0.5484
  289MOL0     C38944   6.867   8.049   3.053  0.3895 -0.0858 -0.7435
  289MOL0     C38945   6.656   8.639   3.561 -0.1719  0.3651  0.0661
  289MOL0     C38946   6.635   8.704   3.676  0.6836 -1.0871  0.6156
  289MOL0     C38947   6.755   8.766   3.748  1.3558  0.1938  0.1063
  289MOL0     H38948   6.484   9.024   3.956  1.0971 -2.3042  1.3636
  289MOL0     H38949   6.474   9.158   4.142  1.5167 -1.3291 -0.1127
  289MOL0     H38950   6.424   9.130   4.424  0.0464 -0.2932  1.8260
  289MOL0     H38951   6.332   9.272   4.452 -1.4702 -0.1595  1.9588
  289MOL0     H38952   6.196   9.002   4.490 -0.3148  1.0558  1.0429
  289MOL0     H38953   6.173   9.141   4.591 -1.2859 -0.5374 -2.2008
  289MOL0     H38954   6.435   9.119   4.640 -0.2088 -0.3632  1.1515
  289MOL0     H38955   6.403   8.945   4.592 -1.1482 -1.2502  2.1888
  289MOL0     H38956   6.270   9.122   4.814  1.8986  0.5573 -1.5961
  289MOL0     H38957   6.226   8.949   4.775  1.1589  0.0016 -1.6987
  289MOL0     H38958   6.465   8.899   4.841  1.1584  1.1054 -2.2638
  289MOL0     H38959   6.486   9.076   4.878  1.3405 -0.4930 -1.3189
  289MOL0     H38960   6.291   8.899   5.033 -0.6356  1.4475 -1.3781
  289MOL0     H38961   6.460   8.921   5.068  1.7320  1.6862 -0.7484
  289MOL0     H38962   6.290   9.171   5.037 -3.5452 -0.6615  2.0459
  289MOL0     H38963   6.447   9.156   5.118 -0.6032  1.7015 -1.3118
  289MOL0     H38964   6.205   8.991   5.211  0.7905 -0.4006 -1.4764
  289MOL0     H38965   6.350   9.045   5.304  2.3681  1.4775 -1.9630
  289MOL0     H38966   6.383   9.328   5.317  0.2231  4.1565 -0.3793
  289MOL0     H38967   6.149   9.545   5.465 -0.0965 -1.9758 -0.3163
  289MOL0     H38968   6.305   9.562   5.374  0.9143 -1.1274  1.1986
  289MOL0     H38969   6.046   9.596   5.226 -0.0569 -1.5481  2.5569
  289MOL0     H38970   6.102   9.737   5.311 -0.4522  0.0006 -0.3017
  289MOL0     H38971   6.277   9.582   5.096 -0.5381 -1.2314 -0.8306
  289MOL0     H38972   6.329   9.721   5.198 -0.7702 -1.1189  0.9088
  289MOL0     H38973   6.277   9.753   4.960  0.3007 -0.1033  0.3155
  289MOL0     H38974   6.223   9.875   5.072 -2.8106 -0.5847  0.3973
  289MOL0     H38975   5.812   9.744   4.970 -0.3904  1.0741  0.5380
  289MOL0     H38976   5.679   9.874   4.824  0.2356 -0.7681  0.9755
  289MOL0     H38977   5.570  10.179   4.436 -0.6136 -0.5080 -1.6078
  289MOL0     H38978   5.458  10.385   4.374 -0.5148 -0.8499  2.0942
  289MOL0     H38979   5.393  10.583   4.286 -1.0961  0.8837 -0.0830
  289MOL0     H38980   5.403  10.599   4.461  0.5838  1.0516  0.4891
  289MOL0     H38981   5.469  10.849   4.402  1.4793 -1.5466 -0.4667
  289MOL0     H38982   5.405  10.798   4.238  1.2863  2.3907  0.4687
  289MOL0     H38983   5.182  10.734   4.338 -1.4584  0.6397  1.6312
  289MOL0     H38984   5.238  10.814   4.489 -0.7450  1.5745  0.0113
  289MOL0     H38985   5.110  10.978   4.370 -0.9705 -2.4353  0.5353
  289MOL0     H38986   5.219  10.961   4.227 -1.0800 -0.9391 -0.2248
  289MOL0     H38987   5.278  11.155   4.365  1.2157 -1.3318 -1.2624
  289MOL0     H38988   5.412  11.051   4.356 -0.3751 -2.8654 -1.7956
  289MOL0     H38989   5.238  11.074   4.611  0.6404  0.7779  0.7982
  289MOL0     H38990   5.372  10.964   4.579  0.7375  1.0372  1.9381
  289MOL0     H38991   5.428  11.257   4.536  0.0707 -0.2465 -1.4671
  289MOL0     H38992   5.546  11.122   4.574  2.1388  3.9144  1.1290
  289MOL0     H38993   5.445  11.093   4.796 -0.4461  0.4973 -0.1276
  289MOL0     H38994   5.500  11.267   4.789 -0.9285  2.3111 -0.9464
  289MOL0     H38995   5.837  10.593   4.433  1.9820 -1.1792 -2.4355
  289MOL0     H38996   5.927  10.389   4.531  0.5389 -1.6100 -1.1513
  289MOL0     H38997   6.023  10.071   4.659 -2.6011 -1.1414 -2.4202
  289MOL0     H38998   6.170   9.934   4.833 -0.1988 -3.5604  2.4324
  289MOL0     H38999   6.073   8.966   4.204  0.2042 -1.4342 -0.2979
  289MOL0     H39000   6.118   8.821   4.023  1.1030  0.2141 -2.8736
  289MOL0     H39001   6.290   8.650   3.681 -2.2523  2.1220 -3.2591
  289MOL0     H39002   6.345   8.547   3.472 -0.9983  3.2932 -0.7578
  289MOL0     H39003   6.774   8.438   3.374  1.1579 -0.6819 -1.6264
  289MOL0     H39004   6.716   8.580   3.294 -0.4300 -0.1391 -1.3225
  289MOL0     H39005   6.739   8.383   3.121 -2.1219  0.6371 -1.0722
  289MOL0     H39006   6.575   8.445   3.147  0.1377  1.3563 -0.5839
  289MOL0     H39007   6.504   8.259   3.252  0.3117  2.5531 -1.1043
  289MOL0     H39008   6.657   8.220   3.323 -0.6302 -1.7099 -0.2972
  289MOL0     H39009   6.568   8.068   3.144 -1.8049  1.2196 -1.2293
  289MOL0     H39010   6.573   8.197   3.026 -0.4235  0.3682  0.0440
  289MOL0     H39011   6.967   8.015   3.038  0.3448 -2.6526  3.4317
  289MOL0     H39012   6.756   8.633   3.518 -0.0047 -1.0895  0.5863
  289MOL0     H39013   6.801   8.687   3.809 -0.0879  0.3366  1.4485
  289MOL0     H39014   6.821   8.809   3.672  0.1208  1.0812 -0.4880
  289MOL0     H39015   6.718   8.845   3.815  1.1251 -0.2903  0.5614
  290MOL0     O39016   2.715   3.906  11.210  0.0806 -0.3614  0.1124
  290MOL0     C39017   2.694   3.788  11.201 -0.7097  0.1284  0.3942
  290MOL0     O39018   2.758   3.701  11.105 -0.4490  0.1670  0.2633
  290MOL0     C39019   2.833   3.754  11.004 -0.5263  0.5956  0.4973
  290MOL0     C39020   2.825   3.702  10.871  0.1467  0.4430  0.5127
  290MOL0     C39021   2.900   3.755  10.767 -0.1069  0.6179 -0.1371
  290MOL0     C39022   2.998   3.858  10.794  0.1992 -0.6729  0.1579
  290MOL0     O39023   3.078   3.903  10.694 -0.7104 -0.2050  0.2071
  290MOL0     C39024   3.011   3.970  10.590  0.5185  0.0467 -0.2416
  290MOL0     C39025   2.988   4.118  10.616  0.6152  0.5265  0.0580
  290MOL0     C39026   3.108   4.194  10.595 -0.5947  0.0426 -0.1536
  290MOL0     C39027   3.155   4.275  10.718  0.3446 -0.4822 -0.7533
  290MOL0     C39028   3.285   4.343  10.667  0.1781 -0.1361  0.4413
  290MOL0     C39029   3.336   4.443  10.783  0.3622  0.3264  0.1482
  290MOL0     C39030   3.445   4.537  10.718 -0.8980 -0.2357  0.0112
  290MOL0     C39031   3.495   4.654  10.805 -0.2153 -0.3194  0.0963
  290MOL0     N39032   3.383   4.724  10.870  0.7177 -0.2043 -0.5582
  290MOL0     C39033   3.265   4.770  10.810 -0.6617 -0.5157 -0.6015
  290MOL0     C39034   3.212   4.851  10.912  0.1898  0.6205 -0.6650
  290MOL0     C39035   3.096   4.934  10.891  1.0086  0.2409 -0.2887
  290MOL0     C39036   2.969   4.870  10.942  0.1707 -0.4682  0.6226
  290MOL0     C39037   2.927   4.737  10.877  0.0932 -0.1202 -0.2947
  290MOL0     C39038   2.784   4.691  10.903  0.2443  0.5605  0.6226
  290MOL0     O39039   2.674   4.779  10.880  0.1260  0.0635  0.2213
  290MOL0     C39040   2.547   4.737  10.909  0.4248 -0.2387  0.2222
  290MOL0     C39041   2.459   4.842  10.933  1.2871 -0.7425  0.0042
  290MOL0     C39042   2.325   4.816  10.964  1.2445 -0.1398  0.0896
  290MOL0     C39043   2.274   4.682  10.964 -0.2326  0.2317  0.0227
  290MOL0     C39044   2.136   4.646  11.005  0.2448  0.3822  1.0716
  290MOL0     O39045   2.052   4.756  11.009  0.6454 -0.1225 -1.5023
  290MOL0     C39046   1.916   4.738  11.024 -0.3009 -0.0775 -0.1470
  290MOL0     C39047   1.846   4.830  11.106  0.4723  0.7701 -0.0127
  290MOL0     C39048   1.704   4.826  11.112  0.1412 -0.1738 -0.1915
  290MOL0     C39049   1.634   4.726  11.049  0.1655 -0.8266 -0.6348
  290MOL0     O39050   1.497   4.715  11.048  0.6178  0.3438 -0.3185
  290MOL0     C39051   1.419   4.743  11.175  0.3977  0.5196 -0.4749
  290MOL0     C39052   1.289   4.655  11.194  0.0714 -0.3258 -0.3473
  290MOL0     C39053   1.324   4.506  11.199 -0.0313 -0.2395  0.6051
  290MOL0     C39054   1.209   4.416  11.174  0.1977 -0.3984 -0.4860
  290MOL0     C39055   1.105   4.429  11.285 -0.7574 -0.0149 -0.6586
  290MOL0     C39056   1.057   4.284  11.325 -0.0202 -0.4049  0.1722
  290MOL0     C39057   0.966   4.210  11.222  0.0760 -0.3060  0.3972
  290MOL0     C39058   0.824   4.167  11.283 -0.2316 -0.2731  0.1036
  290MOL0    Cl39059   0.848   4.067  11.435 -0.3779  0.2571  0.0913
  290MOL0     C39060   1.708   4.637  10.983  0.3381  0.4683  0.5486
  290MOL0     C39061   1.842   4.636  10.960 -0.0857 -0.4835  0.8620
  290MOL0     O39062   2.106   4.527  11.026 -0.1589  0.5065  0.3503
  290MOL0     C39063   2.367   4.576  10.942 -0.5795  0.0044  0.0894
  290MOL0     C39064   2.496   4.604  10.902 -0.7626 -0.1438 -0.0261
  290MOL0     N39065   3.281   4.808  11.028  1.3250  0.1535 -0.8272
  290MOL0     N39066   3.390   4.745  10.998  0.1424 -0.2870  0.3160
  290MOL0     C39067   3.013   3.909  10.929  0.3401  0.3776  0.2770
  290MOL0     C39068   2.932   3.859  11.031  0.2833 -0.5777 -0.2947
  290MOL0     C39069   2.598   3.722  11.286 -0.2593 -0.2650 -0.2185
  290MOL0     C39070   2.647   3.622  11.371 -0.4376 -0.5881  0.0225
  290MOL0     C39071   2.564   3.552  11.454  0.1631  0.9358  0.5455
  290MOL0     C39072   2.422   3.579  11.443 -0.0132  0.3897 -0.4580
  290MOL0     O39073   2.336   3.490  11.504 -0.0961  0.5314  0.1822
  290MOL0     C39074   2.237   3.424  11.418 -0.6162 -0.8382 -0.0198
  290MOL0     C39075   2.263   3.270  11.430 -0.4590  0.0138  0.3160
  290MOL0     C39076   2.401   3.230  11.390  0.1560  0.2004 -0.0002
  290MOL0     C39077   2.410   3.132  11.274  0.4312  0.3882  0.4016
  290MOL0     C39078   2.385   2.985  11.312 -0.1202 -0.1483 -0.0046
  290MOL0     C39079   2.355   2.872  11.336  1.1710 -0.4878  0.3793
  290MOL0     C39080   2.380   3.689  11.372  0.7368  0.5429 -0.2040
  290MOL0     C39081   2.461   3.755  11.279 -0.0867 -0.5808 -0.6149
  290MOL0     C39082   2.412   3.854  11.167  0.1688  0.1390  0.0157
  290MOL0     H39083   2.756   3.622  10.845  1.3923 -0.0825 -1.4144
  290MOL0     H39084   2.878   3.719  10.667  0.9714  0.6594 -0.4015
  290MOL0     H39085   3.075   3.958  10.502  0.1311 -4.5490 -0.1462
  290MOL0     H39086   2.919   3.918  10.563  0.6832  0.6368 -2.1229
  290MOL0     H39087   2.955   4.116  10.720  0.0316 -1.7151 -0.1217
  290MOL0     H39088   2.908   4.155  10.551 -0.3012 -1.0141  0.2522
  290MOL0     H39089   3.107   4.267  10.514  0.1440  2.6835  2.0652
  290MOL0     H39090   3.195   4.134  10.568 -0.4563 -0.0011  0.3788
  290MOL0     H39091   3.076   4.350  10.731 -0.1956 -0.9507 -1.2985
  290MOL0     H39092   3.165   4.231  10.818  1.7824  2.4258  0.5282
  290MOL0     H39093   3.372   4.278  10.656  2.4186  1.6868  4.7169
  290MOL0     H39094   3.254   4.406  10.583 -3.5200 -2.2167  0.0395
  290MOL0     H39095   3.245   4.492  10.817 -0.5321 -3.0539  3.1850
  290MOL0     H39096   3.375   4.388  10.869 -0.3785  0.1172  0.3608
  290MOL0     H39097   3.411   4.577  10.622 -1.6898  2.3862  1.3081
  290MOL0     H39098   3.533   4.479  10.686 -1.2195  0.3858 -2.1835
  290MOL0     H39099   3.561   4.607  10.878  3.8475 -2.9410 -4.6155
  290MOL0     H39100   3.553   4.731  10.753  1.2836 -1.7192 -0.3797
  290MOL0     H39101   3.231   4.774  10.707  0.3388  0.2778 -0.9229
  290MOL0     H39102   3.114   5.032  10.935 -1.1684 -0.1149  1.5677
  290MOL0     H39103   3.089   4.957  10.785  2.0769 -1.6446 -0.8117
  290MOL0     H39104   2.966   4.871  11.052 -2.7556  3.0046  0.7202
  290MOL0     H39105   2.892   4.943  10.914  1.9562  0.3355 -2.7014
  290MOL0     H39106   2.992   4.658  10.916  0.8071  1.1996  1.3158
  290MOL0     H39107   2.945   4.741  10.769  0.7557 -3.8314 -0.4554
  290MOL0     H39108   2.778   4.639  10.999  1.0584 -1.1493 -0.2139
  290MOL0     H39109   2.779   4.616  10.823  4.1906  0.3619  0.3665
  290MOL0     H39110   2.495   4.943  10.948  3.5585 -1.6384  1.1190
  290MOL0     H39111   2.259   4.898  10.990 -1.0998 -1.3846 -1.5139
  290MOL0     H39112   1.910   4.895  11.164 -1.5487  1.1097  1.9811
  290MOL0     H39113   1.646   4.889  11.179  2.1938  1.1009  0.4643
  290MOL0     H39114   1.487   4.731  11.260  1.2651  0.7440 -1.1200
  290MOL0     H39115   1.381   4.846  11.180 -5.6622 -1.3017 -1.3447
  290MOL0     H39116   1.259   4.692  11.293 -4.3255 -2.0299 -0.8094
  290MOL0     H39117   1.223   4.685  11.112 -0.2193 -1.1454 -0.4182
  290MOL0     H39118   1.403   4.486  11.126  1.1495 -0.5261  1.9057
  290MOL0     H39119   1.374   4.485  11.294 -0.5652 -2.6250  0.4015
  290MOL0     H39120   1.250   4.314  11.180  3.2722  0.7884  0.9087
  290MOL0     H39121   1.169   4.425  11.072 -3.1703 -2.5394  0.4771
  290MOL0     H39122   1.021   4.485  11.243  0.8364 -0.4238 -4.9838
  290MOL0     H39123   1.152   4.479  11.370  3.1495 -0.7796 -2.1410
  290MOL0     H39124   1.151   4.229  11.341  1.7294  2.0171 -1.1178
  290MOL0     H39125   1.004   4.298  11.420 -1.8086 -0.4258 -0.7826
  290MOL0     H39126   1.017   4.122  11.183 -0.4631 -0.3796 -0.1631
  290MOL0     H39127   0.942   4.280  11.141  1.1036  1.3557  1.4547
  290MOL0     H39128   0.773   4.261  11.304 -0.3224 -0.2019 -0.4124
  290MOL0     H39129   0.757   4.112  11.216 -0.6205 -1.9165  1.7510
  290MOL0     H39130   1.664   4.552  10.931  1.6990  1.7867 -3.0467
  290MOL0     H39131   1.883   4.559  10.895 -0.6916 -0.6612  0.6854
  290MOL0     H39132   2.327   4.477  10.922 -1.0347  0.1589  0.2419
  290MOL0     H39133   2.559   4.525  10.863  0.1274 -0.4278  1.8927
  290MOL0     H39134   3.088   3.984  10.954  1.6807 -0.8552  0.0667
  290MOL0     H39135   2.934   3.885  11.136 -1.6042  0.2808 -0.4256
  290MOL0     H39136   2.752   3.594  11.367  0.2073  0.8129  3.6561
  290MOL0     H39137   2.592   3.463  11.509 -0.7133 -1.7074 -2.9418
  290MOL0     H39138   2.249   3.461  11.316  3.1142 -0.8260  0.3160
  290MOL0     H39139   2.136   3.457  11.445  0.0828  0.8719  0.6614
  290MOL0     H39140   2.190   3.222  11.364  0.2928  2.1235 -2.2191
  290MOL0     H39141   2.255   3.249  11.537 -1.6665 -0.3433  0.1643
  290MOL0     H39142   2.452   3.176  11.471  0.2444  0.7708  0.3291
  290MOL0     H39143   2.459   3.320  11.369 -0.3864  0.5432 -0.0400
  290MOL0     H39144   2.348   3.149  11.185 -1.4558 -1.3193  1.2874
  290MOL0     H39145   2.513   3.138  11.237 -0.1488  1.0505 -1.2083
  290MOL0     H39146   2.320   2.772  11.351 -1.1780  0.0893 -0.7665
  290MOL0     H39147   2.272   3.697  11.378  0.7040 -0.6430  1.8921
  290MOL0     H39148   2.410   3.959  11.201  0.8544  0.1937 -0.1024
  290MOL0     H39149   2.462   3.853  11.070 -1.4598  1.7973 -0.9250
  290MOL0     H39150   2.312   3.829  11.129  0.4948  1.4278 -1.8071
  291MOL0     O39151   7.182   8.618   2.069 -0.1849 -0.5451  0.1970
  291MOL0     C39152   7.082   8.675   2.119  0.7052  1.1302 -1.0681
  291MOL0     O39153   6.985   8.606   2.190 -0.3123  0.4106  0.5728
  291MOL0     C39154   6.963   8.477   2.161 -0.4509 -0.3705  0.2232
  291MOL0     C39155   6.981   8.416   2.036  0.2407  0.1077 -0.0038
  291MOL0     C39156   6.950   8.281   2.006  0.2052 -0.0257 -0.1297
  291MOL0     C39157   6.891   8.203   2.105  0.7636 -0.3170 -0.0006
  291MOL0     O39158   6.886   8.071   2.083  0.3190  0.5555 -0.2111
  291MOL0     C39159   6.809   7.980   2.174 -0.2066 -1.3281 -0.6179
  291MOL0     C39160   6.843   7.839   2.156 -0.4608  0.1811  0.0117
  291MOL0     C39161   6.808   7.801   2.008 -0.2532 -0.0200 -1.6362
  291MOL0     C39162   6.847   7.660   1.979 -0.2845  0.3232  0.4988
  291MOL0     C39163   6.869   7.625   1.829 -0.6690 -0.3941  0.2755
  291MOL0     C39164   6.883   7.479   1.797  0.3686  0.3788  0.4262
  291MOL0     C39165   6.953   7.451   1.671  0.0823  0.4757 -0.3311
  291MOL0     C39166   6.902   7.536   1.548 -0.1718 -0.5423 -0.7593
  291MOL0     N39167   6.970   7.511   1.414  0.6396 -0.6200  0.3185
  291MOL0     C39168   7.000   7.391   1.363 -0.1840 -0.0589  0.2534
  291MOL0     C39169   7.085   7.428   1.263 -0.2158  0.5933  0.5880
  291MOL0     C39170   7.155   7.314   1.182  0.8874  0.0484 -0.5264
  291MOL0     C39171   7.067   7.256   1.061  0.4773 -0.4064  0.3178
  291MOL0     C39172   7.158   7.152   0.983  0.6641  0.2192 -0.3545
  291MOL0     C39173   7.289   7.211   0.917 -0.2847 -1.0229 -0.0165
  291MOL0     O39174   7.316   7.147   0.794  0.9922 -0.1695  0.9448
  291MOL0     C39175   7.231   7.165   0.685  0.3639 -0.3587  0.3202
  291MOL0     C39176   7.148   7.285   0.662 -0.1754 -0.1124  1.5535
  291MOL0     C39177   7.063   7.298   0.548 -0.5153 -1.3754 -0.7850
  291MOL0     C39178   7.050   7.194   0.455  0.3461 -0.4597  0.2185
  291MOL0     C39179   6.970   7.201   0.340  0.6416 -0.3786  0.2786
  291MOL0     O39180   6.951   7.086   0.281  0.1038  1.0081  0.1089
  291MOL0     C39181   6.863   7.076   0.178 -0.7112  0.3177 -0.7912
  291MOL0     C39182   6.733   7.115   0.183  0.4593 -0.0243 -0.5205
  291MOL0     C39183   6.649   7.115   0.075 -0.1111 -0.4684  0.6398
  291MOL0     C39184   6.688   7.048  -0.045 -0.2111  0.2580  0.7029
  291MOL0     O39185   6.591   7.044  -0.140 -0.3255 -0.1456  0.4172
  291MOL0     C39186   6.631   7.041  -0.274  0.1771  0.2496  0.0223
  291MOL0     C39187   6.512   7.042  -0.361  0.3793  0.2058  0.6987
  291MOL0     C39188   6.554   7.075  -0.509  0.5415 -0.7255  0.2054
  291MOL0     C39189   6.435   7.071  -0.600  0.0642 -0.1374  0.4708
  291MOL0     C39190   6.489   7.066  -0.743 -0.4027  0.1810 -0.0647
  291MOL0     C39191   6.375   7.112  -0.833  0.2441  0.6107  0.4948
  291MOL0     C39192   6.402   7.100  -0.983 -0.2640  0.2490  1.2300
  291MOL0     C39193   6.288   7.168  -1.050 -1.0822  0.6311  0.5959
  291MOL0    Cl39194   6.275   7.135  -1.225 -0.0247 -0.1546  0.3805
  291MOL0     C39195   6.819   6.995  -0.054 -1.0078 -0.0604  0.4450
  291MOL0     C39196   6.903   7.000   0.061 -0.0044 -0.1228  0.6777
  291MOL0     O39197   6.910   7.310   0.318  0.4875 -0.2594  0.4765
  291MOL0     C39198   7.128   7.083   0.475 -1.0824 -0.1316 -0.7875
  291MOL0     C39199   7.218   7.072   0.583 -0.3451  0.4143 -0.7910
  291MOL0     N39200   7.106   7.561   1.253  0.6056  0.4992  0.2977
  291MOL0     N39201   7.031   7.611   1.339 -0.6326  0.2441  0.2229
  291MOL0     C39202   6.870   8.263   2.228 -1.0198 -0.2618 -0.7539
  291MOL0     C39203   6.908   8.392   2.253 -0.3431  0.4245 -0.3932
  291MOL0     C39204   7.057   8.815   2.121  0.2022 -0.2603  0.7512
  291MOL0     C39205   6.920   8.859   2.138  0.3451 -0.0795 -0.8115
  291MOL0     C39206   6.892   8.995   2.125 -0.5766 -0.0042 -1.1556
  291MOL0     C39207   6.986   9.096   2.112  0.4579 -0.7103 -0.0828
  291MOL0     O39208   6.960   9.229   2.089  0.4679 -0.2086  0.4350
  291MOL0     C39209   6.836   9.280   2.056  1.6146  0.1207 -0.2609
  291MOL0     C39210   6.854   9.408   1.978  0.2068 -0.0165  0.0986
  291MOL0     C39211   6.946   9.382   1.861  0.0950 -0.8690 -0.0103
  291MOL0     C39212   7.009   9.511   1.815 -0.3321 -0.2557 -0.6946
  291MOL0     C39213   7.103   9.485   1.705  0.9559 -0.2767  0.7679
  291MOL0     C39214   7.177   9.457   1.620  0.2175 -0.2177  0.2885
  291MOL0     C39215   7.118   9.053   2.101  0.1438  0.1438  0.3173
  291MOL0     C39216   7.155   8.921   2.124  0.7549 -0.0365 -0.8801
  291MOL0     C39217   7.303   8.886   2.145 -0.1947  0.6831 -0.2714
  291MOL0     H39218   7.024   8.473   1.954 -1.1020 -1.7881 -2.1560
  291MOL0     H39219   6.977   8.248   1.906  0.4544 -0.4606  0.0772
  291MOL0     H39220   6.812   8.005   2.280  0.1028 -1.9703 -0.4684
  291MOL0     H39221   6.703   7.988   2.148 -0.3871 -0.1766  0.3861
  291MOL0     H39222   6.780   7.773   2.215 -1.0596 -2.2848 -3.1416
  291MOL0     H39223   6.943   7.818   2.196 -0.1796  0.7829 -0.3493
  291MOL0     H39224   6.848   7.877   1.941 -2.0200  1.5407 -1.0027
  291MOL0     H39225   6.701   7.815   1.987 -0.7964  0.8849  1.3307
  291MOL0     H39226   6.931   7.634   2.043 -0.7630 -0.1605  0.9388
  291MOL0     H39227   6.767   7.596   2.016  0.4162 -0.0896  1.3343
  291MOL0     H39228   6.788   7.679   1.779  1.0268  1.3807 -0.6662
  291MOL0     H39229   6.966   7.660   1.792 -0.3762 -2.0447 -0.6247
  291MOL0     H39230   6.953   7.437   1.869  2.0891  1.8926 -0.2638
  291MOL0     H39231   6.786   7.429   1.794  1.0113 -0.9227 -3.2046
  291MOL0     H39232   6.955   7.342   1.659  0.3277  0.4534 -0.0864
  291MOL0     H39233   7.056   7.486   1.681  0.5006 -0.4716 -1.0408
  291MOL0     H39234   6.794   7.527   1.537  0.0833 -1.3452 -3.1034
  291MOL0     H39235   6.921   7.642   1.563 -0.9410 -0.1656 -2.2663
  291MOL0     H39236   6.990   7.289   1.401  3.8941  0.0576  2.2069
  291MOL0     H39237   7.251   7.357   1.154  1.4729  1.4165  3.1271
  291MOL0     H39238   7.183   7.241   1.258  1.1352  1.0221  0.3403
  291MOL0     H39239   6.974   7.208   1.092 -0.4112  0.4540 -0.8659
  291MOL0     H39240   7.030   7.343   1.005 -2.6645 -0.1488  2.5106
  291MOL0     H39241   7.094   7.107   0.907 -0.1643  1.6374 -0.5462
  291MOL0     H39242   7.180   7.070   1.052 -0.9940 -1.4596 -1.7121
  291MOL0     H39243   7.378   7.204   0.980 -1.1566  3.1398  2.0649
  291MOL0     H39244   7.265   7.317   0.903  0.9220 -0.9232 -1.7172
  291MOL0     H39245   7.153   7.375   0.724  1.3719  1.0886 -0.2127
  291MOL0     H39246   6.997   7.384   0.540 -0.2084 -0.4151  4.0213
  291MOL0     H39247   6.683   7.157   0.269  0.8399 -1.5967  0.5044
  291MOL0     H39248   6.549   7.157   0.077  0.2615  0.7497 -2.1551
  291MOL0     H39249   6.697   7.123  -0.305 -0.1712 -0.2823 -2.3119
  291MOL0     H39250   6.684   6.947  -0.287 -0.0237  0.1176  0.1568
  291MOL0     H39251   6.473   6.941  -0.376  5.8223 -2.3174  1.1656
  291MOL0     H39252   6.439   7.118  -0.333 -0.0134 -0.2783  1.0172
  291MOL0     H39253   6.604   7.172  -0.512  1.9823 -1.4531 -1.3382
  291MOL0     H39254   6.624   7.002  -0.552  1.1863  0.2825 -0.5015
  291MOL0     H39255   6.390   7.170  -0.587  2.2450  0.7752  1.4892
  291MOL0     H39256   6.365   6.993  -0.567 -0.6571  0.2911 -0.0059
  291MOL0     H39257   6.511   6.964  -0.777  1.1573  0.2649  0.6252
  291MOL0     H39258   6.575   7.133  -0.750 -0.4513  0.0920 -2.6660
  291MOL0     H39259   6.281   7.062  -0.810  0.2331  1.7312  3.2987
  291MOL0     H39260   6.349   7.217  -0.815 -2.2430  0.5908 -2.3761
  291MOL0     H39261   6.392   6.996  -1.016  1.2302  1.4438 -3.9601
  291MOL0     H39262   6.501   7.135  -1.012  0.2875 -1.8252  0.4091
  291MOL0     H39263   6.198   7.131  -0.999  0.5191 -1.6873  1.9050
  291MOL0     H39264   6.295   7.277  -1.042 -3.9432  1.0568 -1.2743
  291MOL0     H39265   6.866   6.941  -0.136  2.6622  1.6153  1.2395
  291MOL0     H39266   7.002   6.955   0.056  0.1006  0.1727 -0.0466
  291MOL0     H39267   7.142   7.004   0.402 -0.0893  0.3944 -1.1737
  291MOL0     H39268   7.287   6.988   0.583 -0.1484  0.5737 -0.6456
  291MOL0     H39269   6.838   8.219   2.322 -0.6769 -2.9376 -1.8102
  291MOL0     H39270   6.892   8.440   2.349 -5.1459 -0.7771 -0.3420
  291MOL0     H39271   6.841   8.787   2.158  0.8630 -1.1789 -2.5544
  291MOL0     H39272   6.787   9.020   2.114 -0.6338  0.2910 -0.0053
  291MOL0     H39273   6.778   9.300   2.146  1.6534  0.5717 -0.3305
  291MOL0     H39274   6.766   9.212   2.006 -2.1360  2.5902  1.1502
  291MOL0     H39275   6.902   9.493   2.028 -3.4731  3.6627 -2.0611
  291MOL0     H39276   6.759   9.454   1.951  1.0950  2.4018  0.7904
  291MOL0     H39277   6.886   9.334   1.784 -2.2858  0.5855  0.8298
  291MOL0     H39278   7.024   9.309   1.886 -0.3207 -2.2002 -2.2958
  291MOL0     H39279   6.934   9.584   1.784 -1.0780 -1.0566 -0.8032
  291MOL0     H39280   7.062   9.542   1.905  0.8266 -1.0645 -1.0714
  291MOL0     H39281   7.248   9.436   1.543 -0.4202 -2.7964  0.2879
  291MOL0     H39282   7.193   9.132   2.099 -1.4429  1.7721 -2.8965
  291MOL0     H39283   7.363   8.969   2.183 -0.1169 -0.1326  1.5128
  291MOL0     H39284   7.318   8.801   2.213 -1.9471  0.5220 -0.0297
  291MOL0     H39285   7.349   8.865   2.049 -2.0124  3.0438 -1.7628
  292MOL0     O39286   0.594   8.020   9.369 -0.1820 -0.1035  0.4734
  292MOL0     C39287   0.620   7.934   9.457  0.4051  0.6302 -0.7781
  292MOL0     O39288   0.745   7.903   9.503 -0.6767 -0.3640 -0.2012
  292MOL0     C39289   0.825   7.867   9.394 -0.3642 -0.1190 -0.3264
  292MOL0     C39290   0.821   7.739   9.346 -0.2255  0.2137 -0.1357
  292MOL0     C39291   0.905   7.705   9.239  0.2839 -0.2152 -0.0654
  292MOL0     C39292   0.981   7.795   9.172 -0.0321 -0.4720  0.7401
  292MOL0     O39293   1.044   7.755   9.055 -0.1388 -0.5850  0.0469
  292MOL0     C39294   1.133   7.855   8.994  0.3638 -0.1938  0.4585
  292MOL0     C39295   1.212   7.787   8.881  0.1498 -0.6323 -0.8502
  292MOL0     C39296   1.298   7.894   8.821  0.7789 -0.0202 -0.5143
  292MOL0     C39297   1.366   7.847   8.689  0.4135  0.2595  0.5283
  292MOL0     C39298   1.270   7.809   8.576  0.3401 -0.3804  0.3113
  292MOL0     C39299   1.334   7.820   8.439 -0.3310 -0.4133 -0.8775
  292MOL0     C39300   1.221   7.867   8.341 -0.4003 -0.0243  0.6605
  292MOL0     C39301   1.250   7.859   8.197  0.6549 -0.6162  0.9834
  292MOL0     N39302   1.257   7.719   8.144 -0.5488  0.3924  0.0287
  292MOL0     C39303   1.285   7.600   8.207 -0.0759  0.0293 -0.4253
  292MOL0     C39304   1.310   7.516   8.105 -0.3431  0.0324  0.0948
  292MOL0     C39305   1.361   7.370   8.116  0.1582 -0.9091 -0.3731
  292MOL0     C39306   1.266   7.270   8.041 -0.0363 -0.7008 -0.2074
  292MOL0     C39307   1.329   7.155   7.955  0.4702 -0.0996 -0.0633
  292MOL0     C39308   1.398   7.214   7.843  0.1584  0.3183 -0.7573
  292MOL0     O39309   1.448   7.113   7.749 -0.8734  0.1915  0.5135
  292MOL0     C39310   1.560   7.144   7.674  0.7667 -0.1526 -0.8855
  292MOL0     C39311   1.613   7.270   7.652 -0.0490  0.5078  0.4182
  292MOL0     C39312   1.722   7.293   7.566  0.0695  0.2352  0.3250
  292MOL0     C39313   1.782   7.198   7.484  0.5339  0.3256 -0.5771
  292MOL0     C39314   1.904   7.223   7.413 -0.1215 -0.4225 -0.1191
  292MOL0     O39315   1.987   7.116   7.409 -0.1654 -0.0698 -0.7053
  292MOL0     C39316   2.106   7.133   7.351  0.3593  0.0609  1.0315
  292MOL0     C39317   2.197   7.232   7.397  0.6847  0.7044 -0.7986
  292MOL0     C39318   2.327   7.228   7.335 -1.1793 -1.1475  0.5828
  292MOL0     C39319   2.361   7.135   7.234 -0.2573 -0.0829 -0.0339
  292MOL0     O39320   2.487   7.133   7.191 -0.5220  0.0860 -0.6009
  292MOL0     C39321   2.507   7.065   7.062 -0.2310  0.5442  0.1964
  292MOL0     C39322   2.658   7.085   7.009 -0.5402  0.2849 -0.4964
  292MOL0     C39323   2.754   6.992   7.074  0.3496  0.5599  1.0052
  292MOL0     C39324   2.897   7.039   7.029  0.4956 -0.0082  0.8473
  292MOL0     C39325   3.010   6.969   7.116  0.8683  0.7828  0.0917
  292MOL0     C39326   3.010   6.820   7.099  0.2085  0.0119  0.0190
  292MOL0     C39327   3.130   6.763   7.170  1.1377  0.4207  0.0199
  292MOL0     C39328   3.244   6.764   7.065 -0.2439 -0.0348 -0.5521
  292MOL0    Cl39329   3.219   6.613   6.969 -0.1887 -0.0649 -0.3747
  292MOL0     C39330   2.261   7.052   7.187  0.2441  0.1998 -0.0170
  292MOL0     C39331   2.142   7.047   7.250  0.9273 -0.2512  0.0777
  292MOL0     O39332   1.917   7.328   7.349  0.2371  0.3485 -0.8061
  292MOL0     C39333   1.718   7.063   7.501 -0.1890 -0.5548  0.5843
  292MOL0     C39334   1.626   7.045   7.602 -0.0063  0.5329 -0.6855
  292MOL0     N39335   1.287   7.580   7.983  0.5561  0.1984  0.7416
  292MOL0     N39336   1.248   7.701   8.005 -0.4457  0.5778 -0.5095
  292MOL0     C39337   0.990   7.924   9.237  0.1611 -0.0915  0.3307
  292MOL0     C39338   0.922   7.953   9.347  0.5901 -0.3106 -0.4650
  292MOL0     C39339   0.498   7.889   9.534 -0.9482 -0.2992 -0.2918
  292MOL0     C39340   0.509   7.871   9.673 -0.1999 -0.4766  0.1379
  292MOL0     C39341   0.397   7.822   9.749 -0.3465 -0.6329  0.7202
  292MOL0     C39342   0.273   7.808   9.683 -0.9142 -0.2974 -0.7090
  292MOL0     O39343   0.170   7.769   9.754  0.3547  0.2139  0.8109
  292MOL0     C39344   0.163   7.764   9.895 -0.5907 -0.1714 -0.0580
  292MOL0     C39345   0.026   7.747   9.966 -0.3866 -0.0487  0.2780
  292MOL0     C39346  -0.057   7.632   9.906 -0.2162 -0.0041 -0.2028
  292MOL0     C39347  -0.209   7.652   9.917 -0.8737 -0.1516  0.2446
  292MOL0     C39348  -0.265   7.713   9.793  0.3062  0.9786  0.9417
  292MOL0     C39349  -0.289   7.753   9.687  0.8792 -0.1898 -1.4280
  292MOL0     C39350   0.260   7.823   9.549 -0.2972  0.0747  0.3055
  292MOL0     C39351   0.370   7.863   9.475 -0.8788 -0.2926 -0.4341
  292MOL0     C39352   0.340   7.864   9.329  0.1817 -0.1561  0.0097
  292MOL0     H39353   0.761   7.669   9.403 -1.5696 -1.9316 -3.8025
  292MOL0     H39354   0.901   7.602   9.205  1.7864 -0.5667  0.7343
  292MOL0     H39355   1.072   7.934   8.949 -1.7713 -1.9878  0.0280
  292MOL0     H39356   1.203   7.911   9.057  0.7181 -0.5881  0.4217
  292MOL0     H39357   1.142   7.738   8.812 -2.3166  0.4718  0.7369
  292MOL0     H39358   1.268   7.703   8.923 -0.1088  0.1960  1.2485
  292MOL0     H39359   1.377   7.909   8.895  0.0045  2.3209 -0.0693
  292MOL0     H39360   1.241   7.985   8.800 -2.0849 -1.3381  0.9037
  292MOL0     H39361   1.433   7.931   8.666 -0.9941  1.3204  0.1772
  292MOL0     H39362   1.427   7.761   8.718  1.0458  1.2967  2.4614
  292MOL0     H39363   1.226   7.710   8.593 -1.6578  0.4264  0.1230
  292MOL0     H39364   1.191   7.884   8.583  0.9879  0.4329 -0.8114
  292MOL0     H39365   1.404   7.904   8.431  2.1433 -2.4621 -2.1575
  292MOL0     H39366   1.382   7.725   8.415 -0.9631 -0.5488 -1.6473
  292MOL0     H39367   1.193   7.971   8.363 -0.2684 -0.0044  0.7321
  292MOL0     H39368   1.137   7.799   8.357 -2.7547  2.5744  0.0709
  292MOL0     H39369   1.161   7.892   8.143  0.2378 -0.1863  1.9151
  292MOL0     H39370   1.344   7.903   8.163  0.5113 -1.9526 -1.3682
  292MOL0     H39371   1.278   7.579   8.314 -0.2486  2.6035  0.1413
  292MOL0     H39372   1.453   7.380   8.058 -0.6292 -0.3365 -1.5725
  292MOL0     H39373   1.381   7.341   8.220  1.5460 -0.4283 -0.4820
  292MOL0     H39374   1.209   7.222   8.121 -1.7148  0.1256 -0.8538
  292MOL0     H39375   1.186   7.319   7.985 -2.3233  0.6788  3.8430
  292MOL0     H39376   1.261   7.079   7.917  0.5849  0.2349 -0.9576
  292MOL0     H39377   1.404   7.104   8.016  1.1529  1.1462  0.1635
  292MOL0     H39378   1.479   7.279   7.879  1.1512 -0.9110 -0.7137
  292MOL0     H39379   1.330   7.268   7.777 -0.5368 -0.7285 -0.9201
  292MOL0     H39380   1.566   7.360   7.690 -1.9324  0.4195 -1.4878
  292MOL0     H39381   1.750   7.397   7.554  1.1042 -0.0088  0.5342
  292MOL0     H39382   2.165   7.293   7.480  0.2523 -1.9120  1.0681
  292MOL0     H39383   2.410   7.293   7.359 -2.7308  1.4300 -0.5945
  292MOL0     H39384   2.511   6.958   7.085  2.6694  0.7410  1.0053
  292MOL0     H39385   2.438   7.095   6.983 -0.3313 -0.2306 -0.0170
  292MOL0     H39386   2.681   7.097   6.903  1.6844  1.6410  0.0633
  292MOL0     H39387   2.671   7.187   7.048  3.0627  0.1046 -0.8542
  292MOL0     H39388   2.747   6.982   7.183  0.8947 -1.8585  0.8672
  292MOL0     H39389   2.737   6.894   7.030 -0.8104  0.6496  1.2264
  292MOL0     H39390   2.907   7.144   7.060 -1.9342  0.4221  0.3674
  292MOL0     H39391   2.915   7.022   6.922 -3.1872 -0.5623  0.1801
  292MOL0     H39392   2.970   6.984   7.216  0.8178 -1.0494  0.3740
  292MOL0     H39393   3.111   7.008   7.105  1.9704 -1.5240  1.3905
  292MOL0     H39394   2.925   6.779   7.154  0.7099 -0.1359  0.6931
  292MOL0     H39395   3.012   6.786   6.995 -1.0864 -1.4361  0.4370
  292MOL0     H39396   3.112   6.661   7.207 -1.2856  1.1592  1.0586
  292MOL0     H39397   3.150   6.821   7.261  2.5291 -2.1938  1.5062
  292MOL0     H39398   3.226   6.855   7.007 -1.4260  1.2929  1.6986
  292MOL0     H39399   3.339   6.765   7.120  1.4070 -0.8346 -3.2389
  292MOL0     H39400   2.269   7.001   7.091 -3.3955 -0.7647  0.0386
  292MOL0     H39401   2.073   6.966   7.227  0.4261  0.1149  0.2698
  292MOL0     H39402   1.766   6.984   7.444  1.6959  1.8535 -1.3971
  292MOL0     H39403   1.587   6.945   7.617  0.8609  0.3096  0.1845
  292MOL0     H39404   1.039   8.011   9.193 -3.2218  2.0708  0.5406
  292MOL0     H39405   0.930   8.053   9.388  1.8488  0.9016 -3.3781
  292MOL0     H39406   0.600   7.899   9.724  0.7555 -1.5064 -0.9419
  292MOL0     H39407   0.419   7.801   9.853 -1.6048 -1.5569  0.8159
  292MOL0     H39408   0.216   7.851   9.937 -0.4693 -1.1381  1.9428
  292MOL0     H39409   0.214   7.668   9.911 -0.1256  0.0347 -0.2951
  292MOL0     H39410  -0.038   7.836   9.959  1.3866  1.6739  3.4065
  292MOL0     H39411   0.055   7.732  10.070  0.6035 -1.1657 -0.1432
  292MOL0     H39412  -0.029   7.550   9.972  1.9218 -1.0786 -2.2502
  292MOL0     H39413  -0.031   7.607   9.803  1.7097  1.2679 -0.0834
  292MOL0     H39414  -0.255   7.555   9.937  0.5875 -0.4061  2.8299
  292MOL0     H39415  -0.220   7.715  10.006  0.8465  0.9370 -0.2620
  292MOL0     H39416  -0.304   7.786   9.586 -3.2818 -0.2277 -1.0013
  292MOL0     H39417   0.168   7.805   9.494 -0.1373  4.5417 -1.9381
  292MOL0     H39418   0.236   7.843   9.302  0.4931  0.0894 -1.4582
  292MOL0     H39419   0.373   7.957   9.282 -2.9180  2.2130  2.1536
  292MOL0     H39420   0.402   7.779   9.295  0.2630 -0.1323  0.0995
  293MOL0     O39421   5.092   9.708   6.623 -0.8111 -0.7433 -0.2751
  293MOL0     C39422   5.132   9.647   6.724 -0.4392 -0.4873  0.1955
  293MOL0     O39423   5.122   9.683   6.849 -0.2666  0.0617  0.7409
  293MOL0     C39424   5.028   9.781   6.875 -0.8136 -0.0404 -0.4473
  293MOL0     C39425   5.072   9.912   6.924 -0.0956 -0.0849  0.7127
  293MOL0     C39426   4.976  10.012   6.950 -1.3930 -0.7915 -0.3267
  293MOL0     C39427   4.836   9.984   6.942  0.0028  0.9321 -0.2560
  293MOL0     O39428   4.748  10.087   6.955  0.5716  0.3480  0.5092
  293MOL0     C39429   4.634  10.081   6.860  0.8623  0.5875  0.7502
  293MOL0     C39430   4.513  10.101   6.948 -0.4731 -0.2986  0.2443
  293MOL0     C39431   4.513  10.242   7.007  0.7606 -0.0731 -0.2743
  293MOL0     C39432   4.423  10.345   6.937 -0.2918  0.2959 -0.2771
  293MOL0     C39433   4.430  10.492   6.985 -0.2457 -0.5218 -0.7456
  293MOL0     C39434   4.565  10.549   6.941 -0.0153  0.6035 -0.3885
  293MOL0     C39435   4.590  10.704   6.932  0.5830 -0.2971 -0.2532
  293MOL0     C39436   4.591  10.772   7.075 -0.0443 -0.1946  0.4228
  293MOL0     N39437   4.683  10.715   7.170 -0.6042  0.3127 -0.6994
  293MOL0     C39438   4.819  10.695   7.144 -0.6339  0.0014  0.5881
  293MOL0     C39439   4.861  10.622   7.242  0.4025 -0.1237 -0.8793
  293MOL0     C39440   5.002  10.560   7.245  0.2565  0.0859  0.1079
  293MOL0     C39441   4.997  10.410   7.275  0.6075 -0.6280  0.0903
  293MOL0     C39442   5.150  10.354   7.291 -0.2059 -0.2962  0.9899
  293MOL0     C39443   5.161  10.201   7.299  0.3310 -0.0928  0.2590
  293MOL0     O39444   5.115  10.170   7.434 -0.4033 -0.1113  0.8887
  293MOL0     C39445   5.142  10.041   7.475  0.4629 -0.2201 -0.7557
  293MOL0     C39446   5.187   9.931   7.393 -0.4509 -0.6820 -0.0245
  293MOL0     C39447   5.223   9.804   7.454  0.3195  0.0530  0.4174
  293MOL0     C39448   5.211   9.786   7.590  0.0063  0.4440  0.0511
  293MOL0     C39449   5.251   9.654   7.650 -0.1311  0.2020 -0.3877
  293MOL0     O39450   5.298   9.553   7.573  0.5029  0.0601  0.1385
  293MOL0     C39451   5.345   9.448   7.640 -0.2254  0.4168 -1.6893
  293MOL0     C39452   5.485   9.417   7.641  0.5196  0.0145  0.2846
  293MOL0     C39453   5.523   9.307   7.715  0.0147  0.1092 -0.2149
  293MOL0     C39454   5.425   9.212   7.763 -1.1167 -0.4622  0.1031
  293MOL0     O39455   5.472   9.119   7.845  0.5052  0.3247  0.0157
  293MOL0     C39456   5.438   8.986   7.804  0.4589 -0.7883  1.1252
  293MOL0     C39457   5.469   8.897   7.909  0.9028  1.0466  0.0710
  293MOL0     C39458   5.441   8.743   7.892  1.3855  0.1797  0.8300
  293MOL0     C39459   5.536   8.670   7.793  0.2954  0.1903 -0.2962
  293MOL0     C39460   5.521   8.518   7.812 -0.1076 -0.3230 -1.0785
  293MOL0     C39461   5.588   8.446   7.700 -0.4281  0.5198  0.5887
  293MOL0     C39462   5.743   8.459   7.695 -0.3909  0.0933  0.7160
  293MOL0     C39463   5.792   8.347   7.585 -0.1462  0.1715  0.0019
  293MOL0    Cl39464   5.975   8.339   7.596 -0.5094 -0.2780 -0.0238
  293MOL0     C39465   5.289   9.237   7.745 -0.0113  0.3285 -0.5848
  293MOL0     C39466   5.249   9.355   7.691  0.4852  0.0923 -0.0309
  293MOL0     O39467   5.237   9.634   7.774 -0.7628  0.0699  0.4412
  293MOL0     C39468   5.164   9.896   7.669  0.3603  0.1046 -0.2297
  293MOL0     C39469   5.123  10.011   7.617 -0.2506 -0.2068  0.6570
  293MOL0     N39470   4.764  10.617   7.344  0.3012  1.0771  0.0468
  293MOL0     N39471   4.656  10.674   7.302 -0.2441 -0.0934  0.5172
  293MOL0     C39472   4.800   9.849   6.931  0.0712  0.1099  0.7478
  293MOL0     C39473   4.893   9.756   6.884  0.1042  0.0110  0.3448
  293MOL0     C39474   5.194   9.511   6.713 -0.6302 -0.8040 -0.9013
  293MOL0     C39475   5.150   9.416   6.812 -0.2338 -0.3657  0.6843
  293MOL0     C39476   5.204   9.288   6.814 -0.5853 -0.5557 -0.0456
  293MOL0     C39477   5.301   9.246   6.726 -0.6858 -0.0104 -0.7704
  293MOL0     O39478   5.365   9.120   6.737  0.6708  0.5639 -0.1737
  293MOL0     C39479   5.375   9.065   6.869  0.4263  0.3680  0.1464
  293MOL0     C39480   5.497   8.969   6.874 -0.3989  0.2288  0.3512
  293MOL0     C39481   5.632   9.037   6.841 -0.1228 -0.9109 -0.6805
  293MOL0     C39482   5.756   8.956   6.853  0.2674  0.9807  0.7989
  293MOL0     C39483   5.746   8.854   6.746  0.5550 -0.3310 -0.1057
  293MOL0     C39484   5.749   8.760   6.666 -0.8270 -0.0381  0.4822
  293MOL0     C39485   5.353   9.335   6.628  0.1964 -0.0043  0.7002
  293MOL0     C39486   5.301   9.474   6.623  0.2296  0.8683 -0.2819
  293MOL0     C39487   5.358   9.559   6.517 -0.2053  0.3912 -0.4380
  293MOL0     H39488   5.176   9.932   6.946 -0.2720 -0.6132  2.1197
  293MOL0     H39489   5.008  10.110   6.982  0.2013 -0.7821 -1.8023
  293MOL0     H39490   4.643  10.154   6.778 -1.5908  0.5123  0.3607
  293MOL0     H39491   4.625   9.983   6.813  0.0196 -0.0316  2.1791
  293MOL0     H39492   4.523  10.035   7.035 -1.7655 -0.7232  0.0836
  293MOL0     H39493   4.427  10.081   6.884 -1.4108  2.4002  0.5317
  293MOL0     H39494   4.613  10.285   7.014  1.1221 -1.1030  1.8527
  293MOL0     H39495   4.481  10.240   7.112  1.4966  2.1003  0.0498
  293MOL0     H39496   4.457  10.348   6.833  2.0492 -1.8302  0.3515
  293MOL0     H39497   4.317  10.316   6.941 -0.2526  0.2934  1.0334
  293MOL0     H39498   4.353  10.554   6.938 -1.9491 -2.4676 -0.6578
  293MOL0     H39499   4.427  10.494   7.094  0.4226 -0.5277 -0.7226
  293MOL0     H39500   4.636  10.508   7.012 -0.8786 -0.2830 -0.0118
  293MOL0     H39501   4.578  10.517   6.837 -1.1426  0.5867 -0.5420
  293MOL0     H39502   4.503  10.734   6.874  1.1986 -1.6492 -1.9759
  293MOL0     H39503   4.687  10.736   6.893  1.0210 -4.8248 -3.7204
  293MOL0     H39504   4.626  10.873   7.053 -2.3146  0.5162 -0.2047
  293MOL0     H39505   4.493  10.760   7.123  0.2384 -1.0328  0.8226
  293MOL0     H39506   4.878  10.725   7.058  0.3276 -3.0424  0.0561
  293MOL0     H39507   5.045  10.575   7.146 -0.8395 -0.5311 -0.4826
  293MOL0     H39508   5.059  10.613   7.322  0.1642  1.3622 -0.6669
  293MOL0     H39509   4.937  10.400   7.366 -2.4317  2.4648 -1.3111
  293MOL0     H39510   4.944  10.344   7.206  0.2301 -0.8642  0.6016
  293MOL0     H39511   5.202  10.402   7.374  2.5387 -1.0112 -0.2205
  293MOL0     H39512   5.210  10.386   7.206 -0.1366  4.4079  2.5356
  293MOL0     H39513   5.263  10.170   7.275 -0.4094 -1.8726 -0.8025
  293MOL0     H39514   5.104  10.145   7.225 -0.2015  0.8272 -0.0318
  293MOL0     H39515   5.216   9.950   7.290  0.8748  3.9884  0.9754
  293MOL0     H39516   5.260   9.724   7.391  0.8281  0.7113 -0.1319
  293MOL0     H39517   5.555   9.487   7.596  1.8292 -2.7510 -2.3154
  293MOL0     H39518   5.626   9.274   7.723  0.1149 -0.3743 -2.6783
  293MOL0     H39519   5.329   8.990   7.790  0.8170  3.3765 -3.1655
  293MOL0     H39520   5.486   8.953   7.712  0.0717 -1.0848  1.0245
  293MOL0     H39521   5.576   8.892   7.933  0.2974  2.8822  3.9247
  293MOL0     H39522   5.421   8.926   8.004 -0.9488 -0.4985 -0.3247
  293MOL0     H39523   5.454   8.688   7.986  3.4641 -2.1450 -0.6883
  293MOL0     H39524   5.338   8.718   7.865  2.1237 -4.3813  1.5348
  293MOL0     H39525   5.639   8.702   7.811  0.5746 -0.3790 -0.8288
  293MOL0     H39526   5.505   8.685   7.689 -1.5616 -0.3010  0.1564
  293MOL0     H39527   5.415   8.492   7.816 -0.2630  0.3539 -0.6428
  293MOL0     H39528   5.574   8.496   7.906 -0.9628 -0.4385 -0.6110
  293MOL0     H39529   5.555   8.343   7.715  0.6862 -0.3369 -2.1467
  293MOL0     H39530   5.553   8.484   7.604  0.8453  0.3700  0.0354
  293MOL0     H39531   5.786   8.430   7.791 -0.5512  0.5690  0.9325
  293MOL0     H39532   5.766   8.559   7.657 -0.7177  0.1329  0.6168
  293MOL0     H39533   5.749   8.249   7.606 -2.6585  1.5615  2.0329
  293MOL0     H39534   5.764   8.372   7.483  0.8495  1.6794  0.0624
  293MOL0     H39535   5.209   9.178   7.791  1.7187 -2.4088 -0.8866
  293MOL0     H39536   5.145   9.380   7.704  0.2882 -1.4405  1.7265
  293MOL0     H39537   5.168   9.888   7.777 -1.4094  0.8349 -0.0761
  293MOL0     H39538   5.082  10.084   7.686  0.8144 -1.2191  2.4390
  293MOL0     H39539   4.700   9.808   6.943  0.7762 -1.8627  0.1278
  293MOL0     H39540   4.869   9.652   6.867  1.7650 -0.1971 -1.0508
  293MOL0     H39541   5.067   9.445   6.876 -1.8861 -2.8160 -0.2111
  293MOL0     H39542   5.174   9.224   6.896  1.7132  1.0166  2.2017
  293MOL0     H39543   5.276   9.020   6.880 -0.4771  2.4927  1.1621
  293MOL0     H39544   5.377   9.150   6.937 -2.0826  0.1298  0.5893
  293MOL0     H39545   5.484   8.892   6.798  4.0506  0.4644 -0.8628
  293MOL0     H39546   5.495   8.911   6.967 -0.8637 -1.1163 -0.4757
  293MOL0     H39547   5.643   9.117   6.915 -0.3356 -1.3884 -0.1312
  293MOL0     H39548   5.628   9.079   6.739 -0.9981 -3.0712 -1.6028
  293MOL0     H39549   5.844   9.018   6.834  1.2896 -1.0734 -1.9082
  293MOL0     H39550   5.762   8.904   6.949  1.1252 -0.6156 -0.0692
  293MOL0     H39551   5.748   8.687   6.588 -1.2890  0.0988  0.3568
  293MOL0     H39552   5.422   9.285   6.561 -1.1886 -3.2280  1.4827
  293MOL0     H39553   5.387   9.656   6.559 -1.7463  0.1408  1.3578
  293MOL0     H39554   5.441   9.511   6.465  0.6279  0.0671  1.1158
  293MOL0     H39555   5.290   9.593   6.439  1.6789  1.1576 -1.8055
  294MOL0     O39556   0.009   2.160   0.733  0.2080 -0.1477 -0.4310
  294MOL0     C39557  -0.027   2.051   0.772 -0.9685 -0.0406  0.6628
  294MOL0     O39558  -0.031   1.934   0.692 -0.2271  0.5071 -0.6997
  294MOL0     C39559   0.056   1.932   0.592 -1.2133  0.6688  0.6797
  294MOL0     C39560   0.026   1.834   0.496 -0.7218  1.4559  0.8616
  294MOL0     C39561   0.115   1.823   0.384  0.8164  0.5826 -0.0967
  294MOL0     C39562   0.231   1.901   0.373 -0.1644  0.4599  0.3613
  294MOL0     O39563   0.294   1.888   0.258  0.3632 -0.1661  0.6595
  294MOL0     C39564   0.437   1.896   0.251  0.2076 -0.0591  0.4441
  294MOL0     C39565   0.490   2.040   0.220  0.3018  0.0865  0.7891
  294MOL0     C39566   0.433   2.074   0.084  0.2642 -0.5043  0.1195
  294MOL0     C39567   0.505   2.193   0.026  0.0026 -0.6578  0.1803
  294MOL0     C39568   0.417   2.275  -0.063 -0.8586 -0.0863  1.0536
  294MOL0     C39569   0.361   2.401  -0.001  0.6376 -0.1264 -0.3567
  294MOL0     C39570   0.299   2.489  -0.101 -0.0709 -0.1597  0.2701
  294MOL0     C39571   0.168   2.554  -0.060  1.2808  0.8381 -0.3580
  294MOL0     N39572   0.158   2.650  -0.160  0.1922 -0.8593 -0.0511
  294MOL0     C39573   0.104   2.642  -0.283 -0.5030  0.3537 -1.2133
  294MOL0     C39574   0.145   2.763  -0.342  0.0910 -0.5125 -0.6430
  294MOL0     C39575   0.119   2.808  -0.483  0.1509  0.3672  0.4576
  294MOL0     C39576   0.236   2.750  -0.571 -0.6501 -0.8906  0.4150
  294MOL0     C39577   0.368   2.818  -0.554  0.0080 -0.4263 -0.4377
  294MOL0     C39578   0.481   2.724  -0.580 -0.8111  0.3591  0.4207
  294MOL0     O39579   0.486   2.670  -0.713 -0.1179 -0.1426 -0.4410
  294MOL0     C39580   0.518   2.754  -0.818 -0.7352  0.0758  0.9116
  294MOL0     C39581   0.469   2.739  -0.941  0.4573  0.3177  0.4958
  294MOL0     C39582   0.492   2.814  -1.055 -0.6423 -0.1606  0.3345
  294MOL0     C39583   0.587   2.921  -1.048  0.5538 -0.3426  0.0792
  294MOL0     C39584   0.612   3.009  -1.156  0.3424 -0.2079 -0.4319
  294MOL0     O39585   0.723   3.087  -1.152  0.3333  0.1634 -0.3755
  294MOL0     C39586   0.743   3.169  -1.259  0.5415  0.4292 -0.1660
  294MOL0     C39587   0.723   3.306  -1.232 -0.7327  0.4344  0.3080
  294MOL0     C39588   0.760   3.400  -1.330  0.0880  0.4815  1.4065
  294MOL0     C39589   0.814   3.358  -1.454  0.0472  0.2789  0.5326
  294MOL0     O39590   0.847   3.445  -1.553  0.6376  0.6227 -0.2196
  294MOL0     C39591   0.973   3.437  -1.614 -0.5559 -0.1712 -0.1319
  294MOL0     C39592   1.065   3.557  -1.585  0.2745  1.2865 -0.9466
  294MOL0     C39593   0.985   3.686  -1.588 -0.0401 -0.5351  0.2349
  294MOL0     C39594   1.043   3.774  -1.706  0.4156  0.3861 -0.0270
  294MOL0     C39595   0.957   3.909  -1.719  0.2591  0.3549 -0.4139
  294MOL0     C39596   1.028   4.009  -1.817  0.6469 -0.0055 -0.0991
  294MOL0     C39597   0.923   4.079  -1.913 -0.0883  0.2688 -0.0460
  294MOL0     C39598   0.991   4.187  -1.992  0.6913  0.0861  0.1245
  294MOL0    Cl39599   1.080   4.319  -1.895 -0.3310 -0.1353 -0.3946
  294MOL0     C39600   0.815   3.227  -1.484  0.9408 -0.3191  0.1053
  294MOL0     C39601   0.770   3.131  -1.387 -0.8702 -0.8117  0.5680
  294MOL0     O39602   0.543   2.999  -1.256 -0.6528 -0.1250  0.1188
  294MOL0     C39603   0.647   2.935  -0.925 -0.6214  0.2753 -0.4761
  294MOL0     C39604   0.609   2.856  -0.809  0.5577 -0.2590 -0.1067
  294MOL0     N39605   0.224   2.833  -0.246 -1.1002  0.6950  0.4048
  294MOL0     N39606   0.229   2.767  -0.143 -0.5741 -1.2119  0.2541
  294MOL0     C39607   0.271   1.986   0.477  0.2788  0.4243  0.5587
  294MOL0     C39608   0.183   1.994   0.584  0.4214  0.5540 -1.0534
  294MOL0     C39609  -0.081   2.030   0.902 -0.9761  1.0379  0.1267
  294MOL0     C39610  -0.154   1.913   0.924  0.3824 -0.7533  0.2739
  294MOL0     C39611  -0.231   1.889   1.036  0.1306 -0.3047  0.4913
  294MOL0     C39612  -0.244   1.989   1.133 -1.0637  0.4342  0.7690
  294MOL0     O39613  -0.322   1.980   1.244 -0.6862 -0.5338  0.4259
  294MOL0     C39614  -0.439   1.891   1.245  0.3786 -0.4831  0.3625
  294MOL0     C39615  -0.566   1.981   1.256 -0.1189  0.8597 -0.1651
  294MOL0     C39616  -0.569   2.077   1.370  0.1568 -0.4144 -0.6668
  294MOL0     C39617  -0.693   2.166   1.373  0.0122 -0.1783  0.0091
  294MOL0     C39618  -0.666   2.305   1.331 -0.2479 -0.7851 -1.0679
  294MOL0     C39619  -0.623   2.425   1.306  0.1328  0.7976 -0.5588
  294MOL0     C39620  -0.156   2.098   1.123  0.3740 -0.1371  0.2145
  294MOL0     C39621  -0.072   2.118   1.009 -0.2316  0.6480  0.1324
  294MOL0     C39622   0.001   2.255   1.001  0.4966 -0.0092  0.3134
  294MOL0     H39623  -0.072   1.788   0.502  0.2349 -0.5590  1.8424
  294MOL0     H39624   0.088   1.751   0.308  1.1726 -1.5811  1.7460
  294MOL0     H39625   0.481   1.858   0.344  1.1897 -0.3351 -0.1138
  294MOL0     H39626   0.449   1.817   0.176  0.0508 -1.0387  1.4252
  294MOL0     H39627   0.599   2.043   0.232  0.4235 -4.0735  2.2066
  294MOL0     H39628   0.449   2.112   0.291  0.9688  2.9731 -1.5568
  294MOL0     H39629   0.328   2.101   0.098  0.3284  1.0364 -1.8535
  294MOL0     H39630   0.447   1.983   0.024  1.1922 -0.3933  0.1493
  294MOL0     H39631   0.551   2.259   0.101 -0.6928 -1.4188  1.2987
  294MOL0     H39632   0.587   2.162  -0.040 -1.5447 -2.7874 -0.8655
  294MOL0     H39633   0.475   2.291  -0.155  0.2964 -2.9155  1.1639
  294MOL0     H39634   0.333   2.211  -0.091 -0.0293  0.0006 -2.0820
  294MOL0     H39635   0.290   2.367   0.075 -0.5517 -4.1243 -2.9277
  294MOL0     H39636   0.438   2.459   0.049  0.1962 -1.0901  1.5396
  294MOL0     H39637   0.283   2.426  -0.189 -0.9668 -2.0745  1.7256
  294MOL0     H39638   0.374   2.568  -0.113  1.3943 -1.2115  1.9863
  294MOL0     H39639   0.086   2.482  -0.059  0.4584  1.6028 -3.0488
  294MOL0     H39640   0.178   2.596   0.040 -0.1206 -1.2117  0.7059
  294MOL0     H39641   0.038   2.561  -0.311 -0.0969 -0.9635  1.4130
  294MOL0     H39642   0.025   2.759  -0.510 -0.7013  2.5474 -0.7885
  294MOL0     H39643   0.119   2.915  -0.506  2.2760 -0.0825 -2.2535
  294MOL0     H39644   0.239   2.642  -0.550  0.7126 -0.6797  1.4294
  294MOL0     H39645   0.219   2.769  -0.677  1.9395 -0.2916  0.0386
  294MOL0     H39646   0.378   2.845  -0.448  1.2434 -2.0404 -0.0997
  294MOL0     H39647   0.378   2.902  -0.624  1.5848 -0.4957 -0.3307
  294MOL0     H39648   0.489   2.627  -0.529 -3.6421 -1.1179 -1.7244
  294MOL0     H39649   0.569   2.786  -0.558 -0.6505  1.0022 -1.8091
  294MOL0     H39650   0.406   2.650  -0.942 -3.8686  2.9984  2.5637
  294MOL0     H39651   0.440   2.785  -1.146  2.3343 -2.4981 -0.7960
  294MOL0     H39652   0.692   3.333  -1.132  3.2054 -0.1567  1.8679
  294MOL0     H39653   0.753   3.506  -1.304  3.4297  0.6008  2.3079
  294MOL0     H39654   1.019   3.339  -1.602  2.0656  1.1705  1.6571
  294MOL0     H39655   0.960   3.430  -1.722 -1.5626  0.0820 -0.0389
  294MOL0     H39656   1.098   3.538  -1.482 -2.3809  3.6884  0.5042
  294MOL0     H39657   1.154   3.564  -1.647 -0.3535  1.1118 -1.8832
  294MOL0     H39658   0.878   3.671  -1.606  0.1833 -0.7896 -1.0229
  294MOL0     H39659   0.996   3.740  -1.494 -1.3916 -0.7684  0.5452
  294MOL0     H39660   1.028   3.724  -1.802 -2.7429  0.5274  0.2853
  294MOL0     H39661   1.148   3.801  -1.693  0.5073 -0.4760  1.1437
  294MOL0     H39662   0.950   3.957  -1.621 -0.8992 -1.4345  0.4461
  294MOL0     H39663   0.852   3.891  -1.741 -0.7271 -0.1131  3.8282
  294MOL0     H39664   1.070   4.085  -1.751  2.3103 -0.9554 -0.0024
  294MOL0     H39665   1.105   3.968  -1.883  0.3793 -0.3738 -0.1826
  294MOL0     H39666   0.849   4.125  -1.847  1.2325  1.5329  0.5989
  294MOL0     H39667   0.872   4.004  -1.976  2.0500 -3.4705  2.3005
  294MOL0     H39668   1.066   4.138  -2.055  1.5129 -1.2994  2.1032
  294MOL0     H39669   0.913   4.233  -2.053 -1.1270 -0.7928  1.7083
  294MOL0     H39670   0.829   3.202  -1.589 -0.8286 -0.4159 -0.1364
  294MOL0     H39671   0.773   3.028  -1.423 -2.6055 -0.4096 -0.8504
  294MOL0     H39672   0.730   3.005  -0.915 -1.0453  0.5808  1.3490
  294MOL0     H39673   0.655   2.886  -0.715  0.4313 -2.8349  0.8638
  294MOL0     H39674   0.357   2.052   0.473  0.3689  0.3018  0.4931
  294MOL0     H39675   0.211   2.058   0.667 -0.7936 -0.9581  0.5778
  294MOL0     H39676  -0.156   1.839   0.845  1.9721  1.0148 -1.5279
  294MOL0     H39677  -0.287   1.796   1.026  1.0287 -0.6512 -2.5809
  294MOL0     H39678  -0.438   1.817   1.325  0.4917 -0.7670  0.1013
  294MOL0     H39679  -0.456   1.842   1.148 -0.4937 -0.0174  0.2662
  294MOL0     H39680  -0.662   1.930   1.268  0.2544  0.5711  2.0078
  294MOL0     H39681  -0.573   2.041   1.165 -2.9177  1.4751  0.3444
  294MOL0     H39682  -0.484   2.145   1.370  1.1103 -1.5709  0.1162
  294MOL0     H39683  -0.567   2.024   1.465  2.7069  1.1130  0.2227
  294MOL0     H39684  -0.772   2.131   1.305 -1.6374  2.9675  0.1382
  294MOL0     H39685  -0.729   2.174   1.476  0.8294  0.3446  0.2569
  294MOL0     H39686  -0.584   2.523   1.293  0.7152  0.3086 -2.8485
  294MOL0     H39687  -0.165   2.171   1.203 -0.9047 -0.6639  0.5806
  294MOL0     H39688  -0.045   2.322   0.928  1.5626  2.2406  1.6103
  294MOL0     H39689   0.001   2.302   1.100  1.3416  0.9941 -0.1388
  294MOL0     H39690   0.106   2.249   0.970  1.2772  2.2010  2.2095
  295MOL0     O39691   5.015   3.084   8.129 -0.0453 -0.6245  0.4678
  295MOL0     C39692   5.102   3.089   8.211  0.3427  0.2414  0.2912
  295MOL0     O39693   5.240   3.114   8.186  0.0147  0.5551 -0.0519
  295MOL0     C39694   5.281   3.117   8.053  0.6458  0.0879  0.1127
  295MOL0     C39695   5.214   3.200   7.957  0.3190 -0.5128  0.1008
  295MOL0     C39696   5.260   3.214   7.825  0.7836  1.6743  0.3553
  295MOL0     C39697   5.380   3.150   7.786 -0.5721  0.4533  0.0844
  295MOL0     O39698   5.440   3.161   7.666 -0.1698  0.1672  1.0286
  295MOL0     C39699   5.408   3.276   7.583  0.6456  0.1074  0.7217
  295MOL0     C39700   5.479   3.258   7.450  0.4873  0.7493 -0.8978
  295MOL0     C39701   5.492   3.111   7.415 -0.5475  0.4525 -0.4269
  295MOL0     C39702   5.553   3.122   7.279  0.7021  0.4512 -0.3223
  295MOL0     C39703   5.618   2.994   7.235 -0.0815  0.2742  0.2880
  295MOL0     C39704   5.680   3.003   7.090  0.3628 -0.5740  0.0491
  295MOL0     C39705   5.812   3.068   7.091 -0.3484  0.7022 -0.2681
  295MOL0     C39706   5.853   3.108   6.952  0.2736 -0.1774 -0.4118
  295MOL0     N39707   5.938   3.016   6.881  0.2095 -0.1854  0.1208
  295MOL0     C39708   6.029   3.062   6.796 -0.3554  0.7434  1.1344
  295MOL0     C39709   6.070   2.937   6.736 -0.4221 -0.9094 -0.5656
  295MOL0     C39710   6.182   2.909   6.630 -0.1431 -0.5666 -0.3647
  295MOL0     C39711   6.125   2.875   6.490 -0.5069  0.7846  0.4912
  295MOL0     C39712   6.082   3.002   6.436  0.4511 -0.4954  0.7314
  295MOL0     C39713   6.088   2.980   6.280  0.3577  0.2826 -0.5969
  295MOL0     O39714   6.107   3.114   6.224 -0.1947  0.6335  0.2331
  295MOL0     C39715   6.160   3.122   6.098 -1.0392 -0.0186 -0.5639
  295MOL0     C39716   6.157   3.025   6.004 -0.6156 -0.4181 -0.0081
  295MOL0     C39717   6.226   3.048   5.872  0.0881 -0.6552  0.0291
  295MOL0     C39718   6.298   3.171   5.847  0.1912 -0.6600  0.2320
  295MOL0     C39719   6.351   3.209   5.711  0.3665  0.4418 -0.1438
  295MOL0     O39720   6.426   3.326   5.710  0.2029  0.2124  0.3437
  295MOL0     C39721   6.491   3.373   5.601  1.0480 -1.2633 -1.1959
  295MOL0     C39722   6.576   3.476   5.626  0.2875  0.0828 -0.8822
  295MOL0     C39723   6.623   3.566   5.524  0.8167 -0.3969  0.5127
  295MOL0     C39724   6.600   3.535   5.395 -0.0103  0.3586  0.9654
  295MOL0     O39725   6.621   3.623   5.287 -0.6993 -0.0300  0.0622
  295MOL0     C39726   6.698   3.746   5.309 -0.2799 -1.0363  0.3383
  295MOL0     C39727   6.670   3.831   5.186 -0.0145  0.2546 -1.4113
  295MOL0     C39728   6.727   3.767   5.059 -0.3547  1.1307 -0.1916
  295MOL0     C39729   6.741   3.857   4.940  0.5252  0.7318 -0.0436
  295MOL0     C39730   6.777   3.772   4.822 -0.1201  0.0121 -0.8266
  295MOL0     C39731   6.825   3.839   4.698 -0.5992  0.3055 -1.0623
  295MOL0     C39732   6.912   3.756   4.607 -0.0870  0.0104  0.6913
  295MOL0     C39733   6.850   3.624   4.586  0.0059  0.1134  0.6657
  295MOL0    Cl39734   6.687   3.661   4.538  0.0079  0.2558  0.0726
  295MOL0     C39735   6.515   3.423   5.366  0.5131  0.4831  0.0159
  295MOL0     C39736   6.451   3.352   5.468 -0.3998  0.4576 -0.5389
  295MOL0     O39737   6.329   3.135   5.616  0.1292  0.4741  1.1818
  295MOL0     C39738   6.299   3.260   5.954 -0.2076  0.3419 -0.0452
  295MOL0     C39739   6.225   3.243   6.073 -0.1146  0.2148 -0.4854
  295MOL0     N39740   6.001   2.828   6.792  0.8241  0.0925 -0.1645
  295MOL0     N39741   5.921   2.880   6.881 -0.4177  0.3090  0.2042
  295MOL0     C39742   5.438   3.066   7.882 -0.8650 -1.0780  0.7107
  295MOL0     C39743   5.392   3.048   8.011  0.5724  0.2055  0.0915
  295MOL0     C39744   5.058   3.121   8.351  0.8820 -0.1581 -0.3192
  295MOL0     C39745   5.131   3.209   8.428 -0.6868  0.1712 -0.1905
  295MOL0     C39746   5.096   3.248   8.559 -0.1503  0.5924  0.6931
  295MOL0     C39747   4.979   3.193   8.618  0.1158 -0.0016  0.5592
  295MOL0     O39748   4.932   3.224   8.747 -0.7939  0.5503  0.0669
  295MOL0     C39749   5.012   3.163   8.859 -0.0657 -0.2591 -1.0442
  295MOL0     C39750   5.003   3.237   8.993 -0.3833  0.1516  0.7442
  295MOL0     C39751   5.046   3.157   9.114  0.1254 -0.2163 -0.2864
  295MOL0     C39752   5.187   3.143   9.146 -0.6218  1.6051 -0.4056
  295MOL0     C39753   5.217   3.053   9.252  0.6293  0.0021 -0.2818
  295MOL0     C39754   5.229   2.979   9.347 -0.1704  0.7358 -0.0426
  295MOL0     C39755   4.903   3.108   8.539  0.6318  0.2183 -0.1523
  295MOL0     C39756   4.936   3.070   8.408  0.2724  0.0993 -1.4124
  295MOL0     C39757   4.850   2.960   8.343  1.6098 -1.1492 -0.3237
  295MOL0     H39758   5.129   3.262   7.982  0.3928 -1.8295  4.4973
  295MOL0     H39759   5.213   3.286   7.759  0.0246  0.1081 -0.8796
  295MOL0     H39760   5.301   3.285   7.566  1.1758  1.9049 -2.6114
  295MOL0     H39761   5.429   3.368   7.638 -0.2387  3.5884 -4.0444
  295MOL0     H39762   5.578   3.303   7.461  0.6661 -0.1024  1.7399
  295MOL0     H39763   5.408   3.311   7.385 -1.3807 -0.6159 -0.0687
  295MOL0     H39764   5.399   3.054   7.409 -0.3206  0.1214 -0.9618
  295MOL0     H39765   5.573   3.067   7.475  1.6211  3.6559 -0.7666
  295MOL0     H39766   5.466   3.142   7.216  0.7987  0.7807 -0.3488
  295MOL0     H39767   5.632   3.196   7.265  3.8359 -2.9299 -2.4583
  295MOL0     H39768   5.685   2.965   7.316 -3.4437  2.1956  4.1190
  295MOL0     H39769   5.541   2.917   7.221  0.3177  0.2596 -2.3828
  295MOL0     H39770   5.698   2.910   7.036 -0.5881 -1.0254  0.4851
  295MOL0     H39771   5.612   3.053   7.020  1.1340 -2.9460 -2.5584
  295MOL0     H39772   5.884   2.999   7.137 -0.6464  1.6921  1.8174
  295MOL0     H39773   5.813   3.157   7.154  0.7124  2.0204 -2.0756
  295MOL0     H39774   5.773   3.132   6.880  0.1121 -5.6072 -2.5192
  295MOL0     H39775   5.917   3.195   6.966 -1.4954  0.9895  0.7586
  295MOL0     H39776   6.061   3.164   6.777  0.8230  0.3302  0.8035
  295MOL0     H39777   6.259   2.986   6.623  0.5321 -1.2176 -0.1590
  295MOL0     H39778   6.243   2.823   6.660 -0.0850  0.4037  2.5960
  295MOL0     H39779   6.211   2.825   6.444 -0.2083  0.9263  0.8956
  295MOL0     H39780   6.043   2.802   6.484 -0.0283  0.2224  0.6658
  295MOL0     H39781   6.141   3.090   6.467 -3.0943  2.3010  0.1853
  295MOL0     H39782   5.978   3.018   6.466  0.1293 -2.2582  0.6517
  295MOL0     H39783   5.992   2.937   6.249 -0.4841  1.6345  0.0416
  295MOL0     H39784   6.164   2.911   6.243 -0.2168 -1.0608  0.5965
  295MOL0     H39785   6.086   2.947   6.031 -2.2090  1.9446  3.1854
  295MOL0     H39786   6.191   2.978   5.796  2.5119 -1.6478 -0.2867
  295MOL0     H39787   6.595   3.488   5.732 -0.1414 -2.8209 -0.4015
  295MOL0     H39788   6.661   3.663   5.555 -0.4991 -0.2172  1.6564
  295MOL0     H39789   6.663   3.803   5.395  0.6758 -0.2779  0.2380
  295MOL0     H39790   6.806   3.733   5.321 -0.4211 -2.1304  0.5075
  295MOL0     H39791   6.562   3.848   5.176 -0.1473 -0.0764 -0.6479
  295MOL0     H39792   6.724   3.925   5.186  3.5300 -1.5719 -3.3107
  295MOL0     H39793   6.832   3.738   5.070 -1.5830 -3.8344  1.3259
  295MOL0     H39794   6.671   3.675   5.039 -1.6458  1.6972  0.6453
  295MOL0     H39795   6.817   3.934   4.960  1.8313 -0.4700 -0.2004
  295MOL0     H39796   6.645   3.907   4.921 -0.6320 -0.1014  3.0722
  295MOL0     H39797   6.695   3.710   4.786 -0.9578  0.8040 -0.3017
  295MOL0     H39798   6.860   3.713   4.863 -2.1871 -0.8616  2.4645
  295MOL0     H39799   6.740   3.888   4.651 -1.5772 -0.4591 -0.1219
  295MOL0     H39800   6.894   3.918   4.729  2.3427 -2.6162  0.5206
  295MOL0     H39801   7.014   3.750   4.648  0.7592 -1.8517 -1.4616
  295MOL0     H39802   6.909   3.808   4.510 -1.7461  1.9699  1.7227
  295MOL0     H39803   6.915   3.573   4.514 -1.2720  0.7465 -1.0205
  295MOL0     H39804   6.844   3.556   4.671  0.1663 -2.9694 -1.6206
  295MOL0     H39805   6.501   3.397   5.261  1.8520 -1.0333  0.1740
  295MOL0     H39806   6.383   3.275   5.435 -0.1142  0.3581 -0.8986
  295MOL0     H39807   6.354   3.353   5.956  1.0021 -0.3499 -0.0126
  295MOL0     H39808   6.238   3.315   6.154 -0.8742  2.0546 -1.9245
  295MOL0     H39809   5.538   3.023   7.870 -0.7588 -0.5554 -0.3083
  295MOL0     H39810   5.452   2.994   8.084  0.5911  2.0683  1.5404
  295MOL0     H39811   5.222   3.250   8.384 -0.9205  3.1306  1.7731
  295MOL0     H39812   5.169   3.297   8.624  0.1398  1.2354 -0.1075
  295MOL0     H39813   5.115   3.173   8.824 -0.0296 -1.7405 -1.4200
  295MOL0     H39814   4.976   3.061   8.872 -2.7707  0.8094  0.5831
  295MOL0     H39815   4.898   3.260   9.013  0.2681  1.5598  2.8781
  295MOL0     H39816   5.064   3.328   8.990  4.6048 -2.8363  0.0452
  295MOL0     H39817   4.999   3.059   9.100 -1.9911  0.9498 -1.9823
  295MOL0     H39818   4.991   3.194   9.200  2.1247  0.8170  0.6012
  295MOL0     H39819   5.236   3.112   9.053  0.4501 -1.1011  0.9524
  295MOL0     H39820   5.227   3.239   9.182  2.4429 -0.7134  3.1407
  295MOL0     H39821   5.245   2.910   9.427  0.1795 -1.3456 -1.7975
  295MOL0     H39822   4.826   3.051   8.590  1.9577 -0.4816  1.1473
  295MOL0     H39823   4.808   2.892   8.418  2.2339 -1.5990 -0.3774
  295MOL0     H39824   4.773   3.014   8.288 -0.2048  0.2278  3.2616
  295MOL0     H39825   4.901   2.896   8.270  0.6980 -1.0581 -1.0646
  296MOL0     O39826  10.284   4.938   9.586  0.6370  0.1504 -0.3368
  296MOL0     C39827  10.389   4.946   9.634 -0.1106  0.2300 -0.8482
  296MOL0     O39828  10.495   4.859   9.613 -0.1246  0.4928  0.1576
  296MOL0     C39829  10.494   4.771   9.509  0.0927  0.4715  0.3425
  296MOL0     C39830  10.376   4.703   9.464  0.3892  0.3220 -0.0552
  296MOL0     C39831  10.377   4.615   9.356  0.8278 -0.5103 -1.6074
  296MOL0     C39832  10.500   4.592   9.287  0.0500 -0.3170  0.1817
  296MOL0     O39833  10.486   4.526   9.174  0.0702  0.5264  0.4103
  296MOL0     C39834  10.603   4.529   9.088 -0.1254  0.2500  0.5389
  296MOL0     C39835  10.577   4.441   8.970 -0.7216 -0.4734  0.5120
  296MOL0     C39836  10.698   4.403   8.894 -1.4785 -0.7612  0.5852
  296MOL0     C39837  10.645   4.319   8.775 -0.4814  0.1254  0.2788
  296MOL0     C39838  10.753   4.273   8.680 -0.5806  0.6714 -0.8201
  296MOL0     C39839  10.706   4.172   8.580  0.1509  0.1915 -1.3294
  296MOL0     C39840  10.615   4.247   8.474  0.0233  0.6050  0.0326
  296MOL0     C39841  10.697   4.347   8.386  0.7820  1.2100  0.5099
  296MOL0     N39842  10.616   4.439   8.303 -0.1535 -0.8311 -0.3716
  296MOL0     C39843  10.560   4.407   8.182 -0.3723 -0.2012 -0.7700
  296MOL0     C39844  10.495   4.519   8.144  0.5064 -0.1237 -0.2801
  296MOL0     C39845  10.457   4.556   7.995 -0.1973 -0.2797 -0.3591
  296MOL0     C39846  10.500   4.448   7.893  0.2010  1.1863 -0.3858
  296MOL0     C39847  10.454   4.481   7.750  0.3696 -0.1544  0.2534
  296MOL0     C39848  10.306   4.522   7.731  0.4991 -0.5208 -0.9475
  296MOL0     O39849  10.223   4.411   7.768  0.2248 -0.9606 -0.3760
  296MOL0     C39850  10.189   4.322   7.669 -0.4174  0.9091 -0.7861
  296MOL0     C39851  10.195   4.185   7.713  0.4273  0.6700  1.1368
  296MOL0     C39852  10.157   4.086   7.621 -0.2943  0.3497 -0.8783
  296MOL0     C39853  10.114   4.115   7.490  0.1530 -0.1606  0.8344
  296MOL0     C39854  10.059   4.023   7.391 -0.3406  0.4483 -0.4263
  296MOL0     O39855  10.049   4.047   7.262  1.2281 -0.6342 -0.1883
  296MOL0     C39856   9.995   3.946   7.188 -0.1415  0.0525 -0.0229
  296MOL0     C39857  10.074   3.895   7.080  0.4421 -0.1244  0.3798
  296MOL0     C39858  10.022   3.802   6.989  0.0839  0.4995  0.5064
  296MOL0     C39859   9.899   3.752   7.009  0.6010 -0.4893 -0.3915
  296MOL0     O39860   9.862   3.660   6.913 -0.0176  0.2284  0.0517
  296MOL0     C39861   9.720   3.640   6.890 -0.3664 -0.7997 -0.6395
  296MOL0     C39862   9.687   3.609   6.741  0.1667  0.0360 -0.0938
  296MOL0     C39863   9.768   3.681   6.631 -0.3309 -0.0646  0.6104
  296MOL0     C39864   9.873   3.592   6.566  0.0999  0.3391 -0.4719
  296MOL0     C39865  10.007   3.651   6.534 -0.2439 -0.5523 -0.2905
  296MOL0     C39866  10.102   3.556   6.470  0.2492 -0.1085  0.1050
  296MOL0     C39867  10.050   3.512   6.328 -0.2684 -0.1806 -0.3381
  296MOL0     C39868  10.111   3.380   6.292 -0.2371 -0.1756  0.1180
  296MOL0    Cl39869  10.045   3.310   6.142 -0.1793 -0.2113  0.2994
  296MOL0     C39870   9.819   3.791   7.114 -0.4915  0.0824 -0.3116
  296MOL0     C39871   9.864   3.893   7.201 -0.4284  0.7370  0.0843
  296MOL0     O39872  10.034   3.912   7.445  0.6303 -0.0302  0.1172
  296MOL0     C39873  10.091   4.252   7.457 -0.6551 -0.8828  0.4244
  296MOL0     C39874  10.140   4.351   7.544 -0.3478  0.3819  0.2607
  296MOL0     N39875  10.515   4.623   8.231 -0.1030  0.3556  0.0123
  296MOL0     N39876  10.582   4.573   8.331  0.2112  0.6776  0.6314
  296MOL0     C39877  10.617   4.651   9.337 -0.7350  1.1502  0.7478
  296MOL0     C39878  10.615   4.732   9.453  0.3630  0.4949  0.1416
  296MOL0     C39879  10.424   5.067   9.720 -0.1597  0.3309 -0.9924
  296MOL0     C39880  10.551   5.066   9.783 -0.7832  0.1381  0.3295
  296MOL0     C39881  10.603   5.184   9.855 -0.7186  0.1493  0.0982
  296MOL0     C39882  10.513   5.298   9.859 -0.2052 -0.4996 -0.3668
  296MOL0     O39883  10.532   5.413   9.932 -0.0072  0.1522 -0.3636
  296MOL0     C39884  10.658   5.434  10.009 -0.4284  0.9602 -0.6009
  296MOL0     C39885  10.778   5.463   9.918 -0.1219 -0.6147  0.1229
  296MOL0     C39886  10.895   5.512  10.011  0.3951  1.2205 -0.5469
  296MOL0     C39887  11.011   5.546   9.917 -0.2817  0.5187 -0.3914
  296MOL0     C39888  11.000   5.690   9.885 -0.8739 -0.8931  0.0406
  296MOL0     C39889  10.978   5.806   9.877  0.5258  0.2328  0.1927
  296MOL0     C39890  10.391   5.297   9.800  0.9437  1.6276  0.1840
  296MOL0     C39891  10.334   5.183   9.730 -0.6583  0.0959  0.3374
  296MOL0     C39892  10.207   5.196   9.651  1.2734 -0.5940 -0.5703
  296MOL0     H39893  10.290   4.712   9.530  1.2237 -0.6781  1.2091
  296MOL0     H39894  10.285   4.573   9.318 -0.6084  0.6278  0.4604
  296MOL0     H39895  10.626   4.633   9.061 -5.4085  0.6902 -4.1658
  296MOL0     H39896  10.696   4.502   9.138 -1.0049  1.2909  2.9211
  296MOL0     H39897  10.506   4.489   8.902  0.9180 -0.7475 -1.5001
  296MOL0     H39898  10.524   4.351   9.003 -1.8106  0.8295  2.5296
  296MOL0     H39899  10.773   4.355   8.958 -0.6499 -1.2056 -0.6723
  296MOL0     H39900  10.747   4.492   8.853  0.2607 -1.1825  1.6405
  296MOL0     H39901  10.593   4.230   8.812  0.5278 -0.7420 -0.3338
  296MOL0     H39902  10.580   4.392   8.726  0.7139  1.4312  0.5663
  296MOL0     H39903  10.799   4.361   8.634  1.3310 -1.8493 -4.1005
  296MOL0     H39904  10.828   4.211   8.730 -0.4703 -1.5374 -3.4728
  296MOL0     H39905  10.793   4.127   8.532  0.4414  1.3094 -1.8921
  296MOL0     H39906  10.649   4.097   8.635 -0.6279 -0.6824 -3.2509
  296MOL0     H39907  10.532   4.296   8.526 -0.7722  0.0595 -0.7052
  296MOL0     H39908  10.569   4.180   8.401  0.4949  2.1418 -1.7391
  296MOL0     H39909  10.765   4.404   8.450  0.8027  0.7100  0.9398
  296MOL0     H39910  10.772   4.301   8.321  2.2282 -0.3337  3.0567
  296MOL0     H39911  10.577   4.318   8.122  2.8309 -0.1799 -0.0981
  296MOL0     H39912  10.349   4.570   7.994  0.0973  2.7879 -0.0783
  296MOL0     H39913  10.509   4.646   7.960  1.5296 -1.6536 -1.5471
  296MOL0     H39914  10.608   4.432   7.897 -0.3071 -3.3923  1.7654
  296MOL0     H39915  10.455   4.353   7.926  0.9061  1.1147  0.3903
  296MOL0     H39916  10.462   4.385   7.697  0.5802 -0.1447  0.2663
  296MOL0     H39917  10.524   4.548   7.699 -0.4515  0.6555  0.1760
  296MOL0     H39918  10.286   4.546   7.626 -2.5376 -0.5188 -0.4349
  296MOL0     H39919  10.281   4.601   7.803 -0.9728 -1.9539  0.1741
  296MOL0     H39920  10.237   4.152   7.808 -0.4141 -2.3728  0.5472
  296MOL0     H39921  10.162   3.979   7.637  3.3109  0.4862 -0.1314
  296MOL0     H39922  10.173   3.935   7.061  0.6251 -1.4234 -1.7377
  296MOL0     H39923  10.076   3.767   6.901  2.7537 -0.1859  2.2908
  296MOL0     H39924   9.670   3.574   6.961  0.0519  1.0218  1.4345
  296MOL0     H39925   9.655   3.725   6.915 -2.1917 -1.5063 -2.6492
  296MOL0     H39926   9.696   3.500   6.737  0.7556 -0.0293  2.0042
  296MOL0     H39927   9.583   3.634   6.719  0.1213 -0.4146 -0.3963
  296MOL0     H39928   9.699   3.714   6.553  2.4841  1.1507 -1.5384
  296MOL0     H39929   9.816   3.771   6.671 -2.9663  2.8634 -2.2204
  296MOL0     H39930   9.822   3.547   6.480  0.8695  0.4874 -1.0187
  296MOL0     H39931   9.892   3.512   6.638 -4.8646 -0.2921  0.4743
  296MOL0     H39932  10.041   3.701   6.625 -2.3634  0.4391  0.0211
  296MOL0     H39933  10.002   3.732   6.460  1.3822 -0.3343 -0.2090
  296MOL0     H39934  10.204   3.593   6.477 -0.3413  1.3560  2.2527
  296MOL0     H39935  10.104   3.475   6.543 -2.9411  1.7238  2.5708
  296MOL0     H39936  10.076   3.581   6.248 -0.0854  1.5186  1.1294
  296MOL0     H39937   9.941   3.502   6.334 -0.5408  2.4714  0.3429
  296MOL0     H39938  10.216   3.407   6.283 -1.1232  3.5317 -1.0258
  296MOL0     H39939  10.090   3.313   6.376 -0.0233  0.1311  0.4181
  296MOL0     H39940   9.714   3.765   7.121 -0.4968  0.1853 -0.0085
  296MOL0     H39941   9.791   3.947   7.260 -1.1611  1.1614 -1.1818
  296MOL0     H39942  10.045   4.277   7.362  0.9919 -2.2326 -0.7831
  296MOL0     H39943  10.139   4.457   7.521  5.2113  0.9827  1.5585
  296MOL0     H39944  10.714   4.637   9.291 -1.0222 -2.4695  1.0285
  296MOL0     H39945  10.698   4.783   9.502 -0.2919  0.5928  1.1892
  296MOL0     H39946  10.619   4.982   9.788 -0.8201 -0.0106 -1.1587
  296MOL0     H39947  10.690   5.172   9.918 -0.5114  1.8354  0.2024
  296MOL0     H39948  10.667   5.348  10.076 -1.6463  0.8678 -0.5350
  296MOL0     H39949  10.650   5.522  10.074  3.8105  0.2050  1.2480
  296MOL0     H39950  10.749   5.546   9.852  3.0672  1.0066  0.5448
  296MOL0     H39951  10.809   5.374   9.863  1.3828  0.0497 -0.1726
  296MOL0     H39952  10.918   5.437  10.087  0.2600  2.6325  0.9359
  296MOL0     H39953  10.879   5.597  10.078 -0.2163  0.7021 -0.0277
  296MOL0     H39954  11.098   5.517   9.976 -0.2465  3.4155  1.1570
  296MOL0     H39955  11.022   5.489   9.824  4.0000  0.7779 -0.2440
  296MOL0     H39956  10.944   5.907   9.881 -1.3184 -0.1938 -2.1043
  296MOL0     H39957  10.327   5.384   9.810  0.0096  0.9224  0.4602
  296MOL0     H39958  10.233   5.179   9.546 -4.0732 -4.8588 -1.6202
  296MOL0     H39959  10.139   5.118   9.683 -0.6072  0.6463 -1.3689
  296MOL0     H39960  10.168   5.294   9.679  1.5030 -0.2935 -1.2793
  297MOL0     O39961   8.902   4.043   2.006  0.3057 -0.5188 -0.0249
  297MOL0     C39962   8.968   3.944   1.986 -0.0071 -0.2910 -1.0224
  297MOL0     O39963   8.923   3.827   1.943  0.1571 -0.5293 -0.6472
  297MOL0     C39964   8.791   3.792   1.921 -0.5404 -0.1137  0.3973
  297MOL0     C39965   8.767   3.661   1.867 -0.5197  0.0787 -0.9048
  297MOL0     C39966   8.635   3.617   1.844 -0.2013 -0.6923 -0.8568
  297MOL0     C39967   8.522   3.701   1.888 -0.2949 -0.2330  0.6075
  297MOL0     O39968   8.400   3.642   1.882 -0.3508  0.1536 -0.4688
  297MOL0     C39969   8.276   3.708   1.917 -0.3384 -0.5215 -0.0265
  297MOL0     C39970   8.158   3.622   1.891 -0.2600 -0.7507 -0.7203
  297MOL0     C39971   8.033   3.715   1.866  0.2415 -0.1056 -0.1348
  297MOL0     C39972   7.908   3.625   1.854 -0.2516 -0.4063  0.0340
  297MOL0     C39973   7.837   3.600   1.982 -0.1238 -0.2555 -0.0378
  297MOL0     C39974   7.910   3.506   2.070 -0.3103 -0.3949 -0.0346
  297MOL0     C39975   7.819   3.465   2.187 -0.6871  0.0490 -0.7157
  297MOL0     C39976   7.700   3.377   2.128 -0.8084 -0.0376 -0.2608
  297MOL0     N39977   7.662   3.291   2.236  0.0925  0.4381 -0.1488
  297MOL0     C39978   7.586   3.306   2.343  0.0512 -0.0186 -0.7521
  297MOL0     C39979   7.585   3.195   2.418  0.4109 -0.2107 -0.0231
  297MOL0     C39980   7.496   3.170   2.531  0.7321  0.8622 -0.2626
  297MOL0     C39981   7.474   3.278   2.631  0.3524  0.0200  0.4752
  297MOL0     C39982   7.350   3.246   2.715  0.0654  0.0066  0.5957
  297MOL0     C39983   7.313   3.351   2.832 -1.1844 -0.3689  0.2619
  297MOL0     O39984   7.427   3.370   2.923  0.9075 -0.0342 -0.1985
  297MOL0     C39985   7.528   3.453   2.897  0.1647  0.2314  0.4745
  297MOL0     C39986   7.660   3.409   2.905 -0.4455 -0.6745  0.6805
  297MOL0     C39987   7.770   3.491   2.896  0.5365  0.8501  0.6119
  297MOL0     C39988   7.737   3.625   2.870 -0.2382 -0.5477  0.1994
  297MOL0     C39989   7.851   3.725   2.867 -0.2380 -0.3758 -0.8339
  297MOL0     O39990   7.849   3.821   2.767  0.3707  0.1932 -0.2716
  297MOL0     C39991   7.958   3.899   2.753 -0.0154 -0.0083  0.0943
  297MOL0     C39992   7.961   4.036   2.775 -0.3119  0.5920 -0.5919
  297MOL0     C39993   8.081   4.111   2.745  0.7790 -0.7002 -0.4990
  297MOL0     C39994   8.201   4.056   2.700  0.1932  0.3344 -0.4933
  297MOL0     O39995   8.316   4.133   2.675  0.0144  0.2437 -0.3027
  297MOL0     C39996   8.313   4.268   2.720 -0.4635  0.2706 -0.1543
  297MOL0     C39997   8.303   4.357   2.600  0.5609 -0.3885 -0.4767
  297MOL0     C39998   8.422   4.467   2.587  0.3445 -0.0958 -0.1551
  297MOL0     C39999   8.414   4.587   2.678  0.3902 -0.0501  0.0767
  297MOL0     C40000   8.543   4.673   2.665  0.7924  0.2271 -0.5034
  297MOL0     C40001   8.654   4.630   2.770  0.7000  0.6012  0.2968
  297MOL0     C40002   8.784   4.710   2.769  0.0072  0.8826  0.8562
  297MOL0     C40003   8.876   4.679   2.647 -0.0148  0.7470  0.0479
  297MOL0    Cl40004   8.931   4.504   2.665  0.3423  0.5493 -0.0063
  297MOL0     C40005   8.194   3.918   2.683  0.0200  0.7692 -0.4958
  297MOL0     C40006   8.078   3.842   2.710 -0.0979 -0.3610  0.3446
  297MOL0     O40007   7.948   3.702   2.936  0.1893 -0.3219 -0.1252
  297MOL0     C40008   7.599   3.673   2.852 -0.0435 -0.3615 -0.7302
  297MOL0     C40009   7.492   3.585   2.863 -0.1032 -0.7489  0.0786
  297MOL0     N40010   7.674   3.111   2.353  0.3444  0.2144 -0.2415
  297MOL0     N40011   7.720   3.166   2.251  0.1691 -0.2944  0.1811
  297MOL0     C40012   8.551   3.826   1.926  0.2068  0.4348  0.4842
  297MOL0     C40013   8.674   3.872   1.947 -0.4624  0.8972  0.3983
  297MOL0     C40014   9.098   3.930   2.047 -0.7882 -0.7313  0.4620
  297MOL0     C40015   9.167   3.807   2.023 -0.3161  0.3764  0.4408
  297MOL0     C40016   9.297   3.782   2.064 -0.2988  0.2176 -0.4094
  297MOL0     C40017   9.366   3.872   2.139 -0.0914 -0.1646  0.7093
  297MOL0     O40018   9.496   3.827   2.173 -0.5461  0.9624  0.1607
  297MOL0     C40019   9.584   3.924   2.232 -0.4237 -0.0975  0.1787
  297MOL0     C40020   9.559   3.915   2.382  0.7811 -0.1891 -0.3164
  297MOL0     C40021   9.662   3.986   2.467 -0.0457 -0.0909  0.1447
  297MOL0     C40022   9.614   4.021   2.613  0.2620  0.0562  0.5950
  297MOL0     C40023   9.732   4.077   2.682  0.8748  0.5782 -0.7055
  297MOL0     C40024   9.815   4.111   2.759 -0.0102 -0.0527  0.1741
  297MOL0     C40025   9.293   3.985   2.184  0.0951  0.3078 -0.3890
  297MOL0     C40026   9.172   4.031   2.122 -0.4659 -0.6213  0.5934
  297MOL0     C40027   9.116   4.164   2.165 -1.3997  1.0600  1.0936
  297MOL0     H40028   8.850   3.602   1.832 -0.6295 -0.7931  0.2603
  297MOL0     H40029   8.613   3.526   1.789  3.1657 -1.5974 -0.9126
  297MOL0     H40030   8.284   3.739   2.022  0.4538 -2.2537  0.4786
  297MOL0     H40031   8.282   3.794   1.851 -0.8302 -1.1763 -0.9459
  297MOL0     H40032   8.138   3.539   1.959  1.7304 -0.9350 -0.2933
  297MOL0     H40033   8.193   3.576   1.798  3.1549 -0.5771  0.3410
  297MOL0     H40034   8.041   3.772   1.774  0.7976  1.3434  0.7683
  297MOL0     H40035   8.018   3.795   1.940 -0.7361  1.4550 -1.9518
  297MOL0     H40036   7.844   3.685   1.788  0.1218 -0.3003 -0.2329
  297MOL0     H40037   7.930   3.526   1.815  0.9269 -1.4852  3.1067
  297MOL0     H40038   7.828   3.689   2.044  0.1933  0.7282 -1.3644
  297MOL0     H40039   7.737   3.567   1.954 -0.1029 -0.1645 -0.2163
  297MOL0     H40040   7.949   3.414   2.026 -0.6286 -0.4914 -0.1216
  297MOL0     H40041   8.002   3.549   2.111 -1.0166  0.0124  1.1963
  297MOL0     H40042   7.788   3.557   2.238 -0.5883 -0.9568  1.2403
  297MOL0     H40043   7.888   3.410   2.252  0.6939  0.6455 -1.6485
  297MOL0     H40044   7.619   3.438   2.086 -0.1810  0.7617 -0.3277
  297MOL0     H40045   7.737   3.309   2.051 -1.6017 -0.8872  0.0890
  297MOL0     H40046   7.522   3.392   2.359  1.1529  0.2592  3.3285
  297MOL0     H40047   7.398   3.138   2.495  0.4722  0.1800  0.9546
  297MOL0     H40048   7.534   3.078   2.577  1.9456  0.7121 -1.4997
  297MOL0     H40049   7.557   3.287   2.701 -0.6245 -1.4942  1.9191
  297MOL0     H40050   7.463   3.381   2.594 -0.0877  0.3498  1.5038
  297MOL0     H40051   7.370   3.148   2.759  0.2541  0.1452  0.8165
  297MOL0     H40052   7.270   3.235   2.642  0.6522 -1.3859  0.1056
  297MOL0     H40053   7.230   3.329   2.899  0.8109  3.0217  4.2589
  297MOL0     H40054   7.279   3.445   2.787  2.3603  0.0960 -1.8822
  297MOL0     H40055   7.669   3.310   2.949 -1.4804 -0.4989  1.3198
  297MOL0     H40056   7.868   3.446   2.905  0.0921 -0.0670  1.0102
  297MOL0     H40057   7.872   4.082   2.818  0.8662  0.0928  2.6298
  297MOL0     H40058   8.068   4.218   2.763  3.3802 -0.8501  3.3646
  297MOL0     H40059   8.251   4.295   2.805 -0.0129 -0.9976  0.5999
  297MOL0     H40060   8.419   4.271   2.749  0.6771 -0.6017 -3.6442
  297MOL0     H40061   8.287   4.302   2.507  1.1799  0.0915 -0.8735
  297MOL0     H40062   8.211   4.416   2.602  0.2785 -0.6896 -2.5253
  297MOL0     H40063   8.510   4.411   2.618 -1.7580 -2.1483  2.5824
  297MOL0     H40064   8.431   4.495   2.481 -0.6539 -1.5529 -0.6550
  297MOL0     H40065   8.406   4.550   2.780  0.2067 -0.1795  0.0142
  297MOL0     H40066   8.323   4.644   2.658 -0.3459 -1.4665 -0.7643
  297MOL0     H40067   8.518   4.780   2.666 -1.0357 -0.1713 -0.6405
  297MOL0     H40068   8.577   4.661   2.562 -0.5022 -0.2910 -0.8886
  297MOL0     H40069   8.618   4.644   2.873  2.7636 -0.9517  1.3088
  297MOL0     H40070   8.665   4.522   2.753  1.4232  0.7085  0.0840
  297MOL0     H40071   8.847   4.693   2.857  1.4795  2.4457  0.1588
  297MOL0     H40072   8.760   4.816   2.773  0.0181  0.8500  2.2675
  297MOL0     H40073   8.821   4.668   2.553  0.9550 -2.2862 -0.2679
  297MOL0     H40074   8.962   4.745   2.635  0.4652 -0.1364 -1.6155
  297MOL0     H40075   8.285   3.875   2.643  1.5206  0.8073  2.5625
  297MOL0     H40076   8.093   3.734   2.710  2.0125 -0.1361 -1.5590
  297MOL0     H40077   7.587   3.780   2.838 -2.5161 -0.1339  2.1488
  297MOL0     H40078   7.391   3.622   2.850  0.1523 -0.6718 -1.8944
  297MOL0     H40079   8.469   3.887   1.962  0.7116  0.3859  1.7719
  297MOL0     H40080   8.682   3.975   1.980  0.8760  1.2131 -0.7806
  297MOL0     H40081   9.116   3.720   1.981 -0.1537  0.0336  0.9459
  297MOL0     H40082   9.343   3.686   2.042  0.2215  0.4728 -0.4466
  297MOL0     H40083   9.567   4.018   2.179 -0.4425 -1.2176 -1.9055
  297MOL0     H40084   9.687   3.890   2.218  0.3432  0.9853  2.6753
  297MOL0     H40085   9.544   3.809   2.404  1.1449 -0.1864 -0.0451
  297MOL0     H40086   9.459   3.960   2.388 -0.5225 -2.6175 -1.9001
  297MOL0     H40087   9.683   4.079   2.412  0.1813 -0.1756  0.0889
  297MOL0     H40088   9.756   3.932   2.456 -0.4795 -0.3046 -3.8886
  297MOL0     H40089   9.530   4.091   2.605  2.4049  2.8389  1.0456
  297MOL0     H40090   9.587   3.933   2.672  0.3866 -0.0977  0.4244
  297MOL0     H40091   9.883   4.129   2.839 -1.4002 -1.4850  1.7571
  297MOL0     H40092   9.352   4.061   2.234 -0.2014 -0.9381  1.9731
  297MOL0     H40093   9.190   4.226   2.216  1.6225 -1.8178  0.5480
  297MOL0     H40094   9.095   4.228   2.079  1.5584  0.6844 -0.0011
  297MOL0     H40095   9.025   4.142   2.222 -0.2458 -0.7995  2.3503
  298MOL0     O40096  11.486   2.841   9.870 -0.1277  0.2024 -0.0432
  298MOL0     C40097  11.505   2.959   9.902 -0.9921  0.1396 -0.0710
  298MOL0     O40098  11.496   3.007  10.024  0.0075  0.3158 -0.6261
  298MOL0     C40099  11.490   2.918  10.132 -0.6186 -0.3577  0.0342
  298MOL0     C40100  11.373   2.868  10.189 -0.0824 -0.2706 -0.1964
  298MOL0     C40101  11.380   2.754  10.267  0.8150  0.4536  0.8098
  298MOL0     C40102  11.499   2.692  10.301 -0.9786  0.3932 -0.4059
  298MOL0     O40103  11.494   2.582  10.388 -0.7792  0.3555 -0.3037
  298MOL0     C40104  11.581   2.587  10.504  0.4207 -0.3585 -0.0715
  298MOL0     C40105  11.554   2.467  10.600 -0.2005 -0.0692 -0.9596
  298MOL0     C40106  11.655   2.349  10.567  0.7116 -0.2269 -0.6435
  298MOL0     C40107  11.789   2.374  10.647 -0.4636  0.0143 -0.0406
  298MOL0     C40108  11.889   2.264  10.672 -0.0725  0.0056 -0.1502
  298MOL0     C40109  12.005   2.262  10.578 -0.2121 -0.3184 -0.4194
  298MOL0     C40110  11.967   2.218  10.434 -0.9429  0.0325  0.5807
  298MOL0     C40111  12.104   2.222  10.354 -0.8708 -0.1505  0.5354
  298MOL0     N40112  12.170   2.354  10.331 -0.7065 -0.0111 -0.4527
  298MOL0     C40113  12.275   2.363  10.243  0.4159 -0.3493  0.5792
  298MOL0     C40114  12.319   2.489  10.260  0.2044 -0.2392  1.0079
  298MOL0     C40115  12.417   2.567  10.182  0.3225 -0.3782  0.0470
  298MOL0     C40116  12.458   2.504  10.042 -0.7616 -0.5254 -0.6093
  298MOL0     C40117  12.334   2.500   9.954 -0.3609 -0.2047 -1.2882
  298MOL0     C40118  12.364   2.528   9.814 -0.3188  0.3519 -0.6782
  298MOL0     O40119  12.447   2.426   9.747  0.1716 -0.2633 -0.2943
  298MOL0     C40120  12.552   2.460   9.666  0.4033 -0.0809  0.1516
  298MOL0     C40121  12.627   2.344   9.622 -0.4454 -0.0760 -0.5264
  298MOL0     C40122  12.740   2.352   9.542 -0.5410  1.0368  0.5724
  298MOL0     C40123  12.778   2.484   9.496  0.0835 -0.1044 -0.2733
  298MOL0     C40124  12.900   2.492   9.408 -0.4021 -0.2388 -0.5245
  298MOL0     O40125  12.949   2.617   9.378 -0.4390  0.3650  0.0230
  298MOL0     C40126  13.068   2.624   9.300 -0.2410 -0.4095  0.6955
  298MOL0     C40127  13.183   2.534   9.313 -0.0055  0.6572  0.2242
  298MOL0     C40128  13.303   2.545   9.238  0.1940 -0.2779  0.2431
  298MOL0     C40129  13.313   2.647   9.145 -0.3837 -0.0600  0.2378
  298MOL0     O40130  13.430   2.668   9.080 -1.1949  0.2838 -0.0972
  298MOL0     C40131  13.433   2.680   8.936 -0.2081 -0.7033 -0.6538
  298MOL0     C40132  13.571   2.744   8.896 -0.4455  0.0903 -1.5705
  298MOL0     C40133  13.601   2.732   8.745  0.0380 -0.2408 -0.3672
  298MOL0     C40134  13.643   2.594   8.710  0.5777  0.2344 -0.5041
  298MOL0     C40135  13.646   2.574   8.561  0.0909  0.2760  1.1764
  298MOL0     C40136  13.673   2.426   8.534  0.7671 -0.4926 -0.7434
  298MOL0     C40137  13.676   2.418   8.381  0.0277  0.0949  0.1940
  298MOL0     C40138  13.743   2.302   8.335  0.5007 -0.5081 -0.6395
  298MOL0    Cl40139  13.635   2.157   8.342 -0.1840 -0.6102  0.3527
  298MOL0     C40140  13.203   2.735   9.132  0.1174  0.0861 -0.1814
  298MOL0     C40141  13.089   2.721   9.208 -0.8275  0.5039  0.6940
  298MOL0     O40142  12.929   2.388   9.362 -0.0422  0.1760  0.1308
  298MOL0     C40143  12.710   2.603   9.543 -0.4493 -0.0074 -0.4897
  298MOL0     C40144  12.594   2.587   9.625  0.1149 -0.3590  0.1265
  298MOL0     N40145  12.246   2.566  10.353  0.5005  0.7610 -0.5918
  298MOL0     N40146  12.153   2.478  10.387 -0.9493 -0.6679 -0.1807
  298MOL0     C40147  11.624   2.760  10.271  0.6759 -0.2947  0.2671
  298MOL0     C40148  11.614   2.860  10.175  0.1281 -0.0771  0.1883
  298MOL0     C40149  11.537   3.061   9.793 -0.5465 -0.1328 -1.3429
  298MOL0     C40150  11.540   3.196   9.827  0.4458  0.2736 -0.7253
  298MOL0     C40151  11.561   3.303   9.745 -0.5412  0.0836 -0.2030
  298MOL0     C40152  11.582   3.289   9.601  0.4897  0.8791 -0.0959
  298MOL0     O40153  11.602   3.408   9.520  0.2522 -0.1310  0.2732
  298MOL0     C40154  11.615   3.396   9.383 -0.6113  0.1956  0.7032
  298MOL0     C40155  11.600   3.533   9.309  0.0472  0.1237 -0.4960
  298MOL0     C40156  11.461   3.581   9.361  0.7555 -0.2967  0.9951
  298MOL0     C40157  11.466   3.716   9.420  0.4514  0.1232  0.0283
  298MOL0     C40158  11.550   3.730   9.537  0.0456  0.7905 -0.7239
  298MOL0     C40159  11.585   3.750   9.653  0.1234  0.6096 -0.3201
  298MOL0     C40160  11.582   3.153   9.564  0.1686 -0.0901  0.1468
  298MOL0     C40161  11.568   3.041   9.658  0.1486  1.3439 -0.5591
  298MOL0     C40162  11.573   2.898   9.586  0.6552  0.1832  0.3858
  298MOL0     H40163  11.289   2.923  10.149  0.0466 -1.3871 -2.1374
  298MOL0     H40164  11.289   2.706  10.302  1.3753 -0.4622  1.0465
  298MOL0     H40165  11.685   2.585  10.471  1.3850 -0.2803  2.6566
  298MOL0     H40166  11.573   2.684  10.553  1.4936 -1.1859  1.8661
  298MOL0     H40167  11.450   2.437  10.590 -0.2266  0.5645 -3.0486
  298MOL0     H40168  11.581   2.497  10.702  2.7701  0.6081 -1.8374
  298MOL0     H40169  11.668   2.340  10.459  0.6608  2.2498 -0.9043
  298MOL0     H40170  11.604   2.259  10.604 -3.9322  2.9189  1.6367
  298MOL0     H40171  11.839   2.460  10.602 -1.3416  0.8517  0.5687
  298MOL0     H40172  11.770   2.415  10.746  4.2627  0.9037  0.7224
  298MOL0     H40173  11.936   2.289  10.768  0.7567  0.9409 -0.7838
  298MOL0     H40174  11.854   2.161  10.681  0.1762 -0.0505  0.2363
  298MOL0     H40175  12.040   2.366  10.571 -1.9466  0.3512  0.1714
  298MOL0     H40176  12.089   2.203  10.614 -0.2061  1.1941  2.2838
  298MOL0     H40177  11.892   2.280  10.384  2.1638  3.0716 -0.7572
  298MOL0     H40178  11.922   2.118  10.433  0.8546 -0.8555 -1.7692
  298MOL0     H40179  12.166   2.156  10.414 -2.1082 -0.4417  1.5282
  298MOL0     H40180  12.091   2.190  10.250 -0.7577 -0.5359  0.6409
  298MOL0     H40181  12.327   2.292  10.181 -0.9675  0.1904 -1.2811
  298MOL0     H40182  12.370   2.665  10.171  1.3220  0.2061  0.8137
  298MOL0     H40183  12.507   2.579  10.243  1.0806  0.6253 -1.2260
  298MOL0     H40184  12.534   2.562   9.988 -1.0970  1.1993  0.6779
  298MOL0     H40185  12.492   2.402  10.060  0.9705  0.2521  0.8712
  298MOL0     H40186  12.256   2.569   9.984 -2.7771 -2.3927 -2.1170
  298MOL0     H40187  12.289   2.401   9.966 -1.8275  0.7838  2.3278
  298MOL0     H40188  12.410   2.628   9.811  0.3250  0.0493 -1.1132
  298MOL0     H40189  12.271   2.542   9.758  0.7961 -2.0357 -3.3794
  298MOL0     H40190  12.598   2.246   9.659 -2.0516  0.6860  0.3404
  298MOL0     H40191  12.793   2.261   9.516 -2.2274 -0.0744  0.8084
  298MOL0     H40192  13.176   2.457   9.390  2.9731 -1.2264 -1.2226
  298MOL0     H40193  13.389   2.483   9.257 -2.3008 -4.5513 -0.9416
  298MOL0     H40194  13.426   2.577   8.901  3.6371 -1.1053 -0.7089
  298MOL0     H40195  13.355   2.749   8.903 -1.1794  0.5601  3.6255
  298MOL0     H40196  13.583   2.847   8.930  1.6434 -1.0804  1.6846
  298MOL0     H40197  13.647   2.696   8.959 -0.7117 -1.0825 -2.1212
  298MOL0     H40198  13.502   2.759   8.705 -0.6337 -1.4561  0.4078
  298MOL0     H40199  13.677   2.804   8.713  0.0638  0.6073  1.4760
  298MOL0     H40200  13.576   2.518   8.750  0.8132 -1.4495 -3.0462
  298MOL0     H40201  13.745   2.576   8.745 -0.2797  0.4651  2.3169
  298MOL0     H40202  13.716   2.644   8.514  0.5465 -0.1278  1.2548
  298MOL0     H40203  13.549   2.598   8.516 -0.2133 -1.0541  1.0979
  298MOL0     H40204  13.770   2.404   8.580  0.2373  2.5026  2.2209
  298MOL0     H40205  13.605   2.359   8.587  2.9456  0.1509  3.2466
  298MOL0     H40206  13.729   2.497   8.326 -2.3113  0.2002 -2.1142
  298MOL0     H40207  13.579   2.427   8.330  2.3813 -1.0302 -5.1220
  298MOL0     H40208  13.774   2.319   8.231  2.4160  0.1036 -0.0084
  298MOL0     H40209  13.828   2.291   8.403  0.1282  1.5525  0.2319
  298MOL0     H40210  13.199   2.826   9.073 -1.5683  1.2074  1.5605
  298MOL0     H40211  13.011   2.795   9.191  0.0472  1.0742 -1.1819
  298MOL0     H40212  12.744   2.700   9.507  2.5121  0.5770  3.2502
  298MOL0     H40213  12.533   2.674   9.647  0.6296  0.1628 -0.4590
  298MOL0     H40214  11.716   2.718  10.311 -0.1771 -2.3757  0.2090
  298MOL0     H40215  11.707   2.900  10.139  0.9022 -1.9191  0.0139
  298MOL0     H40216  11.515   3.226   9.929 -0.9307  2.1906 -1.5699
  298MOL0     H40217  11.561   3.407   9.778  0.4811 -0.2157  0.8262
  298MOL0     H40218  11.551   3.320   9.337  0.3319 -0.1642 -0.0399
  298MOL0     H40219  11.713   3.353   9.361 -1.1654  0.1879 -2.0818
  298MOL0     H40220  11.590   3.521   9.200  0.6460 -0.5919 -0.4836
  298MOL0     H40221  11.680   3.603   9.334 -1.1890  2.2119 -2.0663
  298MOL0     H40222  11.409   3.509   9.425  3.7895 -0.6320  3.3381
  298MOL0     H40223  11.392   3.597   9.278 -0.5109 -0.9647  1.8729
  298MOL0     H40224  11.505   3.787   9.347 -2.4306  4.5779  2.3677
  298MOL0     H40225  11.366   3.757   9.434  0.8509  1.6395 -1.2836
  298MOL0     H40226  11.592   3.783   9.755  0.4985  1.4863 -0.6259
  298MOL0     H40227  11.592   3.142   9.456 -0.6270  3.6798 -0.4428
  298MOL0     H40228  11.484   2.876   9.527 -1.5535 -0.2572  3.6279
  298MOL0     H40229  11.657   2.913   9.517  0.9790 -0.9520  0.5129
  298MOL0     H40230  11.583   2.820   9.662  1.0596  1.5858  1.8380
  299MOL0     O40231   6.359   4.216   5.679  0.6263 -0.0927 -0.3567
  299MOL0     C40232   6.437   4.124   5.720  0.2388  0.0462 -0.3820
  299MOL0     O40233   6.529   4.066   5.641 -0.6310  0.8895 -0.0461
  299MOL0     C40234   6.526   4.102   5.503 -0.4050  0.1116 -0.3604
  299MOL0     C40235   6.426   4.065   5.412  0.3616  0.2025 -0.2156
  299MOL0     C40236   6.437   4.097   5.276 -0.2120 -0.5975 -0.0572
  299MOL0     C40237   6.556   4.158   5.223  0.1445 -0.1498  0.1128
  299MOL0     O40238   6.556   4.192   5.095  0.0850 -0.8071  1.0998
  299MOL0     C40239   6.668   4.253   5.034  0.0412 -0.4699  0.3256
  299MOL0     C40240   6.638   4.295   4.885 -0.1635 -0.3187  0.0134
  299MOL0     C40241   6.768   4.356   4.807 -0.6648  0.3908  1.1650
  299MOL0     C40242   6.734   4.450   4.695 -0.0930 -0.5985  0.5212
  299MOL0     C40243   6.648   4.381   4.586 -0.9143 -0.8789  0.5136
  299MOL0     C40244   6.615   4.477   4.467 -0.0709 -0.0204 -0.9214
  299MOL0     C40245   6.625   4.393   4.344  0.6587  0.3098 -0.2754
  299MOL0     C40246   6.581   4.470   4.217  0.4696  0.5316  1.3836
  299MOL0     N40247   6.678   4.562   4.158  0.1925  0.1525 -0.4578
  299MOL0     C40248   6.689   4.701   4.191 -0.4658 -0.1755  0.6692
  299MOL0     C40249   6.796   4.747   4.120 -1.0820 -0.2105 -0.4496
  299MOL0     C40250   6.845   4.891   4.115 -0.2029 -0.0653  0.1248
  299MOL0     C40251   6.931   4.911   4.241 -0.2438  0.0699 -0.1056
  299MOL0     C40252   6.980   5.057   4.265  0.8361 -0.8259 -0.1085
  299MOL0     C40253   6.863   5.149   4.281  0.1736 -0.1696  0.0183
  299MOL0     O40254   6.888   5.253   4.373 -0.1799  0.0794  0.5155
  299MOL0     C40255   6.942   5.373   4.336  0.2837 -0.3905 -0.3283
  299MOL0     C40256   7.048   5.390   4.243 -0.3289  0.7861  0.2369
  299MOL0     C40257   7.100   5.517   4.211 -0.3589 -0.0316  0.1232
  299MOL0     C40258   7.058   5.631   4.267 -0.3826  0.5205 -0.8106
  299MOL0     C40259   7.114   5.756   4.232  0.0286 -0.8539  0.2211
  299MOL0     O40260   7.021   5.856   4.226  0.9804  0.9470 -0.2666
  299MOL0     C40261   7.057   5.979   4.178  0.7139  0.3316 -0.1188
  299MOL0     C40262   7.150   6.003   4.079 -0.4558  0.1376  0.9199
  299MOL0     C40263   7.181   6.132   4.042  0.3064 -0.0827  0.5869
  299MOL0     C40264   7.103   6.240   4.092 -0.3792  0.4173 -0.2252
  299MOL0     O40265   7.112   6.372   4.050  0.2807  0.0871 -0.4736
  299MOL0     C40266   7.140   6.388   3.912 -0.1638 -0.7504  0.1293
  299MOL0     C40267   7.280   6.451   3.902  0.6645  1.5761 -0.0208
  299MOL0     C40268   7.318   6.571   3.986  0.3769  0.0257 -1.0243
  299MOL0     C40269   7.462   6.619   3.973  0.0366  0.2712 -0.7009
  299MOL0     C40270   7.503   6.715   4.079  0.0880 -0.2314 -0.2426
  299MOL0     C40271   7.656   6.731   4.092  0.7008 -0.2895  0.4032
  299MOL0     C40272   7.717   6.761   3.958  0.5634 -0.0637  0.6410
  299MOL0     C40273   7.855   6.796   3.962 -0.1347 -0.1399  1.6866
  299MOL0    Cl40274   7.927   6.804   3.791 -0.5013 -0.3053  0.1919
  299MOL0     C40275   6.995   6.214   4.175  0.7263  0.2262 -0.5871
  299MOL0     C40276   6.971   6.080   4.217 -0.0695 -0.1032  0.2691
  299MOL0     O40277   7.232   5.767   4.208 -0.2993 -0.2502  0.8149
  299MOL0     C40278   6.955   5.618   4.367 -0.7610  0.9650 -0.3227
  299MOL0     C40279   6.901   5.495   4.399  1.0170 -0.1558 -0.0438
  299MOL0     N40280   6.849   4.634   4.056  0.5714  0.0197  0.3624
  299MOL0     N40281   6.784   4.519   4.086 -0.3994 -1.1035  0.0871
  299MOL0     C40282   6.653   4.192   5.319 -0.1957 -0.2258 -0.3462
  299MOL0     C40283   6.636   4.172   5.456  0.3907  0.5605 -1.8192
  299MOL0     C40284   6.434   4.078   5.870 -0.9901  0.3538  0.0272
  299MOL0     C40285   6.437   4.182   5.964  0.1979  0.2715 -0.5896
  299MOL0     C40286   6.420   4.150   6.099 -0.2730 -0.7410 -0.1326
  299MOL0     C40287   6.414   4.020   6.139 -0.3821 -0.3765 -0.5649
  299MOL0     O40288   6.374   3.976   6.263  0.4123 -0.5165 -0.3381
  299MOL0     C40289   6.353   4.063   6.374  0.6960 -0.4414  0.0944
  299MOL0     C40290   6.486   4.099   6.443 -0.2570  1.1402 -0.1180
  299MOL0     C40291   6.482   4.151   6.592 -0.0862 -0.9065 -0.2476
  299MOL0     C40292   6.625   4.166   6.653 -0.1860 -0.1752 -0.2154
  299MOL0     C40293   6.610   4.195   6.800  0.9346 -0.3737 -0.1950
  299MOL0     C40294   6.602   4.200   6.921 -0.4847  0.1760  0.5190
  299MOL0     C40295   6.441   3.918   6.045 -0.4436 -0.0218  1.1192
  299MOL0     C40296   6.449   3.945   5.915 -0.1643  0.3844  0.2730
  299MOL0     C40297   6.469   3.831   5.819 -0.1541 -0.4653  0.0745
  299MOL0     H40298   6.342   4.016   5.459 -0.0883  0.2589 -0.9399
  299MOL0     H40299   6.356   4.075   5.207 -0.5688  1.2784 -0.3007
  299MOL0     H40300   6.708   4.339   5.089 -0.0857  0.7022 -1.3305
  299MOL0     H40301   6.746   4.176   5.034  1.3985  0.6946 -3.0743
  299MOL0     H40302   6.560   4.372   4.882 -0.0984 -0.2333  0.4854
  299MOL0     H40303   6.606   4.202   4.838  0.0042 -0.4099  0.0825
  299MOL0     H40304   6.835   4.277   4.771  0.5113  1.8688  0.0081
  299MOL0     H40305   6.831   4.407   4.881  1.5776 -0.0358 -0.3386
  299MOL0     H40306   6.685   4.544   4.720  0.3687 -0.6947  1.8514
  299MOL0     H40307   6.829   4.471   4.645  0.5929 -0.7781  1.7147
  299MOL0     H40308   6.692   4.285   4.554 -3.2830 -2.5318  1.8983
  299MOL0     H40309   6.552   4.349   4.628 -0.6600  1.6122  3.2831
  299MOL0     H40310   6.517   4.525   4.475  0.6470  1.2257  1.3109
  299MOL0     H40311   6.699   4.546   4.456  1.3058 -1.5936 -0.7270
  299MOL0     H40312   6.556   4.308   4.356  0.4505  0.0754 -2.5968
  299MOL0     H40313   6.724   4.354   4.320 -0.5522 -3.2499 -0.0879
  299MOL0     H40314   6.543   4.394   4.148  2.0611 -0.0176  1.0632
  299MOL0     H40315   6.499   4.533   4.252 -2.2401 -2.6215  1.1557
  299MOL0     H40316   6.620   4.769   4.241 -0.8445  1.0277 -1.3616
  299MOL0     H40317   6.908   4.915   4.029 -0.0808  0.2202  0.2932
  299MOL0     H40318   6.759   4.958   4.117 -1.8373 -2.0627  0.3150
  299MOL0     H40319   6.867   4.898   4.329 -0.0814  2.4327  0.4458
  299MOL0     H40320   7.021   4.850   4.252 -1.2396 -1.5002 -0.3369
  299MOL0     H40321   7.034   5.099   4.180 -1.0765  1.4569 -0.2898
  299MOL0     H40322   7.043   5.049   4.354  1.6008 -0.5562 -0.6194
  299MOL0     H40323   6.769   5.107   4.318 -0.2205  1.1521  0.5787
  299MOL0     H40324   6.853   5.194   4.181 -0.9214  0.6075  0.4585
  299MOL0     H40325   7.090   5.306   4.188  1.6358  2.1555 -0.4820
  299MOL0     H40326   7.173   5.533   4.132  0.9570  2.0940  1.6580
  299MOL0     H40327   7.213   5.926   4.034 -1.6948  1.3116 -3.2452
  299MOL0     H40328   7.273   6.153   3.986 -0.7034 -2.2990 -2.1647
  299MOL0     H40329   7.139   6.293   3.856  0.3688 -0.6446 -0.0639
  299MOL0     H40330   7.065   6.453   3.867 -1.3905 -1.3010  1.3021
  299MOL0     H40331   7.344   6.375   3.947  1.3936  1.7552 -0.7523
  299MOL0     H40332   7.303   6.479   3.799 -0.5247  1.4863 -0.3236
  299MOL0     H40333   7.253   6.653   3.952 -0.1930 -0.5750 -1.4069
  299MOL0     H40334   7.302   6.547   4.091  0.3668  0.4980 -0.9145
  299MOL0     H40335   7.479   6.659   3.872  0.8360 -0.6814 -0.9581
  299MOL0     H40336   7.528   6.532   3.979 -0.4255 -0.2451 -2.3926
  299MOL0     H40337   7.453   6.702   4.175 -0.1185 -1.9203 -0.5491
  299MOL0     H40338   7.463   6.809   4.041  0.0239  0.1532  0.7454
  299MOL0     H40339   7.676   6.811   4.164 -2.0664  3.2334 -2.3768
  299MOL0     H40340   7.703   6.644   4.138  0.3397 -0.4730  0.4234
  299MOL0     H40341   7.660   6.844   3.915 -1.1936 -0.4450  2.1021
  299MOL0     H40342   7.703   6.675   3.892  0.7727 -0.0163  0.5320
  299MOL0     H40343   7.858   6.896   4.006 -0.8935  0.7341 -0.1651
  299MOL0     H40344   7.917   6.749   4.039  0.1935  5.4255  5.3388
  299MOL0     H40345   6.939   6.305   4.198 -1.5445 -1.5800  1.6623
  299MOL0     H40346   6.887   6.067   4.284 -0.9129  1.1201 -0.4961
  299MOL0     H40347   6.931   5.714   4.412  0.6436 -0.0979  2.9823
  299MOL0     H40348   6.821   5.487   4.473 -0.5100 -2.6800 -1.8065
  299MOL0     H40349   6.744   4.242   5.287  1.5800 -0.4510  3.7076
  299MOL0     H40350   6.716   4.216   5.514 -0.1883 -1.2166  0.4794
  299MOL0     H40351   6.445   4.287   5.939  1.4132  1.0604  2.5715
  299MOL0     H40352   6.421   4.235   6.167  0.3721 -0.7500 -0.1267
  299MOL0     H40353   6.281   4.012   6.438  0.6477  1.4443  1.6358
  299MOL0     H40354   6.304   4.157   6.348  1.8365  0.3597  0.7484
  299MOL0     H40355   6.530   4.183   6.389 -1.8554  1.6839 -0.6444
  299MOL0     H40356   6.554   4.014   6.431  0.2587  1.5701 -0.2564
  299MOL0     H40357   6.423   4.087   6.658 -2.8717  1.1454 -0.6067
  299MOL0     H40358   6.432   4.248   6.592  1.2159 -0.1427  2.1983
  299MOL0     H40359   6.687   4.077   6.634  0.2387 -1.1332  4.3328
  299MOL0     H40360   6.681   4.246   6.605  0.6383  0.2163  1.3286
  299MOL0     H40361   6.606   4.190   7.028 -0.7427  1.4737  0.6652
  299MOL0     H40362   6.441   3.814   6.076  0.3451 -1.0960 -2.1310
  299MOL0     H40363   6.402   3.844   5.734  1.6070 -2.4419 -1.7506
  299MOL0     H40364   6.575   3.838   5.794 -0.7490 -0.7758 -2.9151
  299MOL0     H40365   6.443   3.731   5.856 -0.8800 -1.0003 -1.7891
  300MOL0     O40366   4.303   5.823   2.053 -0.4926  0.1259  0.2126
  300MOL0     C40367   4.224   5.741   2.097  0.4554 -0.0385 -1.0951
  300MOL0     O40368   4.209   5.719   2.234  0.3661  0.3314 -0.1681
  300MOL0     C40369   4.273   5.808   2.317  0.2077 -0.5321  0.1922
  300MOL0     C40370   4.256   5.952   2.307 -0.2872 -0.1453  0.1901
  300MOL0     C40371   4.330   6.043   2.389 -0.4168  0.1897 -0.6328
  300MOL0     C40372   4.406   5.994   2.488 -1.1270  1.4677 -0.6243
  300MOL0     O40373   4.480   6.074   2.569  0.3599 -0.0973  0.2328
  300MOL0     C40374   4.614   6.043   2.594  0.8185 -1.2679 -1.3779
  300MOL0     C40375   4.685   6.177   2.607  1.0969  0.4483  0.0059
  300MOL0     C40376   4.832   6.139   2.649  0.1563  0.4717  0.4713
  300MOL0     C40377   4.944   6.244   2.609 -0.4354  0.2237  0.1766
  300MOL0     C40378   5.071   6.213   2.697 -0.5204  1.0513 -0.5646
  300MOL0     C40379   5.118   6.060   2.698 -0.2002 -0.0853 -0.4098
  300MOL0     C40380   5.225   6.028   2.806 -0.1465  0.9535 -0.9055
  300MOL0     C40381   5.159   6.012   2.944 -0.0181 -0.1974  0.1259
  300MOL0     N40382   5.130   5.869   2.980 -0.5634  0.1427  0.2032
  300MOL0     C40383   5.218   5.767   3.002 -0.0683  0.1436 -0.8689
  300MOL0     C40384   5.131   5.661   3.019  0.1504 -0.3533 -0.3377
  300MOL0     C40385   5.187   5.526   3.065  1.0183 -0.6471 -0.2644
  300MOL0     C40386   5.091   5.435   3.140 -0.4637  1.1897  1.0630
  300MOL0     C40387   4.948   5.408   3.080 -0.2748 -0.0378  0.5093
  300MOL0     C40388   4.962   5.345   2.935 -0.4209  0.7714 -0.7203
  300MOL0     O40389   5.048   5.230   2.941 -0.0129 -0.6265  0.4142
  300MOL0     C40390   5.009   5.127   3.021  0.3269 -0.0055 -0.6895
  300MOL0     C40391   5.107   5.056   3.091  0.5193 -0.7908 -0.3422
  300MOL0     C40392   5.069   4.938   3.155 -0.9156  0.5475 -0.1487
  300MOL0     C40393   4.941   4.883   3.143  0.3966  1.0236  0.0097
  300MOL0     C40394   4.909   4.747   3.195 -0.4113  0.0410  0.2556
  300MOL0     O40395   5.008   4.655   3.233 -0.2368  0.2992 -0.5339
  300MOL0     C40396   4.983   4.577   3.345 -0.3974 -0.8369 -0.6278
  300MOL0     C40397   5.086   4.479   3.360 -0.4257  1.4889  0.6177
  300MOL0     C40398   5.098   4.424   3.488 -0.0447  0.7698 -0.7313
  300MOL0     C40399   5.005   4.438   3.591  0.2611 -0.1969  0.4006
  300MOL0     O40400   5.031   4.377   3.710 -0.4109 -0.6348  0.1420
  300MOL0     C40401   4.934   4.390   3.817  0.1244 -0.1965 -0.5482
  300MOL0     C40402   4.991   4.328   3.950  0.2139 -1.0766 -0.2271
  300MOL0     C40403   4.889   4.363   4.065  0.1612 -0.2035  0.3918
  300MOL0     C40404   4.944   4.496   4.129  0.6553 -0.0030 -0.0120
  300MOL0     C40405   4.855   4.556   4.236  0.2520 -1.1299  0.5876
  300MOL0     C40406   4.897   4.509   4.379  0.3982  0.2358 -0.6364
  300MOL0     C40407   4.778   4.527   4.474 -0.5292  0.0484  0.5340
  300MOL0     C40408   4.773   4.424   4.583 -1.0686 -0.4794 -0.0601
  300MOL0    Cl40409   4.694   4.272   4.522 -0.3129  0.4963 -0.0674
  300MOL0     C40410   4.900   4.535   3.557  0.1035  0.6585  0.1893
  300MOL0     C40411   4.884   4.601   3.438 -0.1582  0.0756 -0.1822
  300MOL0     O40412   4.790   4.722   3.190  0.1769  0.7239 -0.1123
  300MOL0     C40413   4.842   4.956   3.081 -0.7250 -0.4918  0.1853
  300MOL0     C40414   4.877   5.075   3.021 -0.5724 -0.7793  0.4551
  300MOL0     N40415   5.006   5.699   2.998 -0.0386 -0.4144 -0.3509
  300MOL0     N40416   5.001   5.824   2.973 -0.7099 -0.0363 -0.3774
  300MOL0     C40417   4.422   5.856   2.498 -0.3647  0.2050 -0.6572
  300MOL0     C40418   4.361   5.764   2.407 -0.7004 -0.4293 -0.0957
  300MOL0     C40419   4.148   5.653   2.001  0.7735  0.0673 -0.0773
  300MOL0     C40420   4.048   5.581   2.061  0.1672 -0.1182  0.2750
  300MOL0     C40421   3.974   5.492   1.986  0.6176 -0.5758 -0.5239
  300MOL0     C40422   3.981   5.486   1.850 -0.2613  0.0929 -0.2730
  300MOL0     O40423   3.893   5.394   1.794 -0.4780 -0.2563  0.3752
  300MOL0     C40424   3.901   5.379   1.652  0.7120 -0.7696 -0.6129
  300MOL0     C40425   3.841   5.253   1.608 -0.8875  0.1935  0.1356
  300MOL0     C40426   3.910   5.136   1.673  0.5233  0.1419 -0.4035
  300MOL0     C40427   3.851   5.001   1.614  0.3417  0.5170  0.4627
  300MOL0     C40428   3.718   4.972   1.674 -0.5331 -0.0027  0.1511
  300MOL0     C40429   3.618   4.929   1.729  0.3597 -0.5252  0.3829
  300MOL0     C40430   4.070   5.567   1.787  0.4228  0.0961  0.0681
  300MOL0     C40431   4.161   5.643   1.863 -0.2800 -0.3190  0.6387
  300MOL0     C40432   4.264   5.716   1.776  0.7258 -0.6407  0.2518
  300MOL0     H40433   4.196   6.000   2.229 -0.8453 -2.5582 -0.9531
  300MOL0     H40434   4.309   6.149   2.379 -1.8626 -0.0233 -0.1579
  300MOL0     H40435   4.616   5.977   2.681  0.5415 -1.6416 -1.6512
  300MOL0     H40436   4.652   5.999   2.501 -1.6034 -3.2662 -1.5188
  300MOL0     H40437   4.636   6.233   2.687 -0.5847 -0.0797 -0.6093
  300MOL0     H40438   4.679   6.235   2.514 -0.8911 -1.6935 -1.3242
  300MOL0     H40439   4.866   6.050   2.597 -1.4408  0.9545 -1.5318
  300MOL0     H40440   4.839   6.121   2.757  1.2974 -0.0654  0.3169
  300MOL0     H40441   4.964   6.241   2.502  0.0767 -0.3566  0.2853
  300MOL0     H40442   4.905   6.341   2.643 -2.1272  0.1548 -1.3998
  300MOL0     H40443   5.153   6.273   2.659  1.8158 -1.6087 -0.0719
  300MOL0     H40444   5.059   6.240   2.802 -4.2778 -2.1432  0.0845
  300MOL0     H40445   5.036   5.988   2.709  0.2461 -0.6371 -0.6207
  300MOL0     H40446   5.172   6.037   2.605  4.1491 -3.3697  2.5224
  300MOL0     H40447   5.300   6.107   2.807  0.5783  0.2981  0.8693
  300MOL0     H40448   5.275   5.933   2.781  0.2524  0.8137  0.3648
  300MOL0     H40449   5.228   6.045   3.022 -0.2270 -0.2449  0.3332
  300MOL0     H40450   5.066   6.069   2.951 -0.6215 -1.1255 -0.1612
  300MOL0     H40451   5.326   5.766   3.005 -0.0237 -2.2260  1.9231
  300MOL0     H40452   5.244   5.480   2.984  3.9767  0.2739  1.1432
  300MOL0     H40453   5.267   5.549   3.137 -0.8886  2.0343  1.1688
  300MOL0     H40454   5.132   5.339   3.172 -0.3324  1.4416  1.6725
  300MOL0     H40455   5.068   5.483   3.236 -3.8807  0.3422  0.8081
  300MOL0     H40456   4.891   5.502   3.080  0.4812  0.4627  2.0924
  300MOL0     H40457   4.883   5.336   3.130  0.5675 -1.5590 -0.5023
  300MOL0     H40458   5.017   5.420   2.877  3.0533 -0.3691  0.8618
  300MOL0     H40459   4.864   5.319   2.893 -0.0296 -0.0991 -1.1175
  300MOL0     H40460   5.209   5.093   3.089 -0.6012  3.0366  2.4148
  300MOL0     H40461   5.151   4.893   3.209 -0.1182  1.1718 -0.8212
  300MOL0     H40462   5.168   4.472   3.289 -0.4619  2.0077  0.5243
  300MOL0     H40463   5.186   4.370   3.523 -1.9383 -0.1602  3.2920
  300MOL0     H40464   4.904   4.494   3.835 -0.3474 -0.6855  1.7775
  300MOL0     H40465   4.841   4.337   3.793  1.0765 -2.8417  1.1278
  300MOL0     H40466   4.994   4.220   3.933  4.5425 -1.5443  2.1761
  300MOL0     H40467   5.097   4.348   3.969  0.7481 -2.8115 -1.1412
  300MOL0     H40468   4.790   4.383   4.023  1.0809 -0.0158 -1.8042
  300MOL0     H40469   4.881   4.285   4.141  4.0673  0.4732  1.6902
  300MOL0     H40470   4.942   4.562   4.041 -1.5356 -1.5875 -1.2547
  300MOL0     H40471   5.046   4.476   4.162 -0.0214 -4.9284 -0.1117
  300MOL0     H40472   4.752   4.525   4.214 -0.7832  2.6572 -0.5695
  300MOL0     H40473   4.848   4.665   4.236 -2.6807 -1.2127 -0.4182
  300MOL0     H40474   4.939   4.408   4.375  0.5027  0.3281 -2.7980
  300MOL0     H40475   4.982   4.569   4.411 -0.8649  2.7851 -1.7759
  300MOL0     H40476   4.690   4.543   4.410  1.0165  0.5447 -1.5842
  300MOL0     H40477   4.784   4.619   4.532 -2.1275 -0.5517  1.7482
  300MOL0     H40478   4.875   4.418   4.620 -0.8674  0.0090 -0.5247
  300MOL0     H40479   4.710   4.470   4.660 -1.6329  0.2026 -0.9074
  300MOL0     H40480   4.829   4.545   3.638 -0.2004 -0.9561  0.1495
  300MOL0     H40481   4.816   4.686   3.432 -1.7774 -1.2689 -2.6890
  300MOL0     H40482   4.740   4.919   3.077  0.2183 -3.3795  0.8120
  300MOL0     H40483   4.797   5.134   2.976  0.3118 -0.0473 -0.1828
  300MOL0     H40484   4.491   5.814   2.571 -2.1908  0.4158  1.2598
  300MOL0     H40485   4.394   5.661   2.412  1.0717 -0.0438 -2.3036
  300MOL0     H40486   4.043   5.588   2.169  0.3112 -0.0826  0.2800
  300MOL0     H40487   3.900   5.434   2.040 -0.2038 -1.3930 -2.4162
  300MOL0     H40488   4.007   5.382   1.624  1.1718  1.3693  1.0782
  300MOL0     H40489   3.870   5.471   1.601  0.3867 -1.0384 -0.9041
  300MOL0     H40490   3.864   5.234   1.503  2.0212 -1.8506  1.0104
  300MOL0     H40491   3.731   5.247   1.611 -0.9014  0.5815  0.5158
  300MOL0     H40492   3.904   5.138   1.782 -0.9111  0.0952 -0.4565
  300MOL0     H40493   4.014   5.143   1.642  0.3340  1.3130 -0.8418
  300MOL0     H40494   3.853   4.995   1.505  0.0373 -0.2903  0.4956
  300MOL0     H40495   3.916   4.919   1.644 -1.6504 -2.5314 -2.7725
  300MOL0     H40496   3.529   4.879   1.763 -2.0563  0.1180 -4.1988
  300MOL0     H40497   4.085   5.569   1.680  0.3446  1.5198  0.0644
  300MOL0     H40498   4.362   5.722   1.825  0.8646 -1.3030  0.0550
  300MOL0     H40499   4.269   5.675   1.675  0.5906 -2.8299  1.0758
  300MOL0     H40500   4.235   5.819   1.753 -1.8472 -1.4575 -0.4681
  301MOL0     O40501   3.134   0.548   8.367  0.0634 -0.6915  0.0779
  301MOL0     C40502   3.112   0.453   8.298 -1.0140  1.3848 -0.0382
  301MOL0     O40503   3.179   0.327   8.310  0.1131 -0.8476 -0.1093
  301MOL0     C40504   3.289   0.320   8.394  0.6872  0.4575  0.7980
  301MOL0     C40505   3.272   0.247   8.506 -0.0540  0.8958  0.0861
  301MOL0     C40506   3.370   0.237   8.608 -0.1581  0.2394  0.2709
  301MOL0     C40507   3.485   0.319   8.596  0.4907 -0.6571 -0.0618
  301MOL0     O40508   3.591   0.327   8.679 -0.0481 -0.2165 -0.4856
  301MOL0     C40509   3.553   0.300   8.823 -0.8369 -0.2302 -0.0215
  301MOL0     C40510   3.610   0.180   8.880  0.0979 -0.0923 -0.2526
  301MOL0     C40511   3.764   0.180   8.876 -1.1136  0.9096 -0.5904
  301MOL0     C40512   3.826   0.055   8.940 -0.2500  0.5253  0.2085
  301MOL0     C40513   3.915  -0.032   8.850 -0.3415 -0.0309 -0.2404
  301MOL0     C40514   4.051   0.034   8.829 -0.3098  1.0166  1.0591
  301MOL0     C40515   4.150  -0.059   8.762  0.4508 -0.9367 -0.2201
  301MOL0     C40516   4.284   0.008   8.731 -1.2736  0.4396 -0.4906
  301MOL0     N40517   4.335   0.053   8.858 -0.3057 -0.6522 -0.4695
  301MOL0     C40518   4.378  -0.030   8.951 -0.2854  0.1232 -0.1295
  301MOL0     C40519   4.437   0.048   9.041  0.6879 -0.6636 -1.0574
  301MOL0     C40520   4.505  -0.017   9.157 -0.5004  0.1450  0.8225
  301MOL0     C40521   4.441   0.033   9.276  0.5486 -0.1739 -1.0945
  301MOL0     C40522   4.491  -0.025   9.417 -0.4004 -0.4562  1.5214
  301MOL0     C40523   4.412   0.026   9.535 -0.1268  0.2435 -0.1776
  301MOL0     O40524   4.286  -0.041   9.534  0.7301 -0.2030 -0.0985
  301MOL0     C40525   4.209  -0.062   9.645  0.4477 -0.9889 -1.2500
  301MOL0     C40526   4.200   0.043   9.749  0.2707  1.0351 -0.0508
  301MOL0     C40527   4.124   0.023   9.859  0.3809 -0.2625 -0.4914
  301MOL0     C40528   4.045  -0.098   9.881  0.6589 -1.1375 -0.3206
  301MOL0     C40529   3.952  -0.124   9.993  0.5827  0.1481  0.1684
  301MOL0     O40530   3.865  -0.230   9.989 -0.1878 -0.1592 -0.0179
  301MOL0     C40531   3.802  -0.272  10.105 -0.5099  0.2748  0.8541
  301MOL0     C40532   3.675  -0.313  10.092 -0.4972  0.3131  1.4917
  301MOL0     C40533   3.606  -0.372  10.197  0.5495  0.7561  0.5373
  301MOL0     C40534   3.675  -0.386  10.322  0.3202  0.6895 -0.4942
  301MOL0     O40535   3.592  -0.431  10.420 -1.0854  0.5632 -0.6615
  301MOL0     C40536   3.631  -0.413  10.558 -0.4787 -0.6177  0.7397
  301MOL0     C40537   3.514  -0.461  10.644 -0.2548 -0.0183  0.2417
  301MOL0     C40538   3.382  -0.376  10.618  0.4623 -0.7914  0.3029
  301MOL0     C40539   3.283  -0.401  10.726 -0.2284  0.2595  0.0648
  301MOL0     C40540   3.165  -0.291  10.726  0.3347 -0.1387 -0.8608
  301MOL0     C40541   3.223  -0.165  10.791 -0.1236 -0.2778  0.0894
  301MOL0     C40542   3.123  -0.061  10.829  0.5425 -0.1121 -0.5111
  301MOL0     C40543   3.066  -0.092  10.971 -0.5057 -1.2492  0.7548
  301MOL0    Cl40544   2.903  -0.194  10.955 -0.3725 -0.2012  0.3371
  301MOL0     C40545   3.805  -0.340  10.335  0.5287 -0.4936 -0.2398
  301MOL0     C40546   3.874  -0.296  10.223 -0.1002  0.0622  0.4386
  301MOL0     O40547   3.948  -0.031  10.074 -0.5565 -0.2458 -0.0526
  301MOL0     C40548   4.065  -0.196   9.784  0.6142  0.4459 -0.4750
  301MOL0     C40549   4.153  -0.181   9.675 -0.4864 -0.0359  0.9914
  301MOL0     N40550   4.427   0.179   9.005  0.8486  0.5864  0.1748
  301MOL0     N40551   4.360   0.183   8.901  0.0269  0.4955 -0.1389
  301MOL0     C40552   3.498   0.394   8.480  0.0966 -0.2779 -0.0109
  301MOL0     C40553   3.397   0.400   8.385  0.2628  0.7210  0.5172
  301MOL0     C40554   3.036   0.465   8.166 -0.0076 -1.0155 -0.8045
  301MOL0     C40555   3.067   0.582   8.100  0.0510 -0.0578  0.1427
  301MOL0     C40556   2.998   0.609   7.975 -0.4926 -0.2210 -1.6612
  301MOL0     C40557   2.920   0.508   7.918 -0.0844 -0.6082  0.4187
  301MOL0     O40558   2.868   0.546   7.793 -0.8835  1.0762  0.2239
  301MOL0     C40559   2.765   0.466   7.730 -0.0922  0.3517  0.9358
  301MOL0     C40560   2.635   0.484   7.794  0.1073  0.7658 -0.0819
  301MOL0     C40561   2.596   0.635   7.804 -0.2897 -0.2211 -0.5574
  301MOL0     C40562   2.462   0.647   7.889  0.0572  0.6456 -0.5439
  301MOL0     C40563   2.468   0.749   7.994 -0.3145  0.1282  0.3385
  301MOL0     C40564   2.460   0.833   8.081 -0.2678  0.2234 -0.2906
  301MOL0     C40565   2.889   0.387   7.976 -0.9317 -0.3489 -0.6839
  301MOL0     C40566   2.952   0.374   8.097 -0.5311 -0.5882  0.0347
  301MOL0     C40567   2.933   0.249   8.174 -0.0694 -0.3653  1.2264
  301MOL0     H40568   3.172   0.208   8.521  0.2654  0.7099  1.9684
  301MOL0     H40569   3.352   0.181   8.700 -0.5611 -0.9546 -0.5126
  301MOL0     H40570   3.610   0.380   8.870 -3.2631  1.9551 -0.5719
  301MOL0     H40571   3.449   0.320   8.848 -1.2262  1.5589 -2.6562
  301MOL0     H40572   3.575   0.094   8.822 -0.6388  0.9705 -1.4380
  301MOL0     H40573   3.563   0.175   8.978 -0.7038  2.7566 -0.3987
  301MOL0     H40574   3.799   0.269   8.929  2.7321 -1.3811  1.1595
  301MOL0     H40575   3.802   0.180   8.774 -2.1547 -0.8606 -1.0279
  301MOL0     H40576   3.884   0.091   9.026  0.2200  1.1171 -0.3482
  301MOL0     H40577   3.749  -0.008   8.987  0.5186 -1.1523 -0.7062
  301MOL0     H40578   3.930  -0.128   8.899  4.5112  0.7638  0.2732
  301MOL0     H40579   3.864  -0.044   8.754  1.8970  1.9916 -1.7993
  301MOL0     H40580   4.035   0.134   8.788  0.6716  1.4831  1.7609
  301MOL0     H40581   4.087   0.051   8.931 -0.5124  0.0770  1.2961
  301MOL0     H40582   4.103  -0.092   8.669  0.4461 -2.3455  0.2608
  301MOL0     H40583   4.171  -0.152   8.814  1.3536  0.2788  1.6866
  301MOL0     H40584   4.344  -0.073   8.688 -0.9098 -0.5809  1.8133
  301MOL0     H40585   4.292   0.087   8.656  3.2053  1.5431  0.8540
  301MOL0     H40586   4.377  -0.138   8.958 -0.3861 -0.1104 -2.8200
  301MOL0     H40587   4.498  -0.126   9.165  1.8115 -0.0786  0.3673
  301MOL0     H40588   4.611   0.008   9.158 -0.3421  0.2793 -3.0372
  301MOL0     H40589   4.466   0.140   9.275 -0.6291  0.1592  0.5286
  301MOL0     H40590   4.334   0.016   9.262  0.2630 -2.0208  2.3897
  301MOL0     H40591   4.596   0.004   9.429 -0.5866  0.7720  0.3028
  301MOL0     H40592   4.475  -0.132   9.400 -1.7585  0.1280 -1.5672
  301MOL0     H40593   4.400   0.134   9.537 -1.2619  0.1613 -1.4232
  301MOL0     H40594   4.468  -0.000   9.626  0.3049  2.7554  0.3464
  301MOL0     H40595   4.256   0.132   9.725 -1.7469  2.4745  0.3219
  301MOL0     H40596   4.112   0.109   9.925  0.5098  1.1683 -2.2365
  301MOL0     H40597   3.618  -0.304  10.000  1.0011 -0.1261  0.4820
  301MOL0     H40598   3.501  -0.396  10.187  0.9618 -0.3925 -1.6892
  301MOL0     H40599   3.719  -0.475  10.579 -0.9831 -1.8546 -0.5693
  301MOL0     H40600   3.649  -0.311  10.593 -0.6918 -0.9513  1.8652
  301MOL0     H40601   3.495  -0.565  10.616 -1.2174  0.3224 -0.4017
  301MOL0     H40602   3.524  -0.457  10.753 -0.9279 -0.7614  0.3389
  301MOL0     H40603   3.407  -0.270  10.618 -2.3769  0.0914  4.1707
  301MOL0     H40604   3.327  -0.393  10.525 -1.6459 -2.4559  1.7613
  301MOL0     H40605   3.342  -0.390  10.817  0.8750 -1.5131 -0.3817
  301MOL0     H40606   3.243  -0.503  10.725 -3.1218  1.2381  2.1086
  301MOL0     H40607   3.081  -0.322  10.788  1.1477  0.8624  0.8198
  301MOL0     H40608   3.123  -0.272  10.627  0.3915  2.0229 -0.5158
  301MOL0     H40609   3.288  -0.181  10.878 -0.3986  2.7507  0.9698
  301MOL0     H40610   3.294  -0.114  10.726  1.9260 -1.7932  1.0164
  301MOL0     H40611   3.041  -0.046  10.759  0.1899  2.8580  0.3925
  301MOL0     H40612   3.191   0.025  10.827  0.9887 -0.4674 -0.7600
  301MOL0     H40613   3.142  -0.136  11.037  1.3410 -0.8457 -1.0063
  301MOL0     H40614   3.023  -0.002  11.015  0.4832  0.2102 -1.0970
  301MOL0     H40615   3.859  -0.347  10.429 -1.4799 -1.0519  0.9293
  301MOL0     H40616   3.982  -0.284  10.225  0.2623 -2.6000  1.3479
  301MOL0     H40617   4.009  -0.287   9.805 -1.8928  1.7120 -1.3349
  301MOL0     H40618   4.176  -0.264   9.608 -1.5735 -0.2550  0.8632
  301MOL0     H40619   3.581   0.463   8.474  0.2719 -0.4047  0.8941
  301MOL0     H40620   3.398   0.469   8.301  0.6603  0.4690  0.3122
  301MOL0     H40621   3.149   0.641   8.139  2.2992 -1.1147 -2.6070
  301MOL0     H40622   3.023   0.690   7.908 -0.5648  1.0941 -0.1683
  301MOL0     H40623   2.793   0.360   7.738 -0.2929  0.4494  3.6509
  301MOL0     H40624   2.756   0.504   7.628  0.3759  0.8254  1.0700
  301MOL0     H40625   2.646   0.445   7.896  3.1496 -1.5633 -1.1467
  301MOL0     H40626   2.563   0.419   7.744  0.7492 -2.7002  3.0607
  301MOL0     H40627   2.586   0.687   7.709  0.2361  0.9642  0.0106
  301MOL0     H40628   2.679   0.680   7.860 -1.4891  0.3855  0.8078
  301MOL0     H40629   2.388   0.678   7.815  2.4083  1.0060 -2.8809
  301MOL0     H40630   2.441   0.549   7.932  1.7423 -0.2306 -1.5853
  301MOL0     H40631   2.461   0.911   8.155  1.0508 -0.3909  0.3609
  301MOL0     H40632   2.825   0.312   7.929 -2.5574 -1.4102  2.8687
  301MOL0     H40633   2.870   0.181   8.116  1.2204  1.3685 -2.5458
  301MOL0     H40634   3.032   0.207   8.190  0.0715  0.0196  1.3705
  301MOL0     H40635   2.892   0.271   8.273 -2.3568 -2.1892  0.7763
  302MOL0     O40636   2.149   4.938   6.487 -0.2826  0.8284 -0.4102
  302MOL0     C40637   2.176   5.001   6.589 -0.8959  0.3583  0.4795
  302MOL0     O40638   2.107   5.013   6.705 -0.2855  0.1647 -0.0702
  302MOL0     C40639   2.025   4.908   6.738 -1.1047  0.8127  0.5603
  302MOL0     C40640   1.883   4.909   6.732  0.8916  0.5672  0.1044
  302MOL0     C40641   1.805   4.806   6.777 -0.3008  0.7582 -0.0058
  302MOL0     C40642   1.864   4.684   6.832  0.6789 -0.5994  0.3693
  302MOL0     O40643   1.780   4.576   6.863  0.3606  0.7597  0.1942
  302MOL0     C40644   1.839   4.470   6.933  0.7840 -0.6447 -0.0889
  302MOL0     C40645   1.724   4.387   6.998 -0.5072 -0.1645  0.1743
  302MOL0     C40646   1.652   4.472   7.100 -0.3186 -0.3525  1.1415
  302MOL0     C40647   1.571   4.400   7.207  1.1180  0.3548 -0.0186
  302MOL0     C40648   1.539   4.498   7.325  0.7459  0.1768 -0.1328
  302MOL0     C40649   1.407   4.452   7.385 -0.2009  0.7101  0.5624
  302MOL0     C40650   1.364   4.551   7.492  0.4228 -1.4748 -0.8942
  302MOL0     C40651   1.457   4.576   7.608  0.9212 -0.4935  0.4529
  302MOL0     N40652   1.384   4.626   7.722  0.0003  0.4467  0.4367
  302MOL0     C40653   1.442   4.717   7.812  1.3878  0.1727  0.3915
  302MOL0     C40654   1.349   4.731   7.924 -1.0022  1.9741  0.2594
  302MOL0     C40655   1.349   4.830   8.034  0.3307  1.1901  0.8762
  302MOL0     C40656   1.453   4.771   8.131 -0.8864  0.1592  0.3153
  302MOL0     C40657   1.448   4.855   8.263  0.3008  1.0220 -0.6518
  302MOL0     C40658   1.313   4.857   8.345 -0.3770  0.3865  0.4049
  302MOL0     O40659   1.225   4.968   8.313 -0.2698  0.5196  0.4369
  302MOL0     C40660   1.096   4.966   8.373 -0.7411  0.1008 -0.4159
  302MOL0     C40661   1.025   4.864   8.443 -0.8351 -0.0007 -0.4081
  302MOL0     C40662   0.893   4.888   8.483 -1.3064  0.4224 -0.3530
  302MOL0     C40663   0.834   5.016   8.484 -0.2789  0.9072 -0.1830
  302MOL0     C40664   0.685   5.037   8.508 -1.0058 -0.0329 -0.1455
  302MOL0     O40665   0.633   5.158   8.467 -0.2316 -0.1622  0.7357
  302MOL0     C40666   0.514   5.207   8.509  0.2271 -0.6324  1.0653
  302MOL0     C40667   0.438   5.155   8.615  1.0254  0.2039  0.1726
  302MOL0     C40668   0.328   5.225   8.656  0.9162 -0.5721 -0.2001
  302MOL0     C40669   0.274   5.336   8.583  0.5183  1.3172 -0.4963
  302MOL0     O40670   0.163   5.403   8.633 -0.4455  0.7765 -0.0760
  302MOL0     C40671   0.098   5.369   8.758 -0.0302 -0.0357 -0.6659
  302MOL0     C40672   0.018   5.482   8.822  0.4062  0.1865  0.1951
  302MOL0     C40673  -0.031   5.442   8.966  0.1295  0.1642 -0.5671
  302MOL0     C40674  -0.159   5.515   9.009 -0.9751 -0.1292  0.2046
  302MOL0     C40675  -0.172   5.534   9.161 -0.3312  0.1952 -0.9070
  302MOL0     C40676  -0.194   5.394   9.230 -0.0514 -0.3092 -0.4601
  302MOL0     C40677  -0.257   5.389   9.370 -0.4295  0.6097 -0.2887
  302MOL0     C40678  -0.168   5.447   9.486  0.5486  0.4852  0.3593
  302MOL0    Cl40679  -0.245   5.450   9.647 -0.3074  0.4768  0.4131
  302MOL0     C40680   0.348   5.385   8.483 -0.5741  0.4069  0.0757
  302MOL0     C40681   0.461   5.318   8.434  0.2494  0.3089 -0.1022
  302MOL0     O40682   0.641   4.954   8.581  0.0662  0.0596 -0.2578
  302MOL0     C40683   0.911   5.116   8.435 -0.2943 -0.2814 -0.1579
  302MOL0     C40684   1.039   5.095   8.379 -0.4265  0.7894 -0.0566
  302MOL0     N40685   1.259   4.630   7.908 -0.2231 -0.8019  0.2491
  302MOL0     N40686   1.278   4.573   7.791 -1.5702  0.4698 -0.0343
  302MOL0     C40687   2.008   4.687   6.840 -0.6417 -0.9754  0.0521
  302MOL0     C40688   2.083   4.794   6.804  0.6846  0.4941  0.2246
  302MOL0     C40689   2.292   5.094   6.580 -0.8943  1.0048  0.0723
  302MOL0     C40690   2.367   5.114   6.700  0.3058 -0.4699 -0.0667
  302MOL0     C40691   2.482   5.186   6.710 -0.2988  0.3502 -1.0345
  302MOL0     C40692   2.544   5.225   6.594 -0.0228 -0.6416  0.0077
  302MOL0     O40693   2.660   5.299   6.598  0.4534 -0.9844  0.5212
  302MOL0     C40694   2.751   5.303   6.483  0.9026  0.4581 -0.5194
  302MOL0     C40695   2.752   5.440   6.423  0.0360  0.2788  0.5869
  302MOL0     C40696   2.885   5.454   6.336 -1.1381  1.0038  0.0800
  302MOL0     C40697   2.879   5.598   6.277 -0.0786 -0.5080 -0.1288
  302MOL0     C40698   3.013   5.655   6.239  0.8610  0.0148 -0.5166
  302MOL0     C40699   3.126   5.686   6.220 -0.5718  0.0302  0.8789
  302MOL0     C40700   2.467   5.220   6.474 -0.9527 -0.5884 -1.3397
  302MOL0     C40701   2.336   5.162   6.461  0.3448  0.8522 -0.0894
  302MOL0     C40702   2.266   5.160   6.330 -0.5251 -0.0809 -0.6963
  302MOL0     H40703   1.845   5.000   6.686 -0.2531  0.8883  1.6052
  302MOL0     H40704   1.699   4.795   6.761 -0.1220 -0.5605 -0.3864
  302MOL0     H40705   1.888   4.400   6.865  0.9924  1.2006 -1.9357
  302MOL0     H40706   1.908   4.505   7.010 -0.4669 -2.2026  1.8446
  302MOL0     H40707   1.774   4.298   7.039 -1.3118 -1.7974 -2.1744
  302MOL0     H40708   1.647   4.360   6.925 -1.3499 -1.7513  1.5631
  302MOL0     H40709   1.596   4.554   7.055 -1.6946 -2.2638 -0.8528
  302MOL0     H40710   1.735   4.514   7.157 -0.3777  2.0324 -0.4106
  302MOL0     H40711   1.485   4.351   7.160  0.6001 -2.0779  3.1197
  302MOL0     H40712   1.628   4.318   7.251 -0.3329 -0.2077  0.9165
  302MOL0     H40713   1.616   4.492   7.402  0.1316  1.0379  0.5708
  302MOL0     H40714   1.541   4.601   7.288  1.0848 -0.0425 -0.7417
  302MOL0     H40715   1.330   4.455   7.308  2.8018 -1.1593 -2.8011
  302MOL0     H40716   1.424   4.350   7.419  2.4305  1.4332  1.7153
  302MOL0     H40717   1.268   4.514   7.526 -0.2969 -2.2516 -3.4988
  302MOL0     H40718   1.349   4.650   7.448  0.0499 -1.0586  0.1572
  302MOL0     H40719   1.518   4.486   7.626 -0.8413 -1.6530  0.8323
  302MOL0     H40720   1.528   4.655   7.580  1.5116 -1.6963 -1.7376
  302MOL0     H40721   1.533   4.768   7.784 -0.4662  2.2917 -2.2823
  302MOL0     H40722   1.388   4.927   8.002  0.3352  1.6313  2.1674
  302MOL0     H40723   1.250   4.846   8.077 -1.9683 -1.0895 -2.9383
  302MOL0     H40724   1.438   4.667   8.164  3.5966 -0.7071  0.2218
  302MOL0     H40725   1.554   4.783   8.091 -0.8394 -1.1992 -0.0347
  302MOL0     H40726   1.477   4.959   8.249  2.8019  0.3755 -0.8230
  302MOL0     H40727   1.523   4.806   8.327 -2.8435 -1.2995  1.5685
  302MOL0     H40728   1.321   4.861   8.454 -2.7821  3.7081  0.6023
  302MOL0     H40729   1.263   4.761   8.329  1.1667 -0.9168  2.7831
  302MOL0     H40730   1.061   4.762   8.452 -2.5214 -0.8516 -2.2918
  302MOL0     H40731   0.834   4.818   8.541  1.8428 -2.2508 -0.1204
  302MOL0     H40732   0.468   5.081   8.689 -1.0031 -0.1846  0.6592
  302MOL0     H40733   0.276   5.184   8.742  1.7613 -1.7317 -0.2175
  302MOL0     H40734   0.023   5.288   8.755 -1.9355  1.6797 -1.9891
  302MOL0     H40735   0.179   5.343   8.827 -0.1043  0.1891 -0.4946
  302MOL0     H40736   0.087   5.566   8.840 -0.9953  1.2448  0.8807
  302MOL0     H40737  -0.063   5.521   8.760  1.4736  1.7239 -0.2906
  302MOL0     H40738  -0.057   5.336   8.966 -1.2678  0.4277  2.1454
  302MOL0     H40739   0.043   5.457   9.045  0.3517 -1.2384 -0.4797
  302MOL0     H40740  -0.247   5.471   8.960  0.5773 -0.6979 -2.2714
  302MOL0     H40741  -0.160   5.613   8.961 -0.9504  0.1367  0.7421
  302MOL0     H40742  -0.258   5.596   9.189 -1.1988 -1.7169  0.9107
  302MOL0     H40743  -0.076   5.579   9.188 -1.2839  0.6754  1.9651
  302MOL0     H40744  -0.251   5.333   9.159  0.0516 -1.5819  0.5221
  302MOL0     H40745  -0.097   5.345   9.238  0.2104 -0.0767 -1.9014
  302MOL0     H40746  -0.280   5.285   9.396  3.0599 -0.6172 -1.4110
  302MOL0     H40747  -0.351   5.445   9.365  0.3819  1.8946 -3.8510
  302MOL0     H40748  -0.071   5.398   9.489 -0.0416 -0.7136  0.8231
  302MOL0     H40749  -0.138   5.551   9.469  3.7301  0.0040  2.3230
  302MOL0     H40750   0.301   5.469   8.432 -1.4455  0.0704  0.3213
  302MOL0     H40751   0.505   5.353   8.342 -0.1071  0.4820 -0.2111
  302MOL0     H40752   0.867   5.215   8.445  2.4438  1.2110 -1.7640
  302MOL0     H40753   1.104   5.173   8.341 -1.8580  1.2891 -1.5947
  302MOL0     H40754   2.052   4.597   6.880 -1.2207 -1.7889 -1.0811
  302MOL0     H40755   2.187   4.787   6.832  0.9226 -2.0186 -1.0469
  302MOL0     H40756   2.334   5.074   6.795 -2.1197 -2.8506 -1.7670
  302MOL0     H40757   2.542   5.191   6.800 -0.9105 -3.1408 -0.2755
  302MOL0     H40758   2.716   5.230   6.409 -1.0808  1.5542 -0.7163
  302MOL0     H40759   2.849   5.279   6.526  0.4454  3.4101  2.5903
  302MOL0     H40760   2.748   5.521   6.497  3.7462  0.3366  0.9013
  302MOL0     H40761   2.663   5.442   6.359  0.6575  0.0148 -0.3009
  302MOL0     H40762   2.889   5.365   6.273  5.1226 -0.2400  1.5159
  302MOL0     H40763   2.979   5.447   6.391 -1.2778  0.5094  0.2647
  302MOL0     H40764   2.822   5.605   6.183  0.3873  1.9707 -0.2981
  302MOL0     H40765   2.831   5.660   6.353  0.2622  1.4270 -1.3918
  302MOL0     H40766   3.229   5.713   6.217 -0.2330 -1.1799 -1.6918
  302MOL0     H40767   2.511   5.276   6.392  1.0248 -1.4816 -0.9488
  302MOL0     H40768   2.290   5.252   6.277 -0.4201  2.4978  3.3788
  302MOL0     H40769   2.293   5.068   6.277  3.0685  0.2381  0.3300
  302MOL0     H40770   2.159   5.170   6.351 -0.0960  2.8950  0.5649
  303MOL0     O40771   8.537   8.578  10.257 -0.6170  0.2696 -0.2750
  303MOL0     C40772   8.621   8.556  10.167 -0.2365 -0.5700 -0.2565
  303MOL0     O40773   8.755   8.549  10.188 -0.4096  0.2531  0.3482
  303MOL0     C40774   8.814   8.549  10.315 -0.1690 -0.7014  0.4070
  303MOL0     C40775   8.848   8.665  10.378  0.8341 -0.2148 -1.0374
  303MOL0     C40776   8.914   8.653  10.503 -0.0581  0.6051  0.0575
  303MOL0     C40777   8.961   8.527  10.550  0.0980  0.0146 -0.5617
  303MOL0     O40778   9.044   8.529  10.658 -0.3497 -0.1489  0.2617
  303MOL0     C40779   9.068   8.400  10.726  0.0625 -0.3856  0.2513
  303MOL0     C40780   9.170   8.436  10.835  0.6407  0.4390  0.4434
  303MOL0     C40781   9.088   8.506  10.952  0.8112 -0.0219 -0.0164
  303MOL0     C40782   9.176   8.540  11.066 -1.1134 -0.1021 -0.4336
  303MOL0     C40783   9.109   8.589  11.196 -0.5237 -0.1481 -0.7083
  303MOL0     C40784   9.044   8.727  11.190  0.3126 -0.1980  0.5792
  303MOL0     C40785   8.976   8.773  11.322 -0.7170  1.0577 -0.1109
  303MOL0     C40786   8.822   8.751  11.344  0.8391 -0.0721  1.4175
  303MOL0     N40787   8.785   8.742  11.483 -0.6300 -0.6707 -0.0439
  303MOL0     C40788   8.703   8.651  11.549 -0.5139 -0.2669  0.3990
  303MOL0     C40789   8.713   8.697  11.674 -0.2063 -0.2869 -0.2955
  303MOL0     C40790   8.650   8.639  11.801  0.3623  0.8472  0.3519
  303MOL0     C40791   8.514   8.562  11.790  0.7712 -0.0332 -0.4847
  303MOL0     C40792   8.384   8.647  11.779  0.0130 -0.2521 -0.3203
  303MOL0     C40793   8.361   8.713  11.646 -0.9001  0.7615 -0.0793
  303MOL0     O40794   8.443   8.824  11.635  0.0767 -0.2886  0.9829
  303MOL0     C40795   8.418   8.910  11.528  0.0364 -1.1995 -0.5570
  303MOL0     C40796   8.309   8.895  11.433  0.2322 -0.5935 -0.3479
  303MOL0     C40797   8.291   8.994  11.332  0.2728 -0.5950 -1.0578
  303MOL0     C40798   8.390   9.085  11.310 -0.6393 -0.2178  0.4855
  303MOL0     C40799   8.379   9.170  11.188 -0.3306 -0.6367  1.0301
  303MOL0     O40800   8.292   9.130  11.089  0.4520 -0.3655  0.8872
  303MOL0     C40801   8.253   9.219  10.994 -1.3578  0.2757  0.4578
  303MOL0     C40802   8.247   9.188  10.862 -0.8199  0.7626  1.1725
  303MOL0     C40803   8.208   9.277  10.761 -0.8969 -0.5353  0.1515
  303MOL0     C40804   8.154   9.404  10.802 -0.0936  0.0988  0.2074
  303MOL0     O40805   8.089   9.480  10.712  0.2199 -0.7981  0.5033
  303MOL0     C40806   8.033   9.616  10.731 -0.7002 -0.6165 -0.6902
  303MOL0     C40807   8.142   9.725  10.732 -0.4039 -0.6562 -0.4453
  303MOL0     C40808   8.207   9.751  10.587 -0.2566  0.3837 -0.9733
  303MOL0     C40809   8.312   9.645  10.532 -0.9466 -0.2963 -0.4092
  303MOL0     C40810   8.315   9.632  10.376 -0.6887 -0.0457 -0.6352
  303MOL0     C40811   8.193   9.535  10.333 -0.6846 -0.2689 -1.1091
  303MOL0     C40812   8.225   9.485  10.186 -0.2119  0.3695  0.7416
  303MOL0     C40813   8.117   9.426  10.102 -0.7900 -1.2264 -0.8758
  303MOL0    Cl40814   8.068   9.263  10.139  0.5575 -0.5114 -0.5593
  303MOL0     C40815   8.172   9.438  10.934  0.1798 -0.8196  0.1226
  303MOL0     C40816   8.213   9.344  11.025  0.8796  0.4931 -0.1743
  303MOL0     O40817   8.461   9.262  11.178 -0.1101 -0.3317 -0.3128
  303MOL0     C40818   8.498   9.083  11.396  0.5526 -0.0058  1.3170
  303MOL0     C40819   8.513   8.997  11.506  0.1159 -0.5748  1.0719
  303MOL0     N40820   8.809   8.804  11.680  0.1949  0.6962 -0.5414
  303MOL0     N40821   8.857   8.832  11.564  0.8293  0.8008 -0.5142
  303MOL0     C40822   8.926   8.411  10.483  0.5566 -0.8076  0.8606
  303MOL0     C40823   8.852   8.423  10.366 -0.1136  0.2427 -0.6221
  303MOL0     C40824   8.576   8.521  10.029 -0.3024 -0.1713 -1.0124
  303MOL0     C40825   8.672   8.482   9.936  0.3321  0.2989  0.4340
  303MOL0     C40826   8.643   8.465   9.806 -0.5623  0.1936  0.1277
  303MOL0     C40827   8.515   8.497   9.762  0.4539  0.2636 -0.0653
  303MOL0     O40828   8.477   8.477   9.633  1.2552  0.2173  0.0987
  303MOL0     C40829   8.502   8.592   9.547 -0.5744 -0.1245  0.2798
  303MOL0     C40830   8.378   8.634   9.466 -0.2787  0.1267 -0.2163
  303MOL0     C40831   8.407   8.773   9.395  0.5251 -0.4941  0.7778
  303MOL0     C40832   8.535   8.793   9.315  1.0863 -0.7789  0.0764
  303MOL0     C40833   8.555   8.705   9.203  0.2908  0.3388 -0.4773
  303MOL0     C40834   8.551   8.635   9.109 -0.3696 -0.2916  0.1487
  303MOL0     C40835   8.422   8.531   9.852 -0.6654 -0.8240  0.2883
  303MOL0     C40836   8.445   8.546   9.986  0.6124  0.5314  0.5396
  303MOL0     C40837   8.324   8.620  10.064 -0.3481  0.7385 -0.8467
  303MOL0     H40838   8.812   8.759  10.339 -3.1852 -1.4014 -0.6060
  303MOL0     H40839   8.946   8.726  10.577  0.3876 -1.6829  2.2647
  303MOL0     H40840   8.972   8.365  10.765  0.5706  0.1818  2.0725
  303MOL0     H40841   9.112   8.326  10.657  0.1713  0.4363 -0.5835
  303MOL0     H40842   9.241   8.505  10.790 -0.0386  1.3724  0.7809
  303MOL0     H40843   9.228   8.355  10.880  1.0198  0.8566  0.7077
  303MOL0     H40844   9.017   8.429  10.983 -0.7267  0.9938 -0.8526
  303MOL0     H40845   9.029   8.588  10.911 -0.3570 -0.4339  0.7913
  303MOL0     H40846   9.239   8.452  11.083 -3.0576 -1.7512 -1.2405
  303MOL0     H40847   9.241   8.619  11.029  2.1368 -1.6912  1.5056
  303MOL0     H40848   9.024   8.524  11.218 -2.7935  2.4491 -1.2646
  303MOL0     H40849   9.183   8.592  11.277  1.4404 -1.6187 -2.3107
  303MOL0     H40850   9.113   8.806  11.161 -0.3490  0.5959  1.1082
  303MOL0     H40851   8.970   8.709  11.110 -0.6061 -1.9828  1.7569
  303MOL0     H40852   8.996   8.879  11.337  0.4154  1.1544 -1.9456
  303MOL0     H40853   9.033   8.722  11.401 -1.8225  2.9172  1.9947
  303MOL0     H40854   8.758   8.822  11.290  1.4642 -1.1128 -0.7593
  303MOL0     H40855   8.782   8.652  11.319  0.5854  0.6267 -1.1653
  303MOL0     H40856   8.633   8.578  11.508 -4.1036  2.3700  1.3216
  303MOL0     H40857   8.731   8.580  11.845  2.3427  2.9167 -0.3845
  303MOL0     H40858   8.641   8.719  11.875  4.5819  2.6923 -0.8573
  303MOL0     H40859   8.522   8.483  11.715 -2.2941 -0.3640 -0.5874
  303MOL0     H40860   8.506   8.519  11.891 -1.8453  2.1844  0.3756
  303MOL0     H40861   8.384   8.712  11.867 -0.0150 -2.2858  1.2707
  303MOL0     H40862   8.303   8.578  11.804  0.6188 -1.6321 -1.9402
  303MOL0     H40863   8.255   8.737  11.641 -1.1300  1.0369  3.6076
  303MOL0     H40864   8.385   8.639  11.569 -1.9103 -1.2309  1.4174
  303MOL0     H40865   8.233   8.820  11.450 -1.2369 -0.1221 -3.9538
  303MOL0     H40866   8.197   8.981  11.280 -2.3850  3.6439  2.0291
  303MOL0     H40867   8.285   9.092  10.827 -2.7060  0.6256 -0.6809
  303MOL0     H40868   8.210   9.247  10.656 -1.7111  0.0457 -0.0418
  303MOL0     H40869   7.967   9.647  10.650  0.0418  0.5228 -0.8866
  303MOL0     H40870   7.981   9.624  10.827 -3.7218  1.3058 -2.3258
  303MOL0     H40871   8.110   9.822  10.770 -1.3447  0.0919 -2.9418
  303MOL0     H40872   8.232   9.696  10.787 -0.6868  2.2828  1.8094
  303MOL0     H40873   8.125   9.758  10.515 -0.7040 -1.5045 -0.7024
  303MOL0     H40874   8.260   9.847  10.597  2.9768 -1.5064  2.8090
  303MOL0     H40875   8.288   9.545  10.568 -2.5466  0.5705  1.0737
  303MOL0     H40876   8.409   9.660  10.581 -1.2214  1.1193 -0.2719
  303MOL0     H40877   8.415   9.601  10.347 -0.2273 -1.2746  1.9496
  303MOL0     H40878   8.292   9.725  10.323 -0.9978 -0.9421 -2.1229
  303MOL0     H40879   8.184   9.444  10.393  1.7282 -1.9897 -3.1063
  303MOL0     H40880   8.096   9.583  10.346 -0.3119  0.1016  0.3956
  303MOL0     H40881   8.305   9.411  10.189  0.4327  1.0269  0.0182
  303MOL0     H40882   8.258   9.574  10.133 -0.2654  1.8811  3.1032
  303MOL0     H40883   8.045   9.509  10.101  1.9066  1.2535 -1.5011
  303MOL0     H40884   8.156   9.422  10.000  1.4608 -0.3697 -0.1018
  303MOL0     H40885   8.148   9.539  10.967  1.1617  0.0991 -1.8091
  303MOL0     H40886   8.223   9.367  11.131  1.5640  1.9055 -0.5270
  303MOL0     H40887   8.584   9.138  11.358 -0.4634  0.0238 -1.1046
  303MOL0     H40888   8.607   9.008  11.559  0.8106 -0.8829 -0.0661
  303MOL0     H40889   8.948   8.310  10.516  0.1313 -1.6342 -1.2426
  303MOL0     H40890   8.826   8.335  10.307 -0.5400  0.5617 -0.9118
  303MOL0     H40891   8.775   8.450   9.952  0.7693  1.4788  0.1398
  303MOL0     H40892   8.712   8.432   9.729  0.8219 -1.8125  2.0808
  303MOL0     H40893   8.592   8.578   9.486  1.3799  2.5733  2.2622
  303MOL0     H40894   8.534   8.679   9.605  0.5760 -0.3691  0.0356
  303MOL0     H40895   8.298   8.646   9.540 -0.2090 -1.6349  0.1919
  303MOL0     H40896   8.340   8.555   9.401  1.7154  0.8031 -2.3298
  303MOL0     H40897   8.401   8.853   9.469 -0.9740 -0.3686  0.5536
  303MOL0     H40898   8.323   8.784   9.326  0.0573 -2.0267  1.0476
  303MOL0     H40899   8.545   8.895   9.277  3.3306 -0.5252  1.2118
  303MOL0     H40900   8.617   8.779   9.386 -1.5013 -2.4833  2.9910
  303MOL0     H40901   8.561   8.563   9.030  1.2368  1.2820 -1.1706
  303MOL0     H40902   8.331   8.582   9.819  0.8498  1.7603 -0.2244
  303MOL0     H40903   8.236   8.635  10.001 -1.4056 -3.8047 -0.7503
  303MOL0     H40904   8.292   8.545  10.137 -1.1297 -0.2690 -2.1957
  303MOL0     H40905   8.350   8.710  10.121  2.5968  0.5995 -1.8081
  304MOL0     O40906   9.598   2.809   6.627  0.5632 -0.2174 -0.6829
  304MOL0     C40907   9.698   2.740   6.636 -1.1678 -0.0910  0.2776
  304MOL0     O40908   9.778   2.709   6.533 -0.1993  0.4743 -0.1578
  304MOL0     C40909   9.757   2.772   6.412  0.2371  0.2407  0.5961
  304MOL0     C40910   9.640   2.750   6.337  0.3849 -0.7284 -0.2156
  304MOL0     C40911   9.607   2.828   6.227 -0.1921  0.5211 -0.7858
  304MOL0     C40912   9.704   2.913   6.168  0.5346 -0.9000 -0.0472
  304MOL0     O40913   9.658   2.995   6.065 -0.7057  0.0105 -0.5313
  304MOL0     C40914   9.746   3.107   6.036 -0.0006  0.8598 -1.3280
  304MOL0     C40915   9.675   3.217   5.964 -0.3796 -0.4470  1.0378
  304MOL0     C40916   9.559   3.273   6.034  0.9403 -0.7322  0.2917
  304MOL0     C40917   9.600   3.342   6.165 -0.0221  0.9758 -0.0782
  304MOL0     C40918   9.547   3.262   6.285  0.8407 -0.0683  0.9264
  304MOL0     C40919   9.584   3.350   6.403 -0.6654 -0.3334 -0.0182
  304MOL0     C40920   9.542   3.276   6.528 -0.4283  0.1965 -0.4630
  304MOL0     C40921   9.614   3.150   6.568 -0.4075  0.9906  0.4883
  304MOL0     N40922   9.754   3.185   6.604 -0.8092  0.1962 -0.6162
  304MOL0     C40923   9.786   3.221   6.732  0.0813  1.3107 -0.0375
  304MOL0     C40924   9.921   3.221   6.730 -0.1752  0.2303 -0.0673
  304MOL0     C40925  10.015   3.231   6.857  0.4708 -0.1499 -0.1951
  304MOL0     C40926  10.007   3.368   6.926 -0.5901 -0.5120  0.5969
  304MOL0     C40927  10.140   3.416   6.995 -1.2543  0.9587  0.0452
  304MOL0     C40928  10.247   3.464   6.901  0.6574 -0.1915  0.6592
  304MOL0     O40929  10.359   3.514   6.979 -0.1808  0.5600  0.6148
  304MOL0     C40930  10.481   3.485   6.930 -0.3815  0.8409  0.2965
  304MOL0     C40931  10.526   3.511   6.800  0.4695 -0.6203 -0.2289
  304MOL0     C40932  10.658   3.499   6.755  0.5754  0.9390 -1.0967
  304MOL0     C40933  10.749   3.433   6.843  0.6847  0.3492 -0.1239
  304MOL0     C40934  10.892   3.408   6.801 -0.8017  0.3558 -0.1255
  304MOL0     O40935  10.937   3.460   6.686 -0.0081  0.0143  0.0743
  304MOL0     C40936  11.057   3.431   6.634 -1.2082  0.3250 -0.6114
  304MOL0     C40937  11.166   3.521   6.649  0.0183 -1.0241  0.2879
  304MOL0     C40938  11.287   3.491   6.607 -0.6221 -1.2018 -0.3603
  304MOL0     C40939  11.315   3.375   6.537  0.0722 -0.1657  0.2320
  304MOL0     O40940  11.435   3.322   6.501  0.2190 -0.2854  0.1809
  304MOL0     C40941  11.540   3.415   6.498  0.4920 -0.5682  0.0716
  304MOL0     C40942  11.649   3.346   6.416 -0.0545 -0.5245  0.5119
  304MOL0     C40943  11.726   3.243   6.505 -0.4203  0.6543  0.1929
  304MOL0     C40944  11.822   3.152   6.409 -0.3342 -0.5151 -0.7019
  304MOL0     C40945  11.921   3.058   6.481 -0.2079 -0.3188 -0.6361
  304MOL0     C40946  11.966   2.949   6.389 -0.1728 -0.1324  0.7095
  304MOL0     C40947  12.060   2.847   6.449  0.0916  0.3616 -0.6096
  304MOL0     C40948  12.194   2.833   6.383 -1.4756  0.1730 -0.6237
  304MOL0    Cl40949  12.292   2.988   6.377  0.1411  0.0048 -0.2593
  304MOL0     C40950  11.210   3.285   6.521  0.4691 -0.1001  0.4715
  304MOL0     C40951  11.083   3.311   6.581 -0.7563 -0.8763 -1.3921
  304MOL0     O40952  10.958   3.329   6.867  0.3955 -0.2559  0.6543
  304MOL0     C40953  10.708   3.408   6.972 -0.4278 -0.3149 -0.6450
  304MOL0     C40954  10.576   3.433   7.017  0.3561  0.8912  0.3572
  304MOL0     N40955   9.966   3.220   6.603 -0.2792  0.1830  0.0479
  304MOL0     N40956   9.871   3.189   6.533 -0.2604 -0.1166 -0.1555
  304MOL0     C40957   9.829   2.922   6.230 -0.1171  0.9269 -0.2990
  304MOL0     C40958   9.849   2.856   6.357 -0.3408 -0.3187 -0.8869
  304MOL0     C40959   9.713   2.666   6.761  0.3736  0.1182  0.4354
  304MOL0     C40960   9.716   2.522   6.750  0.5530  0.2618 -0.7721
  304MOL0     C40961   9.767   2.452   6.862 -0.1638 -0.1247  0.1147
  304MOL0     C40962   9.792   2.521   6.986  0.0926 -0.0902  0.0267
  304MOL0     O40963   9.855   2.444   7.086  0.5636  0.4603  0.0318
  304MOL0     C40964   9.872   2.493   7.222 -0.1875 -0.9220 -0.5878
  304MOL0     C40965   9.813   2.388   7.312  0.7475  1.0325 -0.4981
  304MOL0     C40966   9.668   2.370   7.291 -0.6505 -1.1057 -0.7523
  304MOL0     C40967   9.594   2.347   7.421 -0.4460  0.5294  0.2022
  304MOL0     C40968   9.446   2.348   7.401 -0.3243  0.8999 -0.1245
  304MOL0     C40969   9.322   2.343   7.385 -0.4646 -0.0094 -0.7056
  304MOL0     C40970   9.787   2.658   6.990 -0.3801 -0.1886  0.5995
  304MOL0     C40971   9.760   2.738   6.877 -0.1115  0.5323 -0.6004
  304MOL0     C40972   9.753   2.883   6.892  0.7855 -1.1274  0.6527
  304MOL0     H40973   9.567   2.678   6.374  0.0994 -0.1070  0.4528
  304MOL0     H40974   9.514   2.816   6.172 -0.6743  1.5634 -0.2072
  304MOL0     H40975   9.781   3.155   6.128 -2.0611  0.9265 -0.5217
  304MOL0     H40976   9.842   3.081   5.990  1.7022  3.0493  0.7056
  304MOL0     H40977   9.631   3.185   5.870  0.6475  0.2421  0.3060
  304MOL0     H40978   9.742   3.299   5.937 -0.7612 -1.2676 -2.8845
  304MOL0     H40979   9.476   3.204   6.049 -1.1862  1.5620 -0.1696
  304MOL0     H40980   9.513   3.348   5.969 -1.7005 -1.7608  0.8133
  304MOL0     H40981   9.708   3.359   6.167  0.5269 -0.6133 -4.4890
  304MOL0     H40982   9.558   3.443   6.160 -0.9081  0.5701 -1.2207
  304MOL0     H40983   9.439   3.255   6.271  1.2186  0.4746 -4.4252
  304MOL0     H40984   9.586   3.160   6.292  0.2716 -0.2820  1.0297
  304MOL0     H40985   9.692   3.366   6.413 -0.5658  2.6920 -3.7914
  304MOL0     H40986   9.535   3.448   6.400 -1.2753 -0.6358 -0.0626
  304MOL0     H40987   9.439   3.247   6.506 -0.3943 -0.9910  0.8087
  304MOL0     H40988   9.563   3.338   6.615  1.1733 -1.2615  0.2625
  304MOL0     H40989   9.566   3.093   6.647 -0.6376  0.3985 -0.0645
  304MOL0     H40990   9.635   3.084   6.483 -0.5490  0.9786  0.4630
  304MOL0     H40991   9.720   3.221   6.818  3.0909 -0.0772  2.4516
  304MOL0     H40992   9.989   3.140   6.912  0.2441  1.6966  2.9553
  304MOL0     H40993  10.113   3.217   6.809  0.2071 -0.6281 -0.6040
  304MOL0     H40994   9.988   3.452   6.858  3.6879 -0.3713 -0.7534
  304MOL0     H40995   9.920   3.364   6.992 -1.1313  4.5284  0.5451
  304MOL0     H40996  10.167   3.322   7.044 -0.1481  2.1867  1.9022
  304MOL0     H40997  10.115   3.491   7.070 -4.1371 -1.4912  1.7505
  304MOL0     H40998  10.205   3.546   6.842  1.3002  0.2797  0.8474
  304MOL0     H40999  10.271   3.390   6.824  0.4001  1.0436 -0.6463
  304MOL0     H41000  10.446   3.535   6.730  0.9627 -0.6779 -0.8156
  304MOL0     H41001  10.686   3.526   6.654  0.6887  2.0959 -0.7721
  304MOL0     H41002  11.147   3.613   6.702  1.6261 -1.2998  1.4622
  304MOL0     H41003  11.358   3.569   6.634 -2.5973  0.7166 -0.4294
  304MOL0     H41004  11.508   3.507   6.449 -0.4786 -0.4123  0.9689
  304MOL0     H41005  11.583   3.455   6.590 -0.9181 -0.9398  0.9235
  304MOL0     H41006  11.595   3.304   6.330  0.6919  2.5633 -1.6289
  304MOL0     H41007  11.714   3.417   6.365 -0.6626 -1.3256 -1.5020
  304MOL0     H41008  11.771   3.315   6.574  0.5054  1.5588 -1.2880
  304MOL0     H41009  11.668   3.172   6.564  2.6294  0.7296  3.5533
  304MOL0     H41010  11.863   3.216   6.330 -0.7601  0.5730 -0.0642
  304MOL0     H41011  11.760   3.085   6.349  2.1636 -3.7162 -0.0213
  304MOL0     H41012  11.878   3.002   6.565  3.1521  0.0606  1.5199
  304MOL0     H41013  12.003   3.114   6.526 -0.6475  2.2505 -2.7852
  304MOL0     H41014  11.876   2.908   6.343  0.1754  0.4325 -0.5512
  304MOL0     H41015  12.010   3.006   6.306 -1.1313 -3.0430 -1.9675
  304MOL0     H41016  12.021   2.746   6.435  1.7724  0.1049 -4.6689
  304MOL0     H41017  12.078   2.865   6.556  2.3437 -1.9312 -0.5306
  304MOL0     H41018  12.251   2.751   6.430  1.9587  1.0229 -2.8897
  304MOL0     H41019  12.166   2.797   6.283 -2.3324 -0.6133 -0.1143
  304MOL0     H41020  11.229   3.187   6.477 -0.2893  0.0777 -0.2973
  304MOL0     H41021  10.997   3.245   6.579 -0.7885 -0.9220  0.4779
  304MOL0     H41022  10.769   3.354   7.043  0.1261  2.2740  0.9965
  304MOL0     H41023  10.553   3.414   7.122  1.2077  1.9381  0.7568
  304MOL0     H41024   9.915   2.972   6.188  1.7687 -2.9439 -1.5515
  304MOL0     H41025   9.943   2.864   6.411  1.2305 -0.0338 -3.4990
  304MOL0     H41026   9.685   2.470   6.660  0.3960  0.0190 -0.5787
  304MOL0     H41027   9.787   2.346   6.870  3.9534  0.0897 -3.4609
  304MOL0     H41028   9.833   2.593   7.240  1.5240 -0.5160  1.1660
  304MOL0     H41029   9.981   2.492   7.233 -0.1831  0.9295 -0.2812
  304MOL0     H41030   9.833   2.415   7.417 -1.0954 -0.2919  0.2342
  304MOL0     H41031   9.860   2.291   7.295  1.2460  1.4054 -1.2951
  304MOL0     H41032   9.641   2.295   7.217 -1.6037 -2.2554  0.7030
  304MOL0     H41033   9.616   2.460   7.255  0.5014 -0.4122 -0.7234
  304MOL0     H41034   9.639   2.256   7.461  0.3689 -0.2025 -2.1972
  304MOL0     H41035   9.610   2.437   7.481  1.3953  0.1459  0.3362
  304MOL0     H41036   9.219   2.349   7.357 -0.6327  2.8347  0.2150
  304MOL0     H41037   9.817   2.716   7.077 -0.4694  0.7209  0.0352
  304MOL0     H41038   9.743   2.900   7.000  0.9371  2.4840  0.2043
  304MOL0     H41039   9.838   2.931   6.844  0.9938  0.8839  2.8674
  304MOL0     H41040   9.669   2.920   6.833  0.6991  0.2258  1.6024
  305MOL0     O41041   0.129   0.247   3.218  0.0521  0.2299  0.1438
  305MOL0     C41042   0.229   0.271   3.286  0.2930 -0.1303 -0.4232
  305MOL0     O41043   0.342   0.194   3.276  0.2385 -0.6143 -0.2615
  305MOL0     C41044   0.324   0.061   3.252 -0.1890 -0.3820 -1.3636
  305MOL0     C41045   0.227  -0.018   3.311 -0.0129 -0.1333  0.0930
  305MOL0     C41046   0.225  -0.164   3.304 -0.0217 -0.6416 -0.8658
  305MOL0     C41047   0.311  -0.220   3.208 -0.3259 -0.9636 -0.0485
  305MOL0     O41048   0.325  -0.359   3.197  0.4615  0.0508 -0.3423
  305MOL0     C41049   0.239  -0.433   3.277  0.3101 -0.5818 -0.1485
  305MOL0     C41050   0.219  -0.561   3.193 -0.8826  0.7230 -0.2004
  305MOL0     C41051   0.104  -0.525   3.100  0.0775 -0.4159  0.1714
  305MOL0     C41052   0.019  -0.649   3.053  0.4600  0.2736 -0.5700
  305MOL0     C41053  -0.061  -0.621   2.930  0.5929  0.2786  0.5043
  305MOL0     C41054  -0.155  -0.737   2.900  1.2304 -0.0641 -1.1106
  305MOL0     C41055  -0.097  -0.886   2.909 -0.1326  0.0932 -0.3576
  305MOL0     C41056  -0.198  -0.997   2.880 -0.3345 -0.1251 -0.4501
  305MOL0     N41057  -0.167  -1.121   2.948 -0.5173  0.5740  0.0769
  305MOL0     C41058  -0.037  -1.173   2.958  0.3150 -0.5881  0.2646
  305MOL0     C41059  -0.047  -1.303   2.998  0.5091  0.0615 -0.1221
  305MOL0     C41060   0.063  -1.408   3.014  0.0572 -0.1437  0.2434
  305MOL0     C41061   0.057  -1.520   2.911  0.9532 -0.1544 -1.5805
  305MOL0     C41062   0.185  -1.597   2.907 -0.6345  0.0685  0.5983
  305MOL0     C41063   0.250  -1.641   3.041  0.0764  0.2445 -0.1585
  305MOL0     O41064   0.368  -1.714   3.012 -0.1256  0.0935  1.1061
  305MOL0     C41065   0.489  -1.656   3.002  0.4947  0.3888 -0.7277
  305MOL0     C41066   0.533  -1.543   3.072  0.3294  0.0297 -0.3162
  305MOL0     C41067   0.663  -1.505   3.055  0.5265  0.4537 -0.4866
  305MOL0     C41068   0.754  -1.568   2.973  0.0209 -0.1465 -0.4915
  305MOL0     C41069   0.896  -1.521   2.959  0.5305 -0.4129  0.8277
  305MOL0     O41070   0.985  -1.598   2.898 -0.5965  0.7219 -0.1328
  305MOL0     C41071   1.129  -1.577   2.892  0.2231 -0.1563  0.3091
  305MOL0     C41072   1.185  -1.469   2.825 -0.7227 -1.0518 -0.7083
  305MOL0     C41073   1.330  -1.457   2.823  0.4521 -0.1027  1.0368
  305MOL0     C41074   1.410  -1.551   2.887 -0.5890 -1.2484 -0.9920
  305MOL0     O41075   1.545  -1.537   2.898 -0.1482  0.4138 -0.3132
  305MOL0     C41076   1.591  -1.409   2.950  0.4308  0.4489  0.5169
  305MOL0     C41077   1.727  -1.406   3.002 -0.2623  0.4305  0.4548
  305MOL0     C41078   1.759  -1.511   3.114 -0.4197  0.9426 -0.4197
  305MOL0     C41079   1.912  -1.498   3.160  0.3068  0.0468  0.5519
  305MOL0     C41080   1.940  -1.364   3.232 -0.2287 -0.0875 -0.9425
  305MOL0     C41081   2.098  -1.333   3.249  0.3663  0.0887  0.3909
  305MOL0     C41082   2.185  -1.324   3.125 -0.6598 -0.2921 -0.3098
  305MOL0     C41083   2.122  -1.243   3.025 -0.0252 -0.4043  0.0374
  305MOL0    Cl41084   2.248  -1.160   2.916 -0.1632 -0.2052  0.1433
  305MOL0     C41085   1.353  -1.671   2.944 -0.6138 -0.1996 -0.4010
  305MOL0     C41086   1.216  -1.677   2.945  0.1239 -0.3521  0.6195
  305MOL0     O41087   0.918  -1.408   3.005  0.3418  0.7711 -0.2425
  305MOL0     C41088   0.707  -1.681   2.901  0.5253 -0.2734  0.4287
  305MOL0     C41089   0.575  -1.726   2.912 -0.4164 -0.0287 -0.8970
  305MOL0     N41090  -0.187  -1.323   3.016  0.2373 -0.6865 -0.3445
  305MOL0     N41091  -0.260  -1.219   2.980 -0.3678 -0.0059  0.3571
  305MOL0     C41092   0.405  -0.138   3.136  0.5288 -0.1233 -0.3008
  305MOL0     C41093   0.412   0.002   3.157 -0.2198 -0.3068  0.3274
  305MOL0     C41094   0.237   0.392   3.373  0.2167  0.5586 -0.0480
  305MOL0     C41095   0.362   0.423   3.421  0.6517  0.0303 -0.2229
  305MOL0     C41096   0.379   0.521   3.525  0.3374 -0.3680  0.7174
  305MOL0     C41097   0.270   0.591   3.576  0.7769  1.3698  0.5729
  305MOL0     O41098   0.291   0.695   3.662  0.1552  0.1390 -0.5417
  305MOL0     C41099   0.187   0.792   3.708 -0.4214 -0.4070  0.0541
  305MOL0     C41100   0.106   0.728   3.820  1.2680 -0.1506  0.6449
  305MOL0     C41101   0.189   0.649   3.925 -0.8054 -0.3916 -0.2325
  305MOL0     C41102   0.105   0.581   4.035 -0.7965 -0.0075  0.8171
  305MOL0     C41103   0.008   0.678   4.089  0.4298 -0.6909  0.3962
  305MOL0     C41104  -0.066   0.769   4.123 -0.5254 -0.5103  0.0025
  305MOL0     C41105   0.145   0.574   3.510 -0.0605  0.0354 -0.2911
  305MOL0     C41106   0.128   0.480   3.402 -0.3405  0.7870  0.0675
  305MOL0     C41107   0.001   0.479   3.321 -0.1319 -0.1996 -0.5414
  305MOL0     H41108   0.154   0.025   3.380 -0.8078 -1.5738  0.1936
  305MOL0     H41109   0.165  -0.220   3.375  0.6442  1.1604  1.2207
  305MOL0     H41110   0.280  -0.459   3.375 -0.6709 -0.3122  0.3389
  305MOL0     H41111   0.144  -0.383   3.294 -0.1842 -1.4917 -0.1603
  305MOL0     H41112   0.178  -0.636   3.262 -0.5875 -0.3366 -1.1489
  305MOL0     H41113   0.305  -0.592   3.133 -2.0899  1.6016 -2.5494
  305MOL0     H41114   0.157  -0.490   3.012  1.1681 -0.7583  0.6749
  305MOL0     H41115   0.032  -0.448   3.130 -1.4809 -1.0809 -1.6707
  305MOL0     H41116   0.088  -0.734   3.044 -0.4399 -1.0163  2.9650
  305MOL0     H41117  -0.050  -0.678   3.133 -0.0543  0.5743 -0.8995
  305MOL0     H41118  -0.128  -0.534   2.935 -1.2624 -1.0280 -0.4045
  305MOL0     H41119   0.006  -0.607   2.845  3.3514 -5.7934  1.1477
  305MOL0     H41120  -0.239  -0.744   2.970  0.8296 -2.0028 -1.7443
  305MOL0     H41121  -0.194  -0.726   2.798  2.3628 -1.4921 -1.7268
  305MOL0     H41122  -0.079  -0.901   3.016  0.5328  3.3618  0.0944
  305MOL0     H41123  -0.009  -0.898   2.845 -1.8768  3.3688 -3.8042
  305MOL0     H41124  -0.300  -0.963   2.902 -0.5779  0.0590 -1.7828
  305MOL0     H41125  -0.194  -1.013   2.772  1.1544 -2.4497 -0.1340
  305MOL0     H41126   0.056  -1.127   2.925  0.0420 -1.1647 -1.4499
  305MOL0     H41127   0.158  -1.357   2.999 -0.6890  1.0854 -0.4678
  305MOL0     H41128   0.055  -1.447   3.116  0.0923  0.8135  0.6184
  305MOL0     H41129  -0.022  -1.590   2.940 -1.1498  2.6588  0.0895
  305MOL0     H41130   0.021  -1.470   2.820 -0.4305 -2.7687 -2.5553
  305MOL0     H41131   0.264  -1.552   2.846  1.6070 -3.9814  0.1385
  305MOL0     H41132   0.165  -1.686   2.846  3.0491  0.9248 -2.2234
  305MOL0     H41133   0.177  -1.705   3.093 -0.3968 -1.5158 -2.7914
  305MOL0     H41134   0.263  -1.558   3.110 -3.7907 -0.5409  1.8288
  305MOL0     H41135   0.470  -1.483   3.137  0.3258  1.3374 -1.4789
  305MOL0     H41136   0.708  -1.424   3.111 -0.9429 -0.3653  2.0311
  305MOL0     H41137   1.120  -1.397   2.776 -1.0581 -0.0600  1.0901
  305MOL0     H41138   1.365  -1.372   2.766  0.0383 -0.9443 -0.5118
  305MOL0     H41139   1.577  -1.334   2.872 -0.4631  0.0535  0.2879
  305MOL0     H41140   1.512  -1.390   3.023 -2.0920 -0.3303 -1.8378
  305MOL0     H41141   1.796  -1.422   2.918 -1.5487  1.9424 -0.9665
  305MOL0     H41142   1.751  -1.311   3.049  3.7604 -0.8201  1.3241
  305MOL0     H41143   1.688  -1.494   3.195 -1.3561 -0.4342 -0.9298
  305MOL0     H41144   1.746  -1.609   3.069 -1.0179  0.7386  0.1882
  305MOL0     H41145   1.975  -1.506   3.071 -1.0324  0.2299 -0.4299
  305MOL0     H41146   1.951  -1.563   3.240  3.8451  0.6659 -0.4782
  305MOL0     H41147   1.888  -1.370   3.329  1.0341  1.9152 -0.0980
  305MOL0     H41148   1.916  -1.270   3.181  0.5962  1.9891  2.2242
  305MOL0     H41149   2.095  -1.236   3.300 -0.3952 -0.4157  1.3480
  305MOL0     H41150   2.153  -1.404   3.312  1.4502 -0.1481 -0.7699
  305MOL0     H41151   2.202  -1.428   3.094  1.6787  0.0848 -0.5001
  305MOL0     H41152   2.278  -1.278   3.161 -1.5548  1.4265 -0.0938
  305MOL0     H41153   2.059  -1.306   2.961  1.7191 -2.0107 -0.1615
  305MOL0     H41154   2.054  -1.171   3.072 -1.3669 -1.4356 -0.2625
  305MOL0     H41155   1.414  -1.745   2.994  1.6814  0.6836 -1.7489
  305MOL0     H41156   1.167  -1.755   3.003  0.0100  0.5319  1.7450
  305MOL0     H41157   0.766  -1.732   2.825 -2.0153 -1.7012 -0.7420
  305MOL0     H41158   0.526  -1.811   2.865  0.4330 -1.0715  0.0198
  305MOL0     H41159   0.478  -0.191   3.075  0.4958  0.0145 -0.4627
  305MOL0     H41160   0.483   0.063   3.103 -1.0143 -0.4955 -0.9851
  305MOL0     H41161   0.453   0.367   3.400  2.5655  2.6088  0.5512
  305MOL0     H41162   0.478   0.544   3.562 -1.1041  2.3790  3.3791
  305MOL0     H41163   0.119   0.833   3.633 -2.0211 -0.3373  1.4530
  305MOL0     H41164   0.236   0.877   3.756  0.6602 -0.0790 -1.5829
  305MOL0     H41165   0.018   0.676   3.783  0.9422  2.3220 -2.4106
  305MOL0     H41166   0.060   0.816   3.866 -0.6123 -1.0027  0.4671
  305MOL0     H41167   0.268   0.707   3.974 -0.6366  0.1417 -1.0993
  305MOL0     H41168   0.250   0.572   3.876  0.4198  0.8422 -0.7297
  305MOL0     H41169   0.061   0.487   3.999  1.0454 -0.3841 -0.5987
  305MOL0     H41170   0.176   0.552   4.113  0.2729  2.4392  0.8345
  305MOL0     H41171  -0.133   0.849   4.146  0.5981  0.7848 -1.0797
  305MOL0     H41172   0.067   0.647   3.525  1.5920  1.6506  0.8971
  305MOL0     H41173  -0.021   0.584   3.298  0.1057  1.2193  4.4157
  305MOL0     H41174  -0.008   0.425   3.227 -0.9669  0.7980 -1.0657
  305MOL0     H41175  -0.070   0.442   3.395  0.9693  1.8332  1.6805
  306MOL0     O41176   1.436   1.116   5.500  0.0039  0.4236 -0.1467
  306MOL0     C41177   1.542   1.059   5.490  0.7158 -0.2682  0.1929
  306MOL0     O41178   1.607   1.026   5.379 -0.2029 -0.8903 -0.3382
  306MOL0     C41179   1.563   1.066   5.256  0.4940  0.2452  1.2677
  306MOL0     C41180   1.430   1.094   5.215  0.9974  0.2341 -0.5510
  306MOL0     C41181   1.413   1.139   5.091  0.0633 -0.0964  0.4872
  306MOL0     C41182   1.515   1.168   5.004  0.7451 -0.0406 -0.6449
  306MOL0     O41183   1.487   1.210   4.877  0.2154 -0.9738  0.8341
  306MOL0     C41184   1.578   1.212   4.764 -0.4022 -0.1964  0.1246
  306MOL0     C41185   1.482   1.222   4.647 -0.8454  0.1683 -0.2243
  306MOL0     C41186   1.566   1.226   4.527 -0.6984 -0.6396  0.1615
  306MOL0     C41187   1.503   1.183   4.394  0.7377  0.4226 -0.2653
  306MOL0     C41188   1.581   1.227   4.263 -0.5906  0.0763 -0.0903
  306MOL0     C41189   1.539   1.366   4.240 -0.0870 -0.1555 -1.2105
  306MOL0     C41190   1.552   1.404   4.083 -1.1451  0.9079 -0.8359
  306MOL0     C41191   1.693   1.392   4.026  0.4861  0.8819 -0.5106
  306MOL0     N41192   1.688   1.404   3.884  0.3928 -0.0010 -0.1263
  306MOL0     C41193   1.666   1.528   3.821  0.3669 -0.0156 -0.8749
  306MOL0     C41194   1.669   1.493   3.686 -0.5834 -0.2943 -0.3372
  306MOL0     C41195   1.659   1.618   3.590 -0.3222  0.9550  0.4669
  306MOL0     C41196   1.774   1.610   3.490  0.0610  0.2913  0.1372
  306MOL0     C41197   1.784   1.741   3.422  1.2379  0.1987 -0.1160
  306MOL0     C41198   1.671   1.763   3.313 -0.1164 -0.2796  0.0352
  306MOL0     O41199   1.662   1.668   3.209 -0.6343  0.1765 -0.4430
  306MOL0     C41200   1.739   1.684   3.099  0.5534  0.2399 -0.0254
  306MOL0     C41201   1.696   1.629   2.982  0.1944  0.3151 -0.7776
  306MOL0     C41202   1.756   1.658   2.863 -0.7653 -0.7522 -0.1597
  306MOL0     C41203   1.878   1.731   2.860 -0.3085  0.3296  1.0436
  306MOL0     C41204   1.957   1.765   2.732 -0.0068 -0.2595 -0.1641
  306MOL0     O41205   2.060   1.846   2.742 -0.1676 -0.8587  0.8401
  306MOL0     C41206   2.125   1.860   2.626 -0.8073  0.2539  0.1938
  306MOL0     C41207   2.241   1.790   2.601  0.3782 -0.6992  0.6139
  306MOL0     C41208   2.306   1.817   2.476  0.3686  0.4270  0.0571
  306MOL0     C41209   2.269   1.904   2.379 -0.1423 -0.2088 -0.0677
  306MOL0     O41210   2.347   1.917   2.266  0.1016  0.4242  0.4558
  306MOL0     C41211   2.325   2.028   2.174 -0.0493  0.7464  0.4706
  306MOL0     C41212   2.362   2.155   2.240 -0.2442 -0.0484 -0.6670
  306MOL0     C41213   2.507   2.214   2.232 -0.1063  0.3808  0.5093
  306MOL0     C41214   2.500   2.355   2.279 -0.2848  0.0494 -0.4486
  306MOL0     C41215   2.619   2.448   2.242  0.4977  0.4885 -0.2494
  306MOL0     C41216   2.583   2.594   2.271  0.3268  0.1551 -0.6594
  306MOL0     C41217   2.667   2.683   2.180 -0.4869 -0.4640 -0.7896
  306MOL0     C41218   2.646   2.819   2.221  0.4459 -0.5132  0.3853
  306MOL0    Cl41219   2.687   2.908   2.072 -0.2406  0.2519  0.0501
  306MOL0     C41220   2.156   1.971   2.402 -0.4928 -0.7888  0.1783
  306MOL0     C41221   2.083   1.948   2.524  0.1794 -0.0142 -0.1294
  306MOL0     O41222   1.927   1.705   2.629 -0.4495  0.2349 -0.0319
  306MOL0     C41223   1.921   1.783   2.974 -0.1920 -0.3599 -0.9350
  306MOL0     C41224   1.850   1.766   3.095 -0.2659  0.9410  0.3314
  306MOL0     N41225   1.684   1.358   3.676 -0.0613  0.9550 -0.2192
  306MOL0     N41226   1.698   1.302   3.793  0.0384 -0.6573  0.3695
  306MOL0     C41227   1.646   1.126   5.040 -0.6159  1.0304  0.1243
  306MOL0     C41228   1.671   1.078   5.166  0.5747 -0.7972  1.1242
  306MOL0     C41229   1.601   0.990   5.611  0.6241  0.3929  0.8470
  306MOL0     C41230   1.593   0.852   5.598  0.5009  0.9099  0.0536
  306MOL0     C41231   1.645   0.774   5.697  0.6071  0.3398 -0.2264
  306MOL0     C41232   1.703   0.837   5.807  0.8283  0.4476  0.2809
  306MOL0     O41233   1.755   0.748   5.893  0.2440  0.2198  0.1186
  306MOL0     C41234   1.774   0.790   6.032  0.4046  0.2490 -0.6277
  306MOL0     C41235   1.786   0.668   6.134  0.0461  0.3667 -0.4281
  306MOL0     C41236   1.810   0.711   6.278  0.2411 -0.2890  0.6364
  306MOL0     C41237   1.845   0.590   6.361  0.3525 -0.2239 -0.3928
  306MOL0     C41238   1.741   0.485   6.351 -0.1569  0.3359 -0.3479
  306MOL0     C41239   1.675   0.384   6.320  0.8912  0.7967  0.5048
  306MOL0     C41240   1.700   0.980   5.820 -0.7404  0.0330 -0.0858
  306MOL0     C41241   1.657   1.056   5.718  0.7459  0.3201 -1.0235
  306MOL0     C41242   1.659   1.207   5.733  0.1310  1.0455  0.3802
  306MOL0     H41243   1.340   1.076   5.272  1.7282 -0.6139  0.3653
  306MOL0     H41244   1.308   1.144   5.066  0.1175  1.0845  0.4589
  306MOL0     H41245   1.641   1.301   4.771 -2.8346  1.6394 -0.1494
  306MOL0     H41246   1.645   1.126   4.754  0.8277  0.6405  0.7948
  306MOL0     H41247   1.417   1.308   4.662 -0.9937  0.0396 -0.1244
  306MOL0     H41248   1.431   1.125   4.642  2.5130 -1.7988  0.2844
  306MOL0     H41249   1.659   1.168   4.535  0.1869  0.4116 -1.8428
  306MOL0     H41250   1.594   1.328   4.502  3.2386 -2.3014 -3.3209
  306MOL0     H41251   1.493   1.074   4.395 -0.8838  0.3192 -4.6794
  306MOL0     H41252   1.401   1.222   4.397 -0.2445 -2.0151  3.1020
  306MOL0     H41253   1.690   1.218   4.266 -0.4069  1.0535 -2.2376
  306MOL0     H41254   1.548   1.161   4.182  0.1939 -0.2083 -0.1844
  306MOL0     H41255   1.437   1.382   4.276 -0.2539 -0.5378 -1.5216
  306MOL0     H41256   1.601   1.429   4.305 -2.4915  1.3548 -0.2376
  306MOL0     H41257   1.517   1.506   4.067  0.6903  1.6750 -0.3252
  306MOL0     H41258   1.486   1.334   4.032 -0.6086 -0.8418  0.7530
  306MOL0     H41259   1.763   1.467   4.065 -0.1211  0.6956  1.0202
  306MOL0     H41260   1.726   1.289   4.043  1.2728  0.7395 -2.6528
  306MOL0     H41261   1.643   1.622   3.870  1.6994  1.1856 -2.4463
  306MOL0     H41262   1.563   1.609   3.539  0.2606 -0.3098 -0.4476
  306MOL0     H41263   1.658   1.704   3.659 -1.7100 -0.1505  1.9201
  306MOL0     H41264   1.877   1.595   3.526  1.0701  0.2952 -2.5107
  306MOL0     H41265   1.746   1.533   3.418  1.1468  0.6713 -0.7223
  306MOL0     H41266   1.884   1.754   3.379  1.6127 -1.2250  0.2984
  306MOL0     H41267   1.763   1.822   3.493 -2.9929  0.0517 -0.9746
  306MOL0     H41268   1.685   1.864   3.273  0.1696 -0.8863 -1.4545
  306MOL0     H41269   1.579   1.765   3.372  0.8235  2.2684  1.5724
  306MOL0     H41270   1.614   1.558   2.986 -0.8141  1.4844  2.2778
  306MOL0     H41271   1.726   1.623   2.765 -0.0581  1.9155 -1.4416
  306MOL0     H41272   2.270   1.708   2.665  1.0160 -1.2889 -0.4030
  306MOL0     H41273   2.393   1.759   2.450  1.3694  1.7543  0.3589
  306MOL0     H41274   2.391   2.016   2.088 -1.2506 -1.0217 -0.2887
  306MOL0     H41275   2.224   2.024   2.131 -0.2355 -1.5052  0.9706
  306MOL0     H41276   2.292   2.232   2.206 -1.0385  0.0772  1.1330
  306MOL0     H41277   2.335   2.137   2.345  1.1401 -2.4098 -0.6477
  306MOL0     H41278   2.586   2.157   2.281  1.7733  0.6305 -2.0533
  306MOL0     H41279   2.533   2.215   2.126  0.3497  0.3001  0.6203
  306MOL0     H41280   2.481   2.351   2.387  0.2008  0.1324 -0.3537
  306MOL0     H41281   2.414   2.389   2.222  0.3055 -0.9582 -2.0081
  306MOL0     H41282   2.643   2.437   2.136  2.2410  2.9154 -0.1931
  306MOL0     H41283   2.705   2.411   2.298 -1.2011  0.1042  2.3044
  306MOL0     H41284   2.475   2.612   2.271  0.4703  1.1447  0.0229
  306MOL0     H41285   2.630   2.619   2.367 -1.1670  2.2521 -0.3971
  306MOL0     H41286   2.626   2.662   2.080 -1.2518 -1.1475 -0.3453
  306MOL0     H41287   2.771   2.651   2.184 -0.2819  0.3147  0.2578
  306MOL0     H41288   2.539   2.834   2.236  0.5636  2.1544 -0.9295
  306MOL0     H41289   2.701   2.855   2.308  0.7041 -0.9798  0.4149
  306MOL0     H41290   2.130   2.039   2.322  1.6797 -2.4422 -2.1131
  306MOL0     H41291   1.996   2.004   2.556  0.7045  0.8558 -0.1768
  306MOL0     H41292   2.005   1.852   2.965  0.4400 -0.5626  2.2527
  306MOL0     H41293   1.894   1.824   3.176 -0.9554  3.5288 -1.0145
  306MOL0     H41294   1.726   1.126   4.967  1.6072 -2.1287  2.2520
  306MOL0     H41295   1.769   1.046   5.202  0.8040  2.0039  3.3859
  306MOL0     H41296   1.547   0.805   5.512 -0.8289  1.2076  0.5829
  306MOL0     H41297   1.654   0.667   5.683 -0.3842  0.0098  1.3935
  306MOL0     H41298   1.699   0.865   6.059 -0.5413 -0.4596 -1.2700
  306MOL0     H41299   1.877   0.830   6.034  0.4111  0.2428 -0.7986
  306MOL0     H41300   1.867   0.603   6.102  1.7576  2.3011 -0.1981
  306MOL0     H41301   1.695   0.607   6.131 -0.0580  0.4074  1.1723
  306MOL0     H41302   1.715   0.752   6.315  0.7594  0.7243  0.8626
  306MOL0     H41303   1.884   0.791   6.284  0.2602 -0.1853 -0.6488
  306MOL0     H41304   1.946   0.554   6.339  0.0245 -4.2312  3.2358
  306MOL0     H41305   1.855   0.628   6.463  0.2464  1.3915 -0.9673
  306MOL0     H41306   1.618   0.306   6.274  2.6955 -1.6591  2.1748
  306MOL0     H41307   1.733   1.031   5.910 -1.6431  1.6177 -0.6130
  306MOL0     H41308   1.752   1.245   5.691  0.5977 -1.7129 -1.3372
  306MOL0     H41309   1.594   1.259   5.662 -0.6955  0.3606  0.6148
  306MOL0     H41310   1.642   1.237   5.837  3.7259  2.4598  0.6910
  307MOL0     O41311   4.185   4.014   8.869 -1.1138  0.0842 -0.1240
  307MOL0     C41312   4.120   3.955   8.954  0.2103 -1.0260  1.1158
  307MOL0     O41313   4.091   3.823   8.960 -0.0952 -0.6224 -0.5034
  307MOL0     C41314   4.167   3.738   8.883  0.3429  0.4205 -0.1015
  307MOL0     C41315   4.134   3.720   8.750 -0.7153 -0.4274  0.2407
  307MOL0     C41316   4.203   3.639   8.668 -0.2980  0.7239 -0.6095
  307MOL0     C41317   4.306   3.561   8.721  1.4436 -0.4822  1.0402
  307MOL0     O41318   4.362   3.472   8.634 -0.6593 -0.1070  0.0767
  307MOL0     C41319   4.477   3.404   8.675 -0.2025 -0.0445 -0.8089
  307MOL0     C41320   4.537   3.354   8.540  0.7433 -0.4801  0.1408
  307MOL0     C41321   4.580   3.471   8.442 -0.1939 -0.8992 -0.3799
  307MOL0     C41322   4.621   3.411   8.313  0.2036 -0.4380  0.2892
  307MOL0     C41323   4.648   3.524   8.211 -0.3101 -0.7708 -0.3598
  307MOL0     C41324   4.619   3.486   8.059 -0.4852  0.0534  0.2083
  307MOL0     C41325   4.713   3.377   8.021 -0.4220 -0.0645  0.0258
  307MOL0     C41326   4.704   3.356   7.867 -0.0893 -0.5234 -0.2759
  307MOL0     N41327   4.801   3.249   7.825  0.3005 -0.3297  0.5338
  307MOL0     C41328   4.841   3.139   7.890 -0.6450  0.4511  0.4884
  307MOL0     C41329   4.928   3.075   7.809 -0.2604 -0.2708  0.5931
  307MOL0     C41330   5.003   2.946   7.829  0.2670 -0.9183 -1.0734
  307MOL0     C41331   5.073   2.907   7.699  1.0432  1.0952  0.3937
  307MOL0     C41332   5.153   2.779   7.718 -0.2840 -0.1047 -1.3397
  307MOL0     C41333   5.240   2.742   7.599 -1.0006 -0.1705 -0.9430
  307MOL0     O41334   5.267   2.603   7.602 -0.0904 -0.4571  0.5535
  307MOL0     C41335   5.354   2.570   7.496 -0.5454 -0.1375 -0.1320
  307MOL0     C41336   5.381   2.431   7.486 -0.7313 -0.0808  0.4931
  307MOL0     C41337   5.487   2.383   7.411  0.4889  0.0742 -0.0989
  307MOL0     C41338   5.570   2.470   7.333  0.2460 -0.3086 -0.1602
  307MOL0     C41339   5.677   2.420   7.252  0.3545  0.4656  0.4802
  307MOL0     O41340   5.766   2.507   7.199 -0.0266  0.4179 -0.1898
  307MOL0     C41341   5.851   2.477   7.090 -0.1028  0.1419 -1.6067
  307MOL0     C41342   5.975   2.534   7.093 -0.5750 -0.4687  0.5709
  307MOL0     C41343   6.067   2.503   6.997  0.1432  0.3663 -0.1418
  307MOL0     C41344   6.035   2.416   6.893  0.1331  0.5606 -0.1597
  307MOL0     O41345   6.113   2.394   6.787  0.0264 -0.5748 -0.3278
  307MOL0     C41346   6.242   2.459   6.766  0.1519 -0.2093 -0.2935
  307MOL0     C41347   6.292   2.407   6.637 -0.3827 -0.8852 -0.2863
  307MOL0     C41348   6.435   2.465   6.606  0.2042  0.6989  0.3856
  307MOL0     C41349   6.477   2.425   6.474 -0.5260  0.1025 -0.1887
  307MOL0     C41350   6.632   2.452   6.452  0.8666 -0.2242 -0.0434
  307MOL0     C41351   6.669   2.585   6.385  0.0905 -0.0033 -1.0405
  307MOL0     C41352   6.822   2.599   6.367 -1.6859  0.1960 -0.1151
  307MOL0     C41353   6.888   2.580   6.223 -0.1769  0.3523  0.7293
  307MOL0    Cl41354   6.800   2.445   6.156  0.1142 -0.4290  0.2617
  307MOL0     C41355   5.914   2.351   6.893  0.1493 -0.3078  0.7598
  307MOL0     C41356   5.819   2.384   6.988 -0.6176 -0.9394  0.3989
  307MOL0     O41357   5.674   2.298   7.230  0.2117  0.6107 -0.8328
  307MOL0     C41358   5.541   2.609   7.345  1.0946  0.5773  0.2770
  307MOL0     C41359   5.427   2.651   7.409 -0.6048  0.5678  0.1073
  307MOL0     N41360   4.931   3.145   7.692 -0.0155  0.8089 -0.0389
  307MOL0     N41361   4.863   3.252   7.706 -0.1663  0.2513  0.5277
  307MOL0     C41362   4.340   3.573   8.858 -0.4842 -0.2005  0.1198
  307MOL0     C41363   4.268   3.660   8.940  0.1067  0.0535 -0.5956
  307MOL0     C41364   4.031   4.033   9.044  0.2339 -1.0322  0.3124
  307MOL0     C41365   3.957   3.968   9.148  1.1756 -0.2063 -0.0747
  307MOL0     C41366   3.852   4.026   9.212 -0.0777 -0.0725 -0.8665
  307MOL0     C41367   3.837   4.161   9.214  0.0352 -0.2760  0.6295
  307MOL0     O41368   3.726   4.201   9.290 -0.2344  0.7393  0.5217
  307MOL0     C41369   3.692   4.340   9.291 -0.0836  0.7321 -0.1140
  307MOL0     C41370   3.578   4.368   9.389  0.3586  0.5318 -0.1603
  307MOL0     C41371   3.567   4.510   9.457  0.0863 -0.2536 -0.4528
  307MOL0     C41372   3.585   4.492   9.610  0.0765  0.2894  0.0312
  307MOL0     C41373   3.713   4.436   9.642  0.7815  0.3490  0.1670
  307MOL0     C41374   3.825   4.391   9.682  0.4597 -0.7573 -0.3061
  307MOL0     C41375   3.927   4.241   9.142 -0.4976  0.2638  0.4303
  307MOL0     C41376   4.019   4.181   9.053  0.0988  1.8418  0.0238
  307MOL0     C41377   4.118   4.276   8.991  0.4004 -0.5317 -1.0527
  307MOL0     H41378   4.051   3.770   8.700 -0.3340 -2.4670 -2.7738
  307MOL0     H41379   4.177   3.652   8.564  0.0495  0.4574 -0.7308
  307MOL0     H41380   4.550   3.464   8.730  0.0100 -1.8453  0.9876
  307MOL0     H41381   4.456   3.313   8.732  0.8436 -1.1439 -2.0998
  307MOL0     H41382   4.453   3.298   8.498  0.9902 -0.0726 -0.9070
  307MOL0     H41383   4.625   3.293   8.560  0.3777 -0.3999  2.3285
  307MOL0     H41384   4.662   3.534   8.476 -0.2260 -2.4391  2.9070
  307MOL0     H41385   4.490   3.533   8.431 -0.6073 -1.2125  1.0847
  307MOL0     H41386   4.708   3.346   8.313  1.2976  0.9697  0.0451
  307MOL0     H41387   4.539   3.347   8.279  2.2299 -2.9367 -0.1321
  307MOL0     H41388   4.586   3.612   8.232  2.6439  1.8154 -1.6498
  307MOL0     H41389   4.751   3.561   8.213 -0.5334  0.0095 -1.7259
  307MOL0     H41390   4.513   3.461   8.053 -1.0088  0.5417  4.2814
  307MOL0     H41391   4.624   3.577   7.999 -0.6659  1.5549  2.3551
  307MOL0     H41392   4.684   3.283   8.069  0.4420  0.4507  1.6539
  307MOL0     H41393   4.813   3.399   8.061 -0.9321 -0.6679  1.7230
  307MOL0     H41394   4.600   3.336   7.841 -0.2266 -1.7491  1.0293
  307MOL0     H41395   4.743   3.451   7.829  2.9540 -0.1616  3.1650
  307MOL0     H41396   4.814   3.098   7.987  0.5264  0.9907  1.0583
  307MOL0     H41397   5.070   2.966   7.913 -1.2502 -1.1766  0.2394
  307MOL0     H41398   4.928   2.877   7.868 -0.1924  0.2128  0.1050
  307MOL0     H41399   5.013   2.888   7.610  0.9258  0.9009  0.5120
  307MOL0     H41400   5.153   2.980   7.684  1.1737  0.3722 -3.0265
  307MOL0     H41401   5.087   2.697   7.745  2.8455 -1.7030  2.5757
  307MOL0     H41402   5.218   2.784   7.806 -0.8308  2.4428 -0.9872
  307MOL0     H41403   5.328   2.805   7.618 -2.8025  1.8410  1.4418
  307MOL0     H41404   5.181   2.771   7.512 -1.1260 -1.6387 -1.3738
  307MOL0     H41405   5.317   2.363   7.541  0.3659 -0.7650  0.9476
  307MOL0     H41406   5.513   2.278   7.409  0.7940  0.1523 -0.4631
  307MOL0     H41407   5.999   2.606   7.170  1.6167  0.8434 -1.2149
  307MOL0     H41408   6.164   2.552   7.001  1.7368 -2.5984  3.0936
  307MOL0     H41409   6.217   2.566   6.758  1.5261  0.0934 -0.9646
  307MOL0     H41410   6.312   2.440   6.848  2.7352  2.0500 -1.7933
  307MOL0     H41411   6.298   2.298   6.631 -2.8854 -1.2288  1.4368
  307MOL0     H41412   6.236   2.438   6.548  3.6930  0.8492 -2.5127
  307MOL0     H41413   6.425   2.573   6.621  1.4134  0.6789  1.4884
  307MOL0     H41414   6.512   2.440   6.679  0.5445 -1.2415 -0.5923
  307MOL0     H41415   6.413   2.473   6.400 -1.8432 -0.5763  0.4613
  307MOL0     H41416   6.458   2.318   6.468  1.5907 -0.2263 -2.0877
  307MOL0     H41417   6.671   2.370   6.390  0.8881 -1.7539  1.8813
  307MOL0     H41418   6.675   2.445   6.553 -0.6490 -4.4281  0.5187
  307MOL0     H41419   6.616   2.602   6.291 -2.3657 -0.0177  0.2538
  307MOL0     H41420   6.645   2.667   6.454  2.7939  0.2909 -0.3237
  307MOL0     H41421   6.873   2.527   6.432  1.8676  1.3130 -1.4059
  307MOL0     H41422   6.852   2.701   6.394  0.3284 -0.0586 -1.1550
  307MOL0     H41423   6.880   2.671   6.163  3.3615  0.0669 -0.3953
  307MOL0     H41424   6.994   2.553   6.234  0.0178  1.1760  1.0100
  307MOL0     H41425   5.896   2.275   6.818  1.2624 -1.1206  1.2814
  307MOL0     H41426   5.726   2.328   6.976 -0.2800 -1.1333 -1.6548
  307MOL0     H41427   5.603   2.679   7.290  1.3200  1.3726  1.4807
  307MOL0     H41428   5.402   2.756   7.403 -2.3693  0.2142  0.7183
  307MOL0     H41429   4.408   3.502   8.902 -0.7047 -1.4212 -1.4170
  307MOL0     H41430   4.286   3.661   9.047 -1.2300 -0.6481 -0.3402
  307MOL0     H41431   3.956   3.862   9.169 -0.2435 -0.0948  0.5314
  307MOL0     H41432   3.785   3.978   9.282  0.7447  0.4866  0.3398
  307MOL0     H41433   3.664   4.368   9.189 -1.8235  1.4271  0.5138
  307MOL0     H41434   3.773   4.404   9.326 -0.5101  2.3737 -1.9800
  307MOL0     H41435   3.569   4.289   9.464 -0.0145 -0.6395 -1.4104
  307MOL0     H41436   3.484   4.352   9.336 -0.7902 -3.1374  2.5745
  307MOL0     H41437   3.460   4.528   9.440 -0.9179 -4.3348  0.5236
  307MOL0     H41438   3.634   4.578   9.404  1.8962 -1.7794 -0.2361
  307MOL0     H41439   3.573   4.587   9.663  0.1339 -1.1096  2.7386
  307MOL0     H41440   3.515   4.424   9.660  1.6555 -0.2206  1.6616
  307MOL0     H41441   3.923   4.361   9.711  1.4734  1.6845 -1.0005
  307MOL0     H41442   3.913   4.348   9.130 -0.9486  0.3873  1.8534
  307MOL0     H41443   4.108   4.255   8.884 -1.1355  1.4620 -1.3710
  307MOL0     H41444   4.106   4.384   9.004 -1.6259 -1.0785  3.1393
  307MOL0     H41445   4.219   4.255   9.028 -0.8612 -0.4129  2.8010
  308MOL0     O41446   1.044   4.375   7.895 -0.2058 -0.1020  0.5952
  308MOL0     C41447   0.941   4.427   7.849 -0.5244  0.4919 -0.4281
  308MOL0     O41448   0.825   4.445   7.925 -0.0213 -0.1735  0.3649
  308MOL0     C41449   0.843   4.460   8.059  0.5265 -0.3143  0.3453
  308MOL0     C41450   0.943   4.526   8.128  0.2547 -0.1629 -0.1960
  308MOL0     C41451   0.941   4.536   8.268 -0.7665 -0.1703 -0.3680
  308MOL0     C41452   0.842   4.483   8.342 -0.3904 -0.4537 -0.1279
  308MOL0     O41453   0.857   4.496   8.476  0.7682 -0.1348 -0.8727
  308MOL0     C41454   0.785   4.398   8.549 -0.1256  0.3479 -0.5449
  308MOL0     C41455   0.866   4.347   8.668  0.3476 -0.4266 -0.4576
  308MOL0     C41456   0.777   4.283   8.759  0.2761 -0.6422 -0.6241
  308MOL0     C41457   0.837   4.219   8.884  0.7704  0.1103 -0.3502
  308MOL0     C41458   0.740   4.159   8.983 -0.0498 -0.3635  0.2984
  308MOL0     C41459   0.670   4.025   8.961 -0.2988 -0.2443  0.6108
  308MOL0     C41460   0.612   3.979   9.091  0.5481 -0.9429  0.6779
  308MOL0     C41461   0.522   3.865   9.065  0.7497 -1.3514  0.0584
  308MOL0     N41462   0.452   3.832   9.190  0.1167  0.9678  0.8090
  308MOL0     C41463   0.508   3.744   9.285 -0.3696 -0.3921  0.1190
  308MOL0     C41464   0.442   3.766   9.401  0.0635  0.2657  0.0564
  308MOL0     C41465   0.444   3.670   9.519 -0.1303  0.2064 -0.2093
  308MOL0     C41466   0.523   3.741   9.629  0.5587 -0.7755 -0.0299
  308MOL0     C41467   0.591   3.639   9.727  0.2133  0.3582  0.0971
  308MOL0     C41468   0.500   3.531   9.794  0.2254  0.6627  0.0162
  308MOL0     O41469   0.468   3.418   9.713 -0.0271  0.4597  0.0178
  308MOL0     C41470   0.465   3.287   9.757 -0.7872  0.5828 -0.4634
  308MOL0     C41471   0.473   3.187   9.658  0.5292  0.4100 -0.1558
  308MOL0     C41472   0.440   3.057   9.685 -0.1215 -0.6773  0.9895
  308MOL0     C41473   0.411   3.012   9.814 -0.2087 -0.4560 -0.7029
  308MOL0     C41474   0.382   2.871   9.841 -0.2763  0.6964 -0.3562
  308MOL0     O41475   0.408   2.820   9.974  0.2868 -0.3746  0.0027
  308MOL0     C41476   0.379   2.687   9.995  0.1646 -0.0273  0.0141
  308MOL0     C41477   0.474   2.606  10.073 -1.0992  0.9123 -0.0480
  308MOL0     C41478   0.452   2.474  10.091  0.1789  0.1574  0.5675
  308MOL0     C41479   0.332   2.405  10.046 -0.6646  0.0192 -0.1867
  308MOL0     O41480   0.312   2.267  10.049 -0.3810 -0.0567 -0.5545
  308MOL0     C41481   0.185   2.214  10.017  0.6393  0.7731  0.5989
  308MOL0     C41482   0.184   2.067  10.052  0.2277  1.1954  0.4687
  308MOL0     C41483   0.160   2.059  10.204 -0.1403  0.2397 -0.8956
  308MOL0     C41484   0.125   1.906  10.249  1.1365 -0.2379  0.1690
  308MOL0     C41485   0.116   1.889  10.402  0.7661 -0.0735 -0.8886
  308MOL0     C41486   0.086   1.749  10.441 -0.7244 -0.2796  0.0304
  308MOL0     C41487   0.169   1.698  10.562  0.3588  0.6784 -0.5932
  308MOL0     C41488   0.111   1.560  10.613  1.0080  0.0904  0.3988
  308MOL0    Cl41489   0.238   1.478  10.721  0.1674  0.1304  0.4032
  308MOL0     C41490   0.233   2.491   9.978 -0.6981  0.8217  0.5964
  308MOL0     C41491   0.256   2.627   9.950 -0.2310 -0.4311 -0.7529
  308MOL0     O41492   0.357   2.802   9.741  1.2847 -0.4020 -0.3590
  308MOL0     C41493   0.411   3.110   9.913 -0.3381  0.7564 -0.7251
  308MOL0     C41494   0.439   3.242   9.886  0.4344 -0.4778 -0.5309
  308MOL0     N41495   0.354   3.873   9.376  0.3875  0.0482 -0.0625
  308MOL0     N41496   0.358   3.913   9.250 -0.0645 -0.4284 -0.6907
  308MOL0     C41497   0.738   4.426   8.277  0.9381  0.8351  0.1151
  308MOL0     C41498   0.744   4.405   8.135 -0.8266  0.6310 -0.5960
  308MOL0     C41499   0.941   4.457   7.710 -0.0362  0.5425  0.1190
  308MOL0     C41500   1.006   4.375   7.617  0.5649  0.6854  0.8919
  308MOL0     C41501   0.988   4.389   7.476 -0.5671 -0.4154  0.2230
  308MOL0     C41502   0.908   4.489   7.427 -0.8995  0.2162  0.5171
  308MOL0     O41503   0.904   4.503   7.295 -0.4113 -0.5367  0.3071
  308MOL0     C41504   0.797   4.586   7.235  0.1262  1.2237 -0.2882
  308MOL0     C41505   0.664   4.499   7.243  0.7247  0.1917  0.5549
  308MOL0     C41506   0.694   4.353   7.179 -0.3712  0.6471  0.1193
  308MOL0     C41507   0.574   4.296   7.107  1.2815 -0.2288  0.0008
  308MOL0     C41508   0.606   4.226   6.985  0.0661  0.3460  1.4320
  308MOL0     C41509   0.618   4.169   6.877 -0.2818  1.2093 -0.0418
  308MOL0     C41510   0.847   4.579   7.511  0.0030  0.3174  0.2568
  308MOL0     C41511   0.866   4.564   7.650 -0.2883  0.7027  0.3349
  308MOL0     C41512   0.806   4.669   7.735  0.2706  0.2620  0.7582
  308MOL0     H41513   1.029   4.567   8.077 -0.2495 -1.9858 -2.6809
  308MOL0     H41514   1.027   4.570   8.324 -0.9201 -1.8881  0.9848
  308MOL0     H41515   0.686   4.437   8.571 -2.6061 -4.7730 -1.1849
  308MOL0     H41516   0.759   4.307   8.494  1.0911  0.3190 -1.1114
  308MOL0     H41517   0.923   4.427   8.715 -0.0442 -0.4005 -0.0152
  308MOL0     H41518   0.945   4.278   8.637  1.2879  1.5185 -2.6452
  308MOL0     H41519   0.753   4.197   8.696  2.4977 -1.1232 -0.9258
  308MOL0     H41520   0.695   4.349   8.786  1.7149  1.0481 -0.2050
  308MOL0     H41521   0.912   4.143   8.860 -0.8713 -1.6306 -0.1845
  308MOL0     H41522   0.876   4.308   8.934 -0.3293  1.0284 -1.0740
  308MOL0     H41523   0.794   4.160   9.078 -2.0683 -1.5870  1.5245
  308MOL0     H41524   0.663   4.235   8.998 -1.7775 -1.8936 -0.3550
  308MOL0     H41525   0.594   4.028   8.882  1.2527  0.3337 -0.9167
  308MOL0     H41526   0.751   3.960   8.929 -0.2117  0.7073 -1.2915
  308MOL0     H41527   0.555   4.061   9.135  0.1837 -2.0913  2.4330
  308MOL0     H41528   0.683   3.943   9.166 -0.1053 -1.7858  0.9013
  308MOL0     H41529   0.442   3.882   8.991  1.6296 -1.5639 -0.9605
  308MOL0     H41530   0.594   3.792   9.028  2.9595  1.4932 -1.6248
  308MOL0     H41531   0.584   3.670   9.262  0.4790  1.6366 -4.8683
  308MOL0     H41532   0.347   3.643   9.562 -0.5387 -1.6595 -2.1392
  308MOL0     H41533   0.487   3.576   9.481  0.6316  0.2339  0.5498
  308MOL0     H41534   0.608   3.783   9.575  1.0037 -2.2425 -0.5267
  308MOL0     H41535   0.465   3.818   9.680 -2.8555 -1.8307 -1.9831
  308MOL0     H41536   0.641   3.696   9.806  0.6324  0.0967  0.0235
  308MOL0     H41537   0.671   3.581   9.680 -0.9455 -0.4718 -0.9105
  308MOL0     H41538   0.411   3.589   9.820  1.2189  3.8328 -2.8271
  308MOL0     H41539   0.547   3.491   9.884  0.1199 -0.8475 -0.5789
  308MOL0     H41540   0.505   3.227   9.563  0.2536 -0.4132 -0.6074
  308MOL0     H41541   0.445   2.991   9.599  2.1087 -0.4970  0.9111
  308MOL0     H41542   0.553   2.637  10.139 -0.3375 -0.3950 -0.3245
  308MOL0     H41543   0.532   2.415  10.134  1.2589 -0.5339 -2.1564
  308MOL0     H41544   0.110   2.271  10.073 -0.6087  1.1310 -1.3024
  308MOL0     H41545   0.158   2.229   9.912 -1.2204  2.1616  1.2178
  308MOL0     H41546   0.111   2.010   9.993  2.7982 -1.1113 -0.7127
  308MOL0     H41547   0.280   2.023  10.026  0.2396  2.1703 -1.3194
  308MOL0     H41548   0.243   2.103  10.259 -0.9274  0.0471  0.4910
  308MOL0     H41549   0.076   2.125  10.227  0.2207 -0.4570  3.0293
  308MOL0     H41550   0.210   1.853  10.206 -1.3008 -1.5626 -3.4724
  308MOL0     H41551   0.037   1.865  10.199  1.8819 -1.5233 -0.1452
  308MOL0     H41552   0.035   1.944  10.451  2.3172 -0.2409  2.0688
  308MOL0     H41553   0.204   1.930  10.451 -0.9489  2.5140  0.2450
  308MOL0     H41554  -0.021   1.728  10.452 -0.7705 -1.2815 -1.8628
  308MOL0     H41555   0.121   1.682  10.361  0.6348 -0.2255  0.5630
  308MOL0     H41556   0.175   1.783  10.631  2.0165  0.3864 -0.3374
  308MOL0     H41557   0.272   1.678  10.532 -0.3755  0.9808 -3.6779
  308MOL0     H41558   0.019   1.579  10.669  1.2315  0.1061  0.7669
  308MOL0     H41559   0.088   1.499  10.526  2.6926 -2.6802  1.7310
  308MOL0     H41560   0.160   2.444   9.913  1.8851  0.0253 -1.9287
  308MOL0     H41561   0.180   2.686   9.901  2.1453  2.4215 -1.2694
  308MOL0     H41562   0.388   3.089  10.017  1.6222  3.0158  0.2575
  308MOL0     H41563   0.439   3.313   9.968  0.4120 -2.0621  0.8818
  308MOL0     H41564   0.649   4.404   8.335  0.5656 -0.1797 -0.8087
  308MOL0     H41565   0.660   4.348   8.096  1.3207 -4.7594  1.6448
  308MOL0     H41566   1.067   4.299   7.664 -2.9537 -1.7537  1.8811
  308MOL0     H41567   1.039   4.313   7.419  1.4061 -0.9971  2.5933
  308MOL0     H41568   0.816   4.611   7.130  1.2834  0.6676 -0.2280
  308MOL0     H41569   0.758   4.674   7.287  0.1264  0.5776  0.8224
  308MOL0     H41570   0.576   4.543   7.194 -0.5629 -1.4069  1.3281
  308MOL0     H41571   0.635   4.474   7.346 -0.8787 -1.9419 -0.3361
  308MOL0     H41572   0.733   4.274   7.243 -0.6065  0.4345  0.0034
  308MOL0     H41573   0.761   4.368   7.095  0.9757  0.0728  1.0675
  308MOL0     H41574   0.523   4.226   7.174  2.2478  0.5978  1.6678
  308MOL0     H41575   0.504   4.378   7.089  0.4649 -0.4326  2.0244
  308MOL0     H41576   0.641   4.119   6.785  0.5456  3.2637 -1.0151
  308MOL0     H41577   0.789   4.663   7.475 -3.2701 -1.1142  1.7603
  308MOL0     H41578   0.700   4.645   7.752 -0.0078  0.4719 -0.5454
  308MOL0     H41579   0.865   4.693   7.824 -2.6436  3.5410  2.0594
  308MOL0     H41580   0.807   4.765   7.682  1.2792 -0.6040 -0.8872
  309MOL0     O41581   5.895   9.965   8.422  0.3937  0.0945  0.6096
  309MOL0     C41582   5.795   9.940   8.482 -0.2173 -0.6353 -0.6908
  309MOL0     O41583   5.755   9.817   8.529 -0.1599 -0.1520 -0.3435
  309MOL0     C41584   5.814   9.701   8.485  0.2896  0.1201  0.3295
  309MOL0     C41585   5.781   9.646   8.360 -0.1362  1.0069  0.1652
  309MOL0     C41586   5.840   9.530   8.313 -1.0156  0.1596 -0.8359
  309MOL0     C41587   5.941   9.467   8.391  0.0109 -0.4806 -0.9953
  309MOL0     O41588   6.021   9.372   8.344 -0.2680  0.1455 -0.6977
  309MOL0     C41589   6.081   9.399   8.216  0.0633  0.9654 -0.3806
  309MOL0     C41590   6.200   9.316   8.185  0.6789 -0.0031  0.3693
  309MOL0     C41591   6.153   9.171   8.203 -0.3442 -0.5032 -0.2135
  309MOL0     C41592   6.277   9.066   8.162 -0.0976  0.1526  0.1343
  309MOL0     C41593   6.269   8.926   8.226 -0.1979  0.5292  0.4664
  309MOL0     C41594   6.136   8.851   8.213  0.2656 -0.5222 -0.5178
  309MOL0     C41595   6.132   8.708   8.281 -0.0006 -0.3335  0.8388
  309MOL0     C41596   6.205   8.595   8.217 -0.6915  0.4799  0.0591
  309MOL0     N41597   6.196   8.479   8.308  0.3160  0.8049  0.3119
  309MOL0     C41598   6.079   8.434   8.355  0.7988 -0.6658 -0.1478
  309MOL0     C41599   6.103   8.304   8.397 -0.1763 -1.3231 -0.4489
  309MOL0     C41600   6.000   8.206   8.468  0.1679  0.3500  0.0479
  309MOL0     C41601   5.932   8.112   8.374 -0.1729 -0.1813 -0.6580
  309MOL0     C41602   5.799   8.170   8.317 -0.0123  0.1915 -0.7180
  309MOL0     C41603   5.815   8.284   8.205 -0.0352 -0.3114  0.1400
  309MOL0     O41604   5.767   8.410   8.257 -0.0766  0.7117  0.3607
  309MOL0     C41605   5.784   8.524   8.182  0.2801  0.6919  0.1592
  309MOL0     C41606   5.728   8.642   8.228 -0.0785  0.0387 -0.9556
  309MOL0     C41607   5.749   8.762   8.147  0.6744  0.4876 -0.7697
  309MOL0     C41608   5.809   8.761   8.021 -0.4196  1.2702  0.0067
  309MOL0     C41609   5.848   8.886   7.950 -0.3866  0.9755 -0.2511
  309MOL0     O41610   5.908   8.881   7.824 -0.6113  0.5433  0.2998
  309MOL0     C41611   5.957   8.990   7.763 -0.5700  0.1454  0.4733
  309MOL0     C41612   5.888   9.048   7.659 -0.3985 -0.1311  0.2938
  309MOL0     C41613   5.931   9.169   7.608 -1.1429 -0.4917  0.0325
  309MOL0     C41614   6.036   9.242   7.661 -0.0164  0.5784 -0.1146
  309MOL0     O41615   6.059   9.362   7.610 -0.4806 -0.4198  0.1118
  309MOL0     C41616   6.152   9.451   7.665 -0.6234  0.7037  0.2777
  309MOL0     C41617   6.160   9.586   7.588  0.5458 -0.0560  0.1515
  309MOL0     C41618   6.215   9.577   7.449  0.0490  0.2470  0.2212
  309MOL0     C41619   6.368   9.588   7.468 -0.0961  0.7397  0.4872
  309MOL0     C41620   6.451   9.556   7.340 -0.3757  0.7608  0.5527
  309MOL0     C41621   6.593   9.542   7.379 -0.5382  0.7239  0.6151
  309MOL0     C41622   6.683   9.556   7.251 -0.3918  0.6938  0.3781
  309MOL0     C41623   6.779   9.442   7.243 -0.0132  0.3109  0.6352
  309MOL0    Cl41624   6.842   9.418   7.077 -0.3523 -0.1925 -0.2826
  309MOL0     C41625   6.110   9.184   7.762  0.9069  0.1715 -0.8154
  309MOL0     C41626   6.073   9.059   7.818 -0.8167  0.0092  0.8032
  309MOL0     O41627   5.824   8.984   8.007 -0.3656  0.1124 -0.5593
  309MOL0     C41628   5.858   8.643   7.969 -0.6191 -0.8086 -0.8215
  309MOL0     C41629   5.853   8.530   8.053 -0.6484 -0.0151 -0.3158
  309MOL0     N41630   6.235   8.278   8.375 -0.4532  0.0919  0.8362
  309MOL0     N41631   6.295   8.382   8.335 -0.0962 -0.4120 -0.5796
  309MOL0     C41632   5.947   9.513   8.523  0.1513 -0.7231 -0.5030
  309MOL0     C41633   5.883   9.624   8.577  0.7628 -0.1790 -0.6357
  309MOL0     C41634   5.695  10.049   8.511  0.1435  0.0067 -0.3226
  309MOL0     C41635   5.555  10.008   8.529  0.0968  0.6353 -0.2157
  309MOL0     C41636   5.455  10.091   8.558  0.0111 -0.0633  0.0093
  309MOL0     C41637   5.476  10.232   8.567  0.4306  0.3746 -0.4573
  309MOL0     O41638   5.378  10.324   8.601 -0.2761 -0.5646  0.1995
  309MOL0     C41639   5.244  10.279   8.638  0.6288  0.1896 -0.8182
  309MOL0     C41640   5.165  10.271   8.510  0.5794 -0.5169 -0.4056
  309MOL0     C41641   5.016  10.284   8.546 -0.1410  0.0042  0.8365
  309MOL0     C41642   4.930  10.244   8.430  0.4370  0.8390  0.4097
  309MOL0     C41643   4.938  10.338   8.317  0.1452  0.3375  0.0098
  309MOL0     C41644   4.945  10.425   8.228  0.4345  0.4842 -0.3643
  309MOL0     C41645   5.606  10.280   8.555 -0.4380  1.0008  0.0431
  309MOL0     C41646   5.719  10.188   8.532 -0.2721  0.0634  0.3322
  309MOL0     C41647   5.857  10.249   8.510  0.1661 -0.4068  0.6721
  309MOL0     H41648   5.696   9.692   8.310  0.8134  0.1485 -2.4143
  309MOL0     H41649   5.817   9.468   8.227 -2.0159 -0.5241 -0.0896
  309MOL0     H41650   6.000   9.367   8.150 -3.7210 -1.2954  4.6928
  309MOL0     H41651   6.104   9.506   8.222 -0.7900  1.1888 -0.9655
  309MOL0     H41652   6.278   9.350   8.254  1.2997 -1.1667  0.2639
  309MOL0     H41653   6.228   9.331   8.080 -0.2189  2.9312  0.4516
  309MOL0     H41654   6.065   9.151   8.142  1.3952 -0.5875 -2.8362
  309MOL0     H41655   6.136   9.153   8.310 -2.3867  2.1990  0.0281
  309MOL0     H41656   6.274   9.060   8.052 -0.1781  2.2277 -0.0168
  309MOL0     H41657   6.371   9.116   8.184 -0.0904  0.1272  0.1591
  309MOL0     H41658   6.341   8.850   8.194 -1.2295 -3.1313  5.5139
  309MOL0     H41659   6.284   8.944   8.333 -1.5079 -1.5763  1.0844
  309MOL0     H41660   6.054   8.898   8.266 -1.3466  0.1777 -3.4304
  309MOL0     H41661   6.103   8.842   8.109  4.1836  0.4645 -2.0528
  309MOL0     H41662   6.025   8.685   8.280 -0.4072  1.3373 -0.7940
  309MOL0     H41663   6.160   8.725   8.385  2.6385  2.1243 -0.1423
  309MOL0     H41664   6.160   8.567   8.121 -1.3865 -2.5232  1.1474
  309MOL0     H41665   6.312   8.615   8.213 -0.3132 -1.2166  0.6266
  309MOL0     H41666   5.980   8.476   8.366  1.0421 -0.7938  3.7764
  309MOL0     H41667   6.051   8.152   8.548 -1.1505  1.2720  1.5683
  309MOL0     H41668   5.926   8.265   8.523  0.0141 -0.4424  0.7094
  309MOL0     H41669   6.009   8.080   8.303  1.3560 -2.2330  1.7489
  309MOL0     H41670   5.897   8.028   8.434 -0.1879  0.6929  0.5892
  309MOL0     H41671   5.734   8.219   8.390  2.0895  3.8794 -1.0643
  309MOL0     H41672   5.741   8.085   8.279 -1.7740  2.0320 -2.3921
  309MOL0     H41673   5.758   8.246   8.120 -0.1507  0.7357 -0.2651
  309MOL0     H41674   5.915   8.292   8.161  0.8363  0.1222  2.0471
  309MOL0     H41675   5.663   8.633   8.314 -0.2532 -2.1827 -1.2563
  309MOL0     H41676   5.698   8.851   8.182  0.6628  0.1442  0.1123
  309MOL0     H41677   5.811   8.995   7.603  1.3934 -1.0918 -1.3605
  309MOL0     H41678   5.882   9.215   7.523  0.3456  4.3453  1.4791
  309MOL0     H41679   6.128   9.478   7.768  0.4936  2.8360  0.0490
  309MOL0     H41680   6.251   9.405   7.653 -1.4015 -0.7408 -0.8893
  309MOL0     H41681   6.064   9.640   7.586  2.2241  3.1613 -0.8384
  309MOL0     H41682   6.222   9.655   7.646  1.7630 -0.8910 -0.1122
  309MOL0     H41683   6.193   9.479   7.405 -0.9446  0.6900 -0.2763
  309MOL0     H41684   6.177   9.654   7.383  2.2102 -1.0269 -2.7245
  309MOL0     H41685   6.406   9.516   7.542  2.8206  1.3677 -0.2764
  309MOL0     H41686   6.395   9.686   7.508  0.4549  0.2179  1.4511
  309MOL0     H41687   6.433   9.642   7.274 -3.4205 -0.1571  0.0639
  309MOL0     H41688   6.417   9.464   7.292  0.8256  1.1398 -1.1303
  309MOL0     H41689   6.626   9.614   7.455 -0.8479 -0.8172  2.3067
  309MOL0     H41690   6.616   9.446   7.425 -1.1996  1.2581  2.1535
  309MOL0     H41691   6.730   9.654   7.247  2.2979 -0.5416 -1.0699
  309MOL0     H41692   6.616   9.544   7.165 -0.5531 -1.3110  0.7202
  309MOL0     H41693   6.865   9.461   7.308  0.7069 -1.2406  0.1973
  309MOL0     H41694   6.739   9.348   7.283  0.6707  0.0228  0.6558
  309MOL0     H41695   6.200   9.233   7.797 -0.1143  0.3841  1.6930
  309MOL0     H41696   6.127   9.017   7.902 -1.9929 -1.2805  0.9638
  309MOL0     H41697   5.912   8.642   7.875 -0.0385 -0.0167 -0.5080
  309MOL0     H41698   5.890   8.440   8.004  1.0474 -0.1163  1.0363
  309MOL0     H41699   6.025   9.478   8.589 -1.0330 -1.7416  0.3826
  309MOL0     H41700   5.900   9.668   8.675 -0.2507  3.0203 -1.7777
  309MOL0     H41701   5.530   9.905   8.505 -0.8549  1.4818 -3.2961
  309MOL0     H41702   5.356  10.047   8.567  0.2062 -0.2347  1.7143
  309MOL0     H41703   5.192  10.339   8.713 -0.0836 -0.3279 -0.8812
  309MOL0     H41704   5.247  10.179   8.684 -0.4319  0.3531 -0.3698
  309MOL0     H41705   5.179  10.176   8.457  0.0362  0.6243 -2.7368
  309MOL0     H41706   5.200  10.351   8.444  1.0980 -0.2764  0.1585
  309MOL0     H41707   4.986  10.387   8.568 -2.0221 -0.1003 -0.9777
  309MOL0     H41708   5.003  10.227   8.639  0.7303 -0.8859  0.4272
  309MOL0     H41709   4.952  10.142   8.397  3.2680  1.2778  0.6694
  309MOL0     H41710   4.826  10.232   8.461 -0.5638  0.1737 -2.8044
  309MOL0     H41711   4.940  10.497   8.149 -0.6969  1.1601  0.2895
  309MOL0     H41712   5.630  10.385   8.570  0.4043  0.7560  0.4841
  309MOL0     H41713   5.906  10.258   8.607 -1.1285  0.9177  1.2444
  309MOL0     H41714   5.920  10.198   8.437  3.2789  3.6091  0.2032
  309MOL0     H41715   5.840  10.351   8.472 -1.3153  0.1244  2.6225
  310MOL0     O41716  10.074  10.300   5.193  0.3348 -0.3712  0.5896
  310MOL0     C41717  10.116  10.192   5.234 -0.3070  0.3920  0.2394
  310MOL0     O41718  10.223  10.177   5.312 -0.0229 -0.4289 -0.2075
  310MOL0     C41719  10.283  10.284   5.371  0.1736  0.6166 -0.5631
  310MOL0     C41720  10.414  10.295   5.336 -0.1693  0.0931  0.5078
  310MOL0     C41721  10.483  10.400   5.400 -0.0049  0.6147  0.3366
  310MOL0     C41722  10.425  10.500   5.485 -0.1423 -0.1523  0.0979
  310MOL0     O41723  10.491  10.609   5.525 -0.6598  0.0336 -0.7906
  310MOL0     C41724  10.618  10.581   5.592 -0.7030  0.0630  0.3321
  310MOL0     C41725  10.689  10.714   5.609 -0.1392  0.3356 -0.3045
  310MOL0     C41726  10.830  10.714   5.664  0.0700  1.2010 -0.2606
  310MOL0     C41727  10.910  10.853   5.653  0.1216  0.4982 -0.3253
  310MOL0     C41728  11.065  10.833   5.661  0.4780 -0.2684 -0.9547
  310MOL0     C41729  11.134  10.961   5.697 -0.3260  0.2027 -0.4482
  310MOL0     C41730  11.284  10.938   5.694 -1.1546 -0.3204  0.8687
  310MOL0     C41731  11.328  10.977   5.553  0.9919 -0.4285 -1.1678
  310MOL0     N41732  11.474  10.973   5.528  0.6917 -0.0330 -0.3351
  310MOL0     C41733  11.528  11.018   5.415  0.0599 -0.0120 -0.9275
  310MOL0     C41734  11.663  11.019   5.434 -0.1133 -0.1639 -1.5128
  310MOL0     C41735  11.779  11.062   5.342  0.3117 -0.2286 -0.1572
  310MOL0     C41736  11.749  11.193   5.263  0.2255 -0.0109  0.2421
  310MOL0     C41737  11.861  11.203   5.158  0.6697  0.7858  0.9080
  310MOL0     C41738  11.847  11.343   5.094 -0.6013  0.1061  0.4143
  310MOL0     O41739  11.942  11.344   4.984 -0.0522  1.0421 -0.3764
  310MOL0     C41740  11.935  11.440   4.890  0.3297  0.6757  0.0522
  310MOL0     C41741  12.004  11.414   4.771  0.7845 -0.1914 -0.9175
  310MOL0     C41742  12.002  11.512   4.664 -0.7911  0.1223 -0.5686
  310MOL0     C41743  11.926  11.628   4.670  0.0526  0.3143  0.5106
  310MOL0     C41744  11.932  11.729   4.566 -0.4956 -0.2497  0.5060
  310MOL0     O41745  11.886  11.859   4.586 -0.0189  0.2316 -0.1799
  310MOL0     C41746  11.893  11.958   4.486  0.0600 -0.7305 -0.0013
  310MOL0     C41747  11.983  11.959   4.377  0.3170  0.1507  0.7339
  310MOL0     C41748  11.999  12.065   4.289  0.3064  0.1202  0.2913
  310MOL0     C41749  11.926  12.188   4.317 -1.3024 -0.0395 -0.7797
  310MOL0     O41750  11.956  12.301   4.244  0.0988 -0.1044  0.1219
  310MOL0     C41751  11.844  12.395   4.235  0.7622  1.0660  0.0180
  310MOL0     C41752  11.882  12.493   4.120  0.1681  0.6405 -0.7497
  310MOL0     C41753  11.774  12.591   4.094 -0.3844 -0.5293  0.6869
  310MOL0     C41754  11.801  12.673   3.963  1.2242  0.2964  0.8952
  310MOL0     C41755  11.689  12.781   3.937 -0.6560  0.4944  0.1096
  310MOL0     C41756  11.599  12.768   3.810  0.0733 -0.4969  0.5713
  310MOL0     C41757  11.488  12.665   3.803  0.2922  0.1236 -1.0562
  310MOL0     C41758  11.403  12.665   3.924  0.1722  0.0655  0.3566
  310MOL0    Cl41759  11.277  12.537   3.906  0.4058  0.1527 -0.0396
  310MOL0     C41760  11.836  12.187   4.429 -0.3245 -0.3454 -0.5569
  310MOL0     C41761  11.810  12.072   4.505 -0.2592 -0.3804 -0.2234
  310MOL0     O41762  11.993  11.688   4.462  0.4328  0.5026  0.1940
  310MOL0     C41763  11.856  11.649   4.794 -0.1872 -0.5885 -0.6347
  310MOL0     C41764  11.862  11.559   4.899 -0.3044  0.9684 -0.3055
  310MOL0     N41765  11.690  10.966   5.566  0.3213  0.4190  0.8388
  310MOL0     N41766  11.575  10.932   5.618  0.2519 -0.3908 -0.4017
  310MOL0     C41767  10.290  10.476   5.523 -0.0208 -0.0115 -0.7173
  310MOL0     C41768  10.216  10.364   5.469  0.4079 -1.3059 -0.4157
  310MOL0     C41769  10.058  10.070   5.186  0.5726 -0.1320 -0.2417
  310MOL0     C41770  10.084   9.953   5.259 -1.5720 -0.4437 -0.3364
  310MOL0     C41771  10.057   9.827   5.215  0.3640  0.6489 -1.0997
  310MOL0     C41772   9.969   9.800   5.113 -0.3389  0.6446 -0.4932
  310MOL0     O41773   9.949   9.667   5.076  0.1737 -0.8603 -0.0704
  310MOL0     C41774   9.824   9.627   5.013 -0.6949  0.2238  0.4315
  310MOL0     C41775   9.820   9.476   5.018  0.1473  0.2383  0.2680
  310MOL0     C41776   9.931   9.409   4.926  0.8852 -0.3299 -0.3208
  310MOL0     C41777   9.952   9.439   4.771  0.5695  1.0771 -0.7206
  310MOL0     C41778   9.989   9.580   4.744  0.9700  0.5606  0.0883
  310MOL0     C41779  10.030   9.689   4.711  0.0311 -0.3117  0.9015
  310MOL0     C41780   9.939   9.908   5.036  0.7741  0.1610  1.3378
  310MOL0     C41781   9.977  10.047   5.069  0.7205  0.2164  1.1233
  310MOL0     C41782   9.908  10.157   4.988  0.5452 -0.8240  0.7738
  310MOL0     H41783  10.461  10.221   5.273 -0.9224 -2.1001  2.3606
  310MOL0     H41784  10.588  10.418   5.378 -0.9010  4.1407 -1.7931
  310MOL0     H41785  10.610  10.525   5.686 -1.3102 -4.4486 -2.1499
  310MOL0     H41786  10.680  10.513   5.534  0.9126  2.2066 -0.5987
  310MOL0     H41787  10.621  10.787   5.653 -2.8434 -2.6093  0.7360
  310MOL0     H41788  10.711  10.746   5.507 -1.4810 -1.8193 -1.3567
  310MOL0     H41789  10.883  10.633   5.613 -1.3867 -0.6727  1.0346
  310MOL0     H41790  10.833  10.687   5.770 -1.6100  0.4524 -0.3627
  310MOL0     H41791  10.896  10.902   5.556  4.1769 -0.5305 -1.6517
  310MOL0     H41792  10.876  10.919   5.734  1.2003  0.0546  0.5088
  310MOL0     H41793  11.087  10.770   5.748  2.4500 -1.0380 -1.9550
  310MOL0     H41794  11.112  10.794   5.571  2.6109 -0.0204 -0.0091
  310MOL0     H41795  11.089  11.036   5.631  0.7921 -1.6088 -3.5149
  310MOL0     H41796  11.127  10.992   5.801  1.1944 -0.9952  0.0552
  310MOL0     H41797  11.322  10.835   5.695  0.9993  0.4245  0.6839
  310MOL0     H41798  11.340  10.993   5.770 -2.9399  0.0738  1.9328
  310MOL0     H41799  11.287  10.904   5.483  2.3525 -3.5324  1.0691
  310MOL0     H41800  11.297  11.082   5.545  2.1783  0.3934  2.6523
  310MOL0     H41801  11.469  11.069   5.339 -1.5326 -0.0223  0.2397
  310MOL0     H41802  11.864  11.069   5.411 -0.9457  2.8742  1.2672
  310MOL0     H41803  11.797  10.986   5.266 -3.5577  1.8068 -3.5103
  310MOL0     H41804  11.657  11.193   5.205  1.5049  1.8623 -1.9734
  310MOL0     H41805  11.763  11.274   5.336  3.5493  0.7712 -1.0670
  310MOL0     H41806  11.848  11.127   5.080  0.1811  0.3073  1.4490
  310MOL0     H41807  11.956  11.198   5.212  0.7076 -0.8999  0.7597
  310MOL0     H41808  11.874  11.423   5.163  0.2332  1.7496 -1.6906
  310MOL0     H41809  11.743  11.357   5.062  0.2465  1.5086 -1.9819
  310MOL0     H41810  12.048  11.317   4.750 -0.2716 -0.8514 -0.2523
  310MOL0     H41811  12.059  11.490   4.574 -0.3927 -1.0092 -0.0579
  310MOL0     H41812  12.052  11.876   4.367  0.0040  0.0060 -0.3975
  310MOL0     H41813  12.081  12.066   4.218  1.2242 -0.3231  1.3233
  310MOL0     H41814  11.753  12.338   4.212  1.7846 -0.3523 -0.6207
  310MOL0     H41815  11.814  12.450   4.325 -1.7546 -0.2689  0.0910
  310MOL0     H41816  11.973  12.545   4.151  0.2833 -0.4790  0.9207
  310MOL0     H41817  11.896  12.439   4.026 -0.4553 -2.0501  0.5822
  310MOL0     H41818  11.677  12.540   4.088 -1.1686  1.0202 -0.2904
  310MOL0     H41819  11.781  12.658   4.180  3.5684  3.9404 -2.5956
  310MOL0     H41820  11.802  12.611   3.873 -3.8152  0.8415  0.1480
  310MOL0     H41821  11.900  12.716   3.979  3.1450 -2.1348 -2.8691
  310MOL0     H41822  11.735  12.880   3.924 -1.8998  1.1136  0.2837
  310MOL0     H41823  11.625  12.793   4.025  1.0390 -0.4575  1.5400
  310MOL0     H41824  11.554  12.868   3.802  0.8613 -0.1685  0.1429
  310MOL0     H41825  11.656  12.737   3.722 -2.3162 -3.0430 -0.2258
  310MOL0     H41826  11.538  12.573   3.773  0.6894  1.3523 -4.8229
  310MOL0     H41827  11.420  12.696   3.723  2.4791 -0.7947 -3.4217
  310MOL0     H41828  11.475  12.651   4.005  1.5110  2.1622 -0.3857
  310MOL0     H41829  11.355  12.762   3.943 -0.1677  0.3791 -1.8137
  310MOL0     H41830  11.782  12.280   4.446  1.2246  0.5312 -0.1767
  310MOL0     H41831  11.768  12.076   4.605  0.9950  1.8012  0.2981
  310MOL0     H41832  11.802  11.742   4.811  0.8183 -0.1090  0.0757
  310MOL0     H41833  11.803  11.555   4.990  0.3755 -1.0796  0.1120
  310MOL0     H41834  10.250  10.555   5.585  1.7588  0.8196 -0.5614
  310MOL0     H41835  10.111  10.359   5.494  0.0149 -0.3672 -1.7521
  310MOL0     H41836  10.134   9.961   5.355 -2.3128 -0.7240  0.0749
  310MOL0     H41837  10.102   9.739   5.261  0.4060  1.1331 -0.1988
  310MOL0     H41838   9.836   9.661   4.909 -4.6816  0.7620 -0.0071
  310MOL0     H41839   9.733   9.669   5.057 -1.1850  0.7499 -1.0126
  310MOL0     H41840   9.719   9.451   4.984  0.5563 -1.6793  0.3566
  310MOL0     H41841   9.828   9.437   5.120 -0.2460  0.1604  0.2709
  310MOL0     H41842   9.906   9.304   4.939 -0.5810  0.1017  0.6524
  310MOL0     H41843  10.023   9.431   4.983  1.0659 -3.0869  0.6010
  310MOL0     H41844  10.025   9.369   4.730  1.3995  1.6123 -0.1885
  310MOL0     H41845   9.855   9.427   4.723  0.0739 -0.2124  0.5217
  310MOL0     H41846  10.068   9.788   4.695 -0.9295 -0.0408  0.2035
  310MOL0     H41847   9.873   9.883   4.953  2.1952 -3.1443  1.0239
  310MOL0     H41848   9.845  10.109   4.912  0.7088 -2.7021  1.7573
  310MOL0     H41849   9.840  10.221   5.045  0.2829  1.3825 -1.8138
  310MOL0     H41850   9.995  10.205   4.942  1.9877 -2.4431  1.6768
  311MOL0     O41851   7.698   7.761   8.017 -0.1318  0.4972 -0.1797
  311MOL0     C41852   7.711   7.771   7.898 -0.3960  0.1289  0.9709
  311MOL0     O41853   7.740   7.894   7.832  0.4929  0.6049  0.0700
  311MOL0     C41854   7.760   8.001   7.905  0.8921  0.5682  0.3018
  311MOL0     C41855   7.877   8.072   7.873 -0.0679 -0.1074 -0.2331
  311MOL0     C41856   7.897   8.199   7.943 -0.6161  0.0982 -0.2568
  311MOL0     C41857   7.816   8.253   8.036  0.2285 -0.0672  0.7417
  311MOL0     O41858   7.845   8.386   8.084  0.0535 -0.0640  0.9607
  311MOL0     C41859   7.745   8.470   8.137 -0.4394 -0.1342 -0.6905
  311MOL0     C41860   7.802   8.615   8.114  1.4221  0.5787  0.3331
  311MOL0     C41861   7.723   8.723   8.192 -0.1412  0.0112  0.0019
  311MOL0     C41862   7.825   8.845   8.222 -0.0917 -0.9453 -0.3902
  311MOL0     C41863   7.779   8.963   8.311  0.3310  0.4676  0.2319
  311MOL0     C41864   7.903   9.042   8.358 -0.5653 -0.4838  0.2872
  311MOL0     C41865   7.987   8.971   8.467 -0.6170 -0.0674 -0.1053
  311MOL0     C41866   7.938   9.000   8.609  0.9322  0.4766  0.2003
  311MOL0     N41867   7.801   8.951   8.614 -0.1355  0.3905 -0.0346
  311MOL0     C41868   7.767   8.817   8.647 -0.3214  0.4873 -0.5073
  311MOL0     C41869   7.641   8.832   8.694 -0.3299  0.9138 -0.1194
  311MOL0     C41870   7.549   8.720   8.730  0.7095 -0.4496  0.1661
  311MOL0     C41871   7.522   8.712   8.881  0.2066 -0.6542 -0.6092
  311MOL0     C41872   7.643   8.656   8.954  0.9594 -0.9947  1.2502
  311MOL0     C41873   7.600   8.586   9.096  0.0582  0.5480 -0.4800
  311MOL0     O41874   7.548   8.698   9.172 -0.4218 -0.1119  0.1919
  311MOL0     C41875   7.485   8.658   9.294 -0.0681  0.2202  0.8263
  311MOL0     C41876   7.402   8.741   9.367 -0.1645 -1.0312  0.6936
  311MOL0     C41877   7.352   8.722   9.496  0.3721 -0.1619 -0.0720
  311MOL0     C41878   7.392   8.610   9.557  0.2264  0.2636 -1.1346
  311MOL0     C41879   7.351   8.578   9.700  0.3558  0.4372  0.8857
  311MOL0     O41880   7.272   8.675   9.761  0.4475  0.4022 -0.4479
  311MOL0     C41881   7.247   8.676   9.896  0.3945  0.3783  0.3009
  311MOL0     C41882   7.327   8.612  10.001 -0.2840  0.4958 -0.3973
  311MOL0     C41883   7.307   8.642  10.134  0.3165  0.2292 -0.2485
  311MOL0     C41884   7.188   8.701  10.175 -0.2796  0.7905 -0.5889
  311MOL0     O41885   7.195   8.709  10.316  0.3429 -1.1726 -0.7499
  311MOL0     C41886   7.098   8.781  10.386  0.0018 -0.1064 -0.4294
  311MOL0     C41887   7.139   8.777  10.535 -0.2319  0.4740  0.3197
  311MOL0     C41888   7.042   8.860  10.618  0.1280  0.8547  0.5156
  311MOL0     C41889   7.069   8.836  10.768 -0.1000 -0.3135  0.1248
  311MOL0     C41890   6.998   8.922  10.867  0.0125 -0.6073  0.6646
  311MOL0     C41891   7.020   8.883  11.011  0.4280  0.2927 -0.0198
  311MOL0     C41892   6.913   8.914  11.125  0.1635 -0.2017 -0.5638
  311MOL0     C41893   6.786   8.824  11.113  0.0745  0.2626  0.1013
  311MOL0    Cl41894   6.688   8.848  11.258 -0.2198  0.4424 -0.2624
  311MOL0     C41895   7.110   8.760  10.083 -0.0614  0.0070 -0.4286
  311MOL0     C41896   7.143   8.757   9.948 -1.1296 -0.3757 -0.3763
  311MOL0     O41897   7.385   8.474   9.760  0.9108  0.8393  0.1816
  311MOL0     C41898   7.465   8.506   9.496  0.3730 -0.2043  0.1100
  311MOL0     C41899   7.503   8.529   9.358 -0.2823  0.3095  0.4781
  311MOL0     N41900   7.607   8.964   8.694 -0.5394 -0.0243 -0.1206
  311MOL0     N41901   7.699   9.032   8.630 -0.4846  0.0664  0.1898
  311MOL0     C41902   7.694   8.182   8.062  1.4696  0.4395  0.0726
  311MOL0     C41903   7.666   8.057   7.996 -0.0478 -0.4506  0.0170
  311MOL0     C41904   7.678   7.657   7.802  0.4580 -0.1147 -0.4831
  311MOL0     C41905   7.682   7.688   7.664 -0.1701  1.0582 -0.3002
  311MOL0     C41906   7.687   7.589   7.566 -0.4108  0.0601  0.1059
  311MOL0     C41907   7.661   7.458   7.594  0.3248  1.0258 -0.0340
  311MOL0     O41908   7.657   7.375   7.486 -0.1114  0.6440 -0.2142
  311MOL0     C41909   7.634   7.228   7.509  0.0366 -0.0181 -0.5185
  311MOL0     C41910   7.524   7.188   7.410 -0.1582 -0.5136 -0.2468
  311MOL0     C41911   7.507   7.037   7.410  0.6615 -0.1000  0.6232
  311MOL0     C41912   7.375   6.986   7.322 -0.8002  0.7794 -0.7172
  311MOL0     C41913   7.249   7.030   7.389 -0.4398  0.5150  0.2115
  311MOL0     C41914   7.143   7.069   7.427 -0.5215  0.7446 -0.1300
  311MOL0     C41915   7.625   7.431   7.732 -0.1452 -0.5281 -0.2144
  311MOL0     C41916   7.633   7.528   7.838 -0.3999 -0.8329  0.0131
  311MOL0     C41917   7.611   7.469   7.974  1.1698 -0.6826 -0.7679
  311MOL0     H41918   7.954   8.030   7.809  0.4195 -1.1212  0.9810
  311MOL0     H41919   7.997   8.239   7.928  1.0524 -3.2680  0.8055
  311MOL0     H41920   7.653   8.454   8.080 -0.0975  1.7363 -1.8504
  311MOL0     H41921   7.740   8.458   8.246  1.8066  3.1519 -0.0631
  311MOL0     H41922   7.783   8.648   8.011 -1.3059 -1.2736  0.1511
  311MOL0     H41923   7.910   8.618   8.124  1.4920 -1.8391  0.9310
  311MOL0     H41924   7.686   8.682   8.286 -2.9730  1.8029 -0.2092
  311MOL0     H41925   7.642   8.764   8.131  0.3898  2.9099  1.0624
  311MOL0     H41926   7.914   8.795   8.259 -0.3239 -2.5697 -1.8668
  311MOL0     H41927   7.859   8.892   8.129  0.9654 -0.3577  0.2878
  311MOL0     H41928   7.714   9.021   8.244 -1.5494 -3.2926 -1.5389
  311MOL0     H41929   7.721   8.923   8.395 -0.5228  2.0229  0.4292
  311MOL0     H41930   7.962   9.054   8.266 -1.4759 -1.0876 -0.3815
  311MOL0     H41931   7.874   9.144   8.385 -2.6708 -1.0579  0.3655
  311MOL0     H41932   8.089   9.009   8.456 -1.6459  3.0845  0.1340
  311MOL0     H41933   7.994   8.864   8.448  0.5212  0.3347 -2.2853
  311MOL0     H41934   8.004   8.957   8.684  0.1337 -0.4669  0.3894
  311MOL0     H41935   7.953   9.108   8.612  3.7045  0.5939 -5.2927
  311MOL0     H41936   7.823   8.727   8.623  0.1113 -0.0904  2.4107
  311MOL0     H41937   7.451   8.736   8.686  0.9272  0.1217 -0.1246
  311MOL0     H41938   7.575   8.624   8.686  2.1522  0.3967 -0.9302
  311MOL0     H41939   7.484   8.805   8.924 -2.4397 -0.9619 -2.0519
  311MOL0     H41940   7.445   8.634   8.883  0.1953 -0.6235  0.5043
  311MOL0     H41941   7.714   8.738   8.959  0.5167 -0.2125 -2.5136
  311MOL0     H41942   7.691   8.584   8.888 -0.7518 -0.0606 -1.1559
  311MOL0     H41943   7.692   8.542   9.137 -0.2329 -2.1469 -2.4362
  311MOL0     H41944   7.534   8.501   9.079  1.4626 -0.8497  0.6861
  311MOL0     H41945   7.371   8.838   9.328 -2.8273 -2.0799 -0.0730
  311MOL0     H41946   7.309   8.792   9.568  2.2546  0.8395  0.1463
  311MOL0     H41947   7.420   8.559   9.984 -0.7710 -0.5356  0.1129
  311MOL0     H41948   7.376   8.597  10.204 -0.3074 -1.6870 -0.8089
  311MOL0     H41949   7.091   8.887  10.358  1.2614 -0.6882 -3.3812
  311MOL0     H41950   7.006   8.724  10.365  0.3938  0.2037 -3.5026
  311MOL0     H41951   7.136   8.673  10.567 -2.0014  0.2724 -0.3769
  311MOL0     H41952   7.243   8.808  10.546  0.0174 -0.2097 -0.0645
  311MOL0     H41953   7.081   8.957  10.587  2.4765 -0.6056 -1.5076
  311MOL0     H41954   6.936   8.840  10.597  0.7258 -1.6354 -0.6118
  311MOL0     H41955   7.173   8.860  10.790 -0.5898  1.1449  1.0603
  311MOL0     H41956   7.052   8.731  10.792  2.9394 -1.7867 -3.3857
  311MOL0     H41957   6.890   8.920  10.849 -0.1522  2.1358  0.9253
  311MOL0     H41958   7.022   9.025  10.839  1.3673 -1.4962 -1.6925
  311MOL0     H41959   7.045   8.777  11.008 -3.9842 -1.0940  2.3552
  311MOL0     H41960   7.110   8.934  11.046 -0.3250  0.2472  2.1684
  311MOL0     H41961   6.872   9.015  11.113 -1.9710 -1.2552 -3.3892
  311MOL0     H41962   6.958   8.899  11.223 -0.3714 -0.4500 -0.3518
  311MOL0     H41963   6.734   8.849  11.021 -1.1744 -0.5626  0.5426
  311MOL0     H41964   6.792   8.714  11.110 -0.6621  0.1583  1.4254
  311MOL0     H41965   7.027   8.820  10.119 -1.0672 -0.1472 -2.3659
  311MOL0     H41966   7.087   8.809   9.871  3.0597  0.6613 -3.0566
  311MOL0     H41967   7.495   8.411   9.539  2.2450 -0.2312 -1.1380
  311MOL0     H41968   7.568   8.454   9.313 -0.7574  0.6167 -0.7457
  311MOL0     H41969   7.624   8.214   8.139  0.2378  1.7429 -1.5210
  311MOL0     H41970   7.574   8.002   8.013 -0.4631  0.0849 -0.4318
  311MOL0     H41971   7.704   7.787   7.626  0.1141  1.8203  1.7402
  311MOL0     H41972   7.710   7.614   7.463  1.9746 -3.6956 -0.4626
  311MOL0     H41973   7.608   7.195   7.610  1.1053 -1.3505 -0.6390
  311MOL0     H41974   7.717   7.160   7.488 -0.6659 -1.2415  0.4839
  311MOL0     H41975   7.541   7.228   7.310 -3.7983  3.7759  0.5398
  311MOL0     H41976   7.430   7.241   7.428  0.1447  1.5284 -3.7111
  311MOL0     H41977   7.493   7.003   7.513 -2.9153  0.0147  0.3081
  311MOL0     H41978   7.594   6.986   7.366  0.4893 -0.6207  0.8816
  311MOL0     H41979   7.386   7.033   7.224  0.5075  2.8768  0.3487
  311MOL0     H41980   7.374   6.877   7.325 -3.1141  0.6255  4.2923
  311MOL0     H41981   7.053   7.111   7.467 -1.4877 -2.2048  1.0708
  311MOL0     H41982   7.603   7.329   7.762  1.0512 -0.5865  0.5075
  311MOL0     H41983   7.710   7.451   8.016  1.1915  0.3738 -0.3191
  311MOL0     H41984   7.563   7.537   8.046  3.6012  1.6268 -1.1580
  311MOL0     H41985   7.544   7.383   7.965 -2.1564  1.5872  0.1848
  312MOL0     O41986   0.057   4.810   5.794  0.2704  0.1913 -0.4844
  312MOL0     C41987   0.176   4.838   5.798 -0.1484 -0.1944 -0.0100
  312MOL0     O41988   0.228   4.962   5.801 -0.0617 -0.9904 -0.3997
  312MOL0     C41989   0.152   5.083   5.775 -0.7387  0.2153 -0.7977
  312MOL0     C41990   0.012   5.082   5.733 -1.0072 -0.6783 -0.8587
  312MOL0     C41991  -0.057   5.202   5.714  0.7563  0.8895 -0.2028
  312MOL0     C41992   0.018   5.321   5.715  0.0329 -0.0284 -0.6655
  312MOL0     O41993  -0.046   5.447   5.687  0.1982  0.2190  0.0668
  312MOL0     C41994  -0.189   5.459   5.712  0.3359 -0.5851 -0.0677
  312MOL0     C41995  -0.238   5.571   5.621 -0.9649  0.3524 -0.1116
  312MOL0     C41996  -0.276   5.530   5.478  0.2064 -0.5488 -0.3937
  312MOL0     C41997  -0.327   5.658   5.403  0.3271  0.4263  1.0148
  312MOL0     C41998  -0.369   5.652   5.254 -0.0907  0.1294 -0.0137
  312MOL0     C41999  -0.432   5.775   5.201 -0.3601 -0.2626  0.6848
  312MOL0     C42000  -0.508   5.742   5.074  0.3103 -0.1877 -0.8384
  312MOL0     C42001  -0.573   5.869   5.015  0.2213 -0.2383  0.1188
  312MOL0     N42002  -0.650   5.832   4.900 -0.3027 -0.6629 -0.1480
  312MOL0     C42003  -0.614   5.830   4.767  0.0323  0.5381 -1.1061
  312MOL0     C42004  -0.733   5.824   4.694 -0.4872  0.3085  0.9073
  312MOL0     C42005  -0.739   5.818   4.537 -0.3911  0.0249 -0.5432
  312MOL0     C42006  -0.713   5.953   4.466  0.3374 -0.8703 -0.1239
  312MOL0     C42007  -0.807   6.072   4.515 -0.7713 -0.7320 -0.1675
  312MOL0     C42008  -0.954   6.032   4.513 -1.2208  0.3139 -1.1721
  312MOL0     O42009  -0.988   6.001   4.377 -1.1221  0.1022  0.4248
  312MOL0     C42010  -1.107   5.938   4.371  0.0749 -1.1293 -0.8229
  312MOL0     C42011  -1.122   5.834   4.281  1.0027  0.2162 -0.4348
  312MOL0     C42012  -1.244   5.768   4.254  1.1833  0.6306 -0.6115
  312MOL0     C42013  -1.357   5.817   4.324  0.1549 -0.6342  0.1549
  312MOL0     C42014  -1.491   5.758   4.301 -1.1942 -0.7973  1.0611
  312MOL0     O42015  -1.591   5.817   4.360 -0.1043  0.1428  0.2331
  312MOL0     C42016  -1.700   5.742   4.398  0.6780 -0.1771 -0.8825
  312MOL0     C42017  -1.698   5.627   4.485 -0.3896 -0.2268  0.1469
  312MOL0     C42018  -1.815   5.572   4.532  0.9160  1.6856 -0.1243
  312MOL0     C42019  -1.939   5.621   4.491 -0.0491 -0.7728  0.6592
  312MOL0     O42020  -2.053   5.581   4.553 -0.1562 -0.0776  0.6982
  312MOL0     C42021  -2.175   5.547   4.486  0.2178  0.4706 -0.1451
  312MOL0     C42022  -2.277   5.658   4.515  0.1098  0.8563 -0.4128
  312MOL0     C42023  -2.413   5.637   4.449  0.5675  0.1594 -0.0362
  312MOL0     C42024  -2.468   5.772   4.374 -0.7844  1.1000  0.3191
  312MOL0     C42025  -2.606   5.734   4.294  0.2544 -0.0133 -0.1950
  312MOL0     C42026  -2.621   5.806   4.167 -0.5676  1.3809  0.7800
  312MOL0     C42027  -2.762   5.774   4.101 -0.9980  0.6645  1.4438
  312MOL0     C42028  -2.745   5.646   4.011 -0.2734 -0.2468  0.6688
  312MOL0    Cl42029  -2.771   5.480   4.078  0.4073 -0.0085  0.1505
  312MOL0     C42030  -1.947   5.739   4.410 -0.0941 -0.3471 -0.9113
  312MOL0     C42031  -1.824   5.804   4.368  0.1374  0.6683  0.1009
  312MOL0     O42032  -1.491   5.669   4.215  0.3387 -0.6369 -0.3481
  312MOL0     C42033  -1.336   5.910   4.430 -0.0520 -0.2042 -0.1449
  312MOL0     C42034  -1.221   5.972   4.439 -0.1860 -0.4366 -0.6827
  312MOL0     N42035  -0.837   5.819   4.780  0.2016 -0.1910  0.3543
  312MOL0     N42036  -0.789   5.815   4.902 -0.6036 -0.4223  0.4781
  312MOL0     C42037   0.151   5.324   5.751 -0.4160  0.5468  0.3929
  312MOL0     C42038   0.221   5.200   5.781  0.0992  0.1809 -0.1092
  312MOL0     C42039   0.276   4.725   5.805 -0.4184  0.2284 -0.2847
  312MOL0     C42040   0.236   4.598   5.787 -0.9921 -0.2658  0.0444
  312MOL0     C42041   0.319   4.492   5.760 -0.1703  0.1366 -0.3899
  312MOL0     C42042   0.453   4.520   5.751 -0.9780  0.4364  0.1411
  312MOL0     O42043   0.536   4.408   5.732  0.1622 -0.8037  0.8046
  312MOL0     C42044   0.637   4.416   5.632 -0.4648 -0.0890 -0.2163
  312MOL0     C42045   0.777   4.378   5.674  0.6499 -0.2128 -0.3599
  312MOL0     C42046   0.817   4.233   5.664 -0.4514  0.1913 -0.4028
  312MOL0     C42047   0.756   4.136   5.770  0.1029 -0.1982 -0.1192
  312MOL0     C42048   0.808   4.003   5.756  0.4661 -0.6406  0.5754
  312MOL0     C42049   0.843   3.888   5.748  0.3410  0.1064  0.1650
  312MOL0     C42050   0.498   4.643   5.783  0.1727 -1.0143 -0.2844
  312MOL0     C42051   0.416   4.751   5.814  0.8285  0.7522 -0.5217
  312MOL0     C42052   0.487   4.885   5.849  0.3578  0.9780 -0.9936
  312MOL0     H42053  -0.054   4.996   5.744 -1.7343  0.1523  1.9623
  312MOL0     H42054  -0.159   5.201   5.676 -0.2586  1.5709  2.2827
  312MOL0     H42055  -0.246   5.367   5.695  1.3406 -1.5923  1.6715
  312MOL0     H42056  -0.211   5.501   5.811 -0.5186 -0.5041 -0.2800
  312MOL0     H42057  -0.162   5.650   5.616 -1.0351  0.3782 -1.0412
  312MOL0     H42058  -0.331   5.618   5.654 -1.2997  0.2822 -0.9194
  312MOL0     H42059  -0.359   5.459   5.491  0.8367 -1.1072  0.7023
  312MOL0     H42060  -0.196   5.478   5.424 -0.1700 -0.9605 -0.5640
  312MOL0     H42061  -0.412   5.706   5.452 -0.5565 -0.7496  0.6832
  312MOL0     H42062  -0.250   5.736   5.412 -0.8202  1.4678  2.0778
  312MOL0     H42063  -0.291   5.615   5.186  0.1442 -0.3380  0.5010
  312MOL0     H42064  -0.443   5.571   5.256 -0.6837  0.6569  2.5626
  312MOL0     H42065  -0.485   5.817   5.287  0.7400 -0.4692  1.4971
  312MOL0     H42066  -0.355   5.846   5.169  0.5576 -1.4078  0.3006
  312MOL0     H42067  -0.588   5.671   5.095  0.8077  0.0375  2.1995
  312MOL0     H42068  -0.437   5.691   5.007 -0.3936 -0.4687 -1.3893
  312MOL0     H42069  -0.637   5.924   5.084  0.2565  2.7671 -2.0517
  312MOL0     H42070  -0.501   5.943   4.978 -1.7131  1.8198  0.2798
  312MOL0     H42071  -0.517   5.828   4.718 -0.3866 -1.8373 -1.9772
  312MOL0     H42072  -0.676   5.743   4.489  0.8379  0.7948 -0.1974
  312MOL0     H42073  -0.842   5.785   4.519 -2.0042  2.3352  3.1011
  312MOL0     H42074  -0.610   5.980   4.492  0.6790  0.1321 -2.2824
  312MOL0     H42075  -0.718   5.937   4.358 -2.0952  2.5329 -0.6867
  312MOL0     H42076  -0.792   6.159   4.450  0.7877 -0.9002 -0.0708
  312MOL0     H42077  -0.792   6.112   4.616 -1.1454  0.8791 -0.7179
  312MOL0     H42078  -1.011   6.121   4.539  1.3481  1.4521  1.0389
  312MOL0     H42079  -0.971   5.956   4.590 -3.5868 -1.8956 -3.6453
  312MOL0     H42080  -1.027   5.802   4.241  0.6399 -2.4856  0.6513
  312MOL0     H42081  -1.251   5.694   4.176  1.6466  1.0956 -1.1044
  312MOL0     H42082  -1.609   5.582   4.526 -1.5501 -2.0748  0.7891
  312MOL0     H42083  -1.810   5.504   4.616  2.7243  0.1339 -1.4001
  312MOL0     H42084  -2.161   5.529   4.379 -0.4302 -1.4495  0.0546
  312MOL0     H42085  -2.203   5.454   4.537 -0.7551  0.4807 -0.6400
  312MOL0     H42086  -2.307   5.666   4.620 -2.9282 -1.2428 -1.0074
  312MOL0     H42087  -2.237   5.755   4.484 -0.2041  0.0002 -3.9106
  312MOL0     H42088  -2.420   5.550   4.383 -1.6266 -0.8659  1.4050
  312MOL0     H42089  -2.492   5.608   4.518 -0.6507  0.6735 -1.1728
  312MOL0     H42090  -2.383   5.813   4.319 -0.2373  1.3380  1.3400
  312MOL0     H42091  -2.482   5.845   4.453 -2.4161  2.2273 -0.9275
  312MOL0     H42092  -2.693   5.753   4.358 -0.8633  1.3547 -2.0181
  312MOL0     H42093  -2.611   5.626   4.274 -2.0332 -0.4666  2.1476
  312MOL0     H42094  -2.618   5.911   4.197 -0.4856  1.9832 -1.2205
  312MOL0     H42095  -2.555   5.786   4.082 -2.7512  1.9575 -1.1702
  312MOL0     H42096  -2.800   5.850   4.033  1.1401  0.8671  0.3834
  312MOL0     H42097  -2.840   5.763   4.177 -3.3495 -0.8829 -1.0265
  312MOL0     H42098  -2.824   5.659   3.936  0.4089 -4.3128 -0.9875
  312MOL0     H42099  -2.652   5.653   3.953 -0.3131  3.6536  0.7950
  312MOL0     H42100  -2.033   5.797   4.378 -1.2473 -1.0847  0.7027
  312MOL0     H42101  -1.829   5.895   4.309  1.5963  0.6456 -0.1023
  312MOL0     H42102  -1.413   5.941   4.501 -0.6156 -1.2807 -0.2741
  312MOL0     H42103  -1.220   6.052   4.513 -0.2043 -0.7314 -0.3625
  312MOL0     H42104   0.195   5.421   5.729 -1.4028  0.3824 -2.7101
  312MOL0     H42105   0.326   5.193   5.809 -0.7648 -0.3010  3.6462
  312MOL0     H42106   0.129   4.583   5.786 -1.3887  2.0601 -0.9296
  312MOL0     H42107   0.266   4.398   5.756  0.7932 -0.4135 -0.6291
  312MOL0     H42108   0.637   4.516   5.588 -0.1695 -0.5800 -1.3586
  312MOL0     H42109   0.605   4.351   5.550 -2.1784  3.3794 -2.5200
  312MOL0     H42110   0.782   4.399   5.781 -0.6209  0.7839 -0.4660
  312MOL0     H42111   0.843   4.436   5.609  2.2531 -1.2574  0.2749
  312MOL0     H42112   0.926   4.234   5.680 -0.7917 -0.5313  2.4678
  312MOL0     H42113   0.805   4.199   5.561  0.8921  2.3626 -1.3614
  312MOL0     H42114   0.796   4.171   5.866  3.1870  2.8636 -2.2810
  312MOL0     H42115   0.648   4.128   5.754  0.1932  0.4391 -1.1155
  312MOL0     H42116   0.867   3.784   5.739 -0.8490 -0.0501 -1.7398
  312MOL0     H42117   0.606   4.639   5.786  0.2362 -2.9285 -2.5214
  312MOL0     H42118   0.481   4.966   5.776 -2.6404  0.4268 -1.4786
  312MOL0     H42119   0.457   4.927   5.946  1.4044  2.9890 -1.4691
  312MOL0     H42120   0.595   4.869   5.861 -0.0325 -2.1108 -0.8643
  313MOL0     O42121  10.774   6.279   3.250 -0.4703 -0.0555  0.3389
  313MOL0     C42122  10.885   6.309   3.300 -0.0533  0.6444 -1.2097
  313MOL0     O42123  11.001   6.261   3.262 -0.1717 -0.1910  0.4856
  313MOL0     C42124  11.009   6.149   3.186  0.4311  0.6471  0.0535
  313MOL0     C42125  10.950   6.029   3.205  1.1504  0.3998 -0.0731
  313MOL0     C42126  10.987   5.913   3.130  0.6597 -0.5638  0.2757
  313MOL0     C42127  11.092   5.922   3.036  0.5990 -0.5662 -0.0101
  313MOL0     O42128  11.121   5.805   2.975  0.9990  0.7382  0.2723
  313MOL0     C42129  11.215   5.800   2.868 -0.4017  1.1878  0.0546
  313MOL0     C42130  11.348   5.750   2.924 -0.7369  0.3391 -0.4963
  313MOL0     C42131  11.431   5.698   2.802  0.4311  0.3081 -0.2506
  313MOL0     C42132  11.566   5.661   2.850 -0.2142 -0.6296  0.7071
  313MOL0     C42133  11.662   5.673   2.744  0.0458 -0.4737 -0.1451
  313MOL0     C42134  11.801   5.628   2.790 -0.3915 -0.0353 -0.2705
  313MOL0     C42135  11.887   5.595   2.669  0.3319  1.2130 -0.6385
  313MOL0     C42136  12.028   5.546   2.699 -0.2978  0.7487 -0.8967
  313MOL0     N42137  12.065   5.443   2.598 -0.1875 -0.6190 -0.1322
  313MOL0     C42138  12.194   5.440   2.547  0.3447 -0.4236 -0.0818
  313MOL0     C42139  12.191   5.339   2.454 -0.3471 -0.0439 -0.4265
  313MOL0     C42140  12.297   5.295   2.356 -0.9969 -0.2039 -0.3722
  313MOL0     C42141  12.360   5.419   2.281 -0.6013  0.0239  0.8174
  313MOL0     C42142  12.247   5.494   2.204 -0.6401  0.2694 -0.5491
  313MOL0     C42143  12.295   5.629   2.163 -0.0473  0.3750  0.4122
  313MOL0     O42144  12.381   5.704   2.248  0.1357  0.1830 -0.3926
  313MOL0     C42145  12.343   5.744   2.368  0.1410  0.4385 -0.2543
  313MOL0     C42146  12.211   5.770   2.409  0.5351 -0.3012 -0.2644
  313MOL0     C42147  12.177   5.836   2.531  0.7246 -0.5215  0.2656
  313MOL0     C42148  12.281   5.857   2.619 -0.3218  0.3150 -0.0080
  313MOL0     C42149  12.249   5.910   2.754 -0.0798  0.0283  0.8444
  313MOL0     O42150  12.117   5.917   2.784  0.1756 -0.2776 -0.2310
  313MOL0     C42151  12.083   5.939   2.915  0.2346 -0.6008 -0.1546
  313MOL0     C42152  11.992   6.043   2.930 -0.9792 -0.6129 -0.4266
  313MOL0     C42153  11.944   6.085   3.054 -1.1229 -0.2517  0.4430
  313MOL0     C42154  11.981   6.018   3.166 -0.1333 -0.0238  0.1841
  313MOL0     O42155  11.922   6.063   3.283 -0.2645  0.5616  0.3344
  313MOL0     C42156  11.822   5.973   3.355 -0.1783 -0.1726  0.5011
  313MOL0     C42157  11.719   6.049   3.448 -0.7105  0.6422  0.4525
  313MOL0     C42158  11.794   6.148   3.537  0.1656 -0.5721  0.3124
  313MOL0     C42159  11.839   6.077   3.659 -1.1207 -0.4722  0.0937
  313MOL0     C42160  11.877   6.182   3.763 -1.0018 -0.4863  0.3425
  313MOL0     C42161  11.950   6.120   3.889 -0.4218  0.6021 -0.1050
  313MOL0     C42162  12.101   6.130   3.872 -0.5641 -0.6576 -0.3260
  313MOL0     C42163  12.164   6.078   4.002 -0.5279  0.6004 -0.1968
  313MOL0    Cl42164  12.321   5.996   3.967  0.1942 -0.1117  0.4196
  313MOL0     C42165  12.081   5.911   3.159  0.6038  0.7501 -0.7910
  313MOL0     C42166  12.127   5.866   3.029 -0.2102  0.8412  0.3893
  313MOL0     O42167  12.340   5.908   2.836 -0.4819 -0.3884 -0.3456
  313MOL0     C42168  12.410   5.822   2.584  0.1172  0.0424 -1.0866
  313MOL0     C42169  12.442   5.769   2.464  0.1417 -0.0749  0.7265
  313MOL0     N42170  12.064   5.281   2.450  0.1417 -1.2922 -0.2395
  313MOL0     N42171  11.996   5.344   2.542 -0.3086  0.0893 -0.3114
  313MOL0     C42172  11.160   6.045   3.023 -0.3505 -0.4225  0.4476
  313MOL0     C42173  11.125   6.150   3.098 -0.2985 -0.3182 -0.0961
  313MOL0     C42174  10.881   6.392   3.422 -0.0891  0.5107  0.3507
  313MOL0     C42175  11.004   6.454   3.461  0.5036  0.2554 -0.3244
  313MOL0     C42176  11.006   6.531   3.575 -1.0968 -0.6685 -0.4477
  313MOL0     C42177  10.891   6.564   3.639  0.4167 -0.8761 -0.0904
  313MOL0     O42178  10.890   6.667   3.732  0.4400  0.3496 -0.9747
  313MOL0     C42179  10.984   6.659   3.839 -0.4493  0.0750 -0.4576
  313MOL0     C42180  10.988   6.532   3.923  0.6020  0.1930 -0.1162
  313MOL0     C42181  11.090   6.522   4.033 -0.8852  0.3874 -0.9265
  313MOL0     C42182  11.241   6.542   3.994 -0.1554 -0.2726  0.1001
  313MOL0     C42183  11.312   6.526   4.126  1.1045  0.6337  1.1002
  313MOL0     C42184  11.362   6.523   4.235 -0.0618  0.2809 -0.8881
  313MOL0     C42185  10.767   6.522   3.587  0.3951  0.8710  0.9323
  313MOL0     C42186  10.754   6.429   3.484 -0.2214  0.2163  0.3582
  313MOL0     C42187  10.617   6.389   3.447  0.4357 -0.0814 -0.4972
  313MOL0     H42188  10.868   6.018   3.276  1.5589 -4.1768 -0.0595
  313MOL0     H42189  10.937   5.817   3.128 -1.3196  0.3883  1.2088
  313MOL0     H42190  11.183   5.732   2.787 -0.6623  0.4636  0.7519
  313MOL0     H42191  11.209   5.898   2.820  1.6938  1.0945 -0.5130
  313MOL0     H42192  11.344   5.673   3.001  3.1090 -0.2794 -0.6991
  313MOL0     H42193  11.400   5.835   2.971 -0.8447 -0.6211  1.4603
  313MOL0     H42194  11.442   5.781   2.731  2.2516  0.4057  0.0822
  313MOL0     H42195  11.396   5.617   2.738  0.0627  1.5826 -1.7270
  313MOL0     H42196  11.602   5.725   2.931 -1.2921  0.0973  0.6357
  313MOL0     H42197  11.559   5.556   2.879 -2.8912 -0.2934  1.5376
  313MOL0     H42198  11.627   5.612   2.661 -4.3885 -1.0685  1.9113
  313MOL0     H42199  11.668   5.778   2.711 -1.6169 -0.5657 -0.8041
  313MOL0     H42200  11.852   5.701   2.854 -1.4258  5.0472 -4.5142
  313MOL0     H42201  11.790   5.534   2.844 -0.2845  0.3575  0.4529
  313MOL0     H42202  11.896   5.690   2.616 -0.1169  1.3105 -0.5435
  313MOL0     H42203  11.834   5.522   2.607  1.6864  0.3825 -0.8610
  313MOL0     H42204  12.101   5.627   2.694  3.3446 -2.1720  0.3667
  313MOL0     H42205  12.030   5.508   2.802 -1.7273 -1.8936 -1.7450
  313MOL0     H42206  12.268   5.516   2.570 -0.3915 -0.2915  2.1053
  313MOL0     H42207  12.371   5.249   2.422 -1.9276  0.0949  0.9154
  313MOL0     H42208  12.258   5.221   2.286 -0.7637 -1.9103  1.2083
  313MOL0     H42209  12.418   5.476   2.355  0.3760 -1.3030  1.0952
  313MOL0     H42210  12.428   5.379   2.205 -3.2103 -0.4954 -1.3934
  313MOL0     H42211  12.152   5.517   2.252 -0.6151  2.1185 -1.2939
  313MOL0     H42212  12.233   5.433   2.114 -3.4058  0.0152 -0.0382
  313MOL0     H42213  12.209   5.690   2.133 -0.9656 -1.2819 -0.4642
  313MOL0     H42214  12.354   5.612   2.072 -0.1727 -1.2997  0.6183
  313MOL0     H42215  12.129   5.754   2.340 -1.4098 -2.4201  2.3278
  313MOL0     H42216  12.070   5.848   2.544  0.7813 -0.2458  0.4776
  313MOL0     H42217  11.957   6.092   2.840  0.9465 -1.8291 -1.9388
  313MOL0     H42218  11.870   6.164   3.064 -1.2887 -0.5053  1.2759
  313MOL0     H42219  11.754   5.922   3.287 -0.7588  0.2950  0.7171
  313MOL0     H42220  11.876   5.895   3.409 -0.3378 -2.3578 -2.3022
  313MOL0     H42221  11.654   6.108   3.383 -1.2588  0.0747  0.4791
  313MOL0     H42222  11.663   5.977   3.508 -2.6760  1.1547 -0.6920
  313MOL0     H42223  11.887   6.181   3.491 -0.1234 -1.0327 -0.6171
  313MOL0     H42224  11.735   6.236   3.565  0.3760 -0.0288 -0.9071
  313MOL0     H42225  11.919   6.005   3.639 -0.8351 -0.0708 -0.2303
  313MOL0     H42226  11.765   6.016   3.712  0.9221  1.0383  5.2881
  313MOL0     H42227  11.788   6.242   3.786 -0.9400  0.5804 -1.9102
  313MOL0     H42228  11.946   6.257   3.722 -0.1827 -1.2320  0.3346
  313MOL0     H42229  11.919   6.172   3.980  0.7214  0.4167  0.3993
  313MOL0     H42230  11.937   6.011   3.898  2.2873  0.3648  2.5373
  313MOL0     H42231  12.132   6.233   3.852  0.8936 -0.8706  0.7080
  313MOL0     H42232  12.142   6.073   3.788 -0.2653  2.1032 -2.1837
  313MOL0     H42233  12.171   6.159   4.074 -0.7395  0.5842 -0.1564
  313MOL0     H42234  12.088   6.010   4.041 -2.9068  2.9812 -0.4145
  313MOL0     H42235  12.116   5.869   3.254  2.8175  4.4886  0.2427
  313MOL0     H42236  12.197   5.784   3.030 -0.9025  0.1821 -1.3884
  313MOL0     H42237  12.493   5.830   2.653 -1.3073  0.8186  0.5957
  313MOL0     H42238  12.546   5.754   2.435 -0.1481 -2.6367  0.7471
  313MOL0     H42239  11.237   6.069   2.950 -2.0943 -1.4590 -1.8238
  313MOL0     H42240  11.175   6.247   3.097  1.5714 -1.2329 -0.8154
  313MOL0     H42241  11.090   6.422   3.402 -2.2217 -3.9540 -2.4437
  313MOL0     H42242  11.098   6.581   3.602 -1.7752  2.8171 -3.6966
  313MOL0     H42243  10.966   6.743   3.907  1.9865  0.4805 -0.1944
  313MOL0     H42244  11.085   6.662   3.796 -2.5391 -2.2769 -6.5860
  313MOL0     H42245  10.995   6.446   3.856  0.5011 -0.9428  1.2867
  313MOL0     H42246  10.893   6.518   3.973  0.2955  0.7267 -0.5328
  313MOL0     H42247  11.081   6.429   4.089 -0.4828  1.4719  1.0505
  313MOL0     H42248  11.064   6.596   4.110 -0.7262 -2.0011  1.5891
  313MOL0     H42249  11.254   6.474   3.909  0.5584  1.7073 -1.4408
  313MOL0     H42250  11.252   6.644   3.956 -0.4113  0.5355  2.0414
  313MOL0     H42251  11.399   6.530   4.335  3.3548  0.4203 -2.0642
  313MOL0     H42252  10.679   6.566   3.634  0.3806  2.4124 -0.4525
  313MOL0     H42253  10.601   6.282   3.459  1.8118 -0.3726 -1.1174
  313MOL0     H42254  10.539   6.437   3.506  0.5342 -0.3574 -0.1441
  313MOL0     H42255  10.591   6.414   3.343  1.9822 -1.4505 -1.2696
  314MOL0     O42256   1.093   0.200   3.814  0.4812  0.3106 -0.3312
  314MOL0     C42257   1.023   0.093   3.831  0.0178 -0.1470 -0.0923
  314MOL0     O42258   0.930   0.080   3.927 -0.3692  0.4658  0.1969
  314MOL0     C42259   0.922   0.168   4.028  0.3114  0.4655  0.1515
  314MOL0     C42260   0.868   0.296   4.015 -0.8995  1.3223 -0.1603
  314MOL0     C42261   0.851   0.386   4.118  1.0260 -0.3632 -0.2143
  314MOL0     C42262   0.887   0.360   4.247  0.2144 -0.3750 -0.9701
  314MOL0     O42263   0.863   0.457   4.345 -0.1020 -0.6639  0.4679
  314MOL0     C42264   0.837   0.407   4.478  0.1082  0.5566  0.3495
  314MOL0     C42265   0.842   0.525   4.576  0.8693 -0.8123  0.8698
  314MOL0     C42266   0.758   0.486   4.704  0.2709  0.3667 -0.2342
  314MOL0     C42267   0.652   0.594   4.748 -0.1407  0.1705 -0.3027
  314MOL0     C42268   0.568   0.539   4.872 -0.7413  0.4516 -0.1838
  314MOL0     C42269   0.444   0.619   4.901  0.2756 -0.2375  0.4129
  314MOL0     C42270   0.350   0.568   5.009 -0.0923 -0.0285 -0.1532
  314MOL0     C42271   0.243   0.670   5.037 -0.1788  0.6164 -0.7894
  314MOL0     N42272   0.130   0.664   4.945 -0.5364  0.0784  0.4562
  314MOL0     C42273   0.010   0.606   4.964  0.0471  1.0417  0.2150
  314MOL0     C42274  -0.071   0.635   4.862 -0.7483  0.1179  0.7487
  314MOL0     C42275  -0.219   0.595   4.840  0.4137 -0.7983 -0.5224
  314MOL0     C42276  -0.251   0.549   4.702 -0.1855 -0.3428 -0.5745
  314MOL0     C42277  -0.179   0.427   4.649 -0.2639 -0.1578 -0.1049
  314MOL0     C42278  -0.183   0.307   4.739 -0.8095 -0.5987  0.1703
  314MOL0     O42279  -0.073   0.308   4.828 -0.1714 -0.1339  0.3118
  314MOL0     C42280  -0.060   0.222   4.934 -0.7273 -0.2551  1.1302
  314MOL0     C42281  -0.154   0.125   4.964  0.5762 -0.2067 -1.6373
  314MOL0     C42282  -0.133   0.050   5.085 -0.8279 -0.2468  0.4233
  314MOL0     C42283  -0.024   0.082   5.171 -0.9687  0.6853  0.0780
  314MOL0     C42284  -0.006   0.006   5.298  0.3004  0.6192  0.0419
  314MOL0     O42285   0.026   0.075   5.411 -0.2761 -0.6270  0.2761
  314MOL0     C42286   0.012   0.021   5.538 -0.4664 -0.2246 -0.1971
  314MOL0     C42287   0.030  -0.112   5.577 -0.0072  0.3704 -0.4556
  314MOL0     C42288   0.041  -0.155   5.714 -0.4140 -1.0546 -0.1740
  314MOL0     C42289   0.049  -0.052   5.812 -0.0260  0.0485 -0.2919
  314MOL0     O42290   0.060  -0.070   5.943  0.9321  0.3426 -0.1125
  314MOL0     C42291  -0.062  -0.087   6.016  0.7047 -0.4400  0.1757
  314MOL0     C42292  -0.120   0.054   6.054 -0.9692 -0.2337 -0.0383
  314MOL0     C42293  -0.245   0.046   6.143 -0.7728  0.1311  0.1949
  314MOL0     C42294  -0.343  -0.068   6.117  0.1886  0.6614 -0.0213
  314MOL0     C42295  -0.480  -0.044   6.190  0.3829 -0.5588  0.1323
  314MOL0     C42296  -0.570  -0.171   6.169 -0.5530  0.1596  0.0296
  314MOL0     C42297  -0.705  -0.170   6.234  0.0523  0.5267 -0.8840
  314MOL0     C42298  -0.764  -0.314   6.244 -0.4096  0.2553  0.4404
  314MOL0    Cl42299  -0.801  -0.376   6.086 -0.1304 -0.3176  0.7713
  314MOL0     C42300   0.036   0.081   5.777  0.4206 -0.0152 -0.1434
  314MOL0     C42301   0.029   0.112   5.641  0.4263 -0.2837 -0.0266
  314MOL0     O42302  -0.039  -0.116   5.293 -1.2542 -0.6982 -0.7642
  314MOL0     C42303   0.071   0.173   5.130  0.1162  0.0680 -0.0949
  314MOL0     C42304   0.055   0.241   5.011 -0.6848  0.3737  0.2123
  314MOL0     N42305   0.013   0.711   4.776  0.4870  0.3431  1.1268
  314MOL0     N42306   0.129   0.733   4.826 -0.0726  1.1241  0.5744
  314MOL0     C42307   0.926   0.223   4.268  0.2320  0.1881  0.4476
  314MOL0     C42308   0.939   0.133   4.163  0.3360  1.1507  0.4675
  314MOL0     C42309   1.058  -0.031   3.762  0.6918  1.0936 -0.4550
  314MOL0     C42310   1.164  -0.022   3.681  0.3631  0.1177  1.1783
  314MOL0     C42311   1.214  -0.133   3.613  0.1843  0.8097  0.5080
  314MOL0     C42312   1.159  -0.262   3.629  0.0106 -0.6552  0.2388
  314MOL0     O42313   1.219  -0.363   3.554  0.2276 -0.7828 -0.6780
  314MOL0     C42314   1.201  -0.497   3.595  0.7403 -0.1899 -0.4695
  314MOL0     C42315   1.135  -0.579   3.480  0.2835 -0.5382 -0.7164
  314MOL0     C42316   1.215  -0.587   3.350  0.8932 -0.3011 -0.5066
  314MOL0     C42317   1.125  -0.637   3.234 -0.1568 -0.1101  0.4383
  314MOL0     C42318   1.111  -0.787   3.258 -0.7059 -0.0588  1.0989
  314MOL0     C42319   1.095  -0.907   3.287 -0.2626  0.4393 -0.5366
  314MOL0     C42320   1.036  -0.272   3.701 -0.5212 -0.0321 -0.1140
  314MOL0     C42321   0.985  -0.155   3.758 -0.8754  0.5388 -0.0325
  314MOL0     C42322   0.846  -0.166   3.823 -0.4260  0.5293 -0.3102
  314MOL0     H42323   0.847   0.333   3.915  5.1509 -1.1079 -2.8102
  314MOL0     H42324   0.803   0.478   4.089  1.2331 -0.1866 -0.0007
  314MOL0     H42325   0.737   0.361   4.482 -0.6752  2.2792  2.9837
  314MOL0     H42326   0.915   0.339   4.514  0.1582 -0.1651 -1.0330
  314MOL0     H42327   0.796   0.612   4.529 -0.9592 -0.9220  2.3257
  314MOL0     H42328   0.944   0.553   4.602  2.0868 -0.1920 -3.7389
  314MOL0     H42329   0.827   0.468   4.787 -1.2902 -1.7624  0.6841
  314MOL0     H42330   0.704   0.391   4.694 -0.1668  0.7150 -1.3196
  314MOL0     H42331   0.699   0.685   4.785  1.6254 -1.0213  0.5203
  314MOL0     H42332   0.582   0.633   4.673  2.5263 -0.1756 -3.1516
  314MOL0     H42333   0.548   0.434   4.849  2.3702 -0.2864  0.0730
  314MOL0     H42334   0.637   0.539   4.957  1.6423  0.9166 -2.0137
  314MOL0     H42335   0.469   0.718   4.940  0.5645  0.8506 -2.2549
  314MOL0     H42336   0.392   0.627   4.805  0.3195 -3.5409  0.0146
  314MOL0     H42337   0.417   0.548   5.093  1.2037  0.6272 -1.0056
  314MOL0     H42338   0.319   0.467   4.979  4.7477 -1.9921  0.4412
  314MOL0     H42339   0.202   0.666   5.139  0.7118  0.2365 -0.4418
  314MOL0     H42340   0.288   0.769   5.031 -0.1709  0.7237  0.7693
  314MOL0     H42341  -0.022   0.558   5.056 -0.7003  0.7612 -0.1863
  314MOL0     H42342  -0.238   0.522   4.920 -3.0424  0.6537  0.1588
  314MOL0     H42343  -0.279   0.682   4.871  0.2573 -1.3705  0.8522
  314MOL0     H42344  -0.358   0.537   4.683 -0.3212 -1.0651  0.5647
  314MOL0     H42345  -0.233   0.643   4.649 -1.1917  1.9133  2.7503
  314MOL0     H42346  -0.076   0.458   4.629  0.4492 -1.9466  0.5138
  314MOL0     H42347  -0.231   0.402   4.556 -2.6690  0.9912  0.8451
  314MOL0     H42348  -0.201   0.216   4.680 -0.9442  0.7003 -1.8799
  314MOL0     H42349  -0.269   0.324   4.805  0.2886 -0.7608  1.6915
  314MOL0     H42350  -0.242   0.122   4.902 -1.2975  1.3063  0.7363
  314MOL0     H42351  -0.201  -0.032   5.105 -1.5082 -1.0859 -4.2789
  314MOL0     H42352   0.029  -0.196   5.509  0.8382 -0.1032  0.0995
  314MOL0     H42353   0.070  -0.258   5.733  1.4936 -0.4941  0.1228
  314MOL0     H42354  -0.135  -0.155   5.971  0.6877 -1.6833  1.9625
  314MOL0     H42355  -0.053  -0.122   6.120  0.8584  2.3268  1.1798
  314MOL0     H42356  -0.042   0.117   6.099  0.1352 -2.1576  0.8702
  314MOL0     H42357  -0.150   0.108   5.963  0.8582 -0.2054 -0.6717
  314MOL0     H42358  -0.216   0.040   6.248  0.0104 -0.7113 -0.0618
  314MOL0     H42359  -0.290   0.143   6.120  0.6171  0.8645  0.4923
  314MOL0     H42360  -0.291  -0.158   6.149  3.3086  1.3920 -2.4735
  314MOL0     H42361  -0.351  -0.078   6.008  3.8085 -1.0012 -0.3034
  314MOL0     H42362  -0.522   0.055   6.171 -0.9192 -1.3430 -1.3076
  314MOL0     H42363  -0.451  -0.047   6.296  1.7030  0.0394 -0.1958
  314MOL0     H42364  -0.589  -0.159   6.062  3.7093  2.4250 -0.7142
  314MOL0     H42365  -0.518  -0.267   6.180  1.9636  1.2072 -1.7295
  314MOL0     H42366  -0.779  -0.115   6.174  0.2660  0.3184 -1.3474
  314MOL0     H42367  -0.704  -0.139   6.338 -1.8611  1.2060 -1.0309
  314MOL0     H42368  -0.691  -0.375   6.298 -0.1869  1.4760  1.5667
  314MOL0     H42369  -0.856  -0.330   6.301 -1.7351 -2.2728 -2.1488
  314MOL0     H42370   0.028   0.150   5.860 -4.0972 -0.2978 -0.0986
  314MOL0     H42371   0.027   0.212   5.599 -1.2077 -0.0685  0.4811
  314MOL0     H42372   0.154   0.199   5.195 -2.0984  1.9632  2.1866
  314MOL0     H42373   0.127   0.320   4.993  0.2362 -0.4582  0.1371
  314MOL0     H42374   0.947   0.182   4.366  3.0315 -3.8471 -1.5690
  314MOL0     H42375   0.973   0.036   4.198 -0.3884  0.2677 -1.1875
  314MOL0     H42376   1.203   0.076   3.658  0.0550  0.5594  2.4787
  314MOL0     H42377   1.314  -0.123   3.573  1.4613 -3.4332  2.0886
  314MOL0     H42378   1.137  -0.495   3.683 -1.3773  3.5693 -1.9059
  314MOL0     H42379   1.302  -0.534   3.616  1.1969  1.0405 -0.4222
  314MOL0     H42380   1.033  -0.548   3.456 -0.3912 -2.7733 -1.0404
  314MOL0     H42381   1.127  -0.682   3.517  2.8364 -0.2084  1.0503
  314MOL0     H42382   1.301  -0.653   3.366  0.1373 -0.9655  0.9616
  314MOL0     H42383   1.244  -0.485   3.321  1.6261  0.0286  1.2171
  314MOL0     H42384   1.024  -0.596   3.234  0.2911  1.2999 -2.9185
  314MOL0     H42385   1.172  -0.610   3.139 -1.8686  1.1433 -0.1053
  314MOL0     H42386   1.069  -1.000   3.335 -4.4192  1.8842  0.4573
  314MOL0     H42387   0.979  -0.364   3.698 -0.3147 -0.1670  0.0261
  314MOL0     H42388   0.787  -0.074   3.814  1.2066  1.5690 -0.8633
  314MOL0     H42389   0.784  -0.245   3.778  1.0129  0.1577 -1.7083
  314MOL0     H42390   0.865  -0.193   3.927  4.7360  1.7154 -0.7198
  315MOL0     O42391  10.656   3.869   2.291  0.2942  0.8327 -0.0817
  315MOL0     C42392  10.714   3.785   2.217  0.7732  0.6993  0.2629
  315MOL0     O42393  10.848   3.770   2.206 -0.6994 -0.2645 -0.3129
  315MOL0     C42394  10.912   3.892   2.235 -0.2661  0.0247  0.1804
  315MOL0     C42395  10.991   3.903   2.346 -0.1990  0.4322  0.4021
  315MOL0     C42396  11.060   4.016   2.378  0.2405 -0.3693 -0.7305
  315MOL0     C42397  11.063   4.120   2.290 -0.8327 -0.1085  0.2995
  315MOL0     O42398  11.137   4.229   2.331  0.1351  0.1109  0.2514
  315MOL0     C42399  11.145   4.347   2.245 -0.6336  0.7513 -0.0018
  315MOL0     C42400  11.254   4.443   2.283 -0.4522 -0.2855 -0.1806
  315MOL0     C42401  11.262   4.483   2.435 -0.6528  0.0261  0.2775
  315MOL0     C42402  11.308   4.626   2.478 -0.9405 -0.8150  0.1027
  315MOL0     C42403  11.260   4.665   2.623 -0.4517 -0.1375 -0.7066
  315MOL0     C42404  11.287   4.802   2.682  0.9799  0.5724 -0.0178
  315MOL0     C42405  11.251   4.912   2.582  0.6959  0.6811 -0.0180
  315MOL0     C42406  11.118   4.893   2.522 -0.0773 -0.3202  0.7610
  315MOL0     N42407  11.012   4.875   2.618 -0.3178 -1.1843  0.1979
  315MOL0     C42408  10.989   4.942   2.729 -0.1874 -0.2659  0.0037
  315MOL0     C42409  10.872   4.886   2.775  0.1715  0.2089 -0.2671
  315MOL0     C42410  10.819   4.899   2.917  0.2087 -1.0881  0.6041
  315MOL0     C42411  10.769   5.050   2.944 -0.8879  0.3446 -0.5841
  315MOL0     C42412  10.661   5.102   2.855  0.1446 -0.1192  0.2121
  315MOL0     C42413  10.697   5.237   2.784 -0.6221  0.1868  0.9485
  315MOL0     O42414  10.797   5.221   2.693 -1.0640  0.2912 -0.6182
  315MOL0     C42415  10.873   5.336   2.666  0.6129  0.2436 -0.8431
  315MOL0     C42416  10.834   5.469   2.670 -0.0065  0.0283  0.7479
  315MOL0     C42417  10.926   5.567   2.634 -0.4934  0.0403 -0.1438
  315MOL0     C42418  11.061   5.542   2.600  0.1888 -0.2803 -1.0846
  315MOL0     C42419  11.160   5.646   2.544 -0.0163 -0.6349 -0.9523
  315MOL0     O42420  11.123   5.781   2.538  0.1749  0.7947  0.1288
  315MOL0     C42421  11.212   5.881   2.511 -0.1118 -0.3635  0.7109
  315MOL0     C42422  11.145   6.005   2.506  0.0869  0.0212  0.0120
  315MOL0     C42423  11.203   6.124   2.449  0.2605  0.4801 -0.4206
  315MOL0     C42424  11.334   6.126   2.414  0.5702 -1.4789  0.1708
  315MOL0     O42425  11.371   6.240   2.346 -0.3495 -0.7198 -0.0826
  315MOL0     C42426  11.511   6.261   2.370 -0.6638  0.2004 -0.5804
  315MOL0     C42427  11.536   6.408   2.323 -0.4763 -0.2581 -0.5721
  315MOL0     C42428  11.691   6.447   2.329  0.3706 -0.7356 -0.3271
  315MOL0     C42429  11.778   6.397   2.212 -0.2455 -0.5817 -0.4323
  315MOL0     C42430  11.924   6.423   2.227 -0.2442 -0.6121  0.1633
  315MOL0     C42431  11.951   6.573   2.225  0.7649  0.0851  0.6943
  315MOL0     C42432  12.097   6.596   2.242 -0.9598 -0.5940  0.2805
  315MOL0     C42433  12.154   6.742   2.219 -0.3737  0.7512  0.7492
  315MOL0    Cl42434  12.084   6.842   2.353 -0.1381  0.0021 -0.1201
  315MOL0     C42435  11.402   6.003   2.397  0.2661 -0.7228 -0.2327
  315MOL0     C42436  11.346   5.885   2.452  0.5993  0.5634  0.3024
  315MOL0     O42437  11.274   5.603   2.524 -0.0384 -0.1844  0.6313
  315MOL0     C42438  11.095   5.407   2.588 -0.3992 -0.5037  0.9147
  315MOL0     C42439  11.005   5.302   2.624 -0.4239 -0.2760  0.3179
  315MOL0     N42440  10.826   4.788   2.686 -0.0111 -1.0395  0.6110
  315MOL0     N42441  10.915   4.790   2.587  0.1173  0.5881  0.5934
  315MOL0     C42442  10.984   4.113   2.171  0.8092 -0.5644 -0.8056
  315MOL0     C42443  10.915   3.998   2.136 -0.4924  0.4715 -0.1301
  315MOL0     C42444  10.619   3.688   2.155 -0.8317  0.3360  0.9251
  315MOL0     C42445  10.480   3.685   2.191 -0.6922 -0.7698  0.3728
  315MOL0     C42446  10.388   3.608   2.127  0.0725  0.2556  0.1770
  315MOL0     C42447  10.418   3.528   2.018  0.5889 -0.2112 -0.4068
  315MOL0     O42448  10.315   3.464   1.968  0.3259 -0.1663 -0.1871
  315MOL0     C42449  10.332   3.356   1.877  0.4206  0.4508 -0.5538
  315MOL0     C42450  10.185   3.303   1.869 -0.1140 -0.0740  0.0165
  315MOL0     C42451  10.181   3.156   1.809 -0.0854 -0.9198 -0.1940
  315MOL0     C42452  10.033   3.127   1.762 -0.1623 -0.0566 -0.4070
  315MOL0     C42453   9.917   3.166   1.846 -0.4630 -0.2492  0.5984
  315MOL0     C42454   9.827   3.202   1.917  0.3089  0.1506  0.5237
  315MOL0     C42455  10.548   3.527   1.971 -0.2666 -0.9857 -0.2451
  315MOL0     C42456  10.647   3.598   2.038 -0.1505 -0.4110  0.5440
  315MOL0     C42457  10.790   3.592   1.974 -0.6038  0.0972 -0.1955
  315MOL0     H42458  10.986   3.824   2.421  3.9477  0.9003  1.4322
  315MOL0     H42459  11.105   4.015   2.477 -2.8608  1.5650  0.8480
  315MOL0     H42460  11.181   4.309   2.149 -2.0364  1.5653 -0.8717
  315MOL0     H42461  11.050   4.393   2.218 -0.7789  1.4750  1.6515
  315MOL0     H42462  11.245   4.537   2.228  3.2969 -0.0662 -0.6794
  315MOL0     H42463  11.351   4.403   2.251 -0.4209 -0.3222 -0.0456
  315MOL0     H42464  11.320   4.397   2.470 -1.2742 -0.8355 -0.7516
  315MOL0     H42465  11.162   4.479   2.479 -2.3055  3.2150 -2.7256
  315MOL0     H42466  11.417   4.635   2.487 -0.8426 -2.0480  0.2014
  315MOL0     H42467  11.264   4.691   2.402 -0.4348 -1.3868 -0.6992
  315MOL0     H42468  11.153   4.644   2.621 -0.6366  0.6209  0.4854
  315MOL0     H42469  11.308   4.598   2.696 -0.8735 -0.0516 -0.3457
  315MOL0     H42470  11.224   4.805   2.771 -0.3944 -1.6228 -0.8378
  315MOL0     H42471  11.393   4.816   2.707  1.1487 -2.3132  1.1773
  315MOL0     H42472  11.316   4.903   2.495 -0.0588 -1.6691 -0.4301
  315MOL0     H42473  11.257   5.014   2.621 -2.7088  1.1469 -0.4175
  315MOL0     H42474  11.106   4.984   2.463  3.4684 -1.1090 -1.4749
  315MOL0     H42475  11.120   4.808   2.453  0.5302  2.0866 -2.4277
  315MOL0     H42476  11.054   5.007   2.787  0.7803 -1.2340  0.0470
  315MOL0     H42477  10.735   4.830   2.931 -1.9998  0.4065 -3.5109
  315MOL0     H42478  10.895   4.887   2.995 -0.3900  2.2012  1.8496
  315MOL0     H42479  10.737   5.053   3.049 -1.7831 -2.0330 -0.7153
  315MOL0     H42480  10.855   5.117   2.945 -0.5251 -0.0702 -1.9503
  315MOL0     H42481  10.569   5.100   2.914  0.5893 -0.7730  0.8976
  315MOL0     H42482  10.634   5.032   2.775  1.0405  4.5012 -4.7410
  315MOL0     H42483  10.738   5.298   2.865  1.4149  1.2973 -0.8088
  315MOL0     H42484  10.608   5.286   2.745 -1.1125 -1.3469  0.0578
  315MOL0     H42485  10.733   5.493   2.703 -1.0001 -0.7899 -1.4410
  315MOL0     H42486  10.895   5.671   2.628 -2.3115 -0.3187  1.6771
  315MOL0     H42487  11.039   6.010   2.524 -0.3988  0.8085 -2.6408
  315MOL0     H42488  11.142   6.213   2.445 -1.4510 -0.6895 -2.4962
  315MOL0     H42489  11.538   6.257   2.476  0.3296  0.5411 -0.8049
  315MOL0     H42490  11.571   6.192   2.311  0.9072  3.5194 -3.2232
  315MOL0     H42491  11.472   6.422   2.235 -1.0191 -0.7607 -0.2712
  315MOL0     H42492  11.490   6.467   2.402 -0.8156 -1.1666 -0.0728
  315MOL0     H42493  11.693   6.557   2.330  0.8491 -0.7005 -1.9056
  315MOL0     H42494  11.730   6.417   2.426 -3.8416  1.6301  2.3872
  315MOL0     H42495  11.744   6.453   2.125  1.5542  1.3725  0.0307
  315MOL0     H42496  11.759   6.291   2.194  0.3536 -0.6798 -0.4900
  315MOL0     H42497  11.973   6.366   2.147  0.4391 -0.4129  0.4365
  315MOL0     H42498  11.965   6.392   2.323 -1.7526 -1.0695  0.6916
  315MOL0     H42499  11.908   6.622   2.137 -2.8970 -2.8964  0.5614
  315MOL0     H42500  11.900   6.628   2.305 -1.8897 -1.2950  0.0882
  315MOL0     H42501  12.138   6.539   2.158 -0.1773  2.6410 -1.7274
  315MOL0     H42502  12.129   6.551   2.336  0.6788 -0.3983 -0.1351
  315MOL0     H42503  12.263   6.742   2.224 -0.0363  0.3297 -3.1789
  315MOL0     H42504  12.123   6.766   2.116  2.0056  0.0392 -0.1902
  315MOL0     H42505  11.502   5.997   2.355  1.2830  0.9155  1.7567
  315MOL0     H42506  11.403   5.794   2.469  1.4490  1.1408  0.5496
  315MOL0     H42507  11.194   5.384   2.547  1.0528  0.8584  3.4124
  315MOL0     H42508  11.046   5.202   2.622 -0.3530 -0.2307 -1.1585
  315MOL0     H42509  10.987   4.203   2.110  0.7515  1.6155  2.1590
  315MOL0     H42510  10.869   3.974   2.040  4.1063  0.4271 -2.6421
  315MOL0     H42511  10.438   3.739   2.275  0.8558  0.4350  0.4175
  315MOL0     H42512  10.285   3.620   2.160  1.2489  1.8946  3.6321
  315MOL0     H42513  10.407   3.282   1.907  0.0355  0.3029  0.0540
  315MOL0     H42514  10.363   3.389   1.777  0.4868 -2.8242 -1.7547
  315MOL0     H42515  10.125   3.375   1.811 -1.6832 -1.5096 -0.2349
  315MOL0     H42516  10.141   3.295   1.969  1.3250 -2.5360  0.5325
  315MOL0     H42517  10.214   3.078   1.878 -0.9641 -1.1863 -0.0697
  315MOL0     H42518  10.253   3.154   1.726 -0.8350  1.0319 -0.9562
  315MOL0     H42519  10.020   3.186   1.670 -0.0494 -0.9703 -1.0180
  315MOL0     H42520  10.020   3.020   1.743  0.9485 -0.5902  1.5425
  315MOL0     H42521   9.744   3.228   1.979 -0.8547  0.7966 -1.2056
  315MOL0     H42522  10.565   3.476   1.876  0.5624 -0.3378 -0.4648
  315MOL0     H42523  10.799   3.561   1.870  3.3306 -1.4422  0.4482
  315MOL0     H42524  10.843   3.688   1.970 -0.2884 -0.0597  0.1456
  315MOL0     H42525  10.841   3.513   2.029  0.5552 -0.5720 -2.1555
  316MOL0     O42526   3.417   5.488   0.982 -0.7570 -0.1661 -0.4156
  316MOL0     C42527   3.502   5.485   1.082  0.1378  0.4587  1.5618
  316MOL0     O42528   3.578   5.378   1.117  0.4037 -0.2650  0.4150
  316MOL0     C42529   3.535   5.254   1.092  0.2205  0.7719  0.1977
  316MOL0     C42530   3.397   5.207   1.075  0.2665  0.2567  0.6706
  316MOL0     C42531   3.376   5.067   1.044  0.2454 -0.3291  1.1503
  316MOL0     C42532   3.481   4.973   1.024 -0.2451 -0.4366 -1.2537
  316MOL0     O42533   3.436   4.851   0.983  0.2125 -0.2228  0.3842
  316MOL0     C42534   3.530   4.763   0.916 -0.6400 -0.0318  0.4537
  316MOL0     C42535   3.437   4.692   0.814  0.1600 -0.1338 -0.5937
  316MOL0     C42536   3.519   4.640   0.699  0.2250  0.2423 -0.2233
  316MOL0     C42537   3.454   4.524   0.627  0.0436 -0.9022 -0.4495
  316MOL0     C42538   3.536   4.463   0.508  0.6021 -1.0707 -0.7022
  316MOL0     C42539   3.445   4.395   0.406  0.2933  0.2796 -0.5286
  316MOL0     C42540   3.526   4.356   0.279  0.0905  0.4909  0.5463
  316MOL0     C42541   3.541   4.464   0.171  0.4763 -0.2792  1.1977
  316MOL0     N42542   3.405   4.519   0.147 -0.2172 -2.1953  0.3054
  316MOL0     C42543   3.289   4.462   0.099 -1.3928  0.0386 -0.0788
  316MOL0     C42544   3.212   4.564   0.050  0.3103  0.6183  0.0751
  316MOL0     C42545   3.076   4.541  -0.006 -0.5359 -0.4194  0.3782
  316MOL0     C42546   2.985   4.425   0.052 -0.8806 -0.0831  0.0152
  316MOL0     C42547   2.841   4.424   0.004 -0.0466  0.8535 -0.9612
  316MOL0     C42548   2.756   4.318   0.078  0.6663  0.1321  0.1316
  316MOL0     O42549   2.621   4.309   0.015  0.4197 -1.0184 -0.3197
  316MOL0     C42550   2.529   4.207   0.046 -0.0352 -0.3755 -0.2197
  316MOL0     C42551   2.559   4.067   0.058  0.7179  0.3428 -0.9184
  316MOL0     C42552   2.467   3.968   0.093  0.4157 -0.5333 -1.0777
  316MOL0     C42553   2.329   4.003   0.108 -1.5821 -0.2759 -0.4716
  316MOL0     C42554   2.221   3.908   0.137  0.2288 -0.6329 -0.4412
  316MOL0     O42555   2.089   3.936   0.095 -0.8497  0.4227  0.8309
  316MOL0     C42556   1.994   3.852   0.135  1.0808 -0.1830  0.6396
  316MOL0     C42557   1.893   3.911   0.202 -0.2351 -0.0881 -0.2994
  316MOL0     C42558   1.772   3.839   0.239 -0.6391  0.2062  0.2233
  316MOL0     C42559   1.761   3.712   0.206  0.5790  0.1454 -0.2630
  316MOL0     O42560   1.663   3.633   0.257 -0.2198  0.6905 -0.8265
  316MOL0     C42561   1.590   3.665   0.380 -0.7563  1.3672  0.5084
  316MOL0     C42562   1.516   3.540   0.425  0.0703  0.0584  0.2133
  316MOL0     C42563   1.376   3.523   0.360  1.0930 -0.0636  0.7666
  316MOL0     C42564   1.290   3.404   0.422 -0.4112  0.7964 -0.2715
  316MOL0     C42565   1.150   3.376   0.350 -1.1287 -0.7827 -1.1123
  316MOL0     C42566   1.046   3.489   0.372  0.2603 -0.3681 -0.3104
  316MOL0     C42567   0.926   3.470   0.279  0.9396 -0.2676  0.6283
  316MOL0     C42568   0.814   3.575   0.288 -0.2864  0.3841  1.1281
  316MOL0    Cl42569   0.889   3.718   0.232  0.0283  0.2827 -0.3338
  316MOL0     C42570   1.858   3.652   0.126  0.1188 -0.5878 -0.6759
  316MOL0     C42571   1.982   3.724   0.093 -0.1780  0.3416 -0.6946
  316MOL0     O42572   2.248   3.801   0.191 -0.0064  0.3685  0.3277
  316MOL0     C42573   2.294   4.139   0.079 -0.0278  0.3159  0.0409
  316MOL0     C42574   2.387   4.229   0.042 -0.6466  0.4986  0.6351
  316MOL0     N42575   3.270   4.684   0.089  0.5945 -0.1242 -0.2454
  316MOL0     N42576   3.393   4.653   0.124 -0.3194  0.2172  0.2316
  316MOL0     C42577   3.617   5.023   1.045 -0.0390 -0.3081  0.2603
  316MOL0     C42578   3.637   5.162   1.072 -0.8264 -0.5982  0.2977
  316MOL0     C42579   3.549   5.612   1.135 -0.5052 -0.9867 -0.2439
  316MOL0     C42580   3.682   5.627   1.176 -0.4135 -0.0479 -0.1782
  316MOL0     C42581   3.739   5.756   1.222  0.6904  0.1840 -0.1431
  316MOL0     C42582   3.650   5.863   1.240 -0.6991  0.2710  0.4044
  316MOL0     O42583   3.697   5.972   1.294 -0.1602  0.0606 -0.7232
  316MOL0     C42584   3.621   6.093   1.324  0.0480 -0.6153 -0.2587
  316MOL0     C42585   3.541   6.070   1.458  0.2450  0.0297  0.8252
  316MOL0     C42586   3.532   6.194   1.539 -0.2699 -0.0409  0.2649
  316MOL0     C42587   3.436   6.177   1.671 -0.2228 -0.7051  0.0660
  316MOL0     C42588   3.456   6.279   1.781 -0.7943  0.0394  0.1247
  316MOL0     C42589   3.499   6.372   1.842  0.2694  0.2996  0.1130
  316MOL0     C42590   3.516   5.850   1.200 -0.4999  0.1681  0.0973
  316MOL0     C42591   3.462   5.730   1.153  0.0582  0.2972  0.4326
  316MOL0     C42592   3.310   5.722   1.119  0.0067 -0.8388  0.5870
  316MOL0     H42593   3.318   5.279   1.094 -2.5968 -2.9717  1.8640
  316MOL0     H42594   3.270   5.043   1.040  0.3395 -0.8668  1.7511
  316MOL0     H42595   3.615   4.810   0.866  0.3901 -3.6139 -1.4787
  316MOL0     H42596   3.565   4.698   0.998  3.2581 -0.7875 -1.5606
  316MOL0     H42597   3.357   4.756   0.775 -2.8727 -0.1544  4.7280
  316MOL0     H42598   3.392   4.605   0.863  2.5853 -1.6771 -0.9426
  316MOL0     H42599   3.622   4.618   0.726  1.5126  2.2764 -2.9811
  316MOL0     H42600   3.529   4.727   0.634  0.7444  1.8709  1.9172
  316MOL0     H42601   3.429   4.446   0.700 -0.0028  2.5874  3.7167
  316MOL0     H42602   3.365   4.573   0.587 -1.7451 -1.0076  3.0208
  316MOL0     H42603   3.601   4.542   0.469  4.6418 -3.5483  0.4221
  316MOL0     H42604   3.614   4.398   0.548  1.5642  1.2075  1.3434
  316MOL0     H42605   3.399   4.304   0.445 -0.7570  0.2136 -1.8525
  316MOL0     H42606   3.366   4.466   0.381  0.4243  0.5177 -0.2783
  316MOL0     H42607   3.491   4.259   0.242  0.9516  1.2280 -2.4402
  316MOL0     H42608   3.630   4.327   0.299  0.5157  0.5688 -1.4063
  316MOL0     H42609   3.611   4.542   0.202  1.8971 -1.2801  0.6029
  316MOL0     H42610   3.590   4.412   0.088 -0.9258  1.4652 -0.8660
  316MOL0     H42611   3.277   4.354   0.099  1.6154 -0.3873 -0.4955
  316MOL0     H42612   3.014   4.631  -0.004 -1.3080 -0.9317  0.0449
  316MOL0     H42613   3.094   4.528  -0.113  4.6327 -2.0752  1.1624
  316MOL0     H42614   3.032   4.333   0.014 -0.9318  0.5201 -1.5937
  316MOL0     H42615   2.991   4.411   0.160  3.6362 -2.0984 -0.3043
  316MOL0     H42616   2.842   4.404  -0.104 -3.8290  2.0726 -1.3684
  316MOL0     H42617   2.782   4.515   0.019 -3.3125 -0.9203 -1.9224
  316MOL0     H42618   2.759   4.354   0.181 -0.2966  1.7593 -0.3703
  316MOL0     H42619   2.801   4.218   0.084 -1.5904 -0.9865 -0.4763
  316MOL0     H42620   2.659   4.030   0.039  0.1480 -2.2389  0.5344
  316MOL0     H42621   2.497   3.864   0.097 -0.4137 -0.7312  1.6572
  316MOL0     H42622   1.916   4.008   0.247  0.1055 -2.0828  4.4459
  316MOL0     H42623   1.698   3.893   0.297  0.0106 -0.0125  1.2834
  316MOL0     H42624   1.661   3.698   0.457 -0.4643 -0.0421  0.8692
  316MOL0     H42625   1.520   3.748   0.364  0.4636  2.2886 -0.2510
  316MOL0     H42626   1.585   3.456   0.411 -0.4455 -0.5289  1.1438
  316MOL0     H42627   1.494   3.539   0.531 -2.1109  0.1604 -0.2042
  316MOL0     H42628   1.323   3.617   0.381 -0.1301 -0.0379 -2.0197
  316MOL0     H42629   1.382   3.519   0.251  1.9729  1.2406  0.7329
  316MOL0     H42630   1.294   3.405   0.531  0.5485  1.5113 -0.3011
  316MOL0     H42631   1.347   3.314   0.395  0.7268  1.7920 -1.3545
  316MOL0     H42632   1.100   3.285   0.383  2.7158 -1.7724  2.9057
  316MOL0     H42633   1.168   3.345   0.246 -1.6840 -2.7285 -0.6708
  316MOL0     H42634   1.004   3.485   0.473  0.7159 -2.0801 -0.1529
  316MOL0     H42635   1.085   3.589   0.354  0.2061  0.0395  1.5926
  316MOL0     H42636   0.874   3.377   0.306  1.5707 -0.9513 -0.4466
  316MOL0     H42637   0.962   3.462   0.176 -2.4204  0.9083 -0.7760
  316MOL0     H42638   0.732   3.550   0.219  0.5798 -4.0401  1.3650
  316MOL0     H42639   0.781   3.600   0.389 -1.2769  1.0775  0.6476
  316MOL0     H42640   1.847   3.545   0.108 -2.0992 -1.1508  2.8598
  316MOL0     H42641   2.057   3.696   0.020  0.5202  2.5582 -0.9056
  316MOL0     H42642   2.193   4.177   0.073  0.7741  2.6974  0.6319
  316MOL0     H42643   2.377   4.332   0.011  3.1856  0.8453  0.0081
  316MOL0     H42644   3.706   4.965   1.020 -0.8847 -1.3011 -0.5749
  316MOL0     H42645   3.738   5.196   1.092 -0.9732 -0.1266  0.2379
  316MOL0     H42646   3.738   5.536   1.196  2.8046  1.8796  0.2624
  316MOL0     H42647   3.846   5.762   1.241  0.6049  3.6110 -0.1547
  316MOL0     H42648   3.545   6.136   1.258 -0.5932 -1.4115 -0.0586
  316MOL0     H42649   3.694   6.175   1.321 -0.0451 -0.5323 -0.2717
  316MOL0     H42650   3.583   5.991   1.521 -3.7538 -1.0389  2.5139
  316MOL0     H42651   3.438   6.039   1.433 -0.1802  0.8865  1.4926
  316MOL0     H42652   3.499   6.287   1.491  2.4355  0.9826  0.2070
  316MOL0     H42653   3.633   6.216   1.572 -1.2443  1.8101  2.2933
  316MOL0     H42654   3.332   6.196   1.645  0.4379  1.5090 -1.3252
  316MOL0     H42655   3.453   6.083   1.724  0.1739 -1.5307 -1.4888
  316MOL0     H42656   3.562   6.447   1.888  2.4483 -0.9632 -0.6451
  316MOL0     H42657   3.447   5.932   1.210 -0.8942 -0.4021  2.5491
  316MOL0     H42658   3.295   5.699   1.013  1.2034 -0.7376  0.3754
  316MOL0     H42659   3.266   5.637   1.171 -2.7307  0.1688  0.0569
  316MOL0     H42660   3.262   5.819   1.131  0.8468  1.0342 -6.5773
  317MOL0     O42661   7.485   6.762  10.291  0.1632  0.9732 -0.2991
  317MOL0     C42662   7.365   6.735  10.291  0.1237 -0.0697 -0.8435
  317MOL0     O42663   7.289   6.727  10.403  0.7122  0.3536  0.0874
  317MOL0     C42664   7.324   6.781  10.526  0.3660 -0.8405  0.4813
  317MOL0     C42665   7.215   6.835  10.607 -0.7869 -0.2188  1.1592
  317MOL0     C42666   7.243   6.880  10.740  0.1605  0.1860  0.2266
  317MOL0     C42667   7.373   6.866  10.788 -0.7352 -0.0726  0.5978
  317MOL0     O42668   7.397   6.875  10.916  1.1299 -0.1994  0.5498
  317MOL0     C42669   7.472   6.773  10.976 -0.2146 -0.8210  0.4899
  317MOL0     C42670   7.502   6.819  11.118 -0.4144 -0.2225 -0.7415
  317MOL0     C42671   7.584   6.704  11.186  0.3798  0.1058  0.0960
  317MOL0     C42672   7.625   6.750  11.338 -0.4925 -0.4671  0.5990
  317MOL0     C42673   7.748   6.680  11.390 -0.2831  0.7799  0.9084
  317MOL0     C42674   7.758   6.704  11.547 -0.9996 -0.3586 -0.4251
  317MOL0     C42675   7.888   6.641  11.597 -0.1874 -0.3577 -0.9937
  317MOL0     C42676   7.992   6.752  11.638  0.4462 -0.4478 -0.3610
  317MOL0     N42677   8.094   6.686  11.718 -0.0718  0.0366 -1.2649
  317MOL0     C42678   8.142   6.732  11.837 -0.0875  0.2802  0.1744
  317MOL0     C42679   8.238   6.644  11.883  1.3230 -1.0210  0.5131
  317MOL0     C42680   8.307   6.650  12.009  0.1343 -0.3068 -0.8241
  317MOL0     C42681   8.443   6.714  11.980  0.5819  0.0343  1.0219
  317MOL0     C42682   8.535   6.699  12.102  0.8528  0.0717 -0.4047
  317MOL0     C42683   8.526   6.823  12.196  0.2199 -0.4672 -0.2954
  317MOL0     O42684   8.396   6.868  12.242  0.0720  0.9622  0.0813
  317MOL0     C42685   8.389   6.960  12.351 -0.5737 -0.1873 -0.4946
  317MOL0     C42686   8.500   6.989  12.438  0.2440  0.1333  0.4288
  317MOL0     C42687   8.487   7.093  12.526 -0.2530  0.6080 -0.3060
  317MOL0     C42688   8.362   7.137  12.567  0.6500  1.1950 -0.5480
  317MOL0     C42689   8.345   7.238  12.672 -0.1102  0.0429  0.6827
  317MOL0     O42690   8.448   7.257  12.763 -0.0786  0.1874  0.0635
  317MOL0     C42691   8.436   7.349  12.859 -0.3589  0.5085 -1.0532
  317MOL0     C42692   8.456   7.302  12.993  0.0165  0.0741  0.3030
  317MOL0     C42693   8.428   7.389  13.094 -0.2444 -0.2053  0.0701
  317MOL0     C42694   8.373   7.515  13.069 -0.5116 -0.4206  0.0550
  317MOL0     O42695   8.351   7.601  13.175 -0.3142  0.8811  0.1240
  317MOL0     C42696   8.365   7.735  13.152  0.2921 -0.6540 -1.3675
  317MOL0     C42697   8.412   7.798  13.282  0.9484  1.0308  0.0032
  317MOL0     C42698   8.311   7.802  13.394 -0.3263 -0.1729  0.6232
  317MOL0     C42699   8.400   7.799  13.524  0.0260  0.0830 -1.0480
  317MOL0     C42700   8.303   7.784  13.653 -0.0339 -0.4274  0.8043
  317MOL0     C42701   8.383   7.805  13.781 -0.7985 -0.7154  0.2807
  317MOL0     C42702   8.302   7.739  13.901 -0.0808  0.5754  0.0035
  317MOL0     C42703   8.291   7.831  14.018 -0.5619 -0.3500 -0.6343
  317MOL0    Cl42704   8.164   7.955  14.001  0.2080 -0.2340  0.2560
  317MOL0     C42705   8.374   7.564  12.940  0.4548 -0.8524 -0.5182
  317MOL0     C42706   8.401   7.477  12.835 -0.5235 -1.0134 -0.8820
  317MOL0     O42707   8.241   7.307  12.672 -0.9671 -0.4213  0.1696
  317MOL0     C42708   8.251   7.105  12.485 -0.2007 -0.2345 -0.1531
  317MOL0     C42709   8.266   7.015  12.377  0.2369 -0.3646  0.7000
  317MOL0     N42710   8.259   6.560  11.774  0.0291 -1.1909 -0.2833
  317MOL0     N42711   8.182   6.595  11.678 -1.0066  0.5996  0.0274
  317MOL0     C42712   7.478   6.829  10.700  0.0616 -0.3936 -0.3091
  317MOL0     C42713   7.460   6.786  10.566 -0.2296 -0.4842 -0.5507
  317MOL0     C42714   7.305   6.691  10.162  1.1245 -0.2700  0.0629
  317MOL0     C42715   7.183   6.611  10.165  0.1287  1.0019  0.6613
  317MOL0     C42716   7.117   6.566  10.047 -0.6816  0.1092 -0.3636
  317MOL0     C42717   7.174   6.593   9.926  0.1959  0.1121 -0.5028
  317MOL0     O42718   7.107   6.558   9.821  0.2658  0.0577  0.9406
  317MOL0     C42719   7.148   6.433   9.768  0.0204  0.3904 -0.1938
  317MOL0     C42720   7.030   6.354   9.709  0.6222  0.0900  1.2758
  317MOL0     C42721   6.937   6.293   9.811  0.3117 -0.8637  0.7634
  317MOL0     C42722   6.835   6.199   9.746 -0.4715 -0.2390  0.6473
  317MOL0     C42723   6.700   6.264   9.707 -0.5127 -0.4752  0.7236
  317MOL0     C42724   6.589   6.311   9.672  0.1566 -0.7259  0.0500
  317MOL0     C42725   7.294   6.669   9.918 -0.1053 -0.1231 -1.1088
  317MOL0     C42726   7.362   6.720  10.030  0.0747 -0.1818 -0.3736
  317MOL0     C42727   7.482   6.804   9.995  0.4612 -0.0921  0.1464
  317MOL0     H42728   7.113   6.830  10.570 -0.5153 -0.8109  0.4785
  317MOL0     H42729   7.173   6.936  10.801  1.4309  0.6570  1.2926
  317MOL0     H42730   7.407   6.687  10.991  1.4802 -2.6653 -2.0762
  317MOL0     H42731   7.565   6.754  10.921 -0.1488 -1.4876  0.8273
  317MOL0     H42732   7.408   6.832  11.174 -1.1360 -1.8543 -1.4839
  317MOL0     H42733   7.557   6.913  11.108 -1.2110  0.1728 -1.5617
  317MOL0     H42734   7.673   6.674  11.130  1.3529  0.8771  1.1751
  317MOL0     H42735   7.524   6.612  11.185  1.4559 -0.6574  1.7390
  317MOL0     H42736   7.636   6.858  11.350 -1.2103 -0.3209  0.0154
  317MOL0     H42737   7.549   6.713  11.408 -2.6637  1.8919 -0.3354
  317MOL0     H42738   7.743   6.572  11.376  0.4066  1.1839 -4.4596
  317MOL0     H42739   7.832   6.722  11.334 -0.9492  1.6732  0.5514
  317MOL0     H42740   7.761   6.813  11.557 -1.0012 -0.3551 -0.4674
  317MOL0     H42741   7.671   6.660  11.597 -0.1986  1.6336  3.0817
  317MOL0     H42742   7.929   6.573  11.522 -1.7749 -0.1310 -2.1054
  317MOL0     H42743   7.868   6.582  11.687 -0.4285  1.2832  0.0777
  317MOL0     H42744   8.039   6.787  11.546  3.3732  0.2921  1.2825
  317MOL0     H42745   7.936   6.829  11.692 -1.6196 -2.1460  0.0593
  317MOL0     H42746   8.097   6.815  11.890 -0.6270  0.5522 -0.6879
  317MOL0     H42747   8.252   6.692  12.094 -1.0125 -2.0812 -0.6563
  317MOL0     H42748   8.334   6.548  12.037  1.1865  0.5971  1.7207
  317MOL0     H42749   8.491   6.675  11.890  4.0944  0.3968  2.5884
  317MOL0     H42750   8.431   6.822  11.966 -0.1576 -0.2098 -0.4297
  317MOL0     H42751   8.641   6.692  12.075  1.3866  0.5473  1.3901
  317MOL0     H42752   8.516   6.603  12.151 -0.2216  1.4399  2.0363
  317MOL0     H42753   8.573   6.912  12.153 -0.1681  0.3694  0.9701
  317MOL0     H42754   8.593   6.807  12.281 -0.7953  0.8261  0.7878
  317MOL0     H42755   8.601   6.952  12.423 -0.1964 -1.8696  1.9432
  317MOL0     H42756   8.569   7.129  12.587 -1.2610  3.1052 -0.2989
  317MOL0     H42757   8.487   7.199  13.010  0.9216 -0.2942 -2.8159
  317MOL0     H42758   8.450   7.366  13.198  2.8567 -0.8999 -0.6261
  317MOL0     H42759   8.449   7.748  13.083  0.4873 -4.6891 -2.1442
  317MOL0     H42760   8.273   7.789  13.131 -1.9877 -3.6445  0.1330
  317MOL0     H42761   8.496   7.737  13.313  0.8152  1.8738  2.1589
  317MOL0     H42762   8.454   7.898  13.264  0.4633  1.8277  2.9080
  317MOL0     H42763   8.256   7.894  13.373  0.1257 -0.1115 -0.3427
  317MOL0     H42764   8.241   7.718  13.394  0.1558 -0.6078 -0.9174
  317MOL0     H42765   8.460   7.890  13.516 -1.3261  0.9190 -2.1980
  317MOL0     H42766   8.467   7.713  13.525  0.8547  0.5537  2.9666
  317MOL0     H42767   8.265   7.682  13.643 -2.0772  0.4765 -2.3643
  317MOL0     H42768   8.219   7.854  13.661  0.5010  0.0837  2.3284
  317MOL0     H42769   8.484   7.765  13.768 -0.3911  1.0027 -2.7046
  317MOL0     H42770   8.391   7.913  13.788  2.0168 -0.8563  0.2835
  317MOL0     H42771   8.353   7.646  13.926 -1.7995 -1.6126 -3.7179
  317MOL0     H42772   8.199   7.715  13.871 -0.8197  0.0922  2.6339
  317MOL0     H42773   8.252   7.776  14.105  0.7549  0.1163  0.2817
  317MOL0     H42774   8.386   7.871  14.054  0.3854 -3.0979  0.1819
  317MOL0     H42775   8.329   7.660  12.919 -1.8091 -1.2975  1.7553
  317MOL0     H42776   8.386   7.509  12.732  0.2543 -1.2353 -1.0750
  317MOL0     H42777   8.151   7.146  12.496 -1.3593 -2.6006 -1.0430
  317MOL0     H42778   8.185   6.988  12.310  0.8664 -0.8092  0.1126
  317MOL0     H42779   7.581   6.827  10.734 -0.1795  0.0098  0.4751
  317MOL0     H42780   7.547   6.758  10.509 -1.8183 -1.0204 -2.8429
  317MOL0     H42781   7.134   6.572  10.254 -0.2410 -1.1467 -0.4242
  317MOL0     H42782   7.029   6.502  10.051  0.0325 -0.9203 -0.7064
  317MOL0     H42783   7.197   6.376   9.847  4.6323  0.6911 -2.5233
  317MOL0     H42784   7.227   6.455   9.695 -0.8041  0.8588 -0.9730
  317MOL0     H42785   7.059   6.283   9.631  0.6938  1.4334  0.0510
  317MOL0     H42786   6.972   6.424   9.648 -0.0827 -1.1952  0.4225
  317MOL0     H42787   6.885   6.367   9.873  1.4192  0.4835  0.1497
  317MOL0     H42788   6.985   6.222   9.878 -1.3729 -1.4397  1.4281
  317MOL0     H42789   6.874   6.160   9.652 -5.1382 -2.3443 -0.7009
  317MOL0     H42790   6.810   6.112   9.807 -0.5183 -1.6154 -1.2436
  317MOL0     H42791   6.507   6.353   9.616  0.8528  0.8629  0.1628
  317MOL0     H42792   7.319   6.686   9.814  2.0001  1.5887 -0.4034
  317MOL0     H42793   7.461   6.909  10.018 -0.2820  1.0568 -4.6853
  317MOL0     H42794   7.574   6.766  10.041 -0.9814 -1.0998  2.3590
  317MOL0     H42795   7.504   6.811   9.888  1.6385 -1.1382  0.2969
  318MOL0     O42796   1.142   5.865  10.490  0.3091 -0.3253  0.0197
  318MOL0     C42797   1.047   5.782  10.529 -0.8203  0.5709 -0.0186
  318MOL0     O42798   1.016   5.663  10.461 -0.3278 -0.3016  0.1071
  318MOL0     C42799   1.062   5.655  10.329  0.2368 -0.2925  0.2986
  318MOL0     C42800   0.976   5.674  10.220 -0.0362 -0.0287 -0.7197
  318MOL0     C42801   1.024   5.684  10.088  0.5731 -0.4461  0.4215
  318MOL0     C42802   1.160   5.673  10.065  0.3934 -0.4488 -0.3253
  318MOL0     O42803   1.210   5.679   9.942  0.2229  0.1435  0.6520
  318MOL0     C42804   1.178   5.798   9.861 -0.6228  0.6609  0.2821
  318MOL0     C42805   1.238   5.784   9.725 -0.4571 -0.0796  1.2524
  318MOL0     C42806   1.227   5.906   9.637  0.1136 -0.6613 -0.2051
  318MOL0     C42807   1.281   5.888   9.496 -0.5216 -0.5381  0.4136
  318MOL0     C42808   1.364   6.011   9.445 -0.1794 -0.3283  0.3086
  318MOL0     C42809   1.381   6.014   9.296  0.7735  0.1173  0.9189
  318MOL0     C42810   1.477   6.123   9.251 -0.1358 -1.3428  0.4291
  318MOL0     C42811   1.459   6.160   9.106  1.3449 -0.1565  0.8335
  318MOL0     N42812   1.478   6.043   9.021  0.4855  0.4499  0.6813
  318MOL0     C42813   1.390   5.961   8.947 -0.0470 -0.6161  0.5446
  318MOL0     C42814   1.468   5.876   8.875  0.8895  0.2512  0.1480
  318MOL0     C42815   1.422   5.778   8.768 -0.1449  0.7679  0.1569
  318MOL0     C42816   1.291   5.698   8.796 -0.6061  0.1363 -0.2418
  318MOL0     C42817   1.261   5.609   8.677  0.3714 -0.1013  0.0755
  318MOL0     C42818   1.186   5.484   8.729 -0.1118 -0.1514  0.4449
  318MOL0     O42819   1.055   5.544   8.746 -0.3341  0.1846 -0.1513
  318MOL0     C42820   0.956   5.452   8.780 -0.9514  0.1655 -0.7602
  318MOL0     C42821   0.987   5.322   8.808 -0.5926  0.6795 -0.1153
  318MOL0     C42822   0.902   5.221   8.838  2.0137  0.4204 -0.6004
  318MOL0     C42823   0.764   5.258   8.839 -0.6745  0.5520  0.5307
  318MOL0     C42824   0.664   5.159   8.886 -0.4804  0.5503  0.0581
  318MOL0     O42825   0.709   5.029   8.913 -0.5001 -0.3830  0.0602
  318MOL0     C42826   0.610   4.933   8.921  0.1199  0.1445 -0.0104
  318MOL0     C42827   0.500   4.942   9.009 -0.3193 -0.2581  0.5961
  318MOL0     C42828   0.415   4.826   9.023  0.2644 -0.9662 -0.6589
  318MOL0     C42829   0.428   4.716   8.939  0.2877  0.3233  0.0986
  318MOL0     O42830   0.339   4.613   8.967 -0.1948 -0.0878 -0.5204
  318MOL0     C42831   0.337   4.501   8.874  0.1475 -0.6610 -0.7803
  318MOL0     C42832   0.203   4.437   8.907  0.0570 -0.4463  0.1699
  318MOL0     C42833   0.225   4.283   8.911  0.1559  0.6911  0.5727
  318MOL0     C42834   0.106   4.192   8.946  0.3443 -0.1287 -0.3267
  318MOL0     C42835   0.126   4.038   8.926 -0.1658  0.9896  0.0823
  318MOL0     C42836  -0.004   3.952   8.964 -0.6321  0.6965  0.4857
  318MOL0     C42837   0.026   3.808   9.008  0.3865  1.0891  0.4103
  318MOL0     C42838  -0.080   3.711   8.945 -0.3408  0.1184  0.6277
  318MOL0    Cl42839  -0.034   3.542   8.963  0.2010  0.3008 -0.3453
  318MOL0     C42840   0.530   4.706   8.853 -0.1954 -0.9801 -0.1844
  318MOL0     C42841   0.628   4.812   8.841 -0.0251 -0.2538 -1.4713
  318MOL0     O42842   0.548   5.195   8.887 -0.7158 -0.3125 -0.4658
  318MOL0     C42843   0.723   5.392   8.804  0.5377 -0.1175 -0.4293
  318MOL0     C42844   0.822   5.484   8.773 -0.6805 -0.2277 -0.4411
  318MOL0     N42845   1.595   5.888   8.920  0.5050  0.1762  0.6512
  318MOL0     N42846   1.603   5.991   8.996 -0.9973  0.8339  0.0060
  318MOL0     C42847   1.243   5.639  10.169 -0.4937 -0.4761 -0.3350
  318MOL0     C42848   1.197   5.634  10.298 -0.2318  0.0187  0.1005
  318MOL0     C42849   0.973   5.833  10.629  0.4841 -0.4813 -1.3500
  318MOL0     C42850   1.047   5.867  10.752 -0.2726 -0.2025 -0.3205
  318MOL0     C42851   0.985   5.910  10.859 -0.1977  0.6200 -0.3535
  318MOL0     C42852   0.841   5.924  10.861  0.2993 -0.7274  0.1320
  318MOL0     O42853   0.781   5.946  10.979  0.2883 -0.3361  0.7453
  318MOL0     C42854   0.636   5.966  10.986  0.2582  0.4539 -0.6045
  318MOL0     C42855   0.593   6.009  11.128 -0.7201 -1.2603 -0.2237
  318MOL0     C42856   0.435   6.006  11.134  0.2381  0.3305 -0.4656
  318MOL0     C42857   0.391   6.029  11.280  0.4299  0.5657 -0.0192
  318MOL0     C42858   0.265   6.091  11.279 -0.1409  0.7974 -1.3695
  318MOL0     C42859   0.160   6.151  11.258  0.0680  1.1097  0.3992
  318MOL0     C42860   0.771   5.914  10.741 -0.2986  0.8775 -0.6398
  318MOL0     C42861   0.832   5.874  10.618 -0.2189 -0.7754  0.7608
  318MOL0     C42862   0.753   5.865  10.494  0.0640  0.0671  0.3938
  318MOL0     H42863   0.873   5.687  10.250  0.9929 -1.4321  4.2507
  318MOL0     H42864   0.962   5.708  10.002  0.7522  0.3594  0.5118
  318MOL0     H42865   1.070   5.803   9.850 -0.6186 -1.6661 -1.4154
  318MOL0     H42866   1.212   5.884   9.919 -0.4374 -1.9298  4.5337
  318MOL0     H42867   1.187   5.710   9.661 -0.9792 -0.2869  1.8962
  318MOL0     H42868   1.343   5.759   9.740 -0.4887 -2.8335 -1.8861
  318MOL0     H42869   1.279   5.992   9.682 -2.1467  0.4433  0.4275
  318MOL0     H42870   1.123   5.935   9.621  1.8499  5.7676 -3.5078
  318MOL0     H42871   1.338   5.795   9.494  0.3252 -0.0235 -0.2595
  318MOL0     H42872   1.201   5.883   9.422 -0.9863  1.1424  0.7455
  318MOL0     H42873   1.329   6.109   9.477  0.4367 -0.2263  0.6999
  318MOL0     H42874   1.465   5.999   9.487 -0.7566 -1.3772  1.4580
  318MOL0     H42875   1.394   5.909   9.267 -2.6620  0.0209 -0.7060
  318MOL0     H42876   1.282   6.044   9.261  0.8235  0.2530  0.8941
  318MOL0     H42877   1.580   6.088   9.259  0.1852 -0.6834 -0.6435
  318MOL0     H42878   1.456   6.219   9.300 -1.4555 -2.2452  1.7128
  318MOL0     H42879   1.355   6.187   9.088  1.9723  0.1472 -3.2701
  318MOL0     H42880   1.516   6.247   9.074 -0.8906  0.7001 -1.0565
  318MOL0     H42881   1.289   5.987   8.919 -0.5428 -2.9114  0.0295
  318MOL0     H42882   1.404   5.832   8.675  0.1025 -3.9814 -3.0317
  318MOL0     H42883   1.508   5.713   8.749 -1.0111 -0.0444 -1.2773
  318MOL0     H42884   1.296   5.642   8.891  0.3621  0.4797 -0.0780
  318MOL0     H42885   1.207   5.768   8.803 -2.6287 -1.8645 -2.6359
  318MOL0     H42886   1.354   5.574   8.630  0.4881 -1.5628  1.3187
  318MOL0     H42887   1.201   5.665   8.605 -0.2798  1.4442  1.7256
  318MOL0     H42888   1.229   5.441   8.820 -2.0323 -2.4170  0.3686
  318MOL0     H42889   1.182   5.408   8.651  0.5426  0.8173 -0.5688
  318MOL0     H42890   1.085   5.278   8.787 -1.0697 -0.1902 -0.5869
  318MOL0     H42891   0.930   5.122   8.872 -0.5164  0.9132  3.7406
  318MOL0     H42892   0.496   5.012   9.091 -0.0888 -0.0575  0.4369
  318MOL0     H42893   0.332   4.810   9.091  0.6248 -1.0180 -0.2253
  318MOL0     H42894   0.329   4.542   8.773 -1.7716  1.3842  0.0915
  318MOL0     H42895   0.420   4.433   8.891  1.6903  1.1410 -0.7922
  318MOL0     H42896   0.177   4.470   9.008 -0.9452  4.6421 -1.4579
  318MOL0     H42897   0.123   4.463   8.836 -0.5485  1.6518  1.5405
  318MOL0     H42898   0.244   4.264   8.805 -0.8103  1.4683  0.2446
  318MOL0     H42899   0.316   4.254   8.965  0.4157 -1.8272 -1.0686
  318MOL0     H42900   0.014   4.233   8.903 -0.6896 -3.4669 -1.6151
  318MOL0     H42901   0.093   4.193   9.055  0.3232 -3.1494 -0.2032
  318MOL0     H42902   0.209   3.999   8.985 -0.6240  0.0645  0.1379
  318MOL0     H42903   0.159   4.024   8.822 -1.8318 -0.0035 -0.3558
  318MOL0     H42904  -0.038   3.996   9.058  1.2009 -4.1611  3.8054
  318MOL0     H42905  -0.086   3.957   8.892 -0.9640  1.5944  0.9092
  318MOL0     H42906   0.008   3.803   9.116 -0.7597 -2.2691  0.1508
  318MOL0     H42907   0.124   3.773   8.973 -1.5767 -1.7068 -2.8706
  318MOL0     H42908  -0.177   3.721   8.994  0.3713 -1.3846  2.4953
  318MOL0     H42909  -0.091   3.733   8.838 -0.7984  0.4313  0.7344
  318MOL0     H42910   0.540   4.619   8.789  0.3790  0.4472 -2.1504
  318MOL0     H42911   0.719   4.804   8.782  1.6172  0.5522  0.8256
  318MOL0     H42912   0.624   5.437   8.808 -0.4635 -1.8891 -2.8321
  318MOL0     H42913   0.803   5.589   8.754  0.2482  0.3827  1.6651
  318MOL0     H42914   1.350   5.634  10.149 -0.3171 -0.4819  0.5802
  318MOL0     H42915   1.272   5.613  10.374 -0.3639  1.0826  0.5549
  318MOL0     H42916   1.155   5.879  10.745 -0.3327  0.2915 -0.4716
  318MOL0     H42917   1.042   5.923  10.951  0.2451 -0.9719 -0.3682
  318MOL0     H42918   0.580   5.874  10.966 -2.4154  1.4922  1.5112
  318MOL0     H42919   0.589   6.034  10.914 -1.4807  0.3410  0.3734
  318MOL0     H42920   0.644   6.104  11.142  1.9199 -1.8134 -4.1702
  318MOL0     H42921   0.637   5.941  11.201 -2.0867 -0.2712  1.5711
  318MOL0     H42922   0.396   5.909  11.102  1.8049 -0.0651 -1.2574
  318MOL0     H42923   0.390   6.085  11.074 -0.4736  1.0363  0.9536
  318MOL0     H42924   0.382   5.928  11.322  2.4279 -0.6591 -2.2213
  318MOL0     H42925   0.464   6.079  11.344  1.7673  1.3693 -2.0528
  318MOL0     H42926   0.065   6.199  11.270 -0.5641 -0.2156  0.8703
  318MOL0     H42927   0.663   5.920  10.740 -0.2409  2.2229 -0.7256
  318MOL0     H42928   0.671   5.938  10.488  0.9035  0.9228 -1.5468
  318MOL0     H42929   0.817   5.886  10.408 -0.1502 -3.3324 -0.7178
  318MOL0     H42930   0.707   5.766  10.485 -0.5937  0.4602 -0.8425
  319MOL0     O42931  10.255  10.802   1.958 -0.4062  0.4114 -0.2328
  319MOL0     C42932  10.242  10.723   2.055  0.5369  0.1858  0.0740
  319MOL0     O42933  10.260  10.594   2.050 -0.1574  0.0458  0.2018
  319MOL0     C42934  10.354  10.545   1.958 -0.6669  1.0327 -0.4219
  319MOL0     C42935  10.321  10.435   1.882  0.1571 -0.8139 -0.3092
  319MOL0     C42936  10.415  10.358   1.801  0.0240 -0.4925 -0.1559
  319MOL0     C42937  10.543  10.406   1.798  0.1704  0.9714  0.2619
  319MOL0     O42938  10.636  10.343   1.716 -0.2110 -0.4023  0.3171
  319MOL0     C42939  10.654  10.202   1.749  0.3987 -0.4835 -0.3098
  319MOL0     C42940  10.765  10.139   1.666  0.7835 -0.9319 -0.8299
  319MOL0     C42941  10.792  10.004   1.722 -0.3148 -0.0928  0.0256
  319MOL0     C42942  10.919   9.943   1.676 -0.8103 -0.2307 -0.7420
  319MOL0     C42943  11.053  10.020   1.702  0.2038  0.4517  0.5436
  319MOL0     C42944  11.179   9.939   1.683 -0.2368  0.6285  0.1735
  319MOL0     C42945  11.214   9.844   1.796 -0.4702 -1.0363 -0.7431
  319MOL0     C42946  11.181   9.700   1.754  0.8330 -0.3004 -0.8422
  319MOL0     N42947  11.228   9.599   1.856  0.6106  0.2168  0.6491
  319MOL0     C42948  11.344   9.607   1.919  0.2397 -0.4895  0.3346
  319MOL0     C42949  11.340   9.492   1.993 -0.9562  0.9436 -0.7700
  319MOL0     C42950  11.466   9.455   2.071 -0.7780  0.0540 -0.5129
  319MOL0     C42951  11.597   9.470   1.987 -0.1505 -1.1170  0.0683
  319MOL0     C42952  11.605   9.373   1.872  0.8374 -0.3057  1.2223
  319MOL0     C42953  11.562   9.420   1.735 -0.0578 -0.5519  0.2531
  319MOL0     O42954  11.602   9.555   1.716 -0.4238 -0.3094  0.4080
  319MOL0     C42955  11.582   9.616   1.597 -0.4469 -1.0855 -0.6236
  319MOL0     C42956  11.579   9.554   1.472  0.9188 -0.2565  0.2763
  319MOL0     C42957  11.560   9.638   1.351  0.8058  0.0113 -1.2373
  319MOL0     C42958  11.530   9.774   1.353  0.0394  0.9186 -0.0625
  319MOL0     C42959  11.513   9.855   1.235 -0.7554  0.3145  0.0197
  319MOL0     O42960  11.453   9.979   1.251 -0.1146 -0.1706  0.2987
  319MOL0     C42961  11.422  10.051   1.145  0.4850  0.9927  0.3016
  319MOL0     C42962  11.484  10.176   1.127  0.1529  0.6686 -0.1386
  319MOL0     C42963  11.436  10.264   1.023 -0.3500 -0.1342 -0.0372
  319MOL0     C42964  11.325  10.229   0.938  0.2578 -0.6818  0.3887
  319MOL0     O42965  11.302  10.315   0.830  0.3606  0.5464 -0.1141
  319MOL0     C42966  11.253  10.237   0.716  1.1681  0.3361 -0.2390
  319MOL0     C42967  11.270  10.309   0.586 -0.6767  0.9652  0.0066
  319MOL0     C42968  11.204  10.445   0.583  0.3980 -1.1028 -0.5146
  319MOL0     C42969  11.209  10.509   0.443  0.8372  0.1322  0.3117
  319MOL0     C42970  11.341  10.604   0.433  0.2458 -0.1975  0.7425
  319MOL0     C42971  11.361  10.648   0.293 -0.4184  0.6867  0.0119
  319MOL0     C42972  11.513  10.687   0.270  0.0906  0.3920  0.3257
  319MOL0     C42973  11.553  10.691   0.122  0.1522 -0.4307  0.0072
  319MOL0    Cl42974  11.518  10.541   0.025  0.6007  0.2296  0.1798
  319MOL0     C42975  11.272  10.103   0.960 -0.2864  0.2381  0.1238
  319MOL0     C42976  11.314  10.014   1.066  0.7930  0.1133 -0.0313
  319MOL0     O42977  11.572   9.814   1.129  0.1631  0.2681  0.5004
  319MOL0     C42978  11.522   9.830   1.485  0.1296 -0.4328  0.0913
  319MOL0     C42979  11.550   9.756   1.596 -0.0798  0.7293 -0.5472
  319MOL0     N42980  11.228   9.426   1.976 -0.7132 -0.0813  0.4450
  319MOL0     N42981  11.155   9.488   1.887 -0.2105 -0.4998 -0.6330
  319MOL0     C42982  10.573  10.520   1.872 -0.8890 -0.1772 -0.7897
  319MOL0     C42983  10.484  10.586   1.950 -0.4311 -0.6623  0.2406
  319MOL0     C42984  10.160  10.792   2.164 -0.1098  0.1847  0.1001
  319MOL0     C42985  10.032  10.739   2.205  1.1698 -0.2460 -0.0997
  319MOL0     C42986   9.969  10.815   2.311 -0.1004  1.1770 -0.2972
  319MOL0     C42987  10.011  10.936   2.363  0.1862  0.0672  0.0112
  319MOL0     O42988   9.938  11.016   2.458 -0.4495  0.7909 -0.0657
  319MOL0     C42989   9.797  10.982   2.471  0.4918 -0.1458 -0.5720
  319MOL0     C42990   9.714  11.075   2.562  0.6467 -0.0931  0.4004
  319MOL0     C42991   9.562  11.059   2.534  0.0941 -0.6473 -0.2508
  319MOL0     C42992   9.475  11.122   2.648 -0.7146  0.1178  0.4785
  319MOL0     C42993   9.337  11.146   2.611 -0.1840 -1.0035  0.5101
  319MOL0     C42994   9.230  11.163   2.562  0.1915 -0.7409  0.8331
  319MOL0     C42995  10.140  10.976   2.327 -0.2707 -0.0218  0.6380
  319MOL0     C42996  10.213  10.903   2.234 -0.1940  0.0314  0.5176
  319MOL0     C42997  10.332  10.980   2.200 -0.0412  0.7434  0.4549
  319MOL0     H42998  10.215  10.410   1.885 -0.5847  1.8756 -1.1891
  319MOL0     H42999  10.389  10.274   1.739  0.6862  0.9236 -2.4625
  319MOL0     H43000  10.683  10.212   1.854 -1.4998 -0.0638  0.2155
  319MOL0     H43001  10.560  10.146   1.746 -0.9112  1.6034 -2.1972
  319MOL0     H43002  10.859  10.193   1.679  0.3971 -0.0080 -1.7344
  319MOL0     H43003  10.729  10.141   1.563 -0.4358  2.6623 -0.4723
  319MOL0     H43004  10.713   9.934   1.694 -0.7641  1.2666 -2.4130
  319MOL0     H43005  10.798  10.011   1.831 -1.3004 -1.6546  0.1996
  319MOL0     H43006  10.916   9.846   1.727 -2.7308 -0.2621 -0.8694
  319MOL0     H43007  10.927   9.925   1.569 -3.9117 -2.2903 -0.7436
  319MOL0     H43008  11.062  10.096   1.624  0.9258  0.0400  0.2207
  319MOL0     H43009  11.053  10.068   1.801 -2.2254 -2.9815  2.4389
  319MOL0     H43010  11.171   9.876   1.594  1.1813  0.1606  0.3427
  319MOL0     H43011  11.260  10.012   1.670  1.0237 -0.5836  0.9039
  319MOL0     H43012  11.152   9.875   1.881 -1.5630  4.0524 -2.9902
  319MOL0     H43013  11.320   9.868   1.803 -0.8287  2.6046 -4.0561
  319MOL0     H43014  11.076   9.689   1.729  1.2680 -1.4025 -2.2834
  319MOL0     H43015  11.240   9.694   1.662 -1.2346  0.3674 -2.2821
  319MOL0     H43016  11.421   9.682   1.924  0.2985 -0.5454  0.2630
  319MOL0     H43017  11.473   9.517   2.161  0.5857 -0.6298 -0.1151
  319MOL0     H43018  11.457   9.354   2.113  0.4926 -0.0944 -0.5305
  319MOL0     H43019  11.616   9.576   1.966 -1.6765 -0.6339  1.0007
  319MOL0     H43020  11.673   9.435   2.058  1.0881 -1.4731 -1.3909
  319MOL0     H43021  11.549   9.284   1.902 -0.5295  0.5734  1.3766
  319MOL0     H43022  11.710   9.344   1.861  0.0896 -2.3089 -2.6654
  319MOL0     H43023  11.454   9.405   1.727 -0.2408  0.8867 -0.2703
  319MOL0     H43024  11.590   9.346   1.658  0.5050 -2.9892  2.6486
  319MOL0     H43025  11.600   9.450   1.448  0.3204  0.0267 -1.6754
  319MOL0     H43026  11.570   9.590   1.254  1.0978 -1.4918 -0.5033
  319MOL0     H43027  11.571  10.199   1.188 -0.0904 -1.7895  1.2687
  319MOL0     H43028  11.493  10.355   1.006  1.7243 -1.8455 -3.3123
  319MOL0     H43029  11.304  10.141   0.706 -2.0246 -1.3929 -1.4662
  319MOL0     H43030  11.146  10.226   0.735  1.5551 -0.7649  1.5599
  319MOL0     H43031  11.375  10.319   0.557 -0.7961 -1.4986 -1.6214
  319MOL0     H43032  11.238  10.240   0.508  1.6348 -1.7131  1.2417
  319MOL0     H43033  11.099  10.448   0.613  0.4598 -0.9385 -0.3153
  319MOL0     H43034  11.258  10.502   0.659  0.7282 -0.3534 -1.2991
  319MOL0     H43035  11.120  10.567   0.415  1.6567 -0.2008 -3.5829
  319MOL0     H43036  11.211  10.434   0.364 -1.2389 -0.3201  0.6464
  319MOL0     H43037  11.433  10.554   0.467 -1.3598 -3.1211  1.1326
  319MOL0     H43038  11.341  10.693   0.496  1.9841  0.4165 -0.0593
  319MOL0     H43039  11.325  10.576   0.219  0.5728 -2.3238  2.2350
  319MOL0     H43040  11.305  10.741   0.283  0.3738  1.3611  1.4885
  319MOL0     H43041  11.579  10.616   0.320  2.2410  0.5203 -2.1162
  319MOL0     H43042  11.525  10.788   0.310  1.1193  0.0018  1.0346
  319MOL0     H43043  11.497  10.773   0.076  0.6766 -0.3578 -0.5229
  319MOL0     H43044  11.658  10.723   0.117 -1.1058  4.5055 -0.2531
  319MOL0     H43045  11.193  10.066   0.895  0.2663  0.9420 -0.9847
  319MOL0     H43046  11.255   9.924   1.080 -1.3251  1.6536  1.5390
  319MOL0     H43047  11.495   9.932   1.510 -0.8741 -0.6091 -0.1986
  319MOL0     H43048  11.560   9.811   1.688  0.7296 -0.2225 -0.0498
  319MOL0     H43049  10.671  10.567   1.872 -2.2735  2.9488 -0.0959
  319MOL0     H43050  10.518  10.666   2.016 -2.0726 -0.4931  0.9213
  319MOL0     H43051   9.984  10.655   2.155 -1.3809 -0.3298  2.2211
  319MOL0     H43052   9.878  10.767   2.343 -1.2931  1.9144 -2.4036
  319MOL0     H43053   9.789  10.885   2.522  0.0800  0.7225  1.1045
  319MOL0     H43054   9.753  10.976   2.371 -1.8154  0.0636  0.3567
  319MOL0     H43055   9.744  11.180   2.565 -2.4256  0.8928  0.0307
  319MOL0     H43056   9.718  11.027   2.660 -1.0972  1.2793  1.2069
  319MOL0     H43057   9.542  10.952   2.527 -0.2028 -0.7378  1.4722
  319MOL0     H43058   9.537  11.109   2.440 -0.6039 -0.2830  0.1226
  319MOL0     H43059   9.469  11.068   2.742  2.3835  0.5832  1.0398
  319MOL0     H43060   9.521  11.218   2.672 -1.9821  0.6533  0.8806
  319MOL0     H43061   9.140  11.155   2.504  1.1319 -2.3552 -0.4567
  319MOL0     H43062  10.186  11.057   2.382 -0.8909  0.5082  0.3886
  319MOL0     H43063  10.365  11.040   2.285  0.1798  1.2351  0.0236
  319MOL0     H43064  10.410  10.916   2.157  0.1568  0.1681  1.6327
  319MOL0     H43065  10.310  11.052   2.120  0.4536 -0.9651 -1.3026
  320MOL0     O43066   8.509   0.086   4.743  0.2417  0.2891  0.1342
  320MOL0     C43067   8.614   0.043   4.696 -0.3958  0.7334  0.9393
  320MOL0     O43068   8.731   0.020   4.763  0.3884 -0.5099  0.4319
  320MOL0     C43069   8.739   0.029   4.907  0.2112 -0.2739  0.2302
  320MOL0     C43070   8.871   0.034   4.948 -0.4821 -0.2861 -0.3467
  320MOL0     C43071   8.903   0.045   5.079  0.8008 -0.3597 -1.1316
  320MOL0     C43072   8.798   0.045   5.172 -0.2667  0.3736 -0.5113
  320MOL0     O43073   8.808   0.058   5.304 -0.1118 -1.0524  0.1285
  320MOL0     C43074   8.916   0.138   5.355  0.6785 -0.2005 -0.0535
  320MOL0     C43075   8.914   0.176   5.504  0.1513  0.6413 -0.2781
  320MOL0     C43076   8.864   0.056   5.583  0.0375 -0.0954  0.6735
  320MOL0     C43077   8.888   0.085   5.734  0.0192  0.4246 -0.1598
  320MOL0     C43078   9.025   0.124   5.786  0.6710  0.1235  0.8887
  320MOL0     C43079   9.019   0.137   5.936 -0.3060 -0.2043  0.7339
  320MOL0     C43080   9.158   0.170   5.985 -0.2388 -0.0196 -0.3341
  320MOL0     C43081   9.171   0.177   6.137 -0.7486  0.2373 -0.6824
  320MOL0     N43082   9.271   0.276   6.179 -0.2611 -0.9795 -0.3005
  320MOL0     C43083   9.404   0.258   6.160  0.4190  0.0501 -0.0033
  320MOL0     C43084   9.458   0.375   6.219  0.1927 -0.2698  0.0326
  320MOL0     C43085   9.607   0.406   6.243  0.2444  0.5240 -0.7533
  320MOL0     C43086   9.653   0.401   6.393 -0.6580 -0.0551  0.5657
  320MOL0     C43087   9.594   0.520   6.467 -1.1043 -0.8043 -0.4468
  320MOL0     C43088   9.643   0.529   6.599 -0.6428  0.7431  1.0483
  320MOL0     O43089   9.598   0.650   6.664  0.9275 -0.6937 -0.0551
  320MOL0     C43090   9.498   0.638   6.757  0.4101  0.5590 -0.3150
  320MOL0     C43091   9.370   0.570   6.741  0.5582  0.3309  0.5464
  320MOL0     C43092   9.277   0.568   6.850 -0.5710  0.0502  0.5165
  320MOL0     C43093   9.300   0.638   6.970  0.3456  0.5782  0.0255
  320MOL0     C43094   9.198   0.646   7.078 -0.2228 -1.1621 -0.2830
  320MOL0     O43095   9.236   0.655   7.209  0.2364 -0.0396 -0.5994
  320MOL0     C43096   9.138   0.710   7.287  0.2541 -0.1313 -0.0778
  320MOL0     C43097   9.041   0.637   7.354  0.8682 -0.0915  0.1979
  320MOL0     C43098   8.948   0.718   7.433  0.1634 -0.5075  0.1655
  320MOL0     C43099   8.962   0.847   7.458 -0.1161  0.4363  0.0566
  320MOL0     O43100   8.889   0.904   7.557  0.6984  0.0601  0.0154
  320MOL0     C43101   8.763   0.957   7.510 -0.3038 -0.0724  0.0163
  320MOL0     C43102   8.669   0.943   7.628  0.4248 -0.0649 -1.2633
  320MOL0     C43103   8.694   1.047   7.742  0.9444  0.2147 -0.6120
  320MOL0     C43104   8.569   1.040   7.844  0.5961 -0.3559 -0.3760
  320MOL0     C43105   8.473   1.150   7.811  0.1633  0.7966 -0.8161
  320MOL0     C43106   8.517   1.288   7.799 -1.2461 -0.4113 -0.3864
  320MOL0     C43107   8.626   1.325   7.907 -0.0384 -0.1963 -0.1607
  320MOL0     C43108   8.669   1.473   7.884  0.8205 -0.5309 -0.5797
  320MOL0    Cl43109   8.541   1.586   7.939 -0.0874 -0.1459  0.3170
  320MOL0     C43110   9.063   0.921   7.396 -0.0485 -0.3944 -0.1697
  320MOL0     C43111   9.150   0.849   7.307  0.3931 -0.5773 -0.3601
  320MOL0     O43112   9.088   0.670   7.039 -0.3333  0.0212  0.5416
  320MOL0     C43113   9.431   0.684   6.990 -0.6904 -0.3091  0.4342
  320MOL0     C43114   9.524   0.693   6.882 -0.1929  0.9200  0.1448
  320MOL0     N43115   9.354   0.452   6.270 -0.5849  0.3911  0.2024
  320MOL0     N43116   9.245   0.399   6.239  0.7830  0.0349 -0.1279
  320MOL0     C43117   8.668   0.033   5.128 -0.2144 -0.1964 -0.5221
  320MOL0     C43118   8.636   0.027   4.993 -0.0538  0.5877 -0.2582
  320MOL0     C43119   8.622   0.037   4.543  0.8934 -0.4922  0.3053
  320MOL0     C43120   8.505   0.074   4.465 -0.5918  0.3274 -0.4701
  320MOL0     C43121   8.517   0.085   4.325 -0.2506 -0.5364  0.2609
  320MOL0     C43122   8.634   0.036   4.251  0.5900 -0.0547 -0.1603
  320MOL0     O43123   8.667   0.053   4.119  0.0479  0.0470  1.2709
  320MOL0     C43124   8.563   0.113   4.047 -0.2023 -0.8616  0.2382
  320MOL0     C43125   8.591   0.134   3.901  0.7767  0.0568  0.1229
  320MOL0     C43126   8.478   0.214   3.831  0.1624 -0.1450 -0.3032
  320MOL0     C43127   8.345   0.147   3.802 -0.4714 -0.5635  0.7423
  320MOL0     C43128   8.363   0.017   3.740  0.5870  0.1318 -0.7520
  320MOL0     C43129   8.371  -0.093   3.702  0.4327 -0.6734  1.5451
  320MOL0     C43130   8.733  -0.010   4.338 -0.1820  0.0808 -0.2791
  320MOL0     C43131   8.734  -0.022   4.477 -0.1308  0.4207 -0.9862
  320MOL0     C43132   8.855  -0.080   4.542 -0.5006 -0.1421 -1.5179
  320MOL0     H43133   8.950   0.039   4.873 -1.8947 -0.9387 -1.9442
  320MOL0     H43134   8.999   0.052   5.128  0.0603 -1.7484  0.6387
  320MOL0     H43135   9.010   0.083   5.342  1.8752  1.6477  0.3950
  320MOL0     H43136   8.915   0.227   5.292 -0.5264 -2.5816 -3.6912
  320MOL0     H43137   8.845   0.259   5.520 -1.2300 -0.5896  0.3963
  320MOL0     H43138   9.012   0.207   5.540  1.2704 -3.2058  0.4076
  320MOL0     H43139   8.932  -0.025   5.555  0.1216 -0.3786  1.6420
  320MOL0     H43140   8.759   0.040   5.556 -0.2088  1.5325  0.5792
  320MOL0     H43141   8.814   0.162   5.757  0.6234  1.2936 -1.0355
  320MOL0     H43142   8.846  -0.005   5.780 -1.3981  1.4126  0.5420
  320MOL0     H43143   9.083   0.036   5.756 -0.5317 -0.2973 -0.3440
  320MOL0     H43144   9.076   0.207   5.736 -0.6420 -0.2100 -1.1440
  320MOL0     H43145   8.946   0.216   5.957  0.4219  0.2686  1.5790
  320MOL0     H43146   8.984   0.045   5.985  1.2806 -0.4687  1.4230
  320MOL0     H43147   9.176   0.270   5.946  1.2670  1.1319  2.9746
  320MOL0     H43148   9.232   0.107   5.934  0.5038 -1.2988  2.1426
  320MOL0     H43149   9.082   0.225   6.179  0.8990  2.5814  0.3562
  320MOL0     H43150   9.185   0.076   6.178 -1.8232  0.9033  1.5305
  320MOL0     H43151   9.455   0.182   6.102 -0.0862  1.4682 -2.4167
  320MOL0     H43152   9.663   0.342   6.174  1.3386 -1.7461  2.0295
  320MOL0     H43153   9.623   0.504   6.199 -0.6472 -0.1846 -2.7527
  320MOL0     H43154   9.608   0.315   6.443 -0.5073 -1.1365 -1.0906
  320MOL0     H43155   9.761   0.388   6.399 -0.6455 -1.0398 -1.0200
  320MOL0     H43156   9.485   0.514   6.463 -1.2387  0.1749  0.9597
  320MOL0     H43157   9.621   0.616   6.421 -0.9158  0.0964  1.4551
  320MOL0     H43158   9.751   0.530   6.586 -0.6198 -2.7146 -0.0145
  320MOL0     H43159   9.610   0.445   6.662 -2.5148  0.2979 -0.4381
  320MOL0     H43160   9.339   0.510   6.657  1.0358  0.4086  0.3106
  320MOL0     H43161   9.182   0.520   6.827  0.7085 -1.7132 -1.4880
  320MOL0     H43162   9.035   0.530   7.342 -0.6679 -0.1133  0.8672
  320MOL0     H43163   8.864   0.668   7.479  1.1868 -1.8453  0.6523
  320MOL0     H43164   8.786   1.061   7.485  2.2959 -0.6644 -0.3091
  320MOL0     H43165   8.720   0.897   7.429  2.3684 -0.8315 -0.9278
  320MOL0     H43166   8.568   0.954   7.587  2.0690  1.7206 -5.3647
  320MOL0     H43167   8.693   0.842   7.664 -1.4423  0.2216  0.9619
  320MOL0     H43168   8.789   1.035   7.795 -0.9843 -1.4656  2.8246
  320MOL0     H43169   8.705   1.145   7.695 -0.5063 -0.0541 -1.5552
  320MOL0     H43170   8.601   1.061   7.947  0.3618 -2.8112  0.2709
  320MOL0     H43171   8.514   0.946   7.853 -2.2092  1.1591 -0.5323
  320MOL0     H43172   8.396   1.158   7.887  0.1131  1.2730 -0.9144
  320MOL0     H43173   8.418   1.131   7.718  0.1375 -0.3507 -0.5838
  320MOL0     H43174   8.570   1.302   7.704 -0.3449 -0.4296  0.1027
  320MOL0     H43175   8.427   1.347   7.816  0.2966  2.8775 -2.6618
  320MOL0     H43176   8.716   1.264   7.893 -0.6168 -1.0642 -0.1417
  320MOL0     H43177   8.584   1.308   8.006 -1.2474 -1.6128 -0.8816
  320MOL0     H43178   8.751   1.500   7.952 -1.0057  1.6450  0.8936
  320MOL0     H43179   8.695   1.482   7.778 -0.9923 -5.2362 -1.6771
  320MOL0     H43180   9.066   1.029   7.409  0.2829 -0.5482  1.2490
  320MOL0     H43181   9.229   0.900   7.253  0.0858 -0.5619 -0.8061
  320MOL0     H43182   9.465   0.729   7.083 -0.7313 -1.8705  1.2378
  320MOL0     H43183   9.622   0.735   6.899  1.3837 -0.0576 -4.8881
  320MOL0     H43184   8.591   0.023   5.203  1.7130  0.5769  1.6937
  320MOL0     H43185   8.531   0.012   4.970 -0.7891  1.1733  2.3836
  320MOL0     H43186   8.422   0.120   4.518 -2.8740 -3.2656 -0.6492
  320MOL0     H43187   8.435   0.135   4.274 -1.2264 -0.2306  2.0617
  320MOL0     H43188   8.539   0.210   4.092 -1.0120 -1.6544  1.6208
  320MOL0     H43189   8.474   0.053   4.069  0.0038 -2.5351 -2.9180
  320MOL0     H43190   8.615   0.037   3.857 -1.1276 -0.1608 -0.5164
  320MOL0     H43191   8.683   0.194   3.907  0.1253  1.2604 -1.2708
  320MOL0     H43192   8.506   0.252   3.732 -1.0844  2.2452  0.1779
  320MOL0     H43193   8.467   0.305   3.890  0.6149 -0.2395 -0.0736
  320MOL0     H43194   8.295   0.143   3.899  0.2987  0.7080  1.2224
  320MOL0     H43195   8.300   0.218   3.732  4.1070  1.0758 -0.9499
  320MOL0     H43196   8.383  -0.185   3.649  0.4886  1.6942 -3.1039
  320MOL0     H43197   8.817  -0.036   4.273 -0.9306 -0.6199 -0.9897
  320MOL0     H43198   8.918  -0.131   4.468  0.0999  3.0689 -3.3893
  320MOL0     H43199   8.916   0.005   4.573 -2.6841  1.2694 -0.9003
  320MOL0     H43200   8.827  -0.151   4.620 -1.5953 -0.6268 -2.3180
  321MOL0     O43201   9.735   7.129  11.013  0.0394 -0.5857 -0.2132
  321MOL0     C43202   9.777   7.241  11.019  0.8383 -1.0199 -0.3225
  321MOL0     O43203   9.881   7.294  10.970  0.7520 -0.4781  0.6815
  321MOL0     C43204   9.961   7.207  10.897 -0.4306  0.6391  0.0791
  321MOL0     C43205  10.038   7.111  10.966 -1.2042  0.3649  0.1467
  321MOL0     C43206  10.099   7.010  10.877  0.2196 -0.1589 -0.2936
  321MOL0     C43207  10.091   7.027  10.739  1.2029 -0.2191 -0.3408
  321MOL0     O43208  10.167   6.938  10.670 -0.1465  0.2009 -1.2775
  321MOL0     C43209  10.224   6.968  10.549  0.4878  0.0729 -0.1340
  321MOL0     C43210  10.123   6.924  10.438  0.8336  0.1389 -0.1803
  321MOL0     C43211  10.192   6.921  10.303  0.6200 -0.0928 -0.0916
  321MOL0     C43212  10.247   6.784  10.262  0.4810 -0.3806 -0.1991
  321MOL0     C43213  10.338   6.814  10.142 -0.6129 -0.5882  0.4536
  321MOL0     C43214  10.265   6.793  10.004  1.5118 -0.8389 -0.2331
  321MOL0     C43215  10.370   6.762   9.892 -0.1346 -0.0136  0.0756
  321MOL0     C43216  10.451   6.881   9.871 -0.7195 -0.3676  1.4959
  321MOL0     N43217  10.531   6.855   9.747  0.5323  0.3295  0.5962
  321MOL0     C43218  10.536   6.945   9.637 -0.2090  0.3225 -0.4571
  321MOL0     C43219  10.605   6.878   9.546 -0.2791 -0.4885  0.1296
  321MOL0     C43220  10.617   6.906   9.399 -0.0042 -0.6299  0.1375
  321MOL0     C43221  10.492   6.856   9.321 -0.3081  0.2709  0.5862
  321MOL0     C43222  10.454   6.702   9.343  0.3048 -0.0994  1.3417
  321MOL0     C43223  10.332   6.666   9.252  0.0418 -0.1754 -0.2810
  321MOL0     O43224  10.367   6.663   9.115 -0.0045  0.7319  0.6886
  321MOL0     C43225  10.403   6.540   9.053 -0.1447 -0.9619  0.2415
  321MOL0     C43226  10.516   6.560   8.968 -0.1933  0.3272 -0.3053
  321MOL0     C43227  10.575   6.459   8.902 -0.6154  0.4775 -0.1862
  321MOL0     C43228  10.520   6.333   8.894  0.4995  0.7006  0.7586
  321MOL0     C43229  10.564   6.221   8.807 -0.6571 -0.8079 -0.4860
  321MOL0     O43230  10.483   6.112   8.793  0.5219 -0.9553  0.3810
  321MOL0     C43231  10.508   6.003   8.711  0.4624  0.2319  0.8834
  321MOL0     C43232  10.624   5.999   8.626 -0.1511  0.6615 -0.5559
  321MOL0     C43233  10.648   5.885   8.566 -0.4078 -0.3702  0.0920
  321MOL0     C43234  10.568   5.769   8.570  0.5067 -0.5271 -0.0088
  321MOL0     O43235  10.593   5.659   8.485  0.0658  0.3263  0.5937
  321MOL0     C43236  10.735   5.633   8.473 -0.3746 -0.5088  0.9900
  321MOL0     C43237  10.753   5.479   8.433 -0.3814  0.0677  0.2656
  321MOL0     C43238  10.716   5.460   8.290  0.2235  1.2042  1.0573
  321MOL0     C43239  10.712   5.315   8.247  0.3755  1.0573  0.4119
  321MOL0     C43240  10.583   5.242   8.307  0.0291 -0.2946  0.3981
  321MOL0     C43241  10.543   5.102   8.249 -0.2120  0.8534  0.1087
  321MOL0     C43242  10.635   5.044   8.135  0.3992 -0.0427 -0.6364
  321MOL0     C43243  10.609   4.897   8.104  0.8453  0.2105 -0.4448
  321MOL0    Cl43244  10.697   4.840   7.954  0.0168 -0.2677  0.0967
  321MOL0     C43245  10.452   5.763   8.654  0.5451 -0.4066  0.7395
  321MOL0     C43246  10.426   5.883   8.725 -0.4857  0.5181 -0.6867
  321MOL0     O43247  10.677   6.229   8.774 -0.8497  0.4563  0.2921
  321MOL0     C43248  10.398   6.313   8.972 -0.1253  0.1723 -0.4634
  321MOL0     C43249  10.344   6.410   9.057  0.9510  0.6412 -0.3148
  321MOL0     N43250  10.662   6.773   9.606 -0.2464 -0.0085 -0.4752
  321MOL0     N43251  10.629   6.763   9.730  0.0067 -0.6905  0.3149
  321MOL0     C43252  10.015   7.132  10.667  0.0864  1.0535 -1.5888
  321MOL0     C43253   9.949   7.217  10.755 -0.4601  0.0590  0.4780
  321MOL0     C43254   9.704   7.346  11.100  0.4849  0.0576  0.8522
  321MOL0     C43255   9.559   7.331  11.101 -0.4748  0.3258  0.0534
  321MOL0     C43256   9.476   7.424  11.173 -0.2984  0.2728 -0.3744
  321MOL0     C43257   9.532   7.529  11.243  0.2174 -0.3573 -0.5231
  321MOL0     O43258   9.467   7.626  11.317  0.4894  0.5647  0.2042
  321MOL0     C43259   9.329   7.621  11.346  0.7325 -0.3075  0.5300
  321MOL0     C43260   9.307   7.551  11.470  0.9472  0.3431 -0.1960
  321MOL0     C43261   9.165   7.578  11.529 -0.2336 -0.2743  0.3853
  321MOL0     C43262   9.152   7.721  11.593  0.1558  0.4707 -0.2253
  321MOL0     C43263   9.018   7.736  11.643 -0.1509  0.3208 -0.1221
  321MOL0     C43264   8.909   7.765  11.687 -0.3350  0.4028  1.0116
  321MOL0     C43265   9.667   7.547  11.243 -0.0386  1.2061 -0.4854
  321MOL0     C43266   9.757   7.454  11.175 -0.0464  0.7467 -0.1574
  321MOL0     C43267   9.901   7.471  11.209 -0.2098 -0.1213 -0.0457
  321MOL0     H43268  10.059   7.109  11.073 -0.1497  2.1455  0.0126
  321MOL0     H43269  10.152   6.927  10.924  1.1551 -0.8679 -2.4762
  321MOL0     H43270  10.237   7.075  10.534 -1.5725  0.7844  2.4247
  321MOL0     H43271  10.320   6.916  10.539  0.3452  0.1570 -2.4659
  321MOL0     H43272  10.038   6.992  10.428  2.9033  2.7188 -1.6109
  321MOL0     H43273  10.082   6.826  10.464 -1.4210  1.4877  1.7723
  321MOL0     H43274  10.270   6.998  10.307  0.8399 -0.2581 -1.0272
  321MOL0     H43275  10.129   6.944  10.217  3.1172  0.5173 -1.8727
  321MOL0     H43276  10.296   6.737  10.348 -1.9666  0.6666  1.9188
  321MOL0     H43277  10.174   6.708  10.232 -1.9514  1.0425  1.7231
  321MOL0     H43278  10.385   6.913  10.144 -2.1626  0.2091 -0.8006
  321MOL0     H43279  10.413   6.735  10.137 -0.2202 -0.1805 -0.2060
  321MOL0     H43280  10.195   6.708  10.004  2.0401 -1.3934  2.6840
  321MOL0     H43281  10.202   6.878   9.979  1.4163 -0.9869 -0.4994
  321MOL0     H43282  10.329   6.736   9.794  1.2132  3.1269 -1.4728
  321MOL0     H43283  10.431   6.676   9.922 -0.6268 -0.1255  0.7895
  321MOL0     H43284  10.386   6.966   9.849  2.4837  1.2224 -3.3376
  321MOL0     H43285  10.519   6.895   9.955 -0.0913  1.4848  0.7177
  321MOL0     H43286  10.477   7.035   9.623  1.0244  1.0739 -1.0188
  321MOL0     H43287  10.644   7.012   9.394 -2.5313  0.0767  0.2846
  321MOL0     H43288  10.700   6.855   9.349  0.6871  2.0725 -1.6743
  321MOL0     H43289  10.410   6.920   9.354 -0.9997  1.8514 -3.5771
  321MOL0     H43290  10.484   6.870   9.213 -0.0459  2.5886  0.8283
  321MOL0     H43291  10.418   6.696   9.446 -0.3966  2.2955  1.3148
  321MOL0     H43292  10.539   6.636   9.326 -0.7552 -1.3625  0.8339
  321MOL0     H43293  10.247   6.735   9.255  0.3686  0.3813 -2.0452
  321MOL0     H43294  10.293   6.568   9.278 -1.5692  0.0727 -1.5964
  321MOL0     H43295  10.576   6.650   8.972  2.8839 -1.6025  2.2750
  321MOL0     H43296  10.658   6.484   8.836 -0.7866  0.1740 -0.5213
  321MOL0     H43297  10.697   6.078   8.614  2.8957 -2.0545 -1.1132
  321MOL0     H43298  10.739   5.879   8.507  2.3432  1.2584  3.7967
  321MOL0     H43299  10.784   5.692   8.395  0.1804 -1.0517  0.9179
  321MOL0     H43300  10.794   5.647   8.563  0.1186 -0.2509  0.6283
  321MOL0     H43301  10.861   5.469   8.446 -0.6599 -0.6221  2.3903
  321MOL0     H43302  10.706   5.407   8.500 -0.4258  0.2398  0.4196
  321MOL0     H43303  10.617   5.505   8.280 -0.4131 -0.5477 -1.6334
  321MOL0     H43304  10.787   5.517   8.228  2.0276 -0.8042  1.1792
  321MOL0     H43305  10.804   5.262   8.271 -0.4498  0.8741  3.7945
  321MOL0     H43306  10.709   5.309   8.138 -0.4949  2.3698  0.3360
  321MOL0     H43307  10.497   5.302   8.277 -1.1307 -2.0760 -0.0015
  321MOL0     H43308  10.604   5.234   8.414  3.1754  1.6892  0.0600
  321MOL0     H43309  10.551   5.032   8.333  2.3311  0.1992 -0.5976
  321MOL0     H43310  10.440   5.111   8.212 -0.1713  0.6042 -0.0643
  321MOL0     H43311  10.741   5.049   8.158  0.5155  2.2616 -1.3636
  321MOL0     H43312  10.629   5.108   8.046 -0.4515 -0.6020 -0.9913
  321MOL0     H43313  10.653   4.841   8.188  2.3171  0.3202 -1.1192
  321MOL0     H43314  10.502   4.874   8.101  0.7403 -0.1395  2.5646
  321MOL0     H43315  10.402   5.667   8.660 -1.6540  0.4085 -2.2904
  321MOL0     H43316  10.339   5.862   8.787  1.3549 -0.6769  1.6600
  321MOL0     H43317  10.333   6.228   8.957  1.1099 -1.4641  2.5946
  321MOL0     H43318  10.248   6.402   9.108  0.1548  0.4837 -1.7758
  321MOL0     H43319  10.026   7.142  10.559  0.3846 -1.5582 -1.8640
  321MOL0     H43320   9.874   7.274  10.702 -0.2740  0.9287  1.1286
  321MOL0     H43321   9.512   7.255  11.040 -0.8771  2.8733 -3.0362
  321MOL0     H43322   9.368   7.419  11.172 -0.2881 -0.0986 -1.2894
  321MOL0     H43323   9.274   7.557  11.277 -0.2339  0.2031  0.8041
  321MOL0     H43324   9.284   7.721  11.342 -1.3713 -1.2487 -2.3058
  321MOL0     H43325   9.381   7.577  11.546  0.1422 -0.4840  0.8940
  321MOL0     H43326   9.315   7.444  11.452  0.1385  0.1359  0.5995
  321MOL0     H43327   9.143   7.514  11.615 -1.5001  1.1855  1.1889
  321MOL0     H43328   9.090   7.554  11.453 -0.6172 -1.3381  1.0821
  321MOL0     H43329   9.222   7.732  11.676 -2.8254  2.2072  2.2513
  321MOL0     H43330   9.177   7.794  11.515  2.3711 -1.2254 -1.2199
  321MOL0     H43331   8.810   7.778  11.725 -1.6186  1.4919 -2.3840
  321MOL0     H43332   9.714   7.639  11.276 -1.2887  2.2381 -1.4798
  321MOL0     H43333   9.921   7.549  11.283  2.2143  2.0104 -2.6577
  321MOL0     H43334   9.950   7.377  11.236  1.2186  1.5612  3.8876
  321MOL0     H43335   9.948   7.511  11.118  0.8689  0.4532  0.7454
  322MOL0     O43336  11.449   9.189   6.415 -0.1616 -0.1984  0.2056
  322MOL0     C43337  11.339   9.232   6.397  0.9705  0.1241  0.1808
  322MOL0     O43338  11.301   9.333   6.316 -0.1998 -0.4875  0.6712
  322MOL0     C43339  11.395   9.385   6.228  0.2866 -0.1501  0.5762
  322MOL0     C43340  11.495   9.315   6.154 -0.7226  0.4438  0.5390
  322MOL0     C43341  11.556   9.372   6.046 -0.6036 -0.9185 -0.5106
  322MOL0     C43342  11.534   9.506   6.013  0.6322  0.5612 -0.5316
  322MOL0     O43343  11.592   9.557   5.896 -0.4143  0.9409 -0.0229
  322MOL0     C43344  11.533   9.668   5.819 -0.2178  1.6086 -0.3408
  322MOL0     C43345  11.639   9.744   5.738  0.2206 -1.1749 -0.5817
  322MOL0     C43346  11.647   9.894   5.787 -0.5890 -0.7850 -0.6998
  322MOL0     C43347  11.746   9.973   5.695 -0.3617 -1.1743  0.3427
  322MOL0     C43348  11.759  10.118   5.730  0.5781 -0.2604 -1.2104
  322MOL0     C43349  11.633  10.196   5.773  0.0929  1.2179  0.4465
  322MOL0     C43350  11.667  10.341   5.777  0.3168 -0.3110 -0.3866
  322MOL0     C43351  11.615  10.422   5.890  0.1438 -0.2986  0.2700
  322MOL0     N43352  11.466  10.444   5.882 -0.5194 -0.1420 -0.5573
  322MOL0     C43353  11.353  10.371   5.932 -0.5174 -0.3649  0.0999
  322MOL0     C43354  11.253  10.456   5.929  0.1136  0.8166  0.7574
  322MOL0     C43355  11.112  10.443   5.981 -0.6125  0.1229  0.5150
  322MOL0     C43356  11.014  10.452   5.868  0.1886  0.9740  0.5729
  322MOL0     C43357  11.022  10.321   5.783 -0.2496  0.0238  0.0639
  322MOL0     C43358  10.911  10.306   5.675  0.0579 -0.4114  0.1920
  322MOL0     O43359  10.778  10.328   5.728 -0.6782 -0.6040  0.9942
  322MOL0     C43360  10.703  10.226   5.767  0.8838  0.2726  0.3924
  322MOL0     C43361  10.748  10.096   5.785  0.7575 -0.6250  0.0525
  322MOL0     C43362  10.663   9.996   5.824 -0.2294  0.8755  0.3686
  322MOL0     C43363  10.523  10.021   5.832 -0.0725 -0.9135  0.7699
  322MOL0     C43364  10.427   9.918   5.891  0.3430 -0.4250  0.2540
  322MOL0     O43365  10.476   9.817   5.956  0.4955 -0.3320  0.0953
  322MOL0     C43366  10.396   9.744   6.032  0.5190 -0.1399  0.6579
  322MOL0     C43367  10.406   9.759   6.175  0.6989 -0.7044 -0.3148
  322MOL0     C43368  10.333   9.669   6.252 -0.3263 -0.2264  0.4373
  322MOL0     C43369  10.234   9.583   6.203  0.7740 -0.1961  0.3869
  322MOL0     O43370  10.161   9.508   6.280 -0.5131  0.4510 -0.4983
  322MOL0     C43371  10.041   9.584   6.305 -0.5801  0.4278 -0.4912
  322MOL0     C43372   9.933   9.484   6.345  0.1383  0.2041  0.1497
  322MOL0     C43373   9.795   9.545   6.392  0.0492  0.5559  0.4408
  322MOL0     C43374   9.690   9.448   6.441  0.0112  0.8560  0.8651
  322MOL0     C43375   9.547   9.504   6.427  0.0477  0.1630  0.1191
  322MOL0     C43376   9.441   9.435   6.511  0.8898 -0.4975  0.6193
  322MOL0     C43377   9.306   9.504   6.480 -0.1909 -0.3434  0.5627
  322MOL0     C43378   9.199   9.438   6.552  0.3293 -0.8561 -0.5510
  322MOL0    Cl43379   9.246   9.435   6.736 -0.1456  0.5006 -0.2711
  322MOL0     C43380  10.228   9.571   6.061  0.2115  0.4536  0.4857
  322MOL0     C43381  10.296   9.655   5.982 -0.4606  0.4378  0.2950
  322MOL0     O43382  10.304   9.942   5.887 -0.0935 -1.2992 -0.1450
  322MOL0     C43383  10.471  10.150   5.800  0.2271 -0.3638 -1.0393
  322MOL0     C43384  10.563  10.251   5.765 -0.8736  0.2302  0.9281
  322MOL0     N43385  11.292  10.568   5.864 -0.6690 -0.7959  0.3935
  322MOL0     N43386  11.420  10.565   5.837 -0.2968 -0.0758 -0.5233
  322MOL0     C43387  11.457   9.577   6.098  1.1485  0.0176  0.5687
  322MOL0     C43388  11.383   9.517   6.200 -0.6251 -0.1958 -0.4595
  322MOL0     C43389  11.224   9.185   6.490  0.0980 -0.5985  0.2317
  322MOL0     C43390  11.090   9.242   6.472 -0.3928 -0.0020  0.6734
  322MOL0     C43391  10.983   9.202   6.555 -0.2748  0.1149  0.1028
  322MOL0     C43392  11.000   9.107   6.652  0.2305 -0.1319  0.6157
  322MOL0     O43393  10.896   9.076   6.733  0.4891 -0.6062  0.3893
  322MOL0     C43394  10.911   8.965   6.820 -0.0697  0.4860  0.5940
  322MOL0     C43395  10.774   8.916   6.873  0.2793 -0.3054  0.0128
  322MOL0     C43396  10.724   9.021   6.972 -0.8415  0.2847  0.2602
  322MOL0     C43397  10.599   9.097   6.912 -0.6233 -0.0301 -0.2188
  322MOL0     C43398  10.543   9.178   7.020 -0.9323 -0.4109  0.6617
  322MOL0     C43399  10.518   9.242   7.114 -0.7172 -0.5336  0.8220
  322MOL0     C43400  11.132   9.059   6.671 -1.1378  0.1295  0.3427
  322MOL0     C43401  11.244   9.093   6.596 -1.0238  0.2151  0.3061
  322MOL0     C43402  11.376   9.057   6.647 -0.4912 -0.1765 -0.2836
  322MOL0     H43403  11.513   9.211   6.178  2.7593  0.5860 -0.7711
  322MOL0     H43404  11.624   9.322   5.978 -0.1352 -1.1076  0.0905
  322MOL0     H43405  11.449   9.640   5.754  0.1523 -0.8396  0.1266
  322MOL0     H43406  11.506   9.742   5.895 -1.5942  0.1096  0.6921
  322MOL0     H43407  11.600   9.755   5.637  2.0829 -2.1895 -1.4687
  322MOL0     H43408  11.735   9.694   5.729 -0.0165 -2.4468  2.5653
  322MOL0     H43409  11.690   9.909   5.887 -1.0557  1.0709 -0.7432
  322MOL0     H43410  11.549   9.942   5.789  0.7503  2.1483  1.1812
  322MOL0     H43411  11.845   9.928   5.702 -1.0369 -2.7680  0.1948
  322MOL0     H43412  11.720   9.980   5.589 -1.2749  0.9397  0.6482
  322MOL0     H43413  11.831  10.128   5.812 -1.2801  1.4387  0.3241
  322MOL0     H43414  11.799  10.178   5.648 -0.5367  1.2461 -0.6991
  322MOL0     H43415  11.558  10.177   5.695  1.0719 -0.1498 -0.2024
  322MOL0     H43416  11.598  10.169   5.874  1.4426  1.1970  0.9302
  322MOL0     H43417  11.645  10.387   5.680  0.8121  0.9839  0.0923
  322MOL0     H43418  11.775  10.355   5.792  0.7837 -3.6652  0.2004
  322MOL0     H43419  11.646  10.377   5.985  3.1499 -0.5266 -0.7442
  322MOL0     H43420  11.657  10.522   5.876 -1.5211  0.4038  0.0013
  322MOL0     H43421  11.369  10.275   5.980  1.3097 -0.3838 -0.4761
  322MOL0     H43422  11.100  10.350   6.038 -1.6895 -1.0855 -1.5467
  322MOL0     H43423  11.088  10.521   6.053 -1.7430  1.2671 -1.0157
  322MOL0     H43424  10.915  10.463   5.913 -0.3896 -1.8155  0.1231
  322MOL0     H43425  11.038  10.533   5.798  2.0709 -0.5377 -0.6310
  322MOL0     H43426  11.010  10.243   5.858  0.1138  1.8715  2.1327
  322MOL0     H43427  11.116  10.308   5.728 -2.1082 -2.4768 -2.9218
  322MOL0     H43428  10.913  10.205   5.632  0.2798 -0.4200  0.2221
  322MOL0     H43429  10.930  10.376   5.593 -1.7791  0.7752  0.7222
  322MOL0     H43430  10.855  10.081   5.797  1.4180  1.7279 -2.0213
  322MOL0     H43431  10.691   9.900   5.864 -2.5038 -0.5970 -1.3345
  322MOL0     H43432  10.478   9.826   6.219 -1.0227  1.9803 -1.3006
  322MOL0     H43433  10.346   9.663   6.360 -2.6941 -3.7103  0.7045
  322MOL0     H43434  10.052   9.657   6.386  1.1271 -0.7209  0.3572
  322MOL0     H43435  10.004   9.629   6.212  2.2860  0.6572 -1.6186
  322MOL0     H43436   9.903   9.430   6.254 -0.7901  2.5628 -1.0123
  322MOL0     H43437   9.972   9.401   6.405  1.6293  0.5034 -0.3557
  322MOL0     H43438   9.816   9.610   6.478  0.0145  1.6159 -0.3371
  322MOL0     H43439   9.751   9.607   6.314 -1.8290 -2.7080 -1.2968
  322MOL0     H43440   9.719   9.431   6.545  1.2069 -1.8413  0.1749
  322MOL0     H43441   9.688   9.356   6.383  0.5786  1.1931  0.2886
  322MOL0     H43442   9.520   9.507   6.321 -1.2474  4.4915  0.3874
  322MOL0     H43443   9.558   9.604   6.471  1.7472 -0.9277  2.3982
  322MOL0     H43444   9.435   9.327   6.496 -1.4406 -0.8251  3.1148
  322MOL0     H43445   9.479   9.450   6.612 -1.3731  0.7427  1.3661
  322MOL0     H43446   9.305   9.489   6.372  0.5797  0.4504  0.4353
  322MOL0     H43447   9.318   9.611   6.500 -0.5757  0.3776 -2.5654
  322MOL0     H43448   9.113   9.504   6.534  1.6729  0.5421 -2.1866
  322MOL0     H43449   9.186   9.334   6.521  2.2882 -1.4006  0.3573
  322MOL0     H43450  10.160   9.499   6.017 -1.4671  2.1263  0.2157
  322MOL0     H43451  10.277   9.668   5.876  1.9080  2.0269 -0.0063
  322MOL0     H43452  10.372  10.186   5.824 -0.2318 -1.1738 -1.6667
  322MOL0     H43453  10.520  10.346   5.736 -0.3925 -0.5481 -2.9799
  322MOL0     H43454  11.437   9.678   6.066  3.2079 -0.0141 -1.0179
  322MOL0     H43455  11.307   9.570   6.257 -0.4484  1.2720 -1.5543
  322MOL0     H43456  11.082   9.313   6.390  1.5314 -2.1808 -1.5791
  322MOL0     H43457  10.878   9.227   6.540 -0.1959  1.7811  1.9197
  322MOL0     H43458  10.975   9.003   6.900 -0.1802 -2.5406  2.2708
  322MOL0     H43459  10.963   8.879   6.776  0.2374 -0.5523  2.8446
  322MOL0     H43460  10.775   8.815   6.915  1.5182 -1.0223 -1.6388
  322MOL0     H43461  10.703   8.908   6.791 -1.3987 -1.4002  1.4869
  322MOL0     H43462  10.807   9.088   6.996  0.6611 -2.2055  2.6963
  322MOL0     H43463  10.700   8.981   7.071  3.1468 -1.4779  0.7100
  322MOL0     H43464  10.643   9.151   6.828  1.4511 -1.3026 -0.0282
  322MOL0     H43465  10.525   9.029   6.868 -2.3206  0.4789  1.7244
  322MOL0     H43466  10.472   9.298   7.193 -1.5848 -1.6266  1.1045
  322MOL0     H43467  11.154   8.992   6.754 -2.9367  1.0758  1.6560
  322MOL0     H43468  11.423   9.150   6.681  1.7837 -1.4165  0.1951
  322MOL0     H43469  11.374   8.995   6.738  0.0326  0.7852  0.4080
  322MOL0     H43470  11.442   9.012   6.572 -0.7747 -1.6623  0.3221
  323MOL0     O43471   3.771   6.445   6.708  0.4121 -0.1212 -0.5599
  323MOL0     C43472   3.814   6.382   6.807 -0.8834  0.4837  0.2515
  323MOL0     O43473   3.888   6.266   6.809  0.6509 -0.4450  0.1549
  323MOL0     C43474   3.935   6.219   6.684  0.7555  0.1139 -0.9537
  323MOL0     C43475   3.845   6.164   6.595 -0.5965 -0.6110 -0.1647
  323MOL0     C43476   3.881   6.121   6.467  1.5272 -0.1131  0.6958
  323MOL0     C43477   4.020   6.125   6.430  0.5316  0.4685  0.2319
  323MOL0     O43478   4.060   6.064   6.313  0.4479 -0.3672 -0.1548
  323MOL0     C43479   4.134   6.154   6.226  0.1354 -0.4573 -0.0450
  323MOL0     C43480   4.050   6.211   6.108 -0.4608 -0.0365 -0.1095
  323MOL0     C43481   3.960   6.340   6.132 -0.1140  0.0737 -0.4907
  323MOL0     C43482   3.923   6.425   6.006 -0.0224 -0.3079  0.0574
  323MOL0     C43483   3.858   6.559   6.033 -0.6431 -0.9264  0.1514
  323MOL0     C43484   3.800   6.617   5.907 -0.3453  0.3513 -0.0036
  323MOL0     C43485   3.900   6.636   5.788 -0.4013 -0.8143 -0.5638
  323MOL0     C43486   3.832   6.723   5.682 -0.0876 -0.4734 -0.3527
  323MOL0     N43487   3.901   6.720   5.543  0.1270 -0.1664 -0.9251
  323MOL0     C43488   4.034   6.681   5.525  1.1474 -0.2984  0.7022
  323MOL0     C43489   4.034   6.624   5.402 -0.3921 -0.2800 -0.7801
  323MOL0     C43490   4.153   6.564   5.329 -0.4990 -0.4277  0.8399
  323MOL0     C43491   4.254   6.666   5.284 -0.0218 -1.1022  0.1212
  323MOL0     C43492   4.366   6.595   5.194  0.2187 -0.3304  0.3877
  323MOL0     C43493   4.478   6.702   5.160 -0.1213  0.1689  0.2937
  323MOL0     O43494   4.575   6.641   5.069 -1.2485  0.6519 -0.7822
  323MOL0     C43495   4.534   6.604   4.945 -0.1777  0.3865 -0.2692
  323MOL0     C43496   4.472   6.701   4.873 -0.4251  0.2584 -0.3115
  323MOL0     C43497   4.431   6.675   4.743  0.0513 -0.7190  0.2372
  323MOL0     C43498   4.449   6.553   4.682  0.5404  0.1354  0.8793
  323MOL0     C43499   4.403   6.542   4.540 -0.9636  0.3600  0.5370
  323MOL0     O43500   4.306   6.633   4.496 -1.1446 -0.5185  0.9022
  323MOL0     C43501   4.266   6.609   4.365  0.2115  0.0674  0.3094
  323MOL0     C43502   4.134   6.588   4.345  0.2345 -0.4570  1.0022
  323MOL0     C43503   4.083   6.566   4.214 -0.3369 -0.1510 -0.9550
  323MOL0     C43504   4.173   6.561   4.108  0.0958  0.0211 -0.1212
  323MOL0     O43505   4.123   6.540   3.978 -0.6017  0.1089 -0.1841
  323MOL0     C43506   4.212   6.510   3.862 -0.5458  0.5949 -0.3567
  323MOL0     C43507   4.142   6.462   3.739  0.0420  1.1677 -0.6143
  323MOL0     C43508   4.039   6.347   3.771  0.7720 -0.1549 -0.0566
  323MOL0     C43509   3.974   6.274   3.649 -0.1079 -1.0671  0.2611
  323MOL0     C43510   3.889   6.160   3.704 -0.2070 -0.0126  0.0115
  323MOL0     C43511   3.841   6.070   3.592 -0.5465 -0.3719 -1.2261
  323MOL0     C43512   3.768   5.946   3.651 -1.2475 -0.6126  0.1588
  323MOL0     C43513   3.709   5.867   3.538  0.6722 -0.7638 -0.0575
  323MOL0    Cl43514   3.600   5.740   3.602  0.2718  0.9244 -0.7289
  323MOL0     C43515   4.309   6.581   4.127  0.0025 -1.0305 -0.4239
  323MOL0     C43516   4.358   6.602   4.258 -0.5775  0.2258 -0.8923
  323MOL0     O43517   4.441   6.439   4.481  0.4329  0.2172  0.0512
  323MOL0     C43518   4.508   6.451   4.760  0.2964 -0.4112 -0.3973
  323MOL0     C43519   4.552   6.478   4.890 -0.6715 -0.1570  0.3652
  323MOL0     N43520   3.907   6.640   5.350  0.0284 -0.4182  0.2283
  323MOL0     N43521   3.828   6.692   5.430  0.4610  0.6742  0.9548
  323MOL0     C43522   4.110   6.179   6.525 -0.6191  1.3778  0.3354
  323MOL0     C43523   4.063   6.241   6.645  0.3591  0.2644  0.1953
  323MOL0     C43524   3.810   6.447   6.941  0.1109 -0.4442 -0.1118
  323MOL0     C43525   3.922   6.448   7.013  0.3840 -0.1816 -0.0542
  323MOL0     C43526   3.950   6.535   7.124  0.9488  0.7858  0.4035
  323MOL0     C43527   3.855   6.630   7.154  0.4156  0.7500  0.7708
  323MOL0     O43528   3.867   6.713   7.262 -0.2533 -0.3903 -0.6597
  323MOL0     C43529   3.824   6.851   7.256  0.1475  0.1352 -0.7620
  323MOL0     C43530   3.937   6.946   7.299 -0.0203  0.0852  0.1320
  323MOL0     C43531   4.057   6.952   7.205 -0.0522 -0.0191 -0.3271
  323MOL0     C43532   4.174   7.011   7.273 -1.0389 -0.2318 -0.1024
  323MOL0     C43533   4.288   6.992   7.189  0.4468 -0.6965  0.1350
  323MOL0     C43534   4.392   6.984   7.126 -0.6551  0.4717  0.0709
  323MOL0     C43535   3.734   6.618   7.087 -0.1141 -0.1569 -0.1606
  323MOL0     C43536   3.709   6.536   6.974  0.8440  0.4081 -0.5366
  323MOL0     C43537   3.574   6.556   6.910 -0.5163  0.0844 -0.0089
  323MOL0     H43538   3.742   6.163   6.628 -1.3239  3.0403 -1.8773
  323MOL0     H43539   3.807   6.097   6.393  2.7074  3.4869 -1.9517
  323MOL0     H43540   4.186   6.236   6.278 -0.6527  0.3452 -0.4960
  323MOL0     H43541   4.216   6.099   6.178  2.2928  1.9893  0.5898
  323MOL0     H43542   3.983   6.132   6.072 -1.8890  2.2269 -2.8940
  323MOL0     H43543   4.121   6.242   6.031 -0.8268 -1.4351 -1.0369
  323MOL0     H43544   4.008   6.405   6.204 -2.3592  0.0509  1.1323
  323MOL0     H43545   3.861   6.312   6.169 -0.5784  1.6061 -0.5086
  323MOL0     H43546   4.014   6.442   5.949 -1.1695 -1.0725 -2.1463
  323MOL0     H43547   3.854   6.379   5.934 -0.1604 -2.0075  1.2259
  323MOL0     H43548   3.776   6.559   6.105  0.4350 -0.5643  1.4216
  323MOL0     H43549   3.938   6.625   6.068 -0.5428  0.0394 -1.7935
  323MOL0     H43550   3.723   6.552   5.865  1.5403 -1.6522 -0.5368
  323MOL0     H43551   3.752   6.714   5.922 -2.5954 -0.1164 -3.0958
  323MOL0     H43552   3.915   6.548   5.725 -2.5983 -0.3417 -1.8591
  323MOL0     H43553   4.002   6.667   5.811  0.3355  0.0644 -4.3078
  323MOL0     H43554   3.732   6.684   5.662  0.1957 -1.0206 -0.7376
  323MOL0     H43555   3.820   6.826   5.717 -0.4099 -0.9950  1.1238
  323MOL0     H43556   4.121   6.685   5.591 -0.4222 -2.4307  3.0989
  323MOL0     H43557   4.205   6.493   5.393  1.6492  1.7395  1.6591
  323MOL0     H43558   4.126   6.508   5.239  0.8431  1.4129 -0.7960
  323MOL0     H43559   4.214   6.741   5.216 -0.3710  0.7944  2.3128
  323MOL0     H43560   4.299   6.713   5.371  1.7857  1.2354 -1.9166
  323MOL0     H43561   4.314   6.557   5.106 -3.3951  1.6862  1.4365
  323MOL0     H43562   4.407   6.514   5.256  2.0270  2.5165  3.2632
  323MOL0     H43563   4.524   6.724   5.257 -1.0021  1.0194  0.5404
  323MOL0     H43564   4.425   6.793   5.131 -2.8964 -1.2118  0.6381
  323MOL0     H43565   4.446   6.798   4.915 -0.5749 -0.1574  0.5974
  323MOL0     H43566   4.394   6.765   4.695 -0.0854  0.2777  2.1234
  323MOL0     H43567   4.058   6.571   4.421  0.9780  3.0133  2.6797
  323MOL0     H43568   3.977   6.554   4.195  0.0121 -1.3711 -2.2772
  323MOL0     H43569   4.266   6.601   3.839  2.9589 -0.8406  1.4637
  323MOL0     H43570   4.284   6.435   3.896 -0.5736  0.7251 -0.0034
  323MOL0     H43571   4.076   6.544   3.709  0.9631  1.2086 -2.7446
  323MOL0     H43572   4.197   6.440   3.647 -2.3049  0.1041 -1.8496
  323MOL0     H43573   4.088   6.269   3.830  2.1131  0.9770  0.3816
  323MOL0     H43574   3.958   6.388   3.832  0.3333 -3.0992  1.5328
  323MOL0     H43575   4.061   6.252   3.587  0.0972 -0.1500  0.2149
  323MOL0     H43576   3.911   6.350   3.603 -0.1107 -1.0114  0.3573
  323MOL0     H43577   3.800   6.204   3.750 -0.0931  1.4647 -1.0813
  323MOL0     H43578   3.944   6.099   3.776 -0.3564  0.9131  0.9400
  323MOL0     H43579   3.775   6.125   3.524  1.7896  2.6330 -1.2822
  323MOL0     H43580   3.932   6.040   3.539 -0.4225 -1.1635 -0.5735
  323MOL0     H43581   3.681   5.976   3.710 -1.3781 -1.7707  0.5835
  323MOL0     H43582   3.822   5.870   3.708 -1.1427 -0.8841 -0.2939
  323MOL0     H43583   3.661   5.933   3.464 -0.5749 -1.7388 -0.1433
  323MOL0     H43584   3.787   5.821   3.476 -0.9945 -0.3226 -2.6334
  323MOL0     H43585   4.383   6.597   4.049 -0.6910  2.5222 -0.5305
  323MOL0     H43586   4.463   6.626   4.264 -0.6677  0.7919 -1.4221
  323MOL0     H43587   4.532   6.352   4.723 -0.3834 -0.9791  0.6225
  323MOL0     H43588   4.599   6.401   4.951  0.0863 -0.0214 -0.0393
  323MOL0     H43589   4.210   6.208   6.494 -0.7129 -0.0269 -1.4870
  323MOL0     H43590   4.119   6.303   6.714  3.0984 -0.3882 -1.2972
  323MOL0     H43591   4.002   6.379   6.984 -0.7605 -2.1275  1.1760
  323MOL0     H43592   4.037   6.534   7.189  0.9231 -4.3021  0.7651
  323MOL0     H43593   3.741   6.863   7.328  0.7278 -0.9742  0.1401
  323MOL0     H43594   3.781   6.874   7.159 -2.2218 -1.9522 -0.3237
  323MOL0     H43595   3.967   6.917   7.401 -1.2901 -2.3661 -0.1214
  323MOL0     H43596   3.885   7.038   7.327 -1.2367 -0.7428  0.6992
  323MOL0     H43597   4.017   7.019   7.128 -0.6874  0.3527  0.3134
  323MOL0     H43598   4.084   6.853   7.168  3.5076  0.3876  0.7884
  323MOL0     H43599   4.155   7.119   7.276 -4.6745 -0.5780 -3.0039
  323MOL0     H43600   4.200   6.972   7.372  2.8591  2.5998  0.2227
  323MOL0     H43601   4.491   6.980   7.085 -1.8506  1.4832 -3.2878
  323MOL0     H43602   3.658   6.692   7.111  0.3298  1.5682 -3.4859
  323MOL0     H43603   3.536   6.456   6.888 -1.9706 -0.0557  2.6932
  323MOL0     H43604   3.502   6.626   6.955 -2.4470  0.3884 -3.2750
  323MOL0     H43605   3.590   6.612   6.818  0.8667  1.2004  0.8693
  324MOL0     O43606   2.900   7.607   4.180  0.1454 -0.0287 -0.8080
  324MOL0     C43607   2.883   7.586   4.066  0.5416 -0.3937 -0.0297
  324MOL0     O43608   2.773   7.628   3.990  0.2837  0.3337 -1.1187
  324MOL0     C43609   2.682   7.698   4.067 -0.2074  0.5023 -0.6577
  324MOL0     C43610   2.665   7.834   4.030  0.3691 -1.2668 -0.4388
  324MOL0     C43611   2.569   7.915   4.092  0.3377 -0.1374 -0.5573
  324MOL0     C43612   2.503   7.865   4.206  0.0896 -0.0493  0.8402
  324MOL0     O43613   2.418   7.956   4.257  0.5715  0.0219  0.1662
  324MOL0     C43614   2.362   7.939   4.382 -1.2973 -0.6100  0.5584
  324MOL0     C43615   2.320   8.079   4.449 -0.4009  0.2867 -0.4607
  324MOL0     C43616   2.243   8.044   4.568  0.8666  0.2304 -0.3001
  324MOL0     C43617   2.186   8.166   4.637  0.0277  0.0548 -0.3070
  324MOL0     C43618   2.081   8.153   4.747  0.9033  0.2402  0.3644
  324MOL0     C43619   1.933   8.148   4.695 -0.4868  0.1009  0.4857
  324MOL0     C43620   1.841   8.082   4.797  0.3290 -1.2772  1.4838
  324MOL0     C43621   1.698   8.109   4.746 -0.0330  0.6543  0.3651
  324MOL0     N43622   1.595   8.031   4.824  0.3372 -0.0971  1.1684
  324MOL0     C43623   1.573   8.036   4.956  0.7668 -0.3290  0.4700
  324MOL0     C43624   1.460   7.963   4.973  0.0594  0.2116 -1.2961
  324MOL0     C43625   1.393   7.924   5.101 -0.0734  0.1922 -0.3014
  324MOL0     C43626   1.378   8.028   5.205  0.4505  0.7131 -1.2063
  324MOL0     C43627   1.302   7.981   5.329  0.3061  0.9977 -1.1913
  324MOL0     C43628   1.308   8.085   5.438  0.6413 -1.3554  0.1422
  324MOL0     O43629   1.276   8.222   5.389 -0.6638  0.0464 -0.2748
  324MOL0     C43630   1.303   8.334   5.475 -0.1706 -0.2039 -0.2821
  324MOL0     C43631   1.298   8.325   5.621  0.6126  0.0176  0.4133
  324MOL0     C43632   1.333   8.436   5.694 -0.3497 -0.4636  0.2966
  324MOL0     C43633   1.359   8.557   5.631 -0.2101 -0.0903 -0.1247
  324MOL0     C43634   1.382   8.682   5.713  0.6031  0.2912 -0.2725
  324MOL0     O43635   1.347   8.665   5.845 -0.4393 -0.4684 -0.3925
  324MOL0     C43636   1.358   8.754   5.941  0.4349  0.3860 -1.4691
  324MOL0     C43637   1.296   8.718   6.066  1.0937 -0.9072  0.4139
  324MOL0     C43638   1.317   8.791   6.179  0.0365 -0.5224  0.3483
  324MOL0     C43639   1.393   8.906   6.177 -0.1647  0.4893  1.0561
  324MOL0     O43640   1.417   8.992   6.276  0.9337  0.2351 -0.9772
  324MOL0     C43641   1.411   8.941   6.411  0.9912 -0.1225 -0.7670
  324MOL0     C43642   1.504   8.820   6.430  0.0423 -0.1711 -1.0707
  324MOL0     C43643   1.495   8.776   6.570 -0.7257 -0.3456 -0.5514
  324MOL0     C43644   1.565   8.647   6.582 -0.1466  0.0347 -2.0009
  324MOL0     C43645   1.528   8.584   6.725 -0.0488  0.1908 -0.2228
  324MOL0     C43646   1.609   8.447   6.748  0.7048 -0.0513  0.6730
  324MOL0     C43647   1.749   8.474   6.785  0.3747 -0.6998  0.9559
  324MOL0     C43648   1.817   8.367   6.872  0.1484  0.8745  0.7340
  324MOL0    Cl43649   1.725   8.328   7.017  0.7320  0.2634  0.2368
  324MOL0     C43650   1.457   8.945   6.058  0.0300  0.3966 -0.3765
  324MOL0     C43651   1.439   8.865   5.943  0.7023 -0.3649 -0.2174
  324MOL0     O43652   1.422   8.784   5.661 -0.1424  0.1991  0.3350
  324MOL0     C43653   1.359   8.568   5.485 -1.0069  0.2684 -0.1029
  324MOL0     C43654   1.336   8.455   5.407  0.1887 -0.3635 -0.0051
  324MOL0     N43655   1.419   7.909   4.849  0.5225 -0.4975 -0.2341
  324MOL0     N43656   1.505   7.948   4.760 -1.6688  0.0393 -0.2250
  324MOL0     C43657   2.508   7.731   4.230 -0.1439 -0.2557  0.6604
  324MOL0     C43658   2.603   7.647   4.176 -0.0091  0.0836 -0.1584
  324MOL0     C43659   3.000   7.547   3.989 -0.0739  0.0912  0.6254
  324MOL0     C43660   2.980   7.568   3.846  0.0475 -0.6296  0.5841
  324MOL0     C43661   3.083   7.534   3.759 -0.2097  0.2386  0.0951
  324MOL0     C43662   3.200   7.474   3.806 -0.6498  0.0052 -0.6315
  324MOL0     O43663   3.291   7.440   3.705 -0.1484  0.0452  0.4282
  324MOL0     C43664   3.422   7.404   3.752 -0.1869 -0.1443  0.4214
  324MOL0     C43665   3.518   7.376   3.630  0.3036  0.5563  0.4483
  324MOL0     C43666   3.490   7.237   3.567  0.3378  1.0872  0.5195
  324MOL0     C43667   3.602   7.174   3.488 -0.5330 -0.7537  0.3431
  324MOL0     C43668   3.731   7.159   3.575  1.2199 -2.0124  1.0104
  324MOL0     C43669   3.842   7.154   3.627  0.1046  0.6376  1.2805
  324MOL0     C43670   3.216   7.453   3.947 -0.1493 -0.1048  0.0760
  324MOL0     C43671   3.116   7.490   4.042 -0.0543 -0.2104 -0.0862
  324MOL0     C43672   3.142   7.450   4.187 -0.3845  0.1184  0.0846
  324MOL0     H43673   2.718   7.873   3.944 -0.7480 -0.1283 -0.6259
  324MOL0     H43674   2.551   8.019   4.066 -0.4684  0.9169  3.4742
  324MOL0     H43675   2.273   7.881   4.356 -0.8135 -1.1220  0.0022
  324MOL0     H43676   2.428   7.884   4.450 -0.2971 -0.0313  0.0664
  324MOL0     H43677   2.256   8.126   4.374 -2.4466 -1.8061 -0.1178
  324MOL0     H43678   2.406   8.138   4.484 -0.7612  1.5757 -1.6583
  324MOL0     H43679   2.298   7.991   4.647  1.1648 -1.5325 -1.6259
  324MOL0     H43680   2.150   7.989   4.552  0.6284  0.6385 -0.2992
  324MOL0     H43681   2.270   8.224   4.677  0.0969  0.6154 -1.2292
  324MOL0     H43682   2.146   8.235   4.562 -0.2789  0.3255  0.0943
  324MOL0     H43683   2.113   8.067   4.806  2.4520  1.4396  1.3696
  324MOL0     H43684   2.081   8.243   4.809 -4.6097 -0.1360  1.4147
  324MOL0     H43685   1.889   8.245   4.671 -2.2471 -1.1926 -2.0243
  324MOL0     H43686   1.935   8.084   4.606 -1.9484 -0.9490  1.1714
  324MOL0     H43687   1.863   8.127   4.894  1.5039 -2.6661  1.9022
  324MOL0     H43688   1.853   7.974   4.807 -1.1290 -1.5235  0.7879
  324MOL0     H43689   1.669   8.214   4.740  0.6262  0.7384 -2.6577
  324MOL0     H43690   1.707   8.081   4.641  1.0596  3.4539 -0.3808
  324MOL0     H43691   1.619   8.090   5.039  1.0634 -1.0465  0.7792
  324MOL0     H43692   1.293   7.883   5.080  1.1214 -1.5537 -3.2176
  324MOL0     H43693   1.439   7.837   5.148 -1.8101  0.0772  1.3226
  324MOL0     H43694   1.478   8.059   5.237  0.0886  2.2125 -1.4545
  324MOL0     H43695   1.340   8.121   5.163  0.4808  0.6938 -1.2794
  324MOL0     H43696   1.329   7.882   5.366 -3.2441  0.5851  0.6635
  324MOL0     H43697   1.195   7.975   5.306  0.0700  3.4465 -1.0294
  324MOL0     H43698   1.404   8.073   5.489  1.5234  1.8847 -0.5447
  324MOL0     H43699   1.237   8.062   5.518  0.6011 -0.5371  0.3483
  324MOL0     H43700   1.251   8.238   5.666 -1.8651  0.3793 -1.2790
  324MOL0     H43701   1.340   8.412   5.799  0.0691  2.0965  0.9337
  324MOL0     H43702   1.232   8.631   6.069  0.2928 -0.3078  1.2802
  324MOL0     H43703   1.279   8.759   6.276  1.6878  3.5845  2.6130
  324MOL0     H43704   1.444   9.022   6.477  3.8096  0.0626 -2.2540
  324MOL0     H43705   1.307   8.929   6.442  1.0357  0.6309 -0.3050
  324MOL0     H43706   1.472   8.734   6.370  0.4332 -1.1233  0.0486
  324MOL0     H43707   1.605   8.857   6.410  0.2645 -1.5614 -2.7592
  324MOL0     H43708   1.530   8.862   6.629 -1.8661  0.7993 -1.4974
  324MOL0     H43709   1.389   8.757   6.590 -0.4631 -4.4932 -2.2043
  324MOL0     H43710   1.673   8.665   6.573 -0.0547  2.3559  1.3931
  324MOL0     H43711   1.523   8.587   6.502 -1.3863  0.2043 -1.4926
  324MOL0     H43712   1.420   8.572   6.726 -0.2018  1.2149  2.2571
  324MOL0     H43713   1.565   8.640   6.812  3.2879  0.0691 -1.4256
  324MOL0     H43714   1.552   8.406   6.832  1.1534 -0.1300  0.9410
  324MOL0     H43715   1.592   8.371   6.671 -2.8612  1.7711 -0.5733
  324MOL0     H43716   1.761   8.575   6.824  3.3744  1.1572 -3.8841
  324MOL0     H43717   1.817   8.490   6.701 -2.3890  3.0102 -0.9067
  324MOL0     H43718   1.817   8.271   6.818  1.7524  0.8678  0.6904
  324MOL0     H43719   1.917   8.401   6.899  1.2804 -1.5230 -0.1173
  324MOL0     H43720   1.508   9.039   6.041 -0.8406  0.6974 -1.5138
  324MOL0     H43721   1.491   8.900   5.854 -1.5884  1.1804 -1.0552
  324MOL0     H43722   1.370   8.667   5.442  0.6597 -1.2188 -3.5057
  324MOL0     H43723   1.348   8.464   5.300 -0.8946  1.3569 -0.0110
  324MOL0     H43724   2.435   7.684   4.295 -0.5656 -1.1032 -0.3734
  324MOL0     H43725   2.615   7.541   4.197 -2.1834 -0.1842 -0.0144
  324MOL0     H43726   2.886   7.602   3.805  0.5931  0.8342  0.4831
  324MOL0     H43727   3.068   7.557   3.654 -2.6650 -1.7916 -0.0877
  324MOL0     H43728   3.422   7.317   3.820  1.1523  1.6854  2.9463
  324MOL0     H43729   3.481   7.479   3.805  0.5711 -2.1699  2.6119
  324MOL0     H43730   3.620   7.382   3.670  0.8937  0.6460 -1.0223
  324MOL0     H43731   3.496   7.463   3.568 -1.7791  0.0068  0.3430
  324MOL0     H43732   3.394   7.252   3.518  0.8108 -0.9096 -1.1685
  324MOL0     H43733   3.481   7.164   3.649  2.6967 -0.1306 -0.2205
  324MOL0     H43734   3.577   7.077   3.445  3.2947 -2.1160  0.7520
  324MOL0     H43735   3.634   7.233   3.402 -1.6477 -1.1893 -0.3911
  324MOL0     H43736   3.933   7.137   3.681 -0.1185 -1.1886  1.1388
  324MOL0     H43737   3.303   7.397   3.979  0.5948  1.0338  0.1075
  324MOL0     H43738   3.210   7.366   4.203 -0.6668  0.3536  3.1146
  324MOL0     H43739   3.186   7.531   4.246 -3.6829  1.7914  0.5230
  324MOL0     H43740   3.053   7.426   4.246  0.6337 -4.1081  0.1884
  325MOL0     O43741   7.653   0.798   5.597 -0.0203  0.0103 -0.3368
  325MOL0     C43742   7.746   0.731   5.648 -0.1591 -0.2968  0.2888
  325MOL0     O43743   7.809   0.624   5.594  0.4018 -0.5253 -0.0302
  325MOL0     C43744   7.819   0.626   5.458  0.2217  0.3067  0.6177
  325MOL0     C43745   7.797   0.510   5.388  0.0418  0.2695  0.2662
  325MOL0     C43746   7.799   0.511   5.251  0.3854  0.2911  0.4223
  325MOL0     C43747   7.802   0.637   5.180  0.4727  0.5096  0.2215
  325MOL0     O43748   7.790   0.636   5.043 -0.7474  0.5518 -0.1912
  325MOL0     C43749   7.655   0.660   5.010  0.0383  0.5017  0.2169
  325MOL0     C43750   7.665   0.695   4.857 -0.5233  0.2580  0.4234
  325MOL0     C43751   7.535   0.756   4.798 -0.9550 -0.5898  0.3937
  325MOL0     C43752   7.468   0.648   4.721 -0.4001  0.1556 -0.1472
  325MOL0     C43753   7.335   0.698   4.676 -0.3390 -0.1041  0.1736
  325MOL0     C43754   7.254   0.588   4.599  0.1096 -0.2544  0.7204
  325MOL0     C43755   7.228   0.455   4.675 -0.6937  0.5508 -0.0576
  325MOL0     C43756   7.142   0.355   4.593 -0.0736  0.2725 -1.1122
  325MOL0     N43757   7.219   0.304   4.471  0.4863  0.1950 -0.2396
  325MOL0     C43758   7.307   0.199   4.479  0.4773 -0.2108  0.9274
  325MOL0     C43759   7.344   0.183   4.346 -1.1868  0.4494 -0.1884
  325MOL0     C43760   7.439   0.070   4.308  0.0735  0.3258 -0.4901
  325MOL0     C43761   7.564   0.102   4.233 -0.0403 -0.3798  0.0532
  325MOL0     C43762   7.622  -0.009   4.153 -0.1383  0.1722  0.2672
  325MOL0     C43763   7.741   0.025   4.067  0.4673  0.4719  0.0243
  325MOL0     O43764   7.712   0.110   3.962 -0.0255 -0.4468 -0.1344
  325MOL0     C43765   7.778   0.086   3.850  0.5474  1.0868  0.2020
  325MOL0     C43766   7.747  -0.025   3.757  0.4210  0.2788 -0.2175
  325MOL0     C43767   7.819  -0.026   3.641  0.0362  0.6987 -0.0073
  325MOL0     C43768   7.935   0.061   3.619 -0.3090  0.3147 -0.6684
  325MOL0     C43769   8.018   0.040   3.502 -0.6090  1.1691 -0.2775
  325MOL0     O43770   8.111   0.140   3.470 -0.1622 -0.7380 -0.2087
  325MOL0     C43771   8.220   0.102   3.400  0.4919 -0.5439 -0.3576
  325MOL0     C43772   8.310   0.210   3.390  0.0180 -0.5080 -0.0678
  325MOL0     C43773   8.433   0.204   3.327  0.2955  0.2953  0.2523
  325MOL0     C43774   8.468   0.085   3.252  0.4055 -0.5934  0.4911
  325MOL0     O43775   8.575   0.062   3.174  0.4014  0.2597 -0.4057
  325MOL0     C43776   8.699   0.130   3.210 -0.3118 -0.7097  0.5712
  325MOL0     C43777   8.817   0.064   3.138 -0.1140  0.8544  0.6257
  325MOL0     C43778   8.804   0.090   2.984  0.2174 -0.2101 -1.0626
  325MOL0     C43779   8.907   0.009   2.899 -0.4012  0.2076  0.2698
  325MOL0     C43780   8.855   0.016   2.756 -0.5740  0.1339 -0.2834
  325MOL0     C43781   8.952  -0.050   2.656 -1.0331  0.1976 -0.0558
  325MOL0     C43782   8.963   0.036   2.535 -0.3384 -0.2418  0.5031
  325MOL0     C43783   9.056  -0.027   2.431 -0.2335  0.1053  0.3279
  325MOL0    Cl43784   8.998  -0.177   2.352  0.7831 -0.1142 -0.2459
  325MOL0     C43785   8.378  -0.021   3.258  0.0958 -0.2587 -0.6400
  325MOL0     C43786   8.255  -0.013   3.335 -0.4223 -0.2485 -0.4509
  325MOL0     O43787   8.003  -0.068   3.443  0.1597  0.1609  0.0716
  325MOL0     C43788   7.960   0.169   3.703  0.3590  0.4920 -0.2498
  325MOL0     C43789   7.875   0.181   3.815 -0.2585 -0.2546  0.3460
  325MOL0     N43790   7.281   0.280   4.274  0.3876  0.2977 -0.1175
  325MOL0     N43791   7.207   0.357   4.346 -0.4880  0.3867  0.2728
  325MOL0     C43792   7.830   0.755   5.251 -0.8916 -0.2014  1.1363
  325MOL0     C43793   7.848   0.742   5.386 -0.1705 -0.6044 -0.8386
  325MOL0     C43794   7.801   0.777   5.784  0.4905  1.2123  0.2085
  325MOL0     C43795   7.933   0.747   5.817 -0.4194  0.5807 -0.2572
  325MOL0     C43796   7.977   0.764   5.949 -0.2857 -1.2509 -0.1133
  325MOL0     C43797   7.895   0.830   6.052 -0.6822 -1.2709  0.5721
  325MOL0     O43798   7.939   0.854   6.182 -0.1272  0.2120 -0.1898
  325MOL0     C43799   8.081   0.840   6.213  1.1310  0.5803  0.5729
  325MOL0     C43800   8.125   0.890   6.354 -0.8624 -0.6784  0.2801
  325MOL0     C43801   8.142   1.049   6.360 -0.0748  0.8228  0.7812
  325MOL0     C43802   8.027   1.133   6.314  0.3553 -0.6090 -0.0733
  325MOL0     C43803   7.905   1.103   6.400 -0.6841 -0.4130 -0.6056
  325MOL0     C43804   7.812   1.065   6.457 -0.0027  1.1316  0.4297
  325MOL0     C43805   7.761   0.850   6.023  0.0640 -0.8671  0.5395
  325MOL0     C43806   7.709   0.821   5.893 -1.4120 -0.2304  0.2250
  325MOL0     C43807   7.557   0.849   5.865 -0.5995  0.5769 -0.1962
  325MOL0     H43808   7.799   0.420   5.447  1.8078 -0.0145 -0.1649
  325MOL0     H43809   7.795   0.424   5.187  2.6899  0.5707 -0.2024
  325MOL0     H43810   7.611   0.560   5.014 -1.3684  1.0975  0.3352
  325MOL0     H43811   7.600   0.732   5.071  0.9845  1.0302  0.4500
  325MOL0     H43812   7.699   0.606   4.805  2.3587 -0.0911  2.6770
  325MOL0     H43813   7.744   0.768   4.839 -0.0178 -0.6132 -0.9937
  325MOL0     H43814   7.569   0.830   4.726 -1.8093 -1.4896 -0.9931
  325MOL0     H43815   7.462   0.796   4.868 -2.3750 -1.6995 -0.3899
  325MOL0     H43816   7.525   0.618   4.632 -1.4773  1.4432 -1.3172
  325MOL0     H43817   7.456   0.557   4.781 -0.3577 -0.5562 -1.1819
  325MOL0     H43818   7.267   0.732   4.754 -0.5811  1.4813 -0.6714
  325MOL0     H43819   7.346   0.777   4.600  1.1793  0.7522  1.2266
  325MOL0     H43820   7.164   0.643   4.571 -0.6342  0.0126  3.4048
  325MOL0     H43821   7.305   0.556   4.507  2.2870  1.8251  1.1084
  325MOL0     H43822   7.168   0.473   4.764  0.4486  1.5255  0.5285
  325MOL0     H43823   7.317   0.400   4.706 -0.7054  0.2478 -0.5438
  325MOL0     H43824   7.112   0.274   4.659  1.5573  1.8011  1.6971
  325MOL0     H43825   7.057   0.415   4.560 -0.8042 -0.8968 -1.3800
  325MOL0     H43826   7.337   0.138   4.564 -1.1854  0.4054  1.9998
  325MOL0     H43827   7.476   0.019   4.397 -1.3840 -1.3824 -0.8095
  325MOL0     H43828   7.377  -0.000   4.253 -3.3131  2.2336  0.5636
  325MOL0     H43829   7.541   0.182   4.161  4.5425 -1.0050 -2.5106
  325MOL0     H43830   7.636   0.133   4.309 -0.3273 -0.7332  0.4726
  325MOL0     H43831   7.550  -0.049   4.081  2.8374 -1.5874 -1.9332
  325MOL0     H43832   7.648  -0.099   4.209 -0.5811 -1.2399 -1.6706
  325MOL0     H43833   7.781  -0.070   4.030  1.8724  0.3662  1.7019
  325MOL0     H43834   7.823   0.072   4.122  0.6770  2.6518 -2.0040
  325MOL0     H43835   7.667  -0.098   3.764 -1.5159  2.2753 -0.3805
  325MOL0     H43836   7.789  -0.096   3.564 -2.1091 -1.7402  2.8144
  325MOL0     H43837   8.280   0.308   3.425  0.7907 -0.2004 -0.2492
  325MOL0     H43838   8.508   0.282   3.324  0.1486  0.6053  2.6069
  325MOL0     H43839   8.690   0.233   3.175 -3.5557 -1.9078 -2.9422
  325MOL0     H43840   8.732   0.119   3.314  0.2457  0.0562  0.4797
  325MOL0     H43841   8.912   0.102   3.174  0.4005 -0.1619  0.3805
  325MOL0     H43842   8.807  -0.043   3.159 -0.6734  1.0151  1.2040
  325MOL0     H43843   8.710   0.043   2.954  0.7094 -4.1299  2.5837
  325MOL0     H43844   8.799   0.197   2.959 -2.2547  0.2549  0.9242
  325MOL0     H43845   8.923  -0.093   2.934 -2.6485 -0.2337  0.1525
  325MOL0     H43846   9.002   0.064   2.896 -0.9815  1.4083  2.2441
  325MOL0     H43847   8.842   0.124   2.743 -1.2052  0.7368  3.9404
  325MOL0     H43848   8.757  -0.032   2.761 -1.5759  2.1005  4.1778
  325MOL0     H43849   9.048  -0.073   2.703 -1.6953  1.1708  1.9029
  325MOL0     H43850   8.915  -0.150   2.631 -0.6920 -0.1277  0.7248
  325MOL0     H43851   9.011   0.128   2.568  1.5983 -0.3560 -1.7419
  325MOL0     H43852   8.870   0.075   2.493  0.6453  3.1575  1.2011
  325MOL0     H43853   9.073   0.038   2.344  0.9801 -0.8384 -0.1653
  325MOL0     H43854   9.156  -0.043   2.473  0.9430  0.4470 -2.1438
  325MOL0     H43855   8.396  -0.118   3.213 -0.5056 -1.0991  0.8513
  325MOL0     H43856   8.193  -0.102   3.331 -0.8226  0.0513 -1.4447
  325MOL0     H43857   8.039   0.242   3.687 -0.0192  0.6656 -1.3731
  325MOL0     H43858   7.894   0.267   3.878 -0.1899  1.0309 -1.3840
  325MOL0     H43859   7.846   0.843   5.189 -1.2468 -2.6585 -2.7565
  325MOL0     H43860   7.859   0.840   5.433  1.4264 -0.3574 -1.6431
  325MOL0     H43861   7.998   0.694   5.748 -0.7143 -0.0042 -0.0891
  325MOL0     H43862   8.076   0.728   5.976 -0.1008  0.1189  1.1040
  325MOL0     H43863   8.136   0.892   6.133  1.3497 -1.7684 -0.8945
  325MOL0     H43864   8.105   0.733   6.212 -2.7142 -0.4240  1.2259
  325MOL0     H43865   8.219   0.843   6.383 -0.3920 -1.3033 -2.0780
  325MOL0     H43866   8.052   0.850   6.426 -3.0848  0.3906 -1.2543
  325MOL0     H43867   8.218   1.071   6.285 -2.9486 -0.0545 -2.6414
  325MOL0     H43868   8.182   1.093   6.452  1.3842  2.8751 -0.7335
  325MOL0     H43869   8.045   1.241   6.324 -2.2206 -0.2022  1.1521
  325MOL0     H43870   8.003   1.110   6.210  7.1699 -0.5874 -2.1163
  325MOL0     H43871   7.722   1.025   6.500 -0.2680  0.9892 -0.2307
  325MOL0     H43872   7.700   0.889   6.104  1.7430 -0.5746  1.7053
  325MOL0     H43873   7.510   0.756   5.834 -1.6348  0.8491  0.5289
  325MOL0     H43874   7.523   0.886   5.962 -0.1068 -0.5943  0.4381
  325MOL0     H43875   7.548   0.926   5.787 -2.8693  2.6135  1.8809
  326MOL0     O43876  10.892   2.346   0.509 -0.2598 -0.4650 -0.5071
  326MOL0     C43877  10.834   2.442   0.564 -0.9171  0.5989  0.9440
  326MOL0     O43878  10.876   2.574   0.535 -0.0957  0.0852  0.7525
  326MOL0     C43879  10.978   2.589   0.450  0.3847 -0.7169  0.2536
  326MOL0     C43880  10.994   2.530   0.324 -0.7252  0.2576 -0.8231
  326MOL0     C43881  11.104   2.564   0.242 -0.4402  0.0166  0.1560
  326MOL0     C43882  11.201   2.665   0.283  0.1454 -0.2602 -0.8122
  326MOL0     O43883  11.309   2.699   0.199 -0.0125 -0.4796 -0.3525
  326MOL0     C43884  11.403   2.796   0.240  0.2231 -0.1206  0.3032
  326MOL0     C43885  11.482   2.833   0.120 -0.7071  0.0882  0.3286
  326MOL0     C43886  11.402   2.901   0.011 -0.6493 -0.5383 -0.0100
  326MOL0     C43887  11.378   3.044   0.038  0.1893 -0.1395  0.0493
  326MOL0     C43888  11.298   3.110  -0.089 -0.7288  0.0836 -0.6743
  326MOL0     C43889  11.274   3.262  -0.078 -0.2717 -0.3520  0.1345
  326MOL0     C43890  11.130   3.287  -0.019 -0.2920 -0.1340  1.1144
  326MOL0     C43891  11.016   3.257  -0.120  0.0144  0.0530  0.2551
  326MOL0     N43892  10.890   3.247  -0.049  0.0329  0.8760 -0.7371
  326MOL0     C43893  10.826   3.336   0.040  1.4317  0.5069 -0.4009
  326MOL0     C43894  10.724   3.265   0.091  0.2179  0.3525 -0.5493
  326MOL0     C43895  10.604   3.316   0.168 -0.9437  0.8608  0.8049
  326MOL0     C43896  10.571   3.242   0.296 -0.3222  0.2113 -0.0119
  326MOL0     C43897  10.648   3.302   0.417 -0.0745  0.8976 -0.5035
  326MOL0     C43898  10.798   3.260   0.415 -0.2107 -0.9853  0.5196
  326MOL0     O43899  10.852   3.223   0.534 -0.5700 -0.4783  0.3184
  326MOL0     C43900  10.985   3.193   0.520  0.1936  0.8933  0.6347
  326MOL0     C43901  11.047   3.146   0.637  0.1414 -0.8688 -0.3349
  326MOL0     C43902  11.180   3.103   0.638  1.0919  0.3526  0.1340
  326MOL0     C43903  11.263   3.112   0.519  1.2498  0.1208 -0.5518
  326MOL0     C43904  11.408   3.081   0.528  0.3228 -0.1860 -0.3138
  326MOL0     O43905  11.455   3.055   0.650  0.7060  0.4514 -0.0500
  326MOL0     C43906  11.588   3.025   0.661 -0.2262  1.3418  0.4549
  326MOL0     C43907  11.642   2.900   0.622  0.2320  0.7680 -0.2366
  326MOL0     C43908  11.778   2.885   0.644  0.3195  0.2407  1.0725
  326MOL0     C43909  11.861   2.991   0.697  0.4535  1.0066 -0.1046
  326MOL0     O43910  11.991   2.975   0.742 -0.0080 -0.9656  0.4396
  326MOL0     C43911  12.001   2.885   0.849  0.0006  0.3410  0.0342
  326MOL0     C43912  12.150   2.878   0.906  0.1639 -0.6258  0.4525
  326MOL0     C43913  12.219   3.014   0.922 -0.1771 -0.0176  0.1007
  326MOL0     C43914  12.157   3.083   1.049  0.0793  0.6821  0.3541
  326MOL0     C43915  12.272   3.161   1.118 -0.2082 -0.1255 -0.1500
  326MOL0     C43916  12.228   3.236   1.243 -0.1669  0.1055 -1.3875
  326MOL0     C43917  12.163   3.372   1.204  0.1431 -0.5953  0.8275
  326MOL0     C43918  12.127   3.450   1.328 -0.0221 -0.7359 -0.9095
  326MOL0    Cl43919  11.981   3.543   1.292 -0.0608 -0.4679 -0.0180
  326MOL0     C43920  11.807   3.116   0.736  1.1333  0.5752 -0.3144
  326MOL0     C43921  11.672   3.133   0.711  0.5946  0.6133 -0.4263
  326MOL0     O43922  11.474   3.071   0.421 -0.2585 -0.3919 -0.4286
  326MOL0     C43923  11.201   3.172   0.406 -0.1149 -1.0723  1.2195
  326MOL0     C43924  11.065   3.208   0.406  0.7319  0.1778  0.1505
  326MOL0     N43925  10.732   3.140   0.038  0.0159  0.2725  0.6927
  326MOL0     N43926  10.837   3.125  -0.035  0.6608 -0.5003  1.0853
  326MOL0     C43927  11.184   2.708   0.412  0.8417  0.0963  0.2013
  326MOL0     C43928  11.081   2.676   0.495  0.2129  0.2999  0.8027
  326MOL0     C43929  10.726   2.409   0.655  1.1022 -0.1960 -0.0530
  326MOL0     C43930  10.668   2.285   0.653  0.3868  0.8213  0.2340
  326MOL0     C43931  10.574   2.245   0.754  0.3141 -0.9010  0.3296
  326MOL0     C43932  10.531   2.329   0.855 -0.3008  0.1092  1.3342
  326MOL0     O43933  10.434   2.286   0.938  0.7088  0.0779 -0.8243
  326MOL0     C43934  10.417   2.352   1.067  0.3653  0.9150  0.0257
  326MOL0     C43935  10.351   2.251   1.164 -0.2528 -0.4282  0.4364
  326MOL0     C43936  10.454   2.158   1.233  1.4627  0.4153  0.0840
  326MOL0     C43937  10.401   2.045   1.323 -0.1427 -0.2492 -0.4244
  326MOL0     C43938  10.490   1.933   1.348 -0.7199  0.9455 -0.1477
  326MOL0     C43939  10.555   1.832   1.372 -0.1913  0.2839  0.2444
  326MOL0     C43940  10.597   2.458   0.863 -0.8565  0.6637  0.1149
  326MOL0     C43941  10.698   2.490   0.764 -0.6320 -0.5655 -0.0639
  326MOL0     C43942  10.761   2.629   0.787  0.2962  0.4515  0.1569
  326MOL0     H43943  10.922   2.459   0.284  0.8359 -2.3924  0.7236
  326MOL0     H43944  11.128   2.506   0.154  6.1405 -0.9973  2.0717
  326MOL0     H43945  11.343   2.880   0.276 -0.3582  0.3487 -1.6648
  326MOL0     H43946  11.467   2.769   0.325  0.7544  0.9425  0.2608
  326MOL0     H43947  11.532   2.746   0.077  2.2418  3.0772 -3.0069
  326MOL0     H43948  11.564   2.893   0.161 -0.8229 -1.6332  3.3576
  326MOL0     H43949  11.309   2.842   0.010 -0.9316 -0.1306  0.9920
  326MOL0     H43950  11.440   2.896  -0.092 -0.1416 -0.9008  0.1922
  326MOL0     H43951  11.316   3.061   0.127 -1.1560  0.7873 -1.0302
  326MOL0     H43952  11.478   3.088   0.049 -1.8670  5.3448  0.1425
  326MOL0     H43953  11.339   3.085  -0.188 -0.2516  0.0930 -0.4795
  326MOL0     H43954  11.196   3.072  -0.076  0.4444 -2.2423  3.3436
  326MOL0     H43955  11.353   3.315  -0.025  1.1406 -1.0969 -1.1427
  326MOL0     H43956  11.271   3.294  -0.182  0.3524 -2.8688 -0.7377
  326MOL0     H43957  11.132   3.394   0.001  1.5506 -0.0399  0.5663
  326MOL0     H43958  11.128   3.223   0.070 -3.7358 -3.1026 -0.8027
  326MOL0     H43959  11.017   3.336  -0.196 -0.8972  0.6421  0.8292
  326MOL0     H43960  11.024   3.160  -0.172  2.6059  0.7452 -0.8080
  326MOL0     H43961  10.862   3.433   0.074 -0.2364 -0.0479  3.4628
  326MOL0     H43962  10.628   3.421   0.189  1.2558  0.3453  1.1042
  326MOL0     H43963  10.528   3.313   0.090  2.2300 -1.6424 -2.5216
  326MOL0     H43964  10.466   3.269   0.308 -0.8496 -1.0913 -1.4596
  326MOL0     H43965  10.578   3.133   0.292  1.8270  0.3517 -2.3588
  326MOL0     H43966  10.597   3.278   0.511 -0.9189 -1.4570 -1.5030
  326MOL0     H43967  10.645   3.411   0.408 -0.1032  0.9368 -0.0434
  326MOL0     H43968  10.850   3.351   0.385 -0.6709 -0.2554  1.8358
  326MOL0     H43969  10.817   3.181   0.342  2.2166  0.2679 -0.3089
  326MOL0     H43970  10.984   3.126   0.724 -1.0039 -1.2559 -1.2326
  326MOL0     H43971  11.224   3.070   0.732  2.3683  1.9127  0.1378
  326MOL0     H43972  11.583   2.815   0.587  1.1507 -0.4935  1.1322
  326MOL0     H43973  11.810   2.782   0.640 -1.2785 -0.2509 -0.3499
  326MOL0     H43974  11.940   2.908   0.936 -0.8060 -2.4534  0.3078
  326MOL0     H43975  11.969   2.787   0.812 -1.6978 -0.2038  2.6684
  326MOL0     H43976  12.152   2.816   0.996  1.9421 -1.2618  0.0270
  326MOL0     H43977  12.221   2.833   0.836 -0.6427 -0.7577 -0.2987
  326MOL0     H43978  12.328   3.009   0.929  0.1194  2.1323 -1.7180
  326MOL0     H43979  12.203   3.079   0.836  0.6942  0.7207  0.4817
  326MOL0     H43980  12.107   3.007   1.110  3.1542 -0.9583  1.0596
  326MOL0     H43981  12.084   3.154   1.010 -0.2238  0.9237  1.3272
  326MOL0     H43982  12.323   3.229   1.049  2.3319 -0.8670  0.8980
  326MOL0     H43983  12.348   3.089   1.150 -0.2284 -1.8641 -3.5979
  326MOL0     H43984  12.164   3.166   1.299  0.4722 -2.0068 -3.1645
  326MOL0     H43985  12.312   3.263   1.307 -0.4396 -1.4600 -0.3126
  326MOL0     H43986  12.071   3.351   1.150 -0.1297 -0.1980  1.1361
  326MOL0     H43987  12.235   3.427   1.142  2.9594 -1.0385  3.4336
  326MOL0     H43988  12.112   3.380   1.411  0.1772  0.5777  0.2596
  326MOL0     H43989  12.202   3.521   1.363 -0.9510 -0.5408  0.8082
  326MOL0     H43990  11.864   3.186   0.796 -1.1155  3.2976 -1.1475
  326MOL0     H43991  11.626   3.229   0.731  0.6842  0.3262  1.3419
  326MOL0     H43992  11.270   3.187   0.324 -3.2181  3.4721 -0.9697
  326MOL0     H43993  11.026   3.251   0.314  1.1197  1.0327  0.3750
  326MOL0     H43994  11.256   2.779   0.453  0.3662  2.3934 -2.5891
  326MOL0     H43995  11.083   2.709   0.598 -0.6063 -1.2318  1.3374
  326MOL0     H43996  10.686   2.212   0.575 -2.6899  0.7054 -0.5089
  326MOL0     H43997  10.531   2.145   0.746 -2.1913  0.2436 -2.8928
  326MOL0     H43998  10.358   2.443   1.050  1.9683  2.0559  0.3617
  326MOL0     H43999  10.510   2.390   1.109  0.1360  1.2356  0.2420
  326MOL0     H44000  10.285   2.180   1.113  0.7693 -0.3085 -1.1001
  326MOL0     H44001  10.301   2.308   1.244 -1.5070 -3.2939  1.8258
  326MOL0     H44002  10.530   2.224   1.277  1.5734 -1.4103  2.9029
  326MOL0     H44003  10.514   2.096   1.166  3.2934 -1.3047  3.0645
  326MOL0     H44004  10.377   2.092   1.419  3.9411 -0.9057  1.1458
  326MOL0     H44005  10.312   1.995   1.285 -0.2505  0.5739 -1.2849
  326MOL0     H44006  10.600   1.738   1.398 -0.9140  0.6685  3.2407
  326MOL0     H44007  10.575   2.529   0.942 -0.2316 -0.3486  1.2310
  326MOL0     H44008  10.870   2.620   0.783  0.2198 -0.0842 -1.0347
  326MOL0     H44009  10.723   2.705   0.718 -2.3904  0.8221  1.8810
  326MOL0     H44010  10.738   2.657   0.890  0.3066 -1.6493  0.7647
  327MOL0     O44011   9.142   4.510  11.246  0.2623 -0.3175  0.9850
  327MOL0     C44012   9.087   4.599  11.307 -0.3202 -0.0809 -0.7627
  327MOL0     O44013   9.133   4.722  11.325 -0.1384  0.1391  0.1881
  327MOL0     C44014   9.236   4.775  11.252 -0.0038 -0.5932  0.5765
  327MOL0     C44015   9.323   4.858  11.328 -0.2992  0.2981 -0.4763
  327MOL0     C44016   9.415   4.938  11.264 -0.6342 -0.6380  0.0239
  327MOL0     C44017   9.444   4.934  11.129  0.0107 -0.4067  0.8437
  327MOL0     O44018   9.548   5.002  11.068  0.2054  0.1197  0.6917
  327MOL0     C44019   9.609   4.934  10.960 -0.6835  0.5451  0.4172
  327MOL0     C44020   9.758   4.932  10.978  0.9613 -0.4859  0.9964
  327MOL0     C44021   9.800   4.908  11.124  1.1059  0.9574 -0.9121
  327MOL0     C44022   9.950   4.898  11.153  0.5554 -0.3982 -0.9979
  327MOL0     C44023  10.023   5.035  11.128 -0.1095 -0.3214  0.5010
  327MOL0     C44024  10.163   5.057  11.181 -0.4903  0.0261  0.4400
  327MOL0     C44025  10.230   5.195  11.134  0.1950 -0.3804  1.0149
  327MOL0     C44026  10.373   5.196  11.193  0.2474 -0.0273  0.2790
  327MOL0     N44027  10.451   5.306  11.159  0.3879 -0.3998  0.0785
  327MOL0     C44028  10.549   5.307  11.057  0.0917  1.2119 -0.8417
  327MOL0     C44029  10.593   5.428  11.053  0.3738  0.0892  0.8361
  327MOL0     C44030  10.690   5.494  10.960 -0.0635 -0.0526  0.7797
  327MOL0     C44031  10.628   5.539  10.830 -0.7387 -0.4113  0.9626
  327MOL0     C44032  10.752   5.588  10.744  0.4012 -0.0715  0.2572
  327MOL0     C44033  10.731   5.699  10.639 -0.1328  0.5850 -0.1523
  327MOL0     O44034  10.718   5.828  10.701  1.0596 -0.5910  0.0484
  327MOL0     C44035  10.738   5.936  10.615 -0.5323 -0.0427 -0.1655
  327MOL0     C44036  10.656   5.963  10.509 -0.3366 -0.6844  0.4975
  327MOL0     C44037  10.692   6.077  10.420 -0.8724 -0.8775 -0.1273
  327MOL0     C44038  10.797   6.157  10.450 -0.4502 -0.0367  0.9757
  327MOL0     C44039  10.831   6.267  10.363  1.2784 -0.2287  0.5917
  327MOL0     O44040  10.942   6.340  10.394  0.1790  0.0412 -0.4970
  327MOL0     C44041  10.965   6.451  10.316  0.5245  0.2586 -0.9760
  327MOL0     C44042  11.051   6.446  10.206  0.7231 -0.0832 -0.9711
  327MOL0     C44043  11.099   6.564  10.145 -0.4607 -0.4986 -0.3772
  327MOL0     C44044  11.055   6.698  10.191 -0.0658  0.0197 -0.5807
  327MOL0     O44045  11.100   6.807  10.127 -0.6441 -0.0350  0.4040
  327MOL0     C44046  11.213   6.862  10.196  0.2160 -0.5188 -0.6334
  327MOL0     C44047  11.223   7.010  10.175 -0.4396 -0.4534 -0.1133
  327MOL0     C44048  11.332   7.039  10.071  0.1576 -0.4754  0.2541
  327MOL0     C44049  11.384   7.187  10.078 -0.7985  0.2134  0.0373
  327MOL0     C44050  11.492   7.226   9.968 -0.1362 -0.1543  0.3807
  327MOL0     C44051  11.605   7.126   9.968 -0.4286  0.0913  0.0257
  327MOL0     C44052  11.717   7.179   9.864  0.3682 -0.7786 -0.9762
  327MOL0     C44053  11.818   7.065   9.851  0.1760 -0.6300  0.2428
  327MOL0    Cl44054  11.925   7.044   9.994  0.0600  0.2018  0.6103
  327MOL0     C44055  10.973   6.697  10.306  0.0180  0.6372 -0.5243
  327MOL0     C44056  10.926   6.578  10.359 -0.7857 -0.5399 -1.2527
  327MOL0     O44057  10.755   6.292  10.269 -0.5395 -0.3804  0.3715
  327MOL0     C44058  10.887   6.112  10.543  0.0694  1.0471 -0.3927
  327MOL0     C44059  10.862   6.000  10.631  1.1032  0.5952 -0.2122
  327MOL0     N44060  10.530   5.504  11.155  0.6537  0.0451  0.5150
  327MOL0     N44061  10.441   5.424  11.216 -0.7486 -0.9098 -0.0694
  327MOL0     C44062   9.349   4.857  11.049  0.2049 -0.7200  0.0309
  327MOL0     C44063   9.249   4.780  11.109 -0.2882 -0.5990  0.2978
  327MOL0     C44064   8.972   4.553  11.391  0.7934  0.9947  0.2224
  327MOL0     C44065   8.968   4.421  11.444 -0.2512 -0.3217  0.3912
  327MOL0     C44066   8.853   4.380  11.512  0.3357  0.8439  0.2151
  327MOL0     C44067   8.740   4.459  11.528  0.5654 -0.2273  0.6731
  327MOL0     O44068   8.632   4.409  11.600  0.4703  0.1244  0.3632
  327MOL0     C44069   8.508   4.482  11.626  0.6040 -0.3154 -0.8789
  327MOL0     C44070   8.438   4.421  11.745 -0.8154  0.3693  0.4700
  327MOL0     C44071   8.311   4.496  11.774 -1.3546  0.0244 -0.0331
  327MOL0     C44072   8.324   4.620  11.861  0.4146 -0.8548  0.2304
  327MOL0     C44073   8.348   4.582  11.997 -0.2181 -0.1482 -0.7035
  327MOL0     C44074   8.349   4.564  12.120 -0.0945 -0.2938 -0.5648
  327MOL0     C44075   8.746   4.585  11.477  0.4349  0.1809 -0.2767
  327MOL0     C44076   8.854   4.632  11.416 -0.8190 -0.6242 -0.5094
  327MOL0     C44077   8.825   4.767  11.349 -0.6432  0.1894 -0.8012
  327MOL0     H44078   9.307   4.858  11.435  1.1095  1.9870 -0.2193
  327MOL0     H44079   9.487   4.998  11.319  0.8142 -1.7504 -0.5847
  327MOL0     H44080   9.574   4.831  10.947  0.8470  0.2057 -1.3404
  327MOL0     H44081   9.566   4.970  10.866 -1.4063 -0.8579  0.1758
  327MOL0     H44082   9.803   5.023  10.937  0.0616 -0.8510 -0.8932
  327MOL0     H44083   9.799   4.846  10.924  1.2795  0.9908 -1.2259
  327MOL0     H44084   9.745   4.815  11.141 -1.4217  2.6186  0.6864
  327MOL0     H44085   9.755   4.977  11.196 -0.9314 -0.1156 -1.0843
  327MOL0     H44086   9.962   4.874  11.259  1.1536 -1.5566 -1.3023
  327MOL0     H44087  10.009   4.826  11.094  1.3073 -1.0437  0.4793
  327MOL0     H44088  10.025   5.058  11.021 -1.4594  3.0901  1.0633
  327MOL0     H44089   9.972   5.118  11.178 -0.0881 -0.9147  1.5378
  327MOL0     H44090  10.151   5.063  11.289 -1.1262  0.5903  0.3460
  327MOL0     H44091  10.227   4.970  11.163 -1.4722 -0.8881  1.1991
  327MOL0     H44092  10.170   5.282  11.164  1.7423  1.3769 -0.6998
  327MOL0     H44093  10.236   5.199  11.024  0.1329 -1.4807  0.9620
  327MOL0     H44094  10.360   5.178  11.301 -4.0073 -1.3103 -0.2640
  327MOL0     H44095  10.422   5.114  11.140  0.0159  0.2068 -0.2952
  327MOL0     H44096  10.578   5.221  10.997 -0.4737 -2.0689  3.1248
  327MOL0     H44097  10.738   5.583  11.002  0.3558  0.9792 -1.7231
  327MOL0     H44098  10.767   5.419  10.938 -0.1514 -0.1329  0.7491
  327MOL0     H44099  10.576   5.464  10.770  0.5401 -1.9047  1.6812
  327MOL0     H44100  10.560   5.624  10.843 -2.6596 -1.5313 -1.1749
  327MOL0     H44101  10.803   5.506  10.693  0.4983  0.1076  0.0653
  327MOL0     H44102  10.833   5.630  10.805  1.5286 -0.7129 -0.7475
  327MOL0     H44103  10.642   5.682  10.578  1.0680  1.8892 -2.3680
  327MOL0     H44104  10.818   5.708  10.573  0.8083 -0.0940  0.9531
  327MOL0     H44105  10.564   5.908  10.491 -1.6857  1.4703  0.4026
  327MOL0     H44106  10.645   6.085  10.322 -0.7336  1.1192 -0.0592
  327MOL0     H44107  11.090   6.348  10.181  0.4311 -0.6597  0.6522
  327MOL0     H44108  11.155   6.566  10.052 -4.0058  1.2221 -2.6927
  327MOL0     H44109  11.186   6.861  10.301 -2.1107  1.8166 -1.1042
  327MOL0     H44110  11.310   6.813  10.179  0.9236  0.9903 -1.1800
  327MOL0     H44111  11.126   7.054  10.149  0.3668  0.7081 -1.3140
  327MOL0     H44112  11.251   7.062  10.267 -0.6369 -3.2630  1.6436
  327MOL0     H44113  11.413   6.967  10.084 -1.0389 -1.9718 -0.2843
  327MOL0     H44114  11.301   7.022   9.967 -0.5529 -2.1900  0.7079
  327MOL0     H44115  11.420   7.206  10.180  1.1975  0.6342 -0.6837
  327MOL0     H44116  11.298   7.255  10.072  0.1064  1.4889  0.9161
  327MOL0     H44117  11.534   7.322   9.997 -2.6775  0.7134  1.4957
  327MOL0     H44118  11.448   7.230   9.868 -1.6239 -1.4959  0.9232
  327MOL0     H44119  11.647   7.116  10.069 -0.5021  0.4963  0.0999
  327MOL0     H44120  11.573   7.027   9.936 -2.0099 -0.4940  3.0352
  327MOL0     H44121  11.762   7.273   9.897  1.1411 -0.6020 -2.4321
  327MOL0     H44122  11.674   7.199   9.765  1.8233  0.6679 -1.3435
  327MOL0     H44123  11.776   6.970   9.817  0.8550 -1.4764  1.6590
  327MOL0     H44124  11.891   7.087   9.772  3.4247  0.3236  3.2233
  327MOL0     H44125  10.944   6.794  10.344  1.3175  0.4940  0.9144
  327MOL0     H44126  10.871   6.585  10.452  0.0597  3.2318 -0.9136
  327MOL0     H44127  10.969   6.175  10.576 -0.6903  4.0539 -3.5942
  327MOL0     H44128  10.929   5.968  10.709  1.3142  1.1390 -0.1607
  327MOL0     H44129   9.346   4.865  10.941 -0.4113  0.4588  0.1135
  327MOL0     H44130   9.177   4.731  11.045 -1.2734 -1.6306  2.1283
  327MOL0     H44131   9.052   4.355  11.425 -1.0310 -1.3893  0.5488
  327MOL0     H44132   8.840   4.275  11.532  3.0262  0.1804 -1.0658
  327MOL0     H44133   8.444   4.482  11.538  2.3869 -0.0238 -2.2218
  327MOL0     H44134   8.533   4.583  11.661  0.6801 -1.4882  2.8850
  327MOL0     H44135   8.495   4.408  11.837 -0.1806 -1.4343 -0.1355
  327MOL0     H44136   8.415   4.321  11.707 -1.6197  1.0052 -0.7720
  327MOL0     H44137   8.248   4.425  11.828 -0.1729  0.2055  1.6494
  327MOL0     H44138   8.266   4.529  11.680  0.6517  2.5216 -0.2339
  327MOL0     H44139   8.394   4.690  11.815 -2.0666  1.8900  0.2918
  327MOL0     H44140   8.235   4.684  11.855  1.7816  0.9622 -2.3685
  327MOL0     H44141   8.339   4.557  12.226  0.7867 -1.5930 -0.5453
  327MOL0     H44142   8.657   4.645  11.492 -1.3111 -2.4606  0.7451
  327MOL0     H44143   8.739   4.817  11.395  1.0968  2.2828  0.3560
  327MOL0     H44144   8.904   4.839  11.372 -0.6159 -0.0099 -0.2538
  327MOL0     H44145   8.811   4.773  11.241 -0.9141  2.2689 -0.6951
  328MOL0     O44146   6.211   0.581   0.346 -0.1954  0.9937 -0.0155
  328MOL0     C44147   6.095   0.554   0.315  0.3526  0.0745 -0.1317
  328MOL0     O44148   6.065   0.460   0.219 -0.5415 -0.4799  0.0856
  328MOL0     C44149   6.163   0.389   0.153 -0.5941  0.1152 -0.9053
  328MOL0     C44150   6.181   0.397   0.015  0.3358  0.8164  0.8352
  328MOL0     C44151   6.293   0.327  -0.041 -0.8300 -0.0097  0.4165
  328MOL0     C44152   6.386   0.258   0.035 -0.0820 -0.4512  0.3012
  328MOL0     O44153   6.499   0.199  -0.014 -1.0425  0.4290 -0.7224
  328MOL0     C44154   6.498   0.133  -0.148 -0.6685  0.1020 -1.0124
  328MOL0     C44155   6.412   0.009  -0.145 -0.1844 -0.6204 -0.4847
  328MOL0     C44156   6.428  -0.085  -0.261  0.7821 -0.8151  0.2127
  328MOL0     C44157   6.336  -0.207  -0.250 -0.0181  0.5802 -0.4666
  328MOL0     C44158   6.356  -0.300  -0.369  0.1990  0.8638 -0.0911
  328MOL0     C44159   6.242  -0.401  -0.400 -0.1047 -0.2519 -1.1169
  328MOL0     C44160   6.211  -0.512  -0.295 -0.2314 -0.0330  0.2517
  328MOL0     C44161   6.318  -0.608  -0.252  0.4188  0.2191  0.5390
  328MOL0     N44162   6.369  -0.689  -0.367  0.3685  0.2445  0.5464
  328MOL0     C44163   6.484  -0.658  -0.445 -0.0281  0.1040 -0.4202
  328MOL0     C44164   6.493  -0.752  -0.542  0.1565 -0.0106 -0.8405
  328MOL0     C44165   6.596  -0.758  -0.652  0.0094 -0.1118  0.2690
  328MOL0     C44166   6.531  -0.807  -0.793 -0.2745 -0.9384 -0.5001
  328MOL0     C44167   6.640  -0.831  -0.904  1.0328  0.1149  0.1476
  328MOL0     C44168   6.615  -0.960  -0.979 -0.1533  0.2033 -0.8480
  328MOL0     O44169   6.484  -0.977  -1.027 -0.4979 -0.4895 -0.1174
  328MOL0     C44170   6.452  -1.102  -1.077 -0.2458  0.6710  0.0718
  328MOL0     C44171   6.542  -1.205  -1.081 -0.4881  0.4721  0.1821
  328MOL0     C44172   6.506  -1.330  -1.133  0.1891 -0.3230  0.6065
  328MOL0     C44173   6.376  -1.354  -1.175  0.4385  0.7419  0.4800
  328MOL0     C44174   6.339  -1.481  -1.240 -0.4425 -0.0822 -0.4010
  328MOL0     O44175   6.443  -1.564  -1.259 -0.3614 -0.5663 -0.1057
  328MOL0     C44176   6.423  -1.689  -1.308 -0.7207  0.7738  0.0837
  328MOL0     C44177   6.436  -1.709  -1.448  0.0654  0.3322 -0.0319
  328MOL0     C44178   6.422  -1.833  -1.501 -0.5000 -0.0727  0.2652
  328MOL0     C44179   6.390  -1.945  -1.417  0.0244  0.5218  0.7557
  328MOL0     O44180   6.363  -2.074  -1.461  0.0187  0.2268 -0.1254
  328MOL0     C44181   6.288  -2.088  -1.585  0.4164 -0.4138 -0.1127
  328MOL0     C44182   6.276  -2.235  -1.630  0.6834 -0.3175 -0.4644
  328MOL0     C44183   6.231  -2.239  -1.773  0.3294  0.4872 -0.0476
  328MOL0     C44184   6.084  -2.201  -1.791 -0.4564  0.1822  0.0060
  328MOL0     C44185   6.063  -2.177  -1.941 -0.1127  0.3187  0.0009
  328MOL0     C44186   5.929  -2.132  -1.971  0.1298  0.0170  0.1009
  328MOL0     C44187   5.808  -2.202  -1.909 -0.4971  0.4844  0.1681
  328MOL0     C44188   5.672  -2.133  -1.931 -0.3815  1.1152  0.4507
  328MOL0    Cl44189   5.549  -2.193  -1.814  0.3638 -0.1653 -0.0053
  328MOL0     C44190   6.383  -1.924  -1.278  0.7886 -0.3185 -0.0634
  328MOL0     C44191   6.387  -1.797  -1.228  0.4390  0.5449 -0.2403
  328MOL0     O44192   6.225  -1.509  -1.261  0.5341 -0.1056  0.0096
  328MOL0     C44193   6.280  -1.255  -1.179 -0.6183  0.7848 -0.8587
  328MOL0     C44194   6.317  -1.137  -1.116  0.3256  0.6435  0.5330
  328MOL0     N44195   6.394  -0.847  -0.522  0.7448 -0.8849  0.6351
  328MOL0     N44196   6.321  -0.810  -0.417 -0.7136  0.1003 -0.1239
  328MOL0     C44197   6.360   0.237   0.171 -0.4824  0.4259  0.0952
  328MOL0     C44198   6.246   0.305   0.226 -0.2055  0.6773  0.3569
  328MOL0     C44199   5.977   0.633   0.383  0.4075 -0.1320 -0.6212
  328MOL0     C44200   5.994   0.685   0.515  0.3939  0.0746 -0.2523
  328MOL0     C44201   5.894   0.764   0.572 -0.3025  0.9646 -0.3313
  328MOL0     C44202   5.781   0.780   0.508 -0.1851  0.9564  0.0865
  328MOL0     O44203   5.679   0.842   0.578  0.2622 -0.6413  0.3194
  328MOL0     C44204   5.614   0.951   0.505  0.4546 -0.1020 -1.2156
  328MOL0     C44205   5.556   1.050   0.606 -0.3851  0.1876  0.2468
  328MOL0     C44206   5.431   0.998   0.669  0.9053 -0.8829 -0.5450
  328MOL0     C44207   5.364   1.101   0.773  0.7934 -0.9098  0.2600
  328MOL0     C44208   5.289   1.215   0.715 -0.3680  0.0270 -0.3911
  328MOL0     C44209   5.249   1.316   0.664  0.2824  0.0417  0.2697
  328MOL0     C44210   5.768   0.737   0.377 -0.3526  0.1807 -0.3107
  328MOL0     C44211   5.858   0.657   0.310  0.1435 -0.5818  0.7069
  328MOL0     C44212   5.824   0.606   0.175  0.1578  0.2846  0.5376
  328MOL0     H44213   6.110   0.461  -0.037 -3.6651 -2.3348  1.9376
  328MOL0     H44214   6.306   0.348  -0.146 -0.3772 -2.3960 -0.0550
  328MOL0     H44215   6.465   0.200  -0.228  0.9435  0.3546 -1.4955
  328MOL0     H44216   6.605   0.124  -0.169 -0.1203  4.2730 -0.8605
  328MOL0     H44217   6.309   0.043  -0.129 -0.3404 -1.1348 -0.3825
  328MOL0     H44218   6.433  -0.037  -0.048  0.4888  0.4794 -0.0906
  328MOL0     H44219   6.532  -0.117  -0.272  1.3762  0.3787  1.8950
  328MOL0     H44220   6.401  -0.023  -0.347 -1.8348  0.7592  2.0052
  328MOL0     H44221   6.362  -0.261  -0.158 -1.8835  1.0373  0.3644
  328MOL0     H44222   6.231  -0.179  -0.249 -0.9081 -2.4277  0.7921
  328MOL0     H44223   6.364  -0.238  -0.458 -2.4533  0.5893 -0.5951
  328MOL0     H44224   6.440  -0.368  -0.353 -1.3121 -1.0683  0.0631
  328MOL0     H44225   6.148  -0.345  -0.412 -1.5426 -2.7055 -1.9571
  328MOL0     H44226   6.259  -0.446  -0.498  0.8861 -2.4948  0.0139
  328MOL0     H44227   6.126  -0.571  -0.330  1.5184 -2.3671 -0.3047
  328MOL0     H44228   6.183  -0.453  -0.207  2.1724  0.9102  0.4712
  328MOL0     H44229   6.400  -0.557  -0.200  1.3088 -2.3406  1.8389
  328MOL0     H44230   6.279  -0.679  -0.179 -0.8769 -0.5591 -0.8535
  328MOL0     H44231   6.554  -0.579  -0.421  0.9254 -0.5387 -1.0079
  328MOL0     H44232   6.658  -0.671  -0.676  0.1846 -0.4997 -0.7348
  328MOL0     H44233   6.671  -0.830  -0.617 -0.6234 -0.4099  1.0639
  328MOL0     H44234   6.476  -0.902  -0.788 -1.9295  0.0195  0.2368
  328MOL0     H44235   6.470  -0.721  -0.819  0.9966  0.3226  0.5181
  328MOL0     H44236   6.740  -0.848  -0.864  0.8116 -2.6343 -0.3299
  328MOL0     H44237   6.643  -0.748  -0.975  0.6376 -0.7550 -0.9119
  328MOL0     H44238   6.635  -1.040  -0.906 -2.1541 -0.4707 -0.9467
  328MOL0     H44239   6.698  -0.964  -1.050  1.2236 -0.5028  0.7273
  328MOL0     H44240   6.642  -1.193  -1.038 -1.2891  1.2480  1.9562
  328MOL0     H44241   6.588  -1.400  -1.131 -0.0730 -0.7455 -1.3298
  328MOL0     H44242   6.451  -1.625  -1.516  0.7578 -0.4803 -0.8975
  328MOL0     H44243   6.423  -1.831  -1.610 -2.1850  0.8315  0.2393
  328MOL0     H44244   6.184  -2.059  -1.567 -2.2580 -4.1521 -6.3044
  328MOL0     H44245   6.325  -2.014  -1.657 -0.4026  1.4491  1.2745
  328MOL0     H44246   6.378  -2.274  -1.634  0.6739 -0.4024  0.0930
  328MOL0     H44247   6.220  -2.290  -1.554 -1.4265  2.2112 -0.0221
  328MOL0     H44248   6.289  -2.174  -1.839  2.2215  0.6611  1.7094
  328MOL0     H44249   6.245  -2.347  -1.786 -0.6467  0.3596 -0.1416
  328MOL0     H44250   6.059  -2.111  -1.733  0.7300  1.8622 -1.9446
  328MOL0     H44251   6.018  -2.281  -1.758 -3.8389  2.9547  0.4876
  328MOL0     H44252   6.082  -2.273  -1.989 -1.4105 -0.2485  0.5570
  328MOL0     H44253   6.126  -2.105  -1.994  0.3839 -0.7737 -0.9112
  328MOL0     H44254   5.925  -2.029  -1.933 -0.9898  0.0162 -0.0014
  328MOL0     H44255   5.919  -2.141  -2.080  5.1398 -3.0706 -0.4525
  328MOL0     H44256   5.820  -2.217  -1.801  0.0321  1.6185  0.2857
  328MOL0     H44257   5.809  -2.303  -1.950  4.0164 -0.1718  1.3306
  328MOL0     H44258   5.681  -2.024  -1.928  1.5826  0.9729  1.5563
  328MOL0     H44259   5.652  -2.161  -2.035  3.5045  1.2641 -0.4960
  328MOL0     H44260   6.357  -2.012  -1.219  1.1005 -2.0290 -2.3180
  328MOL0     H44261   6.373  -1.770  -1.124 -0.4750  1.0263 -0.4804
  328MOL0     H44262   6.181  -1.268  -1.220 -0.0976 -1.8474 -1.4622
  328MOL0     H44263   6.239  -1.062  -1.107  1.6027  2.5082 -2.2764
  328MOL0     H44264   6.435   0.182   0.227 -1.3670 -2.6876 -1.5205
  328MOL0     H44265   6.246   0.308   0.335  0.3329  0.1468  0.3731
  328MOL0     H44266   6.080   0.659   0.575  1.9897  2.2872 -1.4466
  328MOL0     H44267   5.901   0.804   0.672  0.5297  2.1617 -0.8467
  328MOL0     H44268   5.528   0.912   0.450 -1.2128 -0.0376  1.1815
  328MOL0     H44269   5.685   1.002   0.440 -1.3384 -0.7829 -3.9009
  328MOL0     H44270   5.536   1.142   0.549 -2.9182 -0.9811 -0.8982
  328MOL0     H44271   5.634   1.073   0.680  0.0394 -2.8466  0.8811
  328MOL0     H44272   5.460   0.913   0.730  0.4816 -0.3686  0.3982
  328MOL0     H44273   5.352   0.980   0.595 -0.3243  3.7568 -0.6754
  328MOL0     H44274   5.299   1.045   0.841  0.9004 -2.8017 -1.1217
  328MOL0     H44275   5.448   1.147   0.826 -0.1954  0.3862  0.7675
  328MOL0     H44276   5.215   1.402   0.610 -0.4202 -0.7866 -0.6457
  328MOL0     H44277   5.666   0.760   0.345 -0.5664  1.7239  1.3577
  328MOL0     H44278   5.896   0.641   0.100 -0.6950  0.5455 -0.1710
  328MOL0     H44279   5.811   0.499   0.191 -1.2949  0.5454  1.3092
  328MOL0     H44280   5.726   0.644   0.144 -0.3985 -2.3216 -1.2284
  329MOL0     O44281   5.606   2.473   8.274  0.3512 -0.5987  0.0174
  329MOL0     C44282   5.679   2.500   8.369  1.0706  0.4479  0.4751
  329MOL0     O44283   5.695   2.418   8.478  0.6898 -0.1401  0.2146
  329MOL0     C44284   5.612   2.308   8.506 -0.0358 -0.2492  0.6638
  329MOL0     C44285   5.672   2.249   8.613  0.3529  0.5724  0.0229
  329MOL0     C44286   5.603   2.140   8.673  0.6450  0.4351 -0.2596
  329MOL0     C44287   5.480   2.098   8.626 -0.6372  0.3747 -0.2912
  329MOL0     O44288   5.429   1.998   8.695  0.7171  1.1658 -0.3140
  329MOL0     C44289   5.334   2.019   8.807 -0.5644 -0.0025 -0.1554
  329MOL0     C44290   5.218   2.104   8.770 -0.5136  0.4003 -0.4397
  329MOL0     C44291   5.169   2.165   8.901  0.4677 -0.4724 -0.3009
  329MOL0     C44292   5.236   2.290   8.948  0.3713 -0.6271 -0.6847
  329MOL0     C44293   5.143   2.341   9.064  0.1800 -0.2656  0.1504
  329MOL0     C44294   5.220   2.430   9.166  0.8866  0.1138 -0.3500
  329MOL0     C44295   5.137   2.472   9.288 -0.5211  0.2143  0.3184
  329MOL0     C44296   5.232   2.565   9.367  0.4011 -0.1656 -0.3187
  329MOL0     N44297   5.198   2.572   9.513  0.7910  0.5739  0.7388
  329MOL0     C44298   5.111   2.666   9.563  0.6398  0.3066 -0.4309
  329MOL0     C44299   5.066   2.638   9.684 -0.9167  0.7696 -0.4457
  329MOL0     C44300   4.980   2.721   9.782 -0.0283  0.1144 -0.5909
  329MOL0     C44301   4.845   2.656   9.846 -0.7342  0.5396 -0.0579
  329MOL0     C44302   4.716   2.647   9.760  0.4109  0.0074 -0.1459
  329MOL0     C44303   4.741   2.586   9.623 -0.1321 -0.7516  0.4251
  329MOL0     O44304   4.749   2.439   9.633 -0.5496  0.5249  0.0314
  329MOL0     C44305   4.758   2.357   9.515  0.0733  0.3169 -0.1185
  329MOL0     C44306   4.762   2.409   9.384 -0.8412 -0.3713  0.2684
  329MOL0     C44307   4.772   2.321   9.280 -0.1514  0.5217  0.6426
  329MOL0     C44308   4.766   2.179   9.291  0.0610  0.5072 -0.7983
  329MOL0     C44309   4.759   2.091   9.181 -0.3886  0.3637  0.1795
  329MOL0     O44310   4.754   1.958   9.207  0.2453 -0.5819 -0.1877
  329MOL0     C44311   4.766   1.865   9.108  0.2551 -0.6843  0.1962
  329MOL0     C44312   4.674   1.774   9.069 -0.6438  1.1058 -0.1288
  329MOL0     C44313   4.692   1.691   8.960 -0.5058  0.9403  0.5282
  329MOL0     C44314   4.807   1.706   8.883 -0.6638  0.3232 -0.5501
  329MOL0     O44315   4.808   1.621   8.770  0.3092  0.3210 -0.6977
  329MOL0     C44316   4.914   1.637   8.675  0.9620 -0.4767 -0.1356
  329MOL0     C44317   4.856   1.639   8.537  0.8237  0.4517 -0.5667
  329MOL0     C44318   4.841   1.496   8.490  0.2670  0.3354 -0.7943
  329MOL0     C44319   4.922   1.447   8.367 -0.9380 -0.3573  0.0446
  329MOL0     C44320   4.943   1.296   8.361 -0.3343 -0.1526 -0.6303
  329MOL0     C44321   4.807   1.232   8.334 -0.5984  0.7689  0.1588
  329MOL0     C44322   4.811   1.077   8.317  0.2949 -0.2606 -0.6372
  329MOL0     C44323   4.868   0.998   8.436 -0.4852  0.2726  0.2297
  329MOL0    Cl44324   4.896   0.827   8.400  0.1775  0.0453  0.1814
  329MOL0     C44325   4.906   1.794   8.929 -0.3053  0.5258  0.0633
  329MOL0     C44326   4.883   1.867   9.036 -0.1730 -0.4237 -1.0384
  329MOL0     O44327   4.778   2.142   9.072  0.8513  0.0214 -0.2740
  329MOL0     C44328   4.771   2.132   9.423  1.0144  0.4457 -0.7146
  329MOL0     C44329   4.767   2.220   9.532  0.4784  0.1773 -0.8387
  329MOL0     N44330   5.122   2.515   9.710  0.6621 -0.1157 -0.7045
  329MOL0     N44331   5.183   2.472   9.599 -0.0269  0.4902  0.1248
  329MOL0     C44332   5.424   2.157   8.509  0.0799  0.1790 -0.9815
  329MOL0     C44333   5.493   2.267   8.451 -0.1049 -0.1239 -0.3615
  329MOL0     C44334   5.757   2.624   8.368 -0.2421  0.3925 -0.3058
  329MOL0     C44335   5.849   2.648   8.478 -0.9646  0.2886 -0.8162
  329MOL0     C44336   5.919   2.765   8.490 -0.5581 -0.0350  1.0394
  329MOL0     C44337   5.904   2.867   8.400 -0.3792 -0.8413 -0.3113
  329MOL0     O44338   5.965   2.982   8.408  0.0870  0.6034 -0.2239
  329MOL0     C44339   6.103   2.989   8.447 -0.2581  0.5586  0.1832
  329MOL0     C44340   6.207   2.918   8.344  0.6234  0.0258 -0.1301
  329MOL0     C44341   6.350   2.972   8.375 -0.2485  1.0874 -1.1962
  329MOL0     C44342   6.453   2.893   8.304 -0.6821  0.2174 -0.1781
  329MOL0     C44343   6.491   2.773   8.378 -0.2356  0.5428 -0.4642
  329MOL0     C44344   6.519   2.671   8.444  0.6327 -0.1621  0.0926
  329MOL0     C44345   5.816   2.848   8.291  0.0494 -0.8061  0.5257
  329MOL0     C44346   5.750   2.723   8.265 -0.2503  0.4703  0.2287
  329MOL0     C44347   5.670   2.717   8.139  0.5680  0.0098 -0.3682
  329MOL0     H44348   5.771   2.285   8.641  1.9609 -0.9642 -3.1445
  329MOL0     H44349   5.648   2.077   8.750 -2.7289 -1.9851 -0.0315
  329MOL0     H44350   5.300   1.925   8.851  1.5463  0.9476  4.0789
  329MOL0     H44351   5.389   2.071   8.886  1.7612 -0.4992 -1.3462
  329MOL0     H44352   5.144   2.029   8.742  0.1745 -0.8145  0.8507
  329MOL0     H44353   5.252   2.179   8.698  2.6814 -2.0600 -1.7511
  329MOL0     H44354   5.166   2.086   8.977  3.3015 -0.7642 -0.4107
  329MOL0     H44355   5.065   2.182   8.870 -0.0095 -0.6394  1.1429
  329MOL0     H44356   5.338   2.271   8.984  0.0001  0.5155  1.0525
  329MOL0     H44357   5.237   2.365   8.869 -0.0495  2.1040  1.7513
  329MOL0     H44358   5.061   2.399   9.021  1.3522  2.7152  1.5883
  329MOL0     H44359   5.102   2.253   9.115  0.4415 -2.0834 -2.6064
  329MOL0     H44360   5.300   2.375   9.216 -3.1230 -2.6874  3.7679
  329MOL0     H44361   5.264   2.510   9.107 -3.1743  0.9689 -2.6222
  329MOL0     H44362   5.107   2.401   9.364 -1.0717  2.0829  1.9335
  329MOL0     H44363   5.043   2.513   9.250 -2.5214 -3.6152  0.7335
  329MOL0     H44364   5.336   2.537   9.348 -1.1141 -5.0650 -2.8018
  329MOL0     H44365   5.224   2.672   9.343  0.9174  0.9739  3.6791
  329MOL0     H44366   5.084   2.759   9.514  2.5699 -0.0070 -2.2489
  329MOL0     H44367   5.038   2.749   9.870 -1.8768  0.7037  0.4907
  329MOL0     H44368   4.951   2.815   9.733  1.3895 -0.5946 -3.0012
  329MOL0     H44369   4.872   2.554   9.875 -1.4674  0.2551 -0.3567
  329MOL0     H44370   4.816   2.721   9.929  0.5313  1.0676 -0.0055
  329MOL0     H44371   4.674   2.747   9.754 -0.2580 -0.2344  0.4393
  329MOL0     H44372   4.635   2.596   9.813  0.6139 -0.0666  0.0937
  329MOL0     H44373   4.833   2.622   9.575 -0.5160  1.4761  1.2459
  329MOL0     H44374   4.666   2.616   9.549  1.2570 -0.6000 -0.9975
  329MOL0     H44375   4.747   2.516   9.371  0.3611  0.2990  3.4584
  329MOL0     H44376   4.777   2.363   9.179 -1.8038 -0.6547  0.0384
  329MOL0     H44377   4.575   1.763   9.113 -1.2386  0.0231 -1.6550
  329MOL0     H44378   4.617   1.617   8.934  0.3708  0.5189 -0.9478
  329MOL0     H44379   4.965   1.733   8.682 -0.4852  0.3754 -0.7960
  329MOL0     H44380   4.989   1.562   8.702  0.4207 -0.4638  1.4887
  329MOL0     H44381   4.755   1.680   8.548  0.6207 -0.0584 -0.5461
  329MOL0     H44382   4.905   1.700   8.460 -0.0583  3.2280  0.9121
  329MOL0     H44383   4.844   1.427   8.574  0.9429  1.3434  0.0376
  329MOL0     H44384   4.737   1.490   8.455 -0.2823 -1.3858  0.9598
  329MOL0     H44385   5.017   1.500   8.380 -1.9782  1.4708  0.5685
  329MOL0     H44386   4.867   1.482   8.279  0.1612  5.7658  1.3168
  329MOL0     H44387   4.980   1.257   8.456 -0.9770  1.3287  0.2670
  329MOL0     H44388   5.016   1.267   8.285  0.5998  0.4279  0.0276
  329MOL0     H44389   4.740   1.256   8.418 -0.5362  1.0106  0.1405
  329MOL0     H44390   4.761   1.282   8.248 -0.7410  0.2260 -0.0817
  329MOL0     H44391   4.866   1.052   8.226  1.0425  0.4836 -0.4002
  329MOL0     H44392   4.711   1.039   8.293  0.3551 -1.4849  0.8803
  329MOL0     H44393   4.960   1.048   8.468 -2.2844  2.0919  3.0019
  329MOL0     H44394   4.806   1.012   8.525 -0.5716 -1.9200  0.5707
  329MOL0     H44395   4.999   1.803   8.873 -1.4645  3.3354 -1.6244
  329MOL0     H44396   4.973   1.909   9.079 -0.9395 -1.0869  1.3232
  329MOL0     H44397   4.774   2.026   9.444  0.7113 -0.0806 -3.0706
  329MOL0     H44398   4.735   2.192   9.632 -0.5028  0.1087 -1.1703
  329MOL0     H44399   5.328   2.125   8.469  1.2857 -1.1858 -2.9901
  329MOL0     H44400   5.446   2.317   8.367  2.7166  0.4050 -1.7214
  329MOL0     H44401   5.866   2.576   8.558 -1.9754 -0.1362 -0.9605
  329MOL0     H44402   5.981   2.780   8.578  1.0300  0.5836 -0.1275
  329MOL0     H44403   6.116   2.965   8.553  0.6317  0.5744  0.0810
  329MOL0     H44404   6.130   3.094   8.435  0.1802  0.5642  1.1884
  329MOL0     H44405   6.192   2.953   8.241  0.1601 -1.9553 -0.7677
  329MOL0     H44406   6.198   2.809   8.348  0.3661  0.0677  3.1833
  329MOL0     H44407   6.371   2.978   8.482  1.0402  2.3935 -1.4899
  329MOL0     H44408   6.358   3.075   8.339 -0.1852  1.7032  0.5195
  329MOL0     H44409   6.414   2.868   8.205  0.1111 -0.0308 -0.4296
  329MOL0     H44410   6.539   2.957   8.283  0.4714 -1.5057 -0.9455
  329MOL0     H44411   6.548   2.589   8.506 -0.9859 -0.2731  0.7380
  329MOL0     H44412   5.817   2.934   8.225 -1.8601 -1.0680  0.1029
  329MOL0     H44413   5.683   2.805   8.076  0.4775  0.3945  0.1507
  329MOL0     H44414   5.675   2.625   8.080 -0.2990 -0.1979 -0.1230
  329MOL0     H44415   5.568   2.727   8.177  0.0669 -1.1958 -1.3344
  330MOL0     O44416   8.674   0.033   9.241  0.2055  0.2833 -1.0552
  330MOL0     C44417   8.683   0.142   9.307 -0.5692  0.1123  0.0877
  330MOL0     O44418   8.586   0.236   9.335 -0.1509 -0.0277 -0.1405
  330MOL0     C44419   8.458   0.202   9.310 -0.4387  0.3262 -0.1245
  330MOL0     C44420   8.377   0.218   9.425  0.4607  0.3488 -1.5805
  330MOL0     C44421   8.235   0.196   9.411 -0.0405 -0.5664 -0.7903
  330MOL0     C44422   8.186   0.158   9.285  0.0363 -0.7869 -0.2539
  330MOL0     O44423   8.054   0.162   9.256  0.9111 -0.0264 -0.7542
  330MOL0     C44424   7.985   0.285   9.298 -0.1241  0.3212 -0.9587
  330MOL0     C44425   7.862   0.302   9.210 -0.2876 -0.3327  0.3477
  330MOL0     C44426   7.884   0.301   9.059 -0.0967 -0.1396  0.5323
  330MOL0     C44427   7.749   0.290   8.987 -1.0256 -0.6760 -0.2866
  330MOL0     C44428   7.750   0.234   8.850  0.6201 -0.4046  0.0285
  330MOL0     C44429   7.792   0.098   8.829 -0.2499 -0.7016  0.5043
  330MOL0     C44430   7.697   0.002   8.899  0.3459 -0.1380 -0.1167
  330MOL0     C44431   7.727  -0.138   8.889 -1.3003  0.2368  0.2945
  330MOL0     N44432   7.863  -0.180   8.933  0.2729 -0.0969  0.8214
  330MOL0     C44433   7.912  -0.182   9.057 -0.5360 -0.0706  0.5147
  330MOL0     C44434   8.038  -0.229   9.043  0.3714  0.1714 -0.1086
  330MOL0     C44435   8.137  -0.262   9.158  0.1007  0.0358  0.3677
  330MOL0     C44436   8.282  -0.305   9.113  0.2836  0.5064  0.4544
  330MOL0     C44437   8.381  -0.316   9.230  0.1059 -0.2288 -0.0819
  330MOL0     C44438   8.414  -0.459   9.279  0.0627 -0.2413 -0.1618
  330MOL0     O44439   8.496  -0.432   9.389 -0.0213 -0.8763 -0.8416
  330MOL0     C44440   8.551  -0.542   9.453  0.5650  0.4959 -0.4075
  330MOL0     C44441   8.589  -0.528   9.584 -1.3767 -0.0568  0.1324
  330MOL0     C44442   8.652  -0.623   9.665  0.2327  0.2318 -0.1493
  330MOL0     C44443   8.680  -0.750   9.605 -0.5457 -0.4527 -0.4832
  330MOL0     C44444   8.737  -0.855   9.685  0.3718 -0.0580  0.4571
  330MOL0     O44445   8.805  -0.952   9.612 -0.0196 -0.4073  0.2662
  330MOL0     C44446   8.900  -1.019   9.684 -0.1342  0.4811  0.1763
  330MOL0     C44447   9.034  -1.009   9.660 -0.3476 -0.4582  0.5767
  330MOL0     C44448   9.125  -1.051   9.760 -0.8258 -0.4048  0.3091
  330MOL0     C44449   9.078  -1.119   9.869 -0.8319 -0.2470 -0.8623
  330MOL0     O44450   9.153  -1.170   9.973  0.0377  0.1339 -0.4450
  330MOL0     C44451   9.289  -1.194   9.955 -0.2972 -0.2814  0.0028
  330MOL0     C44452   9.336  -1.284  10.063 -0.5952  0.2158 -0.3488
  330MOL0     C44453   9.331  -1.212  10.196  0.9290  0.1437  0.2089
  330MOL0     C44454   9.331  -1.300  10.326  0.1135 -0.0990  0.2300
  330MOL0     C44455   9.195  -1.364  10.365  0.1119  0.4469  0.1318
  330MOL0     C44456   9.076  -1.278  10.410  0.6750 -0.6945  0.2401
  330MOL0     C44457   8.944  -1.362  10.406  0.0329 -0.2971 -0.6400
  330MOL0     C44458   8.828  -1.283  10.450  0.2803  0.5432 -0.5017
  330MOL0    Cl44459   8.783  -1.161  10.336  0.1386 -0.3278  0.9231
  330MOL0     C44460   8.944  -1.145   9.876  1.1148 -0.8692 -0.1013
  330MOL0     C44461   8.854  -1.102   9.783  0.6000 -0.4534  0.6330
  330MOL0     O44462   8.740  -0.841   9.813 -0.0677  0.6614  0.0062
  330MOL0     C44463   8.656  -0.766   9.463 -0.5493  0.0631 -0.6786
  330MOL0     C44464   8.586  -0.661   9.393  0.7390 -0.2663  0.3217
  330MOL0     N44465   8.059  -0.259   8.910  0.0678 -0.4930  0.4164
  330MOL0     N44466   7.959  -0.228   8.848  0.1429 -0.1216  1.0890
  330MOL0     C44467   8.273   0.134   9.179  0.0365 -0.4603  0.7882
  330MOL0     C44468   8.408   0.144   9.199  0.0333 -0.5896  1.0060
  330MOL0     C44469   8.823   0.164   9.364  0.1349 -0.9322  1.3052
  330MOL0     C44470   8.900   0.047   9.394 -0.3216 -0.0895 -0.2993
  330MOL0     C44471   9.025   0.072   9.456  0.6703  0.2488  0.7181
  330MOL0     C44472   9.062   0.200   9.502 -0.1777  0.2750  0.4249
  330MOL0     O44473   9.185   0.234   9.553  0.0735 -0.5695  0.3983
  330MOL0     C44474   9.276   0.127   9.557 -0.4779  0.9252  0.4759
  330MOL0     C44475   9.417   0.172   9.611  0.9428 -0.4587  0.1231
  330MOL0     C44476   9.397   0.237   9.747 -0.8333  0.8166  1.0929
  330MOL0     C44477   9.533   0.248   9.810  0.6003  0.3795  0.1697
  330MOL0     C44478   9.617   0.348   9.737  0.0072 -0.5096  0.3486
  330MOL0     C44479   9.686   0.413   9.655 -0.4101 -0.2214  0.2504
  330MOL0     C44480   8.979   0.310   9.474  0.1182  0.1206  1.1037
  330MOL0     C44481   8.862   0.294   9.398 -0.0555 -0.0763 -0.7171
  330MOL0     C44482   8.798   0.418   9.358 -0.0853  0.4017  0.4708
  330MOL0     H44483   8.400   0.241   9.529 -3.2385 -1.6892 -0.1077
  330MOL0     H44484   8.162   0.224   9.487 -0.4604  1.2305 -1.8084
  330MOL0     H44485   7.947   0.296   9.400 -2.3148 -2.1167 -1.4078
  330MOL0     H44486   8.054   0.368   9.279  0.5803 -0.1832 -0.6658
  330MOL0     H44487   7.814   0.396   9.236  0.7485  0.1439  0.5500
  330MOL0     H44488   7.797   0.214   9.222  0.0035 -0.4457  1.1181
  330MOL0     H44489   7.945   0.213   9.038 -0.5664  0.1854 -2.7677
  330MOL0     H44490   7.945   0.389   9.032 -0.1113 -0.4865 -0.7035
  330MOL0     H44491   7.670   0.243   9.047 -0.4694 -0.6953  0.4405
  330MOL0     H44492   7.714   0.394   8.977  1.2710  0.1848  0.0969
  330MOL0     H44493   7.648   0.265   8.824  0.2659 -0.3273  1.4346
  330MOL0     H44494   7.815   0.296   8.787  5.1794 -0.6542  3.8984
  330MOL0     H44495   7.805   0.072   8.724 -0.8140 -0.3896  0.3544
  330MOL0     H44496   7.892   0.089   8.873 -0.2780 -1.1197  0.4854
  330MOL0     H44497   7.593   0.015   8.865 -0.1316  0.1706  1.3777
  330MOL0     H44498   7.686   0.021   9.006 -1.6645 -1.0268 -0.1101
  330MOL0     H44499   7.660  -0.209   8.939  0.3114 -1.0322  0.7480
  330MOL0     H44500   7.724  -0.157   8.782  0.8682 -2.2634  0.5753
  330MOL0     H44501   7.861  -0.137   9.141 -0.3409  1.4396 -0.1254
  330MOL0     H44502   8.146  -0.167   9.211  0.7170  1.5781 -2.3109
  330MOL0     H44503   8.077  -0.333   9.216 -0.2483  1.4865  1.8586
  330MOL0     H44504   8.285  -0.404   9.067 -4.8967 -0.0678  0.7618
  330MOL0     H44505   8.317  -0.235   9.037  1.4933  2.1294  2.4035
  330MOL0     H44506   8.355  -0.251   9.314  0.4199  0.5671 -0.5922
  330MOL0     H44507   8.472  -0.278   9.183 -1.4529  3.3458 -0.5261
  330MOL0     H44508   8.473  -0.517   9.208  4.3410 -0.2383  3.0069
  330MOL0     H44509   8.319  -0.511   9.298 -0.2302  0.5141  0.4909
  330MOL0     H44510   8.575  -0.432   9.634 -0.5516  0.7708 -1.1392
  330MOL0     H44511   8.681  -0.607   9.768  2.8433 -0.5778 -0.6849
  330MOL0     H44512   9.055  -0.951   9.570  1.0901  0.0993  1.2438
  330MOL0     H44513   9.232  -1.036   9.745 -0.8650 -0.7092 -0.2993
  330MOL0     H44514   9.310  -1.239   9.858  0.0226  0.1283 -0.1157
  330MOL0     H44515   9.342  -1.100   9.969  1.1477 -0.4541 -3.3943
  330MOL0     H44516   9.284  -1.380  10.061 -1.1449  0.4244  1.6278
  330MOL0     H44517   9.442  -1.314  10.057 -0.1192 -0.4571  5.3317
  330MOL0     H44518   9.421  -1.150  10.209  2.4824 -1.8028 -0.6500
  330MOL0     H44519   9.237  -1.157  10.200  0.1496 -1.1938  1.5002
  330MOL0     H44520   9.374  -1.244  10.410  0.0884 -0.4258  0.4606
  330MOL0     H44521   9.404  -1.379  10.305  0.5764  1.2023 -4.1234
  330MOL0     H44522   9.206  -1.437  10.446 -3.3195  1.3659  1.6127
  330MOL0     H44523   9.157  -1.416  10.277 -0.0888 -1.7250  1.4185
  330MOL0     H44524   9.098  -1.227  10.505 -1.8538  3.4732 -1.1152
  330MOL0     H44525   9.076  -1.193  10.341  0.3682  0.0860  1.1810
  330MOL0     H44526   8.947  -1.441  10.481 -0.5463  1.8890  1.8212
  330MOL0     H44527   8.920  -1.414  10.313 -2.3617 -0.3099 -0.0636
  330MOL0     H44528   8.751  -1.360  10.462 -0.6677  1.6254  0.6894
  330MOL0     H44529   8.845  -1.236  10.547 -3.3382 -1.2341  1.2087
  330MOL0     H44530   8.910  -1.202   9.962  1.1286 -2.7368 -1.2883
  330MOL0     H44531   8.747  -1.112   9.791  0.7210 -0.4303  2.9114
  330MOL0     H44532   8.683  -0.860   9.416  3.2615  1.2581 -1.2704
  330MOL0     H44533   8.548  -0.671   9.291 -2.3269 -0.0279  1.3385
  330MOL0     H44534   8.225   0.116   9.083 -2.0053  1.3987  1.3873
  330MOL0     H44535   8.476   0.117   9.119  0.8239  0.1924  1.3950
  330MOL0     H44536   8.880  -0.058   9.378  0.7382 -0.5306  1.0197
  330MOL0     H44537   9.088  -0.015   9.470  0.8353  0.5457  1.9350
  330MOL0     H44538   9.282   0.087   9.456 -3.2007 -0.3693  0.7229
  330MOL0     H44539   9.241   0.049   9.625  3.7833 -0.0048  1.8531
  330MOL0     H44540   9.460   0.251   9.548  0.1630 -0.2242 -0.1293
  330MOL0     H44541   9.491   0.092   9.608  1.6857  0.2420 -1.5848
  330MOL0     H44542   9.338   0.168   9.807  1.2030  0.1242  2.4197
  330MOL0     H44543   9.336   0.327   9.739 -4.3349 -1.5418 -1.8191
  330MOL0     H44544   9.516   0.280   9.913  0.8122  1.2983 -0.0748
  330MOL0     H44545   9.576   0.149   9.823  0.1039  0.1180 -0.1443
  330MOL0     H44546   9.756   0.457   9.587  1.3385 -0.2011  1.9889
  330MOL0     H44547   9.005   0.411   9.505  2.9715  0.0794 -0.7895
  330MOL0     H44548   8.750   0.476   9.437 -2.1397 -0.1806 -0.2933
  330MOL0     H44549   8.884   0.475   9.322  0.5649  0.5361  2.1625
  330MOL0     H44550   8.730   0.398   9.274  2.3375 -0.0712 -1.5346
  331MOL0     O44551   1.118   8.224   7.970  0.3596 -0.3475 -0.5907
  331MOL0     C44552   1.143   8.283   8.076 -0.2184 -0.0184  0.1071
  331MOL0     O44553   1.210   8.399   8.089  0.3776 -0.1501 -0.4722
  331MOL0     C44554   1.247   8.462   7.967  0.2545 -0.2605 -0.1195
  331MOL0     C44555   1.342   8.415   7.888 -0.1568 -0.0055  0.2083
  331MOL0     C44556   1.363   8.456   7.748  0.1467  0.5814 -0.8194
  331MOL0     C44557   1.284   8.562   7.706  0.0844  0.5507  0.0061
  331MOL0     O44558   1.319   8.621   7.582  0.0105  0.3424 -0.6792
  331MOL0     C44559   1.226   8.719   7.527 -0.2455  0.9622 -0.3342
  331MOL0     C44560   1.287   8.756   7.393  0.7031  0.4141 -0.0660
  331MOL0     C44561   1.193   8.836   7.310  0.3357  0.1304  0.2118
  331MOL0     C44562   1.152   8.983   7.362  0.5025 -0.1421  0.3666
  331MOL0     C44563   1.063   9.076   7.269  0.9369  0.7503 -0.3000
  331MOL0     C44564   1.149   9.112   7.146  0.5691  0.5052 -0.0241
  331MOL0     C44565   1.053   9.175   7.043 -0.2474  0.2997 -0.5652
  331MOL0     C44566   1.135   9.273   6.948 -0.3181  0.8362  0.1166
  331MOL0     N44567   1.048   9.361   6.866 -0.5758 -0.3162  0.6244
  331MOL0     C44568   1.048   9.496   6.873  0.1744 -0.0436  0.2269
  331MOL0     C44569   0.959   9.536   6.773 -0.3140  0.3248 -0.0835
  331MOL0     C44570   0.955   9.674   6.740  0.4149 -1.3776  0.1779
  331MOL0     C44571   0.814   9.729   6.769  1.1582  0.2183 -0.2080
  331MOL0     C44572   0.789   9.878   6.738  0.3899  0.9394  0.0303
  331MOL0     C44573   0.863   9.925   6.599 -0.1427  0.1578 -0.4597
  331MOL0     O44574   0.808  10.059   6.573 -0.0689 -1.4027 -0.0760
  331MOL0     C44575   0.857  10.111   6.457 -0.7651 -0.5619 -0.0640
  331MOL0     C44576   0.830  10.247   6.432 -0.5516 -0.0625  0.1625
  331MOL0     C44577   0.893  10.315   6.326  0.1375  0.1541 -0.1268
  331MOL0     C44578   0.955  10.250   6.221  0.1704 -0.6465 -0.9635
  331MOL0     C44579   1.008  10.330   6.102 -0.1841  0.6960  0.5848
  331MOL0     O44580   1.091  10.264   6.009 -0.2137 -0.3132  0.0534
  331MOL0     C44581   1.153  10.316   5.900 -0.3242 -0.0768 -0.7441
  331MOL0     C44582   1.198  10.450   5.889  0.5027 -0.7905  0.8138
  331MOL0     C44583   1.284  10.494   5.790  0.8150 -0.3655  0.1010
  331MOL0     C44584   1.333  10.406   5.694 -0.4133 -0.5230 -1.4506
  331MOL0     O44585   1.406  10.457   5.589  0.4364 -0.2620 -1.2686
  331MOL0     C44586   1.499  10.376   5.516  1.2780 -0.9772  0.2764
  331MOL0     C44587   1.582  10.473   5.434 -0.1640 -0.5053  0.8068
  331MOL0     C44588   1.713  10.412   5.373  0.2128  0.0699  0.0081
  331MOL0     C44589   1.708  10.296   5.280 -0.1912  0.6808  0.7630
  331MOL0     C44590   1.847  10.262   5.223  0.8209  0.3042 -0.2451
  331MOL0     C44591   1.833  10.161   5.113  0.5562 -0.2459 -0.3421
  331MOL0     C44592   1.801  10.231   4.978  0.8336 -0.3948 -0.5231
  331MOL0     C44593   1.936  10.281   4.920 -0.8605 -0.0737  0.3691
  331MOL0    Cl44594   1.948  10.304   4.747  0.0156 -0.6227 -0.2907
  331MOL0     C44595   1.306  10.274   5.703 -0.3652  0.1083 -0.7052
  331MOL0     C44596   1.216  10.229   5.802 -0.1970 -0.9595  0.6272
  331MOL0     O44597   0.980  10.448   6.091  0.0814  0.2357 -0.1908
  331MOL0     C44598   0.980  10.107   6.240 -1.0717  0.2104 -0.5513
  331MOL0     C44599   0.936  10.044   6.359 -0.2802  0.7429  0.1370
  331MOL0     N44600   0.902   9.425   6.716  0.4824 -1.3503  0.6648
  331MOL0     N44601   0.958   9.317   6.764  0.6450 -0.6420 -0.2617
  331MOL0     C44602   1.205   8.625   7.795  0.2814  0.0028  0.0248
  331MOL0     C44603   1.175   8.580   7.925 -0.0816 -0.2443 -0.0245
  331MOL0     C44604   1.095   8.218   8.202  0.2481  0.3206 -0.0089
  331MOL0     C44605   0.992   8.125   8.197  0.6581 -0.3436  0.5497
  331MOL0     C44606   0.946   8.069   8.318 -0.7679  0.2935  0.3772
  331MOL0     C44607   0.985   8.111   8.443  0.3448  0.5287 -0.7974
  331MOL0     O44608   0.943   8.059   8.558 -0.1613 -0.4015 -0.7313
  331MOL0     C44609   0.865   7.939   8.565  0.6740 -0.1590  0.2557
  331MOL0     C44610   0.818   7.907   8.704 -0.0782  0.2297 -0.7078
  331MOL0     C44611   0.731   7.789   8.717  0.3295  0.9947 -0.1870
  331MOL0     C44612   0.739   7.738   8.861  0.3908 -0.7375 -0.8098
  331MOL0     C44613   0.687   7.844   8.950  0.1336  1.1137  0.1878
  331MOL0     C44614   0.622   7.910   9.032 -0.5751  0.3606 -0.3476
  331MOL0     C44615   1.089   8.196   8.440 -0.2915 -0.5490 -0.7559
  331MOL0     C44616   1.156   8.251   8.327  0.8089 -0.0415 -0.1647
  331MOL0     C44617   1.280   8.345   8.352  0.2568  0.8491  0.4155
  331MOL0     H44618   1.413   8.344   7.931  0.6180  0.8465  0.3754
  331MOL0     H44619   1.442   8.424   7.680  2.3612 -1.2542  2.3692
  331MOL0     H44620   1.120   8.694   7.533 -1.1366  4.4683  1.4702
  331MOL0     H44621   1.233   8.809   7.590 -1.2440  0.3648  0.6679
  331MOL0     H44622   1.295   8.662   7.336 -2.8015 -0.4901  0.6872
  331MOL0     H44623   1.383   8.808   7.402 -0.2098  2.0699  0.5427
  331MOL0     H44624   1.100   8.780   7.297  0.3941 -0.3232  1.5666
  331MOL0     H44625   1.238   8.838   7.211  1.0889 -0.1307  0.5398
  331MOL0     H44626   1.082   8.968   7.444  0.2129  4.8771  1.3755
  331MOL0     H44627   1.240   9.037   7.397 -0.7691 -0.0741  3.7967
  331MOL0     H44628   0.964   9.037   7.244 -0.7894  1.8728  3.9805
  331MOL0     H44629   1.038   9.169   7.320 -1.2793 -0.0713  0.2116
  331MOL0     H44630   1.218   9.192   7.173  0.1422  0.4418  1.3396
  331MOL0     H44631   1.202   9.030   7.097  0.1535 -0.4441  1.0619
  331MOL0     H44632   0.985   9.239   7.100  0.0309 -0.4793  0.6798
  331MOL0     H44633   0.987   9.103   6.992 -0.1654 -1.4034  1.6031
  331MOL0     H44634   1.210   9.327   7.008  0.9207 -0.0786 -0.5538
  331MOL0     H44635   1.197   9.214   6.880 -0.0816 -1.7716  2.4370
  331MOL0     H44636   1.125   9.553   6.923  1.3727 -0.9165 -0.5635
  331MOL0     H44637   1.014   9.751   6.789 -0.2210  0.1487 -1.3611
  331MOL0     H44638   0.984   9.676   6.634 -0.0808  3.3659 -0.0714
  331MOL0     H44639   0.749   9.682   6.695 -1.1659  0.8060  1.3435
  331MOL0     H44640   0.764   9.703   6.863 -1.8110  1.2132 -1.3968
  331MOL0     H44641   0.816   9.938   6.825  2.2229 -0.4751  0.4836
  331MOL0     H44642   0.682   9.889   6.715  0.8572  0.8970 -2.4859
  331MOL0     H44643   0.843   9.845   6.528  1.3771 -1.8089  1.2140
  331MOL0     H44644   0.971   9.927   6.614 -0.3054 -0.0283  0.9332
  331MOL0     H44645   0.759  10.293   6.500  2.1142 -3.0134  5.5075
  331MOL0     H44646   0.873  10.422   6.322  1.9590  0.4782 -1.9968
  331MOL0     H44647   1.175  10.525   5.963  0.6689 -0.0270  0.1002
  331MOL0     H44648   1.307  10.600   5.781  2.7682 -0.6231  1.3440
  331MOL0     H44649   1.562  10.318   5.585  1.1476 -0.4351  0.8634
  331MOL0     H44650   1.446  10.302   5.456 -0.4662 -2.9943  3.9783
  331MOL0     H44651   1.523  10.511   5.351  1.5120  0.3640 -0.0436
  331MOL0     H44652   1.603  10.554   5.505  0.6918 -0.0474  0.0491
  331MOL0     H44653   1.750  10.501   5.323 -0.6579  0.0434 -0.6917
  331MOL0     H44654   1.785  10.391   5.453  1.2316  1.7732 -0.4309
  331MOL0     H44655   1.645  10.318   5.194  1.5555  0.7496 -0.5466
  331MOL0     H44656   1.664  10.212   5.335 -0.5328  1.5353  1.8294
  331MOL0     H44657   1.906  10.236   5.312 -0.2744  1.8352  0.9951
  331MOL0     H44658   1.878  10.358   5.179  0.5694  0.3438 -0.3313
  331MOL0     H44659   1.932  10.117   5.099  0.3621 -0.9496  0.4045
  331MOL0     H44660   1.749  10.097   5.140  0.5520  0.4129  1.3136
  331MOL0     H44661   1.723  10.307   4.984 -0.4693 -1.4036 -3.0936
  331MOL0     H44662   1.754  10.163   4.906  1.3330  1.4421 -2.6957
  331MOL0     H44663   1.951  10.384   4.956 -5.6999  1.2731 -0.7164
  331MOL0     H44664   2.019  10.213   4.944 -2.0650 -1.4671  0.7568
  331MOL0     H44665   1.348  10.204   5.631  0.7515  0.0923 -0.0642
  331MOL0     H44666   1.230  10.123   5.823  1.8702 -0.5872  1.3617
  331MOL0     H44667   1.051  10.066   6.168 -0.7419  0.9451 -0.6592
  331MOL0     H44668   0.956   9.938   6.362  1.1017  0.9868  0.6994
  331MOL0     H44669   1.152   8.715   7.762  0.9738  0.5260  0.3156
  331MOL0     H44670   1.098   8.627   7.985 -0.9297  3.0776 -3.3480
  331MOL0     H44671   0.943   8.092   8.106  1.2242 -2.1682  0.8660
  331MOL0     H44672   0.858   8.009   8.300 -1.1025  1.4374 -2.2327
  331MOL0     H44673   0.927   7.854   8.534  0.5077  0.0928 -0.8351
  331MOL0     H44674   0.784   7.941   8.491 -2.1149 -1.3846  3.0608
  331MOL0     H44675   0.767   7.993   8.750 -1.7156 -0.2454 -1.5710
  331MOL0     H44676   0.907   7.884   8.763 -0.9015  1.2883  1.0620
  331MOL0     H44677   0.760   7.714   8.642 -0.1788 -0.7407  1.2827
  331MOL0     H44678   0.628   7.818   8.695 -1.0516 -1.8700  1.9069
  331MOL0     H44679   0.684   7.646   8.884  2.7063 -2.1697 -0.6189
  331MOL0     H44680   0.841   7.717   8.897  0.9228  1.5620 -0.8321
  331MOL0     H44681   0.582   7.961   9.117  3.6210 -1.1715  2.9055
  331MOL0     H44682   1.125   8.243   8.530 -1.8107  4.2713 -2.3829
  331MOL0     H44683   1.251   8.449   8.368 -1.0362  0.4855  0.5564
  331MOL0     H44684   1.317   8.316   8.451 -1.3797  0.6400  1.0033
  331MOL0     H44685   1.359   8.328   8.279 -1.8161  0.8977 -1.9667
  332MOL0     O44686   9.338   5.591   9.906 -0.1186 -0.2522 -0.1984
  332MOL0     C44687   9.274   5.494   9.938 -1.0435 -0.1812 -0.2910
  332MOL0     O44688   9.230   5.473  10.066 -0.0654 -0.2871  0.4019
  332MOL0     C44689   9.230   5.569  10.167  0.9473  0.4338 -0.8895
  332MOL0     C44690   9.173   5.692  10.151 -0.8000 -0.7089  0.1980
  332MOL0     C44691   9.169   5.782  10.260 -0.4326 -0.1710  1.4976
  332MOL0     C44692   9.204   5.739  10.392  0.4501  0.3046  0.2381
  332MOL0     O44693   9.186   5.828  10.500 -0.9883 -0.3987  0.5159
  332MOL0     C44694   9.309   5.871  10.550  0.4874  0.1729 -0.7279
  332MOL0     C44695   9.318   5.844  10.701 -0.7095 -0.4380  0.0228
  332MOL0     C44696   9.466   5.845  10.743 -0.1699  0.1915 -0.0818
  332MOL0     C44697   9.490   5.782  10.884  0.9259 -0.7620 -0.6708
  332MOL0     C44698   9.637   5.815  10.918 -0.8126  0.4926  0.3125
  332MOL0     C44699   9.660   5.955  10.971  0.1759 -0.0868 -0.9053
  332MOL0     C44700   9.806   5.975  11.020 -0.2893  0.2629 -0.7403
  332MOL0     C44701   9.836   6.068  11.131  0.0591 -0.5642  0.5742
  332MOL0     N44702   9.776   6.203  11.122  0.5412 -0.6688 -0.3195
  332MOL0     C44703   9.812   6.296  11.027  0.4605 -0.1635  0.3101
  332MOL0     C44704   9.759   6.418  11.061  1.0704  0.6611  0.0116
  332MOL0     C44705   9.768   6.553  10.993  1.0897  0.5924  0.2797
  332MOL0     C44706   9.897   6.623  11.051  0.0050 -0.3819 -0.3227
  332MOL0     C44707  10.028   6.583  10.982  0.3014  0.6179 -0.3918
  332MOL0     C44708  10.141   6.536  11.084 -0.6435 -0.2874 -0.1387
  332MOL0     O44709  10.194   6.660  11.137 -0.0887 -0.0209 -0.0245
  332MOL0     C44710  10.318   6.658  11.212 -0.1521 -0.3364 -0.4157
  332MOL0     C44711  10.372   6.544  11.264  0.1053  1.2952  0.3424
  332MOL0     C44712  10.500   6.545  11.320  0.0529 -0.1273 -0.5565
  332MOL0     C44713  10.568   6.670  11.342  0.5247  0.3505 -0.2922
  332MOL0     C44714  10.702   6.672  11.422  0.0848 -0.6168 -0.1163
  332MOL0     O44715  10.758   6.806  11.428 -0.0636 -0.4989 -0.4260
  332MOL0     C44716  10.856   6.829  11.517 -0.8851  0.6457 -0.6447
  332MOL0     C44717  10.843   6.932  11.597  0.6934 -0.4152  0.1450
  332MOL0     C44718  10.931   6.961  11.701 -1.1325  0.2647 -0.2332
  332MOL0     C44719  11.047   6.891  11.719 -0.1359 -0.5008  0.4158
  332MOL0     O44720  11.140   6.912  11.817 -0.4168 -0.8413 -0.1515
  332MOL0     C44721  11.202   7.038  11.795 -0.2074  0.5007  0.7643
  332MOL0     C44722  11.343   7.028  11.856  0.3124 -0.1603 -0.4417
  332MOL0     C44723  11.354   6.987  11.998  0.0239  0.5445 -0.1523
  332MOL0     C44724  11.413   6.853  12.012 -0.2294 -0.2743  0.2055
  332MOL0     C44725  11.414   6.800  12.153  0.2840  0.0825  0.2730
  332MOL0     C44726  11.433   6.647  12.149 -0.6787 -0.4108 -0.2373
  332MOL0     C44727  11.575   6.610  12.106 -0.0588  0.5204  0.5184
  332MOL0     C44728  11.607   6.470  12.161 -0.4098  0.5422 -0.8908
  332MOL0    Cl44729  11.761   6.405  12.118  0.2277 -0.4338 -0.1477
  332MOL0     C44730  11.071   6.793  11.617 -1.0791  0.4550  0.1116
  332MOL0     C44731  10.980   6.763  11.523  0.0451 -0.8700 -0.1155
  332MOL0     O44732  10.769   6.565  11.451 -0.2006  0.6341 -0.2195
  332MOL0     C44733  10.514   6.786  11.283  1.2808 -0.7178 -0.3597
  332MOL0     C44734  10.390   6.775  11.217  0.5865 -0.8069  0.1941
  332MOL0     N44735   9.669   6.388  11.169 -0.0098  0.1171  0.3268
  332MOL0     N44736   9.691   6.264  11.206 -0.1040 -0.1133  0.0980
  332MOL0     C44737   9.239   5.604  10.411 -0.5421 -1.0716 -0.3070
  332MOL0     C44738   9.251   5.518  10.298 -0.3480 -0.2120  0.3992
  332MOL0     C44739   9.233   5.400   9.833  0.2864  0.9556  0.7197
  332MOL0     C44740   9.155   5.288   9.859  0.4372 -0.2485  0.1947
  332MOL0     C44741   9.124   5.190   9.768  0.8097 -0.2950 -0.3824
  332MOL0     C44742   9.150   5.197   9.632  0.0174  0.2655 -0.1124
  332MOL0     O44743   9.100   5.112   9.541 -0.1513  0.6382 -0.3928
  332MOL0     C44744   9.192   5.072   9.437 -0.0891  0.1790 -0.5335
  332MOL0     C44745   9.124   4.962   9.355 -0.1155 -0.7234 -0.1259
  332MOL0     C44746   9.200   4.908   9.229  0.1022  0.1603 -0.1828
  332MOL0     C44747   9.147   4.780   9.160  0.5716  1.0702  0.1826
  332MOL0     C44748   9.000   4.777   9.127 -1.3678 -0.1538 -0.1319
  332MOL0     C44749   8.884   4.753   9.107 -0.1958 -0.2578 -0.4398
  332MOL0     C44750   9.217   5.314   9.596 -0.4646 -0.4091  0.0059
  332MOL0     C44751   9.265   5.413   9.689  1.3451  0.1120 -0.3743
  332MOL0     C44752   9.330   5.540   9.633  0.1721  0.4628 -0.4238
  332MOL0     H44753   9.137   5.729  10.055 -1.9016 -0.1262  0.8274
  332MOL0     H44754   9.115   5.876  10.248 -2.8597 -1.6081  0.5205
  332MOL0     H44755   9.404   5.844  10.503  2.9976  0.4158  3.6670
  332MOL0     H44756   9.299   5.980  10.556  3.3545  0.4324  4.1365
  332MOL0     H44757   9.267   5.748  10.712  0.7819 -1.3931 -1.0079
  332MOL0     H44758   9.270   5.925  10.756  2.7819 -0.7698  4.0745
  332MOL0     H44759   9.489   5.952  10.749 -1.7894  0.5388  0.6231
  332MOL0     H44760   9.535   5.794  10.675 -0.2873  0.9323 -0.7752
  332MOL0     H44761   9.408   5.820  10.947 -0.6431 -2.6134 -1.4893
  332MOL0     H44762   9.481   5.675  10.866  1.0036 -0.2837 -4.1765
  332MOL0     H44763   9.678   5.740  10.986 -0.5217  0.4828  0.1259
  332MOL0     H44764   9.699   5.809  10.828 -2.8466  1.4074 -1.2413
  332MOL0     H44765   9.615   6.035  10.912 -1.7103  1.3800  2.2686
  332MOL0     H44766   9.601   5.960  11.063 -0.7346  0.2876 -1.4893
  332MOL0     H44767   9.875   5.996  10.938 -0.0076  0.2664 -0.5029
  332MOL0     H44768   9.843   5.879  11.055 -0.9965 -0.2957 -1.4934
  332MOL0     H44769   9.806   6.017  11.223 -0.9723  2.1744  1.8855
  332MOL0     H44770   9.945   6.076  11.137  0.0365 -0.6573  1.1532
  332MOL0     H44771   9.876   6.274  10.943  0.1455  2.8736 -0.8368
  332MOL0     H44772   9.770   6.533  10.885 -0.0967  0.3973  0.2755
  332MOL0     H44773   9.673   6.602  11.015  2.1057  1.4953  3.0393
  332MOL0     H44774   9.867   6.727  11.036 -1.0108 -0.6914 -0.5082
  332MOL0     H44775   9.913   6.595  11.156  4.3621  1.9363 -0.1564
  332MOL0     H44776  10.074   6.664  10.924 -0.5235  1.9449  0.7419
  332MOL0     H44777  10.007   6.499  10.916  0.7836  0.2276 -0.0590
  332MOL0     H44778  10.223   6.491  11.029  2.2054  2.4545  1.5281
  332MOL0     H44779  10.096   6.471  11.160  0.4354 -0.6447  0.2154
  332MOL0     H44780  10.330   6.445  11.246  3.9101 -0.1048 -2.0667
  332MOL0     H44781  10.543   6.455  11.363 -2.1400 -0.9006  0.1665
  332MOL0     H44782  10.749   6.986  11.597 -0.1102 -1.7659  0.4587
  332MOL0     H44783  10.910   7.044  11.768 -2.6356 -0.9438  0.8834
  332MOL0     H44784  11.218   7.054  11.688 -3.6237 -2.1800 -0.2912
  332MOL0     H44785  11.138   7.113  11.842 -0.9242 -0.5430  1.4730
  332MOL0     H44786  11.409   6.968  11.792  2.1967  2.7750 -1.4924
  332MOL0     H44787  11.381   7.131  11.851  2.3237 -0.9140 -2.1932
  332MOL0     H44788  11.421   7.051  12.055  0.0082 -1.1089  1.8513
  332MOL0     H44789  11.255   7.001  12.043 -0.1401  2.2459 -0.9825
  332MOL0     H44790  11.517   6.857  11.979 -0.9894  1.5059 -2.2941
  332MOL0     H44791  11.359   6.788  11.943 -2.9397  1.1324  0.8561
  332MOL0     H44792  11.319   6.829  12.198 -0.9016 -1.1244 -1.3182
  332MOL0     H44793  11.486   6.853  12.216  2.7105  1.4559 -3.3118
  332MOL0     H44794  11.421   6.609  12.251  2.5409 -0.9768  0.0610
  332MOL0     H44795  11.350   6.595  12.101 -1.1244 -0.9695  1.0721
  332MOL0     H44796  11.646   6.683  12.146  1.8357 -0.3051 -1.2175
  332MOL0     H44797  11.570   6.605  11.997 -0.3268 -2.3841  0.5761
  332MOL0     H44798  11.598   6.467  12.270 -1.0808 -1.4832 -0.9613
  332MOL0     H44799  11.531   6.407  12.115 -2.2185  0.3526  2.0613
  332MOL0     H44800  11.165   6.740  11.605 -0.2857  1.5049  1.3697
  332MOL0     H44801  11.001   6.689  11.447 -0.6418 -0.4903 -0.6838
  332MOL0     H44802  10.579   6.873  11.271  2.1743 -1.5988 -2.3877
  332MOL0     H44803  10.357   6.858  11.155  2.3723 -2.2693 -2.9456
  332MOL0     H44804   9.268   5.568  10.509 -0.9194  1.5559  0.8405
  332MOL0     H44805   9.288   5.417  10.315  1.5508  0.1530 -1.2365
  332MOL0     H44806   9.142   5.266   9.964  1.3090  0.7972  0.5444
  332MOL0     H44807   9.060   5.114   9.813  0.5432  1.7982  3.1200
  332MOL0     H44808   9.284   5.034   9.484 -0.6166 -0.3764  0.0692
  332MOL0     H44809   9.219   5.153   9.369 -2.0866  0.9461 -0.4743
  332MOL0     H44810   9.026   4.998   9.324 -0.6300 -0.8289  1.3245
  332MOL0     H44811   9.129   4.876   9.423  1.7094 -0.1984  0.4565
  332MOL0     H44812   9.305   4.893   9.256 -0.6947 -2.2058  2.0109
  332MOL0     H44813   9.211   4.983   9.150  2.2910  1.6963  1.4743
  332MOL0     H44814   9.199   4.768   9.064 -0.3904 -0.7826 -0.1392
  332MOL0     H44815   9.167   4.689   9.216  1.6183  1.5823  0.6754
  332MOL0     H44816   8.783   4.739   9.075 -0.6627  1.9455 -0.1397
  332MOL0     H44817   9.237   5.336   9.491 -2.8092 -1.5192 -0.7240
  332MOL0     H44818   9.309   5.535   9.526  0.1922 -2.0755 -0.3777
  332MOL0     H44819   9.280   5.633   9.662 -0.6380  1.5261 -4.5257
  332MOL0     H44820   9.439   5.536   9.635  0.1377 -1.4678  0.6893
  333MOL0     O44821   8.603   6.743   8.246 -0.6790  0.3537  0.3285
  333MOL0     C44822   8.618   6.629   8.206 -0.0902  0.7546  0.6139
  333MOL0     O44823   8.631   6.526   8.287  0.4094 -0.5238  0.3813
  333MOL0     C44824   8.625   6.543   8.427  0.3035 -0.3522  0.0730
  333MOL0     C44825   8.724   6.469   8.502 -0.4346  0.9745 -0.1498
  333MOL0     C44826   8.716   6.472   8.641  0.5042 -0.2185 -0.5439
  333MOL0     C44827   8.612   6.530   8.707 -0.8123 -0.7479 -0.7263
  333MOL0     O44828   8.610   6.537   8.844 -0.2804  0.2984  0.1826
  333MOL0     C44829   8.631   6.415   8.928 -0.0388  0.2180  0.0538
  333MOL0     C44830   8.609   6.444   9.081  0.0252 -0.2250  0.0286
  333MOL0     C44831   8.723   6.534   9.133  0.3378 -0.9064 -0.1589
  333MOL0     C44832   8.845   6.444   9.158 -0.1080  0.3292  0.1743
  333MOL0     C44833   8.958   6.518   9.244 -0.6370 -0.8898 -0.2776
  333MOL0     C44834   9.078   6.422   9.250 -0.2746 -0.0729 -0.7755
  333MOL0     C44835   9.202   6.483   9.331  0.4918 -0.3724  0.0097
  333MOL0     C44836   9.348   6.464   9.288  0.9135 -0.1005  0.1301
  333MOL0     N44837   9.379   6.494   9.143 -0.6350 -0.8450  0.0912
  333MOL0     C44838   9.377   6.612   9.074  1.3798  0.0191 -0.2209
  333MOL0     C44839   9.426   6.599   8.954  0.3437 -0.4527 -0.1238
  333MOL0     C44840   9.422   6.692   8.836 -0.6089  0.0982  1.0006
  333MOL0     C44841   9.556   6.766   8.802 -0.4224  0.6444 -0.8861
  333MOL0     C44842   9.645   6.685   8.714 -0.5283  0.5957 -0.0404
  333MOL0     C44843   9.782   6.744   8.673  0.8678  0.1670 -0.9707
  333MOL0     O44844   9.847   6.653   8.593  0.3486  0.5848  0.5565
  333MOL0     C44845   9.901   6.706   8.479  0.5447 -0.8028  1.1633
  333MOL0     C44846  10.016   6.790   8.478  0.8753 -0.4778  0.7851
  333MOL0     C44847  10.048   6.854   8.357  0.0390  0.3174  1.1562
  333MOL0     C44848   9.985   6.818   8.234 -0.1565  0.2042 -0.2770
  333MOL0     C44849  10.040   6.880   8.113 -0.1163 -0.5447  0.6173
  333MOL0     O44850  10.150   6.961   8.127 -0.2890  0.0882 -0.4426
  333MOL0     C44851  10.190   7.031   8.018 -0.0791  0.0566  0.0512
  333MOL0     C44852  10.113   7.111   7.938  0.7604 -0.1294  0.9118
  333MOL0     C44853  10.161   7.188   7.837  0.0027  0.6616 -1.4483
  333MOL0     C44854  10.300   7.169   7.805 -0.1314 -0.7008  0.3467
  333MOL0     O44855  10.356   7.235   7.700  0.1649  0.1949 -1.4486
  333MOL0     C44856  10.275   7.303   7.617  0.2223 -0.4122  0.6695
  333MOL0     C44857  10.354   7.378   7.510  0.7044 -0.2434 -0.5125
  333MOL0     C44858  10.411   7.505   7.556 -0.4762  0.0017 -0.4247
  333MOL0     C44859  10.464   7.605   7.457 -0.2531  0.5039  0.5666
  333MOL0     C44860  10.535   7.731   7.502 -1.2343  1.0783 -0.4313
  333MOL0     C44861  10.543   7.840   7.401 -0.2291 -0.4446  0.0630
  333MOL0     C44862  10.633   7.961   7.448  0.4628  0.1132  0.4054
  333MOL0     C44863  10.684   8.026   7.323 -0.0980 -0.1040  0.7520
  333MOL0    Cl44864  10.840   7.945   7.275  0.6093 -0.2638  0.4002
  333MOL0     C44865  10.383   7.094   7.884  0.3353  0.4811  0.4074
  333MOL0     C44866  10.327   7.023   7.988  0.8919 -0.3718 -0.5339
  333MOL0     O44867   9.998   6.848   7.997 -0.1045 -0.0199  0.3146
  333MOL0     C44868   9.878   6.730   8.239 -0.1664 -0.1638 -0.3866
  333MOL0     C44869   9.833   6.680   8.361 -0.1646 -0.6352  0.8009
  333MOL0     N44870   9.451   6.464   8.937  0.3633  0.1486 -0.9032
  333MOL0     N44871   9.432   6.405   9.058 -0.0701 -0.6338 -0.3390
  333MOL0     C44872   8.520   6.601   8.635 -0.4462  0.1198 -0.4043
  333MOL0     C44873   8.527   6.607   8.492 -0.1811  0.0701  0.3304
  333MOL0     C44874   8.620   6.595   8.066 -0.5828  0.2163  0.2642
  333MOL0     C44875   8.640   6.463   8.031 -0.3059 -0.8680  0.2140
  333MOL0     C44876   8.633   6.417   7.904 -0.1977  0.2573 -0.2165
  333MOL0     C44877   8.606   6.497   7.795 -0.9883  0.5376 -0.7853
  333MOL0     O44878   8.589   6.444   7.662  0.1000  0.4567 -0.0850
  333MOL0     C44879   8.521   6.512   7.566  0.3554 -0.4193  0.7685
  333MOL0     C44880   8.370   6.542   7.594  0.4052 -0.5431 -0.1669
  333MOL0     C44881   8.310   6.662   7.504 -0.0808 -0.2275 -1.0428
  333MOL0     C44882   8.190   6.730   7.559  0.2559  1.1086 -0.7130
  333MOL0     C44883   8.216   6.814   7.681  0.9174  0.3169  0.5407
  333MOL0     C44884   8.221   6.888   7.776 -0.7927  0.2676  0.2887
  333MOL0     C44885   8.598   6.635   7.822  0.5219 -0.2724  0.8387
  333MOL0     C44886   8.607   6.686   7.952  0.2950 -0.7004 -0.2897
  333MOL0     C44887   8.592   6.833   7.963 -0.0708 -0.6113  1.0825
  333MOL0     H44888   8.813   6.423   8.460  1.4950  2.7069  1.7958
  333MOL0     H44889   8.805   6.440   8.693  0.7847  0.5251 -0.5522
  333MOL0     H44890   8.560   6.340   8.892 -1.2282  1.8073 -1.0450
  333MOL0     H44891   8.736   6.386   8.917  0.2221  1.0626  0.2808
  333MOL0     H44892   8.598   6.353   9.141 -1.5747 -0.3093 -0.3464
  333MOL0     H44893   8.509   6.482   9.102 -0.6758 -1.2812 -1.3165
  333MOL0     H44894   8.687   6.567   9.231 -0.1292  1.5087 -1.1002
  333MOL0     H44895   8.748   6.613   9.062 -2.2359 -0.2758 -0.4510
  333MOL0     H44896   8.812   6.354   9.211  1.8035  0.8103  2.3868
  333MOL0     H44897   8.888   6.419   9.061  1.8772  1.1448  0.7761
  333MOL0     H44898   8.998   6.599   9.183 -0.5955 -0.3509  0.4627
  333MOL0     H44899   8.921   6.565   9.335  1.7710  1.6277 -0.4832
  333MOL0     H44900   9.049   6.331   9.303  1.2911 -0.0197  0.2375
  333MOL0     H44901   9.111   6.391   9.151 -2.0457  1.2026 -1.8204
  333MOL0     H44902   9.184   6.436   9.428  3.6896 -1.1092  0.3751
  333MOL0     H44903   9.182   6.590   9.340 -0.0115 -0.4781  0.1523
  333MOL0     H44904   9.413   6.524   9.352 -0.0040  0.8066  0.2428
  333MOL0     H44905   9.369   6.357   9.299  1.7108 -0.1476 -1.4715
  333MOL0     H44906   9.339   6.708   9.108  0.4724 -0.1093 -0.8298
  333MOL0     H44907   9.371   6.642   8.753  1.4799  0.2006 -0.4243
  333MOL0     H44908   9.355   6.775   8.861 -1.4337 -0.6636  1.3805
  333MOL0     H44909   9.525   6.856   8.748 -1.2195  1.6288  1.1351
  333MOL0     H44910   9.602   6.794   8.897 -4.1486  0.0709  1.2704
  333MOL0     H44911   9.586   6.655   8.627  0.4425 -0.8966 -0.2204
  333MOL0     H44912   9.663   6.592   8.769  0.5220  1.2709  0.7834
  333MOL0     H44913   9.849   6.758   8.758  0.0428 -1.8292  0.1004
  333MOL0     H44914   9.766   6.841   8.626 -0.2225  0.5246  0.0802
  333MOL0     H44915  10.066   6.812   8.573  3.2440  0.8896 -0.6651
  333MOL0     H44916  10.125   6.930   8.362  1.3646 -0.6637 -1.9565
  333MOL0     H44917  10.012   7.126   7.973  0.2807  0.2901 -0.5865
  333MOL0     H44918  10.088   7.248   7.784 -0.4904  1.3072 -0.0950
  333MOL0     H44919  10.214   7.228   7.566  0.6891 -0.4222  0.1179
  333MOL0     H44920  10.209   7.373   7.671 -0.1805 -1.1924  1.2234
  333MOL0     H44921  10.432   7.314   7.468  0.2072 -0.0396 -1.7702
  333MOL0     H44922  10.279   7.399   7.433 -1.5957  3.9455  2.4296
  333MOL0     H44923  10.331   7.570   7.595 -0.1036  1.0084 -1.2752
  333MOL0     H44924  10.482   7.481   7.636  0.3666 -0.4127 -1.2808
  333MOL0     H44925  10.377   7.625   7.393 -0.3636 -2.5602 -0.3851
  333MOL0     H44926  10.529   7.550   7.389 -0.5719  0.4204  0.3254
  333MOL0     H44927  10.635   7.699   7.532 -2.0497  0.5692  1.8701
  333MOL0     H44928  10.498   7.776   7.594  1.7625  2.3092  0.3067
  333MOL0     H44929  10.582   7.800   7.307  0.9112 -0.4876  0.5319
  333MOL0     H44930  10.445   7.880   7.374 -1.1542 -0.5076  2.9767
  333MOL0     H44931  10.717   7.931   7.511  0.2084 -2.4253 -0.3386
  333MOL0     H44932  10.558   8.016   7.504 -0.8110 -2.9414  1.9709
  333MOL0     H44933  10.608   8.015   7.245 -0.8562 -0.8115  1.5807
  333MOL0     H44934  10.706   8.133   7.333  2.2868 -0.3494 -0.8063
  333MOL0     H44935  10.485   7.086   7.849  0.6582  2.0171  0.9124
  333MOL0     H44936  10.387   6.965   8.058 -0.7808 -0.4322  0.9251
  333MOL0     H44937   9.826   6.699   8.149  2.5245  1.7222 -2.8062
  333MOL0     H44938   9.750   6.611   8.353  1.3288 -2.2485 -2.5001
  333MOL0     H44939   8.438   6.648   8.688 -0.2030 -0.4705  0.5351
  333MOL0     H44940   8.442   6.656   8.445  0.4391  2.3679  1.4577
  333MOL0     H44941   8.654   6.390   8.111  3.6411 -0.4626  0.0946
  333MOL0     H44942   8.637   6.309   7.896  0.3161  0.0433  2.1272
  333MOL0     H44943   8.525   6.447   7.478 -1.7122 -0.8679  0.9622
  333MOL0     H44944   8.574   6.605   7.542 -1.5703  0.3907 -0.5622
  333MOL0     H44945   8.360   6.573   7.699  0.4032 -1.9907  0.2828
  333MOL0     H44946   8.306   6.453   7.591  0.1101 -0.6641  3.8348
  333MOL0     H44947   8.290   6.631   7.401 -2.4157  0.4835 -0.8581
  333MOL0     H44948   8.386   6.739   7.519  1.7405 -2.1434  0.2179
  333MOL0     H44949   8.136   6.793   7.488 -1.1430  2.0585  1.1130
  333MOL0     H44950   8.114   6.652   7.572 -2.2495  3.4598 -0.3392
  333MOL0     H44951   8.216   6.952   7.861 -2.5093  0.4804  0.0565
  333MOL0     H44952   8.567   6.708   7.749  0.6108  0.3028  1.3695
  333MOL0     H44953   8.504   6.842   8.028 -0.3181 -1.0013  0.8003
  333MOL0     H44954   8.686   6.873   8.004  0.8439 -0.3515 -1.1290
  333MOL0     H44955   8.558   6.894   7.879  2.8935 -0.4779 -0.1574
  334MOL0     O44956   6.550   3.430   7.174  0.6717 -0.2852  0.4145
  334MOL0     C44957   6.477   3.405   7.080  0.3814  0.1313  0.7069
  334MOL0     O44958   6.340   3.394   7.084 -0.3530 -0.5331  0.0407
  334MOL0     C44959   6.271   3.419   7.205  0.3559 -0.2487  0.1227
  334MOL0     C44960   6.285   3.529   7.278 -0.4109 -1.0993 -0.1839
  334MOL0     C44961   6.229   3.541   7.404  0.6439  0.2386  0.1013
  334MOL0     C44962   6.147   3.433   7.450 -0.1563 -0.7101  0.6262
  334MOL0     O44963   6.093   3.435   7.571  0.2396  0.8646  0.3931
  334MOL0     C44964   6.174   3.465   7.691  0.1762  0.3029  0.1573
  334MOL0     C44965   6.120   3.592   7.763 -0.3022 -0.3662  0.2649
  334MOL0     C44966   6.228   3.639   7.863  0.2733  0.4376 -0.4433
  334MOL0     C44967   6.239   3.539   7.971 -0.7841 -0.1130 -0.2658
  334MOL0     C44968   6.256   3.610   8.105  0.2511  0.0954 -0.6726
  334MOL0     C44969   6.361   3.717   8.114  0.6037 -0.1912  0.5970
  334MOL0     C44970   6.393   3.747   8.264  0.5831  0.5449  0.0602
  334MOL0     C44971   6.474   3.881   8.251 -0.9511  0.4314  0.3252
  334MOL0     N44972   6.465   3.941   8.386 -0.7301  0.4864 -0.6319
  334MOL0     C44973   6.352   4.007   8.435 -0.4772 -0.8800  0.0852
  334MOL0     C44974   6.371   4.012   8.575  1.5846 -1.1319  0.6961
  334MOL0     C44975   6.267   4.072   8.669 -0.2190  0.3145  0.2201
  334MOL0     C44976   6.200   3.958   8.755 -0.4391 -0.5059 -0.5580
  334MOL0     C44977   6.109   4.015   8.866  0.5919  0.0363  0.2742
  334MOL0     C44978   6.189   4.081   8.978 -0.0494 -0.7314  0.3179
  334MOL0     O44979   6.118   4.102   9.094  0.0277  0.0369  0.1309
  334MOL0     C44980   6.192   4.163   9.192 -0.5841  0.4580 -0.2644
  334MOL0     C44981   6.126   4.187   9.322  0.2699 -0.4308  0.5760
  334MOL0     C44982   6.178   4.272   9.417 -0.3455  0.4864 -0.2225
  334MOL0     C44983   6.305   4.328   9.412  1.2452  0.3742 -0.0566
  334MOL0     C44984   6.356   4.425   9.527  0.2500  0.3463  0.1992
  334MOL0     O44985   6.261   4.501   9.590  0.0586  0.4472 -0.0998
  334MOL0     C44986   6.310   4.608   9.661  0.5660 -0.3661 -0.2216
  334MOL0     C44987   6.275   4.735   9.632  0.3946 -0.1024  0.0520
  334MOL0     C44988   6.314   4.839   9.724  0.6516  0.0238 -0.4165
  334MOL0     C44989   6.392   4.822   9.839 -0.8441 -0.3243 -0.3970
  334MOL0     O44990   6.419   4.940   9.904  0.3720  0.3122  0.6719
  334MOL0     C44991   6.482   4.930  10.028  1.3160 -0.0237 -0.0588
  334MOL0     C44992   6.455   5.058  10.100  0.6565 -0.4537 -0.0280
  334MOL0     C44993   6.533   5.174  10.032  0.4831  0.6826 -0.3382
  334MOL0     C44994   6.571   5.284  10.138 -0.6433 -0.1289 -0.2970
  334MOL0     C44995   6.635   5.408  10.062  0.6548  0.0391  0.2800
  334MOL0     C44996   6.704   5.501  10.164  0.3421 -0.0993 -0.6014
  334MOL0     C44997   6.737   5.641  10.101  0.8168  0.7375 -0.6596
  334MOL0     C44998   6.828   5.716  10.198 -0.2507 -0.2447 -0.0130
  334MOL0    Cl44999   6.965   5.633  10.272 -0.1547  0.2138 -0.5021
  334MOL0     C45000   6.432   4.680   9.860  0.5945  1.2919  0.0777
  334MOL0     C45001   6.390   4.580   9.773 -0.6035 -0.3040 -0.1875
  334MOL0     O45002   6.475   4.413   9.557  1.0390  0.0909 -0.4277
  334MOL0     C45003   6.385   4.289   9.297  1.7840  0.3013  0.0673
  334MOL0     C45004   6.327   4.209   9.192 -0.2380  0.7655  0.0931
  334MOL0     N45005   6.492   3.947   8.597 -1.1757  0.6794 -0.1566
  334MOL0     N45006   6.548   3.906   8.490 -0.6279 -0.4372 -0.5101
  334MOL0     C45007   6.122   3.321   7.372  0.0095 -0.0125  0.2641
  334MOL0     C45008   6.187   3.318   7.253  0.3341  0.4212  0.5317
  334MOL0     C45009   6.541   3.370   6.948 -0.6840  1.0664  0.7658
  334MOL0     C45010   6.684   3.381   6.952 -0.4657 -0.4120  0.7313
  334MOL0     C45011   6.766   3.329   6.840  0.9933 -0.4114 -0.4673
  334MOL0     C45012   6.709   3.253   6.738  0.0441 -0.5221  1.2636
  334MOL0     O45013   6.793   3.187   6.651  0.7628 -0.8186  0.1140
  334MOL0     C45014   6.732   3.126   6.533 -0.6990 -0.1658 -0.1260
  334MOL0     C45015   6.833   3.021   6.475 -0.8915  0.2078  0.4167
  334MOL0     C45016   6.978   3.060   6.465 -0.3921  0.7668  0.1702
  334MOL0     C45017   7.064   2.949   6.413 -0.0427  0.2886 -0.1654
  334MOL0     C45018   7.055   2.904   6.273 -0.3974  0.3355 -0.7270
  334MOL0     C45019   7.056   2.887   6.157  0.2828  0.3089 -0.0247
  334MOL0     C45020   6.567   3.252   6.735  0.0226 -0.2647  0.0941
  334MOL0     C45021   6.485   3.312   6.835 -0.4026 -0.4626 -0.0665
  334MOL0     C45022   6.338   3.288   6.816 -0.1342  0.2129 -0.2272
  334MOL0     H45023   6.328   3.611   7.222 -1.1752 -1.8508 -1.9416
  334MOL0     H45024   6.219   3.632   7.463 -3.6688  1.8679 -2.6462
  334MOL0     H45025   6.176   3.374   7.752 -2.2201  0.6048  0.7419
  334MOL0     H45026   6.271   3.501   7.653  0.2268 -1.6362 -1.7934
  334MOL0     H45027   6.022   3.592   7.811  0.7643  0.7599  2.6094
  334MOL0     H45028   6.115   3.673   7.689 -0.2877  0.8026  1.5193
  334MOL0     H45029   6.187   3.736   7.893  1.0593  0.0813  1.9965
  334MOL0     H45030   6.321   3.666   7.813  0.9120 -0.2984  0.3191
  334MOL0     H45031   6.159   3.465   7.977  1.6268 -2.7013  2.6501
  334MOL0     H45032   6.334   3.490   7.951 -0.5024  1.0137 -1.9449
  334MOL0     H45033   6.158   3.648   8.138  1.2645  1.1132  1.3347
  334MOL0     H45034   6.287   3.535   8.179 -0.8669 -0.2808 -0.5540
  334MOL0     H45035   6.457   3.697   8.066 -0.3532  0.9907 -2.0111
  334MOL0     H45036   6.318   3.801   8.058  3.3177  1.6530  1.1004
  334MOL0     H45037   6.451   3.675   8.322  1.5045 -3.0618 -4.7396
  334MOL0     H45038   6.295   3.766   8.309 -0.9819 -2.4722 -1.7307
  334MOL0     H45039   6.576   3.867   8.216 -0.9692 -0.0933  0.4762
  334MOL0     H45040   6.419   3.945   8.181 -2.5287 -2.8536 -1.7136
  334MOL0     H45041   6.269   4.050   8.381 -1.8811 -1.2758  1.8207
  334MOL0     H45042   6.313   4.151   8.728  2.5265 -0.6082 -0.5435
  334MOL0     H45043   6.193   4.129   8.611 -1.0810 -2.0020 -1.0991
  334MOL0     H45044   6.149   3.890   8.686  1.3260 -0.7016 -1.7106
  334MOL0     H45045   6.285   3.916   8.809 -1.1247  0.2269  1.1731
  334MOL0     H45046   6.037   3.943   8.906  0.7206 -1.0450 -1.3510
  334MOL0     H45047   6.048   4.097   8.827  1.2822  0.4427  0.0405
  334MOL0     H45048   6.227   4.175   8.937 -0.9452  0.1735  1.4869
  334MOL0     H45049   6.282   4.025   8.990  1.8142  1.5540 -2.2468
  334MOL0     H45050   6.034   4.130   9.334  1.5169 -2.5290  0.7679
  334MOL0     H45051   6.122   4.282   9.510  1.8452  1.7980  1.0457
  334MOL0     H45052   6.220   4.769   9.545  1.6052  1.5008 -0.1320
  334MOL0     H45053   6.286   4.939   9.693  2.2277  0.9404  0.9823
  334MOL0     H45054   6.459   4.840  10.085  3.9266  0.8042  2.6291
  334MOL0     H45055   6.591   4.926  10.020  1.1664 -1.4956 -1.8042
  334MOL0     H45056   6.350   5.087  10.113  0.3360 -2.2277  2.0027
  334MOL0     H45057   6.488   5.042  10.203 -1.3495 -1.0231  0.5713
  334MOL0     H45058   6.618   5.134   9.976  0.3062 -1.5269  0.8671
  334MOL0     H45059   6.460   5.212   9.960  0.2277 -1.3193 -1.2061
  334MOL0     H45060   6.647   5.241  10.204 -0.9452 -0.3608 -0.0960
  334MOL0     H45061   6.494   5.318  10.208 -2.3881  0.0303 -2.2078
  334MOL0     H45062   6.568   5.473  10.006 -1.9265 -2.4716  0.1928
  334MOL0     H45063   6.716   5.384   9.993  1.2225 -2.0268  1.5512
  334MOL0     H45064   6.630   5.524  10.241 -0.2909  1.7950 -1.6961
  334MOL0     H45065   6.790   5.448  10.206 -0.9297 -0.3780  1.8132
  334MOL0     H45066   6.656   5.709  10.071 -0.4767 -0.5929 -0.2741
  334MOL0     H45067   6.793   5.631  10.008  1.3223  1.7271 -0.4776
  334MOL0     H45068   6.871   5.793  10.133  0.4442  0.5995  1.3755
  334MOL0     H45069   6.777   5.776  10.275  3.8264 -0.4178  3.1745
  334MOL0     H45070   6.508   4.666   9.937  2.8080  1.4217 -1.9664
  334MOL0     H45071   6.401   4.474   9.797 -2.6714 -1.0089 -1.9840
  334MOL0     H45072   6.482   4.335   9.279  0.9365  2.8731  1.6350
  334MOL0     H45073   6.383   4.193   9.100  0.0274 -2.4278  0.7174
  334MOL0     H45074   6.054   3.240   7.397 -1.0504  0.3798 -1.2349
  334MOL0     H45075   6.175   3.231   7.189  0.3781 -0.9754  2.3356
  334MOL0     H45076   6.746   3.431   7.026 -2.9693  1.3764  1.7753
  334MOL0     H45077   6.874   3.338   6.845  0.8969  1.7701 -1.4014
  334MOL0     H45078   6.722   3.200   6.453 -4.1327  1.3012  1.4317
  334MOL0     H45079   6.640   3.077   6.567  0.1345 -1.5890  0.1581
  334MOL0     H45080   6.795   2.985   6.379  0.3651 -0.9928  0.3207
  334MOL0     H45081   6.837   2.934   6.542  0.6216 -0.8014 -0.8978
  334MOL0     H45082   7.019   3.085   6.563 -1.8348  0.2392  0.9310
  334MOL0     H45083   6.987   3.147   6.399  0.5691  0.7244  0.2368
  334MOL0     H45084   7.170   2.962   6.434 -0.5198  0.6794  2.3538
  334MOL0     H45085   7.027   2.868   6.477 -2.0533  2.2229  1.2668
  334MOL0     H45086   7.054   2.876   6.050  0.5609  1.0536 -0.1150
  334MOL0     H45087   6.515   3.203   6.654  0.6396  0.4375 -0.7411
  334MOL0     H45088   6.314   3.281   6.709  0.9827  1.8846 -0.6208
  334MOL0     H45089   6.318   3.189   6.857  0.3424 -0.4516 -1.5399
  334MOL0     H45090   6.273   3.367   6.855  0.6327  0.2935  0.9111
  335MOL0     O45091   7.688   6.235   6.300  0.3349 -0.1867 -0.0310
  335MOL0     C45092   7.581   6.183   6.321  0.0936 -0.7016 -0.1862
  335MOL0     O45093   7.538   6.084   6.245 -0.1902  0.3549 -0.1114
  335MOL0     C45094   7.621   6.010   6.171  0.0435 -0.8041 -0.2863
  335MOL0     C45095   7.581   5.991   6.034  0.8017  0.5599  0.8696
  335MOL0     C45096   7.659   5.905   5.956 -1.0522 -0.0782  0.2425
  335MOL0     C45097   7.763   5.827   6.007 -0.1157  0.5949  0.2144
  335MOL0     O45098   7.828   5.740   5.918  0.1699 -0.3593 -0.5336
  335MOL0     C45099   7.908   5.625   5.977 -0.3522 -0.7573 -0.4654
  335MOL0     C45100   7.916   5.528   5.859  0.2644 -1.0961  0.7297
  335MOL0     C45101   8.025   5.421   5.883 -0.6942  0.4314 -0.2670
  335MOL0     C45102   7.963   5.321   5.985 -0.5702  0.2180 -0.0889
  335MOL0     C45103   8.038   5.191   5.988  0.1203  0.4611 -0.3285
  335MOL0     C45104   8.180   5.207   6.036 -0.0327 -0.1644 -0.2610
  335MOL0     C45105   8.246   5.074   6.049  0.1164  0.6583  0.7781
  335MOL0     C45106   8.383   5.071   6.118  0.0759 -0.3776  0.0522
  335MOL0     N45107   8.493   5.131   6.046  0.5242  0.5038  0.8047
  335MOL0     C45108   8.568   5.071   5.945 -0.1713  0.1140  0.8377
  335MOL0     C45109   8.651   5.164   5.899 -0.2309 -0.4283 -0.4682
  335MOL0     C45110   8.757   5.150   5.795 -0.2460  0.1261 -0.0960
  335MOL0     C45111   8.715   5.214   5.655 -0.7694  0.6279 -0.0345
  335MOL0     C45112   8.804   5.182   5.537 -0.5684 -0.4721 -0.1390
  335MOL0     C45113   8.893   5.297   5.499 -0.1735  0.0429  0.4213
  335MOL0     O45114   8.986   5.329   5.601 -0.2385  0.1715  0.5646
  335MOL0     C45115   9.070   5.434   5.576 -0.6378 -1.5187  0.3027
  335MOL0     C45116   9.090   5.511   5.454 -0.2417 -0.2171 -0.2726
  335MOL0     C45117   9.176   5.616   5.446  0.3818  0.7725  0.6251
  335MOL0     C45118   9.253   5.664   5.562 -0.1649 -0.1458 -0.0647
  335MOL0     C45119   9.361   5.760   5.557 -0.4755 -0.5745  0.2422
  335MOL0     O45120   9.446   5.766   5.662  0.6801 -1.0403 -0.1066
  335MOL0     C45121   9.538   5.869   5.677  0.9089  0.0103  0.1718
  335MOL0     C45122   9.550   5.990   5.600 -0.6065 -0.7576 -0.4407
  335MOL0     C45123   9.659   6.073   5.622 -1.0907 -0.4772  0.8855
  335MOL0     C45124   9.749   6.057   5.722  0.0652  0.0083  0.9667
  335MOL0     O45125   9.859   6.147   5.729  0.0121  0.1573 -0.3423
  335MOL0     C45126   9.980   6.094   5.792  0.4585 -0.9757 -0.3259
  335MOL0     C45127   9.999   6.173   5.920 -0.2857  0.2296  0.4310
  335MOL0     C45128  10.156   6.206   5.939 -0.1529 -0.2643  0.3764
  335MOL0     C45129  10.164   6.282   6.076 -0.7571  1.3067  0.3087
  335MOL0     C45130  10.163   6.174   6.186 -0.0792  0.1825  0.5694
  335MOL0     C45131  10.268   6.205   6.300  0.4313 -0.0762  0.4521
  335MOL0     C45132  10.250   6.347   6.340 -0.1928 -0.1495 -0.0110
  335MOL0     C45133  10.308   6.376   6.472 -0.2279 -0.3177 -1.1720
  335MOL0    Cl45134  10.485   6.311   6.471 -0.0583  0.5070 -0.3545
  335MOL0     C45135   9.723   5.950   5.812 -0.8796  0.3122 -1.1620
  335MOL0     C45136   9.624   5.855   5.787  0.9911 -0.3817 -0.1751
  335MOL0     O45137   9.381   5.795   5.441 -0.0902 -0.4285 -0.2273
  335MOL0     C45138   9.222   5.598   5.686 -0.3539 -0.2446  0.7683
  335MOL0     C45139   9.142   5.480   5.681 -0.1116 -0.7736 -0.5855
  335MOL0     N45140   8.635   5.273   5.977  0.2547 -0.0903  0.5013
  335MOL0     N45141   8.540   5.259   6.065  0.6184  0.1072  0.2152
  335MOL0     C45142   7.803   5.852   6.137 -0.1924  0.4721  0.1487
  335MOL0     C45143   7.739   5.946   6.219 -0.2345 -0.3408 -0.1493
  335MOL0     C45144   7.480   6.240   6.417 -0.2229  0.4754  0.9035
  335MOL0     C45145   7.395   6.148   6.490 -0.8166 -1.2182 -1.2889
  335MOL0     C45146   7.305   6.176   6.596 -0.7182  0.4708  0.5976
  335MOL0     C45147   7.295   6.315   6.619 -0.5030  1.2856  0.0086
  335MOL0     O45148   7.221   6.362   6.721  0.5024 -0.1507 -0.0776
  335MOL0     C45149   7.124   6.279   6.781  0.4231 -0.0922  0.2123
  335MOL0     C45150   7.033   6.356   6.881  0.3284  0.7344  0.2836
  335MOL0     C45151   7.123   6.419   6.982  0.8652 -1.0872  0.1082
  335MOL0     C45152   7.055   6.524   7.073 -0.4028  0.1238 -0.9358
  335MOL0     C45153   7.154   6.581   7.165  0.0512  0.2907  0.0995
  335MOL0     C45154   7.240   6.636   7.222 -0.2157 -0.0730 -0.5490
  335MOL0     C45155   7.372   6.411   6.548  0.2853  0.7048  0.0873
  335MOL0     C45156   7.460   6.373   6.449 -0.4102 -0.8157 -0.2623
  335MOL0     C45157   7.535   6.492   6.387 -0.5928 -0.2210  0.4382
  335MOL0     H45158   7.489   6.040   6.002  0.4011 -0.3368  0.6272
  335MOL0     H45159   7.625   5.895   5.854  1.0933 -1.8860 -0.3789
  335MOL0     H45160   8.010   5.652   6.005 -0.8312  0.9379 -0.2182
  335MOL0     H45161   7.871   5.567   6.063 -1.6370  0.0493 -0.4463
  335MOL0     H45162   7.940   5.583   5.767 -1.2813 -0.0828  0.8991
  335MOL0     H45163   7.814   5.497   5.834  0.5040  0.6258 -3.1384
  335MOL0     H45164   8.121   5.462   5.916 -0.3278  0.1051 -0.9265
  335MOL0     H45165   8.046   5.371   5.788 -1.2214  2.0447 -1.2810
  335MOL0     H45166   7.947   5.371   6.081  2.2820  1.0012  0.0752
  335MOL0     H45167   7.869   5.298   5.935 -0.3333 -0.0853 -0.4024
  335MOL0     H45168   7.973   5.118   6.037 -0.6600  0.9996 -0.5385
  335MOL0     H45169   8.031   5.163   5.882 -1.6282 -0.3700 -0.0248
  335MOL0     H45170   8.237   5.276   5.972 -3.9646  0.6222 -3.2619
  335MOL0     H45171   8.170   5.254   6.134 -2.2291  2.4786 -1.6052
  335MOL0     H45172   8.261   5.032   5.949  0.7374  0.9706  0.7358
  335MOL0     H45173   8.182   5.015   6.115  0.1948 -1.2846 -0.7793
  335MOL0     H45174   8.381   5.125   6.214  1.5198  2.7308 -1.5128
  335MOL0     H45175   8.422   4.970   6.134  2.9170  0.0068 -3.3828
  335MOL0     H45176   8.564   4.967   5.914 -1.9750 -0.0228  1.4650
  335MOL0     H45177   8.854   5.188   5.829 -0.2224  1.2153 -1.2979
  335MOL0     H45178   8.771   5.043   5.782  1.1633  0.5837 -3.7406
  335MOL0     H45179   8.620   5.169   5.626 -0.9211  2.5326 -2.8387
  335MOL0     H45180   8.694   5.321   5.661 -0.3706  0.6810  4.5327
  335MOL0     H45181   8.746   5.157   5.448  1.1859  0.9750 -1.7784
  335MOL0     H45182   8.870   5.097   5.556  1.2225  1.0298  0.7793
  335MOL0     H45183   8.830   5.386   5.486 -1.6672 -1.3987 -4.2480
  335MOL0     H45184   8.956   5.276   5.412  2.0194  2.7660  1.2284
  335MOL0     H45185   9.020   5.487   5.375 -2.2551  1.1107  1.0185
  335MOL0     H45186   9.206   5.663   5.352  2.2121 -2.9220 -0.8757
  335MOL0     H45187   9.480   6.004   5.519 -0.3902 -3.2260 -1.1509
  335MOL0     H45188   9.677   6.144   5.542 -1.2080 -3.0548 -1.6062
  335MOL0     H45189   9.974   5.986   5.811 -0.3183 -0.8897 -0.0569
  335MOL0     H45190  10.069   6.118   5.733  1.2313  0.1329  1.2155
  335MOL0     H45191   9.935   6.261   5.928  0.6007  0.8522  0.8374
  335MOL0     H45192   9.958   6.117   6.004 -1.3103  3.0057  1.9080
  335MOL0     H45193  10.231   6.127   5.932 -0.0188 -0.0430 -0.9613
  335MOL0     H45194  10.189   6.283   5.868  3.1857 -0.6829  1.3093
  335MOL0     H45195  10.083   6.350   6.104 -2.5533 -0.4072 -0.4855
  335MOL0     H45196  10.256   6.342   6.076  0.0777  0.2392 -2.9885
  335MOL0     H45197  10.191   6.081   6.136 -1.2459  0.3549 -0.4587
  335MOL0     H45198  10.058   6.157   6.212 -0.5397  1.5400 -0.3055
  335MOL0     H45199  10.259   6.140   6.388 -1.1601  1.1733  1.2707
  335MOL0     H45200  10.370   6.190   6.265 -0.3492  0.9182 -2.4696
  335MOL0     H45201  10.144   6.367   6.325 -0.4513 -2.5495 -2.0917
  335MOL0     H45202  10.306   6.418   6.279  0.1445  2.3378  2.9002
  335MOL0     H45203  10.321   6.485   6.475  5.4672 -0.7121  1.0876
  335MOL0     H45204  10.248   6.351   6.560 -1.0137  2.4928 -0.8053
  335MOL0     H45205   9.787   5.932   5.898  0.6530 -1.8042 -2.6365
  335MOL0     H45206   9.610   5.777   5.861 -1.1793 -0.4833 -0.6159
  335MOL0     H45207   9.282   5.614   5.775  2.2642 -4.0399 -0.0563
  335MOL0     H45208   9.128   5.423   5.773 -0.3726  1.6394  0.9588
  335MOL0     H45209   7.882   5.791   6.180 -2.0036 -1.7007  0.5610
  335MOL0     H45210   7.770   5.978   6.318  1.1621 -0.3536 -0.5715
  335MOL0     H45211   7.403   6.045   6.456  2.6938 -1.9035  1.0728
  335MOL0     H45212   7.256   6.095   6.649 -0.1522 -0.9221 -0.9230
  335MOL0     H45213   7.179   6.195   6.825  1.3389  0.2527 -0.2416
  335MOL0     H45214   7.060   6.235   6.703  0.2064 -1.7868  1.2902
  335MOL0     H45215   6.964   6.292   6.936  0.8806  0.5498  0.7856
  335MOL0     H45216   6.978   6.432   6.825 -1.6590  0.7701  2.1624
  335MOL0     H45217   7.219   6.457   6.944  0.6526  0.5434  1.1137
  335MOL0     H45218   7.156   6.336   7.046  2.1136 -1.9797 -1.5912
  335MOL0     H45219   7.018   6.607   7.011 -3.0032 -0.5001 -0.3206
  335MOL0     H45220   6.967   6.498   7.132  1.5122  0.9024  2.5437
  335MOL0     H45221   7.310   6.692   7.281 -0.7946 -1.1396  1.2238
  335MOL0     H45222   7.364   6.517   6.573 -0.2429  0.3891  1.3637
  335MOL0     H45223   7.529   6.585   6.445 -0.7655 -0.3888  0.6898
  335MOL0     H45224   7.640   6.464   6.399 -0.7840 -0.2115  2.3724
  335MOL0     H45225   7.529   6.511   6.279 -1.0466  1.5362  0.7352
  336MOL0     O45226   7.342   5.844   6.610  0.3205 -0.1758 -0.4084
  336MOL0     C45227   7.288   5.730   6.617 -0.0175  0.5834  0.6272
  336MOL0     O45228   7.162   5.695   6.683 -0.6739  0.1455  1.1304
  336MOL0     C45229   7.099   5.784   6.764 -0.2221 -0.4446 -0.8455
  336MOL0     C45230   7.108   5.768   6.909 -0.1852  0.3107  0.3690
  336MOL0     C45231   7.028   5.847   6.986 -0.6206 -0.6138  0.6684
  336MOL0     C45232   6.940   5.936   6.932 -0.9606 -0.8995  0.4161
  336MOL0     O45233   6.853   6.011   7.007  0.9037 -0.1425 -0.0905
  336MOL0     C45234   6.840   5.991   7.148 -0.3218  0.0115 -0.4286
  336MOL0     C45235   6.954   6.066   7.221 -1.0377 -0.5468 -0.3437
  336MOL0     C45236   6.917   6.155   7.346  0.7132 -0.0606  0.6099
  336MOL0     C45237   7.037   6.237   7.402  0.6030 -0.4760 -0.6933
  336MOL0     C45238   7.013   6.386   7.417 -0.1981  0.1860  0.7348
  336MOL0     C45239   6.944   6.420   7.549  0.4550  0.7673 -0.0693
  336MOL0     C45240   6.882   6.557   7.554 -0.0369 -0.2925  0.2721
  336MOL0     C45241   6.955   6.637   7.662  0.2145  0.4869  0.6612
  336MOL0     N45242   6.904   6.773   7.666 -0.7033 -0.0612  0.6126
  336MOL0     C45243   6.779   6.809   7.705  0.0076 -1.0069  1.1479
  336MOL0     C45244   6.787   6.942   7.728  0.3250  0.2542  0.2677
  336MOL0     C45245   6.671   7.025   7.754  0.1855 -0.9931  0.4630
  336MOL0     C45246   6.594   7.078   7.643 -0.0366  0.2357  0.5390
  336MOL0     C45247   6.649   7.195   7.569  0.7284 -0.7679  0.9734
  336MOL0     C45248   6.767   7.173   7.473  0.2605  0.3179  0.2425
  336MOL0     O45249   6.764   7.278   7.365 -0.6893 -0.3528 -0.1370
  336MOL0     C45250   6.806   7.407   7.389 -0.0639  0.2353 -1.0209
  336MOL0     C45251   6.851   7.440   7.517 -0.6252 -0.0817  0.3994
  336MOL0     C45252   6.875   7.581   7.542  0.3129  0.4199  0.3453
  336MOL0     C45253   6.862   7.675   7.437  0.4601  0.3741 -0.4567
  336MOL0     C45254   6.897   7.813   7.448 -0.0106 -1.1045 -0.7464
  336MOL0     O45255   6.808   7.911   7.434 -0.1998  0.5092 -0.7678
  336MOL0     C45256   6.837   8.048   7.440 -0.3648  1.2187  0.0982
  336MOL0     C45257   6.960   8.112   7.458  0.9199  0.4409  0.4153
  336MOL0     C45258   6.971   8.250   7.469  0.4043  0.4975 -0.0679
  336MOL0     C45259   6.858   8.326   7.455 -0.1563  0.7159 -1.6590
  336MOL0     O45260   6.867   8.456   7.477  0.7404  0.2737 -0.5784
  336MOL0     C45261   6.887   8.480   7.615 -0.0101  0.8814 -0.2634
  336MOL0     C45262   6.874   8.633   7.642  1.1067  0.4730 -0.1542
  336MOL0     C45263   6.890   8.666   7.788 -0.3029 -0.0950  0.4904
  336MOL0     C45264   6.780   8.595   7.878 -0.3923  0.3469 -0.2176
  336MOL0     C45265   6.764   8.654   8.019  0.1079  0.1414 -0.7297
  336MOL0     C45266   6.655   8.763   8.003 -0.7218 -0.4991 -0.6914
  336MOL0     C45267   6.638   8.869   8.117 -0.2277  0.4226  0.3828
  336MOL0     C45268   6.760   8.949   8.136  0.0029 -0.1448  0.0883
  336MOL0    Cl45269   6.804   9.045   7.988  0.4603 -0.2666  0.1779
  336MOL0     C45270   6.728   8.274   7.429 -0.2281  0.5703  0.1008
  336MOL0     C45271   6.716   8.128   7.420  0.5141  0.7370  0.3061
  336MOL0     O45272   7.013   7.831   7.483 -0.2136 -0.1945 -0.0018
  336MOL0     C45273   6.808   7.634   7.312  0.0029 -0.0203 -0.5937
  336MOL0     C45274   6.782   7.499   7.290 -0.3446  0.3957 -0.4111
  336MOL0     N45275   6.912   6.985   7.702  0.1454 -0.0212 -0.6913
  336MOL0     N45276   6.986   6.882   7.681 -0.3196 -0.3008 -0.2638
  336MOL0     C45277   6.928   5.955   6.793 -0.1564 -0.2083  0.4863
  336MOL0     C45278   7.009   5.879   6.712 -0.6271  1.3345 -0.0735
  336MOL0     C45279   7.364   5.621   6.565  0.0668  0.0037  0.3235
  336MOL0     C45280   7.340   5.503   6.627 -0.3698 -1.0130  0.0433
  336MOL0     C45281   7.382   5.386   6.574 -0.0807  1.0008  0.6643
  336MOL0     C45282   7.448   5.382   6.455  0.3790  1.0944 -0.2975
  336MOL0     O45283   7.486   5.269   6.394 -0.1577  0.8065  0.0168
  336MOL0     C45284   7.455   5.134   6.427  0.5245  0.2021 -0.4176
  336MOL0     C45285   7.525   5.030   6.338 -0.2675  0.2017  0.4450
  336MOL0     C45286   7.578   4.911   6.403 -0.3634  0.8284  0.2165
  336MOL0     C45287   7.680   4.837   6.338  0.1196 -0.3437  0.3175
  336MOL0     C45288   7.641   4.765   6.210  0.4469 -0.8368  0.3494
  336MOL0     C45289   7.610   4.716   6.100 -0.6197  0.2690 -0.5072
  336MOL0     C45290   7.485   5.503   6.394 -0.2204  1.0206  0.4620
  336MOL0     C45291   7.440   5.623   6.445 -0.2769 -0.2239  0.6049
  336MOL0     C45292   7.471   5.757   6.382 -0.2283 -0.1669  0.2612
  336MOL0     H45293   7.165   5.690   6.959  0.5948  0.2987 -0.5175
  336MOL0     H45294   7.034   5.844   7.095 -0.4614 -0.6898  0.6577
  336MOL0     H45295   6.749   6.034   7.191 -0.3663 -0.6221  0.1232
  336MOL0     H45296   6.837   5.885   7.176 -2.1219 -0.6261 -2.7141
  336MOL0     H45297   6.999   6.133   7.148 -3.1429  0.5835 -0.6624
  336MOL0     H45298   7.040   6.006   7.253  1.8516  2.4843 -1.8093
  336MOL0     H45299   6.869   6.093   7.422  1.0728 -0.0647  0.8362
  336MOL0     H45300   6.853   6.223   7.289  2.9307 -0.5385 -2.7471
  336MOL0     H45301   7.075   6.193   7.495  0.7824  0.3713 -0.3561
  336MOL0     H45302   7.130   6.227   7.345  2.1721 -0.6090  1.7154
  336MOL0     H45303   7.114   6.428   7.409  2.0429 -4.8718 -2.3302
  336MOL0     H45304   6.955   6.437   7.340  1.8130 -0.8695 -1.5989
  336MOL0     H45305   6.863   6.348   7.565 -0.9685  2.4222  0.4784
  336MOL0     H45306   7.011   6.405   7.634  1.8779  0.2637 -1.2392
  336MOL0     H45307   6.774   6.552   7.574 -0.1604  1.0526  0.0166
  336MOL0     H45308   6.896   6.610   7.459  0.1893  2.9218  1.9860
  336MOL0     H45309   6.939   6.586   7.758 -0.7621  0.4126  0.4616
  336MOL0     H45310   7.061   6.651   7.637  0.7877 -0.0424  2.6067
  336MOL0     H45311   6.688   6.749   7.704 -1.1775  0.6369 -1.8199
  336MOL0     H45312   6.604   6.980   7.828 -0.5893  0.8820  0.9514
  336MOL0     H45313   6.704   7.116   7.805  0.0145 -1.1138  0.7920
  336MOL0     H45314   6.577   6.993   7.576  0.9807 -0.6369  1.3454
  336MOL0     H45315   6.495   7.113   7.671 -0.4612 -1.1802  0.8834
  336MOL0     H45316   6.655   7.283   7.634 -1.5218  0.5713 -0.5051
  336MOL0     H45317   6.574   7.222   7.494  1.5081  0.5352  0.6264
  336MOL0     H45318   6.747   7.078   7.422 -1.6935  2.4743 -3.3888
  336MOL0     H45319   6.863   7.168   7.526  0.5078  1.2041 -0.1139
  336MOL0     H45320   6.853   7.370   7.600  1.0561 -0.5961 -0.0393
  336MOL0     H45321   6.900   7.614   7.643  0.8972  0.1289  0.2991
  336MOL0     H45322   7.059   8.066   7.459  1.3315  0.7382 -3.8905
  336MOL0     H45323   7.064   8.304   7.480  0.7372  0.1994 -1.2970
  336MOL0     H45324   6.811   8.433   7.677  0.3528  1.1665  0.4183
  336MOL0     H45325   6.989   8.459   7.650 -0.9526  0.2838  2.3605
  336MOL0     H45326   6.943   8.689   7.578 -1.6122  1.1610 -2.6971
  336MOL0     H45327   6.773   8.659   7.610  0.3720  0.6637  2.1026
  336MOL0     H45328   6.992   8.648   7.822  0.5584 -0.8805 -2.1924
  336MOL0     H45329   6.865   8.772   7.786  0.2954  0.0425  0.0574
  336MOL0     H45330   6.803   8.491   7.898 -0.4366  0.4635  0.4501
  336MOL0     H45331   6.681   8.586   7.831 -0.0111  0.8508 -1.1533
  336MOL0     H45332   6.850   8.707   8.060 -0.9600  1.6426 -0.3629
  336MOL0     H45333   6.726   8.575   8.084  0.0868  0.5014 -0.3022
  336MOL0     H45334   6.682   8.828   7.919  1.8426 -1.3992 -0.6570
  336MOL0     H45335   6.561   8.709   7.989 -0.4437 -1.0186 -0.5678
  336MOL0     H45336   6.618   8.812   8.208 -1.5521  2.4124  1.4023
  336MOL0     H45337   6.553   8.936   8.100 -1.0425 -0.6710 -0.0780
  336MOL0     H45338   6.728   9.018   8.215  0.1715 -0.6033  0.5570
  336MOL0     H45339   6.853   8.898   8.160  0.3687  0.9930  1.2280
  336MOL0     H45340   6.644   8.342   7.433 -2.5102 -2.1089  1.5322
  336MOL0     H45341   6.627   8.068   7.437  2.9936 -2.9342  1.6367
  336MOL0     H45342   6.774   7.704   7.236 -0.4694 -0.9712 -1.2844
  336MOL0     H45343   6.749   7.449   7.199 -2.4245  1.9768 -0.5966
  336MOL0     H45344   6.862   6.027   6.744 -0.9944 -2.1850 -1.5001
  336MOL0     H45345   7.005   5.896   6.605 -2.1098 -0.3838 -0.3334
  336MOL0     H45346   7.294   5.507   6.725  2.0518  0.9093  1.2107
  336MOL0     H45347   7.356   5.303   6.640 -2.3825  1.5316  0.5190
  336MOL0     H45348   7.348   5.117   6.413 -0.2555  3.7057  0.1943
  336MOL0     H45349   7.466   5.120   6.535  1.9634  0.6635 -0.4765
  336MOL0     H45350   7.602   5.076   6.276  0.1738 -0.6971  0.2990
  336MOL0     H45351   7.452   4.984   6.271  1.0767  0.6493 -1.3968
  336MOL0     H45352   7.493   4.843   6.411 -0.5559  0.9047 -1.0378
  336MOL0     H45353   7.613   4.941   6.502  0.5313 -1.0530  0.5052
  336MOL0     H45354   7.760   4.904   6.307  0.3513 -0.7015  0.1369
  336MOL0     H45355   7.723   4.779   6.420 -0.5696 -0.0765  0.8804
  336MOL0     H45356   7.591   4.672   6.004 -0.5708 -0.7861 -0.0467
  336MOL0     H45357   7.542   5.501   6.302  1.4743  0.1431  1.4931
  336MOL0     H45358   7.545   5.757   6.301 -0.7051 -3.4296 -0.3221
  336MOL0     H45359   7.392   5.817   6.337  2.4201  3.1287 -0.4120
  336MOL0     H45360   7.511   5.823   6.460 -0.6215 -0.9388  1.1300
  337MOL0     O45361   4.586   5.881   3.983 -0.6559  0.1147  0.4239
  337MOL0     C45362   4.643   5.784   3.927  0.1994  0.4567 -1.1485
  337MOL0     O45363   4.743   5.789   3.844 -0.2187 -0.5867 -0.0875
  337MOL0     C45364   4.818   5.906   3.830  0.2659 -0.1492  0.9149
  337MOL0     C45365   4.833   6.008   3.924 -1.1482 -0.8460 -0.8982
  337MOL0     C45366   4.921   6.121   3.879  0.8630  0.2179  0.2098
  337MOL0     C45367   4.960   6.139   3.747 -0.0124  0.3535 -0.7318
  337MOL0     O45368   5.028   6.254   3.728 -0.4844  0.2248 -0.1777
  337MOL0     C45369   5.101   6.275   3.606 -0.1144 -0.4401  1.4288
  337MOL0     C45370   5.189   6.393   3.628 -0.2814 -0.7994  0.4023
  337MOL0     C45371   5.118   6.527   3.646 -0.2025 -0.4052 -0.5338
  337MOL0     C45372   5.221   6.637   3.635 -0.0220 -0.2046  0.6208
  337MOL0     C45373   5.146   6.770   3.628  0.2821  0.0873  0.4201
  337MOL0     C45374   5.218   6.878   3.705  0.0706  1.2063 -0.1740
  337MOL0     C45375   5.212   6.855   3.858  0.2155 -0.4449 -0.0587
  337MOL0     C45376   5.186   6.980   3.939  0.4074 -0.7444  0.3684
  337MOL0     N45377   5.045   7.025   3.913 -0.8827  0.2635 -0.2745
  337MOL0     C45378   5.015   7.131   3.847 -0.5747 -0.4549  0.3458
  337MOL0     C45379   4.891   7.101   3.806  1.0995 -0.8788 -0.6186
  337MOL0     C45380   4.806   7.191   3.721  0.3578 -0.0623 -0.0373
  337MOL0     C45381   4.805   7.162   3.574 -0.2872  0.6184  0.0494
  337MOL0     C45382   4.792   7.009   3.542 -0.0289  0.0035 -0.5064
  337MOL0     C45383   4.767   6.985   3.390  1.1765  1.2123 -0.6788
  337MOL0     O45384   4.629   6.995   3.343  0.0248 -0.3231 -0.4174
  337MOL0     C45385   4.583   6.882   3.284  1.8680 -0.5612  0.0381
  337MOL0     C45386   4.582   6.883   3.146  0.4380  0.0947 -0.9214
  337MOL0     C45387   4.546   6.771   3.069 -0.6365 -0.6713 -0.7244
  337MOL0     C45388   4.518   6.654   3.140  0.8891  0.0952 -1.0152
  337MOL0     C45389   4.503   6.527   3.069 -0.8955  0.9729 -0.1122
  337MOL0     O45390   4.450   6.428   3.150  0.0135  0.4779 -0.5476
  337MOL0     C45391   4.429   6.305   3.113  0.3017  0.5169  0.6498
  337MOL0     C45392   4.318   6.244   3.171  0.5705 -0.1599  0.2561
  337MOL0     C45393   4.283   6.123   3.144 -0.6833  0.2016 -0.3194
  337MOL0     C45394   4.339   6.052   3.046 -0.2038  0.0028  0.0531
  337MOL0     O45395   4.292   5.925   3.025  0.5228 -0.4168 -0.4382
  337MOL0     C45396   4.372   5.828   2.949  0.2944 -0.3493 -0.2519
  337MOL0     C45397   4.501   5.792   3.026 -0.2240 -0.1542 -0.6572
  337MOL0     C45398   4.581   5.672   2.969 -0.1225  0.5822  0.1370
  337MOL0     C45399   4.634   5.703   2.829  0.1904 -1.0359 -1.0657
  337MOL0     C45400   4.718   5.592   2.775 -0.5017  0.5243 -0.0620
  337MOL0     C45401   4.755   5.617   2.627 -0.6384  0.4424  0.0551
  337MOL0     C45402   4.860   5.726   2.619  0.1630 -0.1650 -0.0486
  337MOL0     C45403   4.918   5.749   2.470 -0.2583  0.3464  0.1480
  337MOL0    Cl45404   4.996   5.595   2.426  0.3449  0.3186  0.1868
  337MOL0     C45405   4.448   6.102   2.979 -0.2183  0.5058 -0.5696
  337MOL0     C45406   4.492   6.226   3.021  0.2450 -0.6198  0.5269
  337MOL0     O45407   4.544   6.520   2.957  0.5734 -0.1037  1.0127
  337MOL0     C45408   4.499   6.664   3.282  0.3821  0.2206  0.5063
  337MOL0     C45409   4.530   6.774   3.346  0.6835 -0.4421 -0.0191
  337MOL0     N45410   4.841   6.996   3.878 -0.5721 -0.0400 -0.0871
  337MOL0     N45411   4.941   6.956   3.960 -0.1380 -0.1800 -0.0214
  337MOL0     C45412   4.941   6.038   3.664 -0.2479 -0.2636 -0.4884
  337MOL0     C45413   4.883   5.923   3.705  0.6676  0.8151 -0.2537
  337MOL0     C45414   4.574   5.645   3.959  0.2715  0.1575  0.6483
  337MOL0     C45415   4.526   5.615   4.085  0.0838  0.2695 -0.7150
  337MOL0     C45416   4.475   5.493   4.119 -0.9463 -0.3310 -0.3186
  337MOL0     C45417   4.479   5.385   4.028  0.5007 -0.1981  0.1973
  337MOL0     O45418   4.446   5.254   4.077  0.2347  0.5406  0.0280
  337MOL0     C45419   4.477   5.137   4.005  0.9442 -0.1292  0.4704
  337MOL0     C45420   4.365   5.132   3.898  0.3411 -0.1979 -0.2333
  337MOL0     C45421   4.409   5.070   3.765  0.0725 -0.1913  0.5017
  337MOL0     C45422   4.276   5.021   3.690  0.6043 -0.0124  0.4542
  337MOL0     C45423   4.183   4.921   3.758 -0.3012 -0.0497 -0.1838
  337MOL0     C45424   4.101   4.846   3.805 -0.0455 -0.6379 -0.3421
  337MOL0     C45425   4.527   5.416   3.897  0.9437  0.9267 -0.6972
  337MOL0     C45426   4.570   5.541   3.862 -0.5046 -0.1231  0.0246
  337MOL0     C45427   4.611   5.564   3.719 -0.2854 -0.1779  0.1384
  337MOL0     H45428   4.787   6.031   4.020  0.9711  3.0381 -0.5992
  337MOL0     H45429   4.947   6.207   3.940  0.3788  2.1005 -2.1021
  337MOL0     H45430   5.151   6.189   3.561  0.0310  0.1928  0.3351
  337MOL0     H45431   5.028   6.303   3.530  1.5987 -0.5927 -0.3440
  337MOL0     H45432   5.262   6.397   3.546  0.3079 -2.3312  0.8168
  337MOL0     H45433   5.260   6.369   3.708  0.8589  1.3394  0.1150
  337MOL0     H45434   5.060   6.527   3.739 -1.1367  0.9233 -1.0852
  337MOL0     H45435   5.050   6.541   3.562 -0.4642 -0.6958 -0.3725
  337MOL0     H45436   5.286   6.641   3.723  0.2623 -0.3019  0.4154
  337MOL0     H45437   5.278   6.632   3.541  2.0518  0.5842  1.7669
  337MOL0     H45438   5.121   6.808   3.529  3.5233  4.1373  0.9067
  337MOL0     H45439   5.048   6.751   3.672  0.2253 -3.5908 -0.8934
  337MOL0     H45440   5.320   6.871   3.668  0.2521 -3.9510  0.4918
  337MOL0     H45441   5.175   6.976   3.682 -3.9749 -0.5315 -0.9471
  337MOL0     H45442   5.303   6.805   3.892 -0.8159 -1.2049  1.6722
  337MOL0     H45443   5.131   6.785   3.882 -1.9050  1.2607 -1.7133
  337MOL0     H45444   5.202   6.965   4.046  3.3568 -0.8251 -0.0019
  337MOL0     H45445   5.254   7.055   3.898 -1.1138  0.2139 -0.4994
  337MOL0     H45446   5.082   7.210   3.816  1.4161 -2.0697  0.3011
  337MOL0     H45447   4.703   7.192   3.760  0.6334 -2.3902  0.9051
  337MOL0     H45448   4.842   7.294   3.731  1.0035 -0.2748 -0.1368
  337MOL0     H45449   4.715   7.194   3.521 -2.2855 -4.2390  0.0113
  337MOL0     H45450   4.897   7.209   3.540  1.4643 -1.6150  1.3645
  337MOL0     H45451   4.721   6.956   3.607  0.0753 -1.2228 -1.3499
  337MOL0     H45452   4.885   6.958   3.570  0.3859 -0.3287 -2.3840
  337MOL0     H45453   4.811   6.888   3.366 -1.8411 -0.3120 -0.4730
  337MOL0     H45454   4.816   7.072   3.344 -1.9299  2.6560 -1.5752
  337MOL0     H45455   4.615   6.966   3.085 -0.4651  1.5072  0.4426
  337MOL0     H45456   4.554   6.758   2.962 -1.9647  0.4826 -0.9897
  337MOL0     H45457   4.262   6.314   3.232 -1.3666 -0.2953 -1.2361
  337MOL0     H45458   4.202   6.079   3.200 -2.5477  1.4516 -1.9164
  337MOL0     H45459   4.319   5.735   2.927  0.6547 -0.9730  1.3850
  337MOL0     H45460   4.406   5.866   2.852  2.7986  1.6345  1.2585
  337MOL0     H45461   4.562   5.883   3.031 -2.3862  1.3339  0.2113
  337MOL0     H45462   4.474   5.771   3.130 -0.4401 -1.3517 -0.9429
  337MOL0     H45463   4.661   5.652   3.041  0.9702 -0.6369 -1.3213
  337MOL0     H45464   4.510   5.589   2.960 -1.4546  1.8413 -1.7438
  337MOL0     H45465   4.698   5.791   2.840  0.3409 -1.3696  1.3494
  337MOL0     H45466   4.552   5.725   2.760 -0.2144 -0.9562 -0.5710
  337MOL0     H45467   4.650   5.506   2.775  2.1911 -1.8305 -2.9417
  337MOL0     H45468   4.806   5.566   2.835 -0.9009  1.7191  1.0915
  337MOL0     H45469   4.796   5.521   2.593 -1.3607  0.5040 -1.0285
  337MOL0     H45470   4.667   5.638   2.566 -2.2667  1.3378  2.5500
  337MOL0     H45471   4.946   5.706   2.684  0.5004  3.0614  0.6148
  337MOL0     H45472   4.814   5.816   2.659  1.4315  1.9149 -2.9137
  337MOL0     H45473   4.839   5.774   2.398  0.3684  1.3995 -0.2024
  337MOL0     H45474   4.988   5.833   2.466 -0.1927  0.2662 -0.8257
  337MOL0     H45475   4.493   6.045   2.898 -0.4686 -0.9023  0.2383
  337MOL0     H45476   4.571   6.274   2.964 -1.1280  1.1929  0.0509
  337MOL0     H45477   4.462   6.582   3.342 -1.6295  1.7935  1.5621
  337MOL0     H45478   4.533   6.777   3.455  1.8173  0.5980 -0.0661
  337MOL0     H45479   4.991   6.032   3.568 -1.6188  0.7551 -1.2967
  337MOL0     H45480   4.875   5.847   3.628 -3.1134  0.3403  0.4314
  337MOL0     H45481   4.531   5.687   4.166 -0.4032 -0.5970  0.1222
  337MOL0     H45482   4.438   5.471   4.218 -1.2968 -3.3333 -1.0276
  337MOL0     H45483   4.484   5.052   4.073 -3.6842 -1.0857  0.0175
  337MOL0     H45484   4.574   5.155   3.957  1.8709 -2.1856  1.4244
  337MOL0     H45485   4.316   5.228   3.879 -2.9677 -1.7978 -0.4566
  337MOL0     H45486   4.289   5.074   3.951  0.6738 -2.2522 -1.9001
  337MOL0     H45487   4.473   4.985   3.791  3.4358  2.1426  0.3859
  337MOL0     H45488   4.453   5.143   3.697 -0.8672  0.2847  0.3898
  337MOL0     H45489   4.216   5.109   3.666  1.4682  1.0862  2.1072
  337MOL0     H45490   4.306   4.973   3.597 -2.5444  0.2557 -0.8032
  337MOL0     H45491   4.015   4.789   3.836 -1.2752  0.4746 -1.5287
  337MOL0     H45492   4.525   5.329   3.831 -4.3095 -3.4014  4.0671
  337MOL0     H45493   4.717   5.590   3.703 -0.3323  0.3589  0.6839
  337MOL0     H45494   4.583   5.474   3.664 -2.1613 -0.0127  0.7862
  337MOL0     H45495   4.555   5.649   3.679  2.4619  0.9694 -1.6368
  338MOL0     O45496   5.079   2.530   0.425 -0.3927  0.2003  0.5295
  338MOL0     C45497   5.204   2.522   0.421  0.0460 -0.2314  0.6831
  338MOL0     O45498   5.283   2.542   0.539  0.2498  1.1540  0.1004
  338MOL0     C45499   5.229   2.564   0.658 -0.5767 -0.2164 -0.4318
  338MOL0     C45500   5.168   2.463   0.740 -1.1638 -0.8055 -0.6356
  338MOL0     C45501   5.137   2.500   0.875  0.7353  0.2964 -0.4298
  338MOL0     C45502   5.160   2.628   0.926  0.4620 -1.1775  0.2632
  338MOL0     O45503   5.130   2.678   1.047  0.0196 -0.3063  0.6100
  338MOL0     C45504   5.062   2.595   1.144  0.2737  0.4664  0.2822
  338MOL0     C45505   4.993   2.692   1.230 -0.5086 -0.5177  0.0682
  338MOL0     C45506   4.885   2.773   1.154  0.9880 -1.1910  0.7407
  338MOL0     C45507   4.809   2.885   1.227  0.7932 -0.3640  0.4513
  338MOL0     C45508   4.687   2.921   1.147  0.0831  0.7695  0.2917
  338MOL0     C45509   4.586   2.988   1.243 -0.3486 -0.6199 -0.2295
  338MOL0     C45510   4.440   3.019   1.189 -0.7337 -0.0124 -0.1345
  338MOL0     C45511   4.350   3.051   1.302  0.3769  0.3156 -0.0011
  338MOL0     N45512   4.221   3.079   1.246 -0.2159 -0.7517  0.0467
  338MOL0     C45513   4.176   3.212   1.236  0.4882 -0.4910  0.0651
  338MOL0     C45514   4.038   3.201   1.241  0.8350 -0.4583 -0.3697
  338MOL0     C45515   3.938   3.307   1.271 -0.9670 -0.2243 -1.2505
  338MOL0     C45516   3.904   3.357   1.133  0.6942 -0.6066 -0.7368
  338MOL0     C45517   3.823   3.489   1.164 -0.5538  0.3273 -0.0128
  338MOL0     C45518   3.767   3.563   1.047 -0.8441  0.0584  0.3733
  338MOL0     O45519   3.675   3.653   1.101 -0.2231 -0.6131  0.6628
  338MOL0     C45520   3.543   3.619   1.117  0.7111 -0.1820 -0.2215
  338MOL0     C45521   3.502   3.484   1.119 -0.4273  0.3533 -0.5826
  338MOL0     C45522   3.367   3.458   1.124  1.2090 -0.0990  0.7014
  338MOL0     C45523   3.272   3.562   1.126  0.1379 -0.7608 -0.0057
  338MOL0     C45524   3.128   3.544   1.106 -0.4646 -0.1037 -0.0082
  338MOL0     O45525   3.086   3.636   1.019  0.0617  0.6518 -0.1534
  338MOL0     C45526   2.954   3.633   0.980  0.7330  0.1827  0.5416
  338MOL0     C45527   2.843   3.630   1.074  0.7380 -0.6326  0.0571
  338MOL0     C45528   2.710   3.636   1.032  0.7802 -0.7460 -0.0448
  338MOL0     C45529   2.684   3.663   0.894 -0.7226  0.5691  0.1957
  338MOL0     O45530   2.560   3.639   0.855 -0.0288  0.5370  0.4479
  338MOL0     C45531   2.487   3.752   0.792  0.6394  0.0616  0.0419
  338MOL0     C45532   2.422   3.729   0.653 -0.5780  0.2773  0.5566
  338MOL0     C45533   2.290   3.810   0.652 -0.8008  0.2448 -0.2632
  338MOL0     C45534   2.185   3.800   0.538  0.6511  0.5734  1.0924
  338MOL0     C45535   2.074   3.898   0.558 -0.4489  0.0683  0.9069
  338MOL0     C45536   2.092   4.028   0.498  0.6002 -0.6522 -0.5365
  338MOL0     C45537   1.968   4.110   0.533 -0.0196 -0.9504 -0.6920
  338MOL0     C45538   1.975   4.252   0.501 -0.0960 -0.4114 -0.0339
  338MOL0    Cl45539   1.939   4.266   0.324 -0.4835 -0.2489 -0.3614
  338MOL0     C45540   2.792   3.687   0.806  0.6031  0.5113 -0.0896
  338MOL0     C45541   2.923   3.660   0.846 -0.4298 -1.0897 -0.3500
  338MOL0     O45542   3.076   3.437   1.139 -0.2914  0.5332 -0.2170
  338MOL0     C45543   3.321   3.693   1.151 -0.3289 -0.7107  0.4699
  338MOL0     C45544   3.462   3.721   1.142 -0.3401  0.2609  0.2468
  338MOL0     N45545   4.001   3.067   1.264 -0.2670  0.2461  0.1133
  338MOL0     N45546   4.112   2.995   1.269 -0.5443 -0.4217 -0.2514
  338MOL0     C45547   5.204   2.732   0.837  0.7969 -0.4003  1.0440
  338MOL0     C45548   5.234   2.695   0.705 -0.1571  0.7524 -0.6681
  338MOL0     C45549   5.276   2.462   0.303 -0.1690 -0.3687 -0.3436
  338MOL0     C45550   5.210   2.456   0.177  0.2480 -0.3907 -0.3445
  338MOL0     C45551   5.283   2.403   0.065 -1.2094 -0.0814  0.2001
  338MOL0     C45552   5.415   2.356   0.076 -0.3229 -0.3667 -0.4498
  338MOL0     O45553   5.454   2.292  -0.036 -0.4066  0.2050 -0.7392
  338MOL0     C45554   5.522   2.176  -0.012 -0.2682 -0.5755 -0.5240
  338MOL0     C45555   5.675   2.195  -0.059 -0.3607  0.4204  0.3001
  338MOL0     C45556   5.741   2.057  -0.084 -0.6150  0.0738 -0.8581
  338MOL0     C45557   5.894   2.049  -0.081 -0.0054  0.0383 -0.4180
  338MOL0     C45558   5.947   2.080   0.052  0.4250 -0.6268 -0.1542
  338MOL0     C45559   5.971   2.111   0.168 -0.1853  0.1784  0.6320
  338MOL0     C45560   5.481   2.363   0.195  0.6183  0.2802 -0.0134
  338MOL0     C45561   5.416   2.424   0.310 -0.6968 -0.3793 -0.7923
  338MOL0     C45562   5.513   2.443   0.432  0.2790 -0.0115  0.9509
  338MOL0     H45563   5.152   2.362   0.702 -1.1347 -0.9204 -0.3438
  338MOL0     H45564   5.097   2.429   0.947 -0.1127  1.9488  0.7712
  338MOL0     H45565   4.995   2.522   1.097 -0.8628  1.3581  0.4759
  338MOL0     H45566   5.135   2.521   1.177  0.3234 -1.6776 -3.8453
  338MOL0     H45567   5.069   2.755   1.277 -0.5060 -2.1707  2.4609
  338MOL0     H45568   4.945   2.638   1.312 -2.4521 -0.0170 -0.6913
  338MOL0     H45569   4.808   2.703   1.121 -1.8447  1.6614  0.7706
  338MOL0     H45570   4.934   2.830   1.075 -2.1238  0.0212 -0.4645
  338MOL0     H45571   4.776   2.835   1.318  2.2347 -1.7485  0.2626
  338MOL0     H45572   4.870   2.969   1.261 -1.4811  1.8573 -0.6161
  338MOL0     H45573   4.697   2.993   1.066 -0.2694  0.8386  0.3058
  338MOL0     H45574   4.640   2.828   1.112 -2.1760  0.9554  2.4608
  338MOL0     H45575   4.575   2.931   1.336 -0.8786  1.1516  0.8345
  338MOL0     H45576   4.634   3.079   1.280 -1.6138  0.2299 -0.6099
  338MOL0     H45577   4.397   2.926   1.152 -0.8932 -0.0981  0.2643
  338MOL0     H45578   4.449   3.096   1.112 -0.2225 -1.1965 -1.2956
  338MOL0     H45579   4.339   2.968   1.374 -0.3220  1.7064  1.5524
  338MOL0     H45580   4.391   3.139   1.352  0.7627  0.2804 -0.2541
  338MOL0     H45581   4.233   3.305   1.234 -0.6114  0.2738 -3.7088
  338MOL0     H45582   3.859   3.273   1.339 -0.5411  4.0791  1.7945
  338MOL0     H45583   3.992   3.381   1.332  2.4484 -2.0275 -1.8451
  338MOL0     H45584   3.981   3.392   1.064  0.3050 -1.1175 -1.4423
  338MOL0     H45585   3.844   3.286   1.076  0.2684  0.0596 -1.1339
  338MOL0     H45586   3.898   3.558   1.205  1.0028 -1.0687 -0.3818
  338MOL0     H45587   3.743   3.470   1.237 -2.3059  1.9811 -1.4138
  338MOL0     H45588   3.718   3.504   0.969  0.7893  0.7836 -1.3017
  338MOL0     H45589   3.849   3.615   0.995 -0.0465 -0.4846  1.0527
  338MOL0     H45590   3.574   3.403   1.119  1.0992  1.6535 -0.9682
  338MOL0     H45591   3.334   3.355   1.112 -1.8500  0.9576 -1.1074
  338MOL0     H45592   2.863   3.638   1.180  3.1271  2.7685 -0.4683
  338MOL0     H45593   2.630   3.633   1.105  1.1516  4.3921  0.9312
  338MOL0     H45594   2.407   3.776   0.863 -0.7955 -0.2991 -1.3773
  338MOL0     H45595   2.542   3.845   0.775 -2.0373  1.4763 -1.7502
  338MOL0     H45596   2.486   3.770   0.574  0.9717 -1.7892  0.6484
  338MOL0     H45597   2.404   3.621   0.646 -0.3411 -0.1268  4.2948
  338MOL0     H45598   2.235   3.775   0.740  0.4589 -1.7802 -0.2069
  338MOL0     H45599   2.310   3.918   0.655  2.2398 -0.2454  0.1712
  338MOL0     H45600   2.142   3.700   0.531  0.8532  0.6124 -1.4534
  338MOL0     H45601   2.233   3.826   0.443 -0.1290  3.0373  1.2949
  338MOL0     H45602   2.055   3.909   0.665  2.0158  1.5428  1.2720
  338MOL0     H45603   1.985   3.878   0.497 -1.1281  1.8190  1.2468
  338MOL0     H45604   2.181   4.068   0.547  0.5031 -0.9988 -0.0613
  338MOL0     H45605   2.103   4.012   0.391 -0.3998  0.6742 -0.8624
  338MOL0     H45606   1.952   4.106   0.641 -2.4386 -0.4157 -0.9736
  338MOL0     H45607   1.883   4.069   0.477 -1.1513 -0.6005  0.7384
  338MOL0     H45608   1.907   4.305   0.569 -0.4394  2.8707 -2.6990
  338MOL0     H45609   2.074   4.282   0.534 -0.1028 -0.9359  0.4884
  338MOL0     H45610   2.775   3.699   0.699  2.1581 -1.1110 -0.5679
  338MOL0     H45611   3.011   3.660   0.783 -1.1588 -0.9834 -1.3792
  338MOL0     H45612   3.248   3.770   1.171 -0.3251 -0.5980  0.0657
  338MOL0     H45613   3.496   3.824   1.129  0.2639 -0.0455 -0.6939
  338MOL0     H45614   5.214   2.831   0.878  2.5929 -0.7223  1.4639
  338MOL0     H45615   5.269   2.758   0.624 -3.6510 -0.0690 -3.0081
  338MOL0     H45616   5.107   2.482   0.154  0.1854 -0.0852  0.2653
  338MOL0     H45617   5.237   2.411  -0.033  1.4693 -0.4795 -1.1847
  338MOL0     H45618   5.469   2.102  -0.074 -1.9883  2.3027 -2.7387
  338MOL0     H45619   5.522   2.147   0.094  1.7214 -0.1108 -0.3694
  338MOL0     H45620   5.739   2.242   0.016  3.2516  0.5615 -2.6422
  338MOL0     H45621   5.682   2.263  -0.144  1.9526  1.6512  1.3967
  338MOL0     H45622   5.699   2.015  -0.176 -0.7601 -0.6807 -0.4544
  338MOL0     H45623   5.713   1.998   0.004  0.8670  1.0434  0.3248
  338MOL0     H45624   5.925   1.951  -0.118 -1.2928  0.1360 -1.9005
  338MOL0     H45625   5.941   2.117  -0.152  0.6986 -1.0046 -0.9827
  338MOL0     H45626   6.010   2.130   0.266  1.4673  0.3695 -0.0364
  338MOL0     H45627   5.580   2.323   0.214 -1.2394 -4.5819  0.7102
  338MOL0     H45628   5.600   2.377   0.430  1.3253  1.1570  3.3396
  338MOL0     H45629   5.558   2.543   0.435 -1.6298  0.9016  0.7514
  338MOL0     H45630   5.480   2.412   0.531 -1.3602 -0.3038  0.3452
  339MOL0     O45631   8.873   5.760   6.725 -0.3458 -0.9101 -0.5291
  339MOL0     C45632   8.802   5.862   6.724 -0.2566 -0.4018  0.1633
  339MOL0     O45633   8.808   5.959   6.626 -0.2307 -0.3897  0.3544
  339MOL0     C45634   8.825   5.912   6.498 -0.3487  0.3973 -0.1025
  339MOL0     C45635   8.711   5.867   6.441  0.8042 -0.4395  0.2678
  339MOL0     C45636   8.711   5.818   6.310  0.1188 -0.1167 -0.5379
  339MOL0     C45637   8.828   5.816   6.237 -0.6731  0.0417 -0.1543
  339MOL0     O45638   8.833   5.744   6.122 -0.2038 -0.3384  0.4937
  339MOL0     C45639   8.727   5.759   6.027  0.1380 -0.1649  0.8240
  339MOL0     C45640   8.753   5.685   5.906 -0.4671  0.3415  0.5895
  339MOL0     C45641   8.701   5.758   5.786  0.1881  0.6347 -0.1037
  339MOL0     C45642   8.730   5.679   5.660 -0.0465  0.1166  0.6184
  339MOL0     C45643   8.625   5.709   5.547  0.1473 -1.1393  0.8397
  339MOL0     C45644   8.472   5.692   5.573 -0.7895  0.3887 -0.0761
  339MOL0     C45645   8.427   5.545   5.584  0.0079  0.3369  0.0897
  339MOL0     C45646   8.306   5.544   5.674 -0.1416 -0.6698  0.7576
  339MOL0     N45647   8.319   5.594   5.815 -0.0777  0.3338 -0.1746
  339MOL0     C45648   8.381   5.531   5.918 -0.2716  0.3373  0.1323
  339MOL0     C45649   8.343   5.611   6.020 -0.5874  0.2829  0.2766
  339MOL0     C45650   8.388   5.600   6.162 -0.1485  0.2444  0.6796
  339MOL0     C45651   8.274   5.580   6.260  0.7954 -0.4891 -0.0973
  339MOL0     C45652   8.341   5.535   6.385 -0.7805  0.3938 -0.7497
  339MOL0     C45653   8.253   5.467   6.491  0.1043 -0.9113  0.6277
  339MOL0     O45654   8.306   5.499   6.629  0.7210  0.1252  0.4638
  339MOL0     C45655   8.266   5.619   6.672  0.7574 -0.2648 -0.1779
  339MOL0     C45656   8.353   5.725   6.693  0.7109  0.6636 -0.3262
  339MOL0     C45657   8.309   5.847   6.743 -0.0404  0.4303 -0.3414
  339MOL0     C45658   8.180   5.867   6.791  0.6430 -0.1129  0.0919
  339MOL0     C45659   8.142   5.988   6.850 -0.4565 -0.1073  0.1988
  339MOL0     O45660   8.008   5.995   6.894  0.4626 -0.3587  0.0289
  339MOL0     C45661   7.955   6.095   6.970 -0.4321  0.8556 -0.6527
  339MOL0     C45662   7.889   6.043   7.080  0.2806  0.7993 -0.4680
  339MOL0     C45663   7.822   6.142   7.159 -0.5905  0.1222 -0.1204
  339MOL0     C45664   7.825   6.273   7.132 -0.5297 -0.6901 -0.5488
  339MOL0     O45665   7.737   6.369   7.192 -0.3193 -0.3346 -0.2359
  339MOL0     C45666   7.651   6.333   7.309  0.1627  0.5555 -0.9306
  339MOL0     C45667   7.504   6.343   7.262  0.1479 -0.7302 -0.2461
  339MOL0     C45668   7.455   6.246   7.153  0.1479  0.2854 -0.1039
  339MOL0     C45669   7.459   6.093   7.183  0.7489  0.6403 -0.0644
  339MOL0     C45670   7.364   6.014   7.080 -0.3404 -0.2547  1.2877
  339MOL0     C45671   7.426   6.000   6.938 -0.1405  0.4909  0.4541
  339MOL0     C45672   7.559   5.934   6.932 -0.3618 -0.0996  0.2314
  339MOL0     C45673   7.557   5.797   6.993 -0.0359  0.0081  0.6382
  339MOL0    Cl45674   7.713   5.724   6.953 -0.0185 -0.2115 -0.1669
  339MOL0     C45675   7.901   6.317   7.027 -1.2559 -1.2332 -0.1221
  339MOL0     C45676   7.971   6.231   6.946  0.6192  0.4577  0.6295
  339MOL0     O45677   8.222   6.081   6.863  0.2530  0.3010  0.1505
  339MOL0     C45678   8.094   5.761   6.772  0.8887 -0.2856 -0.7213
  339MOL0     C45679   8.131   5.636   6.717 -0.6529 -0.5107 -1.3267
  339MOL0     N45680   8.263   5.715   5.976 -0.5092  1.0072 -0.4110
  339MOL0     N45681   8.257   5.706   5.858  0.0734  0.5834 -0.1943
  339MOL0     C45682   8.949   5.879   6.283 -0.0252 -0.2418  0.1918
  339MOL0     C45683   8.948   5.913   6.422  0.2189  0.3203 -0.3298
  339MOL0     C45684   8.725   5.902   6.853 -0.8016  0.3320  0.8646
  339MOL0     C45685   8.692   6.033   6.868 -0.9180  0.4161  0.6856
  339MOL0     C45686   8.621   6.080   6.981  0.7935 -1.4608 -0.5349
  339MOL0     C45687   8.616   5.999   7.097 -0.9960  0.0527 -0.2502
  339MOL0     O45688   8.569   6.042   7.221 -0.1928  0.5233  0.1298
  339MOL0     C45689   8.497   6.165   7.232 -0.0806  0.6145 -0.4096
  339MOL0     C45690   8.359   6.135   7.176 -0.6674 -0.6648 -0.3761
  339MOL0     C45691   8.266   6.248   7.197  1.2997  0.4200 -0.1589
  339MOL0     C45692   8.246   6.268   7.350 -0.5929 -0.0827 -1.6165
  339MOL0     C45693   8.143   6.364   7.363  0.2909  0.0587  0.1753
  339MOL0     C45694   8.033   6.420   7.373 -0.9763  1.5435 -0.8674
  339MOL0     C45695   8.667   5.869   7.091  0.5238  0.7473 -0.1625
  339MOL0     C45696   8.701   5.812   6.961 -0.0926  1.1426 -0.0778
  339MOL0     C45697   8.739   5.660   6.954 -1.0242 -0.2929 -0.4819
  339MOL0     H45698   8.616   5.881   6.492  1.1657  1.7312  0.4719
  339MOL0     H45699   8.613   5.779   6.285 -0.4184 -2.5056  4.1044
  339MOL0     H45700   8.643   5.709   6.076  3.8862 -6.2285  2.0063
  339MOL0     H45701   8.703   5.863   6.002 -1.1957 -0.6493  0.0043
  339MOL0     H45702   8.701   5.588   5.911 -0.4390  0.2294 -0.9295
  339MOL0     H45703   8.860   5.663   5.906 -0.4887  0.2379  0.5975
  339MOL0     H45704   8.736   5.862   5.786  1.2649  0.2870 -0.1930
  339MOL0     H45705   8.592   5.761   5.791 -0.1336 -0.5693 -3.4931
  339MOL0     H45706   8.830   5.701   5.621 -0.8370  0.9878 -1.0374
  339MOL0     H45707   8.717   5.573   5.683 -2.2132  0.4610  1.1987
  339MOL0     H45708   8.643   5.815   5.528 -1.6595 -0.7372  1.2506
  339MOL0     H45709   8.657   5.645   5.464 -0.5799 -0.8262  0.3071
  339MOL0     H45710   8.441   5.744   5.664  3.1856 -1.2712  2.5218
  339MOL0     H45711   8.425   5.728   5.481 -1.2355 -1.1026 -0.4667
  339MOL0     H45712   8.507   5.480   5.622 -0.8363 -1.0485 -0.4216
  339MOL0     H45713   8.405   5.503   5.485 -0.3813  1.1476 -0.1742
  339MOL0     H45714   8.239   5.618   5.631 -0.0665 -0.3916  1.1148
  339MOL0     H45715   8.247   5.452   5.667 -0.9137 -0.0890 -0.6030
  339MOL0     H45716   8.441   5.441   5.917 -2.1477 -0.9792 -1.2991
  339MOL0     H45717   8.463   5.520   6.172  0.2059  0.1322 -2.0384
  339MOL0     H45718   8.439   5.695   6.182 -0.4765  0.5196  0.2209
  339MOL0     H45719   8.218   5.671   6.282 -1.1191 -1.1726 -1.8223
  339MOL0     H45720   8.207   5.504   6.219  0.2425 -0.1069  0.0935
  339MOL0     H45721   8.406   5.608   6.435 -0.3634 -0.4329 -0.0493
  339MOL0     H45722   8.420   5.462   6.367 -0.6530 -0.6911  3.2470
  339MOL0     H45723   8.244   5.359   6.480  0.6732 -0.9687  0.6954
  339MOL0     H45724   8.153   5.509   6.482  0.7878  0.4732 -1.1948
  339MOL0     H45725   8.457   5.703   6.669  0.1861 -0.7679 -1.4043
  339MOL0     H45726   8.385   5.923   6.744  0.4571 -0.0293 -1.7477
  339MOL0     H45727   7.889   5.937   7.105  0.9034  1.3643  2.2958
  339MOL0     H45728   7.779   6.106   7.252 -1.0227 -1.2270 -0.8190
  339MOL0     H45729   7.655   6.231   7.348  1.9860  1.6270  1.9620
  339MOL0     H45730   7.673   6.402   7.390 -0.6557 -1.6208  1.2620
  339MOL0     H45731   7.429   6.327   7.339 -2.1560 -1.5452 -2.5218
  339MOL0     H45732   7.487   6.439   7.213 -3.1413 -1.0960 -0.0529
  339MOL0     H45733   7.360   6.287   7.120 -0.1344  1.4564  1.9730
  339MOL0     H45734   7.523   6.259   7.068 -3.2543 -0.4070 -3.1853
  339MOL0     H45735   7.418   6.061   7.279 -0.0343 -0.5620 -0.7677
  339MOL0     H45736   7.563   6.056   7.181  1.1125  1.6655 -1.4619
  339MOL0     H45737   7.268   6.067   7.075  0.2911  0.8426 -1.4317
  339MOL0     H45738   7.346   5.916   7.123  1.6583 -1.5112 -0.5280
  339MOL0     H45739   7.354   5.940   6.881  2.0850 -1.0115 -0.9382
  339MOL0     H45740   7.419   6.090   6.876 -1.7655  2.1452  2.8593
  339MOL0     H45741   7.637   6.006   6.961  0.4406 -0.6480 -0.4910
  339MOL0     H45742   7.583   5.920   6.826 -1.1713  0.6401 -0.0582
  339MOL0     H45743   7.536   5.800   7.101  1.3483 -1.5237  0.9846
  339MOL0     H45744   7.481   5.733   6.947 -1.8191  2.2956  0.2329
  339MOL0     H45745   7.877   6.422   7.011 -2.0133 -1.5136 -0.9255
  339MOL0     H45746   8.035   6.254   6.861  0.6945 -2.0992 -0.0938
  339MOL0     H45747   7.995   5.778   6.813  2.0653 -0.3422  2.3776
  339MOL0     H45748   8.066   5.549   6.713 -0.8006 -0.5715  0.9354
  339MOL0     H45749   9.039   5.886   6.223  1.7224  3.8745  2.8438
  339MOL0     H45750   9.028   5.942   6.489 -0.5655  0.8495  0.4007
  339MOL0     H45751   8.709   6.101   6.785 -2.4516  1.7431  1.4178
  339MOL0     H45752   8.579   6.179   6.971 -1.4227 -2.2549  0.4899
  339MOL0     H45753   8.548   6.241   7.172  0.9589 -0.2737 -0.6737
  339MOL0     H45754   8.488   6.201   7.335  0.6120  0.5294 -0.3128
  339MOL0     H45755   8.327   6.043   7.225 -2.9699 -0.6477 -1.6708
  339MOL0     H45756   8.353   6.116   7.068 -1.0925 -0.9108 -0.3112
  339MOL0     H45757   8.172   6.213   7.154  1.9634 -2.3312  0.4630
  339MOL0     H45758   8.311   6.330   7.140  1.4401  0.7719  0.4432
  339MOL0     H45759   8.222   6.177   7.406 -0.0824  0.3032 -0.7417
  339MOL0     H45760   8.336   6.302   7.402 -0.3849  0.0622 -2.0673
  339MOL0     H45761   7.936   6.450   7.408 -1.1547 -1.6547  1.8405
  339MOL0     H45762   8.670   5.816   7.186  3.2880  2.1021  0.6229
  339MOL0     H45763   8.843   5.635   6.932  0.1643  1.8082  2.1854
  339MOL0     H45764   8.712   5.619   7.052  0.0497 -0.4322 -0.2293
  339MOL0     H45765   8.669   5.612   6.885 -0.8014 -2.1567  0.5111
  340MOL0     O45766   7.057   5.921  10.776 -0.4900 -0.2088  0.2931
  340MOL0     C45767   6.990   6.020  10.809  0.2546 -0.7776  0.2881
  340MOL0     O45768   6.849   6.029  10.790  0.2661 -0.0500  0.4281
  340MOL0     C45769   6.785   5.919  10.745 -0.6595 -0.1395 -0.2882
  340MOL0     C45770   6.802   5.854  10.627 -0.4645  0.5448 -0.1886
  340MOL0     C45771   6.746   5.727  10.601 -0.4719 -0.7388 -0.3118
  340MOL0     C45772   6.664   5.666  10.695 -0.0265 -0.2021  0.3671
  340MOL0     O45773   6.620   5.542  10.676  0.2761  0.6600 -0.1749
  340MOL0     C45774   6.523   5.525  10.567  0.4177  1.3198  0.9534
  340MOL0     C45775   6.513   5.378  10.524 -0.2759 -0.3722 -0.2338
  340MOL0     C45776   6.503   5.272  10.632 -1.0638 -0.0202  0.3814
  340MOL0     C45777   6.635   5.215  10.695 -0.1418  0.1201 -0.3155
  340MOL0     C45778   6.600   5.137  10.825 -0.2378  0.4824  0.0441
  340MOL0     C45779   6.483   5.031  10.811 -0.4086 -0.6451  0.4326
  340MOL0     C45780   6.513   4.935  10.688 -0.2244 -0.3468  0.8126
  340MOL0     C45781   6.641   4.841  10.705  0.2701  0.0620  0.2203
  340MOL0     N45782   6.653   4.750  10.594 -0.4275 -0.3930  1.0805
  340MOL0     C45783   6.663   4.616  10.596 -0.0752  0.7078  0.4267
  340MOL0     C45784   6.688   4.583  10.465 -0.5583  0.3527 -0.8404
  340MOL0     C45785   6.722   4.443  10.433  0.5244 -0.1422  0.0880
  340MOL0     C45786   6.740   4.408  10.291  0.2857 -1.4867 -0.6717
  340MOL0     C45787   6.725   4.255  10.261  0.2182 -0.6256 -0.0463
  340MOL0     C45788   6.724   4.218  10.114 -0.4802  0.1891  0.0832
  340MOL0     O45789   6.618   4.279  10.045 -0.1613 -0.3501  0.3934
  340MOL0     C45790   6.612   4.231   9.917 -0.7282  0.5208  0.0275
  340MOL0     C45791   6.542   4.121   9.882 -0.9879  0.5634 -0.2910
  340MOL0     C45792   6.560   4.074   9.749 -0.3341  0.0262 -1.1296
  340MOL0     C45793   6.633   4.138   9.652 -1.3698  1.4289  0.3245
  340MOL0     C45794   6.654   4.080   9.516 -0.8347  0.4773  0.7376
  340MOL0     O45795   6.617   3.947   9.487  0.1833 -0.3513  0.0577
  340MOL0     C45796   6.621   3.902   9.357  0.5246  0.1233 -0.2370
  340MOL0     C45797   6.634   3.768   9.348  0.5247  0.0059 -0.5747
  340MOL0     C45798   6.630   3.702   9.224 -0.0429 -1.0977 -0.0967
  340MOL0     C45799   6.610   3.767   9.108 -0.6526 -0.3878 -0.5547
  340MOL0     O45800   6.598   3.689   9.000  0.1366  0.5029 -0.0031
  340MOL0     C45801   6.621   3.742   8.870 -0.5268  0.8868  0.1462
  340MOL0     C45802   6.579   3.640   8.765  0.2069  1.3362  0.6569
  340MOL0     C45803   6.429   3.617   8.760 -0.6092  0.3164 -0.1620
  340MOL0     C45804   6.398   3.495   8.669 -0.3164 -0.5140  0.6764
  340MOL0     C45805   6.250   3.477   8.676  0.5964 -0.5449  0.6033
  340MOL0     C45806   6.201   3.362   8.594  0.1184 -0.1085  0.1469
  340MOL0     C45807   6.050   3.362   8.595  0.7206  0.1668 -0.1752
  340MOL0     C45808   5.987   3.237   8.675 -0.1780  0.0217  0.7253
  340MOL0    Cl45809   5.811   3.264   8.702 -0.9443  0.0990  0.5694
  340MOL0     C45810   6.579   3.906   9.110 -0.8573 -0.5042 -0.2184
  340MOL0     C45811   6.587   3.979   9.233 -0.6598 -0.6180  0.3612
  340MOL0     O45812   6.707   4.152   9.435 -0.2991  0.5204 -0.0208
  340MOL0     C45813   6.704   4.253   9.697  0.7323  0.5989  0.3719
  340MOL0     C45814   6.693   4.302   9.827 -0.4414 -0.9506 -0.4202
  340MOL0     N45815   6.682   4.699  10.384  0.2119 -0.0655 -0.5833
  340MOL0     N45816   6.664   4.796  10.462  0.1450  0.5877  0.8643
  340MOL0     C45817   6.632   5.738  10.807  0.6645 -1.2326 -0.0365
  340MOL0     C45818   6.692   5.864  10.833  0.2457 -0.0580 -0.6189
  340MOL0     C45819   7.059   6.135  10.869  0.9736  0.7477 -0.0496
  340MOL0     C45820   6.974   6.252  10.911 -0.4609  0.0162  0.6686
  340MOL0     C45821   7.017   6.354  11.001  0.4134  0.3688 -0.3970
  340MOL0     C45822   7.146   6.332  11.057  0.0501  0.6250 -0.1141
  340MOL0     O45823   7.207   6.420  11.145 -0.3678 -0.2530  0.8118
  340MOL0     C45824   7.158   6.554  11.163  0.7083  0.5800 -0.4857
  340MOL0     C45825   7.209   6.607  11.301 -0.4690 -0.1197  1.1186
  340MOL0     C45826   7.150   6.543  11.434 -0.1895 -0.2198 -0.1584
  340MOL0     C45827   7.091   6.652  11.531  0.0436 -0.1126  0.0249
  340MOL0     C45828   7.196   6.745  11.574  0.1836  0.4841  0.9992
  340MOL0     C45829   7.261   6.822  11.632 -0.8448  0.1417 -0.4983
  340MOL0     C45830   7.237   6.228  11.006 -0.3911 -0.3081  0.3453
  340MOL0     C45831   7.196   6.145  10.910 -0.1217  0.8954  0.1543
  340MOL0     C45832   7.306   6.047  10.853  0.5786 -0.0366  0.0275
  340MOL0     H45833   6.873   5.895  10.556 -1.7658  2.0536 -0.6776
  340MOL0     H45834   6.767   5.674  10.509  3.5241  1.7427 -1.0379
  340MOL0     H45835   6.423   5.553  10.603 -1.0143 -0.3397 -1.4600
  340MOL0     H45836   6.540   5.583  10.477  0.4476 -0.0434  0.0563
  340MOL0     H45837   6.599   5.353  10.460 -0.0545  3.0922 -1.4918
  340MOL0     H45838   6.423   5.372  10.461 -1.8006 -2.1669  1.9718
  340MOL0     H45839   6.447   5.195  10.577 -0.2613 -0.7694  0.5975
  340MOL0     H45840   6.445   5.329  10.705 -1.2489  3.5983 -2.3202
  340MOL0     H45841   6.685   5.140  10.634 -2.4836 -3.2270  1.5675
  340MOL0     H45842   6.694   5.306  10.710 -1.9352  1.5043 -1.1674
  340MOL0     H45843   6.695   5.091  10.852  0.6072  2.8214  1.4145
  340MOL0     H45844   6.584   5.200  10.914 -1.9240 -2.2563  1.8416
  340MOL0     H45845   6.484   4.971  10.902  1.8021 -0.9346  0.2751
  340MOL0     H45846   6.390   5.084  10.788 -1.3966 -3.3852 -2.7252
  340MOL0     H45847   6.523   4.998  10.599  0.4054  0.7808  1.6498
  340MOL0     H45848   6.425   4.872  10.670  0.8746 -1.8716  0.5710
  340MOL0     H45849   6.734   4.896  10.718  0.9751 -0.7870 -1.0201
  340MOL0     H45850   6.629   4.780  10.795  2.3912 -3.0940 -1.4823
  340MOL0     H45851   6.658   4.550  10.681 -5.2419  0.1344 -0.0283
  340MOL0     H45852   6.809   4.414  10.492  0.3441  0.5495  0.7119
  340MOL0     H45853   6.639   4.378  10.462  0.7808 -1.1305 -1.2548
  340MOL0     H45854   6.668   4.468  10.236  0.7230 -0.2128  0.0885
  340MOL0     H45855   6.841   4.436  10.260  2.3362 -2.2788  4.3099
  340MOL0     H45856   6.623   4.235  10.295 -0.2669  0.5959 -0.6895
  340MOL0     H45857   6.790   4.179  10.305 -0.9509 -0.7477  1.5396
  340MOL0     H45858   6.709   4.111  10.097 -3.0549  0.3645  0.8553
  340MOL0     H45859   6.824   4.248  10.083  1.6747 -4.3512  1.7739
  340MOL0     H45860   6.480   4.067   9.953  0.8467 -0.0652  0.9016
  340MOL0     H45861   6.505   3.981   9.737  0.4819 -0.6233  0.0994
  340MOL0     H45862   6.652   3.704   9.434 -1.6469  0.6523  0.4398
  340MOL0     H45863   6.652   3.596   9.229  1.2455 -0.7998  2.5151
  340MOL0     H45864   6.556   3.830   8.871 -3.1905 -0.7845  4.6847
  340MOL0     H45865   6.726   3.770   8.861  0.4137 -0.7172  4.0898
  340MOL0     H45866   6.620   3.663   8.667 -2.4972  3.4246 -0.0912
  340MOL0     H45867   6.622   3.546   8.802 -0.0698  1.1566  0.5239
  340MOL0     H45868   6.393   3.603   8.862  2.1642 -0.6661  0.7759
  340MOL0     H45869   6.379   3.701   8.711  0.7790  0.8430 -0.7051
  340MOL0     H45870   6.452   3.406   8.703  0.9228 -0.0547 -0.0227
  340MOL0     H45871   6.411   3.525   8.565  1.1004 -2.0339  0.3754
  340MOL0     H45872   6.202   3.571   8.646 -0.7965 -1.1152  1.0154
  340MOL0     H45873   6.209   3.449   8.773 -0.5716  1.9832  0.9189
  340MOL0     H45874   6.236   3.370   8.490  3.1346 -0.8378  1.0046
  340MOL0     H45875   6.232   3.261   8.621 -1.4749 -0.6537  0.0221
  340MOL0     H45876   6.009   3.367   8.494 -1.5527  3.5670  0.7463
  340MOL0     H45877   6.006   3.449   8.644  1.7499  0.6433 -0.0844
  340MOL0     H45878   6.000   3.147   8.613 -1.8459 -0.4186  0.9710
  340MOL0     H45879   6.040   3.215   8.768  0.0578 -3.0572 -0.0048
  340MOL0     H45880   6.555   3.957   9.018 -0.0975  0.0032 -0.1410
  340MOL0     H45881   6.564   4.085   9.239 -2.2504 -0.9434  0.4862
  340MOL0     H45882   6.774   4.304   9.631 -0.4667 -0.0262 -1.4646
  340MOL0     H45883   6.746   4.388   9.866 -0.2688  1.0524 -4.5290
  340MOL0     H45884   6.571   5.691  10.883 -2.0300  2.6168  0.4260
  340MOL0     H45885   6.667   5.914  10.926  3.3498  0.7996 -0.1608
  340MOL0     H45886   6.869   6.259  10.885 -0.2387  0.9885 -0.0125
  340MOL0     H45887   6.935   6.425  11.010  0.2332  0.0966  0.1738
  340MOL0     H45888   7.049   6.559  11.161  0.5215 -1.5540  0.8882
  340MOL0     H45889   7.192   6.612  11.076 -1.0317  1.5513 -0.5554
  340MOL0     H45890   7.198   6.715  11.289 -0.0898 -0.2932 -1.6123
  340MOL0     H45891   7.315   6.579  11.308 -1.1601 -3.2497  0.6288
  340MOL0     H45892   7.224   6.480  11.484 -1.9824 -2.6454 -0.3831
  340MOL0     H45893   7.072   6.472  11.406  1.2775 -1.2135 -1.9033
  340MOL0     H45894   7.009   6.702  11.479 -1.4773 -3.6510 -1.3052
  340MOL0     H45895   7.046   6.598  11.615  1.0296 -3.4479 -1.4173
  340MOL0     H45896   7.313   6.887  11.698 -1.0541 -1.5203  1.4184
  340MOL0     H45897   7.337   6.218  11.046  0.2322  4.3505  0.4973
  340MOL0     H45898   7.312   6.051  10.744  2.6282  0.3164  0.1058
  340MOL0     H45899   7.409   6.067  10.885  2.0286 -3.2954 -2.1239
  340MOL0     H45900   7.288   5.942  10.880  2.2572 -0.4547 -0.3117
  341MOL0     O45901   5.665   6.624   4.948 -0.3623  0.5832  0.2747
  341MOL0     C45902   5.613   6.712   4.880  0.6189 -0.4606  0.1814
  341MOL0     O45903   5.671   6.784   4.781  0.1576  0.1493 -1.3672
  341MOL0     C45904   5.798   6.751   4.752  0.1355  0.4766  0.6623
  341MOL0     C45905   5.907   6.832   4.786 -0.2375  0.9025 -1.0668
  341MOL0     C45906   6.034   6.792   4.742  0.7858  0.3659  0.0092
  341MOL0     C45907   6.046   6.701   4.648  0.0105  0.2260  0.3598
  341MOL0     O45908   6.152   6.690   4.568 -1.0777  0.1986 -0.6263
  341MOL0     C45909   6.258   6.789   4.569  1.2461 -0.7166 -0.0490
  341MOL0     C45910   6.325   6.813   4.430 -0.0889 -0.0972  0.1534
  341MOL0     C45911   6.369   6.681   4.369  0.4350  0.4102 -0.1185
  341MOL0     C45912   6.451   6.709   4.240  0.2608  0.0359 -0.1222
  341MOL0     C45913   6.364   6.723   4.113  0.0658 -0.3009 -0.3211
  341MOL0     C45914   6.439   6.681   3.982  0.4123  1.1187 -0.7351
  341MOL0     C45915   6.499   6.541   3.974  0.2241 -0.2546  0.3435
  341MOL0     C45916   6.516   6.501   3.823  0.3459 -0.0335 -0.1765
  341MOL0     N45917   6.576   6.367   3.784  0.4768  0.0500 -0.1949
  341MOL0     C45918   6.706   6.327   3.825  0.3416  0.3575  0.0564
  341MOL0     C45919   6.710   6.197   3.791 -0.6339 -0.0855 -0.3425
  341MOL0     C45920   6.818   6.096   3.808  0.7178  0.6093 -0.3481
  341MOL0     C45921   6.868   6.022   3.680 -0.6777  0.5100 -0.5546
  341MOL0     C45922   6.991   5.945   3.724  0.8519 -0.0560  1.0191
  341MOL0     C45923   6.973   5.794   3.744  0.7113 -0.1450 -0.1744
  341MOL0     O45924   7.094   5.730   3.784 -0.1121  0.0750  0.0680
  341MOL0     C45925   7.072   5.591   3.795  0.5882 -0.4475 -0.9915
  341MOL0     C45926   7.159   5.515   3.727  0.5762 -0.1532 -0.3354
  341MOL0     C45927   7.136   5.379   3.722 -0.5435 -0.5463  0.3241
  341MOL0     C45928   7.047   5.306   3.794  0.0699 -0.6041 -0.1059
  341MOL0     C45929   7.050   5.162   3.804 -0.3809 -0.1382  0.3480
  341MOL0     O45930   7.134   5.092   3.725 -0.0899  0.2538 -0.2825
  341MOL0     C45931   7.129   4.948   3.737 -0.0984  0.2633 -0.8943
  341MOL0     C45932   7.152   4.881   3.854  0.4929 -0.0978 -1.5992
  341MOL0     C45933   7.156   4.738   3.849  0.2603 -0.4526 -0.3621
  341MOL0     C45934   7.135   4.669   3.728 -0.4568 -0.3432 -0.0455
  341MOL0     O45935   7.113   4.529   3.712 -0.6986 -0.4027  0.1464
  341MOL0     C45936   7.095   4.440   3.824 -0.8835 -0.0641  0.7188
  341MOL0     C45937   7.032   4.302   3.789 -0.0286 -0.1810  0.3599
  341MOL0     C45938   6.890   4.307   3.781  0.9060 -0.6949 -0.1666
  341MOL0     C45939   6.829   4.223   3.898 -0.2856 -0.4388 -0.3353
  341MOL0     C45940   6.679   4.186   3.882  0.2642  0.1640  1.2442
  341MOL0     C45941   6.628   4.110   4.000  0.1155  0.4180 -0.8106
  341MOL0     C45942   6.500   4.044   3.980  0.5969  0.5408  0.2743
  341MOL0     C45943   6.473   3.953   4.104 -0.4198 -0.7685 -0.0812
  341MOL0    Cl45944   6.423   4.078   4.233 -0.5462  0.0484  0.1630
  341MOL0     C45945   7.124   4.741   3.612  0.0284 -0.3756 -0.1999
  341MOL0     C45946   7.109   4.878   3.614  0.1872 -0.2222 -0.5514
  341MOL0     O45947   6.985   5.108   3.894  0.2686  0.0133  0.3959
  341MOL0     C45948   6.959   5.386   3.876 -0.7311 -0.4139  0.1909
  341MOL0     C45949   6.968   5.528   3.875 -0.4654 -0.0298  0.7544
  341MOL0     N45950   6.577   6.160   3.775 -0.4484  0.4190 -0.4276
  341MOL0     N45951   6.498   6.256   3.760  0.1648  0.3096  0.0111
  341MOL0     C45952   5.947   6.609   4.628 -0.1189 -0.3591 -0.1722
  341MOL0     C45953   5.825   6.639   4.665  0.0511 -0.3240 -0.3310
  341MOL0     C45954   5.473   6.730   4.901 -0.3625  0.1215  0.9580
  341MOL0     C45955   5.390   6.696   4.781 -0.4685 -0.0843  0.4031
  341MOL0     C45956   5.254   6.707   4.792 -0.0872 -0.6355  0.1871
  341MOL0     C45957   5.200   6.758   4.905  0.7171  0.5450  0.5098
  341MOL0     O45958   5.067   6.783   4.914  0.5314  0.0195  0.0475
  341MOL0     C45959   4.970   6.758   4.798 -1.0504  0.0181 -0.9200
  341MOL0     C45960   4.827   6.806   4.822  0.7668 -0.1832 -0.7034
  341MOL0     C45961   4.833   6.952   4.881  0.5870  0.1425 -0.3417
  341MOL0     C45962   4.691   7.009   4.902 -0.9963 -0.6598 -0.3443
  341MOL0     C45963   4.624   7.024   4.779 -0.1752 -0.2478  0.5481
  341MOL0     C45964   4.550   7.022   4.681  1.1076  0.0026 -0.3458
  341MOL0     C45965   5.271   6.777   5.021 -0.2439 -0.5301 -1.1795
  341MOL0     C45966   5.414   6.771   5.017  0.7977  0.5983  0.0724
  341MOL0     C45967   5.493   6.809   5.139  0.0944 -0.3407 -0.1221
  341MOL0     H45968   5.910   6.918   4.852  1.5846  0.7256 -0.8767
  341MOL0     H45969   6.116   6.853   4.779  1.9151 -2.2943  2.2692
  341MOL0     H45970   6.218   6.886   4.600  1.4919 -1.1874  1.8964
  341MOL0     H45971   6.343   6.756   4.630  0.9116 -1.1995  0.1570
  341MOL0     H45972   6.409   6.883   4.434 -0.7922  1.1728 -3.3490
  341MOL0     H45973   6.259   6.859   4.356  0.2469  1.4263  0.7696
  341MOL0     H45974   6.286   6.610   4.358  0.7416  0.1041 -0.5001
  341MOL0     H45975   6.434   6.626   4.438 -1.2981 -2.4782 -0.6262
  341MOL0     H45976   6.496   6.809   4.249  0.9409  0.0563 -2.9039
  341MOL0     H45977   6.521   6.626   4.224 -0.5362 -0.2482 -2.6037
  341MOL0     H45978   6.276   6.659   4.124 -0.8653  0.9030 -0.5634
  341MOL0     H45979   6.333   6.827   4.100  2.1064  0.2200 -1.4511
  341MOL0     H45980   6.364   6.688   3.902 -0.3908 -0.0130 -0.1153
  341MOL0     H45981   6.512   6.762   3.970  2.1488  0.2669  2.7347
  341MOL0     H45982   6.428   6.475   4.025 -1.9772  1.3661 -0.4628
  341MOL0     H45983   6.595   6.548   4.025  0.0412 -1.7791  0.9663
  341MOL0     H45984   6.415   6.506   3.781  0.0060 -0.3568  0.5956
  341MOL0     H45985   6.581   6.581   3.787  2.9060 -1.2815  1.3988
  341MOL0     H45986   6.786   6.389   3.863  0.7303 -0.9213  1.4453
  341MOL0     H45987   6.900   6.141   3.864  0.9798  2.1515 -1.9003
  341MOL0     H45988   6.777   6.017   3.872  2.7180 -0.0626  0.1698
  341MOL0     H45989   6.792   5.953   3.644 -2.0899  0.9016  1.4774
  341MOL0     H45990   6.900   6.099   3.609  2.5133  1.5826  1.8018
  341MOL0     H45991   7.053   5.995   3.799  1.4407  0.8115 -0.0260
  341MOL0     H45992   7.053   5.947   3.634  1.6693 -0.6603  1.5459
  341MOL0     H45993   6.934   5.733   3.663  0.9760 -2.1090  1.1047
  341MOL0     H45994   6.901   5.778   3.825 -1.3467 -1.9242 -2.2281
  341MOL0     H45995   7.225   5.570   3.661 -1.7020  2.3783 -0.6531
  341MOL0     H45996   7.194   5.329   3.645 -2.1584 -2.9468  0.5868
  341MOL0     H45997   7.167   4.930   3.950  4.4247 -0.0781 -2.0568
  341MOL0     H45998   7.172   4.683   3.941  1.1643 -0.2847 -0.4135
  341MOL0     H45999   7.192   4.430   3.875 -0.2777 -0.9971 -0.5675
  341MOL0     H46000   7.033   4.487   3.900 -0.6111 -0.5048  1.2216
  341MOL0     H46001   7.070   4.277   3.690 -1.4832  0.5361 -0.4038
  341MOL0     H46002   7.070   4.231   3.863  2.2816  0.3731 -0.2064
  341MOL0     H46003   6.851   4.409   3.791 -0.1973 -1.0324 -0.8135
  341MOL0     H46004   6.856   4.263   3.686 -1.1860 -2.5453  1.3033
  341MOL0     H46005   6.852   4.259   3.999 -0.8467 -2.4542  0.5692
  341MOL0     H46006   6.884   4.129   3.897  3.5482  1.5554 -3.3053
  341MOL0     H46007   6.685   4.119   3.796  0.8378 -1.7220  2.6773
  341MOL0     H46008   6.620   4.277   3.867 -1.3179 -0.7297  1.8584
  341MOL0     H46009   6.698   4.031   4.027 -0.1452  1.0880  2.1150
  341MOL0     H46010   6.618   4.175   4.087  0.2235 -2.9828  1.9819
  341MOL0     H46011   6.509   3.978   3.893  0.7111 -0.8061  1.2742
  341MOL0     H46012   6.413   4.109   3.972 -0.0316 -0.1649  1.1436
  341MOL0     H46013   6.391   3.886   4.078 -1.3190  0.8306 -1.5694
  341MOL0     H46014   6.569   3.909   4.134  0.2561  0.9084  0.3498
  341MOL0     H46015   7.100   4.693   3.518 -1.5844  1.0231 -0.5584
  341MOL0     H46016   7.097   4.922   3.516  1.0716  2.1215  0.3050
  341MOL0     H46017   6.894   5.339   3.949 -0.0534 -1.2274  0.2873
  341MOL0     H46018   6.915   5.596   3.940  1.1853  2.4643 -0.3533
  341MOL0     H46019   5.963   6.524   4.561 -3.1645 -0.0012 -1.5643
  341MOL0     H46020   5.753   6.566   4.627  0.3370  1.3049 -4.5128
  341MOL0     H46021   5.436   6.667   4.688  1.9872 -2.0687  2.0984
  341MOL0     H46022   5.204   6.697   4.696  0.2878  0.7451 -0.1837
  341MOL0     H46023   4.986   6.654   4.768  0.1949 -0.2436  0.5615
  341MOL0     H46024   5.019   6.820   4.722  3.7433 -0.6477  1.2867
  341MOL0     H46025   4.783   6.725   4.880  1.0184 -0.3196 -0.6979
  341MOL0     H46026   4.775   6.819   4.727  0.0048  5.5652  0.1464
  341MOL0     H46027   4.893   7.031   4.837  0.8147 -1.2960 -2.7698
  341MOL0     H46028   4.884   6.952   4.978 -0.8913 -0.4316  0.4863
  341MOL0     H46029   4.629   6.941   4.961 -0.4346 -4.0926 -3.4154
  341MOL0     H46030   4.678   7.104   4.955 -1.3533  0.4174 -2.2559
  341MOL0     H46031   4.473   7.021   4.606 -2.1590  2.5916  2.6197
  341MOL0     H46032   5.213   6.804   5.109  1.8291  0.2127  0.0253
  341MOL0     H46033   5.547   6.901   5.115 -0.2197 -0.0447  0.2743
  341MOL0     H46034   5.436   6.836   5.229  1.2041 -1.6890  1.0208
  341MOL0     H46035   5.562   6.729   5.164  1.4787  0.9502  0.3565
  342MOL0     O46036   7.378   3.958   1.678 -1.3625 -0.3257  1.0427
  342MOL0     C46037   7.432   3.845   1.682  0.1005  0.3631 -0.1926
  342MOL0     O46038   7.561   3.822   1.685 -0.4327 -0.7977 -0.3263
  342MOL0     C46039   7.653   3.930   1.687  0.3256  0.3796 -0.6741
  342MOL0     C46040   7.675   4.004   1.572  0.2801 -0.1246 -0.3574
  342MOL0     C46041   7.770   4.105   1.561  0.1351 -0.4820  0.2593
  342MOL0     C46042   7.830   4.161   1.674  0.2664  0.6974  0.1096
  342MOL0     O46043   7.924   4.257   1.661 -0.0367  0.6359  0.4158
  342MOL0     C46044   7.961   4.344   1.774 -0.1466 -0.2290  0.0251
  342MOL0     C46045   8.080   4.289   1.850 -0.3480  1.0006  1.5366
  342MOL0     C46046   8.214   4.290   1.770 -0.4827  0.2818  0.9619
  342MOL0     C46047   8.337   4.232   1.847 -0.4530 -0.0323  0.0490
  342MOL0     C46048   8.472   4.263   1.780  0.8488 -0.0655 -1.0938
  342MOL0     C46049   8.478   4.202   1.641  0.3283 -0.0628 -0.1360
  342MOL0     C46050   8.613   4.206   1.565 -0.6129 -0.1810  0.3117
  342MOL0     C46051   8.720   4.123   1.642 -0.9795 -0.3567  0.4130
  342MOL0     N46052   8.854   4.166   1.600 -0.2807 -0.5246 -0.2917
  342MOL0     C46053   8.951   4.242   1.676  0.2989  0.3930  0.4775
  342MOL0     C46054   9.053   4.243   1.592  0.2542  0.3452 -0.0647
  342MOL0     C46055   9.193   4.296   1.626 -0.8457  0.4699  0.6760
  342MOL0     C46056   9.257   4.221   1.744  0.1764  0.5945 -0.6061
  342MOL0     C46057   9.401   4.276   1.756  1.1042 -0.6592 -0.3834
  342MOL0     C46058   9.410   4.427   1.796 -0.5624 -0.1765 -0.4105
  342MOL0     O46059   9.331   4.441   1.917 -0.5565  0.5087  0.7548
  342MOL0     C46060   9.313   4.561   1.984 -0.4365 -0.5923  0.8592
  342MOL0     C46061   9.297   4.557   2.126 -0.4345  0.2041  0.0376
  342MOL0     C46062   9.292   4.679   2.201  0.4040  0.0183 -0.3653
  342MOL0     C46063   9.302   4.807   2.122 -1.0422  0.0744 -0.6985
  342MOL0     C46064   9.298   4.938   2.196 -0.5096 -0.5388  1.2593
  342MOL0     O46065   9.269   4.951   2.331 -0.6050  1.0072  0.4006
  342MOL0     C46066   9.216   5.075   2.360  0.8469  0.7858  0.4864
  342MOL0     C46067   9.083   5.104   2.329  0.4927 -0.4247 -0.1378
  342MOL0     C46068   9.021   5.226   2.326 -0.5980 -0.2208  0.9723
  342MOL0     C46069   9.097   5.338   2.372 -0.4800 -0.2727  0.1866
  342MOL0     O46070   9.045   5.467   2.356 -0.0668  0.9183 -0.2603
  342MOL0     C46071   8.979   5.510   2.477 -0.4230 -0.2422  0.2242
  342MOL0     C46072   8.950   5.655   2.453  0.0957  0.6630  0.3254
  342MOL0     C46073   8.906   5.727   2.586  0.5728 -0.6014  0.5761
  342MOL0     C46074   9.021   5.729   2.683 -0.8685 -0.1981 -0.5118
  342MOL0     C46075   8.989   5.815   2.808 -0.2780  0.8582 -0.0889
  342MOL0     C46076   9.090   5.807   2.919 -1.2147 -0.4558 -0.4986
  342MOL0     C46077   9.077   5.673   2.992 -0.4597  0.0056 -0.7158
  342MOL0     C46078   9.219   5.612   3.015  0.6893  0.4440 -0.3519
  342MOL0    Cl46079   9.282   5.707   3.159  0.0096 -0.0926 -0.0568
  342MOL0     C46080   9.239   5.323   2.398 -0.1823 -0.0983 -0.8396
  342MOL0     C46081   9.294   5.193   2.390 -0.0993  0.1765  0.2101
  342MOL0     O46082   9.296   5.028   2.108 -0.6546 -0.6789 -0.4920
  342MOL0     C46083   9.299   4.804   1.983  0.5263  0.0948  0.3841
  342MOL0     C46084   9.309   4.683   1.915 -0.0563 -0.7336  0.5665
  342MOL0     N46085   9.031   4.160   1.477 -0.0698  0.5601  0.2218
  342MOL0     N46086   8.912   4.117   1.489  0.1179  0.8139  0.6410
  342MOL0     C46087   7.799   4.098   1.796  0.4352  0.2293  0.8951
  342MOL0     C46088   7.710   3.985   1.796 -1.7200  0.1291  0.1612
  342MOL0     C46089   7.355   3.716   1.664 -0.4349  0.4731 -0.1145
  342MOL0     C46090   7.425   3.596   1.703 -0.6732 -0.0079  0.2804
  342MOL0     C46091   7.362   3.467   1.696  0.3629 -0.6022  0.8544
  342MOL0     C46092   7.239   3.462   1.643  0.9642  0.0607 -0.7576
  342MOL0     O46093   7.174   3.347   1.640 -0.0421  0.4163 -0.3255
  342MOL0     C46094   7.113   3.320   1.770 -0.1820  0.2643  0.6013
  342MOL0     C46095   6.987   3.249   1.743 -0.2289 -0.0208 -0.7881
  342MOL0     C46096   6.872   3.345   1.687 -0.1314  0.0149  0.4052
  342MOL0     C46097   6.741   3.282   1.645 -1.2457  0.0949 -0.5385
  342MOL0     C46098   6.737   3.172   1.543  0.1516  0.1655  0.1772
  342MOL0     C46099   6.720   3.080   1.467  0.2420 -0.2435  0.2837
  342MOL0     C46100   7.165   3.577   1.608 -0.9513  0.1233  0.0553
  342MOL0     C46101   7.230   3.705   1.609 -0.0736 -0.1890 -0.2667
  342MOL0     C46102   7.134   3.826   1.581  0.1483  0.8704  0.0546
  342MOL0     H46103   7.617   3.969   1.487  1.2137 -3.5692  0.2637
  342MOL0     H46104   7.787   4.142   1.460 -1.1660 -1.5020 -0.3684
  342MOL0     H46105   7.980   4.441   1.728 -2.1164 -0.0378 -0.4642
  342MOL0     H46106   7.880   4.366   1.845  1.6720 -0.7412  2.3800
  342MOL0     H46107   8.053   4.186   1.879  1.0541  0.7962  2.1967
  342MOL0     H46108   8.096   4.340   1.945  0.6811  0.9632  1.3884
  342MOL0     H46109   8.240   4.393   1.744 -1.3062  0.6078  1.3731
  342MOL0     H46110   8.203   4.234   1.676  0.7193  1.4162  0.0945
  342MOL0     H46111   8.329   4.278   1.946 -2.0852 -3.7460  1.8356
  342MOL0     H46112   8.332   4.124   1.859 -2.6826  0.0326  0.1325
  342MOL0     H46113   8.485   4.369   1.756  0.3503  0.0145 -1.0123
  342MOL0     H46114   8.553   4.227   1.844  2.0980 -1.9638 -3.5397
  342MOL0     H46115   8.444   4.098   1.652 -1.5341  0.5170  0.0051
  342MOL0     H46116   8.405   4.260   1.584  1.1738  0.3941 -0.7709
  342MOL0     H46117   8.638   4.313   1.559 -0.7934 -0.1189  0.6343
  342MOL0     H46118   8.606   4.165   1.464  2.9121  1.8907 -0.9505
  342MOL0     H46119   8.699   4.119   1.750 -1.1431 -3.3397  0.3511
  342MOL0     H46120   8.721   4.016   1.618  0.2367 -0.3274  0.3156
  342MOL0     H46121   8.941   4.290   1.773  0.4938 -0.2549  0.8226
  342MOL0     H46122   9.256   4.288   1.537 -1.0033 -0.3412  0.6302
  342MOL0     H46123   9.188   4.403   1.645 -1.2967  0.9115 -1.7018
  342MOL0     H46124   9.187   4.230   1.827 -0.9800  0.4014 -1.5253
  342MOL0     H46125   9.266   4.112   1.729  1.1017  0.6239 -0.3618
  342MOL0     H46126   9.464   4.239   1.674  1.5228 -1.6018  0.3418
  342MOL0     H46127   9.452   4.224   1.837 -1.3363  1.0015  2.3969
  342MOL0     H46128   9.393   4.497   1.713  1.9674 -0.3329 -1.1352
  342MOL0     H46129   9.508   4.443   1.841 -1.5962  2.1271  1.2347
  342MOL0     H46130   9.289   4.462   2.178  2.6302 -1.2203 -1.8781
  342MOL0     H46131   9.277   4.675   2.308 -4.0850  1.3748 -0.7367
  342MOL0     H46132   9.019   5.023   2.296 -2.3910  0.8244  1.9638
  342MOL0     H46133   8.919   5.242   2.294 -0.5809  0.9951  1.4590
  342MOL0     H46134   8.887   5.465   2.514 -0.9343  0.7128  0.1119
  342MOL0     H46135   9.056   5.500   2.554 -0.1215  0.7810  0.0692
  342MOL0     H46136   9.034   5.705   2.403 -2.0979  3.3685 -0.9738
  342MOL0     H46137   8.877   5.659   2.372  2.6854  0.9100 -2.1592
  342MOL0     H46138   8.873   5.828   2.559 -3.0745 -1.6169  0.6200
  342MOL0     H46139   8.812   5.678   2.613 -0.5476 -1.1585 -3.6066
  342MOL0     H46140   9.111   5.767   2.634 -2.1735 -0.2535 -3.1536
  342MOL0     H46141   9.048   5.630   2.719  3.7240  1.7443  2.1462
  342MOL0     H46142   8.884   5.800   2.838  0.4183 -1.1756  1.5425
  342MOL0     H46143   8.999   5.918   2.771  2.0754  0.3297 -1.0397
  342MOL0     H46144   9.188   5.808   2.870 -0.8841  0.0217  0.1640
  342MOL0     H46145   9.084   5.888   2.992  1.0473 -2.6388  2.3422
  342MOL0     H46146   9.016   5.600   2.938 -0.3398 -1.6562  1.2570
  342MOL0     H46147   9.031   5.688   3.090  0.5059 -0.3091 -0.1995
  342MOL0     H46148   9.217   5.510   3.056  0.7076  0.1484 -1.0809
  342MOL0     H46149   9.278   5.601   2.923 -0.1181 -1.9318 -0.6482
  342MOL0     H46150   9.288   5.417   2.418  0.0861 -0.3798 -0.1656
  342MOL0     H46151   9.402   5.188   2.404  0.0230  0.1654 -0.6596
  342MOL0     H46152   9.297   4.890   1.917  2.7499  1.6717  2.2198
  342MOL0     H46153   9.323   4.684   1.807  0.2318 -0.4136  0.6065
  342MOL0     H46154   7.832   4.147   1.886  0.5245 -1.4627  1.8131
  342MOL0     H46155   7.669   3.943   1.887 -1.3578 -0.2793  0.1404
  342MOL0     H46156   7.525   3.601   1.745 -0.3850  0.3943 -0.4399
  342MOL0     H46157   7.397   3.372   1.734  2.2616 -0.0876  0.4965
  342MOL0     H46158   7.103   3.407   1.836 -0.2620  0.4775  0.3070
  342MOL0     H46159   7.183   3.256   1.825  1.2588  1.5875  0.3786
  342MOL0     H46160   6.964   3.207   1.840 -0.2745  1.6772 -0.0216
  342MOL0     H46161   7.010   3.160   1.683  2.7085  0.8996 -1.2332
  342MOL0     H46162   6.914   3.393   1.599  1.3407 -0.4906  0.8056
  342MOL0     H46163   6.840   3.424   1.755 -2.5576  1.8326 -2.5941
  342MOL0     H46164   6.695   3.251   1.740 -1.2113 -3.0120 -1.4198
  342MOL0     H46165   6.680   3.366   1.611 -0.3766  1.1626  0.4342
  342MOL0     H46166   6.710   2.994   1.404  0.7069 -1.7326  2.1732
  342MOL0     H46167   7.069   3.552   1.564 -0.0413 -0.9697 -1.4180
  342MOL0     H46168   7.087   3.861   1.674  0.2319  1.3153 -0.0703
  342MOL0     H46169   7.194   3.902   1.532  0.0209  2.1817  1.8483
  342MOL0     H46170   7.052   3.792   1.517 -0.2063  0.7089  0.5865
  343MOL0     O46171   6.767   0.981   0.911  0.6235  0.1784  0.8390
  343MOL0     C46172   6.683   0.910   0.842  0.0825  0.1157 -0.1708
  343MOL0     O46173   6.545   0.930   0.834 -0.0792 -0.3899  0.3283
  343MOL0     C46174   6.476   1.035   0.890 -0.2209  0.1445 -0.4568
  343MOL0     C46175   6.342   1.019   0.894  0.7203 -1.0127 -0.2249
  343MOL0     C46176   6.255   1.109   0.943  0.1864  0.3931 -0.1323
  343MOL0     C46177   6.302   1.241   0.988  0.3285 -0.0779 -0.6390
  343MOL0     O46178   6.215   1.344   1.032 -0.2238  0.9190 -0.5814
  343MOL0     C46179   6.265   1.478   1.010 -0.0477  0.3539  0.6617
  343MOL0     C46180   6.150   1.579   1.005  0.1563 -0.5994 -0.2885
  343MOL0     C46181   6.058   1.570   0.884 -0.5950 -0.2767  0.3101
  343MOL0     C46182   6.126   1.611   0.753 -1.1754 -0.4034 -0.2711
  343MOL0     C46183   6.013   1.611   0.640 -0.5696  0.1440 -0.3135
  343MOL0     C46184   6.066   1.614   0.499 -0.1417  0.5794  0.1936
  343MOL0     C46185   6.107   1.761   0.458 -0.6396  1.0342  0.9854
  343MOL0     C46186   5.975   1.828   0.422  0.1243  0.1458 -0.5806
  343MOL0     N46187   5.911   1.775   0.303  0.0123 -0.0352  0.2261
  343MOL0     C46188   5.963   1.713   0.203  0.2436  1.7975  0.2413
  343MOL0     C46189   5.881   1.703   0.101  0.7777 -0.4232  0.3698
  343MOL0     C46190   5.905   1.639  -0.034  0.7699 -0.1338 -0.8891
  343MOL0     C46191   6.050   1.647  -0.081 -0.7609 -0.4974  0.1624
  343MOL0     C46192   6.076   1.591  -0.222  0.0523  0.2772  0.6265
  343MOL0     C46193   5.995   1.466  -0.264 -0.8693  0.2243 -0.0970
  343MOL0     O46194   6.066   1.409  -0.383 -0.1128 -0.1094 -0.1111
  343MOL0     C46195   6.186   1.341  -0.378 -0.7651 -0.0438  0.4425
  343MOL0     C46196   6.257   1.310  -0.495 -0.6511  0.5339  0.3627
  343MOL0     C46197   6.362   1.219  -0.497  0.9561 -1.4042  0.3285
  343MOL0     C46198   6.423   1.181  -0.380  1.0040 -0.3394 -0.3488
  343MOL0     C46199   6.530   1.082  -0.385  0.3304 -0.7113 -0.3249
  343MOL0     O46200   6.633   1.080  -0.294 -0.0756  0.0958 -0.2368
  343MOL0     C46201   6.722   0.970  -0.283  0.3522  0.2274  0.2768
  343MOL0     C46202   6.773   0.944  -0.150  0.4429 -0.3965 -0.5899
  343MOL0     C46203   6.857   0.843  -0.125 -0.4634  0.6132 -0.8409
  343MOL0     C46204   6.901   0.765  -0.237  1.1347 -0.0061  0.3597
  343MOL0     O46205   6.988   0.662  -0.219 -0.6008 -0.6859 -0.4444
  343MOL0     C46206   7.054   0.640  -0.085  0.2998 -0.4744  0.3098
  343MOL0     C46207   7.170   0.535  -0.085  0.4133 -1.1327  0.3802
  343MOL0     C46208   7.284   0.558  -0.188  0.1447  0.0197  0.3016
  343MOL0     C46209   7.395   0.460  -0.213 -0.5237  0.1353  0.4680
  343MOL0     C46210   7.485   0.510  -0.325  0.3178  0.5220 -0.2367
  343MOL0     C46211   7.545   0.395  -0.416  0.0240 -0.1498  0.1289
  343MOL0     C46212   7.638   0.461  -0.515  0.4838 -0.2150  0.0666
  343MOL0     C46213   7.717   0.361  -0.591  0.4425  1.0265 -0.0568
  343MOL0    Cl46214   7.862   0.442  -0.678  0.3696 -0.0098  0.0331
  343MOL0     C46215   6.856   0.789  -0.360 -0.0424  0.0158  0.8116
  343MOL0     C46216   6.766   0.892  -0.393  0.2798 -0.9831  0.3393
  343MOL0     O46217   6.509   1.007  -0.470 -0.5660 -0.0797 -0.3577
  343MOL0     C46218   6.368   1.230  -0.261 -0.5792  0.7505 -0.0596
  343MOL0     C46219   6.255   1.308  -0.258  0.0134  1.1645 -0.4335
  343MOL0     N46220   5.758   1.753   0.145 -0.4203  0.1468 -0.4330
  343MOL0     N46221   5.781   1.789   0.264 -0.3897  0.3615 -0.4418
  343MOL0     C46222   6.447   1.258   0.997 -0.7355 -0.6020 -0.4515
  343MOL0     C46223   6.525   1.148   0.952  1.1968  0.2056 -0.7733
  343MOL0     C46224   6.723   0.789   0.773  0.8945  0.0647  0.0440
  343MOL0     C46225   6.628   0.719   0.700 -0.7629 -0.0709  0.1322
  343MOL0     C46226   6.661   0.605   0.624  0.1990 -0.1976 -0.2021
  343MOL0     C46227   6.789   0.558   0.620  0.3512  0.2665  0.8412
  343MOL0     O46228   6.807   0.457   0.528  0.1220  0.3021  0.6883
  343MOL0     C46229   6.932   0.395   0.487  0.4863 -0.0426  0.0307
  343MOL0     C46230   6.990   0.481   0.374 -0.5208  0.0035  0.4693
  343MOL0     C46231   6.893   0.519   0.263  0.5858 -0.0497  0.5402
  343MOL0     C46232   6.858   0.403   0.163 -0.6671 -1.0126  0.7256
  343MOL0     C46233   6.793   0.282   0.215 -0.5485 -0.2068 -0.6855
  343MOL0     C46234   6.738   0.181   0.260  0.1772 -0.2515  0.1966
  343MOL0     C46235   6.879   0.615   0.707  0.3236  0.8513  0.0391
  343MOL0     C46236   6.851   0.722   0.790 -0.0722 -0.0423  0.7094
  343MOL0     C46237   6.962   0.769   0.879  0.2041 -0.2636  0.0686
  343MOL0     H46238   6.287   0.932   0.860 -1.3231  0.2872 -0.4035
  343MOL0     H46239   6.153   1.073   0.958  0.7587 -0.7721  1.1854
  343MOL0     H46240   6.346   1.510   1.076  1.0666 -0.4807 -0.2767
  343MOL0     H46241   6.317   1.490   0.915 -0.2423 -0.7209  0.4138
  343MOL0     H46242   6.187   1.682   1.011 -2.1159  0.2385  0.4084
  343MOL0     H46243   6.087   1.558   1.092  0.0812 -0.2312 -0.2517
  343MOL0     H46244   5.964   1.623   0.900 -0.7984 -1.3904  3.3325
  343MOL0     H46245   6.040   1.462   0.878 -0.1141 -0.3244 -0.4738
  343MOL0     H46246   6.175   1.707   0.773 -2.7390  0.4388 -0.3295
  343MOL0     H46247   6.194   1.533   0.717 -0.1909  0.3418 -0.0732
  343MOL0     H46248   5.956   1.518   0.655  2.2329 -1.4250  1.5444
  343MOL0     H46249   5.945   1.696   0.650 -0.8304 -0.1799  0.7560
  343MOL0     H46250   6.156   1.552   0.510  0.1498  0.9094 -0.3230
  343MOL0     H46251   5.995   1.568   0.430  0.1266  0.9057 -0.3060
  343MOL0     H46252   6.154   1.764   0.360 -4.0632 -4.0420 -1.2011
  343MOL0     H46253   6.162   1.801   0.544  1.6914 -2.5091  1.3207
  343MOL0     H46254   5.905   1.816   0.505  0.3272  0.5388 -0.3470
  343MOL0     H46255   5.993   1.934   0.402 -1.7002  0.1816 -2.3201
  343MOL0     H46256   6.064   1.675   0.191 -0.2220  0.1141  1.3195
  343MOL0     H46257   5.855   1.542  -0.035 -1.2346  0.8422 -1.0784
  343MOL0     H46258   5.840   1.686  -0.109 -2.1585 -0.0814  1.5049
  343MOL0     H46259   6.085   1.750  -0.068  1.1776 -1.2523  1.2554
  343MOL0     H46260   6.105   1.585  -0.011 -1.4023 -1.4650 -0.1756
  343MOL0     H46261   6.183   1.570  -0.228 -0.5616 -3.6226  0.6960
  343MOL0     H46262   6.053   1.670  -0.294  2.1649 -1.7497 -2.5296
  343MOL0     H46263   5.894   1.497  -0.292 -0.5164  0.7508 -0.8220
  343MOL0     H46264   5.993   1.389  -0.186  1.7542  3.6359  3.8035
  343MOL0     H46265   6.233   1.349  -0.593 -1.2218 -4.2785 -1.6522
  343MOL0     H46266   6.397   1.196  -0.597  0.1379  2.6809 -1.0549
  343MOL0     H46267   6.742   1.003  -0.065  0.6268 -1.1804  0.0324
  343MOL0     H46268   6.879   0.828  -0.020  0.0842  0.2602 -1.0005
  343MOL0     H46269   7.106   0.735  -0.072  1.4142 -0.9038 -0.7918
  343MOL0     H46270   6.984   0.630  -0.002 -1.2429  1.7219 -0.6200
  343MOL0     H46271   7.207   0.546   0.017 -1.1466  1.9507  0.7243
  343MOL0     H46272   7.127   0.435  -0.101  2.3223 -2.2321  1.6444
  343MOL0     H46273   7.246   0.575  -0.289  0.5474 -2.1145 -0.2646
  343MOL0     H46274   7.333   0.651  -0.160  1.6377 -0.4929 -0.4921
  343MOL0     H46275   7.351   0.366  -0.248  1.1097 -0.5477  0.0991
  343MOL0     H46276   7.456   0.439  -0.124  0.6597 -2.8269 -0.9067
  343MOL0     H46277   7.566   0.566  -0.277 -0.6199  2.5771 -0.9161
  343MOL0     H46278   7.437   0.579  -0.395 -1.3194 -1.4323 -1.1400
  343MOL0     H46279   7.601   0.319  -0.361  0.6406  0.8197  0.8768
  343MOL0     H46280   7.457   0.358  -0.470 -0.7144  1.2563  0.3353
  343MOL0     H46281   7.714   0.527  -0.473 -0.2697 -0.1826  1.4173
  343MOL0     H46282   7.580   0.520  -0.587  0.9798 -1.7726 -1.6886
  343MOL0     H46283   7.761   0.296  -0.516  1.8623  2.6584  0.5743
  343MOL0     H46284   7.644   0.307  -0.654  0.4100 -2.7375  2.8476
  343MOL0     H46285   6.893   0.735  -0.447 -0.1864  0.8077  0.2481
  343MOL0     H46286   6.748   0.930  -0.493  2.9453  2.2885  0.9387
  343MOL0     H46287   6.395   1.194  -0.162 -2.8141 -0.5262  0.1564
  343MOL0     H46288   6.223   1.351  -0.164  3.2977  3.4114 -0.1451
  343MOL0     H46289   6.496   1.353   1.017 -0.1544 -0.4097 -2.6266
  343MOL0     H46290   6.628   1.182   0.946  2.3100 -2.2328  2.0075
  343MOL0     H46291   6.525   0.750   0.694 -0.9181 -0.4530  0.7484
  343MOL0     H46292   6.588   0.546   0.569 -2.7709 -0.8717  3.9490
  343MOL0     H46293   6.920   0.291   0.456  0.9100  0.0994 -0.6320
  343MOL0     H46294   7.011   0.392   0.563  0.3911 -2.0002  0.1185
  343MOL0     H46295   7.074   0.431   0.325  1.0247  0.9523  2.0046
  343MOL0     H46296   7.034   0.568   0.424  1.3907 -0.8531  0.3744
  343MOL0     H46297   6.933   0.604   0.206  1.0724 -1.4260 -1.2974
  343MOL0     H46298   6.802   0.552   0.313  0.6096 -0.0653  0.5930
  343MOL0     H46299   6.780   0.441   0.097 -1.3826  1.3282  2.7531
  343MOL0     H46300   6.947   0.378   0.105 -1.7971 -0.8294 -1.1561
  343MOL0     H46301   6.688   0.091   0.289  0.7232 -0.6035  0.0451
  343MOL0     H46302   6.969   0.554   0.703 -2.4596 -3.7679 -0.1621
  343MOL0     H46303   7.014   0.854   0.834  1.0540 -0.8625 -0.1197
  343MOL0     H46304   6.931   0.806   0.977  3.0078  0.3858  0.8070
  343MOL0     H46305   7.038   0.692   0.900  1.6592  1.5903  2.0793
  344MOL0     O46306   1.029   4.798   4.192  1.0549  0.0171  0.2092
  344MOL0     C46307   1.055   4.884   4.109 -0.4662  0.5094 -0.6242
  344MOL0     O46308   0.966   4.942   4.025 -0.5910  0.5463  0.1008
  344MOL0     C46309   0.832   4.920   4.008 -0.0927 -0.0236  0.2245
  344MOL0     C46310   0.756   4.812   4.063 -0.1464 -0.7859  0.1474
  344MOL0     C46311   0.619   4.816   4.059  0.1439  0.4646 -0.0442
  344MOL0     C46312   0.555   4.917   3.988  0.6986 -0.5976 -0.4365
  344MOL0     O46313   0.418   4.926   3.970 -0.3613  0.0447  0.4909
  344MOL0     C46314   0.352   4.798   3.951  0.1902  0.0336 -0.2461
  344MOL0     C46315   0.206   4.826   3.911 -0.2366  0.3089 -0.7036
  344MOL0     C46316   0.132   4.930   3.992 -0.1543  0.4090  0.4332
  344MOL0     C46317  -0.020   4.917   3.978  0.3313 -0.1589  0.3974
  344MOL0     C46318  -0.078   4.793   4.054  0.2280 -0.0210 -0.8382
  344MOL0     C46319  -0.078   4.822   4.208  0.5124 -1.1587  0.6275
  344MOL0     C46320  -0.183   4.738   4.289  0.2997  0.3711 -0.0582
  344MOL0     C46321  -0.201   4.777   4.437  0.3588  0.2065  0.8298
  344MOL0     N46322  -0.245   4.911   4.463  0.6159  0.1673 -0.0308
  344MOL0     C46323  -0.377   4.951   4.501 -0.4675 -1.2018  0.2764
  344MOL0     C46324  -0.363   5.084   4.512  0.1281  0.0461  0.3105
  344MOL0     C46325  -0.477   5.171   4.553 -0.2129  0.5528 -0.4541
  344MOL0     C46326  -0.436   5.275   4.645  0.5517  0.2433 -0.1973
  344MOL0     C46327  -0.389   5.222   4.783 -0.6848 -0.1178  0.1205
  344MOL0     C46328  -0.324   5.337   4.866 -0.7091 -0.2600  0.6137
  344MOL0     O46329  -0.432   5.435   4.887  0.1910 -0.2903  0.1721
  344MOL0     C46330  -0.534   5.406   4.978  0.4601 -0.6730 -0.1963
  344MOL0     C46331  -0.519   5.332   5.091 -0.4649  0.0309 -0.0151
  344MOL0     C46332  -0.625   5.311   5.185  0.5360 -0.2320  1.6708
  344MOL0     C46333  -0.757   5.360   5.163 -0.2015  0.2418  0.5146
  344MOL0     C46334  -0.862   5.355   5.268 -0.9018  0.4650  0.0231
  344MOL0     O46335  -0.816   5.283   5.381 -0.1828 -0.0517  0.6212
  344MOL0     C46336  -0.918   5.242   5.475 -0.3797 -0.5366 -0.3975
  344MOL0     C46337  -1.020   5.144   5.447  0.1554 -0.0955 -0.0774
  344MOL0     C46338  -1.115   5.119   5.548  0.3440  0.7023  0.1661
  344MOL0     C46339  -1.115   5.180   5.666  0.3490  0.3390  0.8644
  344MOL0     O46340  -1.211   5.153   5.756 -0.2583 -0.6796 -0.3110
  344MOL0     C46341  -1.208   5.021   5.807  0.3124  0.0527 -0.3211
  344MOL0     C46342  -1.303   5.010   5.927  0.2543  0.1357 -0.2239
  344MOL0     C46343  -1.265   4.875   6.004 -0.0972  0.2904 -0.1832
  344MOL0     C46344  -1.345   4.851   6.132  0.8756 -0.2132 -0.6479
  344MOL0     C46345  -1.265   4.757   6.218  0.1551  0.4412  0.5737
  344MOL0     C46346  -1.336   4.716   6.352  0.1408 -0.1780  0.4812
  344MOL0     C46347  -1.367   4.574   6.379  0.4427  0.0058 -0.6189
  344MOL0     C46348  -1.457   4.515   6.263 -1.0330 -0.7907 -0.2520
  344MOL0    Cl46349  -1.503   4.343   6.278 -0.6577 -0.1548 -0.0148
  344MOL0     C46350  -1.020   5.274   5.695 -0.6992  0.2802 -0.8989
  344MOL0     C46351  -0.920   5.308   5.606 -0.5101 -0.4268  0.0325
  344MOL0     O46352  -0.980   5.386   5.247 -0.6974 -0.2377  0.2184
  344MOL0     C46353  -0.777   5.423   5.032 -0.2285  0.2383  0.3803
  344MOL0     C46354  -0.666   5.446   4.958  0.1179 -0.6653  0.3615
  344MOL0     N46355  -0.227   5.114   4.503 -0.2023 -0.2447  0.0612
  344MOL0     N46356  -0.156   5.012   4.482 -0.3702 -0.0378 -0.6991
  344MOL0     C46357   0.629   5.019   3.929  0.0854 -0.8364  0.8278
  344MOL0     C46358   0.772   5.024   3.943 -0.0905  0.6042  0.2627
  344MOL0     C46359   1.196   4.937   4.103  0.7191  0.1623 -0.6610
  344MOL0     C46360   1.221   5.061   4.028 -0.3343 -0.3085 -0.1637
  344MOL0     C46361   1.350   5.115   4.012 -0.7400 -0.3132  0.0109
  344MOL0     C46362   1.462   5.055   4.061 -0.2348  0.0970 -0.7347
  344MOL0     O46363   1.586   5.113   4.058 -0.1293  0.3463  0.2677
  344MOL0     C46364   1.636   5.123   3.924  0.1702 -0.3826 -0.8488
  344MOL0     C46365   1.658   4.993   3.853 -0.0476  0.8236  0.0112
  344MOL0     C46366   1.693   5.007   3.711 -0.9001  0.7006 -0.2995
  344MOL0     C46367   1.662   4.878   3.628  0.0834 -0.4009 -0.9189
  344MOL0     C46368   1.715   4.876   3.492 -0.2929 -0.0916 -0.2603
  344MOL0     C46369   1.743   4.850   3.378 -0.1005  0.0065 -0.4581
  344MOL0     C46370   1.440   4.942   4.138  0.1772  1.3262  0.8992
  344MOL0     C46371   1.312   4.880   4.151 -0.3135 -0.0033 -0.1553
  344MOL0     C46372   1.330   4.741   4.222  0.1050  0.0838 -1.1228
  344MOL0     H46373   0.807   4.733   4.118  3.3726  1.6001  0.6405
  344MOL0     H46374   0.559   4.750   4.121  0.6860  0.8640  0.9145
  344MOL0     H46375   0.389   4.744   3.864  0.3288  1.8531 -1.3654
  344MOL0     H46376   0.358   4.736   4.041  0.8533  2.7961  1.7321
  344MOL0     H46377   0.157   4.729   3.914  3.2454 -1.6187  1.1015
  344MOL0     H46378   0.215   4.868   3.811  3.7852  0.7772 -0.3394
  344MOL0     H46379   0.151   5.033   3.959 -0.4286  0.2868 -0.1130
  344MOL0     H46380   0.160   4.927   4.098 -0.0828  0.8497  0.4284
  344MOL0     H46381  -0.066   5.012   4.005  0.3445  0.3450 -1.2856
  344MOL0     H46382  -0.047   4.910   3.873  1.5604  1.8142 -0.1066
  344MOL0     H46383  -0.185   4.792   4.029 -0.7368  2.3028  2.4808
  344MOL0     H46384  -0.024   4.701   4.032 -0.6713 -0.0380 -3.3338
  344MOL0     H46385   0.026   4.820   4.243  0.9873  0.2974 -0.5683
  344MOL0     H46386  -0.107   4.926   4.225  0.4844 -1.2844  1.3623
  344MOL0     H46387  -0.142   4.638   4.272  1.7237  0.7762  0.8261
  344MOL0     H46388  -0.281   4.736   4.240  0.3177  2.7835 -0.2908
  344MOL0     H46389  -0.281   4.716   4.479 -1.8551  1.6055 -1.1254
  344MOL0     H46390  -0.103   4.775   4.485  1.7578  1.0185 -1.7961
  344MOL0     H46391  -0.466   4.895   4.525 -0.8204 -0.4253  0.8036
  344MOL0     H46392  -0.527   5.209   4.463  0.7822  2.3040 -0.3089
  344MOL0     H46393  -0.550   5.105   4.599 -1.2276  0.2314 -2.4215
  344MOL0     H46394  -0.356   5.334   4.599 -0.9121  1.3170 -1.4856
  344MOL0     H46395  -0.516   5.350   4.648  3.0039  3.0214  0.6969
  344MOL0     H46396  -0.305   5.152   4.779 -0.0094  0.5520  1.6592
  344MOL0     H46397  -0.475   5.177   4.832 -2.1574  1.1533 -1.1858
  344MOL0     H46398  -0.234   5.386   4.827 -1.1701 -0.1222 -0.2872
  344MOL0     H46399  -0.298   5.295   4.964  1.0997 -1.9517 -0.5127
  344MOL0     H46400  -0.425   5.285   5.118  1.0391  3.3860  1.2108
  344MOL0     H46401  -0.608   5.261   5.280  1.1395 -2.9639  0.2243
  344MOL0     H46402  -1.017   5.095   5.350 -1.6930 -0.1952 -0.1090
  344MOL0     H46403  -1.196   5.048   5.536  0.4457  0.4334  0.9745
  344MOL0     H46404  -1.245   4.952   5.730 -0.4703 -0.6358  0.6553
  344MOL0     H46405  -1.106   4.997   5.838  0.4990 -0.0652 -0.9951
  344MOL0     H46406  -1.280   5.091   5.998  0.0217  1.3942 -1.5289
  344MOL0     H46407  -1.408   5.020   5.898  0.7046  1.6736 -1.4671
  344MOL0     H46408  -1.291   4.783   5.952  0.6934 -1.1182  1.7813
  344MOL0     H46409  -1.158   4.857   6.008 -0.4372 -3.1079 -2.4506
  344MOL0     H46410  -1.432   4.791   6.105  0.0974  0.5806  0.0623
  344MOL0     H46411  -1.369   4.943   6.185  1.2233  1.9302 -3.9225
  344MOL0     H46412  -1.176   4.804   6.260  0.7827  1.6154 -1.8602
  344MOL0     H46413  -1.218   4.674   6.165  0.0383 -0.7589  2.2766
  344MOL0     H46414  -1.287   4.751   6.444 -1.4881 -2.4449  2.3138
  344MOL0     H46415  -1.432   4.767   6.344  0.1143 -0.3768 -0.5822
  344MOL0     H46416  -1.417   4.562   6.476  0.6877 -0.4227 -0.5452
  344MOL0     H46417  -1.274   4.518   6.371  1.1981  1.1559  0.0054
  344MOL0     H46418  -1.549   4.574   6.266 -2.2116 -2.4912  3.7857
  344MOL0     H46419  -1.412   4.529   6.164  2.4935  1.6591  1.4689
  344MOL0     H46420  -1.020   5.328   5.789  2.5733  1.3820 -1.3786
  344MOL0     H46421  -0.852   5.389   5.632 -2.7795  2.7980 -3.1648
  344MOL0     H46422  -0.875   5.455   4.996 -0.1076 -2.3619 -2.6583
  344MOL0     H46423  -0.693   5.506   4.871 -1.7867 -0.3582  1.1295
  344MOL0     H46424   0.576   5.091   3.866  0.1842 -2.2317 -0.9411
  344MOL0     H46425   0.832   5.107   3.907  0.0876 -1.0582 -3.8877
  344MOL0     H46426   1.131   5.110   3.994 -0.7023 -0.3003  0.8062
  344MOL0     H46427   1.340   5.218   3.980  0.8552 -0.2211 -0.2681
  344MOL0     H46428   1.734   5.172   3.935  0.4122 -1.3875  2.3812
  344MOL0     H46429   1.565   5.179   3.862 -1.3038 -2.4947 -1.1448
  344MOL0     H46430   1.559   4.947   3.854  0.2001  0.2849  0.0658
  344MOL0     H46431   1.724   4.929   3.912 -2.6448  1.3744  3.8772
  344MOL0     H46432   1.800   5.027   3.708  0.1049 -2.9251  2.5703
  344MOL0     H46433   1.648   5.099   3.674  0.4151  0.7067 -2.0002
  344MOL0     H46434   1.707   4.794   3.682  1.5850  2.4015  2.6040
  344MOL0     H46435   1.559   4.842   3.637 -0.1073  0.3547  0.1120
  344MOL0     H46436   1.795   4.820   3.289  2.6722  0.7596  0.7952
  344MOL0     H46437   1.524   4.887   4.179 -0.5447 -0.7926 -0.3070
  344MOL0     H46438   1.248   4.671   4.203  0.5790 -0.1108 -2.5719
  344MOL0     H46439   1.422   4.699   4.182  0.6015  2.1720 -2.3282
  344MOL0     H46440   1.345   4.748   4.330  3.4385  1.7349 -1.5700
  345MOL0     O46441   8.282   2.348   4.428 -0.2698  0.8732  0.3054
  345MOL0     C46442   8.351   2.353   4.534 -0.0951 -0.4701  1.2151
  345MOL0     O46443   8.452   2.449   4.552 -0.5734 -0.3105 -0.6956
  345MOL0     C46444   8.496   2.535   4.455 -0.6088 -1.0273  1.0146
  345MOL0     C46445   8.539   2.663   4.497 -0.5416  0.4160 -0.0444
  345MOL0     C46446   8.606   2.746   4.413 -0.0751  0.5916  0.6170
  345MOL0     C46447   8.621   2.711   4.281 -0.0479  0.2223  0.0718
  345MOL0     O46448   8.672   2.795   4.189  0.6792 -0.7580  0.9546
  345MOL0     C46449   8.649   2.781   4.045 -0.0526  0.1247  0.3187
  345MOL0     C46450   8.710   2.889   3.958 -1.2496  0.5564 -0.1490
  345MOL0     C46451   8.863   2.889   3.979 -0.1237  0.1127  0.1045
  345MOL0     C46452   8.912   2.941   3.850 -0.9396  0.4506 -0.0705
  345MOL0     C46453   9.061   2.983   3.867  0.8352 -0.6375  0.1310
  345MOL0     C46454   9.132   2.978   3.730 -0.0867 -0.6155 -0.7412
  345MOL0     C46455   9.285   3.005   3.749  0.4337  0.6715  0.7881
  345MOL0     C46456   9.363   3.001   3.624 -0.4672 -1.4170 -0.0090
  345MOL0     N46457   9.508   3.035   3.633  0.0734 -0.0747  0.1176
  345MOL0     C46458   9.604   2.982   3.541 -0.4402  0.2436  0.6949
  345MOL0     C46459   9.719   2.986   3.613  0.3795  0.2076 -0.5015
  345MOL0     C46460   9.852   2.963   3.551 -0.5762  0.2317  0.6345
  345MOL0     C46461   9.900   2.814   3.556  0.0157 -0.5679  0.1468
  345MOL0     C46462   9.962   2.760   3.690 -0.3153 -0.2870  0.9704
  345MOL0     C46463   9.988   2.613   3.661 -0.7147  0.1486  0.6415
  345MOL0     O46464  10.089   2.590   3.564 -0.3188 -0.3565 -0.1885
  345MOL0     C46465  10.124   2.457   3.535 -0.6654 -0.0997  0.5466
  345MOL0     C46466  10.085   2.347   3.611  0.6126 -0.0205  0.2946
  345MOL0     C46467  10.115   2.222   3.564 -0.8487 -0.2075  0.8603
  345MOL0     C46468  10.192   2.198   3.455 -0.7274 -0.4599  0.1012
  345MOL0     C46469  10.215   2.059   3.419 -0.1044  0.1761 -0.0088
  345MOL0     O46470  10.176   1.953   3.510 -0.7927 -0.0258  0.1312
  345MOL0     C46471  10.193   1.827   3.459 -0.1048 -0.5876 -1.3317
  345MOL0     C46472  10.101   1.775   3.377  0.7315  0.0399 -0.4235
  345MOL0     C46473  10.103   1.646   3.324 -0.3102  0.8449 -0.2479
  345MOL0     C46474  10.206   1.561   3.363  0.5943  0.1059 -0.4507
  345MOL0     O46475  10.206   1.430   3.324 -0.9215  0.1565 -0.1272
  345MOL0     C46476  10.291   1.414   3.199 -0.6417  0.3892 -0.2742
  345MOL0     C46477  10.219   1.374   3.073 -0.2972 -0.9774  0.0344
  345MOL0     C46478  10.228   1.225   3.043  0.6044  1.2673 -0.0014
  345MOL0     C46479  10.108   1.184   2.964 -0.3875 -1.2367  0.1829
  345MOL0     C46480  10.115   1.032   2.959  0.1592 -0.3301 -0.0546
  345MOL0     C46481  10.015   0.982   2.857 -0.7836  0.1848  0.8172
  345MOL0     C46482  10.081   0.935   2.729  0.6936  0.9776 -0.3174
  345MOL0     C46483   9.990   0.936   2.617 -0.7839 -0.8325 -0.4871
  345MOL0    Cl46484   9.863   0.823   2.649  0.3235  0.1470 -0.4503
  345MOL0     C46485  10.282   1.598   3.461  0.9282 -0.5734 -0.1321
  345MOL0     C46486  10.278   1.726   3.512 -0.1040  0.0795  0.1425
  345MOL0     O46487  10.270   2.035   3.310 -0.2333  0.0081 -0.0627
  345MOL0     C46488  10.248   2.310   3.385 -0.5739 -0.3632  0.5272
  345MOL0     C46489  10.206   2.441   3.415  0.5197 -0.1924 -0.7534
  345MOL0     N46490   9.679   3.005   3.751  0.1725  0.0987 -0.2521
  345MOL0     N46491   9.560   3.039   3.755  0.3617  0.9238  0.1235
  345MOL0     C46492   8.575   2.584   4.237 -1.4136 -0.3359 -0.2090
  345MOL0     C46493   8.525   2.492   4.323  0.5570 -0.3118  0.5293
  345MOL0     C46494   8.323   2.260   4.639  0.6815  0.1259  0.1993
  345MOL0     C46495   8.279   2.131   4.593  0.2385  0.2367 -0.3248
  345MOL0     C46496   8.249   2.024   4.677 -0.0128 -0.7708 -0.6428
  345MOL0     C46497   8.245   2.054   4.813  0.7302  1.0557 -0.3147
  345MOL0     O46498   8.226   1.941   4.887  0.1081  0.6514  0.2047
  345MOL0     C46499   8.296   1.917   5.007  0.1401 -0.2516  0.1819
  345MOL0     C46500   8.447   1.934   5.011  0.3488  0.1554 -0.1254
  345MOL0     C46501   8.515   1.807   4.961  0.2832 -0.5352  0.1455
  345MOL0     C46502   8.661   1.797   4.984 -0.0230  0.2299  0.6438
  345MOL0     C46503   8.707   1.664   5.024 -0.2663 -0.6310  0.1792
  345MOL0     C46504   8.742   1.549   5.036 -0.0791  0.1954  0.3587
  345MOL0     C46505   8.289   2.183   4.862 -0.1871 -0.3693 -0.7551
  345MOL0     C46506   8.326   2.285   4.779  0.0018 -0.1799 -0.2290
  345MOL0     C46507   8.367   2.416   4.840  0.4117 -0.2401  0.0773
  345MOL0     H46508   8.524   2.681   4.603  2.1575 -0.7616  0.6255
  345MOL0     H46509   8.637   2.843   4.452 -1.9497  1.2221  0.6392
  345MOL0     H46510   8.687   2.680   4.023 -2.4924 -1.0265  1.0009
  345MOL0     H46511   8.547   2.774   4.006  0.4407  1.5252 -1.3231
  345MOL0     H46512   8.663   2.988   3.962  3.7754  3.3184 -1.7812
  345MOL0     H46513   8.700   2.855   3.855 -3.1821 -0.4446  0.3067
  345MOL0     H46514   8.912   2.794   4.000  1.9045  0.6693 -1.7141
  345MOL0     H46515   8.896   2.956   4.058  0.9721 -0.1034 -0.1578
  345MOL0     H46516   8.905   2.864   3.772 -0.4220  0.2181  0.1042
  345MOL0     H46517   8.857   3.033   3.830 -0.2258  0.8236 -0.3533
  345MOL0     H46518   9.079   3.081   3.912  1.8120 -0.0848 -1.3655
  345MOL0     H46519   9.106   2.907   3.931 -1.0286 -0.2028  2.0880
  345MOL0     H46520   9.123   2.877   3.691  1.3218 -1.5777  1.2726
  345MOL0     H46521   9.082   3.041   3.656 -0.4736  0.8571  0.7026
  345MOL0     H46522   9.328   2.947   3.831  3.3576  2.1788  0.4389
  345MOL0     H46523   9.291   3.110   3.778 -3.0768  0.8769  1.1597
  345MOL0     H46524   9.361   2.902   3.578 -1.5678 -1.5739  0.3622
  345MOL0     H46525   9.336   3.081   3.555  3.0114  0.5422  0.6539
  345MOL0     H46526   9.582   2.953   3.439 -0.5624  0.9505  0.5196
  345MOL0     H46527   9.855   2.995   3.446 -0.4200  1.0417  0.8743
  345MOL0     H46528   9.932   3.016   3.604  0.3762 -0.7081  0.1878
  345MOL0     H46529   9.819   2.750   3.521  0.6665 -0.1027 -2.4059
  345MOL0     H46530   9.970   2.803   3.473 -1.3802 -1.3622 -0.9867
  345MOL0     H46531   9.890   2.779   3.771  0.3240  0.8191  1.3084
  345MOL0     H46532  10.058   2.799   3.725  0.2383 -1.6076  0.9779
  345MOL0     H46533   9.895   2.561   3.636  0.0224 -1.3173  0.7999
  345MOL0     H46534  10.012   2.562   3.755 -1.6391  1.2100  1.4781
  345MOL0     H46535  10.013   2.341   3.691 -0.2084 -1.5869 -0.5057
  345MOL0     H46536  10.080   2.131   3.610  3.7580 -2.7946 -0.1269
  345MOL0     H46537  10.026   1.832   3.321 -1.7210 -2.7738 -0.2107
  345MOL0     H46538  10.026   1.607   3.258 -0.4496 -1.3077  1.1068
  345MOL0     H46539  10.358   1.497   3.173  0.3360 -0.2383  0.1965
  345MOL0     H46540  10.366   1.335   3.205 -1.2374 -0.1622 -0.0145
  345MOL0     H46541  10.114   1.403   3.081 -0.3460 -0.6338 -1.4639
  345MOL0     H46542  10.252   1.431   2.985 -0.2154  2.0362  1.8719
  345MOL0     H46543  10.318   1.196   2.989  0.4908 -0.1859  0.5601
  345MOL0     H46544  10.222   1.176   3.141 -1.1922  1.7479  0.1742
  345MOL0     H46545  10.109   1.224   2.863 -0.9502 -2.7227 -0.4368
  345MOL0     H46546  10.010   1.212   3.006 -0.9095  2.0876 -2.7589
  345MOL0     H46547  10.083   1.015   3.062  1.0976  2.4419  0.7859
  345MOL0     H46548  10.211   0.980   2.947  0.0146 -1.0734  1.6869
  345MOL0     H46549   9.960   0.897   2.899 -2.2364  1.2349  1.1182
  345MOL0     H46550   9.947   1.062   2.825  0.5004  0.7196 -0.7266
  345MOL0     H46551  10.112   0.832   2.753 -0.1026  0.1145 -2.7271
  345MOL0     H46552  10.167   0.993   2.696  1.6397  1.2263  2.3150
  345MOL0     H46553   9.956   1.037   2.596 -1.8726 -1.4783 -2.0121
  345MOL0     H46554  10.040   0.906   2.525 -1.9265 -1.7308 -0.8354
  345MOL0     H46555  10.340   1.515   3.501 -0.7541 -2.8274 -2.0948
  345MOL0     H46556  10.346   1.750   3.593 -1.3885  2.7701  0.5495
  345MOL0     H46557  10.307   2.290   3.296 -0.4780 -2.6547  1.0396
  345MOL0     H46558  10.242   2.531   3.366  1.8062  0.8008  1.8319
  345MOL0     H46559   8.585   2.558   4.132  3.7117 -0.9698  0.2133
  345MOL0     H46560   8.490   2.396   4.286  0.6456 -0.1931  0.1368
  345MOL0     H46561   8.276   2.116   4.486  0.4013  0.6569 -0.3894
  345MOL0     H46562   8.222   1.928   4.634  2.2037  0.4232 -5.3644
  345MOL0     H46563   8.267   1.814   5.030 -0.4951 -0.8259 -2.8494
  345MOL0     H46564   8.250   1.968   5.092 -2.6432  0.7832 -1.8023
  345MOL0     H46565   8.469   1.961   5.114 -0.1723  0.2658 -0.0376
  345MOL0     H46566   8.473   2.026   4.957 -2.4919  2.2326  1.7404
  345MOL0     H46567   8.490   1.790   4.855 -1.9481 -2.3593  0.8851
  345MOL0     H46568   8.470   1.726   5.018 -0.0518  0.2890  1.0704
  345MOL0     H46569   8.715   1.830   4.894 -0.7767  2.7432  1.0479
  345MOL0     H46570   8.694   1.863   5.065 -0.8741  2.1425 -0.4970
  345MOL0     H46571   8.767   1.445   5.041  0.2855  0.0126 -3.0892
  345MOL0     H46572   8.299   2.202   4.969 -0.1810  4.0173 -1.3574
  345MOL0     H46573   8.344   2.405   4.946 -2.1077 -2.4053 -0.6086
  345MOL0     H46574   8.471   2.445   4.821  0.3176  1.3479  1.6733
  345MOL0     H46575   8.304   2.496   4.798  1.9595  0.5579 -0.8454
  346MOL0     O46576   5.421  10.845   2.937 -0.3297 -0.0776  0.2704
  346MOL0     C46577   5.446  10.734   2.981 -0.3358  0.0478 -0.2781
  346MOL0     O46578   5.520  10.646   2.915 -0.2193 -0.6506 -0.1566
  346MOL0     C46579   5.568  10.675   2.787  0.1324  0.3279 -0.5500
  346MOL0     C46580   5.706  10.641   2.761  0.0974  0.4015  0.9718
  346MOL0     C46581   5.757  10.653   2.633  0.3449  0.0309 -0.2452
  346MOL0     C46582   5.686  10.721   2.540 -0.2375  0.4306 -0.0490
  346MOL0     O46583   5.726  10.716   2.410 -1.5058 -0.1474 -0.4971
  346MOL0     C46584   5.847  10.797   2.385 -0.4680 -0.7308 -0.0526
  346MOL0     C46585   5.881  10.789   2.231 -0.7122 -0.2739  0.3823
  346MOL0     C46586   6.021  10.836   2.208 -0.2835 -0.3224  0.7489
  346MOL0     C46587   6.114  10.713   2.223 -0.9252 -0.1553  0.5825
  346MOL0     C46588   6.261  10.748   2.211  0.3156  0.3076  0.8374
  346MOL0     C46589   6.359  10.633   2.232 -0.5342  0.8568 -0.5580
  346MOL0     C46590   6.513  10.661   2.241 -0.1934 -1.1114 -1.6264
  346MOL0     C46591   6.565  10.745   2.373  0.6433 -0.2279 -0.0743
  346MOL0     N46592   6.704  10.717   2.398  0.4094  0.7485 -0.1646
  346MOL0     C46593   6.818  10.791   2.376  0.1657  0.4699 -0.6155
  346MOL0     C46594   6.914  10.725   2.440 -0.8985  0.6524 -0.1039
  346MOL0     C46595   7.053  10.774   2.467  0.0877  0.3964 -0.2942
  346MOL0     C46596   7.153  10.663   2.518  0.9854 -0.3363  0.7907
  346MOL0     C46597   7.279  10.726   2.559  0.0576 -0.7131 -0.1214
  346MOL0     C46598   7.361  10.653   2.667 -0.3986  0.4728 -0.4152
  346MOL0     O46599   7.310  10.678   2.797  0.0841  0.5594  0.2537
  346MOL0     C46600   7.384  10.624   2.901  0.1340  0.0161 -0.2453
  346MOL0     C46601   7.403  10.713   3.000 -0.4618 -0.6494 -0.8175
  346MOL0     C46602   7.473  10.678   3.120 -0.3674  0.2364 -0.1558
  346MOL0     C46603   7.513  10.544   3.144 -0.4484  0.7315 -0.1198
  346MOL0     C46604   7.596  10.505   3.266 -0.0585  1.3059  0.4679
  346MOL0     O46605   7.590  10.374   3.288 -0.4059 -0.1360 -0.3205
  346MOL0     C46606   7.694  10.308   3.356  0.2608  0.6573  0.8115
  346MOL0     C46607   7.830  10.354   3.351 -0.7789  1.2583  0.0635
  346MOL0     C46608   7.926  10.268   3.407 -0.0738  0.2942 -0.0314
  346MOL0     C46609   7.890  10.149   3.468 -1.2402  0.5539  0.0374
  346MOL0     O46610   7.980  10.066   3.525  0.2226 -0.0632 -0.1991
  346MOL0     C46611   8.081  10.016   3.441 -0.3879 -1.0961  0.4939
  346MOL0     C46612   8.142   9.880   3.477  0.3520 -0.4526 -0.3089
  346MOL0     C46613   8.243   9.889   3.600  0.4887 -0.6377 -0.1548
  346MOL0     C46614   8.164   9.876   3.729 -0.1455 -1.3508 -0.0217
  346MOL0     C46615   8.092   9.740   3.749 -0.2739  0.6958  0.5860
  346MOL0     C46616   8.173   9.609   3.705  0.6247 -0.1965  1.2083
  346MOL0     C46617   8.113   9.483   3.770  0.2265  1.1952  0.6580
  346MOL0     C46618   8.190   9.350   3.760  0.8978  0.6521 -0.4894
  346MOL0    Cl46619   8.225   9.318   3.590 -0.1872 -0.4847 -0.2009
  346MOL0     C46620   7.753  10.116   3.476 -0.1036  0.6997  0.4940
  346MOL0     C46621   7.656  10.200   3.423  0.4001  0.1679  0.2689
  346MOL0     O46622   7.662  10.589   3.333 -0.1146  0.5190  0.7816
  346MOL0     C46623   7.480  10.451   3.041 -0.5571 -0.2368 -0.6441
  346MOL0     C46624   7.418  10.489   2.920 -0.4488  0.1618 -1.1274
  346MOL0     N46625   6.858  10.611   2.492 -1.0127  0.0166 -0.1343
  346MOL0     N46626   6.730  10.608   2.472 -0.0253  0.3416  0.3674
  346MOL0     C46627   5.554  10.753   2.562  0.8426 -0.5995 -0.3239
  346MOL0     C46628   5.489  10.726   2.682  0.4185 -0.0476 -0.9433
  346MOL0     C46629   5.353  10.678   3.082 -0.4895 -0.9588 -0.2961
  346MOL0     C46630   5.214  10.679   3.056 -0.3505 -0.0743  0.3558
  346MOL0     C46631   5.126  10.631   3.141  0.4844  0.2010  0.0946
  346MOL0     C46632   5.160  10.575   3.261  0.1239 -0.6529 -0.6567
  346MOL0     O46633   5.073  10.515   3.347  0.5571 -0.6522 -0.4714
  346MOL0     C46634   4.933  10.493   3.329 -0.3713 -0.5086  0.6437
  346MOL0     C46635   4.863  10.626   3.371 -0.1770  0.2449 -0.4958
  346MOL0     C46636   4.715  10.619   3.361 -1.2047  0.3859 -0.0909
  346MOL0     C46637   4.641  10.704   3.461  0.5645 -1.2927 -0.7400
  346MOL0     C46638   4.501  10.665   3.459  1.0336  0.7921  0.3400
  346MOL0     C46639   4.384  10.633   3.457 -0.1916 -0.6264 -0.3068
  346MOL0     C46640   5.295  10.580   3.297  0.8621  0.0935  0.0738
  346MOL0     C46641   5.398  10.618   3.204  0.1146 -0.6200 -0.0213
  346MOL0     C46642   5.538  10.615   3.252  0.1437  0.2944  0.3876
  346MOL0     H46643   5.771  10.585   2.827  0.8731  1.1274  0.8340
  346MOL0     H46644   5.852  10.615   2.597  1.0894 -1.3248  2.8740
  346MOL0     H46645   5.835  10.901   2.419 -1.0539 -1.2362  1.3715
  346MOL0     H46646   5.931  10.749   2.436  0.7101  2.9272  1.8092
  346MOL0     H46647   5.816  10.851   2.169  0.8306  2.0789  0.9780
  346MOL0     H46648   5.871  10.684   2.203  1.8192 -0.4367 -0.1533
  346MOL0     H46649   6.047  10.908   2.286 -3.8641 -0.5308  2.3185
  346MOL0     H46650   6.028  10.898   2.118 -0.4734 -0.5319  0.5867
  346MOL0     H46651   6.097  10.672   2.323 -1.5026  0.2704  0.6570
  346MOL0     H46652   6.094  10.636   2.147  0.4276 -0.1075  0.1476
  346MOL0     H46653   6.285  10.780   2.109 -2.6923  2.0541  0.5832
  346MOL0     H46654   6.286  10.834   2.274  3.8622  0.4501 -0.5119
  346MOL0     H46655   6.333  10.576   2.321  1.2627 -0.8192 -1.0258
  346MOL0     H46656   6.347  10.558   2.152 -4.5542 -0.9581  1.4520
  346MOL0     H46657   6.546  10.720   2.155 -3.0455  2.1483 -0.6843
  346MOL0     H46658   6.566  10.565   2.245  0.9500 -0.5432  2.8944
  346MOL0     H46659   6.547  10.852   2.360  0.8956 -0.1249  0.4007
  346MOL0     H46660   6.503  10.708   2.455 -0.5602  0.3556 -0.6945
  346MOL0     H46661   6.817  10.886   2.323  2.0199  2.3437  2.4481
  346MOL0     H46662   7.098  10.830   2.385  2.0722  0.4591  0.7793
  346MOL0     H46663   7.043  10.852   2.543  0.7299  1.3975 -1.2104
  346MOL0     H46664   7.120  10.600   2.601 -1.0024  1.9411  1.8511
  346MOL0     H46665   7.171  10.599   2.431 -2.4389  1.2073 -1.2924
  346MOL0     H46666   7.255  10.824   2.601 -0.3178 -0.2382 -1.3821
  346MOL0     H46667   7.346  10.739   2.473 -2.0964 -1.9791 -2.1351
  346MOL0     H46668   7.467  10.680   2.657 -0.5768  1.1656 -0.4652
  346MOL0     H46669   7.347  10.546   2.648  0.9729  0.6018 -2.4669
  346MOL0     H46670   7.367  10.814   2.982  1.7205  1.2905  4.0081
  346MOL0     H46671   7.487  10.764   3.185 -1.4037 -0.8689  1.6378
  346MOL0     H46672   7.881  10.435   3.299 -0.7635 -0.2257 -2.3554
  346MOL0     H46673   8.026  10.308   3.392 -0.5624  2.8786  2.7606
  346MOL0     H46674   8.029  10.012   3.345 -0.7931 -2.7960  0.7530
  346MOL0     H46675   8.157  10.095   3.435  0.1753 -1.6575  0.1740
  346MOL0     H46676   8.060   9.810   3.492 -1.3260  1.5849  0.4864
  346MOL0     H46677   8.198   9.848   3.389  0.4183 -0.0052 -0.4306
  346MOL0     H46678   8.325   9.817   3.590  0.0355 -0.8197 -5.0650
  346MOL0     H46679   8.284   9.991   3.606 -1.2496  0.1078 -0.5072
  346MOL0     H46680   8.087   9.954   3.737  1.6292  0.3424  1.9177
  346MOL0     H46681   8.240   9.904   3.803 -1.4563  3.7432 -0.2133
  346MOL0     H46682   7.994   9.740   3.702 -0.2386  1.2030  0.5074
  346MOL0     H46683   8.079   9.716   3.855  0.5315 -2.2566  0.1231
  346MOL0     H46684   8.154   9.597   3.599 -1.7049  0.3855  1.5087
  346MOL0     H46685   8.272   9.631   3.748  0.6049  2.5464  0.0851
  346MOL0     H46686   8.015   9.456   3.730  0.3016 -1.2094  1.8900
  346MOL0     H46687   8.090   9.507   3.875  0.3068 -1.0821  1.2523
  346MOL0     H46688   8.280   9.351   3.823  0.6200  0.0547 -0.0710
  346MOL0     H46689   8.129   9.271   3.807  0.0416  1.9613  0.6719
  346MOL0     H46690   7.727  10.027   3.533  0.0200  0.0514 -0.4350
  346MOL0     H46691   7.549  10.179   3.424  0.3944  0.1756  0.0195
  346MOL0     H46692   7.515  10.349   3.049  2.0182  0.4890 -1.7321
  346MOL0     H46693   7.394  10.421   2.840  3.6724 -2.2269 -0.5778
  346MOL0     H46694   5.496  10.794   2.479  1.1273  0.5626  0.0234
  346MOL0     H46695   5.382  10.742   2.684  0.2719 -0.8829 -1.6054
  346MOL0     H46696   5.190  10.722   2.959 -1.2518 -1.2160  0.0630
  346MOL0     H46697   5.019  10.644   3.130  0.6067  1.3993  0.2004
  346MOL0     H46698   4.897  10.420   3.402 -0.9192  2.6155  3.7981
  346MOL0     H46699   4.915  10.468   3.224  1.3779  2.4429 -0.4892
  346MOL0     H46700   4.906  10.718   3.332  0.7069  2.4894  4.9229
  346MOL0     H46701   4.898  10.644   3.473  1.1120 -1.0098 -0.6951
  346MOL0     H46702   4.685  10.514   3.358 -0.0153 -0.0232  1.5264
  346MOL0     H46703   4.708  10.653   3.257  1.6986 -0.0962 -0.5269
  346MOL0     H46704   4.682  10.690   3.562 -0.1181 -4.6866 -0.8217
  346MOL0     H46705   4.651  10.809   3.434 -1.5821 -1.6265 -3.1750
  346MOL0     H46706   4.283  10.598   3.465 -0.5179  0.4442  0.5093
  346MOL0     H46707   5.312  10.517   3.383 -1.1231  1.2338  1.3920
  346MOL0     H46708   5.555  10.559   3.344 -2.6898 -3.0228 -0.8867
  346MOL0     H46709   5.604  10.561   3.183 -0.8094 -0.8653  0.3621
  346MOL0     H46710   5.571  10.719   3.266 -0.8607  0.6463  0.2520
  347MOL0     O46711   2.732   8.553   8.657 -0.9271 -0.3577 -0.7999
  347MOL0     C46712   2.624   8.608   8.652  0.7209 -0.6148  0.1973
  347MOL0     O46713   2.596   8.737   8.612  0.1605  0.2557 -0.6499
  347MOL0     C46714   2.705   8.811   8.575  0.0275 -0.9141  0.8394
  347MOL0     C46715   2.749   8.924   8.642  0.0774  0.8805  0.3980
  347MOL0     C46716   2.850   9.002   8.579 -1.3542 -0.7515  0.1190
  347MOL0     C46717   2.903   8.983   8.450  0.7028 -0.3859  0.3102
  347MOL0     O46718   2.997   9.057   8.376  0.0091 -0.3601 -0.1343
  347MOL0     C46719   3.043   9.176   8.440  0.3944 -0.7706  0.5066
  347MOL0     C46720   3.155   9.240   8.341  0.8510 -0.1859 -0.9549
  347MOL0     C46721   3.108   9.254   8.198  0.0527 -0.2812 -0.2553
  347MOL0     C46722   3.205   9.314   8.093  0.6698 -1.1265  0.0144
  347MOL0     C46723   3.142   9.295   7.950  0.2525 -0.2715  0.7635
  347MOL0     C46724   3.246   9.355   7.849 -0.7388 -0.0873 -0.2565
  347MOL0     C46725   3.219   9.324   7.710 -0.4201 -0.5981 -0.0776
  347MOL0     C46726   3.093   9.379   7.644 -0.0683 -0.7723 -1.2655
  347MOL0     N46727   3.071   9.325   7.509 -0.3649  0.3481  1.0325
  347MOL0     C46728   3.174   9.323   7.408  0.0239 -0.3827 -0.0034
  347MOL0     C46729   3.103   9.291   7.302  1.1412 -0.2038  0.0039
  347MOL0     C46730   3.167   9.266   7.173 -0.3774 -0.0963  0.2914
  347MOL0     C46731   3.204   9.398   7.106  0.2968 -0.3902  0.7478
  347MOL0     C46732   3.289   9.353   6.983  0.0811 -0.4060  0.0928
  347MOL0     C46733   3.285   9.452   6.867 -0.4212 -0.2860 -0.9193
  347MOL0     O46734   3.369   9.417   6.761  0.5405 -0.7270  1.0435
  347MOL0     C46735   3.512   9.406   6.771 -0.4450 -0.7245 -0.1113
  347MOL0     C46736   3.584   9.374   6.655  0.1450 -0.2706  0.1080
  347MOL0     C46737   3.722   9.368   6.642 -0.0103 -0.3628 -0.2546
  347MOL0     C46738   3.803   9.387   6.753 -0.3328 -0.4384 -0.2200
  347MOL0     C46739   3.950   9.376   6.735 -0.2447  0.5933 -0.2967
  347MOL0     O46740   3.997   9.377   6.607  0.0179 -0.5282  1.2675
  347MOL0     C46741   4.135   9.382   6.585 -0.3954  1.4267  0.6944
  347MOL0     C46742   4.223   9.488   6.608  0.7920  0.7381  0.2083
  347MOL0     C46743   4.362   9.476   6.580 -1.2183 -0.4434 -0.3151
  347MOL0     C46744   4.416   9.354   6.534  0.5144 -1.0248  0.2885
  347MOL0     O46745   4.546   9.328   6.520 -0.1306 -0.4392 -0.7194
  347MOL0     C46746   4.648   9.428   6.526  0.6541  0.3775  0.1555
  347MOL0     C46747   4.780   9.379   6.467  0.7438  0.5947 -0.1342
  347MOL0     C46748   4.840   9.283   6.577 -0.2992 -1.0143 -0.2678
  347MOL0     C46749   4.938   9.186   6.505 -0.3334  0.2425 -0.4727
  347MOL0     C46750   5.043   9.251   6.411 -0.3417  0.9775  1.0934
  347MOL0     C46751   5.145   9.148   6.367  0.5591 -0.1197  1.0347
  347MOL0     C46752   5.259   9.212   6.286 -0.5037 -0.2647 -0.3540
  347MOL0     C46753   5.361   9.095   6.271 -1.1736  0.2483  0.2510
  347MOL0    Cl46754   5.505   9.129   6.161  0.4165  0.1160  0.1419
  347MOL0     C46755   4.331   9.247   6.510  0.0943 -0.0820 -0.1173
  347MOL0     C46756   4.193   9.262   6.541  0.3559 -0.1439  0.5176
  347MOL0     O46757   4.023   9.381   6.838  0.2833 -0.4838  0.0779
  347MOL0     C46758   3.736   9.413   6.873 -0.6171  0.1718  0.0566
  347MOL0     C46759   3.596   9.434   6.885 -0.1290  0.1618 -0.2643
  347MOL0     N46760   2.971   9.258   7.329 -0.3764  0.3889 -0.0499
  347MOL0     N46761   2.953   9.276   7.455 -0.0084  0.8276 -0.2348
  347MOL0     C46762   2.856   8.872   8.382  0.0971 -0.1805 -0.1913
  347MOL0     C46763   2.755   8.786   8.441 -0.5242  0.3909 -0.2598
  347MOL0     C46764   2.515   8.529   8.726 -0.7458  0.1013  0.0128
  347MOL0     C46765   2.502   8.391   8.702  0.2317  0.3567  0.3806
  347MOL0     C46766   2.407   8.314   8.765  0.1480 -0.6772 -0.0151
  347MOL0     C46767   2.322   8.372   8.870 -0.6475  0.9300 -0.5909
  347MOL0     O46768   2.216   8.305   8.935 -0.0041 -0.0891 -0.2596
  347MOL0     C46769   2.213   8.162   8.941 -0.0501 -0.1683 -0.0960
  347MOL0     C46770   2.328   8.083   9.013  0.1495 -0.4291 -0.1908
  347MOL0     C46771   2.411   8.170   9.119 -0.1252  1.0266  0.2583
  347MOL0     C46772   2.507   8.059   9.185 -0.2631 -0.3831 -0.4198
  347MOL0     C46773   2.591   8.109   9.293 -0.6987  0.4369 -0.4928
  347MOL0     C46774   2.664   8.143   9.388  0.4381 -0.1901 -0.0992
  347MOL0     C46775   2.344   8.502   8.899 -0.2596 -0.8825 -1.0827
  347MOL0     C46776   2.436   8.583   8.836  0.0873 -0.4643  0.3737
  347MOL0     C46777   2.462   8.721   8.885 -0.8830 -1.1847  0.4168
  347MOL0     H46778   2.697   8.937   8.736 -0.5560 -2.1603  0.5708
  347MOL0     H46779   2.878   9.087   8.641 -0.4157  0.6099 -2.0259
  347MOL0     H46780   2.964   9.251   8.447  0.9113 -0.2211  0.5619
  347MOL0     H46781   3.094   9.164   8.536  3.4476  1.8323 -0.5973
  347MOL0     H46782   3.245   9.181   8.362  0.1701 -0.6030  1.0136
  347MOL0     H46783   3.153   9.339   8.386  2.0773 -1.3516  1.9369
  347MOL0     H46784   3.019   9.316   8.194 -0.9851 -1.7489 -0.6088
  347MOL0     H46785   3.066   9.159   8.164 -1.9710  0.4305  0.1279
  347MOL0     H46786   3.223   9.418   8.119 -0.8478 -0.5673 -0.9942
  347MOL0     H46787   3.294   9.251   8.096  1.1186 -0.4686  0.8440
  347MOL0     H46788   3.131   9.190   7.925 -1.4772 -0.3079  1.5429
  347MOL0     H46789   3.048   9.349   7.933  0.3791 -0.9069 -2.5931
  347MOL0     H46790   3.248   9.464   7.860 -2.6359 -0.0298 -0.1785
  347MOL0     H46791   3.339   9.304   7.876 -1.8629 -2.5972 -0.8048
  347MOL0     H46792   3.216   9.216   7.694  0.5946 -0.6634  0.0785
  347MOL0     H46793   3.304   9.348   7.645 -0.2572 -4.2821 -1.4764
  347MOL0     H46794   3.005   9.377   7.709  0.5116  1.7815 -0.2540
  347MOL0     H46795   3.110   9.486   7.627 -1.4161 -0.4767 -0.8764
  347MOL0     H46796   3.277   9.354   7.425 -1.3950  3.0829  4.7042
  347MOL0     H46797   3.271   9.233   7.179 -0.5924 -1.5307 -2.1953
  347MOL0     H46798   3.115   9.193   7.109 -3.1376  1.9382  0.0348
  347MOL0     H46799   3.113   9.448   7.072  0.3029 -1.9542 -1.8561
  347MOL0     H46800   3.262   9.474   7.159 -1.4974  2.0348 -0.6057
  347MOL0     H46801   3.255   9.257   6.945 -2.3321 -0.3063  1.7444
  347MOL0     H46802   3.391   9.322   7.008  0.8177  1.7665  0.0076
  347MOL0     H46803   3.316   9.549   6.906 -0.9895 -0.8609  1.0857
  347MOL0     H46804   3.184   9.458   6.825 -1.0760  0.7950  0.7029
  347MOL0     H46805   3.530   9.380   6.562 -0.9860 -0.3986  0.7460
  347MOL0     H46806   3.770   9.348   6.547 -0.5219  0.1975 -0.6389
  347MOL0     H46807   4.175   9.581   6.637  0.2655  0.6505 -0.3415
  347MOL0     H46808   4.422   9.559   6.615 -2.6839 -0.6860  3.1772
  347MOL0     H46809   4.617   9.514   6.465 -2.0410  1.1868  2.4447
  347MOL0     H46810   4.660   9.460   6.630  0.0704 -1.1054  0.6913
  347MOL0     H46811   4.761   9.335   6.369  4.1723  3.1886 -2.1968
  347MOL0     H46812   4.847   9.464   6.448  2.7889 -1.0368 -0.6288
  347MOL0     H46813   4.885   9.335   6.661 -1.8032  2.9596 -1.6929
  347MOL0     H46814   4.754   9.225   6.613  0.2297 -0.6493  1.6540
  347MOL0     H46815   4.885   9.101   6.461  1.3940  0.3804 -3.0146
  347MOL0     H46816   4.995   9.146   6.589 -3.8432 -1.2670  1.4228
  347MOL0     H46817   5.093   9.336   6.458 -0.5749  1.4923  0.4351
  347MOL0     H46818   4.997   9.296   6.322 -0.3467  0.4725  0.8366
  347MOL0     H46819   5.187   9.103   6.457 -0.1708 -2.4108  0.3004
  347MOL0     H46820   5.097   9.064   6.315  0.4743 -2.6592  4.8016
  347MOL0     H46821   5.297   9.300   6.339  1.0550 -0.7422 -0.6446
  347MOL0     H46822   5.222   9.244   6.188  2.8764  0.9731 -1.3749
  347MOL0     H46823   5.398   9.067   6.370 -0.1964 -1.7971 -0.6461
  347MOL0     H46824   5.314   9.003   6.235  0.1885 -1.0477  1.6035
  347MOL0     H46825   4.357   9.146   6.481 -2.6068 -0.9674  0.2770
  347MOL0     H46826   4.129   9.177   6.521  0.5469 -0.5098  1.4232
  347MOL0     H46827   3.801   9.428   6.958 -1.4954 -3.0098  1.4651
  347MOL0     H46828   3.570   9.463   6.986  1.0807  2.0342 -0.4533
  347MOL0     H46829   2.892   8.858   8.281  0.7568 -1.2996  0.1828
  347MOL0     H46830   2.717   8.703   8.382 -0.9865  2.2003 -2.6628
  347MOL0     H46831   2.561   8.348   8.622 -1.0141 -0.2818 -0.2316
  347MOL0     H46832   2.403   8.207   8.749  0.2040 -0.6881  0.0450
  347MOL0     H46833   2.211   8.127   8.837  0.2220 -2.7596  0.7009
  347MOL0     H46834   2.116   8.124   8.973 -0.2551  0.7461  0.3923
  347MOL0     H46835   2.386   8.050   8.927  0.0164  2.0055 -1.3186
  347MOL0     H46836   2.291   7.993   9.063  1.2575  0.2532  1.9925
  347MOL0     H46837   2.340   8.209   9.193 -1.2201  1.2290 -0.8541
  347MOL0     H46838   2.461   8.255   9.072 -2.9834  0.8413 -3.6412
  347MOL0     H46839   2.439   7.984   9.227 -0.6779  0.8020  1.1055
  347MOL0     H46840   2.572   8.001   9.119  1.7468 -0.8346  1.8285
  347MOL0     H46841   2.724   8.176   9.470 -0.1849  1.2713 -0.2087
  347MOL0     H46842   2.288   8.541   8.984  0.8464  1.6179 -1.3977
  347MOL0     H46843   2.567   8.751   8.884 -1.3533  0.5384 -0.4334
  347MOL0     H46844   2.417   8.785   8.809 -0.6694 -2.6652 -1.0204
  347MOL0     H46845   2.416   8.745   8.982  1.7891 -1.2678  1.8094
  348MOL0     O46846   3.827   1.269   2.046 -0.1893  0.3221 -0.4397
  348MOL0     C46847   3.863   1.221   1.937  0.3090  0.6628 -0.1713
  348MOL0     O46848   3.964   1.133   1.925  0.0275  0.8801  0.2895
  348MOL0     C46849   4.052   1.099   2.023 -0.2963 -0.0769 -0.1482
  348MOL0     C46850   4.171   1.036   1.970  0.8033 -0.4802  0.2202
  348MOL0     C46851   4.281   1.002   2.048  0.1201 -0.7847 -0.0538
  348MOL0     C46852   4.267   1.014   2.188 -0.4590 -1.3594  0.0330
  348MOL0     O46853   4.378   0.983   2.266  0.5709  0.0631  0.0877
  348MOL0     C46854   4.349   0.928   2.393 -0.2514  0.6498  0.3054
  348MOL0     C46855   4.453   0.826   2.462  0.4173 -0.5400 -0.1373
  348MOL0     C46856   4.583   0.883   2.469  0.3949 -0.5468  1.2666
  348MOL0     C46857   4.674   0.789   2.550 -0.4794 -0.4656 -0.8114
  348MOL0     C46858   4.789   0.877   2.604  0.0903 -0.1358 -0.4865
  348MOL0     C46859   4.883   0.950   2.505 -0.2660  0.9326 -0.4095
  348MOL0     C46860   5.001   1.013   2.591  0.4997 -0.4715  0.4184
  348MOL0     C46861   5.100   1.084   2.504  0.1607 -0.0810 -0.9013
  348MOL0     N46862   5.052   1.182   2.413 -0.7308 -0.6928 -0.0376
  348MOL0     C46863   5.005   1.154   2.283  0.3549  0.3979 -1.3075
  348MOL0     C46864   4.975   1.274   2.236  0.6407 -0.0888 -0.2747
  348MOL0     C46865   4.923   1.300   2.099 -0.8074  0.6038  0.2115
  348MOL0     C46866   5.032   1.372   2.030  0.1783 -0.6615  0.4375
  348MOL0     C46867   5.005   1.372   1.873 -0.5342 -0.8458 -0.4349
  348MOL0     C46868   5.070   1.491   1.808  0.0909 -0.0344  0.6525
  348MOL0     O46869   5.212   1.501   1.833  0.3592  0.2864  0.5565
  348MOL0     C46870   5.286   1.601   1.782  0.5508 -1.0752  1.0461
  348MOL0     C46871   5.230   1.702   1.692 -0.5722 -0.2327  0.3075
  348MOL0     C46872   5.319   1.793   1.632  0.6197  1.6235  0.3298
  348MOL0     C46873   5.455   1.796   1.667  0.8082 -0.7013  0.2868
  348MOL0     C46874   5.542   1.893   1.600 -0.8792 -0.5661  0.1629
  348MOL0     O46875   5.659   1.923   1.668  0.1015  0.7532 -0.5211
  348MOL0     C46876   5.743   2.014   1.615  0.5812 -0.1010 -1.4488
  348MOL0     C46877   5.729   2.143   1.664  0.4506  0.1545  0.6585
  348MOL0     C46878   5.820   2.243   1.639 -1.2590  0.7280  0.0687
  348MOL0     C46879   5.938   2.229   1.560  0.7861 -0.4347  0.2522
  348MOL0     O46880   6.045   2.309   1.548  0.0776 -0.8186 -0.4208
  348MOL0     C46881   6.117   2.336   1.425  0.4592 -0.3453  0.4820
  348MOL0     C46882   6.082   2.474   1.375 -0.5861 -0.3312 -0.9444
  348MOL0     C46883   6.127   2.509   1.236  0.7537  0.0146 -0.2030
  348MOL0     C46884   6.059   2.641   1.193  0.7699  0.2962  0.4343
  348MOL0     C46885   6.110   2.676   1.051  0.1150 -0.8547 -0.2808
  348MOL0     C46886   6.060   2.820   0.989 -0.8636  0.0248 -0.7140
  348MOL0     C46887   5.915   2.838   0.975  0.9437 -0.3795 -0.1122
  348MOL0     C46888   5.871   2.987   0.959  0.4568 -0.0586 -0.4676
  348MOL0    Cl46889   5.929   3.078   0.818 -0.5964 -0.9219 -0.6516
  348MOL0     C46890   5.948   2.103   1.498  0.5014 -0.0765 -1.1374
  348MOL0     C46891   5.864   1.993   1.535  0.4393 -0.6536  0.5639
  348MOL0     O46892   5.501   1.956   1.509 -0.4402  0.2182 -0.0274
  348MOL0     C46893   5.507   1.701   1.762  0.0025 -1.0368  0.2453
  348MOL0     C46894   5.425   1.599   1.805 -0.8018  0.9816  0.2568
  348MOL0     N46895   5.006   1.377   2.333 -0.6878 -0.2186  0.2907
  348MOL0     N46896   5.054   1.315   2.434  0.3904 -0.2571  0.4502
  348MOL0     C46897   4.160   1.081   2.248  0.5374 -0.3627  0.0410
  348MOL0     C46898   4.052   1.116   2.165 -0.1271 -0.7171 -0.4554
  348MOL0     C46899   3.795   1.262   1.815 -0.2021 -0.7687 -0.6965
  348MOL0     C46900   3.885   1.277   1.710 -0.5059 -0.3220 -0.1335
  348MOL0     C46901   3.845   1.335   1.593 -0.4202  0.0276 -0.3056
  348MOL0     C46902   3.711   1.370   1.572  0.3299  0.4033 -0.1207
  348MOL0     O46903   3.669   1.410   1.448 -0.3838  0.7152  0.9729
  348MOL0     C46904   3.536   1.375   1.410  1.8002 -0.3637 -0.0784
  348MOL0     C46905   3.528   1.370   1.263  0.1257 -0.7296 -0.3723
  348MOL0     C46906   3.614   1.261   1.190  0.3659  0.3895 -0.0591
  348MOL0     C46907   3.612   1.300   1.044  0.1973  0.5858 -0.3444
  348MOL0     C46908   3.711   1.239   0.955  0.2444 -0.4164 -1.0187
  348MOL0     C46909   3.786   1.181   0.875 -0.1193  0.2183 -0.2360
  348MOL0     C46910   3.624   1.341   1.680 -0.0237 -0.0853  0.2891
  348MOL0     C46911   3.663   1.309   1.806 -0.5743  0.6247 -1.3133
  348MOL0     C46912   3.558   1.306   1.908  0.1359  0.7713  0.0283
  348MOL0     H46913   4.178   1.022   1.863  0.2543 -1.9133  0.3473
  348MOL0     H46914   4.363   0.950   2.001  0.3491  0.2697 -0.8564
  348MOL0     H46915   4.339   1.011   2.463  2.1030 -0.6399  2.3519
  348MOL0     H46916   4.259   0.866   2.402  1.4600 -1.9746  0.6588
  348MOL0     H46917   4.459   0.732   2.407  1.7621 -0.0760 -0.8277
  348MOL0     H46918   4.419   0.799   2.563 -0.6492 -1.1941 -0.6560
  348MOL0     H46919   4.581   0.987   2.504 -1.4703  1.1196 -3.1363
  348MOL0     H46920   4.623   0.907   2.370 -0.9104 -0.9982  0.6180
  348MOL0     H46921   4.617   0.742   2.631  0.6309  2.0307  1.5607
  348MOL0     H46922   4.722   0.711   2.491 -0.1276  0.6379 -2.0303
  348MOL0     H46923   4.752   0.946   2.681  2.0394 -0.5214  0.8921
  348MOL0     H46924   4.855   0.813   2.664  0.3099 -0.1137 -0.7050
  348MOL0     H46925   4.927   0.881   2.433 -2.7495  0.1481 -1.2904
  348MOL0     H46926   4.810   1.022   2.466 -3.5048 -1.7014  0.2576
  348MOL0     H46927   5.062   0.943   2.648  3.3649  2.7004  1.5568
  348MOL0     H46928   4.967   1.086   2.665  3.4404  0.8238  0.6278
  348MOL0     H46929   5.171   1.129   2.574  3.7608 -5.2221 -0.7534
  348MOL0     H46930   5.155   1.005   2.453  2.5718  0.4427  0.7043
  348MOL0     H46931   5.003   1.055   2.238 -0.4288 -1.2882  2.0875
  348MOL0     H46932   4.889   1.208   2.050 -1.5556  1.3228 -0.6708
  348MOL0     H46933   4.834   1.364   2.094 -1.9388 -0.9962 -2.2263
  348MOL0     H46934   5.026   1.474   2.068 -2.1333 -1.0421  1.3130
  348MOL0     H46935   5.131   1.334   2.055  0.1162  0.7501  3.2061
  348MOL0     H46936   4.903   1.368   1.834 -0.7849  0.2593  0.0427
  348MOL0     H46937   5.063   1.292   1.827 -0.4887 -0.1424 -1.6491
  348MOL0     H46938   5.021   1.584   1.837  1.3090  0.3314  1.5834
  348MOL0     H46939   5.059   1.482   1.700 -3.5394 -1.4293  0.9946
  348MOL0     H46940   5.126   1.708   1.663 -1.4351 -4.1263  1.9165
  348MOL0     H46941   5.274   1.852   1.553  0.5847 -0.8309 -1.6262
  348MOL0     H46942   5.646   2.152   1.733 -0.5512 -1.3600 -0.3016
  348MOL0     H46943   5.807   2.335   1.695  2.1156 -0.6526  3.6242
  348MOL0     H46944   6.224   2.315   1.428  0.5974 -0.8456 -2.9862
  348MOL0     H46945   6.089   2.268   1.344  0.1662  2.5482 -2.0807
  348MOL0     H46946   5.973   2.483   1.375 -0.4731  1.9665 -2.5027
  348MOL0     H46947   6.125   2.550   1.440 -0.3132 -1.5063  0.3016
  348MOL0     H46948   6.235   2.523   1.230  0.8680 -0.0822  1.3074
  348MOL0     H46949   6.103   2.433   1.160  0.6434  1.9891 -2.2387
  348MOL0     H46950   6.061   2.729   1.258 -2.0414  0.3843  0.5367
  348MOL0     H46951   5.954   2.615   1.179  0.6621  0.9547 -0.0272
  348MOL0     H46952   6.088   2.600   0.976 -0.0990 -0.6121 -0.4663
  348MOL0     H46953   6.219   2.674   1.057  0.4155  3.7022 -0.7273
  348MOL0     H46954   6.110   2.896   1.049  0.7779 -0.8902 -0.8476
  348MOL0     H46955   6.101   2.831   0.888 -4.2678 -1.3153 -2.4107
  348MOL0     H46956   5.865   2.815   1.070 -2.1183  2.3354 -0.8573
  348MOL0     H46957   5.885   2.783   0.886  0.2095  0.8253 -0.6406
  348MOL0     H46958   5.761   2.987   0.952  0.3915 -1.4713  0.2368
  348MOL0     H46959   5.899   3.038   1.051  0.0729 -0.5925 -0.0499
  348MOL0     H46960   6.018   2.089   1.417 -2.0136 -0.3108 -3.4026
  348MOL0     H46961   5.874   1.899   1.481  0.4445  0.8267 -2.1868
  348MOL0     H46962   5.611   1.707   1.794 -0.4381  2.3307  1.5024
  348MOL0     H46963   5.468   1.515   1.859  0.3458  0.4559 -1.3917
  348MOL0     H46964   4.161   1.102   2.355  0.1210 -4.6866  1.0871
  348MOL0     H46965   3.976   1.171   2.219  2.4342  1.5711  1.1004
  348MOL0     H46966   3.981   1.227   1.705  0.0038  0.5564  0.6944
  348MOL0     H46967   3.916   1.349   1.512 -2.3726  2.9570 -1.6980
  348MOL0     H46968   3.459   1.439   1.455  1.8713 -0.5117  0.2581
  348MOL0     H46969   3.514   1.272   1.439 -0.3175  0.2213  0.5319
  348MOL0     H46970   3.574   1.464   1.232  0.8670 -0.5933  1.0506
  348MOL0     H46971   3.430   1.374   1.216  1.3067 -0.9891 -3.0562
  348MOL0     H46972   3.584   1.157   1.203 -1.5536  1.0084  0.8554
  348MOL0     H46973   3.717   1.275   1.223  0.0972  3.4083 -0.1334
  348MOL0     H46974   3.514   1.278   1.001 -0.5415  1.2299  0.9715
  348MOL0     H46975   3.626   1.408   1.043 -1.8419  0.9568 -3.0989
  348MOL0     H46976   3.842   1.125   0.802  2.3311  0.7954  1.0992
  348MOL0     H46977   3.521   1.367   1.655  0.5723 -0.0793 -2.3617
  348MOL0     H46978   3.478   1.253   1.856  1.3387  0.1346 -1.2496
  348MOL0     H46979   3.570   1.250   2.002 -0.7227  2.1702  1.0041
  348MOL0     H46980   3.524   1.400   1.951  2.3634  0.7226  2.1944
  349MOL0     O46981   1.345   4.576   0.199 -0.6894 -0.0293  0.7149
  349MOL0     C46982   1.467   4.551   0.211 -0.6659 -0.0154 -0.2913
  349MOL0     O46983   1.530   4.451   0.158 -0.2215 -0.1598 -0.2496
  349MOL0     C46984   1.474   4.327   0.131 -0.3504  0.0350 -0.8111
  349MOL0     C46985   1.560   4.213   0.122  0.2146 -0.2591  0.4848
  349MOL0     C46986   1.508   4.086   0.119  0.3063  0.2738  0.2695
  349MOL0     C46987   1.371   4.061   0.105 -0.1438 -0.4261 -0.2044
  349MOL0     O46988   1.314   3.935   0.098  0.1899 -0.0404  0.2357
  349MOL0     C46989   1.392   3.820   0.047  0.6998  0.5660 -0.4414
  349MOL0     C46990   1.288   3.707   0.003  0.5873 -0.2278  0.8552
  349MOL0     C46991   1.229   3.741  -0.143 -0.1209 -0.4940  0.1966
  349MOL0     C46992   1.139   3.626  -0.180 -0.3902  0.3017  0.0964
  349MOL0     C46993   1.062   3.633  -0.311 -1.0155  0.3204  0.1151
  349MOL0     C46994   0.983   3.765  -0.334  0.8660  0.2019  0.4028
  349MOL0     C46995   0.916   3.771  -0.475  0.7265  0.0610  0.3152
  349MOL0     C46996   0.994   3.741  -0.598 -0.3152 -0.3141 -0.0562
  349MOL0     N46997   1.106   3.837  -0.618  1.1367  0.0754 -0.1256
  349MOL0     C46998   1.231   3.808  -0.643 -0.3975  0.2781 -1.3768
  349MOL0     C46999   1.293   3.925  -0.679 -0.7094  0.7067 -0.1945
  349MOL0     C47000   1.439   3.953  -0.719  0.3849 -0.8357 -1.4955
  349MOL0     C47001   1.507   3.825  -0.767 -0.5611  0.7393 -0.7063
  349MOL0     C47002   1.654   3.859  -0.790 -0.4531 -0.4883 -0.0993
  349MOL0     C47003   1.740   3.744  -0.849  0.9680 -0.3649 -0.5086
  349MOL0     O47004   1.880   3.776  -0.841 -0.6733  0.6353  0.0774
  349MOL0     C47005   1.971   3.722  -0.759  0.5256  0.1377 -0.2864
  349MOL0     C47006   1.940   3.665  -0.634  0.4280  0.2318  0.4525
  349MOL0     C47007   2.038   3.593  -0.574  0.3151  0.6441 -0.0292
  349MOL0     C47008   2.167   3.575  -0.626 -0.7537  0.0752  0.8630
  349MOL0     C47009   2.276   3.507  -0.553 -0.5559  0.9127 -0.1747
  349MOL0     O47010   2.381   3.461  -0.627  0.1689 -0.2108  0.2703
  349MOL0     C47011   2.474   3.376  -0.574  0.1942  0.5478  0.1384
  349MOL0     C47012   2.496   3.244  -0.615  0.0661 -0.5178 -0.3888
  349MOL0     C47013   2.603   3.168  -0.562 -0.3357  0.6960  0.1101
  349MOL0     C47014   2.689   3.229  -0.461  0.4588 -0.0240 -0.1895
  349MOL0     O47015   2.811   3.176  -0.421  0.3407 -0.5905  0.6764
  349MOL0     C47016   2.864   3.063  -0.490  0.0753 -0.8983 -0.7979
  349MOL0     C47017   3.016   3.033  -0.440 -0.1338 -0.1307 -0.7126
  349MOL0     C47018   3.022   2.976  -0.299 -0.1262  0.7128  0.0467
  349MOL0     C47019   2.944   2.843  -0.277  0.2924  0.4835 -0.0995
  349MOL0     C47020   3.023   2.750  -0.178 -0.5756 -0.0423 -1.0434
  349MOL0     C47021   3.030   2.802  -0.034  0.5939  0.2294  0.3143
  349MOL0     C47022   3.120   2.690   0.046  0.3518 -1.1020 -0.3964
  349MOL0     C47023   3.143   2.724   0.193  0.8494 -0.7920 -0.6422
  349MOL0    Cl47024   3.034   2.647   0.310  0.3120 -0.2229  0.2893
  349MOL0     C47025   2.654   3.355  -0.409  0.0226 -0.1969 -0.1772
  349MOL0     C47026   2.551   3.426  -0.469 -0.5160  0.2386 -0.3425
  349MOL0     O47027   2.252   3.475  -0.436 -0.3637 -0.1517 -1.0698
  349MOL0     C47028   2.201   3.646  -0.748 -0.0467  0.1343 -0.4329
  349MOL0     C47029   2.103   3.718  -0.812  0.2974 -0.0239  0.1133
  349MOL0     N47030   1.205   4.025  -0.673 -0.5763 -0.1616  0.7902
  349MOL0     N47031   1.091   3.971  -0.643 -0.4529  0.1300  0.7774
  349MOL0     C47032   1.287   4.169   0.100  0.0860 -0.5245 -0.9550
  349MOL0     C47033   1.337   4.304   0.113 -0.2208 -0.0332 -0.2318
  349MOL0     C47034   1.556   4.657   0.271  0.3606 -0.3470  0.0664
  349MOL0     C47035   1.686   4.654   0.233 -0.2101  0.8875  0.8266
  349MOL0     C47036   1.770   4.751   0.263 -0.0407  0.7387  0.3241
  349MOL0     C47037   1.736   4.862   0.344 -0.6118  0.2890 -0.1353
  349MOL0     O47038   1.836   4.952   0.369 -0.0724  0.3973  0.3353
  349MOL0     C47039   1.796   5.074   0.433 -1.1114 -0.4347  0.3008
  349MOL0     C47040   1.903   5.178   0.417 -0.2676 -0.5216 -0.4414
  349MOL0     C47041   2.051   5.130   0.400  0.6975 -0.1292 -0.5193
  349MOL0     C47042   2.140   5.266   0.406  0.3171 -0.1847 -0.3413
  349MOL0     C47043   2.162   5.308   0.547 -0.0865  0.1916 -0.1071
  349MOL0     C47044   2.196   5.342   0.661  0.2640  0.2927  0.0766
  349MOL0     C47045   1.612   4.859   0.387  0.5779  0.0873 -0.5085
  349MOL0     C47046   1.521   4.757   0.362  0.9845  0.8292  0.1353
  349MOL0     C47047   1.379   4.766   0.428 -0.2818 -0.0045  0.3267
  349MOL0     H47048   1.668   4.219   0.126  0.3117 -0.2276 -1.3899
  349MOL0     H47049   1.573   4.001   0.136 -0.5674  0.0552  2.9599
  349MOL0     H47050   1.466   3.844  -0.030  1.7374  1.4846  0.7886
  349MOL0     H47051   1.449   3.793   0.137  0.0030  2.7414  0.7122
  349MOL0     H47052   1.216   3.688   0.083 -0.1923 -1.8358 -0.1724
  349MOL0     H47053   1.346   3.615  -0.003  0.0893 -0.4264 -2.3461
  349MOL0     H47054   1.313   3.755  -0.212 -0.4552 -0.2423 -0.1605
  349MOL0     H47055   1.172   3.834  -0.141  1.2243  0.3786 -0.2866
  349MOL0     H47056   1.199   3.535  -0.178  0.3677  0.7783  2.5434
  349MOL0     H47057   1.069   3.641  -0.097  2.2797  1.6467  2.2414
  349MOL0     H47058   1.134   3.631  -0.392 -1.3984 -0.3276 -0.2226
  349MOL0     H47059   0.996   3.545  -0.319  0.3584 -0.6018 -1.8040
  349MOL0     H47060   0.902   3.770  -0.261  2.0494 -1.1218  1.9047
  349MOL0     H47061   1.050   3.850  -0.319  0.3893  1.1503 -2.4132
  349MOL0     H47062   0.872   3.870  -0.493  1.5788  0.0134 -2.5521
  349MOL0     H47063   0.842   3.695  -0.448  1.3204  0.4583  3.3908
  349MOL0     H47064   1.036   3.640  -0.592 -2.3962 -1.1297  2.3744
  349MOL0     H47065   0.926   3.746  -0.684 -0.3393 -0.6083 -0.0527
  349MOL0     H47066   1.278   3.710  -0.641 -1.7532 -0.4190 -1.9104
  349MOL0     H47067   1.434   4.027  -0.799 -0.9824  1.5395  0.6334
  349MOL0     H47068   1.478   4.004  -0.630 -2.9474 -1.1440  0.3029
  349MOL0     H47069   1.488   3.738  -0.704  1.3185  0.0830 -0.9843
  349MOL0     H47070   1.467   3.790  -0.862 -0.7059  1.7612 -1.0396
  349MOL0     H47071   1.691   3.881  -0.690  1.1826 -2.8533 -0.1174
  349MOL0     H47072   1.657   3.945  -0.858  1.0523 -0.5321 -0.1180
  349MOL0     H47073   1.721   3.727  -0.955  1.6068 -1.1934 -0.4963
  349MOL0     H47074   1.709   3.658  -0.789 -0.7040  0.1412 -0.5840
  349MOL0     H47075   1.837   3.670  -0.600  0.1656 -2.2473  0.2401
  349MOL0     H47076   2.008   3.532  -0.489  1.1265 -2.2587 -1.6801
  349MOL0     H47077   2.438   3.192  -0.690 -1.9803  0.5864  0.3626
  349MOL0     H47078   2.620   3.065  -0.590 -2.2941 -0.0460  1.4373
  349MOL0     H47079   2.803   2.972  -0.487  2.6488 -3.1291 -5.1216
  349MOL0     H47080   2.877   3.086  -0.596  0.0477 -0.2324 -0.6577
  349MOL0     H47081   3.058   2.978  -0.524 -1.3206 -3.8778  0.9263
  349MOL0     H47082   3.080   3.121  -0.429 -0.8843  0.5232 -1.4616
  349MOL0     H47083   3.127   2.974  -0.268 -0.0332  1.1424 -0.2272
  349MOL0     H47084   2.970   3.049  -0.237  2.8532  1.6246  1.6489
  349MOL0     H47085   2.930   2.789  -0.372  3.1007  1.1443 -0.9932
  349MOL0     H47086   2.847   2.874  -0.236  1.6587  3.3062  1.2195
  349MOL0     H47087   3.128   2.736  -0.206 -0.0889 -1.4467  1.2505
  349MOL0     H47088   2.986   2.648  -0.170  0.6911 -0.3538  2.4797
  349MOL0     H47089   3.073   2.903  -0.030  0.3997  0.5736 -3.0081
  349MOL0     H47090   2.930   2.814   0.009  1.3563  1.2386  1.8884
  349MOL0     H47091   3.221   2.708   0.009  0.8928  1.3940  1.9467
  349MOL0     H47092   3.081   2.588   0.034 -1.0134 -0.8754  1.6380
  349MOL0     H47093   3.244   2.690   0.217  0.5179 -0.4649  1.4283
  349MOL0     H47094   3.144   2.833   0.204  1.1114 -1.0889  4.7618
  349MOL0     H47095   2.704   3.404  -0.326 -1.2844  0.4534  0.2594
  349MOL0     H47096   2.537   3.525  -0.429 -2.3526 -0.5508  1.1096
  349MOL0     H47097   2.302   3.642  -0.788  0.1758 -0.4670  0.1821
  349MOL0     H47098   2.125   3.753  -0.913 -1.7446 -0.3503 -0.4941
  349MOL0     H47099   1.179   4.165   0.102  0.1119 -1.6347 -1.3313
  349MOL0     H47100   1.265   4.385   0.113  1.4300  1.4899 -1.5519
  349MOL0     H47101   1.733   4.579   0.170  0.1889  0.5712  1.4964
  349MOL0     H47102   1.872   4.744   0.228 -0.2239 -1.9818  0.1498
  349MOL0     H47103   1.778   5.054   0.538  0.1146 -3.1612  0.0838
  349MOL0     H47104   1.707   5.117   0.386  0.5238  2.6855 -0.2418
  349MOL0     H47105   1.900   5.245   0.504  1.1670 -1.8061  0.6559
  349MOL0     H47106   1.888   5.251   0.337 -1.0940  0.1829  0.3306
  349MOL0     H47107   2.047   5.089   0.299 -0.5230 -0.4689 -0.3493
  349MOL0     H47108   2.086   5.059   0.475  1.3739  3.4983  2.9729
  349MOL0     H47109   2.235   5.250   0.354 -0.0383 -0.7245 -0.8390
  349MOL0     H47110   2.086   5.346   0.355 -0.9164 -0.0678  1.0831
  349MOL0     H47111   2.231   5.368   0.759  0.3708 -4.7190  1.6469
  349MOL0     H47112   1.591   4.928   0.468  0.9196  0.7177 -0.9513
  349MOL0     H47113   1.396   4.831   0.514 -0.7260  0.0102  0.4062
  349MOL0     H47114   1.302   4.812   0.365  1.1197  2.8214  0.5534
  349MOL0     H47115   1.342   4.666   0.454  0.5021 -0.8305 -1.5112
  350MOL0     O47116  10.579   3.921   6.846 -0.4290 -0.1398 -0.5870
  350MOL0     C47117  10.570   3.987   6.948  0.8219  0.6119 -0.6724
  350MOL0     O47118  10.561   4.121   6.952 -0.5306 -1.1921  0.0357
  350MOL0     C47119  10.588   4.197   6.836 -0.2183 -0.3363 -0.5547
  350MOL0     C47120  10.633   4.332   6.860 -0.1908 -0.5332  0.2218
  350MOL0     C47121  10.662   4.420   6.748  0.6490  0.5265  0.4222
  350MOL0     C47122  10.662   4.373   6.618 -0.3830 -0.6104  0.2279
  350MOL0     O47123  10.693   4.469   6.524  0.0386 -0.2898  0.7785
  350MOL0     C47124  10.678   4.441   6.384  0.2498 -0.4882 -0.6401
  350MOL0     C47125  10.531   4.421   6.344 -0.5552 -0.4582 -0.4897
  350MOL0     C47126  10.514   4.322   6.221 -0.1687 -0.3301  0.8624
  350MOL0     C47127  10.384   4.366   6.150  0.5365 -0.2508  0.9225
  350MOL0     C47128  10.376   4.288   6.016  0.0271  0.5155  0.2339
  350MOL0     C47129  10.253   4.337   5.931  0.2035  0.3920 -0.4711
  350MOL0     C47130  10.246   4.290   5.793 -0.0999  0.2562  0.3252
  350MOL0     C47131  10.140   4.347   5.704 -0.2568 -0.3716 -1.1894
  350MOL0     N47132  10.167   4.488   5.671  0.0546 -0.2728 -0.3631
  350MOL0     C47133  10.233   4.528   5.558 -0.4744 -0.6428 -0.4833
  350MOL0     C47134  10.210   4.663   5.546  0.6634  0.6579  0.6875
  350MOL0     C47135  10.260   4.743   5.434 -0.3238  0.2614 -0.2272
  350MOL0     C47136  10.406   4.736   5.389 -0.1604  1.3694  0.4697
  350MOL0     C47137  10.518   4.787   5.483  0.7640 -1.0540 -0.2197
  350MOL0     C47138  10.653   4.780   5.427  0.6078  0.0950 -0.0606
  350MOL0     O47139  10.663   4.854   5.304  0.0206 -0.6923  0.8541
  350MOL0     C47140  10.756   4.842   5.209  0.2578 -0.3306 -0.1418
  350MOL0     C47141  10.743   4.900   5.087 -0.0790 -0.7480 -0.1763
  350MOL0     C47142  10.844   4.881   4.993 -1.1784 -0.2440  0.4409
  350MOL0     C47143  10.948   4.793   5.004 -1.0697 -0.8263 -0.1727
  350MOL0     C47144  11.038   4.757   4.889  0.0896 -0.8499  0.1113
  350MOL0     O47145  11.172   4.748   4.923  0.6985 -0.4560  0.2035
  350MOL0     C47146  11.256   4.688   4.837  0.9605 -0.0268  0.3255
  350MOL0     C47147  11.236   4.553   4.815  1.0482  0.3318  0.4426
  350MOL0     C47148  11.318   4.477   4.732 -0.3955  0.1554 -0.8142
  350MOL0     C47149  11.434   4.533   4.676  0.5373 -0.7399 -0.9255
  350MOL0     O47150  11.524   4.463   4.600 -0.3082  0.0375 -0.4557
  350MOL0     C47151  11.519   4.479   4.454 -0.1044 -0.0973 -0.3034
  350MOL0     C47152  11.653   4.428   4.392  0.6271 -0.2824  0.9972
  350MOL0     C47153  11.617   4.386   4.249  0.0963 -0.7793 -1.1419
  350MOL0     C47154  11.741   4.364   4.156  0.4020 -0.1103 -0.2531
  350MOL0     C47155  11.699   4.317   4.016 -0.5441 -1.2498 -0.4009
  350MOL0     C47156  11.692   4.429   3.916 -0.6772  0.5993  0.0910
  350MOL0     C47157  11.690   4.360   3.782  0.0258 -0.2747 -0.0508
  350MOL0     C47158  11.634   4.443   3.668 -0.4655  0.4384  0.7790
  350MOL0    Cl47159  11.719   4.601   3.647  0.1955  0.1565  0.0949
  350MOL0     C47160  11.464   4.664   4.718  0.4000 -0.2852 -0.1002
  350MOL0     C47161  11.370   4.744   4.788 -0.3260  0.6451  0.1400
  350MOL0     O47162  10.991   4.737   4.776  0.2748  0.2801 -0.5389
  350MOL0     C47163  10.972   4.737   5.133 -0.9778 -1.1388  0.1465
  350MOL0     C47164  10.875   4.760   5.237  0.3429 -0.7577  1.7211
  350MOL0     N47165  10.134   4.705   5.653  0.2936  0.5782  0.5184
  350MOL0     N47166  10.102   4.597   5.718  0.1693 -0.1869  0.0019
  350MOL0     C47167  10.614   4.245   6.600  0.4746 -0.4217  0.9316
  350MOL0     C47168  10.583   4.159   6.703  0.2660  0.5750 -0.1498
  350MOL0     C47169  10.552   3.925   7.080  0.7617 -0.6211 -0.0223
  350MOL0     C47170  10.603   3.795   7.093 -0.0474  0.0524 -0.2228
  350MOL0     C47171  10.601   3.727   7.219  0.0515  0.0693  0.2285
  350MOL0     C47172  10.596   3.804   7.330 -0.2903  0.0183  0.2024
  350MOL0     O47173  10.601   3.740   7.449 -0.5330 -0.2358  0.2136
  350MOL0     C47174  10.589   3.600   7.469  0.3129  1.0674  0.9113
  350MOL0     C47175  10.446   3.567   7.448  0.7870  1.0054  0.4652
  350MOL0     C47176  10.339   3.616   7.561 -0.4841 -0.7107  0.1419
  350MOL0     C47177  10.198   3.562   7.540  0.0072  0.1391 -0.0219
  350MOL0     C47178  10.138   3.604   7.412  0.1576  0.0317 -0.5288
  350MOL0     C47179  10.082   3.634   7.307 -0.4357  0.0813 -0.4153
  350MOL0     C47180  10.551   3.936   7.314  0.2643  0.6668 -0.2211
  350MOL0     C47181  10.515   3.999   7.195  1.3717  0.1176 -0.7696
  350MOL0     C47182  10.441   4.123   7.206 -0.3721 -0.1170 -0.2237
  350MOL0     H47183  10.620   4.374   6.959  2.9221 -2.3634  1.5595
  350MOL0     H47184  10.697   4.518   6.779 -1.0995  0.1765  4.0393
  350MOL0     H47185  10.719   4.523   6.325  1.1669 -2.2979 -2.6415
  350MOL0     H47186  10.728   4.347   6.360 -0.7035 -1.7518  1.9122
  350MOL0     H47187  10.475   4.514   6.333  0.0938 -0.0080 -0.0685
  350MOL0     H47188  10.488   4.366   6.428 -1.2664  1.1650  0.2334
  350MOL0     H47189  10.505   4.220   6.258  1.8124 -1.6225 -1.8780
  350MOL0     H47190  10.601   4.322   6.154  1.8108 -1.6456  3.2486
  350MOL0     H47191  10.297   4.344   6.214  0.0890 -1.2894 -0.0055
  350MOL0     H47192  10.377   4.473   6.131 -1.2535 -0.3792  0.6569
  350MOL0     H47193  10.464   4.303   5.954 -0.2576  0.7793 -0.1108
  350MOL0     H47194  10.362   4.184   6.045 -2.1786  0.7740  0.2728
  350MOL0     H47195  10.159   4.293   5.966  1.0553  0.2391  1.7693
  350MOL0     H47196  10.252   4.446   5.934  1.2317  0.3879  1.0890
  350MOL0     H47197  10.221   4.184   5.810  0.5712  0.3941  2.5253
  350MOL0     H47198  10.343   4.293   5.743  1.0687 -1.5699  2.2788
  350MOL0     H47199  10.138   4.300   5.605 -0.0954  0.2852 -1.5116
  350MOL0     H47200  10.046   4.335   5.759  0.8609 -3.0955  0.3287
  350MOL0     H47201  10.303   4.475   5.494 -1.0809  0.3079 -1.9945
  350MOL0     H47202  10.198   4.717   5.348  3.3852  2.4615 -3.8909
  350MOL0     H47203  10.240   4.848   5.460 -1.2135 -0.5721  2.9156
  350MOL0     H47204  10.436   4.637   5.354  3.6274  1.8688  1.9100
  350MOL0     H47205  10.412   4.812   5.310 -0.6281  2.5098  1.4816
  350MOL0     H47206  10.516   4.741   5.583  2.4991 -0.5194  0.0876
  350MOL0     H47207  10.502   4.894   5.496  1.4804 -1.1135  1.4773
  350MOL0     H47208  10.674   4.674   5.411  0.6859  0.0033  0.6209
  350MOL0     H47209  10.729   4.818   5.496  0.4748 -0.8641  0.6266
  350MOL0     H47210  10.657   4.965   5.077 -1.4633 -2.5675 -0.6838
  350MOL0     H47211  10.826   4.932   4.899 -1.3165  0.9543  1.0943
  350MOL0     H47212  11.150   4.505   4.861  0.3303  1.2723  0.1165
  350MOL0     H47213  11.299   4.371   4.717 -3.0091  0.7036 -1.9342
  350MOL0     H47214  11.432   4.434   4.405 -1.4385  1.7823  0.2225
  350MOL0     H47215  11.510   4.584   4.425  4.0649  0.6742  0.6149
  350MOL0     H47216  11.721   4.514   4.396 -1.0995  1.3581 -1.6473
  350MOL0     H47217  11.694   4.350   4.457 -1.0994 -0.3025  2.1271
  350MOL0     H47218  11.560   4.294   4.266 -0.3574 -0.2946  0.0748
  350MOL0     H47219  11.552   4.458   4.199  1.4187  1.9337  0.7649
  350MOL0     H47220  11.825   4.307   4.197  1.7322  1.3421 -0.8253
  350MOL0     H47221  11.782   4.466   4.157  1.9802 -0.6845  1.9845
  350MOL0     H47222  11.606   4.259   4.008 -1.2114 -0.7214  2.3877
  350MOL0     H47223  11.779   4.249   3.988  2.1985  0.7110  2.0707
  350MOL0     H47224  11.598   4.482   3.934 -1.2380 -0.0429 -0.8347
  350MOL0     H47225  11.780   4.492   3.933 -0.8269  0.8039  0.1174
  350MOL0     H47226  11.634   4.266   3.791 -1.3960  0.6547  1.2724
  350MOL0     H47227  11.790   4.323   3.758  0.0970 -0.5676  0.6572
  350MOL0     H47228  11.650   4.397   3.571 -1.2559  2.1297 -0.1903
  350MOL0     H47229  11.525   4.447   3.675 -0.7044 -0.6277 -1.6324
  350MOL0     H47230  11.558   4.712   4.690  1.6053 -2.1717  0.5501
  350MOL0     H47231  11.390   4.847   4.815  1.3136 -0.0708  1.8517
  350MOL0     H47232  11.062   4.678   5.147 -0.2464 -0.0872 -0.0342
  350MOL0     H47233  10.890   4.717   5.336  0.7914 -2.3784  0.9859
  350MOL0     H47234  10.605   4.208   6.498 -3.5818  0.6582  0.7293
  350MOL0     H47235  10.549   4.061   6.670  0.4209 -1.0782  4.0287
  350MOL0     H47236  10.607   3.747   6.996 -0.7886  0.3048 -0.3907
  350MOL0     H47237  10.624   3.622   7.213  0.1021  0.0413  0.8299
  350MOL0     H47238  10.623   3.572   7.570  4.6067 -2.4819 -1.1465
  350MOL0     H47239  10.656   3.538   7.409  3.6376  1.8350  3.5391
  350MOL0     H47240  10.439   3.458   7.440 -2.2086  0.9000  2.8029
  350MOL0     H47241  10.407   3.600   7.351 -0.7638  0.2063  0.7779
  350MOL0     H47242  10.330   3.725   7.565 -4.5407 -0.7437 -2.6494
  350MOL0     H47243  10.377   3.581   7.657  2.4072  2.3524  0.3045
  350MOL0     H47244  10.188   3.454   7.530  1.7948  0.0453 -1.3425
  350MOL0     H47245  10.145   3.593   7.630  0.9285 -0.1553  0.6266
  350MOL0     H47246  10.017   3.648   7.223 -1.1270 -2.9932 -0.4957
  350MOL0     H47247  10.546   3.977   7.414  0.7446 -0.7297  0.3977
  350MOL0     H47248  10.487   4.204   7.148  0.0042  0.0591  0.3009
  350MOL0     H47249  10.345   4.098   7.162  0.3712 -0.7437 -1.5286
  350MOL0     H47250  10.425   4.157   7.309  1.5799 -2.3493  0.9006
  351MOL0     O47251   3.591   8.588  11.296  0.0734 -0.5594  0.3001
  351MOL0     C47252   3.683   8.618  11.368 -0.1189  0.2798 -0.6962
  351MOL0     O47253   3.777   8.712  11.340 -0.6648  0.6850  0.4586
  351MOL0     C47254   3.771   8.778  11.220 -0.8956  0.1636  0.7365
  351MOL0     C47255   3.654   8.848  11.179  0.4348  0.3344  0.2333
  351MOL0     C47256   3.651   8.915  11.057 -0.2012 -1.6238  0.8549
  351MOL0     C47257   3.772   8.931  10.987  0.4937  0.0540  0.1658
  351MOL0     O47258   3.764   9.006  10.877 -0.3803 -0.0477  0.2532
  351MOL0     C47259   3.882   9.058  10.823  0.1569 -0.0672  0.1449
  351MOL0     C47260   3.845   9.157  10.715 -0.0989 -0.4617 -0.1309
  351MOL0     C47261   3.709   9.141  10.641  0.7596 -0.1593  0.8551
  351MOL0     C47262   3.698   9.232  10.517  0.3895  0.6043 -0.5099
  351MOL0     C47263   3.562   9.248  10.449  0.4054 -1.0654  0.5719
  351MOL0     C47264   3.582   9.342  10.328 -0.0505  0.7442 -1.4684
  351MOL0     C47265   3.649   9.261  10.223 -0.1376  0.0947  0.4548
  351MOL0     C47266   3.568   9.259  10.091 -0.1672  0.2300 -0.9097
  351MOL0     N47267   3.453   9.172  10.120 -0.1998 -0.2048  0.1022
  351MOL0     C47268   3.452   9.037  10.093 -0.4987  0.4807 -0.1007
  351MOL0     C47269   3.335   8.989  10.135 -0.9178 -0.0047 -0.0494
  351MOL0     C47270   3.279   8.848  10.136  1.3228  0.7598 -0.3223
  351MOL0     C47271   3.339   8.766  10.246  0.2356  0.1631 -0.2046
  351MOL0     C47272   3.307   8.610  10.238  0.1334  0.0886  0.3863
  351MOL0     C47273   3.387   8.532  10.343 -0.2241  0.0015  0.6164
  351MOL0     O47274   3.324   8.405  10.358  0.2611  0.3709  0.3943
  351MOL0     C47275   3.387   8.314  10.444 -0.0691 -0.2473 -0.6583
  351MOL0     C47276   3.505   8.331  10.515  0.9808  0.2803  0.7397
  351MOL0     C47277   3.556   8.232  10.594 -0.1620  0.9005 -0.5286
  351MOL0     C47278   3.473   8.116  10.621  0.2508  0.8983 -0.5154
  351MOL0     C47279   3.523   8.007  10.715 -0.4833  0.1673 -0.2617
  351MOL0     O47280   3.438   7.904  10.742  0.0503 -0.7280  0.3666
  351MOL0     C47281   3.475   7.805  10.823 -0.0099  0.2037  0.2119
  351MOL0     C47282   3.559   7.803  10.937 -0.0491 -0.0117 -0.2944
  351MOL0     C47283   3.575   7.691  11.023  1.3963 -0.2855  0.2578
  351MOL0     C47284   3.513   7.571  10.995 -0.3241  0.8964  0.5769
  351MOL0     O47285   3.527   7.466  11.081 -0.2041  0.3589  0.2089
  351MOL0     C47286   3.497   7.327  11.040  0.1151  0.2283 -0.9434
  351MOL0     C47287   3.605   7.225  11.089  1.0177  0.2195  0.3180
  351MOL0     C47288   3.693   7.219  10.959  0.0624  0.9632 -0.0003
  351MOL0     C47289   3.808   7.105  10.965 -0.3507  1.0721 -0.7239
  351MOL0     C47290   3.875   7.093  10.829 -1.4710 -0.1409  0.4117
  351MOL0     C47291   3.983   6.989  10.837  0.2083 -0.7309 -0.5264
  351MOL0     C47292   4.021   6.965  10.694  0.2188 -0.5698  0.5672
  351MOL0     C47293   4.118   6.860  10.664 -0.1189  0.0527  0.7251
  351MOL0    Cl47294   4.034   6.709  10.704 -0.1992 -0.4287  0.5631
  351MOL0     C47295   3.433   7.561  10.879 -0.5413  0.7693 -0.0674
  351MOL0     C47296   3.413   7.678  10.801  0.1043  0.6550  0.8483
  351MOL0     O47297   3.636   8.014  10.753 -0.9856 -0.0156 -0.7527
  351MOL0     C47298   3.355   8.090  10.548 -0.3397  0.4571  0.2401
  351MOL0     C47299   3.319   8.192  10.465  0.8122 -0.3668  0.3623
  351MOL0     N47300   3.260   9.102  10.185 -0.4360  0.0493  0.2425
  351MOL0     N47301   3.331   9.211  10.179 -0.5769 -0.3946  0.9525
  351MOL0     C47302   3.884   8.841  11.012 -0.9424 -0.3110 -1.1297
  351MOL0     C47303   3.882   8.776  11.134  1.0009 -0.7567 -0.0220
  351MOL0     C47304   3.720   8.543  11.488 -0.7041  0.8102 -1.6044
  351MOL0     C47305   3.862   8.534  11.521  0.0509 -0.4633 -0.3091
  351MOL0     C47306   3.891   8.473  11.636 -0.5027  0.0128  0.2123
  351MOL0     C47307   3.797   8.422  11.735  0.6956  0.3164 -0.3368
  351MOL0     O47308   3.854   8.366  11.847  0.3267 -0.2190  0.3070
  351MOL0     C47309   3.806   8.232  11.861 -0.3169  0.5915 -0.7110
  351MOL0     C47310   3.867   8.143  11.968 -0.9700  1.2135  0.0127
  351MOL0     C47311   4.020   8.143  11.946 -0.4080  0.6680 -0.4976
  351MOL0     C47312   4.096   8.038  12.028  0.4737 -0.1580 -0.1242
  351MOL0     C47313   4.052   8.026  12.167  0.5241  0.0794 -0.0057
  351MOL0     C47314   4.024   8.011  12.287 -0.3352 -0.3268  0.8000
  351MOL0     C47315   3.666   8.443  11.709  0.4175  0.3424 -0.0186
  351MOL0     C47316   3.624   8.491  11.582 -0.7660  0.0438  0.0585
  351MOL0     C47317   3.479   8.502  11.554 -0.3149  0.2459  0.3614
  351MOL0     H47318   3.568   8.857  11.245  0.6434 -1.2815  0.7610
  351MOL0     H47319   3.561   8.973  11.041  0.2428 -0.9262  0.8396
  351MOL0     H47320   3.945   9.102  10.900  2.0407 -0.7463 -0.9379
  351MOL0     H47321   3.947   8.979  10.784  0.8513  0.1904  0.7635
  351MOL0     H47322   3.932   9.161  10.649  1.4810  1.1181  1.9263
  351MOL0     H47323   3.854   9.260  10.750 -1.5907  0.7382 -2.8626
  351MOL0     H47324   3.632   9.173  10.712 -1.3868 -1.2357 -0.8896
  351MOL0     H47325   3.696   9.034  10.621 -1.7039 -0.2896  2.7087
  351MOL0     H47326   3.736   9.331  10.545 -1.8923  2.3532 -3.0199
  351MOL0     H47327   3.777   9.185  10.457  0.9993 -1.6264  1.8587
  351MOL0     H47328   3.513   9.155  10.418 -1.1662 -0.1906  0.3225
  351MOL0     H47329   3.496   9.290  10.526  3.6122 -0.8063  3.4160
  351MOL0     H47330   3.486   9.382  10.293 -1.6067 -0.1625  1.4040
  351MOL0     H47331   3.652   9.424  10.346  0.7244 -0.1336 -0.3569
  351MOL0     H47332   3.658   9.157  10.255 -1.4555  0.8460  3.6607
  351MOL0     H47333   3.749   9.299  10.198  0.0893 -1.6413 -1.5431
  351MOL0     H47334   3.536   9.360  10.064 -1.1247  0.1055 -0.2905
  351MOL0     H47335   3.625   9.218  10.007 -0.0505  0.4505 -0.9391
  351MOL0     H47336   3.530   8.970  10.058 -1.1665 -1.2050  1.5147
  351MOL0     H47337   3.171   8.852  10.153  1.1605 -0.7688 -0.8686
  351MOL0     H47338   3.275   8.808  10.035  0.1490  3.2471 -1.3464
  351MOL0     H47339   3.448   8.781  10.249  0.3045 -0.3943  0.0392
  351MOL0     H47340   3.297   8.802  10.341  0.4490  1.6145 -0.6269
  351MOL0     H47341   3.353   8.576  10.145  0.7429 -1.3819  1.1852
  351MOL0     H47342   3.200   8.584  10.240 -0.0703  0.9051  0.1527
  351MOL0     H47343   3.378   8.567  10.446  0.7188  2.6049 -0.0986
  351MOL0     H47344   3.489   8.510  10.311 -0.4315 -0.6227  0.3731
  351MOL0     H47345   3.557   8.425  10.501 -0.1930  0.6155 -2.1913
  351MOL0     H47346   3.638   8.260  10.659 -0.2760  1.5535 -0.6576
  351MOL0     H47347   3.624   7.886  10.962  1.4605 -0.4424 -2.5128
  351MOL0     H47348   3.647   7.694  11.104 -0.8083 -2.3602  2.4818
  351MOL0     H47349   3.403   7.306  11.091 -0.6564 -0.6314 -2.6722
  351MOL0     H47350   3.485   7.331  10.932 -1.3488  5.1093 -0.8713
  351MOL0     H47351   3.656   7.259  11.179  1.1679  1.3130 -0.1621
  351MOL0     H47352   3.557   7.128  11.105 -1.2330  1.3380  0.8276
  351MOL0     H47353   3.627   7.187  10.878  0.4847  1.0020 -0.3656
  351MOL0     H47354   3.749   7.312  10.945  0.9636  0.0647 -3.4703
  351MOL0     H47355   3.770   7.006  10.990  3.6293 -0.8114 -1.4619
  351MOL0     H47356   3.884   7.121  11.042  1.0688  0.7540 -2.0119
  351MOL0     H47357   3.925   7.189  10.814  0.4828 -0.5123  3.6409
  351MOL0     H47358   3.798   7.075  10.754  1.0335 -3.2165 -1.6776
  351MOL0     H47359   4.071   7.016  10.896  0.0426 -3.6172  1.2307
  351MOL0     H47360   3.940   6.902  10.886 -2.3880 -0.5364 -2.2684
  351MOL0     H47361   4.062   7.057  10.650 -0.5079 -0.8246 -0.6916
  351MOL0     H47362   3.931   6.952  10.634 -0.0826  2.8193  0.0664
  351MOL0     H47363   4.136   6.845  10.557  0.1322  0.2823  0.7354
  351MOL0     H47364   4.214   6.875  10.715 -1.1301  0.0400  2.7375
  351MOL0     H47365   3.383   7.466  10.859  0.5739  0.6456 -2.7073
  351MOL0     H47366   3.351   7.668  10.713  3.1860 -0.6949 -1.3202
  351MOL0     H47367   3.293   8.001  10.560 -1.4565  0.3831 -4.2055
  351MOL0     H47368   3.228   8.179  10.406  0.2513 -2.2880  1.5523
  351MOL0     H47369   3.981   8.834  10.963 -1.1786 -1.0645 -1.5106
  351MOL0     H47370   3.966   8.721  11.174  1.0025 -1.2179 -0.6273
  351MOL0     H47371   3.942   8.588  11.472  2.9136 -1.9886  2.3671
  351MOL0     H47372   3.997   8.457  11.653 -0.3003  0.9961 -0.0687
  351MOL0     H47373   3.817   8.186  11.762 -2.6995 -0.6068 -0.4934
  351MOL0     H47374   3.698   8.226  11.877 -0.5550 -1.6846 -2.5300
  351MOL0     H47375   3.827   8.041  11.976 -1.3743  1.4594  1.3273
  351MOL0     H47376   3.854   8.190  12.065  0.5129  1.8607 -0.0666
  351MOL0     H47377   4.079   8.233  11.969  3.9474 -2.3986  1.9403
  351MOL0     H47378   4.039   8.119  11.841 -0.7395 -1.5881 -0.1028
  351MOL0     H47379   4.069   7.941  11.985  0.9274 -0.1209 -0.4993
  351MOL0     H47380   4.204   8.052  12.020  0.8077 -1.8587  0.8404
  351MOL0     H47381   4.006   8.003  12.392  0.9510  1.3570  1.1878
  351MOL0     H47382   3.595   8.405  11.782 -0.4130  1.9833  0.0717
  351MOL0     H47383   3.422   8.450  11.632 -3.1754  3.0321  0.3488
  351MOL0     H47384   3.455   8.608  11.557  0.8878  0.5588 -0.4905
  351MOL0     H47385   3.451   8.450  11.462 -0.4544  1.2056 -0.1505
  352MOL0     O47386   1.160   1.361   7.198  0.9418  0.0029  0.2233
  352MOL0     C47387   1.254   1.299   7.158  0.1182 -0.0261  0.1390
  352MOL0     O47388   1.262   1.167   7.156 -0.2709 -0.0775  0.1248
  352MOL0     C47389   1.146   1.099   7.197  0.6567  0.6698 -0.0858
  352MOL0     C47390   1.067   1.043   7.100  0.5675  0.0477 -0.1533
  352MOL0     C47391   0.953   0.971   7.128  0.8788 -0.2270 -0.9325
  352MOL0     C47392   0.913   0.950   7.260  0.3173 -0.4444  1.1659
  352MOL0     O47393   0.813   0.864   7.302 -0.5142  0.4005 -0.0976
  352MOL0     C47394   0.675   0.884   7.258  0.5804  0.0504 -0.4160
  352MOL0     C47395   0.604   0.745   7.263 -0.2270 -0.5527 -0.7459
  352MOL0     C47396   0.568   0.705   7.403 -0.1731 -0.8216  0.5558
  352MOL0     C47397   0.482   0.584   7.405  0.0893 -0.0097  1.0266
  352MOL0     C47398   0.461   0.528   7.539 -0.5199  0.4812 -0.2308
  352MOL0     C47399   0.370   0.402   7.536 -0.6035 -0.4977 -0.5215
  352MOL0     C47400   0.364   0.340   7.675  0.2081 -0.0106 -0.0605
  352MOL0     C47401   0.319   0.193   7.680 -1.2522 -0.1332 -0.5560
  352MOL0     N47402   0.179   0.153   7.636  0.1231  0.5435 -0.2355
  352MOL0     C47403   0.153   0.033   7.580 -0.8216 -0.6910  0.7981
  352MOL0     C47404   0.023   0.037   7.554 -0.1497 -0.9655 -0.0801
  352MOL0     C47405  -0.056  -0.080   7.498 -0.5789 -0.6055 -0.6306
  352MOL0     C47406  -0.032  -0.201   7.591  0.4437  0.4590 -0.0209
  352MOL0     C47407  -0.128  -0.314   7.564  0.1985 -0.3090 -0.5164
  352MOL0     C47408  -0.156  -0.389   7.701 -0.3479 -0.3252 -0.2985
  352MOL0     O47409  -0.035  -0.441   7.762  0.7289 -0.1457  0.0311
  352MOL0     C47410  -0.043  -0.548   7.856 -0.2122 -0.5001  0.9297
  352MOL0     C47411   0.039  -0.661   7.836  1.0891  0.5630 -0.0613
  352MOL0     C47412   0.035  -0.766   7.940 -0.2058 -0.4158  0.4099
  352MOL0     C47413  -0.037  -0.750   8.060 -0.3547  1.0516  0.2958
  352MOL0     C47414  -0.035  -0.847   8.166 -0.1238 -0.8095  0.6050
  352MOL0     O47415  -0.145  -0.865   8.250  0.8688  0.1178 -0.2363
  352MOL0     C47416  -0.118  -0.909   8.382 -1.2091 -0.3139  0.6855
  352MOL0     C47417  -0.005  -0.873   8.461  0.5365 -0.2440 -0.0993
  352MOL0     C47418   0.001  -0.919   8.593 -0.3361  0.8363  0.2383
  352MOL0     C47419  -0.094  -1.020   8.648 -1.0211 -0.0444 -0.0190
  352MOL0     O47420  -0.098  -1.048   8.783 -0.4266 -0.0601  0.1523
  352MOL0     C47421   0.002  -1.012   8.877 -0.7368 -0.7170  0.4468
  352MOL0     C47422  -0.045  -0.877   8.933 -0.3039 -0.1235  0.0575
  352MOL0     C47423  -0.016  -0.853   9.088  0.0868  0.6944  0.3052
  352MOL0     C47424  -0.041  -0.706   9.120  0.3830  0.4063  0.7350
  352MOL0     C47425  -0.027  -0.663   9.265 -0.1003  0.0368  0.1189
  352MOL0     C47426  -0.110  -0.754   9.353  0.6949  0.0500  0.1464
  352MOL0     C47427  -0.153  -0.696   9.491  0.0817  0.2505  0.5120
  352MOL0     C47428  -0.226  -0.792   9.582 -0.7029  0.0817 -0.7297
  352MOL0    Cl47429  -0.300  -0.711   9.725 -0.3352  0.3348 -0.0868
  352MOL0     C47430  -0.189  -1.064   8.556  0.1570 -0.7961 -0.1768
  352MOL0     C47431  -0.203  -1.007   8.423  0.7791  1.2335  0.3513
  352MOL0     O47432   0.077  -0.896   8.180  0.2992 -0.3631 -0.7887
  352MOL0     C47433  -0.122  -0.635   8.070  0.1118  0.0878  0.0776
  352MOL0     C47434  -0.116  -0.534   7.973  0.5204  0.5705  1.3040
  352MOL0     N47435  -0.036   0.149   7.622 -0.3937  0.3033  0.1107
  352MOL0     N47436   0.060   0.223   7.658  0.0745 -0.2314  0.1593
  352MOL0     C47437   0.991   0.999   7.364  0.0139  0.3254 -0.0939
  352MOL0     C47438   1.100   1.085   7.326  0.1098  0.0844 -0.2149
  352MOL0     C47439   1.375   1.372   7.122 -0.0982  1.6150 -0.2570
  352MOL0     C47440   1.478   1.296   7.066  0.5096  0.2855 -0.6740
  352MOL0     C47441   1.591   1.359   7.021  0.0399 -0.9744  0.1072
  352MOL0     C47442   1.621   1.497   7.046  0.6750  0.1510  0.2408
  352MOL0     O47443   1.737   1.555   7.000  0.1133 -0.4834 -0.2784
  352MOL0     C47444   1.834   1.478   6.917 -0.6535 -0.4990  0.2578
  352MOL0     C47445   1.820   1.491   6.764  0.0646  0.4852  0.7395
  352MOL0     C47446   1.682   1.452   6.721  0.0216  0.9874  1.0929
  352MOL0     C47447   1.690   1.413   6.569 -0.0984  0.5554 -0.0084
  352MOL0     C47448   1.553   1.374   6.521 -0.3082 -0.8304  0.5869
  352MOL0     C47449   1.446   1.356   6.465 -0.1173  0.6726  0.2414
  352MOL0     C47450   1.518   1.570   7.106 -0.7120  0.0858  0.2837
  352MOL0     C47451   1.396   1.513   7.145 -0.2782 -0.5919  0.1824
  352MOL0     C47452   1.289   1.605   7.223 -1.2732  0.1326 -0.3004
  352MOL0     H47453   1.099   1.066   6.999  0.8171 -0.1925 -0.1305
  352MOL0     H47454   0.901   0.919   7.048  1.9921 -3.0778  0.0556
  352MOL0     H47455   0.632   0.954   7.330  0.5389 -0.5730  0.1753
  352MOL0     H47456   0.659   0.918   7.156 -1.1988  0.6271  0.0248
  352MOL0     H47457   0.685   0.676   7.240  0.0367 -1.7115  2.9449
  352MOL0     H47458   0.519   0.753   7.194  0.6032  0.0470 -1.7193
  352MOL0     H47459   0.513   0.787   7.450  1.1536 -0.0501  0.7853
  352MOL0     H47460   0.659   0.692   7.462  0.7167 -1.3844 -0.8911
  352MOL0     H47461   0.397   0.623   7.348  0.2077  1.1367  1.6004
  352MOL0     H47462   0.532   0.512   7.339 -2.0062 -1.9143  1.4028
  352MOL0     H47463   0.561   0.504   7.576  0.6075  0.0466 -3.2910
  352MOL0     H47464   0.413   0.609   7.596  0.3345 -1.9771  4.5723
  352MOL0     H47465   0.267   0.427   7.508 -1.3450 -2.6091  0.1203
  352MOL0     H47466   0.411   0.333   7.462 -2.4128  1.5258 -3.6620
  352MOL0     H47467   0.299   0.404   7.736  0.2681  0.8163 -0.8468
  352MOL0     H47468   0.465   0.342   7.717  0.0416 -0.1953  0.3560
  352MOL0     H47469   0.395   0.141   7.620  0.9756 -0.1550  2.0964
  352MOL0     H47470   0.327   0.153   7.781  0.2564 -2.1492 -1.3809
  352MOL0     H47471   0.213  -0.056   7.569  1.2224  0.8793 -2.1772
  352MOL0     H47472  -0.161  -0.051   7.495 -1.0588 -2.1790 -4.7295
  352MOL0     H47473  -0.039  -0.107   7.394  2.3780 -3.8574  0.4788
  352MOL0     H47474   0.067  -0.248   7.583 -1.0881 -2.6710 -2.6691
  352MOL0     H47475  -0.037  -0.158   7.692 -1.2572  1.2571 -0.4131
  352MOL0     H47476  -0.084  -0.386   7.494  2.7950  1.0786 -0.4304
  352MOL0     H47477  -0.227  -0.284   7.529 -1.2679 -0.9026  2.7026
  352MOL0     H47478  -0.228  -0.469   7.684 -0.5616 -0.1797 -0.0814
  352MOL0     H47479  -0.199  -0.321   7.775  1.7467 -3.1633  3.9542
  352MOL0     H47480   0.095  -0.683   7.746  2.9596  0.2949  1.1253
  352MOL0     H47481   0.103  -0.850   7.937  0.4160  0.1180 -1.3119
  352MOL0     H47482   0.072  -0.805   8.427 -0.7218  0.9156 -0.7193
  352MOL0     H47483   0.084  -0.883   8.655 -0.0259 -0.6695  0.7270
  352MOL0     H47484   0.006  -1.080   8.962  1.4587  1.4359  2.2171
  352MOL0     H47485   0.104  -1.014   8.837 -1.1533 -0.1906 -0.7001
  352MOL0     H47486  -0.004  -0.791   8.881  0.3688  1.3500  2.8355
  352MOL0     H47487  -0.153  -0.868   8.917 -0.0165  1.6315 -1.1343
  352MOL0     H47488  -0.080  -0.922   9.143  0.0007  0.4383 -0.1105
  352MOL0     H47489   0.086  -0.878   9.117  1.6608  1.6634 -3.6378
  352MOL0     H47490  -0.142  -0.673   9.093  0.7074  1.1323  0.3701
  352MOL0     H47491   0.039  -0.660   9.061  2.5622 -4.6793 -0.8575
  352MOL0     H47492  -0.061  -0.561   9.282  0.0544  0.8290 -3.5492
  352MOL0     H47493   0.075  -0.666   9.303  1.0676 -0.8997 -2.8029
  352MOL0     H47494  -0.202  -0.779   9.300 -1.0933 -0.1981  3.1474
  352MOL0     H47495  -0.059  -0.851   9.358 -2.3781 -1.6752  1.5127
  352MOL0     H47496  -0.210  -0.604   9.474 -1.5542 -0.9663 -0.9851
  352MOL0     H47497  -0.062  -0.664   9.542 -1.2289  3.6200  1.0252
  352MOL0     H47498  -0.306  -0.844   9.528 -0.7547  1.2230 -1.8156
  352MOL0     H47499  -0.150  -0.865   9.613 -1.2189 -0.1642 -0.0251
  352MOL0     H47500  -0.275  -1.124   8.582  0.3926  0.1832  3.4095
  352MOL0     H47501  -0.296  -1.026   8.369  2.7092  0.7901 -3.0683
  352MOL0     H47502  -0.173  -0.614   8.164 -0.8928  1.3935 -0.7327
  352MOL0     H47503  -0.162  -0.442   8.008 -0.5249  0.8640 -0.6724
  352MOL0     H47504   0.974   0.970   7.467  0.1809 -2.5704 -0.8029
  352MOL0     H47505   1.153   1.127   7.411  4.5920 -3.8526 -0.6959
  352MOL0     H47506   1.477   1.190   7.044  4.3213  0.0467 -0.2874
  352MOL0     H47507   1.663   1.279   7.006  1.4554  0.4995 -1.3128
  352MOL0     H47508   1.831   1.371   6.943 -0.7875 -0.1350  1.8334
  352MOL0     H47509   1.938   1.505   6.936 -0.2874 -0.1479 -1.9435
  352MOL0     H47510   1.905   1.451   6.708  1.0293  2.6693  0.5449
  352MOL0     H47511   1.834   1.598   6.745  2.2712  0.5386  2.2475
  352MOL0     H47512   1.616   1.539   6.722 -1.5768 -0.1854  1.6928
  352MOL0     H47513   1.639   1.368   6.776  1.4091 -1.2115 -0.9609
  352MOL0     H47514   1.725   1.487   6.496  1.8834 -2.3453 -2.2475
  352MOL0     H47515   1.757   1.327   6.557  0.9924  1.3298  0.3805
  352MOL0     H47516   1.359   1.337   6.406 -1.1323 -0.1428  1.9329
  352MOL0     H47517   1.534   1.677   7.111  0.0444  0.0347 -0.7410
  352MOL0     H47518   1.189   1.592   7.180 -1.4512  0.5158 -0.0106
  352MOL0     H47519   1.295   1.583   7.330  3.3519  0.4608 -0.2913
  352MOL0     H47520   1.316   1.709   7.205 -1.1393 -0.1388 -1.7551
  353MOL0     O47521   1.832   2.088   1.444 -0.6328  0.3860 -0.4839
  353MOL0     C47522   1.857   1.970   1.420 -0.3214 -0.2069 -0.0426
  353MOL0     O47523   1.971   1.904   1.457  0.6000  0.7144  0.3312
  353MOL0     C47524   2.071   1.971   1.526  0.2056 -0.0409  0.4373
  353MOL0     C47525   2.194   1.992   1.462  0.2905  0.3653 -0.0224
  353MOL0     C47526   2.296   2.054   1.531 -0.6389 -0.1704 -0.1214
  353MOL0     C47527   2.278   2.096   1.667  0.1909  0.7017 -0.0706
  353MOL0     O47528   2.386   2.152   1.717 -0.5579  0.2443 -0.1433
  353MOL0     C47529   2.349   2.267   1.787  0.1806 -0.4324 -1.0649
  353MOL0     C47530   2.326   2.391   1.701 -0.6541  0.0919  0.0596
  353MOL0     C47531   2.467   2.444   1.640  0.8395 -0.0890 -0.3719
  353MOL0     C47532   2.563   2.520   1.742 -0.0705 -0.2551  0.0174
  353MOL0     C47533   2.631   2.636   1.653 -0.0141 -0.1481 -0.0930
  353MOL0     C47534   2.722   2.728   1.727 -0.3636 -0.3191  0.6398
  353MOL0     C47535   2.835   2.636   1.790 -0.3345 -0.7707  0.0455
  353MOL0     C47536   2.966   2.720   1.783  0.0964  0.5611 -0.0684
  353MOL0     N47537   3.088   2.670   1.850  0.0003 -0.1008  0.1972
  353MOL0     C47538   3.185   2.765   1.895 -0.0545  0.1327  0.9975
  353MOL0     C47539   3.258   2.699   1.981 -0.3377 -0.3899  0.4007
  353MOL0     C47540   3.388   2.749   2.056 -0.1984  0.4382 -0.4213
  353MOL0     C47541   3.330   2.821   2.187 -0.0222  0.5179  0.7135
  353MOL0     C47542   3.431   2.918   2.234 -0.4488  0.2643 -0.3446
  353MOL0     C47543   3.573   2.862   2.254 -0.5420 -0.4835 -0.5247
  353MOL0     O47544   3.579   2.831   2.391  0.2787  0.6745 -0.3412
  353MOL0     C47545   3.691   2.774   2.439  0.9727 -0.2757  0.1654
  353MOL0     C47546   3.670   2.710   2.554  0.8161  0.3154  0.5160
  353MOL0     C47547   3.765   2.670   2.648 -1.5719 -0.0280  0.4515
  353MOL0     C47548   3.899   2.685   2.605 -0.7240  0.5255 -1.0723
  353MOL0     C47549   3.998   2.641   2.700  0.7775  0.9671  0.0054
  353MOL0     O47550   3.955   2.586   2.820  0.0006  0.5731  0.8424
  353MOL0     C47551   4.043   2.536   2.906  0.3704 -0.0540  0.3306
  353MOL0     C47552   4.017   2.410   2.961 -0.4638 -0.0176  0.2168
  353MOL0     C47553   4.083   2.360   3.071  0.3776 -0.3736 -0.1571
  353MOL0     C47554   4.187   2.432   3.131  0.4170 -0.2265  0.6204
  353MOL0     O47555   4.267   2.383   3.231  0.6975 -1.4817 -0.2576
  353MOL0     C47556   4.220   2.272   3.305  0.0155 -0.3664  0.4043
  353MOL0     C47557   4.325   2.270   3.423  0.4712  0.3972 -0.0392
  353MOL0     C47558   4.263   2.199   3.534 -0.1335 -0.2084 -0.3599
  353MOL0     C47559   4.225   2.049   3.504  0.0352  0.4905  0.2040
  353MOL0     C47560   4.345   1.949   3.519 -0.1164 -0.3975  0.2616
  353MOL0     C47561   4.295   1.801   3.508  0.3564 -0.7556  0.1526
  353MOL0     C47562   4.410   1.698   3.534  0.3312  0.1520 -0.7030
  353MOL0     C47563   4.417   1.659   3.692  0.4432 -0.5021 -0.0784
  353MOL0    Cl47564   4.568   1.584   3.710 -0.3811  0.0650  0.1274
  353MOL0     C47565   4.229   2.551   3.063 -0.1575 -1.3651  0.3638
  353MOL0     C47566   4.153   2.612   2.961 -0.0090  0.7392  0.2612
  353MOL0     O47567   4.110   2.644   2.664 -1.3003  0.3310  0.0894
  353MOL0     C47568   3.923   2.731   2.483 -1.1215 -0.1668 -0.5644
  353MOL0     C47569   3.823   2.769   2.394 -0.1128 -0.0043 -0.2758
  353MOL0     N47570   3.216   2.565   1.990  0.2310 -0.4548 -0.4654
  353MOL0     N47571   3.109   2.555   1.913 -0.3435  0.0676  0.3058
  353MOL0     C47572   2.147   2.074   1.723 -0.3479 -0.2321  0.4602
  353MOL0     C47573   2.045   2.022   1.647  0.6437 -0.7954 -0.0546
  353MOL0     C47574   1.763   1.902   1.332 -0.2370  0.7939  0.6472
  353MOL0     C47575   1.829   1.828   1.219  0.7024  0.1810 -0.1957
  353MOL0     C47576   1.739   1.768   1.123 -0.7225  0.0082 -0.5235
  353MOL0     C47577   1.601   1.747   1.141 -0.3468 -0.6418  0.4424
  353MOL0     O47578   1.504   1.675   1.068 -0.4405 -0.3550  0.1404
  353MOL0     C47579   1.559   1.571   0.991 -0.0613 -0.1625  0.4157
  353MOL0     C47580   1.456   1.498   0.908  0.0619  0.0474 -0.6875
  353MOL0     C47581   1.374   1.401   0.988 -0.2265 -0.4689 -0.0559
  353MOL0     C47582   1.444   1.278   1.039 -0.6660 -0.4017 -0.5670
  353MOL0     C47583   1.350   1.167   1.074 -1.0991  0.1710  0.0798
  353MOL0     C47584   1.290   1.064   1.101  0.6574 -0.6040  0.6802
  353MOL0     C47585   1.552   1.825   1.246 -0.1314  0.3305  0.2464
  353MOL0     C47586   1.622   1.910   1.340  0.1724 -1.1017  0.3353
  353MOL0     C47587   1.550   1.996   1.437  0.0378 -0.7001 -0.1135
  353MOL0     H47588   2.217   1.964   1.359  1.9129  1.0311  0.1352
  353MOL0     H47589   2.385   2.088   1.479  0.3090 -1.5277  0.5496
  353MOL0     H47590   2.266   2.253   1.858  2.1262 -0.6179  1.3125
  353MOL0     H47591   2.436   2.276   1.852 -0.2171 -1.6144 -0.3258
  353MOL0     H47592   2.281   2.475   1.754 -0.5538  1.2461 -1.6217
  353MOL0     H47593   2.264   2.369   1.613 -0.0497 -0.0133 -0.3485
  353MOL0     H47594   2.438   2.501   1.551  2.2806  0.5970 -0.4324
  353MOL0     H47595   2.522   2.361   1.595 -3.3125 -1.8265 -2.7722
  353MOL0     H47596   2.495   2.571   1.811  0.6539 -0.6105  1.0040
  353MOL0     H47597   2.626   2.455   1.803  2.4482  1.1305 -0.9706
  353MOL0     H47598   2.692   2.597   1.571  2.5983 -0.7747  2.0200
  353MOL0     H47599   2.548   2.689   1.604 -1.4712 -1.5754  0.7311
  353MOL0     H47600   2.779   2.793   1.659 -0.5237 -0.6386  0.1925
  353MOL0     H47601   2.674   2.800   1.793 -0.7197  1.0475 -1.0258
  353MOL0     H47602   2.849   2.549   1.725 -2.0613  0.1079 -1.6253
  353MOL0     H47603   2.817   2.603   1.892 -0.2457 -2.6674 -0.5139
  353MOL0     H47604   2.990   2.736   1.678 -0.7976  0.3071 -0.3137
  353MOL0     H47605   2.957   2.811   1.843  2.8355  0.1615  1.0997
  353MOL0     H47606   3.187   2.869   1.867  1.8306 -0.2243 -0.3397
  353MOL0     H47607   3.457   2.670   2.086 -2.9716 -1.6986  0.7870
  353MOL0     H47608   3.449   2.815   1.993  2.6502 -0.8395  0.8137
  353MOL0     H47609   3.231   2.866   2.178 -0.9703 -1.2203  1.8775
  353MOL0     H47610   3.317   2.748   2.267  2.3764 -0.3744  0.3553
  353MOL0     H47611   3.401   2.974   2.322  3.9863  1.9248  0.3854
  353MOL0     H47612   3.442   2.984   2.148 -0.6144  0.2431 -0.3804
  353MOL0     H47613   3.648   2.939   2.230 -1.1104  0.2807  0.0911
  353MOL0     H47614   3.602   2.772   2.199  1.5318 -0.5996  0.6634
  353MOL0     H47615   3.569   2.707   2.592  0.2303  3.6861 -0.4233
  353MOL0     H47616   3.742   2.622   2.743  4.1102 -0.2158  2.1327
  353MOL0     H47617   3.932   2.357   2.919  0.7549 -2.4012  0.5869
  353MOL0     H47618   4.066   2.255   3.093  1.3546 -0.3668  0.7189
  353MOL0     H47619   4.118   2.277   3.344  0.6505 -0.7574  2.2475
  353MOL0     H47620   4.216   2.175   3.253 -1.3689  0.5411 -1.2718
  353MOL0     H47621   4.408   2.201   3.409  1.5346  1.5162  0.5666
  353MOL0     H47622   4.365   2.368   3.452  2.9396  0.1481 -2.2339
  353MOL0     H47623   4.328   2.214   3.621 -1.4502  1.4241  0.3965
  353MOL0     H47624   4.169   2.244   3.567  0.0019 -0.1523 -0.0426
  353MOL0     H47625   4.176   2.038   3.407 -1.5931  1.0650  0.9211
  353MOL0     H47626   4.150   2.014   3.575 -2.0930  3.1682 -0.5214
  353MOL0     H47627   4.388   1.967   3.618 -2.0118  2.5139  0.6671
  353MOL0     H47628   4.425   1.962   3.446 -0.5511  1.6373  0.1035
  353MOL0     H47629   4.202   1.784   3.561 -0.4677  1.5933 -0.4172
  353MOL0     H47630   4.266   1.791   3.402 -0.9123 -2.3692  0.6044
  353MOL0     H47631   4.504   1.736   3.493  0.3306 -0.0515 -0.8966
  353MOL0     H47632   4.400   1.601   3.484  2.1354  1.5238 -4.0051
  353MOL0     H47633   4.430   1.751   3.749  0.7745 -1.9991  2.4470
  353MOL0     H47634   4.333   1.600   3.731 -0.2225  1.8917  2.4042
  353MOL0     H47635   4.299   2.625   3.103  1.0453 -0.4898 -3.0519
  353MOL0     H47636   4.171   2.710   2.918  1.1506 -0.1485 -1.4026
  353MOL0     H47637   4.025   2.743   2.449 -0.6010  1.7904  1.4047
  353MOL0     H47638   3.842   2.825   2.303  0.5425 -1.7384 -1.2566
  353MOL0     H47639   2.122   2.101   1.826  0.9011  1.0805  0.4591
  353MOL0     H47640   1.944   2.017   1.685  0.5398  1.9224  0.2621
  353MOL0     H47641   1.937   1.833   1.225  0.5988  2.9512  1.1743
  353MOL0     H47642   1.769   1.724   1.029 -0.3008 -0.8780  0.0141
  353MOL0     H47643   1.631   1.503   1.037  2.8082  2.1521 -0.3695
  353MOL0     H47644   1.622   1.614   0.913  0.5310 -2.1568 -0.2634
  353MOL0     H47645   1.498   1.438   0.827  1.1412 -2.9422  1.8919
  353MOL0     H47646   1.387   1.569   0.863 -1.3716 -0.9601 -0.1448
  353MOL0     H47647   1.295   1.357   0.927  0.3109  0.2388 -1.3029
  353MOL0     H47648   1.328   1.458   1.070 -0.5183 -0.0792 -0.4872
  353MOL0     H47649   1.516   1.242   0.965 -3.5189  1.2917 -4.5080
  353MOL0     H47650   1.503   1.312   1.125 -1.0681  0.7568 -0.7256
  353MOL0     H47651   1.254   0.965   1.118  0.4375 -0.7119 -0.3512
  353MOL0     H47652   1.444   1.821   1.238 -0.0715 -1.8279 -0.1253
  353MOL0     H47653   1.474   1.929   1.480 -0.4054  0.3189  0.7780
  353MOL0     H47654   1.619   2.020   1.518 -1.4453  1.9946  0.4811
  353MOL0     H47655   1.511   2.087   1.389  2.0006 -0.5930 -1.5963
  354MOL0     O47656  10.984   7.478   3.395 -0.2249  0.7274  0.1653
  354MOL0     C47657  10.927   7.385   3.338  0.5231  0.2850 -0.2495
  354MOL0     O47658  10.909   7.375   3.199 -0.3846  0.0867  0.3264
  354MOL0     C47659  10.951   7.469   3.102 -0.1180 -0.1298 -1.2524
  354MOL0     C47660  10.938   7.612   3.113 -1.1350  0.6816  0.1285
  354MOL0     C47661  10.956   7.693   3.006 -0.3969 -0.0036  0.3345
  354MOL0     C47662  11.002   7.637   2.890 -0.4031  0.1892 -0.2681
  354MOL0     O47663  11.037   7.702   2.778 -0.2689 -0.3268  0.7162
  354MOL0     C47664  10.950   7.804   2.729  0.2994 -0.5762 -0.0266
  354MOL0     C47665  11.000   7.861   2.588  0.0246  0.7187 -0.0534
  354MOL0     C47666  10.925   7.988   2.537 -0.8792  0.1315 -0.3630
  354MOL0     C47667  10.792   7.934   2.483 -0.4888  0.1583  0.5281
  354MOL0     C47668  10.709   8.037   2.397  0.5874  0.0892 -0.2150
  354MOL0     C47669  10.579   7.977   2.339  0.2690  0.0519 -0.3760
  354MOL0     C47670  10.476   8.084   2.288  0.8006  1.4662  0.7660
  354MOL0     C47671  10.357   8.031   2.202 -1.0575  1.0252  0.8496
  354MOL0     N47672  10.382   7.916   2.103 -1.0307  0.7811 -0.2085
  354MOL0     C47673  10.293   7.810   2.092  0.0984  0.8628  0.4645
  354MOL0     C47674  10.323   7.745   1.980  0.1673 -0.4311  0.7221
  354MOL0     C47675  10.256   7.618   1.915 -0.9076 -0.3054 -0.3072
  354MOL0     C47676  10.266   7.478   2.001  0.7785  0.0134  0.2621
  354MOL0     C47677  10.415   7.456   2.029  0.0131 -0.5170  1.0202
  354MOL0     C47678  10.453   7.334   2.119 -0.3241  0.7661  0.4924
  354MOL0     O47679  10.355   7.298   2.214  0.4911 -0.2007 -0.4165
  354MOL0     C47680  10.247   7.211   2.203  0.8295 -0.3368  0.8709
  354MOL0     C47681  10.214   7.149   2.080 -0.0566  0.1261 -0.2653
  354MOL0     C47682  10.112   7.064   2.059 -0.0734  0.5025 -0.4861
  354MOL0     C47683  10.016   7.049   2.165 -1.0058 -0.2404  0.5895
  354MOL0     C47684   9.889   6.983   2.149 -0.1379  0.7152  0.0101
  354MOL0     O47685   9.875   6.919   2.032 -0.0678  0.1537  0.5094
  354MOL0     C47686   9.753   6.868   1.986 -0.2373 -0.8256 -0.0250
  354MOL0     C47687   9.661   6.796   2.065  0.0575 -0.0717 -0.5107
  354MOL0     C47688   9.557   6.715   2.023 -0.0645  0.4471  0.1924
  354MOL0     C47689   9.550   6.705   1.879  0.4298 -0.0991 -1.7808
  354MOL0     O47690   9.451   6.640   1.819  0.6322  0.6867  0.0716
  354MOL0     C47691   9.409   6.509   1.872  0.3722  0.1926 -0.5903
  354MOL0     C47692   9.273   6.469   1.809  0.9269 -0.5640  0.5366
  354MOL0     C47693   9.217   6.339   1.856 -0.1645  0.1270  0.0025
  354MOL0     C47694   9.095   6.317   1.762  0.9164 -0.3315 -0.3684
  354MOL0     C47695   9.009   6.200   1.818 -0.5111  0.2479 -1.0258
  354MOL0     C47696   8.905   6.169   1.722  0.5997 -0.5810  0.6354
  354MOL0     C47697   8.824   6.292   1.672  0.3824 -0.6216 -0.5931
  354MOL0     C47698   8.696   6.248   1.595 -0.1908 -0.3542 -0.6167
  354MOL0    Cl47699   8.571   6.374   1.632  0.0113 -0.1721 -0.2217
  354MOL0     C47700   9.637   6.770   1.799  0.2619 -0.4040  0.1295
  354MOL0     C47701   9.734   6.855   1.855  0.4369  0.3248  0.6336
  354MOL0     O47702   9.806   6.987   2.237 -0.0550 -0.2236  0.3400
  354MOL0     C47703  10.040   7.115   2.290 -0.3796  0.3224  0.2555
  354MOL0     C47704  10.164   7.182   2.312  0.5514 -0.8387  0.1453
  354MOL0     N47705  10.441   7.798   1.935 -0.5677 -0.2093 -0.0895
  354MOL0     N47706  10.465   7.908   2.000 -0.6958 -0.1759  0.3944
  354MOL0     C47707  11.022   7.498   2.876  0.3343 -0.1537  0.5191
  354MOL0     C47708  10.996   7.412   2.983 -0.3187 -0.4964 -0.4097
  354MOL0     C47709  10.883   7.274   3.430  0.3237 -0.4472 -0.6127
  354MOL0     C47710  10.832   7.152   3.383 -0.4624  0.1232 -1.1733
  354MOL0     C47711  10.772   7.053   3.456 -1.5366 -0.2078  0.9226
  354MOL0     C47712  10.763   7.064   3.598 -0.4199 -1.0118  0.2682
  354MOL0     O47713  10.714   6.956   3.669 -0.1437 -0.7571 -0.6570
  354MOL0     C47714  10.711   6.965   3.815 -0.1776  0.1231  0.1510
  354MOL0     C47715  10.620   6.850   3.857  0.0077  0.1937  0.3077
  354MOL0     C47716  10.574   6.886   4.004 -0.8730 -0.0164 -0.1976
  354MOL0     C47717  10.472   7.004   4.020  0.1617  0.7553  0.5544
  354MOL0     C47718  10.430   7.027   4.161 -0.9839  0.1191 -0.6868
  354MOL0     C47719  10.399   7.056   4.275 -0.6420  0.7004 -0.3975
  354MOL0     C47720  10.836   7.171   3.655  1.1572 -0.0680  0.4296
  354MOL0     C47721  10.902   7.266   3.576  0.4606 -0.5030 -0.2092
  354MOL0     C47722  10.993   7.364   3.652  0.3920 -0.0877 -0.0111
  354MOL0     H47723  10.894   7.649   3.205 -4.2406  1.8714 -1.6874
  354MOL0     H47724  10.950   7.802   3.009  0.6865  0.2033 -2.0197
  354MOL0     H47725  10.853   7.755   2.715 -1.4208  1.4972  3.4541
  354MOL0     H47726  10.937   7.887   2.798  2.8347  1.8756 -2.2486
  354MOL0     H47727  11.004   7.787   2.508 -0.4927  1.4505 -0.7790
  354MOL0     H47728  11.102   7.897   2.600  1.1884 -2.2596 -0.3406
  354MOL0     H47729  10.985   8.036   2.459  0.2405  0.7314  0.8351
  354MOL0     H47730  10.924   8.050   2.627  5.2577  3.0738 -1.8003
  354MOL0     H47731  10.808   7.836   2.437  3.0954  0.3686  1.0348
  354MOL0     H47732  10.730   7.917   2.572 -3.8209  1.0758 -1.4689
  354MOL0     H47733  10.689   8.126   2.457  3.9962 -0.2309  1.6336
  354MOL0     H47734  10.774   8.063   2.312 -1.6010  1.7031 -1.5091
  354MOL0     H47735  10.597   7.899   2.264 -2.0569  0.0944 -1.0637
  354MOL0     H47736  10.541   7.913   2.419  1.5387 -0.3710 -0.0942
  354MOL0     H47737  10.520   8.154   2.216 -1.2318  0.3821 -1.6976
  354MOL0     H47738  10.451   8.157   2.366  2.5216  3.2177 -0.2242
  354MOL0     H47739  10.275   8.002   2.269  1.4795 -2.4766  2.7300
  354MOL0     H47740  10.337   8.113   2.133  0.6099 -1.5866 -3.0870
  354MOL0     H47741  10.214   7.781   2.161  1.2641  0.8259  1.8118
  354MOL0     H47742  10.150   7.640   1.896 -0.7903 -0.5340 -1.3059
  354MOL0     H47743  10.297   7.604   1.814  0.1819  0.3462  0.0347
  354MOL0     H47744  10.211   7.497   2.093  0.9575  1.3822  0.1071
  354MOL0     H47745  10.226   7.393   1.945  1.6799  0.2769 -0.8283
  354MOL0     H47746  10.461   7.544   2.074  0.8761 -0.4776  0.0982
  354MOL0     H47747  10.471   7.439   1.937  2.6970 -0.4490  2.5467
  354MOL0     H47748  10.546   7.361   2.171 -0.4601  1.9333  0.1652
  354MOL0     H47749  10.492   7.245   2.070 -3.3460  0.8426 -2.3857
  354MOL0     H47750  10.285   7.176   2.003  0.6222  2.4597  1.0677
  354MOL0     H47751  10.087   7.021   1.962  1.6736  1.8701 -1.6099
  354MOL0     H47752   9.665   6.801   2.173 -0.2259  0.6132 -0.5292
  354MOL0     H47753   9.487   6.661   2.085 -0.2332  1.0909  0.5666
  354MOL0     H47754   9.475   6.430   1.835 -2.0605 -3.9076  2.8959
  354MOL0     H47755   9.401   6.507   1.981 -2.7360  1.0065 -0.7128
  354MOL0     H47756   9.196   6.541   1.839 -0.4575 -2.2146  1.0630
  354MOL0     H47757   9.280   6.470   1.700 -0.6541  0.9308  0.3938
  354MOL0     H47758   9.296   6.263   1.856  0.7508  0.7754  4.5393
  354MOL0     H47759   9.190   6.346   1.962  2.1491 -2.2534  0.8599
  354MOL0     H47760   9.125   6.279   1.664 -2.3288 -2.7556 -0.5847
  354MOL0     H47761   9.044   6.413   1.753 -0.1378 -0.8068  0.2864
  354MOL0     H47762   8.958   6.230   1.910  0.4886 -0.2543 -0.3055
  354MOL0     H47763   9.068   6.114   1.849 -0.2830 -0.2096 -2.6028
  354MOL0     H47764   8.962   6.130   1.637 -0.8982  0.7229 -1.0372
  354MOL0     H47765   8.834   6.096   1.761 -0.8130 -0.8310 -2.1592
  354MOL0     H47766   8.886   6.361   1.613 -1.6116  0.6312 -1.3486
  354MOL0     H47767   8.791   6.351   1.758 -1.9987 -2.1206 -0.3885
  354MOL0     H47768   8.710   6.244   1.486  1.4067  3.4585 -0.6943
  354MOL0     H47769   8.664   6.147   1.623  0.8597 -0.0579  1.9464
  354MOL0     H47770   9.639   6.775   1.691 -2.9198  3.8118  0.0185
  354MOL0     H47771   9.803   6.898   1.784  0.2008  3.5327  2.1778
  354MOL0     H47772   9.974   7.091   2.373 -0.3066 -1.7097 -0.2182
  354MOL0     H47773  10.191   7.230   2.406 -2.1091 -0.1233  0.6078
  354MOL0     H47774  11.051   7.447   2.784 -0.9535 -3.9503  2.0141
  354MOL0     H47775  10.994   7.303   2.979  2.1800 -0.5775 -4.0696
  354MOL0     H47776  10.832   7.142   3.275  0.1769 -0.5130 -1.1251
  354MOL0     H47777  10.740   6.962   3.407 -0.8094  0.4149 -0.7687
  354MOL0     H47778  10.666   7.064   3.826 -0.0729  0.4592 -2.0268
  354MOL0     H47779  10.808   6.952   3.864 -0.9346 -2.0318  1.1835
  354MOL0     H47780  10.681   6.760   3.865  0.4095  0.5544  1.4840
  354MOL0     H47781  10.534   6.838   3.791  0.3532  1.6427 -0.4614
  354MOL0     H47782  10.667   6.926   4.046 -0.9357  1.3591 -1.2858
  354MOL0     H47783  10.547   6.791   4.051  0.8046 -1.4705 -1.9859
  354MOL0     H47784  10.519   7.097   3.989 -1.4282  1.8544  1.2805
  354MOL0     H47785  10.388   6.977   3.955  1.0073  1.8066 -1.0279
  354MOL0     H47786  10.389   7.097   4.373  1.4720 -1.2307  0.7079
  354MOL0     H47787  10.853   7.167   3.762  1.7336  2.5411  0.4860
  354MOL0     H47788  11.008   7.329   3.754  0.3026 -0.4647 -0.1230
  354MOL0     H47789  11.097   7.361   3.616  0.1946 -1.6458 -0.5690
  354MOL0     H47790  10.955   7.466   3.657  2.0604  0.4973  1.6172
  355MOL0     O47791   5.195   6.771   4.440 -1.0107 -0.2199 -0.6432
  355MOL0     C47792   5.304   6.820   4.438  0.2054 -0.9415 -0.8754
  355MOL0     O47793   5.330   6.952   4.478  0.0306  0.5188 -0.1482
  355MOL0     C47794   5.223   7.028   4.507 -0.7236 -0.5582 -0.5224
  355MOL0     C47795   5.145   7.080   4.406 -0.4854  0.9882  0.2466
  355MOL0     C47796   5.049   7.177   4.429  0.2258  0.0419  1.1934
  355MOL0     C47797   5.012   7.211   4.555  0.8284  0.7691 -0.3654
  355MOL0     O47798   4.915   7.296   4.579  0.2813 -0.3668 -0.2303
  355MOL0     C47799   4.786   7.254   4.542  0.2427  0.3213  0.4254
  355MOL0     C47800   4.692   7.377   4.531  0.2557 -0.2079 -0.4902
  355MOL0     C47801   4.641   7.397   4.678 -0.3602 -0.3280 -0.1297
  355MOL0     C47802   4.549   7.521   4.703  0.2612 -0.4735  0.0757
  355MOL0     C47803   4.551   7.565   4.845  0.7879 -0.4817  0.2446
  355MOL0     C47804   4.487   7.697   4.870 -0.4666  0.0109  0.0072
  355MOL0     C47805   4.334   7.695   4.873 -0.6121  0.6283  0.0102
  355MOL0     C47806   4.284   7.729   4.732  0.6139 -1.0102 -0.2429
  355MOL0     N47807   4.136   7.715   4.704 -0.7481 -0.9434 -0.1405
  355MOL0     C47808   4.068   7.604   4.689 -0.3859 -0.4345 -0.4370
  355MOL0     C47809   3.938   7.627   4.691 -0.4794  0.0178 -0.0407
  355MOL0     C47810   3.830   7.529   4.691  1.1353  0.4024 -0.9032
  355MOL0     C47811   3.690   7.594   4.681  0.2180  0.5859 -0.4274
  355MOL0     C47812   3.583   7.486   4.632  0.1582  0.2382 -0.0917
  355MOL0     C47813   3.557   7.384   4.743  0.4230  0.3073  0.7866
  355MOL0     O47814   3.477   7.278   4.677  0.1892  0.9265  0.1990
  355MOL0     C47815   3.540   7.165   4.625 -0.3647 -0.7325 -0.2843
  355MOL0     C47816   3.467   7.052   4.595  0.0399  0.1574  0.0146
  355MOL0     C47817   3.515   6.920   4.558  0.2503  0.9663 -0.7720
  355MOL0     C47818   3.653   6.909   4.560  0.0985  0.0390 -0.3325
  355MOL0     C47819   3.713   6.775   4.535 -0.4819 -0.0902  0.8427
  355MOL0     O47820   3.617   6.677   4.546  0.1376  0.3782  0.6385
  355MOL0     C47821   3.635   6.546   4.573  1.3859 -0.2234 -0.1005
  355MOL0     C47822   3.520   6.462   4.569 -0.4881 -0.3886 -0.6428
  355MOL0     C47823   3.534   6.329   4.600  0.5939 -0.2281  0.9571
  355MOL0     C47824   3.662   6.274   4.625  0.6647 -0.7855 -0.3522
  355MOL0     O47825   3.667   6.144   4.665  0.6952  0.6289 -0.0405
  355MOL0     C47826   3.547   6.059   4.668 -0.5161  0.5172 -0.6519
  355MOL0     C47827   3.503   6.007   4.524 -0.1972 -0.0682 -0.6383
  355MOL0     C47828   3.355   5.962   4.502 -1.1907  0.1353  0.4427
  355MOL0     C47829   3.336   5.912   4.352 -0.2760  0.1829  0.3904
  355MOL0     C47830   3.210   5.826   4.330  0.3617  0.3326 -0.0756
  355MOL0     C47831   3.091   5.909   4.294  0.3530  0.8306 -0.4101
  355MOL0     C47832   2.964   5.821   4.289 -0.7718  0.1721 -0.5719
  355MOL0     C47833   2.839   5.909   4.281  1.2326 -0.3773  0.1030
  355MOL0    Cl47834   2.702   5.806   4.342  0.1185 -0.4266 -0.2732
  355MOL0     C47835   3.769   6.358   4.635 -1.1058  0.6078  0.1706
  355MOL0     C47836   3.758   6.493   4.615 -0.5352  0.4662 -0.5568
  355MOL0     O47837   3.836   6.762   4.517 -0.2332  0.6885 -1.0179
  355MOL0     C47838   3.740   7.013   4.574  1.2623 -0.5437 -0.1776
  355MOL0     C47839   3.680   7.143   4.601 -0.8967 -0.9829 -0.1420
  355MOL0     N47840   3.932   7.760   4.725 -0.5708  0.0011 -0.1507
  355MOL0     N47841   4.054   7.813   4.719  0.0337  0.3137  0.2106
  355MOL0     C47842   5.085   7.153   4.659 -0.1938 -0.0813  0.3379
  355MOL0     C47843   5.191   7.068   4.641 -0.5870  1.1408 -0.4162
  355MOL0     C47844   5.421   6.732   4.397 -0.0920  0.4615 -0.0459
  355MOL0     C47845   5.395   6.602   4.336  0.0772 -0.3252  0.1934
  355MOL0     C47846   5.501   6.519   4.302  0.1116 -0.5610 -0.7342
  355MOL0     C47847   5.631   6.563   4.322  0.5127  0.7014 -0.3524
  355MOL0     O47848   5.726   6.479   4.285 -0.4213  0.3588  0.0391
  355MOL0     C47849   5.862   6.520   4.255  0.5403  0.7500  0.1109
  355MOL0     C47850   5.902   6.440   4.128  0.3368 -0.6196 -0.2107
  355MOL0     C47851   6.051   6.456   4.100  0.6932  0.2602  0.0770
  355MOL0     C47852   6.116   6.360   3.987 -0.4485 -0.5338 -0.5305
  355MOL0     C47853   6.092   6.217   4.003 -0.7622  0.4183 -0.4785
  355MOL0     C47854   6.103   6.093   4.020 -0.5521 -0.5532  0.3049
  355MOL0     C47855   5.653   6.675   4.402 -0.7715 -0.0998  0.5126
  355MOL0     C47856   5.556   6.761   4.425  1.8565 -0.4268  0.4987
  355MOL0     C47857   5.598   6.901   4.453  0.6508 -0.5426  0.0569
  355MOL0     H47858   5.161   7.049   4.303  0.4232  0.7569  0.4508
  355MOL0     H47859   5.000   7.214   4.339  0.6592 -2.0060  0.0546
  355MOL0     H47860   4.791   7.211   4.441  2.1921  1.9557 -0.2468
  355MOL0     H47861   4.739   7.172   4.597  0.1295 -1.5657 -2.2873
  355MOL0     H47862   4.605   7.344   4.472 -2.1063  0.7946  2.1755
  355MOL0     H47863   4.731   7.468   4.486  0.0729 -1.3986 -3.2592
  355MOL0     H47864   4.726   7.413   4.744  0.5607 -3.0223 -0.5385
  355MOL0     H47865   4.601   7.301   4.713  1.4055 -0.6975  1.0213
  355MOL0     H47866   4.571   7.603   4.634  0.1662  0.7692  1.4680
  355MOL0     H47867   4.449   7.483   4.681 -1.1769  1.8921  1.9937
  355MOL0     H47868   4.517   7.488   4.916  0.3959  1.1235  1.8671
  355MOL0     H47869   4.653   7.581   4.882  0.3438  0.6070  1.0495
  355MOL0     H47870   4.519   7.740   4.966  2.1059  0.6113 -1.0372
  355MOL0     H47871   4.520   7.769   4.796 -1.3183  1.7206  1.2116
  355MOL0     H47872   4.286   7.764   4.943  2.1619  2.0826  0.6656
  355MOL0     H47873   4.301   7.596   4.906 -1.2819 -0.3457 -3.3095
  355MOL0     H47874   4.306   7.833   4.705  0.1137 -0.3411  1.7491
  355MOL0     H47875   4.344   7.674   4.659 -0.1428 -3.9596  1.1960
  355MOL0     H47876   4.108   7.506   4.666  3.1982  1.2629 -2.2551
  355MOL0     H47877   3.843   7.467   4.602  1.2739  2.6691 -2.5349
  355MOL0     H47878   3.839   7.462   4.777  0.9740  1.4487 -0.0594
  355MOL0     H47879   3.660   7.637   4.777 -1.5067  0.4687 -0.8944
  355MOL0     H47880   3.686   7.677   4.610  0.8269 -1.3413 -2.8594
  355MOL0     H47881   3.609   7.423   4.547  3.0836  0.7033  0.3550
  355MOL0     H47882   3.486   7.534   4.613 -0.6284 -0.4572  1.8948
  355MOL0     H47883   3.518   7.428   4.835 -0.2042 -0.5247  0.9279
  355MOL0     H47884   3.650   7.332   4.769  1.9484  1.8160 -1.2834
  355MOL0     H47885   3.360   7.057   4.611 -0.1859  0.1100 -1.3599
  355MOL0     H47886   3.441   6.842   4.548  1.1057 -0.1443  1.0599
  355MOL0     H47887   3.414   6.481   4.556 -0.8852 -3.0349 -2.1071
  355MOL0     H47888   3.444   6.270   4.611  0.8499 -0.6259  0.9752
  355MOL0     H47889   3.565   5.973   4.733  1.0045  1.6697  0.5348
  355MOL0     H47890   3.473   6.115   4.725 -0.9186 -0.2369 -0.4110
  355MOL0     H47891   3.525   6.085   4.451 -2.1464 -1.5011 -2.9274
  355MOL0     H47892   3.563   5.923   4.487  0.8577  0.0006  0.8468
  355MOL0     H47893   3.354   5.889   4.583  5.1560 -2.9200 -1.6035
  355MOL0     H47894   3.299   6.056   4.509  0.5707  1.3130 -0.4532
  355MOL0     H47895   3.418   5.840   4.340 -2.9469 -3.1530  0.3320
  355MOL0     H47896   3.340   6.000   4.287 -1.1832  2.4368  3.1856
  355MOL0     H47897   3.178   5.771   4.419 -0.3189 -1.6052 -1.4646
  355MOL0     H47898   3.228   5.758   4.247 -1.3948 -0.4918  0.1832
  355MOL0     H47899   3.085   5.976   4.381  2.2415  0.1419  0.3071
  355MOL0     H47900   3.114   5.966   4.204 -0.8531 -0.6894 -1.7341
  355MOL0     H47901   2.962   5.760   4.380 -1.8239 -0.5454 -1.0593
  355MOL0     H47902   2.956   5.750   4.206 -0.7678 -2.8462  1.8413
  355MOL0     H47903   2.851   5.998   4.343  2.2861 -1.5488  1.6851
  355MOL0     H47904   2.834   5.934   4.175 -0.6609 -0.7279  0.0808
  355MOL0     H47905   3.867   6.317   4.658 -0.4846  1.9008 -0.0837
  355MOL0     H47906   3.847   6.551   4.630  0.6414 -1.7268  1.7052
  355MOL0     H47907   3.847   7.001   4.565  0.9522 -2.9929 -1.4581
  355MOL0     H47908   3.754   7.215   4.635 -0.4773 -0.9420 -1.1134
  355MOL0     H47909   5.061   7.195   4.756 -1.5267 -1.3134  0.5712
  355MOL0     H47910   5.264   7.027   4.710 -0.5524 -0.9863 -1.6160
  355MOL0     H47911   5.293   6.563   4.334  0.5614 -1.6953  0.9162
  355MOL0     H47912   5.476   6.420   4.263 -2.8781  0.7199 -2.3794
  355MOL0     H47913   5.917   6.491   4.345 -0.0730  0.6086  0.4451
  355MOL0     H47914   5.860   6.629   4.244 -0.3239  0.6799 -0.5911
  355MOL0     H47915   5.837   6.492   4.058 -1.7373  3.3072  4.0454
  355MOL0     H47916   5.857   6.341   4.130 -3.0749  0.7797 -1.3927
  355MOL0     H47917   6.101   6.436   4.196 -2.4482  2.0698  2.3145
  355MOL0     H47918   6.064   6.561   4.073 -0.9359  0.5319  0.2180
  355MOL0     H47919   6.057   6.388   3.899 -3.7775 -1.2066  1.3625
  355MOL0     H47920   6.223   6.384   3.983 -0.5770  0.2525  0.5473
  355MOL0     H47921   6.110   5.991   4.050 -2.4325 -0.5026  1.0597
  355MOL0     H47922   5.756   6.707   4.417 -0.8421  2.2828 -2.9041
  355MOL0     H47923   5.582   6.957   4.360  0.5513  1.3042  1.1414
  355MOL0     H47924   5.559   6.956   4.539 -0.2254 -0.1013 -0.6077
  355MOL0     H47925   5.705   6.900   4.476  0.0442 -1.8329  3.3127
  356MOL0     O47926   4.014   7.239   4.560  0.9429 -0.2663 -0.2893
  356MOL0     C47927   4.085   7.161   4.499 -0.4244  0.8084  1.5176
  356MOL0     O47928   4.194   7.097   4.553  0.5486  0.7729  0.0774
  356MOL0     C47929   4.209   7.075   4.692 -1.0089 -0.7298  1.2002
  356MOL0     C47930   4.233   7.182   4.771 -0.4422 -0.0987 -0.4161
  356MOL0     C47931   4.254   7.164   4.916 -0.2513  0.2717  0.3529
  356MOL0     C47932   4.244   7.033   4.974 -0.7901 -0.2375 -0.7976
  356MOL0     O47933   4.281   6.999   5.106 -0.0684  0.1297  0.0643
  356MOL0     C47934   4.255   7.112   5.190 -1.0085  0.9088  0.3451
  356MOL0     C47935   4.280   7.073   5.333 -0.3238  0.0071 -0.1922
  356MOL0     C47936   4.289   7.205   5.420  0.5612 -0.3097 -0.2777
  356MOL0     C47937   4.267   7.174   5.570 -0.0982 -0.0012 -0.1425
  356MOL0     C47938   4.270   7.297   5.668 -0.5985 -0.6566  0.4736
  356MOL0     C47939   4.288   7.258   5.810  0.7978 -0.2706 -0.0351
  356MOL0     C47940   4.280   7.386   5.891 -0.4472 -0.1299 -0.7242
  356MOL0     C47941   4.416   7.470   5.876 -0.6877  0.3556 -0.3193
  356MOL0     N47942   4.434   7.561   5.989 -0.8445  0.1155  0.1462
  356MOL0     C47943   4.375   7.686   6.023  0.0425 -0.1363  0.1151
  356MOL0     C47944   4.443   7.722   6.138  0.4617 -0.1177  0.2754
  356MOL0     C47945   4.421   7.846   6.218 -0.0425 -0.3088 -0.0191
  356MOL0     C47946   4.318   7.825   6.323 -0.3669 -0.7081  0.2519
  356MOL0     C47947   4.337   7.699   6.420 -0.1384 -0.3419 -0.4382
  356MOL0     C47948   4.226   7.688   6.534  0.1010 -0.6937  0.2598
  356MOL0     O47949   4.268   7.804   6.615  0.1516 -0.1746 -0.3434
  356MOL0     C47950   4.174   7.841   6.706  0.0799 -0.6339 -0.4193
  356MOL0     C47951   4.128   7.754   6.807 -0.3973 -1.0015  0.3114
  356MOL0     C47952   4.022   7.800   6.884  0.0328  1.0086 -0.8653
  356MOL0     C47953   3.960   7.930   6.872  0.6774 -0.3986 -0.2075
  356MOL0     C47954   3.839   7.967   6.952  0.1044  1.1766  0.3331
  356MOL0     O47955   3.776   7.858   7.005 -0.0018 -0.8618  0.2631
  356MOL0     C47956   3.640   7.865   7.027 -0.5296 -0.4118 -0.3314
  356MOL0     C47957   3.552   7.790   6.947 -0.3167 -0.5730 -0.2258
  356MOL0     C47958   3.415   7.787   6.973  0.0423  0.1551 -0.1263
  356MOL0     C47959   3.359   7.876   7.075 -0.0889 -0.0108  0.1086
  356MOL0     O47960   3.232   7.877   7.127 -0.6515  0.0034  0.5470
  356MOL0     C47961   3.115   7.861   7.039  0.3896 -0.2159 -0.6564
  356MOL0     C47962   3.003   7.791   7.120  0.8112 -0.1801  0.0210
  356MOL0     C47963   3.029   7.646   7.155 -0.2494  0.1098  0.1876
  356MOL0     C47964   2.915   7.580   7.232 -0.7381 -0.8809 -0.0640
  356MOL0     C47965   2.948   7.433   7.278  0.7697 -0.0026  0.0056
  356MOL0     C47966   2.817   7.374   7.337 -0.2023 -0.2523  0.7938
  356MOL0     C47967   2.860   7.233   7.380  0.5249 -0.2159 -0.6522
  356MOL0     C47968   2.754   7.176   7.474 -0.8652  0.1387  0.0166
  356MOL0    Cl47969   2.828   7.034   7.562  0.0150 -0.2188  0.2903
  356MOL0     C47970   3.454   7.946   7.155  0.2381 -1.2682  0.9251
  356MOL0     C47971   3.592   7.944   7.133 -0.7342  0.3870  0.0002
  356MOL0     O47972   3.803   8.083   6.956 -0.6961 -0.0207  0.2520
  356MOL0     C47973   4.016   8.015   6.774  0.4476  0.5849  0.5502
  356MOL0     C47974   4.122   7.972   6.696  0.0748  0.3573 -0.8805
  356MOL0     N47975   4.539   7.631   6.170  0.3211  0.5568 -0.3673
  356MOL0     N47976   4.523   7.529   6.083 -0.2209  0.5676  0.1203
  356MOL0     C47977   4.212   6.925   4.886 -0.9129 -0.4235  0.3763
  356MOL0     C47978   4.198   6.950   4.752  0.3284 -0.4491  0.6606
  356MOL0     C47979   4.044   7.111   4.366  0.0396 -0.1365  0.1807
  356MOL0     C47980   4.052   6.966   4.334 -0.2165 -0.6489  0.0669
  356MOL0     C47981   4.009   6.937   4.200 -0.1987 -0.1805 -0.7997
  356MOL0     C47982   3.986   7.029   4.094  1.0016 -0.3567 -0.7461
  356MOL0     O47983   3.953   6.986   3.963  0.0058  0.3653  0.2924
  356MOL0     C47984   3.917   6.852   3.933  0.0454  0.3543  0.1586
  356MOL0     C47985   3.845   6.833   3.794  0.4554  0.6938 -0.4664
  356MOL0     C47986   3.761   6.702   3.786  0.0834  0.1078  0.4328
  356MOL0     C47987   3.726   6.670   3.640 -0.3642  0.8675  0.3360
  356MOL0     C47988   3.666   6.537   3.618 -0.3369 -0.2757 -0.3238
  356MOL0     C47989   3.631   6.421   3.605 -0.1580  0.0262  0.7777
  356MOL0     C47990   3.986   7.159   4.134 -0.1863 -0.6611 -0.5989
  356MOL0     C47991   4.010   7.203   4.258 -0.4304 -0.6517 -0.5059
  356MOL0     C47992   4.030   7.350   4.276  0.1014  0.5662  0.0094
  356MOL0     H47993   4.241   7.286   4.741  1.7513 -0.2126 -0.3755
  356MOL0     H47994   4.262   7.260   4.966  0.4592  0.5082 -0.1923
  356MOL0     H47995   4.322   7.196   5.167 -0.8636  1.4472  2.5327
  356MOL0     H47996   4.154   7.153   5.177 -0.8501  1.7851  1.7534
  356MOL0     H47997   4.377   7.026   5.355  0.2115  2.3424  3.2991
  356MOL0     H47998   4.210   7.001   5.377 -0.6639  0.0559 -0.6480
  356MOL0     H47999   4.210   7.275   5.390 -1.2533 -1.9784  0.3492
  356MOL0     H48000   4.390   7.246   5.415  0.2943  0.2392 -2.6850
  356MOL0     H48001   4.170   7.126   5.585 -1.6163  2.5874 -0.9566
  356MOL0     H48002   4.351   7.111   5.601  1.3730  1.9304 -0.0154
  356MOL0     H48003   4.360   7.349   5.633  0.8490 -2.2850  1.5903
  356MOL0     H48004   4.183   7.362   5.663  0.8504  1.6610  2.8920
  356MOL0     H48005   4.207   7.191   5.842  1.6856 -1.0216  0.6967
  356MOL0     H48006   4.382   7.205   5.829  0.6856  0.6655  4.2470
  356MOL0     H48007   4.267   7.340   5.990  0.4001  2.1699  0.5285
  356MOL0     H48008   4.205   7.462   5.866  1.9049  1.6459 -2.7476
  356MOL0     H48009   4.490   7.391   5.861 -2.0671 -0.8248 -1.2891
  356MOL0     H48010   4.409   7.524   5.781 -1.2597  0.5098 -0.1924
  356MOL0     H48011   4.293   7.740   5.975 -1.0585 -1.4258  0.4960
  356MOL0     H48012   4.506   7.870   6.283 -1.7206  0.6308  1.9478
  356MOL0     H48013   4.396   7.927   6.150  1.3539 -1.1308 -1.5780
  356MOL0     H48014   4.313   7.915   6.384  0.8862 -0.7444  0.4275
  356MOL0     H48015   4.225   7.797   6.272  1.1902 -0.6819 -2.8057
  356MOL0     H48016   4.439   7.703   6.457  0.0430  0.2578 -0.9775
  356MOL0     H48017   4.335   7.614   6.351  3.0973 -2.0177  1.3142
  356MOL0     H48018   4.237   7.590   6.581 -0.5365 -0.6215  0.5588
  356MOL0     H48019   4.128   7.683   6.486  1.6936 -2.4364 -3.1851
  356MOL0     H48020   4.159   7.650   6.815  1.9182 -0.7353 -3.1944
  356MOL0     H48021   3.974   7.722   6.942 -1.0289 -0.0810 -3.0652
  356MOL0     H48022   3.576   7.737   6.855 -1.8588  0.5374 -1.3176
  356MOL0     H48023   3.345   7.722   6.921  0.4906  1.0724 -1.9679
  356MOL0     H48024   3.076   7.957   7.005 -1.1127 -0.2884  0.7431
  356MOL0     H48025   3.143   7.787   6.963  2.3825 -1.7584  1.4418
  356MOL0     H48026   3.000   7.858   7.207  1.5212 -2.0958  1.5772
  356MOL0     H48027   2.907   7.791   7.066  1.4260 -1.9514 -1.1360
  356MOL0     H48028   3.061   7.585   7.069 -0.6440 -1.5813  1.1981
  356MOL0     H48029   3.115   7.644   7.223 -2.0633  0.2436  2.6201
  356MOL0     H48030   2.824   7.580   7.171 -0.0865  3.4637 -1.3837
  356MOL0     H48031   2.903   7.642   7.322  0.5131  0.8519 -1.0230
  356MOL0     H48032   3.032   7.427   7.348  0.4893  3.0968  0.7732
  356MOL0     H48033   2.982   7.379   7.189  1.4417 -1.0462  0.8855
  356MOL0     H48034   2.775   7.430   7.420 -1.9355 -1.0556  0.5083
  356MOL0     H48035   2.742   7.362   7.258 -2.4680  0.0437  2.8220
  356MOL0     H48036   2.950   7.235   7.441 -0.0832  0.8352  0.2473
  356MOL0     H48037   2.873   7.158   7.302  2.4338 -1.6866  0.9981
  356MOL0     H48038   2.725   7.256   7.543 -2.1466 -1.0206  0.8914
  356MOL0     H48039   2.663   7.143   7.422 -0.6035  0.2096 -0.4945
  356MOL0     H48040   3.406   8.007   7.230 -0.3862  1.0462 -1.2374
  356MOL0     H48041   3.656   8.020   7.178 -3.9653  4.5563 -1.6884
  356MOL0     H48042   3.967   8.109   6.749 -0.9714  0.3959  2.4611
  356MOL0     H48043   4.155   8.044   6.622 -1.4426  0.3560 -1.5919
  356MOL0     H48044   4.197   6.821   4.913 -0.2199 -0.1370  2.0257
  356MOL0     H48045   4.185   6.850   4.711 -0.6540 -0.0108 -0.1181
  356MOL0     H48046   4.066   6.901   4.420 -2.7025  1.6315  2.3766
  356MOL0     H48047   4.004   6.829   4.188  0.1810 -0.0489 -2.3956
  356MOL0     H48048   3.845   6.820   4.009 -0.3145  0.5264 -0.1015
  356MOL0     H48049   4.003   6.785   3.935  1.8951  2.4917 -1.9264
  356MOL0     H48050   3.923   6.833   3.718  0.3469 -1.4434 -0.6317
  356MOL0     H48051   3.781   6.918   3.768  0.4068  1.0807  0.8247
  356MOL0     H48052   3.674   6.713   3.852  1.8662  0.4026  2.8427
  356MOL0     H48053   3.821   6.624   3.834  1.1097 -0.2052 -1.2746
  356MOL0     H48054   3.656   6.738   3.592 -5.0475 -0.5695  4.3159
  356MOL0     H48055   3.826   6.659   3.596 -0.1842 -2.0003  1.2393
  356MOL0     H48056   3.597   6.321   3.590  1.4704 -0.2221 -1.8864
  356MOL0     H48057   3.961   7.235   4.060  2.0542 -1.2412 -2.0583
  356MOL0     H48058   4.015   7.408   4.184  1.7773 -0.8023 -1.2010
  356MOL0     H48059   3.966   7.393   4.354 -0.8815  1.2089 -1.1108
  356MOL0     H48060   4.133   7.372   4.303  0.0126  0.9819  0.0188
  357MOL0     O48061   5.008   3.040   9.620 -0.1974  0.5444 -0.0965
  357MOL0     C48062   5.004   3.150   9.570 -0.0730  0.7913 -0.1326
  357MOL0     O48063   4.890   3.194   9.510  0.2798  0.2886  0.5638
  357MOL0     C48064   4.783   3.103   9.496 -0.0786 -0.4098 -0.3195
  357MOL0     C48065   4.806   2.969   9.439  0.6443 -0.4980 -0.1082
  357MOL0     C48066   4.692   2.881   9.425 -0.0539 -0.3785  0.6153
  357MOL0     C48067   4.566   2.930   9.454  0.0767  0.1673  0.3199
  357MOL0     O48068   4.453   2.855   9.446  0.6595  0.2351  0.0215
  357MOL0     C48069   4.444   2.747   9.351  1.0865  0.5161 -0.4361
  357MOL0     C48070   4.301   2.679   9.336 -0.2369  0.1660  0.4491
  357MOL0     C48071   4.190   2.783   9.298  0.6970  0.2389  0.7305
  357MOL0     C48072   4.050   2.723   9.281 -0.0443 -0.1693 -0.4390
  357MOL0     C48073   3.960   2.845   9.241 -0.8532 -0.1234 -0.3867
  357MOL0     C48074   3.815   2.821   9.281 -0.2618 -0.6468  0.6152
  357MOL0     C48075   3.736   2.940   9.224 -0.8532 -0.0626  0.7543
  357MOL0     C48076   3.593   2.935   9.279 -0.1086  0.9689  0.1610
  357MOL0     N48077   3.524   3.063   9.244  0.7336 -0.3349  0.5168
  357MOL0     C48078   3.518   3.160   9.342  0.2526  0.3852  0.0355
  357MOL0     C48079   3.431   3.251   9.293 -0.0322  0.2937 -0.0069
  357MOL0     C48080   3.381   3.382   9.355  0.3632 -0.2842  0.3051
  357MOL0     C48081   3.326   3.351   9.490  0.1574  0.2517 -0.0963
  357MOL0     C48082   3.323   3.476   9.572 -0.1984  0.1891  0.9429
  357MOL0     C48083   3.244   3.448   9.705  0.5204 -0.1827 -0.6067
  357MOL0     O48084   3.216   3.571   9.769 -0.5816  0.2919 -0.9481
  357MOL0     C48085   3.098   3.642   9.755 -0.2549  0.3709 -0.2167
  357MOL0     C48086   3.013   3.639   9.649 -0.9204  0.3831 -0.3806
  357MOL0     C48087   2.899   3.728   9.647 -0.1340  0.2742 -0.2228
  357MOL0     C48088   2.876   3.821   9.758  0.6388  0.0321  0.4452
  357MOL0     C48089   2.759   3.911   9.756  0.4412 -0.0928 -0.1728
  357MOL0     O48090   2.645   3.877   9.686 -0.4009  0.3390 -0.1859
  357MOL0     C48091   2.523   3.932   9.713 -0.1353  0.0971  1.1475
  357MOL0     C48092   2.484   4.005   9.826 -1.3797 -0.9120  0.7291
  357MOL0     C48093   2.354   4.056   9.837  0.2933  0.8567 -0.4729
  357MOL0     C48094   2.264   4.036   9.729 -0.2914 -0.5597  0.4396
  357MOL0     O48095   2.131   4.072   9.730  0.0291 -0.4696 -0.1487
  357MOL0     C48096   2.082   4.186   9.805 -0.0697 -0.1892 -0.1222
  357MOL0     C48097   2.149   4.320   9.764  0.4961  0.1504  0.0916
  357MOL0     C48098   2.139   4.347   9.613  1.3141  0.3887 -0.0779
  357MOL0     C48099   2.192   4.482   9.565  0.0125  0.5485  0.1164
  357MOL0     C48100   2.142   4.515   9.422  0.1468  0.2412  0.5996
  357MOL0     C48101   2.207   4.429   9.310 -0.1842  0.0193 -1.0279
  357MOL0     C48102   2.352   4.460   9.296  0.7747  0.5897  0.0108
  357MOL0     C48103   2.396   4.355   9.186 -0.6180 -0.9515 -0.4431
  357MOL0    Cl48104   2.551   4.433   9.122  0.4378  0.0283  0.2633
  357MOL0     C48105   2.306   3.981   9.605  0.6416 -0.1969 -0.6631
  357MOL0     C48106   2.433   3.928   9.600  0.3707 -0.6299  0.0907
  357MOL0     O48107   2.771   4.016   9.825  0.5873  0.7850 -0.1480
  357MOL0     C48108   2.970   3.819   9.866  0.9887  0.2106  0.8636
  357MOL0     C48109   3.080   3.730   9.864  0.1855  0.5541 -0.7195
  357MOL0     N48110   3.392   3.213   9.169  0.1286 -0.3538  0.4419
  357MOL0     N48111   3.451   3.103   9.130  0.4796 -0.7841 -0.7334
  357MOL0     C48112   4.544   3.059   9.517 -0.2880 -0.2378 -0.6664
  357MOL0     C48113   4.656   3.139   9.544 -0.4893  0.5451  0.9803
  357MOL0     C48114   5.121   3.244   9.579  0.0102  0.6170  0.6143
  357MOL0     C48115   5.110   3.361   9.505 -0.2611 -0.6016  0.6663
  357MOL0     C48116   5.215   3.455   9.507  0.7486  0.4149 -0.7705
  357MOL0     C48117   5.334   3.428   9.567  0.6049  0.8490 -0.7791
  357MOL0     O48118   5.432   3.520   9.550 -0.0582  0.7157 -0.2368
  357MOL0     C48119   5.565   3.476   9.550 -0.8216  0.3085 -0.4341
  357MOL0     C48120   5.662   3.556   9.458  0.3962  0.1625  0.0299
  357MOL0     C48121   5.701   3.695   9.520 -0.5026  0.4628 -0.3076
  357MOL0     C48122   5.766   3.784   9.423  0.2736 -0.1361 -0.0381
  357MOL0     C48123   5.745   3.926   9.455  0.8456  0.2640 -0.1513
  357MOL0     C48124   5.709   4.041   9.470 -0.7202 -0.0561 -0.1499
  357MOL0     C48125   5.349   3.309   9.639 -1.0644  1.3775  0.2282
  357MOL0     C48126   5.244   3.210   9.648  1.2078 -0.3405  0.3742
  357MOL0     C48127   5.269   3.085   9.736 -0.0718 -0.8516  0.1055
  357MOL0     H48128   4.897   2.923   9.403  0.9413 -0.2194  0.2868
  357MOL0     H48129   4.710   2.783   9.382  4.6147  0.5046 -0.0330
  357MOL0     H48130   4.467   2.789   9.253  0.3799 -0.3237 -0.9850
  357MOL0     H48131   4.510   2.671   9.392 -0.6626 -0.0230  1.6009
  357MOL0     H48132   4.274   2.622   9.425 -4.1380  1.7667  0.4896
  357MOL0     H48133   4.309   2.605   9.256 -1.1931  1.4638 -0.9032
  357MOL0     H48134   4.209   2.836   9.204  0.2340  0.7636  0.9266
  357MOL0     H48135   4.186   2.860   9.375  0.8078 -0.9988  2.0154
  357MOL0     H48136   4.061   2.653   9.198  0.4569  0.0088 -0.5233
  357MOL0     H48137   4.013   2.663   9.365 -0.7786  0.7071 -0.1218
  357MOL0     H48138   3.999   2.926   9.303  3.8145 -1.9260 -0.5412
  357MOL0     H48139   3.970   2.869   9.135 -0.7948 -0.7130 -0.5211
  357MOL0     H48140   3.777   2.722   9.253 -0.6036 -0.2562 -0.3547
  357MOL0     H48141   3.803   2.813   9.389 -4.2743  0.8344  0.4569
  357MOL0     H48142   3.730   2.931   9.115 -2.3798  2.2787  0.5747
  357MOL0     H48143   3.788   3.034   9.242  3.2492 -2.5963  3.9094
  357MOL0     H48144   3.551   2.847   9.228 -0.0696 -0.4410  2.4189
  357MOL0     H48145   3.579   2.912   9.385 -1.4935  0.0538 -0.1987
  357MOL0     H48146   3.562   3.161   9.441 -3.2324 -0.5660  1.7563
  357MOL0     H48147   3.457   3.460   9.344 -0.4892  0.4862 -0.2364
  357MOL0     H48148   3.290   3.414   9.304  2.0070  2.0410 -1.3911
  357MOL0     H48149   3.225   3.316   9.465  1.1774 -4.8676  1.8291
  357MOL0     H48150   3.376   3.273   9.548 -1.6596  0.1157  1.3849
  357MOL0     H48151   3.265   3.554   9.521  0.3077 -1.0475 -1.6888
  357MOL0     H48152   3.424   3.509   9.595 -1.3722  3.1254  2.4959
  357MOL0     H48153   3.300   3.380   9.770  2.7436  0.4569 -1.7388
  357MOL0     H48154   3.148   3.403   9.678 -0.5098  2.4021 -1.5330
  357MOL0     H48155   3.037   3.576   9.565  1.8608 -0.1594  0.7220
  357MOL0     H48156   2.836   3.736   9.559 -2.7125  0.1224  1.5155
  357MOL0     H48157   2.553   4.013   9.910  0.4366  0.9584 -0.8367
  357MOL0     H48158   2.313   4.110   9.923 -0.9551 -0.8530  0.0665
  357MOL0     H48159   1.973   4.194   9.801 -1.1880 -4.8838  5.8056
  357MOL0     H48160   2.107   4.180   9.911  0.0263  1.3533 -0.0395
  357MOL0     H48161   2.111   4.407   9.818 -2.3247 -0.2216 -1.1398
  357MOL0     H48162   2.257   4.312   9.781  0.2937 -1.7096  0.7717
  357MOL0     H48163   2.182   4.263   9.559 -0.0905 -0.4740  0.0812
  357MOL0     H48164   2.031   4.336   9.597  1.0566  1.2766  0.8695
  357MOL0     H48165   2.301   4.469   9.572  0.1506  1.7027  0.2680
  357MOL0     H48166   2.155   4.555   9.637 -0.6613 -2.4397  3.0711
  357MOL0     H48167   2.176   4.618   9.402 -1.3642  0.7051  0.3129
  357MOL0     H48168   2.033   4.515   9.416  0.1788  0.8318 -0.2676
  357MOL0     H48169   2.189   4.326   9.340 -0.5254 -0.1306 -1.7130
  357MOL0     H48170   2.153   4.445   9.216 -2.0294 -3.0836 -0.6543
  357MOL0     H48171   2.400   4.445   9.393 -2.9098 -2.2151  1.6155
  357MOL0     H48172   2.361   4.561   9.254 -2.4716  0.6372 -0.8042
  357MOL0     H48173   2.414   4.258   9.232 -0.3162 -0.1318  1.2425
  357MOL0     H48174   2.315   4.351   9.111 -2.4327  1.9052  1.1689
  357MOL0     H48175   2.232   3.977   9.526 -2.0540  0.5056  1.6452
  357MOL0     H48176   2.467   3.875   9.512 -2.8056 -1.4737 -0.7390
  357MOL0     H48177   2.948   3.903   9.930 -3.4573  0.7874 -1.0051
  357MOL0     H48178   3.149   3.734   9.947 -2.0148  0.5912  1.2095
  357MOL0     H48179   4.446   3.103   9.531  0.8356  2.1303  0.3117
  357MOL0     H48180   4.651   3.231   9.602 -1.1170  0.3490  1.2442
  357MOL0     H48181   5.025   3.383   9.442 -0.9148 -1.7939  1.1044
  357MOL0     H48182   5.217   3.529   9.428  2.2738 -1.5469 -2.6745
  357MOL0     H48183   5.563   3.375   9.508  1.2958 -0.0491  0.2133
  357MOL0     H48184   5.593   3.478   9.656 -1.1631  1.5407 -0.3599
  357MOL0     H48185   5.597   3.566   9.371 -0.2964  1.3938  0.6601
  357MOL0     H48186   5.759   3.520   9.423  1.4788  4.9928 -2.8434
  357MOL0     H48187   5.774   3.683   9.600 -0.7239 -0.1446 -0.1896
  357MOL0     H48188   5.600   3.728   9.547 -1.4237 -1.0660 -1.6666
  357MOL0     H48189   5.875   3.778   9.429  0.5586  0.9449 -2.8782
  357MOL0     H48190   5.738   3.766   9.319 -2.9621 -1.4518  0.9378
  357MOL0     H48191   5.685   4.145   9.468 -1.1688 -0.0705  2.0978
  357MOL0     H48192   5.433   3.275   9.699 -2.9997 -0.8594  1.8767
  357MOL0     H48193   5.376   3.082   9.760 -0.1138 -2.4360  0.1984
  357MOL0     H48194   5.205   3.087   9.825 -1.4855  0.2765 -0.8986
  357MOL0     H48195   5.247   2.986   9.696 -0.5302 -2.6354  4.2246
  358MOL0     O48196   9.734   2.831   8.763  0.2778  0.3461  0.0117
  358MOL0     C48197   9.719   2.951   8.785 -1.5622  0.1122  0.3248
  358MOL0     O48198   9.652   3.037   8.704 -0.3945  0.1036 -0.1420
  358MOL0     C48199   9.594   2.982   8.591 -0.3361  0.3566 -0.5226
  358MOL0     C48200   9.489   2.889   8.618 -0.5386  0.0444 -0.0098
  358MOL0     C48201   9.427   2.812   8.522  1.5314 -0.6397  0.8257
  358MOL0     C48202   9.463   2.838   8.390 -0.1058  0.7573  0.2672
  358MOL0     O48203   9.405   2.773   8.282 -0.3288  0.5962 -0.4388
  358MOL0     C48204   9.322   2.657   8.293 -0.1399 -0.6428 -0.2521
  358MOL0     C48205   9.272   2.631   8.151  0.2627  0.1056 -0.2322
  358MOL0     C48206   9.194   2.753   8.096 -0.3925 -0.0574  1.1699
  358MOL0     C48207   9.054   2.754   8.131 -0.4314  0.3810  0.3828
  358MOL0     C48208   8.970   2.879   8.088  0.0261 -0.7276  1.0602
  358MOL0     C48209   8.825   2.871   8.130  0.7946 -0.2626 -0.1513
  358MOL0     C48210   8.748   2.999   8.098 -0.1220 -0.5874  0.0045
  358MOL0     C48211   8.593   2.987   8.125  1.0208 -0.1922  0.1079
  358MOL0     N48212   8.506   2.967   8.006 -0.1702  0.5830  0.8673
  358MOL0     C48213   8.517   2.865   7.910  0.0401  0.0166  0.3220
  358MOL0     C48214   8.428   2.907   7.810 -0.3235 -0.1277 -0.3410
  358MOL0     C48215   8.404   2.855   7.675  1.0224  0.8855  0.2622
  358MOL0     C48216   8.249   2.835   7.647 -0.6790 -0.4371  0.2818
  358MOL0     C48217   8.213   2.799   7.497 -0.7397 -0.3579 -0.7029
  358MOL0     C48218   8.251   2.915   7.399  0.8857 -0.2773  0.7241
  358MOL0     O48219   8.177   2.903   7.275 -0.4450 -0.0013 -0.3867
  358MOL0     C48220   8.041   2.924   7.270  0.1339  0.2697 -0.8909
  358MOL0     C48221   7.972   2.896   7.151  0.1831 -0.4022  0.3834
  358MOL0     C48222   7.833   2.926   7.139  0.9723 -1.0454 -1.3111
  358MOL0     C48223   7.761   2.989   7.237  0.1497  0.3039 -0.5636
  358MOL0     C48224   7.611   3.006   7.231 -1.4107 -0.1890  0.1992
  358MOL0     O48225   7.543   3.058   7.333 -0.3860 -0.0984 -0.0965
  358MOL0     C48226   7.402   3.046   7.342  0.8827  0.5464 -0.1950
  358MOL0     C48227   7.338   2.924   7.307  0.2514 -0.4535 -0.3066
  358MOL0     C48228   7.200   2.918   7.325 -0.4131 -0.6031  0.2750
  358MOL0     C48229   7.122   3.019   7.380  0.1864  0.0252 -0.5342
  358MOL0     O48230   6.990   3.013   7.392  0.0669 -0.3273  0.1213
  358MOL0     C48231   6.909   2.993   7.273 -0.0961  0.8698 -0.3434
  358MOL0     C48232   6.760   2.960   7.300  0.0642  0.4716  0.2133
  358MOL0     C48233   6.719   2.858   7.412  0.0907 -0.0848  1.3429
  358MOL0     C48234   6.560   2.831   7.397 -0.4276 -0.6755 -0.2017
  358MOL0     C48235   6.526   2.689   7.444  0.6022 -0.2205  0.0661
  358MOL0     C48236   6.587   2.573   7.364  0.5400 -0.3577 -0.7268
  358MOL0     C48237   6.553   2.436   7.414 -0.1250 -0.8848 -0.2656
  358MOL0     C48238   6.635   2.344   7.332 -0.3933 -0.5080  0.8655
  358MOL0    Cl48239   6.590   2.176   7.389  0.0920 -0.3238  0.0792
  358MOL0     C48240   7.191   3.137   7.428 -0.0588  0.7397  0.0480
  358MOL0     C48241   7.334   3.145   7.412  1.0008 -0.6351 -0.2715
  358MOL0     O48242   7.564   2.960   7.131  0.4168 -0.2354  0.1707
  358MOL0     C48243   7.826   3.006   7.364  0.5353  0.9165 -0.0258
  358MOL0     C48244   7.960   2.971   7.380 -0.8626  0.2356  0.3990
  358MOL0     N48245   8.370   3.029   7.848  1.1034 -0.7316 -0.3707
  358MOL0     N48246   8.420   3.064   7.970  0.1663 -0.2725 -0.0345
  358MOL0     C48247   9.558   2.936   8.356 -0.5705 -1.0266 -0.3210
  358MOL0     C48248   9.628   3.012   8.457 -0.5416  0.6827  0.3296
  358MOL0     C48249   9.781   3.007   8.913  0.2414 -0.1611 -0.0546
  358MOL0     C48250   9.872   2.922   8.986 -0.6235  0.6413  0.4589
  358MOL0     C48251   9.929   2.959   9.108 -0.6655  0.9842 -0.1725
  358MOL0     C48252   9.914   3.090   9.145  0.0670 -0.3176  0.3221
  358MOL0     O48253   9.989   3.123   9.261  0.2964 -0.0369 -0.7559
  358MOL0     C48254   9.906   3.174   9.369  0.0322  0.0855  0.7830
  358MOL0     C48255   9.983   3.173   9.498  0.2523  0.4577 -0.0401
  358MOL0     C48256  10.110   3.258   9.487  0.5223  0.3067  0.5668
  358MOL0     C48257  10.165   3.273   9.631  0.4912 -0.8770  0.9306
  358MOL0     C48258  10.113   3.395   9.691 -0.4887  0.0154  0.5067
  358MOL0     C48259  10.083   3.487   9.759  0.0094 -0.5821 -0.8845
  358MOL0     C48260   9.827   3.179   9.082 -0.1349  0.3227  0.4678
  358MOL0     C48261   9.753   3.139   8.967 -0.7729 -0.2986 -0.2552
  358MOL0     C48262   9.653   3.237   8.921 -0.2025 -0.0109  0.1150
  358MOL0     H48263   9.459   2.880   8.721 -1.4440  1.3898 -0.1359
  358MOL0     H48264   9.339   2.752   8.543 -1.0359  1.3751 -3.0433
  358MOL0     H48265   9.369   2.567   8.333 -2.1567 -0.3051  3.2237
  358MOL0     H48266   9.234   2.672   8.356 -0.1230 -1.9345  0.0988
  358MOL0     H48267   9.197   2.554   8.172  2.4879 -2.7289 -2.0039
  358MOL0     H48268   9.344   2.589   8.080 -0.5581  0.7148 -1.4460
  358MOL0     H48269   9.188   2.752   7.986 -1.7682 -0.4958  1.2288
  358MOL0     H48270   9.239   2.849   8.124 -0.3371  0.5131 -0.7352
  358MOL0     H48271   9.012   2.668   8.079 -0.1044  0.0581  0.6517
  358MOL0     H48272   9.027   2.734   8.235  2.3350  2.6151  1.6541
  358MOL0     H48273   9.010   2.971   8.131 -3.4409  1.3048  0.3122
  358MOL0     H48274   8.975   2.885   7.979  1.0301  3.3308  1.1963
  358MOL0     H48275   8.779   2.782   8.086 -0.6095 -0.2130  1.1270
  358MOL0     H48276   8.824   2.856   8.239 -0.2036  2.8016  0.3789
  358MOL0     H48277   8.768   3.028   7.995  0.3917  0.7126  0.4419
  358MOL0     H48278   8.776   3.092   8.149 -0.7797  0.4358 -1.4214
  358MOL0     H48279   8.574   2.900   8.188 -3.4835  0.3370 -0.1773
  358MOL0     H48280   8.565   3.076   8.184  0.8322  1.2666 -2.0615
  358MOL0     H48281   8.593   2.788   7.904 -1.1524 -1.0812 -3.3682
  358MOL0     H48282   8.452   2.929   7.611 -1.0071  0.2755 -2.1138
  358MOL0     H48283   8.456   2.759   7.665 -0.7501 -0.4212  2.3939
  358MOL0     H48284   8.223   2.761   7.723  1.9953 -0.4937  1.2516
  358MOL0     H48285   8.205   2.931   7.678  2.0328  0.3006  2.2028
  358MOL0     H48286   8.108   2.768   7.493 -0.4018 -1.9440  1.2214
  358MOL0     H48287   8.268   2.712   7.461 -2.1765 -1.7014  0.2211
  358MOL0     H48288   8.355   2.908   7.366  0.6286  2.4749 -0.9363
  358MOL0     H48289   8.232   3.007   7.454 -3.3584  1.3595 -2.8425
  358MOL0     H48290   8.023   2.854   7.065 -1.5645 -0.9794 -0.4199
  358MOL0     H48291   7.786   2.916   7.042  0.3478  2.6505 -1.5362
  358MOL0     H48292   7.391   2.838   7.268  0.0440 -0.3320 -0.8693
  358MOL0     H48293   7.161   2.819   7.304 -1.5331 -0.1913  0.3889
  358MOL0     H48294   6.913   3.085   7.214 -4.1702  0.6268 -1.3356
  358MOL0     H48295   6.955   2.911   7.216  0.5499 -0.8971  2.4877
  358MOL0     H48296   6.703   3.052   7.318 -1.3234  0.0017 -1.4841
  358MOL0     H48297   6.717   2.925   7.205 -0.9395  1.2944  0.3411
  358MOL0     H48298   6.777   2.766   7.412  1.1041  0.4707 -1.3092
  358MOL0     H48299   6.725   2.890   7.516 -5.6198  0.2802  1.9052
  358MOL0     H48300   6.522   2.848   7.295  0.4490  0.8171 -0.3099
  358MOL0     H48301   6.501   2.898   7.459  0.5640 -0.8282  0.9335
  358MOL0     H48302   6.419   2.674   7.432  0.8373 -0.4418 -2.3454
  358MOL0     H48303   6.543   2.674   7.551 -0.0758  1.1094  0.3857
  358MOL0     H48304   6.560   2.579   7.258 -3.7591 -1.7489  0.1238
  358MOL0     H48305   6.695   2.570   7.381  0.3156 -0.7894  0.7761
  358MOL0     H48306   6.444   2.423   7.409 -0.8228  1.3332  4.1190
  358MOL0     H48307   6.585   2.421   7.517 -2.0114 -0.2690  0.4551
  358MOL0     H48308   6.616   2.358   7.225  2.6782  1.4437  0.4702
  358MOL0     H48309   6.743   2.359   7.338 -0.3692  0.3395 -1.1015
  358MOL0     H48310   7.123   3.215   7.460  0.9274  2.4359 -1.7232
  358MOL0     H48311   7.389   3.230   7.452 -0.5000  0.9751 -1.4965
  358MOL0     H48312   7.768   3.038   7.450  0.4537  0.3207  0.1442
  358MOL0     H48313   7.997   3.001   7.477  1.7622 -3.7823  0.8876
  358MOL0     H48314   9.570   2.941   8.248 -2.9640 -1.5326 -0.6740
  358MOL0     H48315   9.710   3.079   8.433 -0.0469 -0.8192 -2.5766
  358MOL0     H48316   9.897   2.829   8.935 -1.5714  0.0864  0.9777
  358MOL0     H48317  10.003   2.902   9.162  0.0219  3.8617  2.2238
  358MOL0     H48318   9.826   3.103   9.390 -0.4271  0.1641 -0.5866
  358MOL0     H48319   9.860   3.272   9.347 -0.9425 -0.7467 -1.1816
  358MOL0     H48320  10.002   3.070   9.527 -0.8712  0.6781  1.6843
  358MOL0     H48321   9.921   3.216   9.578  1.8736  2.1523  0.3997
  358MOL0     H48322  10.079   3.353   9.444 -0.2084  0.0073  0.4179
  358MOL0     H48323  10.186   3.204   9.430  1.2968 -1.4462  3.0674
  358MOL0     H48324  10.129   3.193   9.696 -1.0735 -3.5537 -2.8235
  358MOL0     H48325  10.273   3.291   9.631  0.2833  0.4809  1.2591
  358MOL0     H48326  10.055   3.566   9.826 -0.9114 -0.6785 -1.1364
  358MOL0     H48327   9.825   3.279   9.124 -2.3408 -1.3219  4.9243
  358MOL0     H48328   9.675   3.260   8.817  0.6154  0.6139  0.4104
  358MOL0     H48329   9.546   3.218   8.936 -0.2950 -0.2391 -0.8028
  358MOL0     H48330   9.679   3.330   8.972  4.0221 -0.8190 -0.2048
  359MOL0     O48331   4.542   0.355   7.389 -0.2594  0.1513  0.2273
  359MOL0     C48332   4.428   0.376   7.349  0.1927  0.5627 -0.6635
  359MOL0     O48333   4.319   0.288   7.353 -0.3512 -0.0333  0.2034
  359MOL0     C48334   4.346   0.154   7.345  0.8123 -0.5883  0.7828
  359MOL0     C48335   4.279   0.073   7.437 -0.2057  0.0916 -0.2707
  359MOL0     C48336   4.301  -0.059   7.434 -0.1931  0.7320 -0.8383
  359MOL0     C48337   4.359  -0.126   7.329  1.0683  0.0684 -0.2482
  359MOL0     O48338   4.356  -0.267   7.330  0.6411  0.1693  0.1064
  359MOL0     C48339   4.457  -0.334   7.263 -0.0909  0.2509 -0.2563
  359MOL0     C48340   4.410  -0.474   7.278 -0.6073  0.4248 -0.5332
  359MOL0     C48341   4.400  -0.524   7.428  0.7090  1.0241 -0.8845
  359MOL0     C48342   4.354  -0.673   7.436  0.0171  0.8127  0.1670
  359MOL0     C48343   4.336  -0.728   7.582  1.0721  0.5264 -0.8665
  359MOL0     C48344   4.457  -0.790   7.647  0.4932 -0.0725 -0.1664
  359MOL0     C48345   4.489  -0.928   7.598 -0.5718  0.8455  0.0503
  359MOL0     C48346   4.623  -0.963   7.666 -0.3127 -0.2591 -1.1189
  359MOL0     N48347   4.666  -1.098   7.635 -0.3920 -0.5677  0.4513
  359MOL0     C48348   4.694  -1.137   7.501  0.8213  0.5897 -0.2707
  359MOL0     C48349   4.676  -1.270   7.495  1.0772 -0.0092  0.6932
  359MOL0     C48350   4.664  -1.344   7.360  0.3578  0.4136 -0.2608
  359MOL0     C48351   4.751  -1.474   7.346  0.5000 -0.3888 -0.1307
  359MOL0     C48352   4.707  -1.577   7.443  0.1000 -0.2745 -0.4257
  359MOL0     C48353   4.751  -1.711   7.382  0.0308 -0.0445  0.5465
  359MOL0     O48354   4.893  -1.727   7.385 -0.8617  0.0174  0.9948
  359MOL0     C48355   4.939  -1.850   7.345 -0.2332 -0.3071 -0.5894
  359MOL0     C48356   4.914  -1.960   7.428 -0.4638  0.2142 -0.9792
  359MOL0     C48357   4.992  -2.072   7.415 -0.2193  0.3332  0.7183
  359MOL0     C48358   5.069  -2.099   7.296  0.2855 -1.0010 -1.3884
  359MOL0     C48359   5.137  -2.220   7.267 -1.4820  0.0276  0.9888
  359MOL0     O48360   5.086  -2.339   7.325 -0.8435 -0.9796  0.1662
  359MOL0     C48361   5.158  -2.455   7.291 -0.2181 -0.0607  0.4989
  359MOL0     C48362   5.098  -2.538   7.198  0.7142 -0.5613 -0.2497
  359MOL0     C48363   5.162  -2.650   7.146  0.5813 -1.0345  0.3669
  359MOL0     C48364   5.295  -2.679   7.179 -0.1440 -0.2576 -0.8367
  359MOL0     O48365   5.369  -2.782   7.131 -0.0526  0.8557  0.1463
  359MOL0     C48366   5.342  -2.858   7.012 -0.5462 -0.1047  0.4888
  359MOL0     C48367   5.453  -2.970   6.986  0.2202 -0.5096 -0.3238
  359MOL0     C48368   5.596  -2.913   7.013  1.0265  0.2466 -0.2284
  359MOL0     C48369   5.688  -3.027   6.972 -0.0179 -0.0830 -0.6744
  359MOL0     C48370   5.835  -2.979   6.966  0.4289  0.6583  0.4595
  359MOL0     C48371   5.943  -3.094   6.946  0.2736  0.6207  0.7551
  359MOL0     C48372   5.985  -3.164   7.072 -0.3073  0.1963 -0.4142
  359MOL0     C48373   6.015  -3.316   7.043 -0.0264 -0.4273  0.0147
  359MOL0    Cl48374   5.881  -3.425   6.971  0.0769 -0.2048 -0.2452
  359MOL0     C48375   5.347  -2.609   7.285  0.1138  1.3224 -0.3770
  359MOL0     C48376   5.280  -2.497   7.343 -0.6816  0.2112  0.0280
  359MOL0     O48377   5.230  -2.224   7.172  0.7531  0.3595 -0.4786
  359MOL0     C48378   5.080  -1.990   7.206  0.1258 -0.8010 -0.3186
  359MOL0     C48379   5.019  -1.870   7.232 -1.2868  0.2488 -0.4028
  359MOL0     N48380   4.644  -1.313   7.615 -0.4856 -0.4059 -0.1577
  359MOL0     N48381   4.639  -1.217   7.696  0.1714  0.3222 -0.5650
  359MOL0     C48382   4.413  -0.044   7.232 -0.8855  0.7346  0.0790
  359MOL0     C48383   4.417   0.095   7.243  0.8835 -0.8296 -0.7417
  359MOL0     C48384   4.396   0.507   7.310 -0.1773 -0.4219 -0.4086
  359MOL0     C48385   4.450   0.624   7.380  0.8343  1.3378  0.3358
  359MOL0     C48386   4.419   0.750   7.332  0.6171  0.0127  0.1433
  359MOL0     C48387   4.340   0.772   7.218 -0.4534 -0.2754 -0.3624
  359MOL0     O48388   4.289   0.883   7.162  0.2864 -0.9296  0.8166
  359MOL0     C48389   4.332   1.007   7.219  0.0683  0.5079 -0.3273
  359MOL0     C48390   4.476   1.049   7.191 -0.0192 -0.0038  1.2544
  359MOL0     C48391   4.496   1.066   7.037 -0.0952  0.3088  0.6834
  359MOL0     C48392   4.623   1.139   6.993 -1.1729  0.1847  0.9489
  359MOL0     C48393   4.738   1.053   7.024  0.1268  0.5293 -0.5956
  359MOL0     C48394   4.830   0.982   7.068  0.3159 -0.2014 -0.0308
  359MOL0     C48395   4.303   0.666   7.143 -0.7364  0.4931  1.6396
  359MOL0     C48396   4.331   0.536   7.187 -0.1927 -0.1811  0.0347
  359MOL0     C48397   4.286   0.425   7.101 -0.1590 -0.4200  0.1596
  359MOL0     H48398   4.226   0.117   7.521  1.9547 -0.2306  1.3448
  359MOL0     H48399   4.259  -0.127   7.507  0.6200  0.2307 -0.8203
  359MOL0     H48400   4.476  -0.306   7.159  3.2277 -1.7091 -0.3388
  359MOL0     H48401   4.552  -0.318   7.316 -0.7301 -0.0257  1.0266
  359MOL0     H48402   4.478  -0.544   7.229 -1.6375  0.1768 -1.6779
  359MOL0     H48403   4.318  -0.497   7.224  1.0115 -1.6331 -2.6382
  359MOL0     H48404   4.335  -0.458   7.486 -2.3814 -1.9909 -0.5823
  359MOL0     H48405   4.498  -0.530   7.476 -0.4910  0.3519  1.6772
  359MOL0     H48406   4.253  -0.674   7.394 -0.8876  1.7860  2.1715
  359MOL0     H48407   4.419  -0.742   7.381  0.7294  0.5377  1.3010
  359MOL0     H48408   4.309  -0.645   7.647 -0.1667 -1.3030  1.0826
  359MOL0     H48409   4.257  -0.803   7.578  1.3187  0.0875  1.3435
  359MOL0     H48410   4.549  -0.740   7.616  0.7370 -1.5220 -1.9116
  359MOL0     H48411   4.443  -0.792   7.756  0.7916 -1.3152 -0.1403
  359MOL0     H48412   4.499  -0.932   7.489 -0.5023 -3.7703  0.0240
  359MOL0     H48413   4.412  -0.998   7.631  0.3444 -0.6481 -0.8643
  359MOL0     H48414   4.698  -0.890   7.636 -1.2797  1.9852  1.4422
  359MOL0     H48415   4.611  -0.952   7.774  1.6604  3.2116 -1.1210
  359MOL0     H48416   4.713  -1.081   7.409 -0.4758  2.5311  0.5759
  359MOL0     H48417   4.559  -1.375   7.361  0.8795 -1.4928 -0.1295
  359MOL0     H48418   4.675  -1.269   7.282 -1.2347 -1.5434 -2.5181
  359MOL0     H48419   4.740  -1.507   7.242  2.4793 -1.7468  0.0291
  359MOL0     H48420   4.857  -1.451   7.357  0.3002 -0.5077  3.0213
  359MOL0     H48421   4.598  -1.576   7.447 -0.1250  0.8723 -3.6635
  359MOL0     H48422   4.765  -1.569   7.536  1.4588 -0.3673 -1.2362
  359MOL0     H48423   4.711  -1.713   7.280 -3.3729 -1.9530  1.7648
  359MOL0     H48424   4.699  -1.786   7.442  1.0830  0.3310  1.9928
  359MOL0     H48425   4.853  -1.957   7.518 -0.5723 -0.9515 -1.0012
  359MOL0     H48426   4.980  -2.143   7.496 -1.3605 -0.0140  0.2635
  359MOL0     H48427   4.997  -2.531   7.160  1.1829 -2.1158 -1.8767
  359MOL0     H48428   5.111  -2.707   7.070 -2.1968  2.3976 -0.6108
  359MOL0     H48429   5.245  -2.910   7.014  0.6208 -2.3722  1.5724
  359MOL0     H48430   5.341  -2.783   6.932  0.6900 -0.3757  0.2075
  359MOL0     H48431   5.431  -3.057   7.049 -2.2670  0.6122  0.5083
  359MOL0     H48432   5.439  -3.011   6.886 -1.4416  1.0252 -0.7774
  359MOL0     H48433   5.613  -2.825   6.950  0.5498  1.4271  1.2152
  359MOL0     H48434   5.609  -2.890   7.119  0.5522  2.1043 -0.5434
  359MOL0     H48435   5.666  -3.073   6.875  3.6829  3.6181 -3.6485
  359MOL0     H48436   5.696  -3.101   7.052  0.1899 -0.5036 -1.0803
  359MOL0     H48437   5.862  -2.921   7.055  1.2092  0.2316  0.5085
  359MOL0     H48438   5.838  -2.915   6.877  0.7196 -1.2223 -0.9453
  359MOL0     H48439   5.907  -3.161   6.868 -3.0749 -0.1855  2.7799
  359MOL0     H48440   6.027  -3.039   6.902 -1.1301  1.2239 -1.3612
  359MOL0     H48441   5.909  -3.157   7.151  2.3051  1.3601  2.1783
  359MOL0     H48442   6.076  -3.118   7.109  1.0984 -1.2263 -1.9294
  359MOL0     H48443   6.092  -3.313   6.965 -0.8646  0.5989 -0.8238
  359MOL0     H48444   6.067  -3.359   7.128 -2.3011 -0.8985  1.2555
  359MOL0     H48445   5.448  -2.635   7.314  0.3083  1.1387 -1.1915
  359MOL0     H48446   5.325  -2.430   7.415  2.9566 -1.5906 -0.3646
  359MOL0     H48447   5.151  -2.007   7.126  1.5198 -0.5413  0.8189
  359MOL0     H48448   5.036  -1.783   7.170 -0.7297  1.5563  1.5092
  359MOL0     H48449   4.449  -0.103   7.148 -0.6836  1.0602 -0.0689
  359MOL0     H48450   4.476   0.143   7.166  0.0539  0.8173 -0.3956
  359MOL0     H48451   4.517   0.598   7.461  3.9459 -1.6814 -2.8955
  359MOL0     H48452   4.453   0.839   7.385 -1.6213  1.0803 -0.1091
  359MOL0     H48453   4.330   1.004   7.328 -0.8780  3.4429 -0.1786
  359MOL0     H48454   4.259   1.087   7.200 -1.7187 -0.8791  0.4141
  359MOL0     H48455   4.544   0.980   7.242  2.1035  2.3674  1.8232
  359MOL0     H48456   4.498   1.147   7.235 -0.1609  0.6645 -0.1140
  359MOL0     H48457   4.413   1.126   6.996  0.0357 -0.9628 -1.6186
  359MOL0     H48458   4.495   0.965   6.995  0.6268  0.1587  1.0079
  359MOL0     H48459   4.620   1.161   6.885  1.6925  0.5687  0.8618
  359MOL0     H48460   4.628   1.235   7.045 -2.4776  0.9058 -0.1719
  359MOL0     H48461   4.896   0.906   7.105 -1.8420 -0.9135  2.7436
  359MOL0     H48462   4.249   0.670   7.049  1.6290 -2.5776 -0.0349
  359MOL0     H48463   4.260   0.465   7.003  0.3079 -1.6202 -0.4657
  359MOL0     H48464   4.377   0.367   7.085 -1.0300 -1.5608 -0.8557
  359MOL0     H48465   4.219   0.351   7.147  0.2112  0.3169  1.9938
  360MOL0     O48466   2.969   1.959   8.174 -0.3640 -0.0017  0.1448
  360MOL0     C48467   2.848   1.968   8.149  0.3060 -0.1016 -0.4618
  360MOL0     O48468   2.788   1.977   8.025 -0.2146 -0.6265  0.2551
  360MOL0     C48469   2.862   1.934   7.917  1.1210  0.1054 -0.0622
  360MOL0     C48470   2.872   2.017   7.811  0.1467  0.1428  0.2350
  360MOL0     C48471   2.943   1.983   7.703 -0.4590 -0.4625  0.5383
  360MOL0     C48472   3.000   1.852   7.692  0.3323  0.3392  0.3399
  360MOL0     O48473   3.063   1.806   7.576  0.5987  0.1962  0.4783
  360MOL0     C48474   3.143   1.904   7.501 -0.2449 -1.0352 -0.2480
  360MOL0     C48475   3.233   1.829   7.404 -0.3355 -0.3839  0.0223
  360MOL0     C48476   3.131   1.781   7.297 -0.2830  0.5491  0.0970
  360MOL0     C48477   3.208   1.763   7.160  0.1651 -0.3002 -0.9220
  360MOL0     C48478   3.239   1.902   7.091 -0.3198  0.7423 -0.4035
  360MOL0     C48479   3.112   1.959   7.041 -0.2622 -0.2590  0.1331
  360MOL0     C48480   3.146   2.081   6.942 -0.3683  0.2581 -0.5100
  360MOL0     C48481   3.019   2.111   6.858 -0.4172 -0.3212  0.4323
  360MOL0     N48482   3.027   2.056   6.718 -0.4677 -0.1495  0.6952
  360MOL0     C48483   3.001   1.921   6.695  0.3438  0.1784  1.5979
  360MOL0     C48484   3.061   1.908   6.576  0.0491 -0.2451  0.2219
  360MOL0     C48485   3.119   1.791   6.501  0.6898  0.6192 -0.1710
  360MOL0     C48486   3.016   1.690   6.446  0.4222 -0.1075  0.3071
  360MOL0     C48487   2.938   1.621   6.566 -0.3441 -0.4512  0.8722
  360MOL0     C48488   3.034   1.573   6.680  0.1108  0.1715 -0.2051
  360MOL0     O48489   3.159   1.509   6.646  0.2658  0.3127  0.1659
  360MOL0     C48490   3.240   1.460   6.740 -0.6272 -0.1094 -0.7098
  360MOL0     C48491   3.239   1.498   6.878  0.7825  0.6173  0.8161
  360MOL0     C48492   3.334   1.436   6.964 -0.3149  0.1899  0.0562
  360MOL0     C48493   3.422   1.339   6.921  0.6034  0.2776 -0.2200
  360MOL0     C48494   3.521   1.282   7.011 -0.2269  0.2126  0.6564
  360MOL0     O48495   3.595   1.164   6.992  0.3321 -0.2494  0.0773
  360MOL0     C48496   3.676   1.115   7.102 -0.0869 -0.3853  0.7835
  360MOL0     C48497   3.816   1.116   7.095  0.9903  0.0325  0.3665
  360MOL0     C48498   3.899   1.060   7.192  0.3552 -0.6058  0.0451
  360MOL0     C48499   3.835   1.002   7.307 -0.0165  0.3377 -0.3073
  360MOL0     O48500   3.902   0.964   7.425 -0.4596 -0.3543 -0.1666
  360MOL0     C48501   4.020   0.887   7.429 -0.2822 -0.4756 -0.4549
  360MOL0     C48502   3.982   0.741   7.481  0.4458  0.4209 -0.4280
  360MOL0     C48503   4.067   0.709   7.604  0.8530 -0.4569 -0.2656
  360MOL0     C48504   4.030   0.570   7.645  0.3514 -1.0089 -0.2604
  360MOL0     C48505   4.118   0.521   7.754  0.4387  0.4614 -1.2123
  360MOL0     C48506   4.090   0.367   7.782  0.9158  0.2582  0.2698
  360MOL0     C48507   4.182   0.294   7.876 -0.1635  0.4917 -0.7408
  360MOL0     C48508   4.264   0.177   7.815 -1.3160 -0.6659 -0.7122
  360MOL0    Cl48509   4.158   0.040   7.802  0.2398 -0.0591 -0.7221
  360MOL0     C48510   3.690   0.998   7.313  0.4803  0.2763 -0.6536
  360MOL0     C48511   3.616   1.048   7.212 -0.4929 -0.3451  0.1765
  360MOL0     O48512   3.541   1.357   7.102  0.1655  0.3842 -0.5139
  360MOL0     C48513   3.420   1.301   6.788 -0.2426  0.1508  0.4117
  360MOL0     C48514   3.331   1.362   6.704  0.4308 -0.4364 -0.5515
  360MOL0     N48515   3.092   2.034   6.526 -1.5189 -0.4161  0.1348
  360MOL0     N48516   3.075   2.125   6.609 -0.2129 -0.7213  0.1407
  360MOL0     C48517   2.983   1.759   7.798  0.0732 -0.7592 -0.8034
  360MOL0     C48518   2.917   1.804   7.912  0.5059  0.5192  0.5171
  360MOL0     C48519   2.750   1.991   8.266 -1.2931  0.1304 -1.3041
  360MOL0     C48520   2.613   1.996   8.242 -0.0849 -0.7896 -0.2688
  360MOL0     C48521   2.531   2.034   8.352 -0.4329 -1.0833  0.2200
  360MOL0     C48522   2.583   2.052   8.483  0.2133  0.8602  0.2092
  360MOL0     O48523   2.502   2.080   8.591  0.6109  0.4596 -0.2460
  360MOL0     C48524   2.556   2.114   8.718  0.6661  0.9065  0.6627
  360MOL0     C48525   2.640   2.245   8.736  0.3571 -0.2758  0.2057
  360MOL0     C48526   2.593   2.359   8.639  0.2869 -0.5946  0.3117
  360MOL0     C48527   2.655   2.495   8.673  1.0133  0.3583 -0.1508
  360MOL0     C48528   2.795   2.487   8.658 -0.5441 -0.1739  0.4100
  360MOL0     C48529   2.917   2.468   8.678 -0.2845 -0.1753  0.6686
  360MOL0     C48530   2.715   2.020   8.499 -0.5789  0.1061  0.0353
  360MOL0     C48531   2.805   1.998   8.404  0.3916  0.4779  0.1294
  360MOL0     C48532   2.950   1.959   8.446  0.7926  1.0310  0.2090
  360MOL0     H48533   2.817   2.108   7.832  0.1537  0.0065  0.8452
  360MOL0     H48534   2.946   2.055   7.621 -2.9057  1.2519  1.8343
  360MOL0     H48535   3.087   1.986   7.456 -1.0086  0.5664  3.2540
  360MOL0     H48536   3.204   1.956   7.575 -0.8121 -1.7787  0.7740
  360MOL0     H48537   3.298   1.760   7.459  4.1317  0.7957 -3.2679
  360MOL0     H48538   3.302   1.902   7.361 -1.0369 -0.2051 -0.8311
  360MOL0     H48539   3.045   1.848   7.292 -0.4206  0.4117  0.5513
  360MOL0     H48540   3.088   1.682   7.319 -2.3074  0.9953 -1.5724
  360MOL0     H48541   3.301   1.709   7.179  0.1714  0.4218  1.3778
  360MOL0     H48542   3.150   1.701   7.092 -0.6641 -0.4213 -0.1183
  360MOL0     H48543   3.301   1.974   7.146  0.7419 -1.6346  1.7211
  360MOL0     H48544   3.297   1.880   7.001 -1.5647  0.3545 -1.1338
  360MOL0     H48545   3.048   1.886   6.991 -2.0272  0.2853  1.5074
  360MOL0     H48546   3.056   2.008   7.122  2.8612  3.8662  0.1268
  360MOL0     H48547   3.222   2.067   6.866  0.1767  1.0733 -0.1293
  360MOL0     H48548   3.169   2.172   6.999  3.5404 -1.0741  0.3186
  360MOL0     H48549   2.928   2.069   6.903  1.2946 -2.5006  2.0517
  360MOL0     H48550   3.003   2.219   6.853  1.3199 -0.0411  0.3534
  360MOL0     H48551   2.962   1.847   6.764  2.1910 -0.7052  1.7502
  360MOL0     H48552   3.176   1.838   6.421 -0.0029 -0.1778 -1.1510
  360MOL0     H48553   3.196   1.740   6.561  0.2098 -3.1384 -2.4299
  360MOL0     H48554   2.940   1.752   6.397 -4.2033 -3.8029  2.1071
  360MOL0     H48555   3.059   1.618   6.376 -2.1769 -0.0566 -1.4669
  360MOL0     H48556   2.876   1.539   6.528 -2.5645  1.3413  0.3820
  360MOL0     H48557   2.864   1.693   6.601 -1.6106  0.1683 -2.6514
  360MOL0     H48558   2.995   1.490   6.739  2.4006  0.0401  1.2341
  360MOL0     H48559   3.064   1.660   6.739  1.7509 -0.4171 -0.1467
  360MOL0     H48560   3.161   1.570   6.901  1.1013  2.1405 -2.3835
  360MOL0     H48561   3.322   1.472   7.066 -0.8319  0.8472 -0.2270
  360MOL0     H48562   3.866   1.163   7.011 -1.2487  3.3035  0.6794
  360MOL0     H48563   4.005   1.083   7.185  0.8775 -2.9575 -0.6862
  360MOL0     H48564   4.073   0.876   7.334  0.9223  0.8678  0.0301
  360MOL0     H48565   4.089   0.932   7.501  1.6537  1.1087 -3.1176
  360MOL0     H48566   3.874   0.735   7.500  0.6222 -0.9680  0.2052
  360MOL0     H48567   4.008   0.673   7.400  3.9087  1.3383 -0.2287
  360MOL0     H48568   4.175   0.715   7.586  0.4521  0.6832 -2.7539
  360MOL0     H48569   4.049   0.794   7.671  1.3637  0.4790 -1.2864
  360MOL0     H48570   4.048   0.501   7.562 -0.0803 -0.1815 -1.0551
  360MOL0     H48571   3.923   0.555   7.663  0.0338 -0.6724 -1.7293
  360MOL0     H48572   4.091   0.580   7.842  2.4663  0.9024 -0.8540
  360MOL0     H48573   4.225   0.534   7.743  0.3685  1.9624 -0.3614
  360MOL0     H48574   3.990   0.383   7.822  1.5374  1.3095  1.4928
  360MOL0     H48575   4.069   0.302   7.697 -2.8025  0.5799  0.7833
  360MOL0     H48576   4.119   0.262   7.960  0.1818  2.4716  0.3445
  360MOL0     H48577   4.258   0.359   7.921  1.7232 -1.4914 -0.8776
  360MOL0     H48578   4.314   0.194   7.719  3.0059 -1.1243  1.2293
  360MOL0     H48579   4.347   0.150   7.881 -0.9705 -0.8008 -1.1990
  360MOL0     H48580   3.649   0.952   7.403  4.9504 -0.9046  1.0612
  360MOL0     H48581   3.508   1.039   7.222 -0.4182  0.8874  2.8260
  360MOL0     H48582   3.487   1.226   6.749 -2.1594 -1.4796  0.0944
  360MOL0     H48583   3.324   1.334   6.599  0.9765 -1.1528 -0.4102
  360MOL0     H48584   3.031   1.662   7.792  1.4353 -0.0913 -1.1659
  360MOL0     H48585   2.879   1.730   7.982 -3.4565  4.2628  2.8543
  360MOL0     H48586   2.579   1.991   8.139  1.8822 -1.4454 -0.9335
  360MOL0     H48587   2.426   2.052   8.332 -0.0000  2.4163  0.4430
  360MOL0     H48588   2.609   2.029   8.762  0.1585  0.0542 -0.3560
  360MOL0     H48589   2.467   2.130   8.780 -1.8960  4.4492 -3.3597
  360MOL0     H48590   2.738   2.213   8.701 -1.1510 -5.3090 -0.1729
  360MOL0     H48591   2.644   2.282   8.839 -1.3426  2.8129 -0.6853
  360MOL0     H48592   2.485   2.374   8.636  0.5407  1.3007 -0.5501
  360MOL0     H48593   2.617   2.336   8.535 -0.0161  2.9012 -0.6748
  360MOL0     H48594   2.633   2.582   8.610 -1.5131  1.7861  2.4746
  360MOL0     H48595   2.630   2.519   8.777  0.0328 -0.8870 -0.0789
  360MOL0     H48596   3.022   2.444   8.679 -0.5156 -1.3885 -0.5683
  360MOL0     H48597   2.755   2.021   8.600  2.0541 -2.5896 -0.8478
  360MOL0     H48598   2.977   1.862   8.404 -0.4763  0.6867  0.1583
  360MOL0     H48599   3.017   2.042   8.420  3.1115 -1.5338 -2.7321
  360MOL0     H48600   2.967   1.941   8.552  1.0258  2.0405  0.3584
  361MOL0     O48601   5.816  10.105   7.756  0.2105  0.0092 -0.4206
  361MOL0     C48602   5.706  10.101   7.806 -0.1796 -1.4845  0.1025
  361MOL0     O48603   5.649   9.982   7.843  0.4885 -0.2047  0.7453
  361MOL0     C48604   5.571   9.964   7.948  0.4798 -0.4711 -1.4071
  361MOL0     C48605   5.597  10.023   8.077 -0.0812 -0.2457 -0.5735
  361MOL0     C48606   5.507   9.997   8.183  0.0832  1.1267  0.0154
  361MOL0     C48607   5.388   9.915   8.155  0.2883 -0.1522  0.0259
  361MOL0     O48608   5.309   9.877   8.260  0.6744 -0.2776  0.1194
  361MOL0     C48609   5.179   9.807   8.225  0.6575 -0.3109 -0.6990
  361MOL0     C48610   5.086   9.798   8.346 -0.4406 -0.2943  0.2466
  361MOL0     C48611   5.163   9.805   8.482 -0.5266 -0.5575  0.1489
  361MOL0     C48612   5.264   9.696   8.500 -0.1943 -0.7064  0.9356
  361MOL0     C48613   5.326   9.701   8.635  0.5170  0.3944 -0.2078
  361MOL0     C48614   5.454   9.604   8.640 -0.4533  0.1077 -0.0564
  361MOL0     C48615   5.529   9.564   8.769 -0.3437 -0.7030  0.9236
  361MOL0     C48616   5.590   9.691   8.829 -0.4498 -0.7063  0.2607
  361MOL0     N48617   5.655   9.650   8.952 -0.3349 -0.4588  0.0492
  361MOL0     C48618   5.755   9.556   8.966  0.6507  0.2668  0.4554
  361MOL0     C48619   5.820   9.569   9.082  0.3899  0.4066 -0.1765
  361MOL0     C48620   5.939   9.503   9.146 -0.1181  0.9495  0.1933
  361MOL0     C48621   6.066   9.548   9.074  0.1709  0.3909  0.1488
  361MOL0     C48622   6.074   9.503   8.933  0.7789  0.7749 -1.4044
  361MOL0     C48623   6.218   9.525   8.873 -0.4043 -0.8344 -0.5632
  361MOL0     O48624   6.214   9.466   8.744 -0.3353 -0.6344 -0.5766
  361MOL0     C48625   6.278   9.353   8.718 -0.2357 -0.6939  0.2193
  361MOL0     C48626   6.311   9.352   8.585 -0.6600  0.0943 -0.6029
  361MOL0     C48627   6.391   9.246   8.532 -0.2034  0.0047  0.1484
  361MOL0     C48628   6.438   9.141   8.605 -0.4866  0.1483 -0.0086
  361MOL0     C48629   6.524   9.048   8.547 -0.1542 -0.5108  0.7640
  361MOL0     O48630   6.509   8.922   8.585 -0.5863 -0.2721  0.1179
  361MOL0     C48631   6.586   8.820   8.527  0.2890 -1.0904  1.1155
  361MOL0     C48632   6.711   8.836   8.484 -1.3849 -0.0720  0.4995
  361MOL0     C48633   6.773   8.735   8.419 -0.6450 -0.6393  0.5259
  361MOL0     C48634   6.702   8.621   8.391  0.2717 -0.2163  0.0941
  361MOL0     O48635   6.780   8.524   8.324 -0.0450 -0.0279 -0.3213
  361MOL0     C48636   6.717   8.398   8.294 -0.0744 -0.1121  0.1846
  361MOL0     C48637   6.795   8.307   8.199 -0.5335 -0.1819  0.2300
  361MOL0     C48638   6.889   8.216   8.265  0.4281  0.2992  0.4019
  361MOL0     C48639   6.822   8.107   8.354 -0.2724 -0.6191  0.1750
  361MOL0     C48640   6.923   7.999   8.402  0.3072  0.1283 -0.6416
  361MOL0     C48641   7.042   8.046   8.491  0.0751  0.8278 -0.1625
  361MOL0     C48642   7.158   8.108   8.407  0.5985  0.5603 -0.0008
  361MOL0     C48643   7.241   8.214   8.467 -0.4790  0.2616 -0.3115
  361MOL0    Cl48644   7.384   8.240   8.369 -0.2997  0.5189 -0.1260
  361MOL0     C48645   6.567   8.608   8.434 -0.5348  0.3374 -0.7732
  361MOL0     C48646   6.516   8.709   8.506  0.0258 -0.2627  0.2286
  361MOL0     O48647   6.586   9.082   8.451  0.2349 -0.9354  1.1072
  361MOL0     C48648   6.392   9.140   8.739 -0.5114  0.3752 -0.5992
  361MOL0     C48649   6.313   9.244   8.799  0.2775  0.0034 -0.7995
  361MOL0     N48650   5.757   9.668   9.147 -0.0616 -0.6064 -0.1382
  361MOL0     N48651   5.651   9.705   9.078  0.0403  0.0429 -0.3663
  361MOL0     C48652   5.370   9.867   8.025 -0.2288  1.0242  0.7592
  361MOL0     C48653   5.461   9.889   7.925  0.0407  0.4107  0.1802
  361MOL0     C48654   5.644  10.225   7.811  0.2175  0.1884  0.1653
  361MOL0     C48655   5.506  10.230   7.787  0.1449  0.9509  0.0502
  361MOL0     C48656   5.444  10.359   7.777  0.1956  0.3327  0.1969
  361MOL0     C48657   5.509  10.478   7.804  0.2008 -0.1647 -0.6259
  361MOL0     O48658   5.431  10.588   7.795  0.1707  0.3214 -0.3971
  361MOL0     C48659   5.473  10.711   7.847 -0.7579  0.3335 -0.0586
  361MOL0     C48660   5.350  10.801   7.870  0.9066 -0.5566  0.4216
  361MOL0     C48661   5.387  10.907   7.973  0.5573  0.3123 -0.4997
  361MOL0     C48662   5.264  10.993   8.009 -0.3284  1.0664  0.2324
  361MOL0     C48663   5.147  10.920   8.064  0.6076  0.9770 -0.8815
  361MOL0     C48664   5.038  10.874   8.106  0.2838 -0.3347  0.1603
  361MOL0     C48665   5.644  10.474   7.841 -0.1740  0.5660  0.1357
  361MOL0     C48666   5.708  10.348   7.845  0.7661  0.6893  0.5904
  361MOL0     C48667   5.848  10.356   7.889 -0.2106 -0.5722  0.0422
  361MOL0     H48668   5.688  10.078   8.100 -0.9545  2.1744 -2.4270
  361MOL0     H48669   5.536  10.030   8.282  0.4891  1.5806 -0.2465
  361MOL0     H48670   5.128   9.860   8.144  0.5812 -1.4660 -1.4265
  361MOL0     H48671   5.204   9.704   8.198  2.7860 -0.4032  1.2975
  361MOL0     H48672   5.027   9.709   8.325 -0.7822  0.0254 -0.1694
  361MOL0     H48673   5.026   9.889   8.349 -0.6340 -0.4392  2.7643
  361MOL0     H48674   5.089   9.804   8.562  1.0119  3.6836  1.9102
  361MOL0     H48675   5.214   9.901   8.495  2.7638 -2.3833  2.2109
  361MOL0     H48676   5.224   9.595   8.487 -0.8451 -0.3113 -0.3809
  361MOL0     H48677   5.338   9.718   8.423 -0.2525  0.9765  1.3302
  361MOL0     H48678   5.348   9.801   8.672 -0.9907  0.7488 -0.2216
  361MOL0     H48679   5.252   9.649   8.697  0.6699 -0.9703 -1.1236
  361MOL0     H48680   5.429   9.506   8.599 -0.0337  0.0923 -0.2805
  361MOL0     H48681   5.527   9.651   8.574 -0.3211 -0.3189 -0.2182
  361MOL0     H48682   5.592   9.478   8.744 -0.8024 -0.9355  0.5339
  361MOL0     H48683   5.461   9.512   8.837 -1.4237 -0.7010 -0.1097
  361MOL0     H48684   5.659   9.746   8.764  0.0736 -2.5059 -0.7843
  361MOL0     H48685   5.515   9.768   8.847 -1.4099 -0.6188 -3.2995
  361MOL0     H48686   5.775   9.475   8.896  1.6179  0.7422  0.1678
  361MOL0     H48687   5.934   9.536   9.251  2.4980 -4.3138  2.3701
  361MOL0     H48688   5.917   9.396   9.141  1.1052  0.7496 -1.2876
  361MOL0     H48689   6.066   9.657   9.078 -0.6487  0.4901 -1.6453
  361MOL0     H48690   6.142   9.519   9.147 -1.1558 -2.3866  0.5752
  361MOL0     H48691   6.005   9.555   8.866 -0.8428 -0.9320 -1.1553
  361MOL0     H48692   6.049   9.396   8.931  1.6348  0.5650 -1.4173
  361MOL0     H48693   6.292   9.475   8.936 -1.1458  1.0889  2.0004
  361MOL0     H48694   6.223   9.634   8.873 -1.9967 -0.6877  1.4880
  361MOL0     H48695   6.291   9.439   8.525 -3.8749 -1.2065 -1.6609
  361MOL0     H48696   6.426   9.248   8.429  1.9521  1.3438  0.8295
  361MOL0     H48697   6.772   8.924   8.501  0.8904 -1.8402  2.0811
  361MOL0     H48698   6.866   8.768   8.374 -2.1742  0.9923 -1.6476
  361MOL0     H48699   6.704   8.348   8.390  0.1263  3.3806  2.1555
  361MOL0     H48700   6.616   8.401   8.250  0.3614 -0.8587 -0.9437
  361MOL0     H48701   6.733   8.257   8.124  2.0593 -2.9443 -0.2741
  361MOL0     H48702   6.859   8.369   8.136  1.5266 -3.1755 -0.8422
  361MOL0     H48703   6.947   8.166   8.187  2.8473  3.6531 -0.1394
  361MOL0     H48704   6.964   8.269   8.325  2.5470 -2.6170  0.5410
  361MOL0     H48705   6.742   8.054   8.302  0.7280  0.7306 -3.0220
  361MOL0     H48706   6.779   8.149   8.445 -1.6501  2.4499 -1.7439
  361MOL0     H48707   6.958   7.949   8.311 -3.2301 -1.9957 -1.0443
  361MOL0     H48708   6.866   7.920   8.452  0.1645  1.2818  1.0906
  361MOL0     H48709   7.007   8.121   8.562  0.8911  2.8592 -1.7815
  361MOL0     H48710   7.083   7.961   8.545  0.7050  0.3002 -1.4322
  361MOL0     H48711   7.120   8.139   8.309 -1.7328 -1.9888 -0.0329
  361MOL0     H48712   7.235   8.033   8.387 -0.1358  0.3896 -2.5283
  361MOL0     H48713   7.180   8.305   8.461 -0.5664  0.1172 -3.7112
  361MOL0     H48714   7.260   8.184   8.570 -0.4804 -2.2453 -0.9735
  361MOL0     H48715   6.508   8.519   8.416 -0.2101  0.0684 -0.5159
  361MOL0     H48716   6.414   8.708   8.543  0.0393  0.5880  0.3254
  361MOL0     H48717   6.432   9.069   8.809 -1.0315  2.0098  1.4637
  361MOL0     H48718   6.294   9.229   8.905  2.9241  1.6742  0.0266
  361MOL0     H48719   5.293   9.797   7.993  1.9693 -0.6630 -1.1408
  361MOL0     H48720   5.454   9.843   7.827 -0.3785  1.5663 -0.3508
  361MOL0     H48721   5.450  10.150   7.741 -0.7314 -0.2963  3.0356
  361MOL0     H48722   5.347  10.348   7.730  1.2377 -4.2395 -1.3843
  361MOL0     H48723   5.550  10.750   7.780 -0.3592 -0.5742 -0.1394
  361MOL0     H48724   5.525  10.688   7.940  0.4869  0.1810 -0.7618
  361MOL0     H48725   5.259  10.754   7.909  0.3518  0.1646  0.0244
  361MOL0     H48726   5.323  10.855   7.779 -1.2934 -0.0983  1.2980
  361MOL0     H48727   5.468  10.975   7.943  0.6951  0.0517 -0.7209
  361MOL0     H48728   5.439  10.861   8.057  2.6687  2.7895 -0.3307
  361MOL0     H48729   5.294  11.075   8.075 -0.2458  1.3420 -0.1452
  361MOL0     H48730   5.230  11.046   7.919  0.9337 -0.2522 -1.0932
  361MOL0     H48731   4.940  10.845   8.140 -1.2460  0.3074 -3.2399
  361MOL0     H48732   5.711  10.556   7.867  4.0677 -2.1632 -1.0538
  361MOL0     H48733   5.904  10.382   7.799 -2.1056  1.7299 -0.5404
  361MOL0     H48734   5.859  10.448   7.947 -4.7064  0.4027 -0.3045
  361MOL0     H48735   5.888  10.272   7.948  0.5340  1.3221  2.4054
  362MOL0     O48736   2.189   3.804   6.641  0.0270 -0.3905  0.0607
  362MOL0     C48737   2.218   3.701   6.690  0.6291  0.5781 -0.9954
  362MOL0     O48738   2.338   3.669   6.728 -0.0001  0.3253  0.2834
  362MOL0     C48739   2.447   3.752   6.728  0.0226  0.7859 -0.7864
  362MOL0     C48740   2.484   3.828   6.840 -0.3743 -0.3310 -0.5461
  362MOL0     C48741   2.583   3.918   6.834 -0.5924 -0.7166  0.1592
  362MOL0     C48742   2.641   3.953   6.702 -0.1668  0.1530 -1.0932
  362MOL0     O48743   2.723   4.057   6.674 -0.0112 -0.1247 -1.0574
  362MOL0     C48744   2.777   4.126   6.792 -0.2964 -0.3601  0.1415
  362MOL0     C48745   2.886   4.222   6.757  0.8646 -0.5660 -0.1985
  362MOL0     C48746   2.830   4.353   6.681  0.1920  0.2610 -1.3378
  362MOL0     C48747   2.764   4.459   6.769 -0.7886 -0.0254 -1.0844
  362MOL0     C48748   2.718   4.578   6.681 -0.5793  0.3354 -0.6893
  362MOL0     C48749   2.637   4.679   6.761 -0.0736  0.1057 -0.0049
  362MOL0     C48750   2.563   4.794   6.685 -0.1148 -0.3490  0.3715
  362MOL0     C48751   2.662   4.891   6.622 -0.2783  0.2850  0.3618
  362MOL0     N48752   2.749   4.949   6.722 -0.2204 -0.5059  0.0859
  362MOL0     C48753   2.876   4.993   6.709  0.0464  1.1606 -0.5385
  362MOL0     C48754   2.915   5.041   6.831  0.7682  0.3201  0.5558
  362MOL0     C48755   3.056   5.091   6.851  0.4241 -0.0612  0.7904
  362MOL0     C48756   3.083   5.226   6.775  0.0537  0.8495  0.4148
  362MOL0     C48757   3.027   5.344   6.855  0.1224 -0.5144  0.4123
  362MOL0     C48758   3.077   5.476   6.792 -0.3955  0.7724  0.1406
  362MOL0     O48759   3.217   5.488   6.824  0.6550  0.6815  0.0994
  362MOL0     C48760   3.298   5.533   6.727  0.0269  0.6896  0.1064
  362MOL0     C48761   3.256   5.634   6.632  0.5081 -0.1462  0.3066
  362MOL0     C48762   3.342   5.659   6.522 -0.9641  0.2398 -0.5656
  362MOL0     C48763   3.468   5.596   6.507 -0.0078  0.0909  0.3316
  362MOL0     C48764   3.548   5.610   6.379  0.2929 -0.0340 -0.2177
  362MOL0     O48765   3.675   5.556   6.370 -0.4350 -0.9484 -0.1210
  362MOL0     C48766   3.754   5.608   6.274 -0.6898 -0.2429 -0.3259
  362MOL0     C48767   3.824   5.522   6.185  0.0727 -0.2371 -0.7690
  362MOL0     C48768   3.900   5.577   6.083  0.4971  0.3571 -0.3794
  362MOL0     C48769   3.918   5.722   6.074 -0.1961  0.4278 -0.1495
  362MOL0     O48770   3.974   5.797   5.980  0.4081 -0.5277 -0.3099
  362MOL0     C48771   4.047   5.735   5.873 -0.0575 -0.4445 -1.0259
  362MOL0     C48772   3.974   5.750   5.737 -0.0689 -0.2646  0.0529
  362MOL0     C48773   3.958   5.903   5.710 -0.9212  0.2402 -0.3440
  362MOL0     C48774   3.883   5.946   5.586  0.2781 -0.7828 -1.0635
  362MOL0     C48775   3.878   6.098   5.546  0.1807 -0.0637  0.3373
  362MOL0     C48776   3.762   6.190   5.595 -0.2055  0.3657 -0.3962
  362MOL0     C48777   3.790   6.325   5.537  1.0492  0.1370  0.0060
  362MOL0     C48778   3.645   6.384   5.524 -0.8100 -0.9153 -0.2738
  362MOL0    Cl48779   3.552   6.408   5.685 -0.0270 -0.0822 -0.1813
  362MOL0     C48780   3.864   5.801   6.173  0.1844 -0.8304 -0.1667
  362MOL0     C48781   3.778   5.752   6.274 -0.0829  0.4096 -0.0061
  362MOL0     O48782   3.499   5.674   6.289  0.3017 -0.3062  0.4036
  362MOL0     C48783   3.506   5.494   6.596  0.1396 -0.1991  0.1584
  362MOL0     C48784   3.426   5.475   6.707 -0.0631  0.7893 -0.5783
  362MOL0     N48785   2.804   5.041   6.908 -0.3129  0.5727 -0.6355
  362MOL0     N48786   2.706   4.990   6.844  0.6730  0.7955 -1.1514
  362MOL0     C48787   2.602   3.881   6.595 -0.0563 -0.5215  0.2705
  362MOL0     C48788   2.514   3.779   6.608 -0.7729 -0.1573  0.0879
  362MOL0     C48789   2.104   3.604   6.718 -1.0822 -0.4168  0.5493
  362MOL0     C48790   2.144   3.465   6.726 -0.2546  0.3432 -0.2267
  362MOL0     C48791   2.056   3.365   6.714  0.1439 -0.4109 -0.4193
  362MOL0     C48792   1.921   3.390   6.719 -0.1551  0.3010 -0.0198
  362MOL0     O48793   1.832   3.291   6.717  0.8918  0.2509 -0.4346
  362MOL0     C48794   1.748   3.267   6.603 -0.0177  0.1821  0.8962
  362MOL0     C48795   1.615   3.192   6.645 -0.0243 -0.8618  0.3808
  362MOL0     C48796   1.532   3.289   6.730  0.0651 -0.0005  0.2409
  362MOL0     C48797   1.386   3.274   6.710  0.1958  1.1337 -0.6119
  362MOL0     C48798   1.309   3.360   6.792 -0.6634 -0.4694 -0.7055
  362MOL0     C48799   1.252   3.443   6.851 -0.1910  0.2763 -0.7910
  362MOL0     C48800   1.880   3.524   6.708  0.0273  0.3299 -0.1840
  362MOL0     C48801   1.968   3.637   6.705 -0.7921  0.3980 -0.7356
  362MOL0     C48802   1.909   3.776   6.685  0.5095  0.2178  0.1266
  362MOL0     H48803   2.440   3.814   6.938  0.6553  1.3674  0.2177
  362MOL0     H48804   2.614   3.964   6.928  0.6538 -1.3884  0.1049
  362MOL0     H48805   2.705   4.165   6.864 -0.6841  0.0059 -0.4301
  362MOL0     H48806   2.839   4.052   6.843  1.4751  0.7661 -0.2911
  362MOL0     H48807   2.957   4.173   6.690  0.8054 -1.6997  0.5238
  362MOL0     H48808   2.940   4.247   6.849 -0.5426 -0.1253  0.5379
  362MOL0     H48809   2.754   4.325   6.606 -0.6919 -1.6663  0.1968
  362MOL0     H48810   2.914   4.391   6.622  2.7127 -0.5593  1.4845
  362MOL0     H48811   2.680   4.419   6.827 -0.1306  0.2548  0.1084
  362MOL0     H48812   2.836   4.476   6.849 -1.1539 -5.1830  0.7078
  362MOL0     H48813   2.806   4.616   6.628 -1.3360  0.6821 -1.7474
  362MOL0     H48814   2.648   4.541   6.605 -1.1830 -0.6943  0.3485
  362MOL0     H48815   2.566   4.615   6.815 -0.7658  0.1956 -0.7902
  362MOL0     H48816   2.705   4.721   6.835  0.1910 -2.1468  1.1256
  362MOL0     H48817   2.491   4.828   6.760 -1.0104  2.5760 -1.6706
  362MOL0     H48818   2.511   4.755   6.597  3.5064 -2.4111 -1.0846
  362MOL0     H48819   2.720   4.828   6.553  0.5568 -1.0792  2.2344
  362MOL0     H48820   2.615   4.969   6.562  0.3059 -0.4605 -1.1209
  362MOL0     H48821   2.945   4.984   6.626 -0.1557 -2.5157 -0.4834
  362MOL0     H48822   3.076   5.095   6.959 -1.1262 -1.6624  1.1931
  362MOL0     H48823   3.119   5.015   6.806 -1.3654 -0.2561 -1.5857
  362MOL0     H48824   3.189   5.230   6.750 -0.0217 -3.1410 -1.2730
  362MOL0     H48825   3.029   5.229   6.681  0.9873  2.1676 -0.1119
  362MOL0     H48826   3.055   5.339   6.961 -0.1887  0.7720  0.5796
  362MOL0     H48827   2.918   5.344   6.845  0.3754 -1.0987 -4.0559
  362MOL0     H48828   3.031   5.569   6.828  2.0022  3.0513 -2.1672
  362MOL0     H48829   3.057   5.474   6.684  0.9709  0.9637 -0.1464
  362MOL0     H48830   3.164   5.689   6.643  1.3454  1.0450  1.7737
  362MOL0     H48831   3.304   5.735   6.455 -2.5921 -0.7636 -0.8324
  362MOL0     H48832   3.805   5.416   6.173  0.4992 -0.4238  0.1467
  362MOL0     H48833   3.946   5.513   6.007  0.3865 -2.8035  2.0385
  362MOL0     H48834   4.145   5.783   5.863 -0.8763  0.7806 -4.2576
  362MOL0     H48835   4.060   5.627   5.885 -1.0329 -0.4930 -0.1722
  362MOL0     H48836   4.029   5.700   5.657 -0.2467 -2.7549  1.3839
  362MOL0     H48837   3.875   5.705   5.742 -0.3046  0.2461  0.0408
  362MOL0     H48838   3.901   5.944   5.794 -1.5717  1.5219 -1.3768
  362MOL0     H48839   4.052   5.959   5.716 -0.1146 -1.1903  2.7641
  362MOL0     H48840   3.783   5.902   5.590 -0.6295  0.5720 -4.9780
  362MOL0     H48841   3.943   5.905   5.504  2.8136 -2.6828  1.5272
  362MOL0     H48842   3.866   6.096   5.437 -1.2714 -0.2705  0.4786
  362MOL0     H48843   3.968   6.155   5.570  0.1325 -0.0687  0.5284
  362MOL0     H48844   3.663   6.160   5.558  0.1390 -2.2007  0.5459
  362MOL0     H48845   3.772   6.203   5.703  2.4124  2.2183 -0.7680
  362MOL0     H48846   3.845   6.334   5.442 -0.0002  1.9873 -0.4862
  362MOL0     H48847   3.851   6.385   5.604 -1.4281  2.4220  0.3954
  362MOL0     H48848   3.669   6.485   5.488  1.6560 -0.4913  2.2136
  362MOL0     H48849   3.583   6.335   5.448  0.9159 -2.9998 -0.4094
  362MOL0     H48850   3.863   5.909   6.159 -0.3401 -0.6052  1.4223
  362MOL0     H48851   3.722   5.815   6.342 -1.1526 -1.0608  0.5368
  362MOL0     H48852   3.602   5.448   6.573 -0.6067 -1.0127 -1.4543
  362MOL0     H48853   3.454   5.397   6.777 -1.6816 -0.6196 -1.4121
  362MOL0     H48854   2.617   3.912   6.492 -2.7727 -1.9595 -0.6616
  362MOL0     H48855   2.480   3.715   6.527  3.1240 -2.4228  0.0289
  362MOL0     H48856   2.248   3.435   6.737 -1.0341 -1.6579  2.7656
  362MOL0     H48857   2.087   3.262   6.717  0.9256 -0.1578  1.3721
  362MOL0     H48858   1.808   3.224   6.522  0.0736  0.6828  0.6944
  362MOL0     H48859   1.717   3.358   6.551 -0.2935 -0.5674 -0.2867
  362MOL0     H48860   1.635   3.104   6.707  1.1432 -0.8185  0.0771
  362MOL0     H48861   1.570   3.159   6.551  1.4695 -0.4074 -0.5304
  362MOL0     H48862   1.553   3.394   6.709  2.1006 -0.2587  0.7732
  362MOL0     H48863   1.559   3.280   6.836 -0.7929 -0.9693  0.3918
  362MOL0     H48864   1.356   3.298   6.608 -1.4205  0.8158 -0.2400
  362MOL0     H48865   1.361   3.173   6.741  0.0642  1.1987 -0.5068
  362MOL0     H48866   1.197   3.521   6.899 -0.7522 -2.1918  3.0331
  362MOL0     H48867   1.773   3.541   6.706  0.1823  2.0639  1.8133
  362MOL0     H48868   1.950   3.856   6.748 -0.4870 -1.9108  3.7526
  362MOL0     H48869   1.937   3.801   6.582 -1.2341 -1.1690 -0.7278
  362MOL0     H48870   1.801   3.763   6.688  0.7477 -2.2963 -0.3803
  363MOL0     O48871   1.689   2.472  10.612  0.1318 -0.1706 -0.1115
  363MOL0     C48872   1.647   2.394  10.529  0.4591 -0.4623 -1.3429
  363MOL0     O48873   1.511   2.384  10.490  0.1913  0.8447 -0.0472
  363MOL0     C48874   1.403   2.440  10.556  0.5061 -0.7664  0.5924
  363MOL0     C48875   1.395   2.551  10.639  0.5718 -0.9046 -0.0495
  363MOL0     C48876   1.275   2.603  10.690 -0.2216 -0.3349  0.7986
  363MOL0     C48877   1.150   2.550  10.652  0.2733  0.0407  0.5963
  363MOL0     O48878   1.040   2.611  10.715 -0.4561  0.5221 -0.5603
  363MOL0     C48879   0.910   2.591  10.659 -0.5432  0.0959  0.0883
  363MOL0     C48880   0.836   2.464  10.712  0.1674  0.0188 -0.1922
  363MOL0     C48881   0.799   2.489  10.857  0.4306  0.1615  0.1185
  363MOL0     C48882   0.694   2.391  10.918  0.3556 -0.0670  1.0157
  363MOL0     C48883   0.697   2.415  11.069  0.2488 -0.1584  0.4017
  363MOL0     C48884   0.810   2.363  11.148 -0.2563 -0.4382 -0.0324
  363MOL0     C48885   0.787   2.385  11.299 -0.1621  0.3787  1.6860
  363MOL0     C48886   0.900   2.327  11.381  0.8312  0.1471 -0.0908
  363MOL0     N48887   0.888   2.346  11.525  1.0078 -0.1671  1.0261
  363MOL0     C48888   0.979   2.325  11.628  0.3515  0.3090 -0.2005
  363MOL0     C48889   0.929   2.384  11.741 -0.0174  0.3088 -0.3763
  363MOL0     C48890   1.007   2.405  11.878  0.1323 -0.4279  0.7185
  363MOL0     C48891   0.943   2.346  12.001  0.6197  0.6298 -0.1821
  363MOL0     C48892   0.937   2.201  11.980  0.1353  0.1768 -0.0160
  363MOL0     C48893   0.864   2.149  12.105  0.3502 -0.2184  1.0083
  363MOL0     O48894   0.804   2.019  12.080  0.2825 -0.3225  0.2843
  363MOL0     C48895   0.878   1.914  12.105  0.2421  0.4860 -0.4509
  363MOL0     C48896   0.801   1.793  12.108  0.2517 -0.9751  0.3310
  363MOL0     C48897   0.853   1.674  12.102 -0.1234  0.1333  0.5110
  363MOL0     C48898   0.990   1.663  12.129 -0.6110 -0.4669 -1.6575
  363MOL0     C48899   1.026   1.530  12.186  0.0226 -0.6659 -0.3959
  363MOL0     O48900   0.962   1.430  12.125 -0.6793 -0.3444 -0.0210
  363MOL0     C48901   0.965   1.300  12.181  0.6014 -0.2079  1.1189
  363MOL0     C48902   0.853   1.221  12.153  1.1230  0.3771 -0.3752
  363MOL0     C48903   0.845   1.086  12.191 -1.0186  0.2291 -0.8105
  363MOL0     C48904   0.965   1.035  12.263 -0.0226  0.4032  1.0122
  363MOL0     O48905   0.966   0.908  12.311 -0.3298 -1.0135  0.6791
  363MOL0     C48906   0.838   0.851  12.351  0.6658  0.0703 -0.7197
  363MOL0     C48907   0.870   0.732  12.444  0.2267  0.4850 -0.3636
  363MOL0     C48908   0.962   0.763  12.571  0.3642 -0.3596 -0.0750
  363MOL0     C48909   0.917   0.893  12.648 -0.4686 -0.6146  0.1024
  363MOL0     C48910   0.770   0.883  12.707 -1.2323 -0.6623 -0.0758
  363MOL0     C48911   0.760   0.983  12.832  0.5264  0.8735 -0.2504
  363MOL0     C48912   0.618   0.982  12.892 -0.6625 -0.0413  0.4908
  363MOL0     C48913   0.604   1.044  13.025 -1.2696  0.2709  0.9984
  363MOL0    Cl48914   0.630   1.225  13.009 -0.1348  0.0111  0.1955
  363MOL0     C48915   1.078   1.118  12.280 -0.0586  0.4517  0.2606
  363MOL0     C48916   1.082   1.248  12.232 -0.2030  0.6983  0.7040
  363MOL0     O48917   1.106   1.524  12.278 -0.1600 -0.2162 -0.1934
  363MOL0     C48918   1.067   1.777  12.138 -0.1893  0.5079  0.3712
  363MOL0     C48919   1.016   1.907  12.115 -0.3765 -0.3380  0.2659
  363MOL0     N48920   0.794   2.395  11.717 -0.1243  0.3736  0.0312
  363MOL0     N48921   0.773   2.374  11.594  0.6629 -0.4280  0.2615
  363MOL0     C48922   1.151   2.436  10.571 -0.4261 -0.1656 -0.5309
  363MOL0     C48923   1.277   2.394  10.520  0.7408 -0.1923  0.3658
  363MOL0     C48924   1.736   2.323  10.442  1.1838 -0.1522 -0.0565
  363MOL0     C48925   1.679   2.207  10.385 -0.0469  0.3128 -0.4801
  363MOL0     C48926   1.754   2.113  10.307 -0.1598 -0.0096  0.0791
  363MOL0     C48927   1.895   2.132  10.297 -0.3303 -0.0563 -0.4465
  363MOL0     O48928   1.992   2.051  10.243 -0.0579 -0.3986  0.1292
  363MOL0     C48929   1.957   1.982  10.123 -0.3851 -0.2701 -0.6567
  363MOL0     C48930   2.078   1.899  10.095  0.3159  0.8897 -0.1019
  363MOL0     C48931   2.203   1.991  10.073 -0.1790  0.6652  0.3834
  363MOL0     C48932   2.294   1.940   9.970 -1.0665 -0.1607  0.1041
  363MOL0     C48933   2.328   1.799   9.994 -0.6689 -0.2299  0.6200
  363MOL0     C48934   2.374   1.690  10.008 -1.2593  0.4374  0.2143
  363MOL0     C48935   1.944   2.248  10.347 -0.2407 -0.0065 -0.2251
  363MOL0     C48936   1.873   2.341  10.418 -0.2798 -0.7846 -0.1512
  363MOL0     C48937   1.939   2.458  10.473 -0.1031  0.3293  0.1722
  363MOL0     H48938   1.491   2.595  10.664  0.9148 -2.3946  1.4333
  363MOL0     H48939   1.262   2.688  10.756  4.5101  2.0806 -0.9559
  363MOL0     H48940   0.844   2.674  10.686  0.4676 -0.3460  4.8701
  363MOL0     H48941   0.922   2.595  10.551  0.5324  5.3098  0.1452
  363MOL0     H48942   0.908   2.384  10.693  1.0730  0.6430  0.5034
  363MOL0     H48943   0.749   2.437  10.652 -0.6932  1.0840  0.5326
  363MOL0     H48944   0.776   2.594  10.875  0.2969  0.1304  0.1287
  363MOL0     H48945   0.897   2.473  10.903 -0.5351 -1.0377  1.8683
  363MOL0     H48946   0.595   2.402  10.872  1.3863  3.8601 -0.7105
  363MOL0     H48947   0.717   2.285  10.903  0.7344  0.2634 -1.1274
  363MOL0     H48948   0.677   2.521  11.090  2.0924  1.1876 -3.5769
  363MOL0     H48949   0.609   2.361  11.106  2.0585 -1.5335  2.9746
  363MOL0     H48950   0.818   2.255  11.131 -2.2993 -0.8432  1.2481
  363MOL0     H48951   0.905   2.411  11.122  0.3094  0.4785  3.2386
  363MOL0     H48952   0.690   2.342  11.326  1.1111 -3.8987  0.2573
  363MOL0     H48953   0.779   2.492  11.317  1.0734  0.4782  1.7589
  363MOL0     H48954   0.909   2.222  11.352 -1.9975  0.2202 -1.6041
  363MOL0     H48955   0.993   2.381  11.360  1.7154 -0.9737  0.8133
  363MOL0     H48956   1.085   2.306  11.617  1.1277  3.6876  0.4522
  363MOL0     H48957   1.110   2.370  11.877  0.1521 -0.3930  1.3495
  363MOL0     H48958   0.991   2.513  11.890 -0.1661  0.0046 -2.4854
  363MOL0     H48959   1.004   2.361  12.091 -0.4405  0.8019  0.5277
  363MOL0     H48960   0.852   2.397  12.033  1.1067 -0.8315  4.3562
  363MOL0     H48961   1.038   2.159  11.976  0.4985  0.7327  2.0074
  363MOL0     H48962   0.867   2.176  11.899  0.1477 -4.0357  1.0118
  363MOL0     H48963   0.785   2.214  12.142 -0.6727 -0.0534 -1.2888
  363MOL0     H48964   0.942   2.145  12.182  1.2142  3.8466  0.5287
  363MOL0     H48965   0.693   1.800  12.100  0.4623  0.6922 -1.8259
  363MOL0     H48966   0.781   1.594  12.097  0.6077 -0.6757  2.0767
  363MOL0     H48967   0.771   1.277  12.110  0.1844  0.6547  1.6589
  363MOL0     H48968   0.753   1.029  12.181 -1.2915  0.2733  1.1074
  363MOL0     H48969   0.777   0.919  12.412  1.6845 -0.8757  1.4791
  363MOL0     H48970   0.776   0.825  12.265  0.4544 -2.0113  0.0149
  363MOL0     H48971   0.771   0.722  12.488  0.4483 -2.3267 -0.3254
  363MOL0     H48972   0.911   0.641  12.400  2.5932  0.7980  0.9989
  363MOL0     H48973   0.958   0.679  12.642 -0.4843 -1.4544 -1.3628
  363MOL0     H48974   1.064   0.779  12.537  0.2089  3.4868  0.8079
  363MOL0     H48975   0.936   0.983  12.588  0.6153 -1.0850 -0.2923
  363MOL0     H48976   0.988   0.895  12.731  2.8237 -2.5759 -2.3910
  363MOL0     H48977   0.755   0.777  12.731 -1.0824 -0.2027  2.3795
  363MOL0     H48978   0.696   0.914  12.634 -0.8923 -2.0025 -1.0285
  363MOL0     H48979   0.838   0.948  12.900  0.1630 -2.0300 -1.1934
  363MOL0     H48980   0.783   1.085  12.800 -0.1353  1.6951  1.7431
  363MOL0     H48981   0.597   0.875  12.896 -0.9871 -0.0444 -0.9722
  363MOL0     H48982   0.539   1.023  12.829  0.2933  1.3256  0.1347
  363MOL0     H48983   0.513   1.024  13.083 -0.1870  1.2626  3.1830
  363MOL0     H48984   0.675   0.990  13.088 -0.4505 -2.1429 -1.8049
  363MOL0     H48985   1.176   1.096  12.322 -1.0148  1.4233  3.3014
  363MOL0     H48986   1.178   1.296  12.222  1.2657 -2.2025 -0.1837
  363MOL0     H48987   1.174   1.761  12.146  0.0984  2.3612  0.8858
  363MOL0     H48988   1.084   1.992  12.114  1.2667 -1.5916  0.9407
  363MOL0     H48989   1.058   2.389  10.539 -1.3257  0.5643  0.8721
  363MOL0     H48990   1.261   2.309  10.454 -2.0026 -1.2113  2.1312
  363MOL0     H48991   1.574   2.182  10.393 -0.0889  0.0910 -1.6496
  363MOL0     H48992   1.707   2.025  10.264 -0.2339  1.0228 -2.1189
  363MOL0     H48993   1.941   2.051  10.039 -4.0402  0.1021  0.1472
  363MOL0     H48994   1.865   1.922  10.125 -0.2035 -0.5784 -1.2487
  363MOL0     H48995   2.072   1.837  10.005 -0.7254 -1.5490  1.5280
  363MOL0     H48996   2.105   1.834  10.180  1.6529 -0.4074 -1.4419
  363MOL0     H48997   2.255   2.009  10.168 -1.9968  2.6246  1.0802
  363MOL0     H48998   2.169   2.092  10.049  1.4019  1.5653  1.7096
  363MOL0     H48999   2.261   1.950   9.867  4.3122  0.8679 -1.8694
  363MOL0     H49000   2.382   2.004   9.954  0.0311 -1.6065  0.0859
  363MOL0     H49001   2.426   1.597  10.006  2.8658  2.4127  2.6077
  363MOL0     H49002   2.049   2.267  10.330 -0.1191  0.4218  0.9202
  363MOL0     H49003   2.048   2.453  10.468  0.0121 -1.4258  2.6597
  363MOL0     H49004   1.917   2.533  10.396 -1.1034 -0.5389 -0.4205
  363MOL0     H49005   1.906   2.484  10.574 -0.5273 -1.1402  0.4270
  364MOL0     O49006  11.185   8.362   2.889  0.5257 -0.5644  0.5995
  364MOL0     C49007  11.163   8.482   2.929  0.6167  0.5638 -1.0570
  364MOL0     O49008  11.227   8.549   3.030  0.2018 -0.1016 -0.6532
  364MOL0     C49009  11.322   8.487   3.104 -0.2658 -0.4116  0.1746
  364MOL0     C49010  11.449   8.547   3.119 -0.7304 -0.4717 -0.0129
  364MOL0     C49011  11.558   8.484   3.188  1.2043  0.6018  0.1768
  364MOL0     C49012  11.531   8.361   3.265  0.5589 -0.6450  0.4463
  364MOL0     O49013  11.615   8.283   3.329  0.5151 -0.5210 -0.1835
  364MOL0     C49014  11.736   8.335   3.391  0.0379 -1.1910 -0.6962
  364MOL0     C49015  11.715   8.354   3.540 -1.1135  0.2068 -1.7154
  364MOL0     C49016  11.609   8.464   3.569  0.6274  0.2371 -0.6009
  364MOL0     C49017  11.564   8.472   3.711  0.3096  0.5159 -0.2172
  364MOL0     C49018  11.441   8.556   3.732  0.0803 -0.1525  0.4859
  364MOL0     C49019  11.483   8.706   3.753  0.0047  0.2748 -0.0286
  364MOL0     C49020  11.554   8.734   3.892 -0.0394  0.8408 -0.0586
  364MOL0     C49021  11.654   8.853   3.898 -0.8375  0.1100  0.0195
  364MOL0     N49022  11.610   8.982   3.856 -0.5790 -0.7886 -0.3131
  364MOL0     C49023  11.486   9.038   3.838  0.1628  0.2832 -0.7432
  364MOL0     C49024  11.503   9.160   3.778  0.8621 -0.3506 -0.4410
  364MOL0     C49025  11.397   9.268   3.773 -0.5725  0.9567  0.4540
  364MOL0     C49026  11.449   9.399   3.836  0.7557  0.6525 -0.2106
  364MOL0     C49027  11.529   9.488   3.736  0.3127  0.2846 -0.1879
  364MOL0     C49028  11.454   9.518   3.612  0.6994 -0.0445 -0.1240
  364MOL0     O49029  11.531   9.625   3.550 -0.1366 -0.0959 -0.5131
  364MOL0     C49030  11.495   9.638   3.424 -0.0737 -0.5145 -0.9570
  364MOL0     C49031  11.579   9.583   3.332  0.4148 -0.0586 -0.0147
  364MOL0     C49032  11.539   9.575   3.190 -0.0944  0.3992  0.1347
  364MOL0     C49033  11.414   9.633   3.150 -0.6839  0.1056  0.7709
  364MOL0     C49034  11.387   9.645   3.007  0.5549 -0.2827  0.8626
  364MOL0     O49035  11.257   9.676   2.983 -0.2882 -0.9636 -0.4307
  364MOL0     C49036  11.218   9.691   2.855 -0.4600 -0.3371  0.8002
  364MOL0     C49037  11.219   9.825   2.798  0.9813 -0.2595 -0.4278
  364MOL0     C49038  11.192   9.843   2.664 -0.0905 -0.6367  0.3663
  364MOL0     C49039  11.163   9.734   2.582  0.0119 -0.5982  0.1264
  364MOL0     O49040  11.123   9.759   2.454 -0.3262 -0.6312 -0.4591
  364MOL0     C49041  11.074   9.656   2.365  0.5410  0.7150 -0.2063
  364MOL0     C49042  11.012   9.723   2.253  0.1640 -0.3679 -0.9426
  364MOL0     C49043  10.956   9.626   2.146 -0.9626 -0.6096 -0.2584
  364MOL0     C49044  10.888   9.697   2.031 -0.0070  0.0702  0.0193
  364MOL0     C49045  10.820   9.581   1.951  0.7664  0.4854  0.4812
  364MOL0     C49046  10.708   9.624   1.862 -0.8157 -0.6191 -0.4133
  364MOL0     C49047  10.575   9.649   1.931 -0.3359  0.2269 -0.7585
  364MOL0     C49048  10.468   9.677   1.819 -0.6445  1.2584 -0.7277
  364MOL0    Cl49049  10.498   9.835   1.756 -0.3790  0.1218 -0.1677
  364MOL0     C49050  11.150   9.606   2.642  1.1169  0.0279  0.4919
  364MOL0     C49051  11.178   9.590   2.775  0.2821  1.8719  0.1676
  364MOL0     O49052  11.471   9.613   2.921  0.3445 -0.1358  0.4888
  364MOL0     C49053  11.335   9.695   3.255 -0.6185 -0.2093  0.2386
  364MOL0     C49054  11.370   9.691   3.392  0.2484 -0.7763  0.0428
  364MOL0     N49055  11.637   9.175   3.753  1.0372 -0.2037  0.6033
  364MOL0     N49056  11.697   9.079   3.814  0.3383  0.1529  1.1401
  364MOL0     C49057  11.401   8.308   3.249 -0.2212 -0.4205  0.3336
  364MOL0     C49058  11.297   8.368   3.171  0.1520 -0.8967  0.4495
  364MOL0     C49059  11.062   8.560   2.857 -0.0040  0.1605 -0.6169
  364MOL0     C49060  11.107   8.672   2.792  0.1432 -0.3339 -0.6189
  364MOL0     C49061  11.014   8.753   2.724  0.3985 -0.3198 -0.1211
  364MOL0     C49062  10.876   8.730   2.734  0.5819 -0.0133 -0.5690
  364MOL0     O49063  10.777   8.806   2.669 -0.2808  0.4080 -0.7133
  364MOL0     C49064  10.807   8.906   2.571 -0.1925  1.0871 -0.0707
  364MOL0     C49065  10.674   8.979   2.520 -0.9537 -0.0608  0.6275
  364MOL0     C49066  10.567   9.018   2.623 -0.3245 -0.1619 -0.5010
  364MOL0     C49067  10.477   9.146   2.582 -0.1787 -0.5384 -0.0373
  364MOL0     C49068  10.413   9.134   2.456  1.1125  0.1754  0.1157
  364MOL0     C49069  10.351   9.126   2.349  0.1847 -0.4217  0.2233
  364MOL0     C49070  10.832   8.618   2.807 -0.4675 -0.3381  0.8021
  364MOL0     C49071  10.924   8.531   2.867  0.6922  0.4094  0.0307
  364MOL0     C49072  10.863   8.424   2.957 -0.2006 -0.0473  0.1355
  364MOL0     H49073  11.467   8.647   3.081  0.2846 -0.8011 -0.4330
  364MOL0     H49074  11.654   8.533   3.176  1.0015  1.1166  0.6468
  364MOL0     H49075  11.823   8.270   3.379  0.8203 -0.2729 -0.0826
  364MOL0     H49076  11.770   8.433   3.356 -0.8718  0.0269  1.5901
  364MOL0     H49077  11.816   8.371   3.578 -1.2522  0.3570 -1.4144
  364MOL0     H49078  11.691   8.258   3.588  1.9048  0.0201 -0.3817
  364MOL0     H49079  11.521   8.437   3.509 -0.8542 -2.0741  2.3259
  364MOL0     H49080  11.641   8.563   3.537 -2.2154  1.2276 -0.6298
  364MOL0     H49081  11.543   8.367   3.735  0.2250  0.7038  0.5632
  364MOL0     H49082  11.650   8.499   3.773  1.2319 -0.9532 -0.7887
  364MOL0     H49083  11.360   8.551   3.659  0.0531  0.3844  0.4782
  364MOL0     H49084  11.393   8.523   3.825 -0.8334  3.1949  1.3363
  364MOL0     H49085  11.550   8.742   3.675 -1.8199  2.6451 -0.6121
  364MOL0     H49086  11.397   8.773   3.751 -0.8056 -0.5096  2.9567
  364MOL0     H49087  11.604   8.640   3.919  1.4739  1.8044  0.6136
  364MOL0     H49088  11.478   8.742   3.970 -0.7246 -2.1806 -0.2930
  364MOL0     H49089  11.686   8.872   4.001  1.3915  3.3517 -1.1085
  364MOL0     H49090  11.747   8.833   3.844  0.4283  2.1193  1.3111
  364MOL0     H49091  11.396   8.990   3.874  0.1836  0.5953 -0.2637
  364MOL0     H49092  11.363   9.292   3.672 -2.2053  1.4164  1.0717
  364MOL0     H49093  11.310   9.248   3.838 -0.2609  1.2191  0.9619
  364MOL0     H49094  11.358   9.454   3.863  0.1061 -0.2539 -0.5180
  364MOL0     H49095  11.512   9.382   3.924  3.6974 -1.9847 -2.5835
  364MOL0     H49096  11.616   9.429   3.704  0.0473 -1.3803  1.9679
  364MOL0     H49097  11.555   9.579   3.789 -0.3548  0.2773  0.1715
  364MOL0     H49098  11.352   9.551   3.635  1.3399  0.2003  2.7148
  364MOL0     H49099  11.450   9.443   3.533  0.0833  2.4341 -2.6144
  364MOL0     H49100  11.679   9.548   3.358 -0.2557 -0.7837  1.7818
  364MOL0     H49101  11.608   9.523   3.125 -2.2315  0.6519 -2.5330
  364MOL0     H49102  11.245   9.906   2.865 -1.0771 -1.3620  1.8413
  364MOL0     H49103  11.186   9.945   2.628 -1.9859 -0.6644  0.5086
  364MOL0     H49104  11.150   9.593   2.317 -1.4930 -0.9002 -1.4846
  364MOL0     H49105  10.994   9.601   2.416 -0.1336 -0.6549 -2.5751
  364MOL0     H49106  10.928   9.781   2.293  2.5414  2.3867  0.4309
  364MOL0     H49107  11.081   9.795   2.208  3.0180  0.0068  3.4638
  364MOL0     H49108  11.038   9.561   2.116 -1.1294  0.2654 -2.8528
  364MOL0     H49109  10.868   9.577   2.189 -0.9961  0.3772  0.8661
  364MOL0     H49110  10.954   9.764   1.975  0.5071 -0.6356 -0.2297
  364MOL0     H49111  10.808   9.762   2.068 -1.2123 -0.7665 -1.0299
  364MOL0     H49112  10.788   9.501   2.018 -1.3235  1.1268  0.3192
  364MOL0     H49113  10.888   9.536   1.879  2.6318  4.4747 -0.5236
  364MOL0     H49114  10.739   9.704   1.795 -2.2166  1.7248  1.5875
  364MOL0     H49115  10.697   9.532   1.804 -2.1521 -1.1868  0.6756
  364MOL0     H49116  10.570   9.742   1.989 -3.1871 -1.3981  1.8285
  364MOL0     H49117  10.551   9.565   1.997  0.5397  0.4079 -0.1946
  364MOL0     H49118  10.483   9.617   1.729  0.5899  1.3869 -0.6226
  364MOL0     H49119  10.369   9.684   1.865  1.0197  2.6126  3.1279
  364MOL0     H49120  11.120   9.517   2.587  1.6294  0.1540 -0.0053
  364MOL0     H49121  11.171   9.484   2.799 -0.8557  2.1308  1.0250
  364MOL0     H49122  11.233   9.727   3.234 -0.5762 -1.5546 -2.5894
  364MOL0     H49123  11.312   9.735   3.472 -1.0525 -3.2570  0.5747
  364MOL0     H49124  11.381   8.207   3.284 -3.0770  1.1858  4.0203
  364MOL0     H49125  11.199   8.322   3.158  0.5554 -1.8096  0.6207
  364MOL0     H49126  11.213   8.692   2.802  0.3084  0.5149 -3.2745
  364MOL0     H49127  11.041   8.844   2.671 -2.4448 -0.5162 -2.1135
  364MOL0     H49128  10.846   8.850   2.485  0.8804 -0.7539  1.5354
  364MOL0     H49129  10.886   8.977   2.598 -1.7870  2.3059  1.6433
  364MOL0     H49130  10.624   8.906   2.456  0.3206 -2.0384  1.7903
  364MOL0     H49131  10.691   9.072   2.465 -1.6967  0.7103  1.6692
  364MOL0     H49132  10.616   9.037   2.719 -0.8111  0.5621 -0.3874
  364MOL0     H49133  10.494   8.938   2.638 -3.2545  2.3011 -0.5277
  364MOL0     H49134  10.401   9.150   2.661  1.1280 -6.0493  1.9690
  364MOL0     H49135  10.551   9.226   2.570 -0.6498  0.3908  2.5206
  364MOL0     H49136  10.296   9.121   2.258  0.3686 -2.3207  0.1769
  364MOL0     H49137  10.724   8.610   2.812 -0.6229  0.3871 -0.6996
  364MOL0     H49138  10.774   8.464   3.006 -1.2942  0.6664 -2.3241
  364MOL0     H49139  10.840   8.342   2.889 -0.6189 -1.7326  2.1787
  364MOL0     H49140  10.932   8.386   3.034 -1.9311 -2.2027  0.7227
  365MOL0     O49141   2.261   6.161   7.128 -0.1738  0.3083 -0.0009
  365MOL0     C49142   2.357   6.081   7.116 -0.5097  0.0863 -0.3394
  365MOL0     O49143   2.484   6.087   7.176  0.1260 -0.6371 -0.5113
  365MOL0     C49144   2.521   6.211   7.218 -0.8380  0.8719  0.4936
  365MOL0     C49145   2.542   6.224   7.356  0.6392 -0.9975 -1.2065
  365MOL0     C49146   2.604   6.336   7.404 -0.0136 -0.0342  0.1994
  365MOL0     C49147   2.636   6.438   7.317 -0.3541  0.5558 -0.4898
  365MOL0     O49148   2.715   6.546   7.365 -0.3705  0.5033  0.0463
  365MOL0     C49149   2.664   6.678   7.343  0.5185  0.1419  0.6153
  365MOL0     C49150   2.639   6.745   7.471 -0.2275  0.7450  0.2967
  365MOL0     C49151   2.537   6.858   7.459 -0.4099  0.1162 -0.9297
  365MOL0     C49152   2.493   6.907   7.594  0.1217 -0.5503  0.1568
  365MOL0     C49153   2.395   7.018   7.569  0.6071 -0.4272 -0.3620
  365MOL0     C49154   2.338   7.076   7.702  0.2310 -0.3868 -0.0854
  365MOL0     C49155   2.447   7.148   7.779  0.7568  0.4551 -0.0807
  365MOL0     C49156   2.403   7.210   7.902  0.6103 -0.6557  0.0938
  365MOL0     N49157   2.386   7.111   8.015  0.0788 -0.3125  0.6839
  365MOL0     C49158   2.483   7.061   8.102 -0.5023  0.4781 -0.2823
  365MOL0     C49159   2.418   6.972   8.178  0.2862 -0.3660 -0.6914
  365MOL0     C49160   2.485   6.905   8.297 -0.1217 -0.4163  0.1348
  365MOL0     C49161   2.447   6.969   8.435 -0.2311  0.9900  0.1483
  365MOL0     C49162   2.519   6.899   8.546  0.1960 -1.0792 -0.3198
  365MOL0     C49163   2.487   6.949   8.680 -0.0605 -0.3996 -0.7896
  365MOL0     O49164   2.519   6.853   8.791 -0.5209 -0.6451  0.8132
  365MOL0     C49165   2.604   6.897   8.886  0.0901  0.4076 -0.0432
  365MOL0     C49166   2.679   6.796   8.949 -0.6669  0.1980 -0.7176
  365MOL0     C49167   2.769   6.823   9.048  0.0739  0.0569  0.1729
  365MOL0     C49168   2.794   6.957   9.079  0.3669  1.0087  0.8436
  365MOL0     C49169   2.894   6.983   9.181 -0.1344 -1.5214  0.8614
  365MOL0     O49170   2.965   6.878   9.235  0.1020 -0.8605  0.4039
  365MOL0     C49171   3.068   6.905   9.330  0.3907  1.1177  0.8719
  365MOL0     C49172   3.045   6.859   9.460 -1.3390  0.6823 -0.1085
  365MOL0     C49173   3.145   6.885   9.557 -0.0424 -0.3811 -0.3970
  365MOL0     C49174   3.257   6.960   9.530  0.6392 -0.2045  0.1015
  365MOL0     O49175   3.352   6.986   9.619 -0.6938 -0.5871 -0.5971
  365MOL0     C49176   3.318   7.027   9.752 -0.3280  0.2297  1.4190
  365MOL0     C49177   3.372   7.157   9.787  0.1352 -0.9242  0.3644
  365MOL0     C49178   3.294   7.231   9.895 -0.1032 -0.5073  0.3691
  365MOL0     C49179   3.359   7.197  10.037 -0.4077 -0.5476 -0.1716
  365MOL0     C49180   3.271   7.237  10.156  0.4452  0.0330 -0.4910
  365MOL0     C49181   3.239   7.387  10.157 -0.5260  0.8987  0.1784
  365MOL0     C49182   3.249   7.448  10.298 -0.5894  0.7504 -0.7599
  365MOL0     C49183   3.200   7.599  10.290 -0.3119  0.2399  0.5171
  365MOL0    Cl49184   3.207   7.666  10.458  0.2476  0.2291  0.2932
  365MOL0     C49185   3.276   7.005   9.400 -0.1825  0.1064  0.7636
  365MOL0     C49186   3.178   6.987   9.302 -0.3448  0.0681  0.3912
  365MOL0     O49187   2.901   7.101   9.219 -0.2660 -0.4709  0.1288
  365MOL0     C49188   2.722   7.067   9.019 -0.5137 -0.0863 -0.9145
  365MOL0     C49189   2.620   7.032   8.930  0.5485  0.6572 -0.4601
  365MOL0     N49190   2.283   6.967   8.142 -0.3760 -0.1110 -0.5434
  365MOL0     N49191   2.268   7.051   8.046 -0.6597 -0.5278  0.1198
  365MOL0     C49192   2.584   6.432   7.188  0.6840 -0.4659  0.0756
  365MOL0     C49193   2.524   6.321   7.133  0.4176  1.3102 -0.4251
  365MOL0     C49194   2.344   5.971   7.014  0.5841 -0.5846  0.3003
  365MOL0     C49195   2.439   5.873   7.022 -0.1510  0.0286 -0.0655
  365MOL0     C49196   2.452   5.780   6.919  0.7565 -0.4316  0.5061
  365MOL0     C49197   2.361   5.775   6.814  0.0421 -1.0202 -0.3276
  365MOL0     O49198   2.365   5.670   6.725 -0.9391  0.0617  0.1005
  365MOL0     C49199   2.241   5.610   6.688 -0.3751 -0.8641 -0.6916
  365MOL0     C49200   2.248   5.460   6.690  0.2952 -0.0418  0.1486
  365MOL0     C49201   2.112   5.400   6.652 -0.3635 -0.2097 -0.1150
  365MOL0     C49202   2.096   5.418   6.511  0.3141 -0.0747  0.4153
  365MOL0     C49203   1.983   5.347   6.442 -0.6305 -0.0902 -0.1121
  365MOL0     C49204   1.902   5.290   6.383  0.7753 -0.7536  0.3225
  365MOL0     C49205   2.257   5.870   6.812  0.6977  0.6081 -0.1004
  365MOL0     C49206   2.256   5.973   6.905 -0.0457 -0.4418  0.7880
  365MOL0     C49207   2.144   6.076   6.884 -0.2897  0.1366  0.3895
  365MOL0     H49208   2.519   6.145   7.427  0.6634  0.0800  0.0404
  365MOL0     H49209   2.626   6.349   7.510 -1.2148  1.7447  0.2792
  365MOL0     H49210   2.721   6.750   7.283  0.0293  1.6242  1.8776
  365MOL0     H49211   2.568   6.664   7.292  1.9112  1.3687 -2.6659
  365MOL0     H49212   2.735   6.784   7.504 -0.0957  4.0787 -3.3618
  365MOL0     H49213   2.593   6.668   7.534 -2.2859  1.7516  0.1186
  365MOL0     H49214   2.447   6.838   7.399 -0.6599 -0.4150 -0.3858
  365MOL0     H49215   2.589   6.944   7.416  1.3398 -0.2433  0.3623
  365MOL0     H49216   2.438   6.831   7.649 -2.0439  0.6928 -0.1680
  365MOL0     H49217   2.581   6.935   7.653  0.8168 -3.1259  0.4605
  365MOL0     H49218   2.447   7.099   7.517 -1.3077  0.5442 -0.8572
  365MOL0     H49219   2.311   6.970   7.519  2.2143 -4.4391  0.4521
  365MOL0     H49220   2.261   7.151   7.680 -0.7885 -1.3713  0.0337
  365MOL0     H49221   2.300   6.996   7.766 -0.2576 -0.8826 -0.9754
  365MOL0     H49222   2.492   7.219   7.708  0.1116 -0.2272 -1.2059
  365MOL0     H49223   2.513   7.066   7.808 -4.9354 -5.0182 -0.2578
  365MOL0     H49224   2.474   7.283   7.942  1.0578 -0.8428 -0.3526
  365MOL0     H49225   2.309   7.265   7.887  0.6429 -1.1958 -2.5686
  365MOL0     H49226   2.589   7.084   8.106 -0.7014  1.8627 -1.7603
  365MOL0     H49227   2.459   6.799   8.300  1.9373 -1.0261 -1.4786
  365MOL0     H49228   2.594   6.906   8.284 -0.1969 -1.0050 -0.5758
  365MOL0     H49229   2.490   7.069   8.432  2.2950 -0.0378 -0.2086
  365MOL0     H49230   2.337   6.963   8.435 -0.6697  2.6517 -5.6080
  365MOL0     H49231   2.626   6.904   8.525 -0.1716  0.2203 -2.1508
  365MOL0     H49232   2.490   6.794   8.540 -1.8992 -0.5827  0.2169
  365MOL0     H49233   2.379   6.965   8.686  0.1776  0.7528  0.9554
  365MOL0     H49234   2.534   7.046   8.698 -3.0684  0.8465  0.9262
  365MOL0     H49235   2.670   6.695   8.910  0.7640 -0.0226 -0.5651
  365MOL0     H49236   2.830   6.740   9.082 -0.6572  0.5570  3.0022
  365MOL0     H49237   2.968   6.788   9.490  0.5056 -0.3384  2.5109
  365MOL0     H49238   3.140   6.851   9.659 -0.5355 -3.2141 -1.2730
  365MOL0     H49239   3.210   7.019   9.763 -0.4328 -0.9596 -0.1196
  365MOL0     H49240   3.374   6.963   9.822  2.4616  1.1926  0.2394
  365MOL0     H49241   3.480   7.166   9.800  0.7438  4.5594 -4.3051
  365MOL0     H49242   3.369   7.219   9.697  2.9812 -3.5948 -1.8211
  365MOL0     H49243   3.297   7.337   9.870  2.7546 -0.6347 -0.1521
  365MOL0     H49244   3.191   7.194   9.899  0.4609 -2.0610  1.7866
  365MOL0     H49245   3.459   7.239  10.051 -1.3957  1.5416  1.0592
  365MOL0     H49246   3.371   7.089  10.033  1.2424 -0.3576 -2.7721
  365MOL0     H49247   3.310   7.203  10.253 -0.6275 -2.9126 -0.9876
  365MOL0     H49248   3.183   7.171  10.152  0.8600 -0.7397  1.5475
  365MOL0     H49249   3.308   7.445  10.094 -0.4409  3.2709  2.2759
  365MOL0     H49250   3.136   7.390  10.119 -1.0283 -3.9626  0.6062
  365MOL0     H49251   3.351   7.451  10.338  0.1746 -1.8774 -2.3250
  365MOL0     H49252   3.190   7.403  10.378  0.7320  2.2430  1.1670
  365MOL0     H49253   3.246   7.663  10.215 -2.2894 -0.5728 -1.5110
  365MOL0     H49254   3.098   7.579  10.256  0.0946 -3.2691  1.0015
  365MOL0     H49255   3.363   7.060   9.365 -0.0655  1.0085  2.3938
  365MOL0     H49256   3.203   7.025   9.204  0.7314  1.3833  1.1401
  365MOL0     H49257   2.731   7.168   9.059 -1.4211 -0.4801  0.3711
  365MOL0     H49258   2.566   7.119   8.893  2.8343  3.4632  2.2825
  365MOL0     H49259   2.600   6.519   7.125  5.5629  0.1205  1.6912
  365MOL0     H49260   2.478   6.322   7.034 -0.3010  1.5206 -0.0970
  365MOL0     H49261   2.516   5.865   7.099 -1.1907 -1.4674  0.8581
  365MOL0     H49262   2.527   5.702   6.930  2.5177  1.1238  0.0791
  365MOL0     H49263   2.221   5.646   6.587 -0.4691 -0.6218 -0.5887
  365MOL0     H49264   2.170   5.646   6.763  3.4984 -2.7111  4.4977
  365MOL0     H49265   2.272   5.429   6.792  0.2049  1.5815  0.6836
  365MOL0     H49266   2.325   5.408   6.632 -0.0672 -1.7197  1.0909
  365MOL0     H49267   2.033   5.439   6.717  0.0377  0.9070 -0.2685
  365MOL0     H49268   2.120   5.291   6.658 -1.5979 -0.6617 -3.7102
  365MOL0     H49269   2.078   5.523   6.490 -2.0089 -0.7823 -1.6458
  365MOL0     H49270   2.190   5.399   6.459  0.2978  0.2313  0.2717
  365MOL0     H49271   1.829   5.215   6.360  1.2705 -0.8372 -1.0374
  365MOL0     H49272   2.186   5.862   6.730  2.2798 -1.6964 -1.3643
  365MOL0     H49273   2.088   6.081   6.978  1.0731 -0.2733  1.2736
  365MOL0     H49274   2.182   6.171   6.846 -2.2631  1.5386  1.7299
  365MOL0     H49275   2.065   6.047   6.814  1.9759 -2.1751 -1.4139
  366MOL0     O49276   8.983   5.010   5.249 -0.5813 -0.4552  0.1028
  366MOL0     C49277   9.031   4.990   5.137 -0.3072  0.1308  0.0359
  366MOL0     O49278   9.149   5.046   5.093 -0.8268 -0.5380 -0.0370
  366MOL0     C49279   9.225   5.115   5.186 -0.4173 -0.8692 -0.2775
  366MOL0     C49280   9.304   5.038   5.261  0.0244  0.8962 -0.3200
  366MOL0     C49281   9.385   5.093   5.361  0.4363 -0.0846 -0.1557
  366MOL0     C49282   9.387   5.228   5.380 -0.3038 -0.3404  0.3789
  366MOL0     O49283   9.466   5.289   5.475 -0.0494  0.4766  0.2872
  366MOL0     C49284   9.556   5.385   5.417  0.0427  0.0175  1.1580
  366MOL0     C49285   9.693   5.386   5.481  0.0109 -0.2106  0.1486
  366MOL0     C49286   9.734   5.240   5.485 -0.5336  0.5522 -0.6268
  366MOL0     C49287   9.750   5.190   5.634  0.4549  0.0012  0.0436
  366MOL0     C49288   9.774   5.042   5.640 -0.4534  0.3056  0.5468
  366MOL0     C49289   9.761   4.991   5.785  1.5346  0.8001  0.1428
  366MOL0     C49290   9.714   4.843   5.792  0.0041  0.5907 -0.6382
  366MOL0     C49291   9.839   4.740   5.768  0.0900  0.6546  0.1026
  366MOL0     N49292   9.788   4.599   5.774  1.0436 -0.9490  0.2052
  366MOL0     C49293   9.831   4.495   5.858  0.7066 -0.5801 -1.1471
  366MOL0     C49294   9.756   4.388   5.823  0.1719 -0.5609 -0.5748
  366MOL0     C49295   9.768   4.245   5.882  0.4146 -0.4193 -0.3375
  366MOL0     C49296   9.644   4.214   5.977 -0.4683 -0.3360  1.1406
  366MOL0     C49297   9.662   4.306   6.100  0.6038 -0.2047 -0.0767
  366MOL0     C49298   9.538   4.295   6.206 -0.6152  0.0417  0.5868
  366MOL0     O49299   9.603   4.330   6.336  0.7193  0.1182 -0.1568
  366MOL0     C49300   9.647   4.456   6.362  0.8725 -0.2295  0.3089
  366MOL0     C49301   9.717   4.465   6.482  0.2246 -0.4405 -0.1891
  366MOL0     C49302   9.761   4.594   6.523 -0.1510  0.0824  0.2433
  366MOL0     C49303   9.760   4.706   6.434  0.2740  0.0242 -0.7814
  366MOL0     C49304   9.791   4.840   6.497  0.1522 -0.5012  1.5298
  366MOL0     O49305   9.885   4.864   6.594  0.2195  0.2011  0.5139
  366MOL0     C49306   9.909   4.989   6.659  0.4469 -0.3519  0.2688
  366MOL0     C49307  10.035   5.015   6.705  0.0907 -0.0035  0.6883
  366MOL0     C49308  10.071   5.133   6.768 -0.2623 -0.4809  0.6467
  366MOL0     C49309   9.977   5.233   6.795  0.2798 -0.4972 -1.1121
  366MOL0     O49310  10.000   5.345   6.869  0.2605 -0.1601 -0.7335
  366MOL0     C49311  10.127   5.342   6.943 -0.1699 -0.2436 -0.7187
  366MOL0     C49312  10.128   5.460   7.045  0.2179  0.3365  0.6059
  366MOL0     C49313   9.996   5.485   7.123  0.5973 -0.1811 -0.3044
  366MOL0     C49314  10.010   5.568   7.253 -1.1204 -0.1932 -0.5238
  366MOL0     C49315   9.880   5.582   7.334 -0.9897  0.5898 -1.0417
  366MOL0     C49316   9.817   5.715   7.292  0.7200  0.1278 -0.3896
  366MOL0     C49317   9.673   5.733   7.341  0.2188 -0.2609  0.1294
  366MOL0     C49318   9.628   5.875   7.334  0.4559 -0.7097 -1.0260
  366MOL0    Cl49319   9.588   5.928   7.173  0.5244  0.1746 -0.2815
  366MOL0     C49320   9.848   5.212   6.745  0.0172  0.3265 -0.2636
  366MOL0     C49321   9.808   5.092   6.685 -0.3702 -0.8078 -0.7183
  366MOL0     O49322   9.717   4.930   6.452 -0.3002  0.4231  1.0923
  366MOL0     C49323   9.698   4.691   6.309  0.0867 -0.3790  0.5163
  366MOL0     C49324   9.626   4.576   6.276 -0.5560  0.7466  0.1744
  366MOL0     N49325   9.662   4.429   5.731 -0.2946  0.2041  0.6008
  366MOL0     N49326   9.683   4.558   5.704  0.1768  0.1851 -0.0541
  366MOL0     C49327   9.307   5.310   5.293 -0.1892 -0.1713  0.2169
  366MOL0     C49328   9.220   5.247   5.201 -0.3039 -0.4781 -0.0663
  366MOL0     C49329   8.957   4.907   5.037 -0.1204  0.8505  0.3492
  366MOL0     C49330   9.036   4.849   4.934  0.7038  0.2698  0.0593
  366MOL0     C49331   8.966   4.761   4.843 -0.2104  0.5827  0.1302
  366MOL0     C49332   8.829   4.732   4.852  0.2999 -1.3042 -0.6198
  366MOL0     O49333   8.769   4.655   4.756 -0.0520  0.3096  0.1639
  366MOL0     C49334   8.836   4.643   4.630  0.3286 -0.7748  0.6574
  366MOL0     C49335   8.727   4.600   4.527  0.3248 -0.6318  0.0646
  366MOL0     C49336   8.745   4.660   4.389 -0.0358 -0.1584  0.0758
  366MOL0     C49337   8.648   4.610   4.285  0.5101  0.1377  0.0993
  366MOL0     C49338   8.712   4.611   4.156 -0.5999 -0.6126  0.0929
  366MOL0     C49339   8.773   4.599   4.049  1.0519 -0.2837 -0.2859
  366MOL0     C49340   8.759   4.784   4.951 -0.0769  1.0812  0.0778
  366MOL0     C49341   8.811   4.878   5.034  0.3742 -0.4498  1.6572
  366MOL0     C49342   8.717   4.932   5.135  0.3363  0.0043  0.0336
  366MOL0     H49343   9.310   4.933   5.235 -4.1493  0.2679  0.6760
  366MOL0     H49344   9.453   5.030   5.418 -0.4481 -0.7793  0.1689
  366MOL0     H49345   9.574   5.353   5.314  4.3263 -0.0207  1.7276
  366MOL0     H49346   9.511   5.484   5.421  0.4878  0.2772  0.0382
  366MOL0     H49347   9.684   5.423   5.583 -0.9687 -0.2486  0.0836
  366MOL0     H49348   9.769   5.453   5.440 -1.2059  0.9450 -0.2843
  366MOL0     H49349   9.833   5.241   5.439 -0.1273  2.8408  0.1804
  366MOL0     H49350   9.675   5.174   5.421  2.3302  1.0150 -4.0722
  366MOL0     H49351   9.825   5.241   5.695 -0.1303 -0.4021  1.1274
  366MOL0     H49352   9.652   5.195   5.684  0.2981  0.0347 -0.2660
  366MOL0     H49353   9.702   4.990   5.575  0.0200 -2.6250  2.1750
  366MOL0     H49354   9.872   5.028   5.593 -1.0396  0.1879 -0.6849
  366MOL0     H49355   9.845   5.018   5.850  0.2857 -1.4668  2.8805
  366MOL0     H49356   9.671   5.042   5.819 -0.3895 -0.7511 -2.2686
  366MOL0     H49357   9.631   4.827   5.721  1.1659  2.1789 -2.4818
  366MOL0     H49358   9.673   4.840   5.893  0.2159  2.4079 -0.4619
  366MOL0     H49359   9.891   4.759   5.674  2.5225 -1.5214  0.9049
  366MOL0     H49360   9.922   4.768   5.833 -0.1433  1.0071  0.2524
  366MOL0     H49361   9.895   4.510   5.944 -2.3942  1.1817  1.0920
  366MOL0     H49362   9.770   4.162   5.811 -0.9926 -0.4739 -0.3392
  366MOL0     H49363   9.863   4.230   5.935 -2.2771 -1.0904  5.0059
  366MOL0     H49364   9.553   4.235   5.920 -0.7820 -3.9524  0.0481
  366MOL0     H49365   9.641   4.109   6.006  0.6750 -0.5508  0.5191
  366MOL0     H49366   9.668   4.407   6.061  0.1973  1.3023  3.3723
  366MOL0     H49367   9.756   4.277   6.148  0.3906  1.2457  1.2994
  366MOL0     H49368   9.527   4.186   6.208 -0.8598  0.0776  2.3937
  366MOL0     H49369   9.448   4.356   6.198  0.4108  1.3979 -1.5396
  366MOL0     H49370   9.728   4.384   6.554 -1.4987 -0.4505  0.0927
  366MOL0     H49371   9.808   4.610   6.620  0.0942 -0.8637  0.2921
  366MOL0     H49372  10.112   4.942   6.684  0.0778  0.8396 -2.9686
  366MOL0     H49373  10.173   5.130   6.805 -0.3302  2.8235  1.4391
  366MOL0     H49374  10.145   5.256   7.007  2.7725 -0.7118 -2.0194
  366MOL0     H49375  10.211   5.357   6.875 -0.6466 -3.1195 -2.0690
  366MOL0     H49376  10.202   5.451   7.125 -1.4167 -1.3534  2.0434
  366MOL0     H49377  10.155   5.553   6.994  1.4564  0.3871  1.3326
  366MOL0     H49378   9.924   5.533   7.056  1.3282  1.5031  0.0766
  366MOL0     H49379   9.950   5.386   7.133  1.4117 -0.4492  1.0073
  366MOL0     H49380  10.054   5.662   7.217 -1.8127  1.5971  2.8526
  366MOL0     H49381  10.087   5.524   7.317  1.0053  1.8614 -1.4971
  366MOL0     H49382   9.910   5.581   7.439  1.4650 -2.2868 -1.6317
  366MOL0     H49383   9.811   5.497   7.323  1.5598 -1.4101 -2.5182
  366MOL0     H49384   9.881   5.797   7.325  0.4118  0.2209 -0.0119
  366MOL0     H49385   9.812   5.713   7.182  0.0589 -2.6380 -0.3687
  366MOL0     H49386   9.681   5.704   7.447 -0.4904 -1.6371 -0.1768
  366MOL0     H49387   9.595   5.670   7.296 -2.5885  1.1983  2.6086
  366MOL0     H49388   9.541   5.902   7.394 -0.9702 -0.7396 -2.9673
  366MOL0     H49389   9.719   5.933   7.354  0.8282 -0.4361 -3.2344
  366MOL0     H49390   9.772   5.289   6.754 -0.7735 -0.5085  0.5021
  366MOL0     H49391   9.711   5.085   6.637 -0.0329  0.9845 -1.7542
  366MOL0     H49392   9.691   4.774   6.239  0.2166 -1.4718 -0.8348
  366MOL0     H49393   9.585   4.582   6.176  1.8475 -0.4521 -0.9780
  366MOL0     H49394   9.312   5.417   5.306 -1.7435 -0.4360  4.3427
  366MOL0     H49395   9.159   5.304   5.130 -1.8419 -1.9260  0.0271
  366MOL0     H49396   9.143   4.855   4.919  1.0782 -1.0785  1.8187
  366MOL0     H49397   9.024   4.713   4.764 -2.8560  0.9949 -2.2126
  366MOL0     H49398   8.907   4.560   4.622 -0.2143 -1.2171  0.2819
  366MOL0     H49399   8.878   4.741   4.607 -2.8084  0.5242 -0.1723
  366MOL0     H49400   8.631   4.632   4.569  0.9394 -3.1670  3.8720
  366MOL0     H49401   8.730   4.491   4.521 -0.6693 -0.6269 -0.6097
  366MOL0     H49402   8.841   4.616   4.361  0.3907  0.6204  0.2873
  366MOL0     H49403   8.744   4.769   4.384 -0.5803 -0.1490  0.2681
  366MOL0     H49404   8.623   4.510   4.320  0.3882  1.3232  3.7555
  366MOL0     H49405   8.559   4.673   4.280  0.7582  0.3981 -1.9281
  366MOL0     H49406   8.813   4.576   3.952 -0.6522  1.5841 -1.5267
  366MOL0     H49407   8.656   4.752   4.961  0.0858 -0.6879 -2.6561
  366MOL0     H49408   8.734   5.040   5.134 -2.6587  0.8076 -6.1366
  366MOL0     H49409   8.610   4.917   5.120  0.2684 -0.3160  0.8019
  366MOL0     H49410   8.733   4.893   5.236  2.1607  1.8890  0.5392
  367MOL0     O49411   5.057   9.619   0.160 -0.1942 -0.2316  0.3585
  367MOL0     C49412   4.975   9.681   0.220  0.4082 -0.1147 -0.3662
  367MOL0     O49413   4.996   9.800   0.279 -0.0856  0.2468 -0.8182
  367MOL0     C49414   5.122   9.859   0.285  1.7638 -0.5012 -0.0482
  367MOL0     C49415   5.135   9.990   0.260 -1.0574 -0.5770  0.5369
  367MOL0     C49416   5.263  10.057   0.266 -0.0471  0.9314  0.6076
  367MOL0     C49417   5.378   9.972   0.273 -0.0596  0.1756 -0.0147
  367MOL0     O49418   5.504  10.025   0.270 -0.6346  1.1058 -0.7709
  367MOL0     C49419   5.543  10.104   0.153 -0.3316 -0.0653  0.0460
  367MOL0     C49420   5.681  10.067   0.108  0.1002 -1.3121 -1.4979
  367MOL0     C49421   5.724  10.150  -0.014 -0.2644 -0.2502 -0.8263
  367MOL0     C49422   5.696  10.096  -0.154 -1.1703  1.7332 -0.5865
  367MOL0     C49423   5.821  10.056  -0.225 -0.2758 -0.3056 -0.1504
  367MOL0     C49424   5.809  10.027  -0.383 -0.0869 -0.7699  0.5702
  367MOL0     C49425   5.940   9.986  -0.456  0.8470 -1.0703  0.6044
  367MOL0     C49426   5.983   9.846  -0.405 -0.6059  0.4974  0.0975
  367MOL0     N49427   6.116   9.795  -0.456  0.3771 -0.4263 -0.9476
  367MOL0     C49428   6.238   9.818  -0.401 -0.6605 -0.1266 -0.3199
  367MOL0     C49429   6.327   9.796  -0.501  0.2205 -0.3243 -0.6372
  367MOL0     C49430   6.476   9.820  -0.491  0.4929 -0.1223 -0.3496
  367MOL0     C49431   6.558   9.797  -0.620 -0.4262  0.8591  0.4818
  367MOL0     C49432   6.572   9.650  -0.667  0.3448  0.0572  0.0314
  367MOL0     C49433   6.529   9.612  -0.811  0.2318  0.1993  0.0285
  367MOL0     O49434   6.616   9.695  -0.892 -0.1064 -0.5389 -0.2368
  367MOL0     C49435   6.673   9.657  -1.003 -0.4242  0.3529  0.0606
  367MOL0     C49436   6.646   9.534  -1.079 -0.8817  0.0912  0.1910
  367MOL0     C49437   6.721   9.506  -1.193 -0.5907 -0.2658  0.6319
  367MOL0     C49438   6.818   9.599  -1.246  0.7092  0.4525 -0.3375
  367MOL0     C49439   6.904   9.570  -1.352 -1.4281 -0.1385  0.1873
  367MOL0     O49440   7.031   9.598  -1.330 -0.2369  0.2325  1.2632
  367MOL0     C49441   7.132   9.572  -1.419  0.4309  1.3033 -0.3784
  367MOL0     C49442   7.233   9.483  -1.372 -0.0008  0.0121  0.6679
  367MOL0     C49443   7.341   9.446  -1.460 -0.1614 -0.0975 -0.8326
  367MOL0     C49444   7.347   9.508  -1.584  0.8092 -0.4258  0.6481
  367MOL0     O49445   7.451   9.486  -1.673 -0.6267 -0.8766  0.4076
  367MOL0     C49446   7.569   9.420  -1.641  0.8840 -0.2076 -0.9356
  367MOL0     C49447   7.660   9.418  -1.763 -0.4383  1.2219 -0.1841
  367MOL0     C49448   7.774   9.314  -1.748 -0.4122  1.0088 -1.0877
  367MOL0     C49449   7.899   9.357  -1.829 -0.3057  0.4768  0.1610
  367MOL0     C49450   8.024   9.265  -1.811 -0.1376  0.8015  0.7646
  367MOL0     C49451   8.001   9.125  -1.874 -0.3447 -1.0987 -0.1814
  367MOL0     C49452   8.127   9.032  -1.859 -0.3405 -0.2731 -0.5499
  367MOL0     C49453   8.080   8.886  -1.886 -1.0533 -0.8020  0.1899
  367MOL0    Cl49454   8.017   8.805  -1.742 -0.3632  0.2819 -0.2066
  367MOL0     C49455   7.238   9.582  -1.628 -0.2610 -0.3174 -0.3644
  367MOL0     C49456   7.131   9.623  -1.546 -0.1663  0.7322 -0.4414
  367MOL0     O49457   6.859   9.497  -1.434 -0.6950  0.2163  0.4678
  367MOL0     C49458   6.835   9.725  -1.182  0.3012 -0.3631  0.2386
  367MOL0     C49459   6.759   9.747  -1.065 -0.3603 -0.5502  0.3045
  367MOL0     N49460   6.260   9.760  -0.610 -0.3631  0.1722 -0.5705
  367MOL0     N49461   6.135   9.744  -0.585  1.2410 -0.4776 -0.3414
  367MOL0     C49462   5.361   9.839   0.295  0.1126 -0.2411 -0.7703
  367MOL0     C49463   5.233   9.778   0.304 -0.5324 -0.4235 -0.9484
  367MOL0     C49464   4.845   9.610   0.259 -0.1032  0.7354  0.4595
  367MOL0     C49465   4.787   9.646   0.379  0.3353 -1.0317 -0.6448
  367MOL0     C49466   4.680   9.582   0.427  0.3515  1.3648  0.1950
  367MOL0     C49467   4.607   9.486   0.351 -0.0777  0.1297  0.5692
  367MOL0     O49468   4.492   9.439   0.402  0.2922 -0.5406 -0.0419
  367MOL0     C49469   4.431   9.337   0.325  0.1617  0.4841 -0.4394
  367MOL0     C49470   4.295   9.295   0.382  1.1111  0.0104  0.3847
  367MOL0     C49471   4.307   9.264   0.532 -0.2673  0.0263  0.1602
  367MOL0     C49472   4.160   9.242   0.579 -0.4974 -0.7527 -0.7984
  367MOL0     C49473   4.121   9.114   0.529 -0.3391 -0.6461 -0.2701
  367MOL0     C49474   4.095   9.006   0.483 -0.1300  0.6754 -1.0080
  367MOL0     C49475   4.661   9.457   0.222 -0.2267 -0.3000 -0.1914
  367MOL0     C49476   4.783   9.506   0.184  0.6890  0.1445 -0.4739
  367MOL0     C49477   4.837   9.460   0.055  0.7306 -0.2032  0.9511
  367MOL0     H49478   5.054  10.061   0.253 -1.1407 -0.5042  1.8460
  367MOL0     H49479   5.283  10.163   0.258 -0.4163  0.8376 -3.1796
  367MOL0     H49480   5.465  10.078   0.081 -3.3954 -0.9451  3.3938
  367MOL0     H49481   5.543  10.207   0.191 -1.7033 -0.5656  1.4804
  367MOL0     H49482   5.689   9.959   0.091 -1.0715 -1.5311 -0.7548
  367MOL0     H49483   5.748  10.099   0.188 -1.2216  1.3370 -1.3521
  367MOL0     H49484   5.831  10.166   0.004 -0.4539 -2.7276  4.5859
  367MOL0     H49485   5.661  10.239  -0.004  0.0735  0.0081 -1.0296
  367MOL0     H49486   5.641  10.003  -0.141 -0.2265  0.7338 -3.1033
  367MOL0     H49487   5.633  10.160  -0.217 -2.5649 -0.1463 -1.1889
  367MOL0     H49488   5.906  10.122  -0.204  2.1901 -3.4845  0.6181
  367MOL0     H49489   5.852   9.963  -0.178 -3.1012 -1.5085 -0.4535
  367MOL0     H49490   5.738   9.946  -0.397 -0.4326 -0.1545 -1.6356
  367MOL0     H49491   5.771  10.113  -0.439  1.4212 -1.8685 -2.4015
  367MOL0     H49492   6.013  10.063  -0.435 -1.1070  1.9832 -2.6355
  367MOL0     H49493   5.918   9.984  -0.564  0.6911  0.6531  0.5775
  367MOL0     H49494   6.006   9.845  -0.298 -0.3441 -0.5849  0.0394
  367MOL0     H49495   5.905   9.776  -0.437  0.1319 -0.6359  0.7488
  367MOL0     H49496   6.258   9.843  -0.297 -0.3441 -1.9713  0.0911
  367MOL0     H49497   6.500   9.920  -0.453 -3.5017 -0.4186  3.7010
  367MOL0     H49498   6.507   9.758  -0.407  0.9973  2.2950  1.3758
  367MOL0     H49499   6.519   9.859  -0.702 -2.0911 -2.9055 -1.8406
  367MOL0     H49500   6.663   9.815  -0.595  0.0887 -0.7392 -0.3845
  367MOL0     H49501   6.520   9.579  -0.601  0.8762 -0.4684 -0.1068
  367MOL0     H49502   6.679   9.626  -0.661  0.9912  2.6277 -0.1059
  367MOL0     H49503   6.422   9.629  -0.826 -0.0016 -0.9770  0.2407
  367MOL0     H49504   6.540   9.505  -0.833 -2.5452 -0.3840  1.0634
  367MOL0     H49505   6.572   9.459  -1.053 -1.0361  0.5458  1.0836
  367MOL0     H49506   6.708   9.416  -1.252 -2.2348 -0.6274  1.4701
  367MOL0     H49507   7.218   9.441  -1.273  1.7012  0.2545  1.0538
  367MOL0     H49508   7.415   9.374  -1.428 -0.4520 -0.0060  0.0634
  367MOL0     H49509   7.620   9.472  -1.559 -0.8942 -0.9350  0.7150
  367MOL0     H49510   7.555   9.317  -1.606  1.7756  0.0551  0.2362
  367MOL0     H49511   7.599   9.414  -1.854  0.3982  3.7961 -0.9546
  367MOL0     H49512   7.703   9.519  -1.771  3.0658  0.0530  1.7904
  367MOL0     H49513   7.807   9.313  -1.643  1.8007  4.3329 -1.6034
  367MOL0     H49514   7.734   9.212  -1.761 -1.7646  1.2126  0.9669
  367MOL0     H49515   7.920   9.457  -1.790 -1.9519  1.1582 -0.6015
  367MOL0     H49516   7.878   9.365  -1.936 -0.5303  0.8568  0.2322
  367MOL0     H49517   8.037   9.253  -1.703 -0.1549 -2.6501  0.5093
  367MOL0     H49518   8.115   9.291  -1.866 -0.3741 -0.9608 -0.5443
  367MOL0     H49519   7.913   9.081  -1.826 -0.3354 -0.8917  0.0297
  367MOL0     H49520   7.965   9.145  -1.975 -1.2450  3.6384  0.8062
  367MOL0     H49521   8.187   9.042  -1.768 -0.3080 -0.7620 -0.5164
  367MOL0     H49522   8.179   9.074  -1.946 -0.8112  0.7316 -0.3619
  367MOL0     H49523   8.018   8.877  -1.975  1.4145  0.0777 -1.7439
  367MOL0     H49524   8.173   8.838  -1.919 -2.5854 -1.8627 -2.8770
  367MOL0     H49525   7.242   9.633  -1.724  0.9263  1.7152  0.7218
  367MOL0     H49526   7.052   9.675  -1.600  1.3220  3.3205 -0.2699
  367MOL0     H49527   6.922   9.784  -1.210  2.4467 -0.7584  5.0524
  367MOL0     H49528   6.793   9.839  -1.017  0.9225 -1.9717  2.2617
  367MOL0     H49529   5.444   9.773   0.321  0.2782  0.9620  2.0943
  367MOL0     H49530   5.229   9.673   0.334 -1.7045  0.6271  3.3252
  367MOL0     H49531   4.825   9.716   0.452 -2.5032 -2.1676  2.1520
  367MOL0     H49532   4.631   9.617   0.518  1.3996  1.2306  0.8238
  367MOL0     H49533   4.496   9.250   0.335 -1.8144 -0.8293  1.8393
  367MOL0     H49534   4.411   9.368   0.222 -0.8912 -3.8721 -1.7698
  367MOL0     H49535   4.258   9.210   0.323 -0.3484  3.0113 -3.4406
  367MOL0     H49536   4.218   9.371   0.368  0.5908 -0.5977 -0.1438
  367MOL0     H49537   4.342   9.346   0.596 -2.0441 -1.1199  2.8066
  367MOL0     H49538   4.369   9.176   0.548 -0.7136 -0.3399 -0.0876
  367MOL0     H49539   4.160   9.238   0.688  3.8624  0.0349 -0.5954
  367MOL0     H49540   4.092   9.324   0.555  0.7503  0.1208 -1.4606
  367MOL0     H49541   4.060   8.916   0.437 -1.4448  1.1036 -0.8928
  367MOL0     H49542   4.608   9.380   0.167 -1.7568  2.3894 -2.7427
  367MOL0     H49543   4.920   9.390   0.066  2.5946  1.9100  0.8583
  367MOL0     H49544   4.760   9.425  -0.015  1.1167 -1.9162  1.3246
  367MOL0     H49545   4.882   9.545   0.003 -2.9417  1.5213  0.2253
  368MOL0     O49546   5.147   1.973   9.266 -0.1584  0.5814  0.2158
  368MOL0     C49547   5.104   1.891   9.347 -0.2213 -0.1726  0.4006
  368MOL0     O49548   5.078   1.761   9.318  0.0072 -0.6055 -0.3054
  368MOL0     C49549   5.136   1.707   9.207 -0.1168 -0.8871  0.0233
  368MOL0     C49550   5.074   1.620   9.125 -0.4789  1.2576  0.0432
  368MOL0     C49551   5.137   1.541   9.032 -0.0665  0.7023  0.1562
  368MOL0     C49552   5.266   1.572   8.994 -0.5017 -0.3404 -0.5379
  368MOL0     O49553   5.338   1.518   8.887  0.2901  0.1477  0.1504
  368MOL0     C49554   5.279   1.418   8.802 -0.3520 -0.9105  0.7449
  368MOL0     C49555   5.394   1.329   8.755 -0.4543  0.1471  0.5819
  368MOL0     C49556   5.414   1.219   8.864 -0.4935  0.0306 -0.2791
  368MOL0     C49557   5.568   1.199   8.872  0.7813 -0.3532 -0.1003
  368MOL0     C49558   5.617   1.099   8.973 -0.5801 -0.9250  0.4068
  368MOL0     C49559   5.584   0.948   8.952  0.0249  0.1086 -0.7098
  368MOL0     C49560   5.671   0.845   9.012  0.2318 -0.3136 -1.2638
  368MOL0     C49561   5.632   0.699   8.969 -0.3361 -0.2285  0.7182
  368MOL0     N49562   5.739   0.602   9.002 -0.7769 -0.0190 -0.5478
  368MOL0     C49563   5.780   0.578   9.130 -0.0159 -0.1277 -0.0784
  368MOL0     C49564   5.895   0.510   9.119 -0.2909 -0.4315  1.0877
  368MOL0     C49565   5.997   0.475   9.221  0.6719  0.9731  0.1361
  368MOL0     C49566   5.986   0.324   9.261  0.4778 -0.1606 -0.3754
  368MOL0     C49567   6.064   0.300   9.385  0.4488  1.0773 -1.2521
  368MOL0     C49568   6.008   0.201   9.489  0.0180 -0.3137  0.4487
  368MOL0     O49569   5.899   0.126   9.443 -0.0167  0.4461 -0.5829
  368MOL0     C49570   5.929   0.038   9.340  0.2411  0.5191 -0.4359
  368MOL0     C49571   5.826  -0.006   9.270 -0.0652 -0.1456  0.3734
  368MOL0     C49572   5.832  -0.089   9.158  0.5058 -0.4643 -0.8422
  368MOL0     C49573   5.945  -0.141   9.119  0.3121  0.0791  0.5512
  368MOL0     C49574   5.945  -0.237   9.008  0.2681  0.1006 -0.7479
  368MOL0     O49575   5.838  -0.233   8.915 -0.6002 -0.1559 -0.4392
  368MOL0     C49576   5.830  -0.333   8.825 -0.6811  0.0552  0.0429
  368MOL0     C49577   5.835  -0.298   8.689  0.0371  0.5383  0.3127
  368MOL0     C49578   5.853  -0.393   8.593 -0.5538 -0.4334  0.1549
  368MOL0     C49579   5.840  -0.529   8.624  0.2787  0.3330  0.3986
  368MOL0     O49580   5.830  -0.634   8.530  0.6200  0.6421 -0.2881
  368MOL0     C49581   5.848  -0.620   8.388 -1.4426 -0.6144  0.9294
  368MOL0     C49582   5.845  -0.750   8.304  0.2112 -0.1984 -0.0852
  368MOL0     C49583   5.943  -0.865   8.356 -0.2458 -0.0164 -0.0119
  368MOL0     C49584   6.087  -0.811   8.361  0.1228 -0.8499 -0.5843
  368MOL0     C49585   6.135  -0.745   8.229  0.3911  0.2125 -1.1247
  368MOL0     C49586   6.097  -0.826   8.101  0.2820 -0.0520 -0.0983
  368MOL0     C49587   6.118  -0.715   7.994  0.1747  0.0789  0.2266
  368MOL0     C49588   6.084  -0.772   7.856 -0.0768  0.1684  0.4780
  368MOL0    Cl49589   5.909  -0.775   7.850  0.3524 -0.0015  0.4130
  368MOL0     C49590   5.831  -0.565   8.767 -0.2474 -0.9573  0.3546
  368MOL0     C49591   5.820  -0.468   8.865 -0.2017  0.7790 -0.1507
  368MOL0     O49592   6.038  -0.312   9.012  0.6071  0.5797 -0.2150
  368MOL0     C49593   6.058  -0.103   9.190  0.7232 -0.6174  0.3383
  368MOL0     C49594   6.052  -0.010   9.294  0.0974  0.7100 -1.3379
  368MOL0     N49595   5.916   0.485   8.981  0.9319  0.1564 -0.0689
  368MOL0     N49596   5.815   0.537   8.911  0.6212 -0.2192  0.4332
  368MOL0     C49597   5.339   1.660   9.077 -0.0445  1.0877 -0.0342
  368MOL0     C49598   5.277   1.728   9.188  0.2184 -0.1227  0.0997
  368MOL0     C49599   5.090   1.938   9.488 -0.2031 -0.1314  0.6248
  368MOL0     C49600   5.066   2.068   9.518 -0.3670 -0.6649 -0.3265
  368MOL0     C49601   5.057   2.121   9.645 -0.0547  1.0766 -0.3162
  368MOL0     C49602   5.068   2.040   9.758 -0.3192  0.3712  0.8762
  368MOL0     O49603   5.067   2.097   9.882 -0.3092  0.3057 -0.2444
  368MOL0     C49604   4.949   2.186   9.906 -0.5896 -0.0603  0.5793
  368MOL0     C49605   4.864   2.149  10.036 -1.1332  0.3066 -0.2739
  368MOL0     C49606   4.749   2.252  10.051 -0.8539  0.9178 -0.8316
  368MOL0     C49607   4.637   2.205  10.164  0.4781 -0.5436  0.0325
  368MOL0     C49608   4.524   2.298  10.175 -0.5665 -0.0833  0.5690
  368MOL0     C49609   4.436   2.378  10.168 -0.4356 -0.3019 -0.5020
  368MOL0     C49610   5.088   1.902   9.731 -0.1860 -0.0316 -0.4406
  368MOL0     C49611   5.112   1.854   9.604  0.3577 -0.5553 -0.0489
  368MOL0     C49612   5.136   1.700   9.589 -0.1941 -0.6715 -0.2555
  368MOL0     H49613   4.969   1.607   9.148 -0.9756  3.5366 -0.6713
  368MOL0     H49614   5.089   1.462   8.976  1.7115 -1.1485  1.1195
  368MOL0     H49615   5.210   1.346   8.846 -0.8151 -1.4811 -0.8533
  368MOL0     H49616   5.243   1.479   8.719  0.9276 -0.3924  0.5415
  368MOL0     H49617   5.472   1.405   8.751 -0.4480  0.1787 -3.9266
  368MOL0     H49618   5.392   1.298   8.651  1.5483  2.6585 -0.3026
  368MOL0     H49619   5.364   1.126   8.838  1.4802 -1.9527  2.4561
  368MOL0     H49620   5.381   1.257   8.961  1.1949  1.9283 -0.3777
  368MOL0     H49621   5.589   1.156   8.774  1.1748 -3.6265  1.2902
  368MOL0     H49622   5.617   1.296   8.888  0.7501 -0.4414  0.5539
  368MOL0     H49623   5.726   1.111   8.976 -0.7226  0.7332 -0.1836
  368MOL0     H49624   5.574   1.129   9.069 -1.1611  1.5667 -0.5604
  368MOL0     H49625   5.489   0.917   8.998  1.6498 -2.4462  1.1929
  368MOL0     H49626   5.582   0.931   8.844  1.9565  1.2630 -0.9645
  368MOL0     H49627   5.654   0.857   9.119  2.4183  1.0191 -0.9967
  368MOL0     H49628   5.773   0.872   8.984  0.0476  0.0733 -1.5786
  368MOL0     H49629   5.550   0.658   9.028  1.8909 -3.4349  1.8144
  368MOL0     H49630   5.603   0.694   8.863  0.3964  0.5282  0.4685
  368MOL0     H49631   5.738   0.621   9.221 -4.4196 -0.8334 -1.5301
  368MOL0     H49632   6.098   0.482   9.179 -0.6007  0.6470 -3.3245
  368MOL0     H49633   5.986   0.541   9.307 -2.1963 -0.6156  1.1404
  368MOL0     H49634   5.879   0.302   9.260  0.4942 -0.2416 -0.3998
  368MOL0     H49635   6.033   0.255   9.190 -0.0315 -3.2571  2.0759
  368MOL0     H49636   6.095   0.392   9.435 -0.5668  0.0819  1.3911
  368MOL0     H49637   6.156   0.253   9.349  1.6424  0.9492  1.6314
  368MOL0     H49638   5.969   0.250   9.579 -3.2362 -1.1712 -0.3614
  368MOL0     H49639   6.084   0.131   9.524 -1.0064 -2.0493 -0.6291
  368MOL0     H49640   5.726   0.023   9.299  0.6333  0.4113  2.3567
  368MOL0     H49641   5.728  -0.112   9.137 -0.5313  1.8081  1.3293
  368MOL0     H49642   5.830  -0.197   8.651  1.3500  0.6483  0.3683
  368MOL0     H49643   5.856  -0.374   8.486 -0.0560 -3.0733 -0.3802
  368MOL0     H49644   5.770  -0.559   8.342  2.1054  1.0742 -3.7498
  368MOL0     H49645   5.940  -0.563   8.370 -2.0341 -0.3472 -1.5589
  368MOL0     H49646   5.743  -0.785   8.319 -0.8405  2.2294 -0.9741
  368MOL0     H49647   5.853  -0.719   8.200 -2.1800 -1.2753 -0.6596
  368MOL0     H49648   5.921  -0.904   8.455  1.0129 -2.6361 -0.6642
  368MOL0     H49649   5.936  -0.953   8.292 -1.4475  0.4006 -0.4791
  368MOL0     H49650   6.147  -0.898   8.389 -0.9025 -1.3513  0.1241
  368MOL0     H49651   6.095  -0.731   8.436  0.6755  1.4334 -2.9207
  368MOL0     H49652   6.241  -0.723   8.247  0.1695  0.0982  0.4505
  368MOL0     H49653   6.093  -0.644   8.235  2.0114  1.0128 -2.4143
  368MOL0     H49654   6.167  -0.907   8.081 -1.6785 -1.2309 -3.0058
  368MOL0     H49655   5.994  -0.862   8.106 -1.0641  2.5379 -3.8879
  368MOL0     H49656   6.223  -0.688   7.983  0.5717 -2.3368 -4.3163
  368MOL0     H49657   6.047  -0.633   8.006 -1.6298 -1.3091 -0.4668
  368MOL0     H49658   6.116  -0.706   7.774 -0.5964 -0.3695 -0.1652
  368MOL0     H49659   6.122  -0.873   7.838  1.0194  0.6362  0.0827
  368MOL0     H49660   5.834  -0.669   8.800 -2.0046 -0.6361  1.6651
  368MOL0     H49661   5.812  -0.498   8.968  1.8870 -1.1527 -0.4848
  368MOL0     H49662   6.155  -0.151   9.183  0.6618 -1.2442  2.7565
  368MOL0     H49663   6.143   0.004   9.352  0.4558 -1.3082 -1.3727
  368MOL0     H49664   5.441   1.687   9.051  1.4671 -4.0733 -0.5625
  368MOL0     H49665   5.336   1.800   9.244  0.5928 -0.6135  0.3453
  368MOL0     H49666   5.061   2.137   9.435 -1.7761  1.1376  1.1674
  368MOL0     H49667   5.027   2.224   9.633 -4.4896 -0.1339 -1.6805
  368MOL0     H49668   4.877   2.186   9.823  0.5184 -1.2783 -0.4447
  368MOL0     H49669   4.990   2.287   9.911  0.4643 -0.1516 -2.9337
  368MOL0     H49670   4.948   2.145  10.106  0.7572 -0.2455 -2.4516
  368MOL0     H49671   4.822   2.048  10.036 -0.8546  0.1579  1.8426
  368MOL0     H49672   4.690   2.263   9.960 -2.6803 -0.5776  0.1133
  368MOL0     H49673   4.793   2.347  10.083  0.7781 -0.1397  0.2616
  368MOL0     H49674   4.603   2.104  10.139 -1.7882 -0.2844  1.7025
  368MOL0     H49675   4.684   2.186  10.261  0.7045  1.2289  0.2906
  368MOL0     H49676   4.360   2.453  10.158 -0.5187  0.0608  2.1405
  368MOL0     H49677   5.082   1.834   9.815 -4.3206 -0.2004 -0.6675
  368MOL0     H49678   5.041   1.649   9.572  0.5454 -2.2296  0.1043
  368MOL0     H49679   5.213   1.689   9.512  2.7300  2.3483  1.9532
  368MOL0     H49680   5.178   1.661   9.682 -2.1924 -0.6339  0.7002
  369MOL0     O49681   1.128   1.059   8.026 -0.3894  0.5001  0.5599
  369MOL0     C49682   1.223   1.027   7.942  1.5745 -1.5487 -0.5015
  369MOL0     O49683   1.275   0.897   7.915  0.7080  0.3196 -0.2538
  369MOL0     C49684   1.208   0.792   7.979 -0.1972  0.2448 -0.0742
  369MOL0     C49685   1.159   0.785   8.112 -0.4187  0.3935  1.1783
  369MOL0     C49686   1.088   0.679   8.157 -0.7811  0.4881 -0.0934
  369MOL0     C49687   1.086   0.560   8.070  0.3544  0.2320 -0.7416
  369MOL0     O49688   1.030   0.444   8.120  0.1133 -0.2850  0.0420
  369MOL0     C49689   0.899   0.414   8.068 -0.1203 -0.0827  1.4293
  369MOL0     C49690   0.829   0.282   8.113 -0.3279  0.2516 -0.0412
  369MOL0     C49691   0.802   0.257   8.262  0.4401  1.3811  0.4061
  369MOL0     C49692   0.737   0.368   8.340  0.4482 -0.5697  0.5412
  369MOL0     C49693   0.589   0.396   8.322 -0.6004 -0.7803 -0.0939
  369MOL0     C49694   0.542   0.511   8.408 -0.6325 -0.3638 -0.6931
  369MOL0     C49695   0.392   0.507   8.416 -0.4437 -0.4960  0.1974
  369MOL0     C49696   0.326   0.580   8.299  0.6714  1.1240  0.4474
  369MOL0     N49697   0.183   0.592   8.299  0.5303  0.0624 -0.6787
  369MOL0     C49698   0.107   0.608   8.193 -0.0389  1.0361  0.0071
  369MOL0     C49699  -0.020   0.618   8.234  0.6671  0.5542 -0.1626
  369MOL0     C49700  -0.131   0.586   8.133 -0.0546  0.5206  0.3909
  369MOL0     C49701  -0.269   0.571   8.194 -0.0067 -0.1040  0.1483
  369MOL0     C49702  -0.299   0.444   8.270 -0.2162  0.5706  0.4746
  369MOL0     C49703  -0.406   0.449   8.374 -0.2242 -0.5454  0.2368
  369MOL0     O49704  -0.530   0.488   8.318 -0.2363 -0.3193 -0.1353
  369MOL0     C49705  -0.603   0.396   8.257 -0.0630  0.1612  0.0744
  369MOL0     C49706  -0.661   0.287   8.329 -0.2243 -0.2328 -0.1201
  369MOL0     C49707  -0.742   0.198   8.254 -0.0699  0.0140 -0.0683
  369MOL0     C49708  -0.746   0.211   8.111  0.0137  0.7969  1.0937
  369MOL0     C49709  -0.836   0.099   8.039  0.0486  1.0152 -0.0733
  369MOL0     O49710  -0.898   0.014   8.115 -0.0764 -0.8559 -0.7596
  369MOL0     C49711  -0.966  -0.089   8.048  0.6019 -0.0390  0.1239
  369MOL0     C49712  -0.905  -0.204   8.010 -0.3468  0.2140 -0.1693
  369MOL0     C49713  -0.964  -0.309   7.948  0.4026  0.0565  0.1504
  369MOL0     C49714  -1.093  -0.301   7.912  0.2671 -0.3643 -0.5974
  369MOL0     O49715  -1.156  -0.400   7.847  0.5803 -0.0413  1.0859
  369MOL0     C49716  -1.201  -0.513   7.915  0.2789  0.0757  0.3339
  369MOL0     C49717  -1.326  -0.557   7.832 -0.4477 -0.2083 -0.2981
  369MOL0     C49718  -1.365  -0.706   7.849  0.1165  0.3945 -0.1822
  369MOL0     C49719  -1.481  -0.737   7.752  0.2644 -0.3893 -0.0300
  369MOL0     C49720  -1.510  -0.884   7.751  0.8819 -0.2111  0.1605
  369MOL0     C49721  -1.630  -0.920   7.848  0.2317  0.1465 -0.9178
  369MOL0     C49722  -1.676  -1.072   7.824  0.6429 -0.2618  0.0637
  369MOL0     C49723  -1.709  -1.087   7.672  0.3509  0.4525  0.4547
  369MOL0    Cl49724  -1.812  -1.228   7.632 -0.1605 -0.0122  0.0513
  369MOL0     C49725  -1.164  -0.185   7.942  0.7473 -0.2660  0.1271
  369MOL0     C49726  -1.105  -0.076   8.011  0.8335 -0.0188 -0.2572
  369MOL0     O49727  -0.817   0.091   7.923 -0.1213  0.5206 -0.4919
  369MOL0     C49728  -0.680   0.317   8.041 -0.1802  0.3274 -0.5020
  369MOL0     C49729  -0.604   0.409   8.112  0.1660 -0.3117  0.2530
  369MOL0     N49730  -0.024   0.611   8.371 -0.3734 -0.3226  0.1924
  369MOL0     N49731   0.101   0.600   8.406  0.1039 -0.5118 -0.5173
  369MOL0     C49732   1.128   0.566   7.934 -0.0167 -0.2976 -0.4217
  369MOL0     C49733   1.181   0.681   7.896 -0.5686 -0.3395 -0.2829
  369MOL0     C49734   1.268   1.131   7.844  0.3332  0.3254  0.6164
  369MOL0     C49735   1.312   1.090   7.717 -0.7505  0.6018  0.6301
  369MOL0     C49736   1.377   1.184   7.631  0.7031  0.3365  0.0610
  369MOL0     C49737   1.398   1.319   7.660 -0.2767 -0.0690  0.6440
  369MOL0     O49738   1.470   1.408   7.585  0.0894  0.4039 -0.5236
  369MOL0     C49739   1.536   1.361   7.461  0.4225  0.2615 -0.4825
  369MOL0     C49740   1.662   1.447   7.429  0.0246  0.6060  0.3103
  369MOL0     C49741   1.634   1.598   7.438  0.8946 -0.2231 -0.7431
  369MOL0     C49742   1.682   1.670   7.558 -0.7062  0.2599 -0.4156
  369MOL0     C49743   1.826   1.658   7.589  0.0098 -0.8395 -0.2386
  369MOL0     C49744   1.950   1.669   7.606 -1.1944 -0.0847 -0.2140
  369MOL0     C49745   1.344   1.365   7.776  0.7373 -0.1445 -0.4929
  369MOL0     C49746   1.293   1.271   7.870  0.0915  0.1981 -0.6124
  369MOL0     C49747   1.268   1.335   8.000  0.6200  0.1253 -0.1372
  369MOL0     H49748   1.178   0.869   8.178  1.8086  0.6724  0.2784
  369MOL0     H49749   1.051   0.682   8.259 -0.3041 -0.2847  0.1137
  369MOL0     H49750   0.837   0.496   8.105 -1.3206  0.2196 -1.0955
  369MOL0     H49751   0.891   0.422   7.960 -0.8889  2.8287  1.6258
  369MOL0     H49752   0.881   0.188   8.093 -1.4034  0.0026 -1.7696
  369MOL0     H49753   0.731   0.282   8.066 -0.9627  2.8706  1.1104
  369MOL0     H49754   0.897   0.235   8.312 -0.4751 -0.3011  1.5106
  369MOL0     H49755   0.747   0.163   8.272  3.9649 -1.0608 -1.0401
  369MOL0     H49756   0.755   0.341   8.444  0.8880  1.0900  0.9317
  369MOL0     H49757   0.798   0.451   8.304  0.5533 -0.6061  0.6377
  369MOL0     H49758   0.565   0.428   8.219  0.4845  2.4111  0.5244
  369MOL0     H49759   0.532   0.312   8.362 -1.3766  1.1239  3.0894
  369MOL0     H49760   0.589   0.519   8.506  1.3038 -0.8799 -1.5223
  369MOL0     H49761   0.584   0.596   8.352  0.6025 -0.5508 -0.0815
  369MOL0     H49762   0.359   0.572   8.497 -0.0743  1.2971 -1.0238
  369MOL0     H49763   0.347   0.409   8.433 -2.5095  0.7159  2.3521
  369MOL0     H49764   0.362   0.682   8.283  3.8729 -0.0606 -0.8106
  369MOL0     H49765   0.365   0.533   8.208  1.4996 -2.2264  2.3556
  369MOL0     H49766   0.140   0.590   8.091 -2.3465 -0.6500 -0.5154
  369MOL0     H49767  -0.124   0.662   8.054 -1.4967 -0.1295 -0.4166
  369MOL0     H49768  -0.107   0.487   8.094  2.5455  0.2200  2.4827
  369MOL0     H49769  -0.283   0.651   8.268 -0.4097 -0.9728  1.0331
  369MOL0     H49770  -0.329   0.599   8.108  1.6511  2.4141 -0.3108
  369MOL0     H49771  -0.216   0.416   8.336 -0.9921  1.1792  1.7579
  369MOL0     H49772  -0.314   0.363   8.198 -2.7568 -0.6341  2.2116
  369MOL0     H49773  -0.380   0.528   8.445 -1.2513 -0.9231  1.0722
  369MOL0     H49774  -0.417   0.356   8.432 -2.0658 -0.2880  0.3882
  369MOL0     H49775  -0.631   0.279   8.432  3.7376  1.7250 -0.9532
  369MOL0     H49776  -0.782   0.115   8.311  0.0922  1.9272  3.0849
  369MOL0     H49777  -0.805  -0.231   8.042 -0.7224 -3.4052 -1.5554
  369MOL0     H49778  -0.923  -0.403   7.914  1.1732  0.5706 -0.3972
  369MOL0     H49779  -1.140  -0.603   7.914  0.4673  0.2083 -0.8132
  369MOL0     H49780  -1.244  -0.498   8.015 -1.6766  1.8919 -0.6925
  369MOL0     H49781  -1.413  -0.493   7.849 -1.3121 -1.5743  0.6952
  369MOL0     H49782  -1.301  -0.547   7.726  0.6936 -1.4813 -0.1704
  369MOL0     H49783  -1.279  -0.769   7.822 -0.0685  1.6048 -4.1768
  369MOL0     H49784  -1.399  -0.729   7.950 -1.3170  0.3558 -0.6604
  369MOL0     H49785  -1.438  -0.714   7.654 -1.1974  1.5867 -0.2612
  369MOL0     H49786  -1.578  -0.686   7.759 -0.5261 -1.8782  0.3625
  369MOL0     H49787  -1.418  -0.941   7.765  1.8305  1.5217  1.3927
  369MOL0     H49788  -1.538  -0.908   7.648 -1.0838  0.2483  0.5411
  369MOL0     H49789  -1.593  -0.917   7.951 -1.6042 -3.6716  0.0353
  369MOL0     H49790  -1.718  -0.857   7.839 -1.7405 -2.2549  0.2904
  369MOL0     H49791  -1.765  -1.102   7.881  0.2147 -0.4975 -0.7194
  369MOL0     H49792  -1.590  -1.136   7.843 -0.4055 -1.9578 -0.6868
  369MOL0     H49793  -1.761  -0.994   7.648  1.3258  0.9432  0.2146
  369MOL0     H49794  -1.617  -1.084   7.614  0.2177  2.9896  0.2932
  369MOL0     H49795  -1.261  -0.174   7.895  1.2628 -0.0435 -0.9239
  369MOL0     H49796  -1.178  -0.004   8.046  1.0455 -0.9020  2.1804
  369MOL0     H49797  -0.693   0.323   7.934  2.3687  1.5246 -0.8407
  369MOL0     H49798  -0.561   0.485   8.046 -0.0762  0.8628  1.4181
  369MOL0     H49799   1.118   0.481   7.867  1.7998 -1.2856  0.5101
  369MOL0     H49800   1.209   0.686   7.791 -1.4704 -0.8451 -0.5591
  369MOL0     H49801   1.310   0.990   7.675  1.9323  1.3199 -1.5083
  369MOL0     H49802   1.415   1.138   7.540 -0.9439 -0.1873 -0.3973
  369MOL0     H49803   1.464   1.390   7.385  0.3279  0.2857 -0.3837
  369MOL0     H49804   1.554   1.253   7.458 -0.3503  0.1599 -2.2871
  369MOL0     H49805   1.686   1.420   7.326 -1.1982 -2.7819  0.7907
  369MOL0     H49806   1.743   1.425   7.499  0.9808  1.9621 -0.3337
  369MOL0     H49807   1.527   1.621   7.437  0.8233 -0.5591 -1.0149
  369MOL0     H49808   1.670   1.632   7.341 -2.5982 -0.7953 -2.3961
  369MOL0     H49809   1.663   1.776   7.542 -0.3310  0.1044 -2.1796
  369MOL0     H49810   1.624   1.636   7.644 -1.4048  0.0212 -0.9744
  369MOL0     H49811   2.056   1.674   7.596 -1.2516  0.1648 -0.8099
  369MOL0     H49812   1.361   1.469   7.804 -3.1629  1.0984 -2.0518
  369MOL0     H49813   1.171   1.384   8.003  1.6295  2.2599 -0.4357
  369MOL0     H49814   1.269   1.263   8.082  0.0044 -2.5541 -2.3116
  369MOL0     H49815   1.340   1.415   8.022 -0.5512  0.6763  1.9523
  370MOL0     O49816   4.103   9.303  10.412 -0.2616  0.2806 -0.1248
  370MOL0     C49817   4.087   9.403  10.481 -0.5834 -1.1594  0.5143
  370MOL0     O49818   4.112   9.408  10.618 -0.0127 -0.3116  0.9029
  370MOL0     C49819   4.168   9.309  10.695  0.0640 -0.3210 -0.0167
  370MOL0     C49820   4.143   9.317  10.833 -0.4008 -0.2182 -0.9807
  370MOL0     C49821   4.221   9.245  10.923  0.1967 -0.6823  0.1861
  370MOL0     C49822   4.312   9.158  10.864  0.2772  1.0252 -0.5317
  370MOL0     O49823   4.373   9.076  10.962  0.2674 -0.6386  0.6305
  370MOL0     C49824   4.287   8.977  11.024 -0.8100  0.1353 -0.2194
  370MOL0     C49825   4.359   8.905  11.134 -0.6099  0.1346 -0.9046
  370MOL0     C49826   4.284   8.838  11.246  0.6817 -0.4602 -0.5684
  370MOL0     C49827   4.381   8.765  11.330 -0.3895 -0.0936  0.1965
  370MOL0     C49828   4.327   8.716  11.465  0.0838 -0.2391  0.3540
  370MOL0     C49829   4.410   8.617  11.549 -0.2610 -0.1170 -0.3077
  370MOL0     C49830   4.331   8.563  11.663  0.2463 -0.2590 -0.1465
  370MOL0     C49831   4.428   8.470  11.743  0.4018 -0.2724 -0.0730
  370MOL0     N49832   4.366   8.449  11.882 -0.4280 -0.2599  0.3329
  370MOL0     C49833   4.331   8.554  11.964  0.3362 -0.2221  0.2857
  370MOL0     C49834   4.277   8.500  12.076 -1.1789  0.9260  0.9002
  370MOL0     C49835   4.234   8.556  12.196 -0.2283 -0.5123 -0.5024
  370MOL0     C49836   4.117   8.668  12.195 -0.0258  0.4791 -0.6223
  370MOL0     C49837   3.995   8.639  12.117 -0.2348  0.7261  0.6105
  370MOL0     C49838   3.928   8.515  12.155  0.3571  1.0666 -0.0074
  370MOL0     O49839   3.854   8.543  12.273  0.0490 -0.0488  0.0236
  370MOL0     C49840   3.795   8.438  12.339 -0.6309  0.4224 -0.4285
  370MOL0     C49841   3.687   8.493  12.408 -0.0586  0.0353 -0.7617
  370MOL0     C49842   3.611   8.391  12.482  0.1884  0.2206  0.4119
  370MOL0     C49843   3.631   8.257  12.479 -0.9466  0.5179 -1.3406
  370MOL0     C49844   3.542   8.164  12.547  0.8003  0.3588 -0.1171
  370MOL0     O49845   3.540   8.033  12.506  0.2606 -0.0345 -0.3270
  370MOL0     C49846   3.462   7.947  12.581  0.9024  0.3358  0.0045
  370MOL0     C49847   3.481   7.899  12.709 -0.7720  0.2746  1.2340
  370MOL0     C49848   3.386   7.825  12.778  0.4105 -0.2129  0.1796
  370MOL0     C49849   3.263   7.790  12.715 -0.6285 -0.5307 -0.0284
  370MOL0     O49850   3.163   7.719  12.779 -0.4594 -0.3023  0.3867
  370MOL0     C49851   3.142   7.744  12.918 -0.5936 -0.2122 -0.4486
  370MOL0     C49852   2.996   7.737  12.941 -1.3024  0.7751 -1.1578
  370MOL0     C49853   2.913   7.815  12.837 -0.4123  1.2895 -0.4879
  370MOL0     C49854   2.955   7.966  12.834 -0.2797 -0.0374  0.3181
  370MOL0     C49855   2.882   8.030  12.713 -1.7740 -0.8212 -0.1925
  370MOL0     C49856   2.908   8.189  12.714  0.0744 -0.5284 -0.0192
  370MOL0     C49857   2.911   8.263  12.577 -0.2094  1.0963  0.2279
  370MOL0     C49858   3.026   8.219  12.502 -0.2095 -0.1147  0.1425
  370MOL0    Cl49859   3.006   8.278  12.333 -0.4243  0.2158  0.0029
  370MOL0     C49860   3.242   7.833  12.581  0.2608  0.1951 -0.3801
  370MOL0     C49861   3.345   7.910  12.517  0.1191  0.4048 -0.1969
  370MOL0     O49862   3.478   8.208  12.635 -0.2787 -0.0258 -0.6453
  370MOL0     C49863   3.747   8.216  12.410 -0.2169  0.6178  0.3860
  370MOL0     C49864   3.829   8.305  12.344 -0.4254 -0.1229  0.1407
  370MOL0     N49865   4.258   8.364  12.052  0.1784 -0.5114  0.5861
  370MOL0     N49866   4.316   8.336  11.942 -0.8344  0.1761  0.1944
  370MOL0     C49867   4.325   9.127  10.727  0.3323 -0.4872  1.1749
  370MOL0     C49868   4.252   9.207  10.642  0.1463 -0.4038  0.7925
  370MOL0     C49869   4.047   9.532  10.428  0.2880  0.3967  0.5999
  370MOL0     C49870   4.037   9.641  10.518 -1.2197 -0.4722 -0.8329
  370MOL0     C49871   4.000   9.758  10.469  0.2123 -0.6247 -0.7465
  370MOL0     C49872   3.967   9.783  10.333 -0.8581 -0.5646 -0.3754
  370MOL0     O49873   3.947   9.914  10.288  0.2043 -0.8198 -0.1476
  370MOL0     C49874   3.833   9.938  10.207  0.7301 -0.6513 -0.5653
  370MOL0     C49875   3.706   9.958  10.293 -0.1770  0.6440  0.0516
  370MOL0     C49876   3.592  10.041  10.225  0.0476  0.7668  0.7096
  370MOL0     C49877   3.567  10.002  10.075  0.3021  0.1404 -0.3237
  370MOL0     C49878   3.488   9.879  10.053  0.0352  0.6647  0.5828
  370MOL0     C49879   3.417   9.775  10.044  0.2801 -0.8375 -1.0963
  370MOL0     C49880   3.979   9.676  10.245 -1.1942  0.1184  0.2068
  370MOL0     C49881   4.017   9.554  10.294 -0.0605 -0.0608  0.0138
  370MOL0     C49882   4.043   9.454  10.185  1.0514  0.6844  0.1939
  370MOL0     H49883   4.076   9.389  10.879 -0.4122 -2.4847  3.0237
  370MOL0     H49884   4.202   9.246  11.030  0.9558 -0.8454  0.3309
  370MOL0     H49885   4.196   9.024  11.062 -0.2542 -0.1568  1.5334
  370MOL0     H49886   4.244   8.910  10.949 -2.5103  0.1065  0.7428
  370MOL0     H49887   4.441   8.969  11.168 -1.7123  1.9115 -1.4852
  370MOL0     H49888   4.414   8.823  11.087 -0.9846 -0.9466  0.4774
  370MOL0     H49889   4.210   8.766  11.211 -1.4016  1.5525 -0.5425
  370MOL0     H49890   4.230   8.913  11.306 -0.6609  0.3881 -2.7360
  370MOL0     H49891   4.412   8.674  11.276  1.1837  1.5559 -1.8382
  370MOL0     H49892   4.472   8.819  11.357  0.7769 -2.2189  0.7634
  370MOL0     H49893   4.318   8.807  11.526 -1.0131 -0.4151  0.4663
  370MOL0     H49894   4.229   8.669  11.450 -1.1586  2.1509  0.5230
  370MOL0     H49895   4.418   8.528  11.486  3.0654 -0.0356 -0.1697
  370MOL0     H49896   4.507   8.660  11.577  0.3205 -1.1092 -0.7434
  370MOL0     H49897   4.243   8.501  11.646 -0.9143  1.2717  0.0388
  370MOL0     H49898   4.312   8.654  11.721  1.4936  1.1842 -1.9086
  370MOL0     H49899   4.443   8.374  11.692 -3.4597  0.0568 -2.2707
  370MOL0     H49900   4.520   8.526  11.760 -0.2695  0.8354  0.0344
  370MOL0     H49901   4.349   8.658  11.939 -0.0950  0.0984  1.2476
  370MOL0     H49902   4.198   8.474  12.259  1.0130 -0.1003  0.8051
  370MOL0     H49903   4.322   8.600  12.244  0.4553 -1.5856 -0.7492
  370MOL0     H49904   4.099   8.687  12.302  4.1856  2.3740 -0.0669
  370MOL0     H49905   4.160   8.760  12.154  0.5698  0.0749 -0.9145
  370MOL0     H49906   4.021   8.634  12.011 -0.7482 -1.9962  0.5425
  370MOL0     H49907   3.923   8.719  12.134 -1.1588 -0.5009  2.9370
  370MOL0     H49908   3.993   8.428  12.168 -1.0196 -0.1354 -0.8456
  370MOL0     H49909   3.851   8.496  12.080  0.5596 -1.4636  0.3569
  370MOL0     H49910   3.670   8.600  12.419 -0.9316 -0.1777  0.0902
  370MOL0     H49911   3.518   8.427  12.524 -0.6112 -0.4293 -0.7443
  370MOL0     H49912   3.575   7.935  12.751  0.1027 -0.1345 -0.3174
  370MOL0     H49913   3.411   7.785  12.875 -1.3139 -0.9312  0.3652
  370MOL0     H49914   3.198   7.670  12.976  2.2074  0.6708 -1.8134
  370MOL0     H49915   3.177   7.845  12.943 -0.8848  0.7903 -3.6499
  370MOL0     H49916   2.949   7.638  12.940 -1.3811  0.7983 -0.1955
  370MOL0     H49917   2.983   7.778  13.042  3.3800  1.6420 -0.6735
  370MOL0     H49918   2.925   7.763  12.742 -4.2183  1.9765 -1.5264
  370MOL0     H49919   2.807   7.798  12.858  0.4428 -2.9444  1.3218
  370MOL0     H49920   3.060   7.991  12.816 -0.5022  0.4895 -0.2831
  370MOL0     H49921   2.912   8.010  12.925 -0.6521  1.7329 -0.6561
  370MOL0     H49922   2.778   7.995  12.713 -2.3819  0.4975 -3.6147
  370MOL0     H49923   2.928   7.987  12.623  2.0172  0.8234  0.7519
  370MOL0     H49924   2.831   8.232  12.779 -3.1164 -4.2160 -0.9648
  370MOL0     H49925   3.009   8.198  12.755 -0.2138 -2.3005  1.2289
  370MOL0     H49926   2.915   8.372  12.577  3.9905  1.1546 -2.5268
  370MOL0     H49927   2.819   8.224  12.532 -1.0653  2.5907  0.6096
  370MOL0     H49928   3.120   8.252  12.548 -0.1884 -1.0915  0.8209
  370MOL0     H49929   3.033   8.111  12.489 -0.6696 -0.2277  0.8197
  370MOL0     H49930   3.159   7.803  12.517 -1.0848 -2.3446  2.2833
  370MOL0     H49931   3.328   7.955  12.420 -0.9979 -0.4433 -0.4034
  370MOL0     H49932   3.763   8.109  12.417 -2.8989  0.1240 -0.0172
  370MOL0     H49933   3.923   8.273  12.300 -1.5906 -0.5874 -2.1118
  370MOL0     H49934   4.395   9.053  10.691  2.2883 -0.1276  3.9240
  370MOL0     H49935   4.264   9.195  10.535 -0.1595  1.4149  0.5309
  370MOL0     H49936   4.074   9.640  10.620 -0.0140 -0.6135 -1.2550
  370MOL0     H49937   3.992   9.838  10.542 -0.8428 -1.6465  0.3032
  370MOL0     H49938   3.808   9.854  10.142 -1.8921 -0.1033 -0.3893
  370MOL0     H49939   3.845  10.026  10.143 -0.4547 -2.2897 -3.1975
  370MOL0     H49940   3.736   9.997  10.390 -1.6573 -2.0747  1.7254
  370MOL0     H49941   3.668   9.857  10.313  5.3159 -1.9884 -0.9355
  370MOL0     H49942   3.635  10.142  10.226  2.6443 -0.1847 -1.4648
  370MOL0     H49943   3.501  10.059  10.282 -0.8726  1.5282 -0.9375
  370MOL0     H49944   3.515  10.091  10.037  0.9182  1.1382  1.0799
  370MOL0     H49945   3.661   9.994  10.020  1.0897 -2.1909  1.2111
  370MOL0     H49946   3.374   9.678  10.057  0.9840 -0.9508  0.6273
  370MOL0     H49947   3.962   9.692  10.139 -0.5783  0.0645  0.0939
  370MOL0     H49948   4.025   9.506  10.091 -1.8109  2.5531  1.6237
  370MOL0     H49949   4.146   9.418  10.187  0.5600 -0.7629  1.6126
  370MOL0     H49950   3.972   9.371  10.194  1.4483  0.4527  1.3839
  371MOL0     O49951   2.487   1.730   5.926  0.2454 -0.3963 -0.1910
  371MOL0     C49952   2.421   1.628   5.920 -0.0473  0.5387 -0.0073
  371MOL0     O49953   2.461   1.506   5.965  0.1256  1.1900 -0.4678
  371MOL0     C49954   2.595   1.491   6.006  0.8361 -0.4701  0.4539
  371MOL0     C49955   2.682   1.402   5.948 -0.2596  0.0525  0.4163
  371MOL0     C49956   2.813   1.406   5.989  0.4897 -0.8409  0.3784
  371MOL0     C49957   2.867   1.499   6.075  0.3347 -0.0595 -0.1784
  371MOL0     O49958   2.999   1.490   6.107  0.4482  0.4127 -0.2705
  371MOL0     C49959   3.095   1.507   6.000 -0.0127 -0.5219  0.5627
  371MOL0     C49960   3.228   1.463   6.048 -0.4089  0.3177  0.6073
  371MOL0     C49961   3.279   1.535   6.176 -0.3048 -0.0447 -0.2744
  371MOL0     C49962   3.431   1.523   6.198  0.4370  0.1947  0.5562
  371MOL0     C49963   3.452   1.568   6.340 -0.7634  0.3793  0.3332
  371MOL0     C49964   3.603   1.586   6.366  0.7375  0.0677 -0.2647
  371MOL0     C49965   3.684   1.455   6.373 -0.1618 -0.2667  0.5460
  371MOL0     C49966   3.640   1.364   6.484 -0.7426  0.5991 -0.9313
  371MOL0     N49967   3.755   1.281   6.527 -0.0533  0.1574 -0.1245
  371MOL0     C49968   3.860   1.335   6.591  0.2492  0.2671  0.2413
  371MOL0     C49969   3.948   1.235   6.605 -0.9471  0.1598 -0.2851
  371MOL0     C49970   4.089   1.238   6.671  0.5689  0.3612 -0.1658
  371MOL0     C49971   4.188   1.319   6.577  0.0806 -0.0577  0.9985
  371MOL0     C49972   4.173   1.256   6.427  0.6067 -0.2095 -0.1847
  371MOL0     C49973   4.219   1.111   6.415  0.0243 -0.0578  0.0516
  371MOL0     O49974   4.246   1.082   6.273 -0.2093  0.2719 -1.4330
  371MOL0     C49975   4.141   1.058   6.188 -0.0025  0.7873 -0.4490
  371MOL0     C49976   4.002   1.059   6.228  1.2367 -0.3790  0.6270
  371MOL0     C49977   3.901   1.054   6.131  0.5227 -0.7127  0.0448
  371MOL0     C49978   3.936   1.040   5.993  0.1417  0.5220  1.0404
  371MOL0     C49979   3.827   1.042   5.894  0.1764 -0.3607  0.2341
  371MOL0     O49980   3.706   0.984   5.935  0.4358 -0.0189  0.0245
  371MOL0     C49981   3.586   1.004   5.866 -1.1328 -0.7463 -0.6805
  371MOL0     C49982   3.505   0.902   5.842 -0.6250 -0.4844  0.5636
  371MOL0     C49983   3.393   0.924   5.762  0.8138  0.3088  0.2855
  371MOL0     C49984   3.358   1.049   5.715 -0.1611  0.1766 -0.2831
  371MOL0     O49985   3.248   1.056   5.639  0.1917  0.4007  0.4194
  371MOL0     C49986   3.123   1.062   5.708  0.1720  0.9376 -0.6780
  371MOL0     C49987   3.003   1.118   5.618 -0.2845 -0.0772 -0.2699
  371MOL0     C49988   3.022   1.272   5.605 -0.6576  0.6676  0.7195
  371MOL0     C49989   3.002   1.310   5.458  0.1142 -0.4636  0.5825
  371MOL0     C49990   3.002   1.462   5.447 -0.4779 -0.0909 -0.6205
  371MOL0     C49991   2.912   1.527   5.547  0.2782  0.1561  0.3321
  371MOL0     C49992   2.907   1.680   5.524  0.1217  0.5654 -0.1419
  371MOL0     C49993   2.801   1.748   5.619 -0.3066  0.3743 -0.3034
  371MOL0    Cl49994   2.640   1.688   5.564  0.2450 -0.0796 -0.1741
  371MOL0     C49995   3.439   1.159   5.740  0.8715  0.1686 -0.4990
  371MOL0     C49996   3.550   1.139   5.822 -0.9546  0.7719  0.2092
  371MOL0     O49997   3.854   1.090   5.787  0.8189 -0.2911  1.1148
  371MOL0     C49998   4.068   1.023   5.959 -0.6287  1.0873 -1.1037
  371MOL0     C49999   4.169   1.016   6.062  0.3034  0.0372  0.1659
  371MOL0     N50000   3.883   1.112   6.575 -0.6844  0.5399 -0.7524
  371MOL0     N50001   3.772   1.151   6.514 -0.3386 -0.3679  0.3081
  371MOL0     C50002   2.784   1.586   6.138 -0.4961 -0.1578  0.1340
  371MOL0     C50003   2.649   1.580   6.107  0.6476 -1.3242  0.7230
  371MOL0     C50004   2.280   1.645   5.877  0.1476  0.1807  0.3529
  371MOL0     C50005   2.235   1.765   5.840 -1.1068  0.3886  1.0682
  371MOL0     C50006   2.103   1.801   5.806 -0.1336 -0.8338  1.4654
  371MOL0     C50007   2.010   1.695   5.806  0.6514  0.1863  0.6808
  371MOL0     O50008   1.875   1.711   5.775 -0.2674 -0.4843  0.8820
  371MOL0     C50009   1.845   1.765   5.640 -1.0683  0.3486  0.9361
  371MOL0     C50010   1.711   1.827   5.654 -0.3645  0.3335 -0.1621
  371MOL0     C50011   1.600   1.761   5.746  0.9533  0.6386  0.2980
  371MOL0     C50012   1.477   1.844   5.792  0.5440 -0.8502 -0.3810
  371MOL0     C50013   1.403   1.881   5.675  0.2211  1.0615 -0.4429
  371MOL0     C50014   1.327   1.911   5.583  0.4000  0.5830  0.3403
  371MOL0     C50015   2.046   1.580   5.864 -0.1599  0.6548 -0.4652
  371MOL0     C50016   2.183   1.550   5.882 -0.7650 -0.0890 -0.1753
  371MOL0     C50017   2.200   1.405   5.914 -1.0794 -0.1672 -0.8477
  371MOL0     H50018   2.634   1.335   5.877  0.4476 -1.3774  1.2339
  371MOL0     H50019   2.877   1.328   5.949  1.6587 -0.7195  1.9109
  371MOL0     H50020   3.062   1.444   5.917  1.5264 -0.5953 -0.0137
  371MOL0     H50021   3.108   1.613   5.978  1.2242 -0.7526  0.1172
  371MOL0     H50022   3.312   1.481   5.980  1.1019 -0.9281  2.0452
  371MOL0     H50023   3.225   1.355   6.062  1.5684 -0.0902 -1.4149
  371MOL0     H50024   3.230   1.485   6.259 -2.9375  1.0760 -1.0299
  371MOL0     H50025   3.248   1.640   6.164 -0.4244 -0.1189 -0.6328
  371MOL0     H50026   3.452   1.419   6.172 -0.3786 -0.0319  0.7494
  371MOL0     H50027   3.475   1.594   6.128  1.6156  0.0142  1.0867
  371MOL0     H50028   3.397   1.662   6.345 -0.4950  0.5846 -0.4021
  371MOL0     H50029   3.411   1.499   6.414 -2.1150  2.6997  1.8640
  371MOL0     H50030   3.645   1.660   6.297  0.9286  1.5624  1.3825
  371MOL0     H50031   3.601   1.644   6.459  0.0276  0.3954 -0.4861
  371MOL0     H50032   3.788   1.483   6.387  0.6670  1.3571 -5.9238
  371MOL0     H50033   3.673   1.406   6.276  0.8966  2.0109 -0.8076
  371MOL0     H50034   3.593   1.421   6.565  0.3937  0.5266 -0.2194
  371MOL0     H50035   3.557   1.309   6.437  0.6929 -0.8112 -1.9022
  371MOL0     H50036   3.866   1.441   6.614  1.5158  0.1235  0.6283
  371MOL0     H50037   4.083   1.288   6.768  1.4967  2.0532 -0.9542
  371MOL0     H50038   4.131   1.138   6.685  0.9803  0.5395 -0.1347
  371MOL0     H50039   4.153   1.422   6.565  1.5188  0.3113 -0.4054
  371MOL0     H50040   4.290   1.323   6.616 -0.2959 -1.2245  2.1802
  371MOL0     H50041   4.250   1.310   6.371 -1.7873  1.7656 -1.8190
  371MOL0     H50042   4.076   1.285   6.385 -1.0927 -1.3603  2.6228
  371MOL0     H50043   4.139   1.043   6.446 -0.6802  0.8940  0.3924
  371MOL0     H50044   4.308   1.097   6.477 -0.4296 -1.5410  0.4003
  371MOL0     H50045   3.974   1.082   6.330 -0.6867  2.1496 -0.3424
  371MOL0     H50046   3.798   1.075   6.159  0.1380  0.5866 -2.1506
  371MOL0     H50047   3.529   0.801   5.874  2.4463  0.2051  0.7336
  371MOL0     H50048   3.339   0.835   5.732  2.0288 -1.3332  2.6098
  371MOL0     H50049   3.098   0.957   5.728 -3.6342  1.4430 -2.0430
  371MOL0     H50050   3.125   1.126   5.797 -3.2925  0.9542 -0.4988
  371MOL0     H50051   3.008   1.060   5.525  0.5350  0.0974 -0.3442
  371MOL0     H50052   2.910   1.101   5.672  0.2186 -0.5686  0.4685
  371MOL0     H50053   2.946   1.323   5.665  2.2931  5.3548  0.9994
  371MOL0     H50054   3.119   1.300   5.647 -0.7625  0.8939  0.8104
  371MOL0     H50055   2.907   1.263   5.429  0.2985 -0.2384 -0.4441
  371MOL0     H50056   3.082   1.265   5.400 -1.0514  0.6511 -2.0888
  371MOL0     H50057   2.964   1.492   5.349 -1.2620 -0.3723 -0.4082
  371MOL0     H50058   3.100   1.507   5.464 -1.0320  0.7566  0.4548
  371MOL0     H50059   2.815   1.477   5.542 -0.0519  0.7439  0.6748
  371MOL0     H50060   2.954   1.524   5.648  2.1768  1.0719 -0.3728
  371MOL0     H50061   2.911   1.713   5.420  2.9044  0.2642 -0.2167
  371MOL0     H50062   3.004   1.708   5.565  2.3563 -6.4574  0.7002
  371MOL0     H50063   2.828   1.725   5.723  0.9448 -2.9838 -1.2134
  371MOL0     H50064   2.810   1.857   5.615 -0.5790  0.6281  3.0575
  371MOL0     H50065   3.418   1.264   5.727 -1.6214 -0.1131  0.7176
  371MOL0     H50066   3.614   1.217   5.861 -0.1843  1.0792 -1.5576
  371MOL0     H50067   4.103   1.020   5.857  0.1925 -0.5014 -0.8066
  371MOL0     H50068   4.274   0.998   6.040  0.8999 -1.2295  3.4371
  371MOL0     H50069   2.825   1.665   6.199 -0.4854  0.7307 -0.9818
  371MOL0     H50070   2.590   1.662   6.148  0.3777 -0.5054 -1.1959
  371MOL0     H50071   2.298   1.854   5.843 -1.2848  0.5322  0.6365
  371MOL0     H50072   2.084   1.901   5.768  1.6040 -1.5148 -1.5615
  371MOL0     H50073   1.838   1.682   5.569  0.4152  1.4751 -0.6126
  371MOL0     H50074   1.911   1.845   5.606  1.0631 -1.3151  0.9321
  371MOL0     H50075   1.677   1.833   5.550 -2.4407  0.8086  0.4862
  371MOL0     H50076   1.719   1.931   5.687  1.2882  0.2562 -0.2527
  371MOL0     H50077   1.647   1.719   5.835  2.2328  2.7103  0.6874
  371MOL0     H50078   1.556   1.675   5.695 -1.4338  0.6624  2.1727
  371MOL0     H50079   1.423   1.784   5.865  1.7710  1.2019  2.3879
  371MOL0     H50080   1.505   1.935   5.846  0.3104 -1.7313  1.2968
  371MOL0     H50081   1.255   1.918   5.504  0.8725 -2.9553 -0.5750
  371MOL0     H50082   1.968   1.505   5.864 -0.4556  0.9475  0.6004
  371MOL0     H50083   2.124   1.344   5.865  2.4956 -0.6581 -6.7361
  371MOL0     H50084   2.293   1.375   5.867  1.3758  1.8978  2.2701
  371MOL0     H50085   2.215   1.388   6.021  4.3786 -1.7078 -1.5913
  372MOL0     O50086   2.431   8.700   1.648  0.0123  0.3427  1.1351
  372MOL0     C50087   2.309   8.704   1.651 -0.2209 -0.0897  0.3837
  372MOL0     O50088   2.219   8.612   1.605 -1.0546  0.5831 -1.1157
  372MOL0     C50089   2.274   8.494   1.560  0.7091  0.6286  1.1376
  372MOL0     C50090   2.258   8.377   1.636 -0.0992 -0.2522  0.5878
  372MOL0     C50091   2.327   8.266   1.600 -0.2962  0.4337  0.0342
  372MOL0     C50092   2.406   8.257   1.483  0.7280  0.2109 -0.4870
  372MOL0     O50093   2.484   8.140   1.471 -0.5653  0.0735  0.6742
  372MOL0     C50094   2.432   8.017   1.522  0.1310  0.1495 -0.1309
  372MOL0     C50095   2.518   7.892   1.477 -0.1451 -0.7751  0.1049
  372MOL0     C50096   2.462   7.751   1.524 -0.0754 -0.9484  0.5616
  372MOL0     C50097   2.549   7.715   1.641 -0.6103  0.6878  0.5404
  372MOL0     C50098   2.508   7.588   1.707 -0.5359  0.1640  0.3786
  372MOL0     C50099   2.461   7.609   1.846  0.0108 -0.2299 -0.6685
  372MOL0     C50100   2.476   7.474   1.919 -0.5514  0.0822  0.4563
  372MOL0     C50101   2.416   7.487   2.062  1.1218 -0.1043  0.1787
  372MOL0     N50102   2.364   7.359   2.115  0.4023  0.1297  0.0133
  372MOL0     C50103   2.343   7.334   2.247 -0.4355 -1.2543  0.4884
  372MOL0     C50104   2.270   7.221   2.248 -0.2455 -0.5716 -0.5100
  372MOL0     C50105   2.251   7.139   2.379 -0.4856 -0.6550  0.2888
  372MOL0     C50106   2.146   7.040   2.354 -0.4243  0.4942  0.3162
  372MOL0     C50107   2.103   6.961   2.485  0.2680  0.7479 -0.4257
  372MOL0     C50108   1.967   6.886   2.482 -0.4359 -0.4090  0.5853
  372MOL0     O50109   1.990   6.799   2.597 -0.5261 -0.7108 -0.0083
  372MOL0     C50110   1.920   6.683   2.599 -0.4651 -0.1295  0.7024
  372MOL0     C50111   1.796   6.666   2.522 -0.4021  1.1829  0.8320
  372MOL0     C50112   1.730   6.539   2.535  0.2766 -0.6974 -0.4286
  372MOL0     C50113   1.783   6.429   2.610 -0.3380 -0.0883  0.3299
  372MOL0     C50114   1.700   6.307   2.623  0.8499 -0.1993 -0.7009
  372MOL0     O50115   1.763   6.210   2.690 -0.1952 -0.3626  0.5893
  372MOL0     C50116   1.722   6.089   2.717 -0.3822  0.2807  0.7313
  372MOL0     C50117   1.796   6.032   2.811 -0.1203  0.7039 -1.3129
  372MOL0     C50118   1.779   5.903   2.856  0.1583  0.9253  0.3248
  372MOL0     C50119   1.675   5.823   2.797 -0.4006  1.3885 -0.0355
  372MOL0     O50120   1.685   5.684   2.825  0.0994 -0.5068  0.3615
  372MOL0     C50121   1.595   5.596   2.750  0.3834  0.3551  0.2333
  372MOL0     C50122   1.637   5.453   2.781 -0.1354  0.1324  0.6056
  372MOL0     C50123   1.583   5.400   2.913 -0.2306 -0.1186 -0.4903
  372MOL0     C50124   1.687   5.308   2.992 -0.1768  0.0602  0.1671
  372MOL0     C50125   1.634   5.259   3.129 -0.1182 -0.4000  0.4456
  372MOL0     C50126   1.524   5.156   3.107  0.6793 -0.8751 -0.8606
  372MOL0     C50127   1.487   5.097   3.249  0.2404 -0.1962  0.4424
  372MOL0     C50128   1.428   4.956   3.255  0.1522 -0.1184  0.2274
  372MOL0    Cl50129   1.284   4.959   3.144  0.0077 -0.1284  0.4442
  372MOL0     C50130   1.605   5.878   2.691  0.5350  0.6167 -0.3138
  372MOL0     C50131   1.616   6.015   2.663 -0.0102  0.9824  0.1287
  372MOL0     O50132   1.592   6.309   2.566  0.8735 -0.6033  0.1748
  372MOL0     C50133   1.905   6.457   2.674 -0.6019  0.6406 -0.1542
  372MOL0     C50134   1.976   6.581   2.677 -0.0362 -0.0424  0.1724
  372MOL0     N50135   2.231   7.193   2.123  0.0756 -0.4675 -0.6161
  372MOL0     N50136   2.273   7.286   2.044  0.2922  0.0060 -0.2361
  372MOL0     C50137   2.424   8.377   1.413  0.3020  0.3731 -0.2936
  372MOL0     C50138   2.345   8.491   1.438  0.4106  0.5575  0.4287
  372MOL0     C50139   2.244   8.826   1.692 -0.6133 -0.2289  0.6292
  372MOL0     C50140   2.235   8.941   1.608 -0.3313 -0.0056  0.5922
  372MOL0     C50141   2.179   9.064   1.658 -1.1511  0.3837  0.5977
  372MOL0     C50142   2.125   9.063   1.786  0.9538 -0.6658 -0.1028
  372MOL0     O50143   2.061   9.162   1.852 -0.1588  0.2944  0.5090
  372MOL0     C50144   2.071   9.283   1.782 -0.0235 -1.0239  0.1877
  372MOL0     C50145   2.001   9.381   1.875  0.4345  0.0313  0.8240
  372MOL0     C50146   2.002   9.526   1.821 -0.2669  0.1318 -0.0493
  372MOL0     C50147   1.921   9.619   1.919 -0.8021  1.6102  0.1561
  372MOL0     C50148   1.954   9.760   1.882  1.4166  1.1236  1.0669
  372MOL0     C50149   1.970   9.876   1.859 -1.4560 -0.1391  0.4960
  372MOL0     C50150   2.117   8.936   1.862  0.7245 -1.0486  1.1004
  372MOL0     C50151   2.169   8.829   1.813 -0.3292  0.8062  0.0891
  372MOL0     C50152   2.153   8.701   1.893  0.0702  0.0920 -0.3651
  372MOL0     H50153   2.191   8.367   1.720 -0.8212  3.2874  0.5747
  372MOL0     H50154   2.315   8.178   1.662  1.7888 -1.1120 -1.5976
  372MOL0     H50155   2.449   8.014   1.631  1.9434  0.7663 -0.3588
  372MOL0     H50156   2.327   8.006   1.496 -0.4958 -3.3640  3.0198
  372MOL0     H50157   2.609   7.914   1.533  0.3091 -0.7294 -0.6380
  372MOL0     H50158   2.545   7.887   1.371  0.1569  0.5115  0.1145
  372MOL0     H50159   2.477   7.679   1.443  0.6740  0.3959 -0.5408
  372MOL0     H50160   2.358   7.748   1.559  0.0409 -3.9582  0.9824
  372MOL0     H50161   2.650   7.700   1.601 -1.0033 -0.5797 -0.0383
  372MOL0     H50162   2.559   7.787   1.723 -1.3092 -0.2683  1.4784
  372MOL0     H50163   2.435   7.531   1.649 -2.2464  0.4631  2.1415
  372MOL0     H50164   2.602   7.533   1.705 -0.3165  0.5260 -2.1650
  372MOL0     H50165   2.515   7.684   1.904 -1.4839 -0.5309  1.2144
  372MOL0     H50166   2.355   7.634   1.837  0.2546  2.0305  1.4254
  372MOL0     H50167   2.584   7.467   1.933  0.0003  2.0010 -2.1035
  372MOL0     H50168   2.429   7.388   1.870 -1.7516  0.2902  1.1953
  372MOL0     H50169   2.492   7.518   2.134  0.1568 -0.3398  1.3208
  372MOL0     H50170   2.340   7.564   2.071  1.0919 -0.3972  3.4054
  372MOL0     H50171   2.384   7.379   2.337 -2.2168 -0.2396  0.8539
  372MOL0     H50172   2.344   7.093   2.412  0.8135  0.5305 -1.4804
  372MOL0     H50173   2.212   7.211   2.451  0.4784 -1.5855  1.7757
  372MOL0     H50174   2.051   7.088   2.330  0.0202  1.1893 -0.1033
  372MOL0     H50175   2.180   6.977   2.271 -0.8189  2.4376 -1.4157
  372MOL0     H50176   2.086   7.038   2.561 -0.0305  1.1992 -0.9458
  372MOL0     H50177   2.192   6.906   2.516 -0.8756 -0.4540  0.8675
  372MOL0     H50178   1.963   6.834   2.386  5.3003 -0.9185  0.2462
  372MOL0     H50179   1.877   6.946   2.494 -1.2663 -1.4453 -0.3231
  372MOL0     H50180   1.746   6.735   2.455 -1.9686 -0.1587  0.5303
  372MOL0     H50181   1.634   6.529   2.485 -0.6287 -0.7916  1.2762
  372MOL0     H50182   1.884   6.082   2.850 -0.0683 -0.9117  0.8010
  372MOL0     H50183   1.835   5.847   2.930 -4.3278 -2.9025  1.2840
  372MOL0     H50184   1.493   5.617   2.783  0.8138 -1.1611  2.8192
  372MOL0     H50185   1.594   5.594   2.641 -1.0580 -0.3023  0.2438
  372MOL0     H50186   1.617   5.386   2.697  1.9186  2.8550 -2.2720
  372MOL0     H50187   1.746   5.461   2.789  0.2196  6.3340 -3.6334
  372MOL0     H50188   1.549   5.480   2.979 -1.9971 -0.2122 -1.2265
  372MOL0     H50189   1.490   5.344   2.902 -0.6964  0.8491 -1.6414
  372MOL0     H50190   1.779   5.367   3.002 -2.2649  3.6699  0.0275
  372MOL0     H50191   1.719   5.228   2.925  0.4090  1.7982 -1.7458
  372MOL0     H50192   1.603   5.349   3.183 -0.3551 -0.4204  0.3476
  372MOL0     H50193   1.715   5.220   3.190 -0.9517  0.9955  2.5666
  372MOL0     H50194   1.434   5.210   3.076  1.2593  1.8036  1.6127
  372MOL0     H50195   1.562   5.074   3.045  0.6869 -1.8250  0.3564
  372MOL0     H50196   1.416   5.164   3.298 -2.3193 -1.9787 -0.5748
  372MOL0     H50197   1.573   5.083   3.315 -0.7484 -0.3938  1.7211
  372MOL0     H50198   1.495   4.874   3.229  0.9269 -0.0599  1.8930
  372MOL0     H50199   1.405   4.920   3.356  3.1955  1.0883  1.4477
  372MOL0     H50200   1.525   5.828   2.637  1.4406  0.7167 -1.8060
  372MOL0     H50201   1.552   6.072   2.596  1.5972  2.2577 -0.3872
  372MOL0     H50202   1.945   6.381   2.740 -0.4292 -2.5770 -3.6517
  372MOL0     H50203   2.070   6.590   2.731 -0.6355  0.8482  1.0882
  372MOL0     H50204   2.506   8.393   1.344  1.1331 -1.6559  0.1526
  372MOL0     H50205   2.364   8.580   1.378 -1.7915 -1.0400 -2.9275
  372MOL0     H50206   2.275   8.943   1.507 -2.1618 -1.2828 -0.2122
  372MOL0     H50207   2.175   9.153   1.595  1.9834  0.8935  0.9543
  372MOL0     H50208   2.024   9.283   1.683 -0.7618 -0.4279  0.5282
  372MOL0     H50209   2.174   9.318   1.769 -0.0816 -0.9810 -0.1574
  372MOL0     H50210   2.052   9.385   1.971  2.4418 -1.4523 -0.0952
  372MOL0     H50211   1.897   9.353   1.895 -0.0821 -1.4741 -3.0244
  372MOL0     H50212   1.947   9.523   1.726 -0.7245  0.3364  0.2089
  372MOL0     H50213   2.101   9.553   1.783 -0.4740 -2.2886 -2.6682
  372MOL0     H50214   1.814   9.599   1.924 -0.3143 -1.4173  0.4254
  372MOL0     H50215   1.949   9.611   2.025  2.0373  3.8951 -0.2922
  372MOL0     H50216   1.989   9.979   1.839 -1.9345 -0.5106 -2.3414
  372MOL0     H50217   2.063   8.937   1.956  1.3489  1.2606  1.5163
  372MOL0     H50218   2.094   8.622   1.844 -0.3026  0.8953 -1.2564
  372MOL0     H50219   2.255   8.670   1.914 -1.2881 -3.2625  2.2479
  372MOL0     H50220   2.096   8.715   1.985 -0.3816 -0.4994 -0.5443
  373MOL0     O50221   5.472   0.031   3.331 -0.7975  0.4861 -0.0602
  373MOL0     C50222   5.473  -0.009   3.213  0.0638  0.1608 -0.5192
  373MOL0     O50223   5.369  -0.074   3.148  0.4835  0.4821  1.1582
  373MOL0     C50224   5.268  -0.137   3.226 -0.1904 -1.4435 -0.5046
  373MOL0     C50225   5.211  -0.250   3.171 -1.0234  0.7491 -0.3696
  373MOL0     C50226   5.128  -0.333   3.247 -0.8901  0.1931 -0.0521
  373MOL0     C50227   5.063  -0.281   3.355  0.9456 -0.9514  0.2858
  373MOL0     O50228   4.965  -0.357   3.415  0.0714 -0.7369 -0.6762
  373MOL0     C50229   4.913  -0.316   3.545  0.6138 -0.5287  0.2187
  373MOL0     C50230   4.830  -0.440   3.603  0.5165  0.3673  0.2720
  373MOL0     C50231   4.753  -0.392   3.722 -0.5248  0.7482 -0.5431
  373MOL0     C50232   4.669  -0.500   3.795  0.0152 -0.0684  0.4450
  373MOL0     C50233   4.704  -0.522   3.940 -0.7617  0.0951  0.3055
  373MOL0     C50234   4.843  -0.586   3.962 -0.8825  0.3956 -0.4186
  373MOL0     C50235   4.883  -0.564   4.113  0.1890 -0.4334 -0.7891
  373MOL0     C50236   4.786  -0.630   4.219  0.5469 -1.0354  0.3258
  373MOL0     N50237   4.800  -0.773   4.188 -1.1418  0.4174  0.5848
  373MOL0     C50238   4.703  -0.848   4.135  0.6662 -0.7376  0.0767
  373MOL0     C50239   4.764  -0.979   4.127  0.4850 -0.2771  0.3913
  373MOL0     C50240   4.685  -1.092   4.073 -0.4598 -1.4225 -0.0754
  373MOL0     C50241   4.669  -1.217   4.164  0.3370  0.1154 -0.2171
  373MOL0     C50242   4.804  -1.276   4.202 -0.0565  0.1480  0.3389
  373MOL0     C50243   4.816  -1.426   4.238 -0.1335  0.3022  0.8269
  373MOL0     O50244   4.819  -1.503   4.119 -0.3623  0.2376 -0.2614
  373MOL0     C50245   4.857  -1.641   4.115 -0.6122  0.1310  1.0780
  373MOL0     C50246   4.907  -1.707   3.997  0.2148  0.3797 -1.0888
  373MOL0     C50247   4.973  -1.823   3.998  0.0840 -0.9059  0.3301
  373MOL0     C50248   4.975  -1.898   4.121  0.3461 -0.9597 -0.0239
  373MOL0     C50249   5.022  -2.035   4.130  0.6417 -0.5326  0.3324
  373MOL0     O50250   4.996  -2.100   4.248 -0.1956 -0.1988  0.4675
  373MOL0     C50251   5.036  -2.226   4.248 -0.6727  0.3440  1.0684
  373MOL0     C50252   4.939  -2.325   4.261 -0.0187  0.0258  0.2514
  373MOL0     C50253   4.970  -2.459   4.287  0.0417 -0.8458  0.2344
  373MOL0     C50254   5.106  -2.493   4.302 -0.3568  0.1267  0.4504
  373MOL0     O50255   5.146  -2.617   4.342  0.0020  0.6584 -0.6610
  373MOL0     C50256   5.087  -2.732   4.283  0.3301  0.0460 -0.8791
  373MOL0     C50257   5.111  -2.847   4.383 -1.0845 -0.2521  0.1222
  373MOL0     C50258   5.025  -2.829   4.508 -0.8264  0.5819 -0.3080
  373MOL0     C50259   4.930  -2.946   4.538  0.6552  0.0942  0.6649
  373MOL0     C50260   4.857  -2.941   4.673  0.3462 -0.2563 -0.6758
  373MOL0     C50261   4.941  -2.946   4.798 -0.2236 -0.3336  0.5393
  373MOL0     C50262   4.853  -2.929   4.922  0.0753  0.2247  0.3674
  373MOL0     C50263   4.948  -2.885   5.034 -0.6506 -0.7585 -0.6171
  373MOL0    Cl50264   5.070  -3.004   5.084 -0.1691 -0.2114 -0.3700
  373MOL0     C50265   5.201  -2.389   4.298 -0.0689 -0.3918 -0.1762
  373MOL0     C50266   5.164  -2.256   4.263 -0.3308 -0.0823  0.4073
  373MOL0     O50267   5.079  -2.078   4.028  0.5117  0.1146 -0.3150
  373MOL0     C50268   4.920  -1.838   4.232  0.1207  0.4532  0.4197
  373MOL0     C50269   4.853  -1.719   4.235  0.6227  0.5571  0.2467
  373MOL0     N50270   4.897  -0.969   4.168  0.0102  0.4431 -0.8324
  373MOL0     N50271   4.918  -0.848   4.199 -0.2650  0.8439 -0.6141
  373MOL0     C50272   5.110  -0.154   3.405  0.6827 -0.5028  0.6264
  373MOL0     C50273   5.216  -0.086   3.339  0.6726  0.4520  0.3969
  373MOL0     C50274   5.592   0.025   3.128 -0.2130 -1.5541 -1.0479
  373MOL0     C50275   5.621  -0.072   3.031  0.4267 -1.3584 -0.5518
  373MOL0     C50276   5.718  -0.049   2.942  0.0240  0.2491 -0.1378
  373MOL0     C50277   5.783   0.069   2.930 -0.6070 -0.3031  0.0828
  373MOL0     O50278   5.871   0.108   2.834  0.1988 -0.1492 -0.0815
  373MOL0     C50279   5.875   0.032   2.709 -0.2805  0.2528 -0.0366
  373MOL0     C50280   5.943   0.121   2.610  1.0179 -0.1793  0.6348
  373MOL0     C50281   6.080   0.181   2.656 -0.2118  0.4839 -0.0548
  373MOL0     C50282   6.127   0.266   2.536 -0.1565  0.7571  0.4998
  373MOL0     C50283   6.240   0.356   2.572 -0.2700 -0.1430  0.2557
  373MOL0     C50284   6.322   0.430   2.617 -0.4795 -0.1474 -0.0418
  373MOL0     C50285   5.753   0.171   3.031 -0.4595 -0.0765  0.0422
  373MOL0     C50286   5.666   0.146   3.139 -0.1180 -0.0550 -0.0113
  373MOL0     C50287   5.632   0.257   3.235  0.5394  0.9201  0.0417
  373MOL0     H50288   5.253  -0.291   3.080  2.1043  3.5772 -0.4216
  373MOL0     H50289   5.081  -0.418   3.198 -0.6891 -0.1381  0.3177
  373MOL0     H50290   4.992  -0.284   3.614 -1.8065  0.7786  2.6082
  373MOL0     H50291   4.852  -0.225   3.549  0.3741 -0.6001 -1.2284
  373MOL0     H50292   4.896  -0.526   3.621 -0.3655  0.1366  2.6667
  373MOL0     H50293   4.750  -0.471   3.535  0.4363 -0.8026  0.8768
  373MOL0     H50294   4.700  -0.301   3.692 -0.6750  0.3786 -1.4299
  373MOL0     H50295   4.830  -0.358   3.792  0.7718  2.7369 -2.7793
  373MOL0     H50296   4.562  -0.475   3.788 -0.2577 -0.8418  1.5893
  373MOL0     H50297   4.679  -0.597   3.746  1.2410 -0.8340  2.1027
  373MOL0     H50298   4.707  -0.419   3.976 -2.8742  1.1072 -2.1161
  373MOL0     H50299   4.627  -0.575   3.996 -1.2599  2.0331  1.5514
  373MOL0     H50300   4.849  -0.691   3.931 -0.5397  0.9478 -2.3615
  373MOL0     H50301   4.922  -0.539   3.902 -0.0259 -0.6403 -0.1401
  373MOL0     H50302   4.898  -0.457   4.128 -2.4633  0.1342 -1.6482
  373MOL0     H50303   4.983  -0.606   4.126  0.1760  0.2621  2.1302
  373MOL0     H50304   4.827  -0.604   4.317  4.3113 -0.6722 -1.1640
  373MOL0     H50305   4.680  -0.604   4.209  0.5047 -0.2665  2.2310
  373MOL0     H50306   4.597  -0.824   4.133  0.2975 -2.3381 -0.5415
  373MOL0     H50307   4.588  -1.051   4.042 -0.8201 -2.8755 -1.0094
  373MOL0     H50308   4.720  -1.122   3.974 -2.5289 -0.3418 -1.2147
  373MOL0     H50309   4.612  -1.189   4.254 -0.5153 -1.8439 -0.0903
  373MOL0     H50310   4.611  -1.288   4.103 -0.7283  2.3757 -1.9586
  373MOL0     H50311   4.835  -1.207   4.281  1.5074 -1.2814  1.0427
  373MOL0     H50312   4.873  -1.260   4.118 -1.8630  0.7611 -1.1073
  373MOL0     H50313   4.745  -1.460   4.314 -0.3683  0.5538  0.7219
  373MOL0     H50314   4.909  -1.437   4.294 -0.1309  0.2164  0.8063
  373MOL0     H50315   4.874  -1.650   3.911  0.1260 -0.2612 -1.4857
  373MOL0     H50316   5.027  -1.866   3.914  1.3183 -0.6139  0.9473
  373MOL0     H50317   4.844  -2.280   4.233  0.4319  0.6208 -0.3716
  373MOL0     H50318   4.883  -2.524   4.288 -3.3274  3.0896 -2.1336
  373MOL0     H50319   4.985  -2.719   4.246 -0.1720 -0.7109  0.1839
  373MOL0     H50320   5.151  -2.762   4.200 -0.1299 -2.4521 -0.4130
  373MOL0     H50321   5.091  -2.943   4.334 -1.8490 -0.1270  0.1750
  373MOL0     H50322   5.218  -2.837   4.405 -0.7322  1.9251 -2.0434
  373MOL0     H50323   5.100  -2.817   4.587  0.2404 -2.9184 -0.6051
  373MOL0     H50324   4.968  -2.737   4.516 -0.1551  1.0555 -0.8178
  373MOL0     H50325   4.976  -3.045   4.542 -0.5312 -0.5790 -1.2259
  373MOL0     H50326   4.871  -2.953   4.446  0.4435 -1.5490  0.8944
  373MOL0     H50327   4.771  -3.009   4.675 -0.8951  1.1171  3.4951
  373MOL0     H50328   4.796  -2.850   4.678 -1.1745 -1.2274 -0.6020
  373MOL0     H50329   4.980  -3.048   4.793  0.3871 -0.0624 -0.6352
  373MOL0     H50330   5.013  -2.864   4.798  0.0914 -0.5821  1.6944
  373MOL0     H50331   4.819  -3.028   4.955  0.1247  0.0807 -0.0173
  373MOL0     H50332   4.772  -2.858   4.904  0.4764 -0.0113 -2.8460
  373MOL0     H50333   4.999  -2.789   5.022 -2.8452  0.7820  1.4237
  373MOL0     H50334   4.886  -2.869   5.123  1.1402  0.9358  0.4074
  373MOL0     H50335   5.304  -2.407   4.327  0.3597  0.3514 -1.1866
  373MOL0     H50336   5.226  -2.168   4.267 -1.9721  1.2908 -1.8642
  373MOL0     H50337   4.915  -1.886   4.329 -1.6098  2.1814  1.2663
  373MOL0     H50338   4.833  -1.677   4.333  0.2377  0.3375  0.2642
  373MOL0     H50339   5.089  -0.106   3.501  1.3708 -0.1216  0.5956
  373MOL0     H50340   5.257   0.006   3.380  2.1915 -0.8921  2.0697
  373MOL0     H50341   5.583  -0.173   3.034  1.8399 -1.9219 -0.4822
  373MOL0     H50342   5.749  -0.123   2.869  0.6919 -1.4076  1.7350
  373MOL0     H50343   5.778  -0.005   2.674 -0.5407  0.4524  0.4602
  373MOL0     H50344   5.943  -0.053   2.719  0.4750  0.7275 -0.9489
  373MOL0     H50345   5.878   0.203   2.578  0.9528 -0.4072  0.1706
  373MOL0     H50346   5.950   0.068   2.514  0.8440  1.9361 -0.6173
  373MOL0     H50347   6.156   0.104   2.677 -0.1714  0.1449 -1.3586
  373MOL0     H50348   6.071   0.248   2.742 -3.9178  0.0055  0.0653
  373MOL0     H50349   6.150   0.217   2.441 -0.5464 -1.7734  1.6143
  373MOL0     H50350   6.044   0.333   2.514  0.1191  0.9759  0.1246
  373MOL0     H50351   6.371   0.513   2.663  1.1968 -0.6573 -0.8428
  373MOL0     H50352   5.809   0.264   3.022 -2.2694  0.9372 -1.9280
  373MOL0     H50353   5.713   0.328   3.255  0.1368  0.6406  3.2309
  373MOL0     H50354   5.542   0.307   3.196 -1.5396 -2.2926  0.3598
  373MOL0     H50355   5.599   0.214   3.330  1.1613  0.5288  0.0813
  374MOL0     O50356   4.389   7.369   4.306  0.7694  0.1815  0.2032
  374MOL0     C50357   4.466   7.339   4.216  0.3106  0.7172  0.0268
  374MOL0     O50358   4.519   7.421   4.131 -0.4463  0.1718 -0.6144
  374MOL0     C50359   4.477   7.549   4.120  0.0541  0.1044  0.9771
  374MOL0     C50360   4.336   7.563   4.086  0.0273  0.0440  0.0268
  374MOL0     C50361   4.295   7.690   4.053  0.3616 -0.3150  1.1209
  374MOL0     C50362   4.380   7.801   4.040 -0.0120 -0.7715  0.0137
  374MOL0     O50363   4.345   7.928   4.006 -0.6714 -0.7359 -0.5877
  374MOL0     C50364   4.206   7.948   3.993  0.4723 -0.8705 -0.6454
  374MOL0     C50365   4.164   8.084   3.928 -0.4713  0.7802  0.7020
  374MOL0     C50366   4.150   8.205   4.020  0.4060 -0.9201 -0.4109
  374MOL0     C50367   4.286   8.254   4.066  1.1232 -0.2162  1.0262
  374MOL0     C50368   4.263   8.403   4.118 -0.8908 -0.3854  0.1834
  374MOL0     C50369   4.403   8.464   4.147  0.1484 -0.3726 -0.8087
  374MOL0     C50370   4.421   8.606   4.208 -0.7984 -0.3843 -0.3567
  374MOL0     C50371   4.587   8.629   4.231  0.3854 -0.2987  0.1082
  374MOL0     N50372   4.614   8.768   4.239 -0.1473 -0.2379 -0.2205
  374MOL0     C50373   4.614   8.839   4.358  0.2916  0.6703  0.1744
  374MOL0     C50374   4.596   8.966   4.323  0.5594 -0.7358  0.3728
  374MOL0     C50375   4.566   9.082   4.419 -0.0619 -0.2078 -0.0042
  374MOL0     C50376   4.424   9.060   4.474  0.1929  1.3380  0.4201
  374MOL0     C50377   4.384   9.171   4.569 -0.0176  0.0106  0.0178
  374MOL0     C50378   4.323   9.273   4.477 -0.2438 -0.2611 -0.3739
  374MOL0     O50379   4.185   9.239   4.447  0.4173  0.3794 -0.0697
  374MOL0     C50380   4.114   9.326   4.363 -0.7717 -0.7563  0.1316
  374MOL0     C50381   3.979   9.328   4.384  0.0225  0.0361 -0.2218
  374MOL0     C50382   3.894   9.417   4.314 -0.1833  1.3120  0.3243
  374MOL0     C50383   3.952   9.510   4.221  0.6923  0.4163  0.0336
  374MOL0     C50384   3.869   9.599   4.152 -0.3713  0.7865  0.1325
  374MOL0     O50385   3.755   9.638   4.203 -0.1082  0.2088  0.4946
  374MOL0     C50386   3.656   9.717   4.137  0.2350 -0.6020  0.5316
  374MOL0     C50387   3.537   9.746   4.207  1.1379 -0.7132 -0.3466
  374MOL0     C50388   3.441   9.834   4.157  0.1844 -0.4007  0.2390
  374MOL0     C50389   3.449   9.863   4.020  0.6110 -0.3944  0.2990
  374MOL0     O50390   3.357   9.934   3.948 -0.0323  0.7977  0.5955
  374MOL0     C50391   3.222   9.932   4.000  0.1281  0.3034 -1.0408
  374MOL0     C50392   3.127   9.998   3.906 -0.3480 -0.0982 -0.1555
  374MOL0     C50393   3.166  10.147   3.889  0.0478  0.0152  0.3254
  374MOL0     C50394   3.113  10.232   4.009 -0.9407 -0.4654  0.5343
  374MOL0     C50395   3.186  10.360   4.010  0.1906  0.4236 -0.8474
  374MOL0     C50396   3.163  10.441   4.132  1.0505  0.5825 -0.0325
  374MOL0     C50397   3.272  10.433   4.241 -0.1770 -0.6617 -0.6399
  374MOL0     C50398   3.238  10.531   4.360  0.0355  0.1734  0.3537
  374MOL0    Cl50399   3.207  10.708   4.320 -0.6024  0.1741  0.0074
  374MOL0     C50400   3.566   9.827   3.945  0.8161 -0.1612 -0.2869
  374MOL0     C50401   3.662   9.748   3.998 -0.5174 -0.4862 -0.1813
  374MOL0     O50402   3.920   9.634   4.048 -0.4138 -0.1916  0.1298
  374MOL0     C50403   4.089   9.507   4.200 -0.4901 -0.0960 -0.3285
  374MOL0     C50404   4.172   9.420   4.272  0.6356 -0.5623  0.3300
  374MOL0     N50405   4.610   8.969   4.180 -0.7938 -0.3419  0.0550
  374MOL0     N50406   4.626   8.855   4.137 -0.1264 -0.2654  0.3293
  374MOL0     C50407   4.521   7.778   4.060  0.8630  0.1952  0.1780
  374MOL0     C50408   4.562   7.655   4.107 -0.1247 -0.2231  0.6733
  374MOL0     C50409   4.520   7.204   4.225  0.4495 -0.3806  0.5979
  374MOL0     C50410   4.443   7.102   4.288  0.9595 -0.0007  0.2543
  374MOL0     C50411   4.483   6.962   4.294 -0.4297  0.6567 -0.6443
  374MOL0     C50412   4.617   6.930   4.261 -0.1556  0.4478 -0.4502
  374MOL0     O50413   4.649   6.796   4.269  0.9044 -0.7999 -0.1592
  374MOL0     C50414   4.795   6.775   4.257  0.1129  0.2057  0.0900
  374MOL0     C50415   4.820   6.633   4.300  0.1813 -0.6185 -0.4317
  374MOL0     C50416   4.946   6.575   4.230  0.6266 -0.5130  0.4107
  374MOL0     C50417   4.923   6.504   4.094 -0.2798 -0.2356  0.1023
  374MOL0     C50418   5.048   6.498   4.025  0.8305  0.7436  0.5469
  374MOL0     C50419   5.163   6.490   3.997 -0.0651  0.3244 -1.2997
  374MOL0     C50420   4.700   7.034   4.207  0.1570 -0.0201 -0.0885
  374MOL0     C50421   4.659   7.172   4.184  0.2395  0.5892 -0.6867
  374MOL0     C50422   4.756   7.258   4.121 -0.7792  0.3381 -0.5656
  374MOL0     H50423   4.264   7.482   4.082 -2.5252  2.1694  0.2552
  374MOL0     H50424   4.189   7.705   4.033  1.1087  1.5902 -2.1200
  374MOL0     H50425   4.166   7.875   3.922 -4.8965  0.7957  0.2063
  374MOL0     H50426   4.147   7.928   4.083  1.3778  2.7268  0.9466
  374MOL0     H50427   4.067   8.070   3.881  0.3448 -1.0649 -0.5482
  374MOL0     H50428   4.231   8.101   3.843 -1.9420 -0.9824 -0.8817
  374MOL0     H50429   4.079   8.198   4.103 -0.3723  0.2464 -0.9432
  374MOL0     H50430   4.105   8.286   3.962  0.6758  2.1145  3.2184
  374MOL0     H50431   4.333   8.179   4.129  1.5597  1.3605  2.6501
  374MOL0     H50432   4.360   8.252   3.985  0.8429 -1.3209  0.7746
  374MOL0     H50433   4.207   8.468   4.051 -0.1100  0.8593  0.6919
  374MOL0     H50434   4.206   8.413   4.211  0.7600 -0.2877  1.2465
  374MOL0     H50435   4.443   8.403   4.229 -2.0589  1.8892  2.1851
  374MOL0     H50436   4.463   8.462   4.056  2.6367  0.4904  0.6984
  374MOL0     H50437   4.375   8.617   4.306 -0.6395  3.1730 -0.5562
  374MOL0     H50438   4.382   8.685   4.144  0.1539  1.0138  0.7431
  374MOL0     H50439   4.627   8.592   4.326 -1.0651  0.9682  1.2564
  374MOL0     H50440   4.640   8.575   4.152  1.3183  0.7564 -0.0091
  374MOL0     H50441   4.612   8.799   4.459 -2.1100  1.9887  0.7269
  374MOL0     H50442   4.646   9.107   4.490  1.5527 -0.0094 -1.8016
  374MOL0     H50443   4.554   9.162   4.345  1.4920 -0.6665 -0.7906
  374MOL0     H50444   4.357   9.044   4.389  1.6988  0.5119 -0.6659
  374MOL0     H50445   4.411   8.962   4.521 -0.3402  0.6498 -1.1046
  374MOL0     H50446   4.464   9.206   4.635 -2.1674  2.4251  1.5338
  374MOL0     H50447   4.301   9.131   4.628 -1.1075 -1.6533 -2.4843
  374MOL0     H50448   4.374   9.280   4.381  3.6705  0.4844  1.5468
  374MOL0     H50449   4.332   9.372   4.523  4.2423  0.0343 -1.4633
  374MOL0     H50450   3.940   9.260   4.458  0.9310  1.7213  1.9161
  374MOL0     H50451   3.787   9.400   4.324  0.1745 -0.6289  1.2764
  374MOL0     H50452   3.531   9.709   4.309  0.2517  1.8406  0.6301
  374MOL0     H50453   3.355   9.869   4.212  0.1475  1.9478 -1.2061
  374MOL0     H50454   3.190   9.830   4.027  0.1676  0.8032  1.0945
  374MOL0     H50455   3.221   9.981   4.098 -0.5802 -4.6142  1.7867
  374MOL0     H50456   3.137   9.955   3.806 -0.7066  3.1920 -1.7440
  374MOL0     H50457   3.022   9.990   3.933 -0.5620  2.2492 -0.0989
  374MOL0     H50458   3.274  10.152   3.870 -0.0801 -1.2951 -0.9273
  374MOL0     H50459   3.120  10.198   3.804  1.5699  0.9751  0.0255
  374MOL0     H50460   3.123  10.169   4.098  2.4720 -2.9558 -1.3847
  374MOL0     H50461   3.007  10.254   3.994 -0.5944  1.5786  0.7268
  374MOL0     H50462   3.150  10.424   3.929  1.2619  1.2659 -0.6883
  374MOL0     H50463   3.293  10.335   4.006  0.4812  1.0447  1.4226
  374MOL0     H50464   3.148  10.546   4.104 -2.6633  0.1814 -0.0804
  374MOL0     H50465   3.070  10.408   4.180  0.3167  2.1506 -0.3123
  374MOL0     H50466   3.369  10.459   4.198  0.2792 -0.0885  0.6942
  374MOL0     H50467   3.284  10.330   4.275  0.3357 -0.2610  0.4379
  374MOL0     H50468   3.149  10.490   4.410 -1.0325  1.6732 -0.2476
  374MOL0     H50469   3.315  10.533   4.438 -0.7700  1.3833  1.1520
  374MOL0     H50470   3.580   9.869   3.846  0.8495  2.7433  0.8431
  374MOL0     H50471   3.744   9.735   3.929 -1.3946 -3.5587 -0.7691
  374MOL0     H50472   4.145   9.564   4.126 -0.1137 -0.1581 -0.0932
  374MOL0     H50473   4.278   9.438   4.260  0.2145  2.0100 -0.1134
  374MOL0     H50474   4.587   7.863   4.046 -1.2395  2.1798  1.7527
  374MOL0     H50475   4.667   7.640   4.130 -0.7528 -0.2016  3.9600
  374MOL0     H50476   4.351   7.126   4.340  0.9739 -0.2986  0.4186
  374MOL0     H50477   4.419   6.882   4.329 -0.7979  0.0847 -2.5206
  374MOL0     H50478   4.858   6.853   4.299  0.2274  2.3475 -3.6231
  374MOL0     H50479   4.819   6.783   4.151 -0.7359 -1.3045 -0.2419
  374MOL0     H50480   4.734   6.566   4.288  0.8022 -1.3155 -1.1115
  374MOL0     H50481   4.831   6.631   4.408  1.1081 -1.0383 -0.5304
  374MOL0     H50482   4.989   6.503   4.300 -0.5669 -1.8287 -0.1491
  374MOL0     H50483   5.005   6.667   4.224 -0.5479  0.5238  3.1448
  374MOL0     H50484   4.888   6.402   4.114  1.6439 -0.7422  1.1074
  374MOL0     H50485   4.850   6.553   4.029  0.2857  0.1743 -0.2361
  374MOL0     H50486   5.268   6.500   3.975 -0.1164  0.4235 -1.4948
  374MOL0     H50487   4.804   7.012   4.187 -0.3723 -1.9917 -0.9332
  374MOL0     H50488   4.726   7.265   4.016  2.7744  0.4964 -1.6983
  374MOL0     H50489   4.751   7.357   4.167  0.5187 -0.2735  0.9856
  374MOL0     H50490   4.857   7.217   4.125 -1.1621 -0.8493 -1.9372
  375MOL0     O50491   6.383   7.615   1.349  0.5263 -0.3128  0.0203
  375MOL0     C50492   6.493   7.654   1.311 -0.0429  0.3267 -0.2473
  375MOL0     O50493   6.601   7.569   1.289 -0.1726 -0.1425 -0.0500
  375MOL0     C50494   6.601   7.428   1.313  0.4570 -0.1673 -0.2216
  375MOL0     C50495   6.518   7.372   1.417 -0.1219 -0.2573 -0.0173
  375MOL0     C50496   6.520   7.236   1.440  0.3525 -0.3695  1.0697
  375MOL0     C50497   6.618   7.153   1.383 -0.1802 -0.1514  1.0920
  375MOL0     O50498   6.606   7.025   1.411 -0.0971  0.6779  0.0664
  375MOL0     C50499   6.612   6.932   1.306  0.0833 -0.2609  0.3440
  375MOL0     C50500   6.586   6.787   1.357 -0.8432  0.4355 -0.1733
  375MOL0     C50501   6.686   6.677   1.307  1.6503 -1.0599  0.2132
  375MOL0     C50502   6.672   6.555   1.387 -0.5407  0.1236  1.4835
  375MOL0     C50503   6.758   6.448   1.322  0.2050 -0.0703  0.0136
  375MOL0     C50504   6.733   6.313   1.398 -0.2664  0.1001 -0.0037
  375MOL0     C50505   6.789   6.193   1.321  0.1307  0.5911  0.7390
  375MOL0     C50506   6.933   6.213   1.290 -0.2781  1.3782  0.2277
  375MOL0     N50507   6.971   6.077   1.245 -0.4415  0.4034 -0.1023
  375MOL0     C50508   6.965   6.024   1.115 -0.3671 -0.6947  0.1567
  375MOL0     C50509   6.972   5.889   1.124 -0.1751 -0.0083  0.6733
  375MOL0     C50510   6.944   5.780   1.023  0.2749  0.0140 -0.1788
  375MOL0     C50511   7.073   5.759   0.936  0.8162  0.2583 -0.3143
  375MOL0     C50512   7.095   5.858   0.810 -0.4352  0.0818 -0.6782
  375MOL0     C50513   7.243   5.899   0.804 -0.3923 -0.6391  0.4043
  375MOL0     O50514   7.286   5.983   0.909 -0.3113 -0.1500  0.0155
  375MOL0     C50515   7.230   6.115   0.919  0.0594 -0.9597  0.1839
  375MOL0     C50516   7.241   6.166   1.055  0.3930  0.2574  0.7825
  375MOL0     C50517   7.200   6.297   1.089  0.0457 -0.2044  0.4291
  375MOL0     C50518   7.121   6.367   1.008 -0.1100 -0.1801  1.2189
  375MOL0     C50519   7.057   6.491   1.038  0.3359  0.3923 -0.3633
  375MOL0     O50520   6.956   6.539   0.949  0.0791  0.3040  0.5363
  375MOL0     C50521   6.887   6.648   0.955 -0.0466  0.0299  0.8987
  375MOL0     C50522   6.953   6.771   0.987  0.0747 -0.1260  0.1212
  375MOL0     C50523   6.880   6.893   0.993 -0.1299 -0.0468  0.0513
  375MOL0     C50524   6.741   6.886   0.967  0.4002 -0.0241 -0.2983
  375MOL0     O50525   6.675   7.008   0.980 -0.4264  0.0306  0.3757
  375MOL0     C50526   6.653   7.076   0.857  0.2957 -0.2191  1.0371
  375MOL0     C50527   6.595   7.218   0.890 -0.5103  0.5329  0.2891
  375MOL0     C50528   6.447   7.231   0.922  0.2564 -0.1559  0.1459
  375MOL0     C50529   6.417   7.380   0.965  1.0330  0.3941  0.9526
  375MOL0     C50530   6.258   7.387   1.008  0.2707 -0.3525  0.3431
  375MOL0     C50531   6.206   7.528   1.034  0.5114  0.4495  0.6578
  375MOL0     C50532   6.060   7.539   1.080 -0.0810  0.7071  0.2541
  375MOL0     C50533   6.043   7.670   1.140 -0.1412 -0.5337 -0.0941
  375MOL0    Cl50534   5.867   7.685   1.193 -0.2699  0.5370 -0.2426
  375MOL0     C50535   6.668   6.770   0.928 -0.7737 -0.0857 -0.1980
  375MOL0     C50536   6.747   6.647   0.925 -0.2355 -0.3154  0.9720
  375MOL0     O50537   7.098   6.549   1.138 -0.3933 -0.1948 -0.1956
  375MOL0     C50538   7.097   6.313   0.874  0.6463  0.8553  0.7491
  375MOL0     C50539   7.145   6.189   0.831 -0.1291 -0.1272 -0.7111
  375MOL0     N50540   7.014   5.860   1.258  0.1800 -0.1709  1.1688
  375MOL0     N50541   7.011   5.975   1.326  0.2038 -0.6613  0.4283
  375MOL0     C50542   6.703   7.209   1.283  0.2725  0.1988  0.4381
  375MOL0     C50543   6.695   7.348   1.243  0.1771  1.1855 -0.7290
  375MOL0     C50544   6.506   7.795   1.284 -0.2456 -0.2756  0.6667
  375MOL0     C50545   6.391   7.870   1.262  0.2643  0.4225  0.2036
  375MOL0     C50546   6.401   8.009   1.231  0.4294 -0.1423  0.4970
  375MOL0     C50547   6.529   8.075   1.224  0.3048 -0.9334 -0.8441
  375MOL0     O50548   6.526   8.213   1.192 -0.8225 -0.9993 -0.1442
  375MOL0     C50549   6.658   8.267   1.177 -0.3822  0.0601 -0.1936
  375MOL0     C50550   6.668   8.414   1.139  0.4159  0.0670  0.4370
  375MOL0     C50551   6.603   8.500   1.248 -0.0597  0.9618  0.1489
  375MOL0     C50552   6.643   8.648   1.228  0.3999 -0.1132  0.0908
  375MOL0     C50553   6.783   8.680   1.261  0.0255  0.4252 -0.6940
  375MOL0     C50554   6.899   8.697   1.287  0.2216 -0.0874  0.1228
  375MOL0     C50555   6.642   8.004   1.250 -0.1139  0.6491 -0.2400
  375MOL0     C50556   6.630   7.866   1.274 -0.2881  0.2288  0.1863
  375MOL0     C50557   6.769   7.791   1.302  0.6796 -0.7457  0.5034
  375MOL0     H50558   6.436   7.411   1.477 -1.4562 -1.8011 -0.7633
  375MOL0     H50559   6.448   7.191   1.507 -2.0089  1.4024 -0.1032
  375MOL0     H50560   6.539   6.969   1.233  2.3581  0.7697 -1.4958
  375MOL0     H50561   6.714   6.936   1.268  0.0363  2.7929  0.3313
  375MOL0     H50562   6.487   6.760   1.317 -0.3858 -1.9661  0.1736
  375MOL0     H50563   6.591   6.779   1.466  1.6143 -1.2036 -0.3174
  375MOL0     H50564   6.789   6.714   1.318  0.0872  3.9392  0.2519
  375MOL0     H50565   6.661   6.667   1.201 -0.5174  1.9624  0.3384
  375MOL0     H50566   6.704   6.564   1.491 -0.3958 -2.1041  1.6598
  375MOL0     H50567   6.567   6.524   1.387 -1.2774  2.2885 -0.3814
  375MOL0     H50568   6.720   6.433   1.220  0.1430 -1.7751  0.2538
  375MOL0     H50569   6.866   6.464   1.316 -0.0808  1.6823 -1.6688
  375MOL0     H50570   6.797   6.323   1.486  3.0338  1.0440 -2.3145
  375MOL0     H50571   6.627   6.295   1.415  0.1031 -3.4887 -0.8256
  375MOL0     H50572   6.723   6.171   1.237 -0.5606 -2.8290  2.0165
  375MOL0     H50573   6.774   6.111   1.392 -0.0492  1.9210  2.3001
  375MOL0     H50574   6.944   6.287   1.210  0.2776  0.9542 -0.0964
  375MOL0     H50575   6.989   6.242   1.380  0.4178 -0.0441  0.2835
  375MOL0     H50576   6.947   6.071   1.019  1.6919 -1.7331 -0.8059
  375MOL0     H50577   6.919   5.688   1.077 -0.1556  1.4564  2.1899
  375MOL0     H50578   6.863   5.805   0.953  0.1787  0.0912 -0.0396
  375MOL0     H50579   7.155   5.743   1.006 -0.6399 -0.4866  1.3237
  375MOL0     H50580   7.063   5.659   0.890 -2.4883  0.9964 -1.5209
  375MOL0     H50581   7.029   5.945   0.811  2.4258  2.4023  1.1337
  375MOL0     H50582   7.077   5.798   0.720 -0.2399 -0.0538 -0.6264
  375MOL0     H50583   7.273   5.955   0.715 -3.3857 -0.3637 -0.5273
  375MOL0     H50584   7.303   5.808   0.808  0.6818  0.0019 -0.6448
  375MOL0     H50585   7.286   6.106   1.134  1.3495  0.7002  0.5895
  375MOL0     H50586   7.201   6.312   1.197  0.5514 -2.5567  0.8188
  375MOL0     H50587   7.062   6.774   0.985  0.1319 -1.3560 -2.5389
  375MOL0     H50588   6.918   6.988   1.030  4.5846 -1.6181 -0.1125
  375MOL0     H50589   6.736   7.083   0.786 -1.5176 -0.9771 -1.2832
  375MOL0     H50590   6.581   7.018   0.799 -1.0288  0.4961  1.9198
  375MOL0     H50591   6.645   7.268   0.974 -0.7963  1.8879 -0.3186
  375MOL0     H50592   6.609   7.277   0.800  1.9723 -2.6646 -1.6359
  375MOL0     H50593   6.398   7.193   0.832 -0.7747  3.5040 -0.9791
  375MOL0     H50594   6.432   7.167   1.009 -3.5995  1.3791  0.7816
  375MOL0     H50595   6.433   7.437   0.872 -3.6872 -0.2744 -0.5119
  375MOL0     H50596   6.484   7.414   1.044 -1.3300 -1.2031  3.8531
  375MOL0     H50597   6.245   7.322   1.095 -4.4663  0.6642  0.6594
  375MOL0     H50598   6.194   7.352   0.927 -1.2885 -3.7580  2.8203
  375MOL0     H50599   6.276   7.576   1.103  1.4199  1.6266 -1.0113
  375MOL0     H50600   6.213   7.578   0.937 -0.3985 -1.6815 -0.5832
  375MOL0     H50601   6.036   7.456   1.149  1.2240  1.1446  1.2824
  375MOL0     H50602   5.999   7.527   0.991 -0.1650 -2.9121  0.6457
  375MOL0     H50603   6.101   7.682   1.232 -3.9209  1.5771  2.3081
  375MOL0     H50604   6.063   7.752   1.071 -0.5091 -0.3153  0.0558
  375MOL0     H50605   6.564   6.768   0.899 -0.0319 -0.4241 -3.1215
  375MOL0     H50606   6.703   6.553   0.896  0.5962 -0.3367 -0.2716
  375MOL0     H50607   7.043   6.373   0.802 -0.1252 -0.9941 -0.2858
  375MOL0     H50608   7.126   6.153   0.730  0.5901 -1.5162 -0.3718
  375MOL0     H50609   6.766   7.148   1.218 -0.5368  2.4699 -2.6913
  375MOL0     H50610   6.745   7.404   1.165  0.9487  0.9672 -0.3961
  375MOL0     H50611   6.293   7.825   1.263  0.0104  0.9501  1.8996
  375MOL0     H50612   6.325   8.083   1.206  0.2287 -0.5880 -0.2722
  375MOL0     H50613   6.712   8.219   1.095 -0.3598 -2.4378  1.1744
  375MOL0     H50614   6.731   8.247   1.256  1.6687  0.5188 -1.8979
  375MOL0     H50615   6.629   8.438   1.040 -0.7658  0.8941  1.0619
  375MOL0     H50616   6.775   8.435   1.138  0.4529  0.0308 -1.9189
  375MOL0     H50617   6.644   8.462   1.342 -0.2385 -1.1820 -0.5905
  375MOL0     H50618   6.494   8.495   1.246 -0.3333  4.2706  1.2176
  375MOL0     H50619   6.613   8.685   1.129  0.4761 -1.8877 -0.6314
  375MOL0     H50620   6.590   8.700   1.308 -0.5538 -0.3483 -0.3687
  375MOL0     H50621   6.994   8.721   1.328 -0.1444 -1.8443  2.1639
  375MOL0     H50622   6.741   8.048   1.245 -0.3371  1.1107 -0.6763
  375MOL0     H50623   6.859   7.849   1.280  0.9146 -1.4481 -0.4407
  375MOL0     H50624   6.771   7.769   1.409 -1.3131  0.8712  0.9399
  375MOL0     H50625   6.799   7.702   1.247  1.5606  0.2610 -0.7253
  376MOL0     O50626   9.250   6.126   9.407  0.4479 -0.4395  0.6623
  376MOL0     C50627   9.363   6.112   9.359 -1.5402  0.4747 -0.1943
  376MOL0     O50628   9.483   6.111   9.438 -0.6540  0.3616  0.6025
  376MOL0     C50629   9.460   6.133   9.568 -1.0401  1.1741 -0.4797
  376MOL0     C50630   9.522   6.244   9.627  0.3087 -0.6504  0.2431
  376MOL0     C50631   9.510   6.269   9.762 -0.3772 -0.5035  0.4639
  376MOL0     C50632   9.445   6.185   9.847 -0.2656 -0.4496 -0.1608
  376MOL0     O50633   9.438   6.221   9.982  0.1325 -0.2030 -0.1068
  376MOL0     C50634   9.332   6.186  10.077 -0.4234 -0.0816  0.1724
  376MOL0     C50635   9.337   6.278  10.205  0.0673  0.1579 -0.3966
  376MOL0     C50636   9.302   6.430  10.172 -0.1381 -0.9622  0.7743
  376MOL0     C50637   9.314   6.528  10.292  0.3758  0.3499 -0.3969
  376MOL0     C50638   9.341   6.675  10.268 -0.0900  0.4514 -1.1030
  376MOL0     C50639   9.241   6.742  10.173 -0.8592  0.3822 -0.8812
  376MOL0     C50640   9.271   6.898  10.176 -0.6686 -0.1830  0.0470
  376MOL0     C50641   9.395   6.943  10.083  0.0932 -0.4310  0.7230
  376MOL0     N50642   9.384   7.083  10.045 -0.6861 -0.2148 -0.0151
  376MOL0     C50643   9.370   7.196  10.118  0.4933 -0.3286 -0.2099
  376MOL0     C50644   9.345   7.297  10.031 -0.7677  0.1646 -0.4621
  376MOL0     C50645   9.313   7.435  10.065 -0.5294 -0.1482  0.4806
  376MOL0     C50646   9.408   7.504  10.168 -0.3201 -0.5332 -0.0449
  376MOL0     C50647   9.333   7.623  10.230  0.4589 -0.3656  0.5782
  376MOL0     C50648   9.236   7.596  10.340 -0.9298 -0.3072  0.6972
  376MOL0     O50649   9.314   7.588  10.464 -0.3031 -0.5342 -0.0053
  376MOL0     C50650   9.238   7.581  10.585  0.6288  0.7056  0.2863
  376MOL0     C50651   9.320   7.557  10.693  0.9096 -0.3150 -0.4699
  376MOL0     C50652   9.269   7.530  10.823  1.5335  0.6822  0.0096
  376MOL0     C50653   9.126   7.530  10.838  0.8212  0.0877 -1.4423
  376MOL0     C50654   9.070   7.516  10.970  0.1841 -0.3851  0.5692
  376MOL0     O50655   8.939   7.490  10.972 -0.2213 -0.2438  0.0946
  376MOL0     C50656   8.874   7.461  11.089 -0.5484 -0.3670  0.1141
  376MOL0     C50657   8.924   7.369  11.170 -0.1648  0.6097 -1.0011
  376MOL0     C50658   8.857   7.328  11.281  0.2115  0.8074 -0.3343
  376MOL0     C50659   8.734   7.387  11.312 -0.5773 -0.1662 -0.8011
  376MOL0     O50660   8.693   7.371  11.448  0.6440 -0.5158 -0.1159
  376MOL0     C50661   8.638   7.491  11.510  0.9173 -0.3497 -0.1070
  376MOL0     C50662   8.579   7.438  11.640  0.9949 -0.3601  0.7335
  376MOL0     C50663   8.678   7.384  11.745 -0.7254  0.8623  0.2579
  376MOL0     C50664   8.635   7.311  11.883  0.1314  0.0354  0.5601
  376MOL0     C50665   8.736   7.285  11.995  0.5187 -0.5466  0.4012
  376MOL0     C50666   8.853   7.199  11.950  1.1847  0.5271 -0.4382
  376MOL0     C50667   8.915   7.132  12.075 -0.6083 -0.3834 -0.1275
  376MOL0     C50668   8.981   7.000  12.048 -0.5608 -0.0212 -0.0017
  376MOL0    Cl50669   9.052   6.918  12.203  0.8941 -0.2300  0.5566
  376MOL0     C50670   8.675   7.479  11.230 -0.3067 -0.1484 -0.4011
  376MOL0     C50671   8.755   7.524  11.124  0.4452  0.2981  0.7581
  376MOL0     O50672   9.144   7.533  11.068  0.2646  0.3240  0.5956
  376MOL0     C50673   9.049   7.536  10.725  0.4923 -0.5973 -0.7093
  376MOL0     C50674   9.102   7.567  10.596 -0.2600  0.2159 -0.7938
  376MOL0     N50675   9.343   7.249   9.902 -0.0513  0.2727 -0.6862
  376MOL0     N50676   9.376   7.120   9.909 -1.2354 -0.5191  0.0311
  376MOL0     C50677   9.384   6.079   9.790 -0.3476  1.1042 -0.3340
  376MOL0     C50678   9.389   6.043   9.654 -0.2824 -0.3456 -0.8528
  376MOL0     C50679   9.386   6.077   9.214  0.4054 -0.8791 -0.3180
  376MOL0     C50680   9.515   6.101   9.169 -0.1475  0.2867  0.0701
  376MOL0     C50681   9.549   6.094   9.034  0.2313  0.6243  0.1584
  376MOL0     C50682   9.449   6.060   8.937 -0.9402 -0.1394  0.5333
  376MOL0     O50683   9.480   6.038   8.803 -0.0458 -0.0950 -0.5806
  376MOL0     C50684   9.599   6.107   8.752  0.7213 -0.3882  0.0792
  376MOL0     C50685   9.592   6.131   8.606 -0.0068  0.0963  0.2832
  376MOL0     C50686   9.697   6.231   8.562  0.2524  0.0771  0.4100
  376MOL0     C50687   9.652   6.382   8.562 -0.2459  0.0054  0.1113
  376MOL0     C50688   9.556   6.407   8.455 -0.6067  0.5921 -0.3392
  376MOL0     C50689   9.479   6.410   8.365  0.0454 -0.7186  0.3510
  376MOL0     C50690   9.317   6.050   8.985  1.0079  0.0628 -0.0628
  376MOL0     C50691   9.281   6.049   9.119 -1.0873 -0.1308 -0.2025
  376MOL0     C50692   9.141   6.019   9.154 -0.3646 -1.7566  0.1330
  376MOL0     H50693   9.577   6.311   9.562  0.7510 -0.5105  0.7570
  376MOL0     H50694   9.555   6.363   9.793 -1.3075  1.7276 -4.1256
  376MOL0     H50695   9.238   6.205  10.024 -0.8320  2.8561  1.7143
  376MOL0     H50696   9.338   6.078  10.095 -3.3609 -0.1425  1.2649
  376MOL0     H50697   9.435   6.274  10.252 -0.2360 -0.1189  0.2216
  376MOL0     H50698   9.273   6.248  10.289  1.7194  0.1223  0.8902
  376MOL0     H50699   9.199   6.438  10.134  0.0555 -0.5385  0.3174
  376MOL0     H50700   9.377   6.463  10.099 -1.3384  1.2748  0.4445
  376MOL0     H50701   9.221   6.515  10.348  0.6813 -1.1662 -0.1957
  376MOL0     H50702   9.389   6.492  10.363 -1.1830 -2.3336  0.0210
  376MOL0     H50703   9.333   6.730  10.362  2.3817  0.1778 -0.6814
  376MOL0     H50704   9.444   6.692  10.237 -0.3543  2.7699 -0.8684
  376MOL0     H50705   9.240   6.696  10.074 -0.1104 -1.3122 -0.1383
  376MOL0     H50706   9.140   6.734  10.214 -0.4054 -0.5873  0.0861
  376MOL0     H50707   9.296   6.937  10.275  0.0753  0.6945 -0.4738
  376MOL0     H50708   9.178   6.947  10.145 -2.5008 -3.4830 -0.2522
  376MOL0     H50709   9.496   6.943  10.125  1.7076  1.5965 -2.6846
  376MOL0     H50710   9.401   6.888   9.988  1.3591 -0.5978  0.8872
  376MOL0     H50711   9.394   7.202  10.224  6.0265  1.9811 -1.2628
  376MOL0     H50712   9.308   7.492   9.972 -2.1427 -0.5529  0.2901
  376MOL0     H50713   9.210   7.440  10.100 -1.1849  1.1524 -1.4755
  376MOL0     H50714   9.437   7.431  10.243 -1.2109 -1.0697 -0.2138
  376MOL0     H50715   9.501   7.545  10.127  0.7355 -0.6801  2.0740
  376MOL0     H50716   9.298   7.692  10.153  0.9304  0.4004  1.0289
  376MOL0     H50717   9.414   7.679  10.279 -0.5067 -0.2886  2.1581
  376MOL0     H50718   9.201   7.493  10.331  1.1529 -1.2243  2.2345
  376MOL0     H50719   9.154   7.668  10.331  0.2209  0.8392 -1.4523
  376MOL0     H50720   9.428   7.558  10.689  0.8729  0.1438 -2.0708
  376MOL0     H50721   9.334   7.531  10.910  1.3923  1.1206  0.1149
  376MOL0     H50722   9.018   7.321  11.146  0.0803  0.0952  0.8443
  376MOL0     H50723   8.908   7.255  11.343  2.0765 -0.6103 -3.3180
  376MOL0     H50724   8.713   7.568  11.527 -1.1840  1.6688  0.5201
  376MOL0     H50725   8.554   7.539  11.459  0.1540  1.5597  2.6921
  376MOL0     H50726   8.512   7.514  11.680 -0.7554  0.2084 -2.8861
  376MOL0     H50727   8.513   7.355  11.613  2.6559 -0.9424 -1.8579
  376MOL0     H50728   8.747   7.317  11.693 -1.7747  0.8434 -1.1674
  376MOL0     H50729   8.747   7.463  11.779 -1.2948  0.4777  2.4527
  376MOL0     H50730   8.578   7.219  11.867 -1.4952  1.2517 -0.9157
  376MOL0     H50731   8.567   7.389  11.918 -1.1091 -0.4639 -0.6624
  376MOL0     H50732   8.670   7.229  12.061 -0.7621 -0.1671 -0.5244
  376MOL0     H50733   8.773   7.373  12.048  1.0508 -1.5725  1.7883
  376MOL0     H50734   8.816   7.118  11.886  0.4269  1.0716 -0.7035
  376MOL0     H50735   8.934   7.251  11.899  1.2190 -1.7376 -2.9223
  376MOL0     H50736   8.839   7.123  12.153 -1.5058  4.6791 -0.0823
  376MOL0     H50737   8.994   7.195  12.115 -0.2631 -0.3380 -0.8661
  376MOL0     H50738   8.902   6.939  12.002 -1.1051 -0.7205  1.7585
  376MOL0     H50739   9.064   7.001  11.977 -0.2885 -1.0625  0.2763
  376MOL0     H50740   8.583   7.535  11.246 -0.5818 -1.1724  1.9678
  376MOL0     H50741   8.720   7.612  11.071  1.3696  1.2037  1.6174
  376MOL0     H50742   8.945   7.503  10.731  0.3916 -0.0785  0.7227
  376MOL0     H50743   9.033   7.561  10.513  0.2614  1.7788 -1.3670
  376MOL0     H50744   9.331   6.010   9.855  2.6801 -2.2645 -1.1264
  376MOL0     H50745   9.330   5.965   9.607 -3.1526  1.7867 -1.0906
  376MOL0     H50746   9.591   6.142   9.236 -0.6751  2.0625 -0.3598
  376MOL0     H50747   9.649   6.117   8.997  0.0012  0.7194 -0.4047
  376MOL0     H50748   9.686   6.045   8.775 -0.6679 -3.0413 -1.4026
  376MOL0     H50749   9.615   6.203   8.803  0.8921 -0.5736  0.3840
  376MOL0     H50750   9.496   6.173   8.575 -0.3352  0.5924  1.8617
  376MOL0     H50751   9.610   6.034   8.559  1.7240  0.0398  0.9889
  376MOL0     H50752   9.723   6.212   8.457  1.6207 -0.7537  0.8904
  376MOL0     H50753   9.786   6.238   8.624 -0.7239  6.2473  1.7473
  376MOL0     H50754   9.597   6.394   8.656 -0.4277 -2.5383  0.3882
  376MOL0     H50755   9.734   6.454   8.559 -0.8222  0.6434 -0.9366
  376MOL0     H50756   9.409   6.410   8.283  0.8012 -0.0296 -0.3174
  376MOL0     H50757   9.240   6.032   8.910  1.7813  2.3733 -1.5264
  376MOL0     H50758   9.106   6.102   9.216  1.0779 -0.8244 -0.2611
  376MOL0     H50759   9.079   6.014   9.064 -1.7776  3.2507  0.5642
  376MOL0     H50760   9.145   5.931   9.219 -1.8069 -0.1610  2.5542
  377MOL0     O50761  10.592   2.761   0.320 -0.4580 -0.1815  0.4358
  377MOL0     C50762  10.612   2.674   0.232  0.4118  0.0624 -0.1383
  377MOL0     O50763  10.519   2.576   0.205 -0.8423  0.4937 -0.0402
  377MOL0     C50764  10.421   2.552   0.301  0.8175 -0.0305 -0.1849
  377MOL0     C50765  10.459   2.528   0.432  0.1147  0.2489 -0.1636
  377MOL0     C50766  10.362   2.503   0.536  0.0803  0.2177 -1.0290
  377MOL0     C50767  10.231   2.511   0.511 -0.0911 -0.5282 -0.1733
  377MOL0     O50768  10.144   2.483   0.610 -0.7254 -1.1311 -0.1840
  377MOL0     C50769  10.114   2.596   0.694  1.5775 -0.2593  0.2637
  377MOL0     C50770  10.011   2.555   0.800 -0.2893  0.4623 -0.3664
  377MOL0     C50771  10.067   2.466   0.902  0.5619 -1.1526  1.2818
  377MOL0     C50772   9.959   2.398   0.990 -0.7628  0.3874  0.9882
  377MOL0     C50773  10.019   2.294   1.079  0.4646  0.6614  0.2198
  377MOL0     C50774   9.914   2.242   1.183 -1.0769 -0.0626  0.0398
  377MOL0     C50775   9.967   2.175   1.312 -0.0218  0.9837  0.3679
  377MOL0     C50776   9.959   2.268   1.424 -0.1582 -0.8706  0.7680
  377MOL0     N50777  10.024   2.221   1.544  0.0407 -0.7209  0.4255
  377MOL0     C50778   9.999   2.109   1.612  0.0074  0.7860 -0.2157
  377MOL0     C50779  10.080   2.115   1.727  0.4208  0.3150  0.1748
  377MOL0     C50780  10.080   2.010   1.837  0.3357 -0.1572 -1.1045
  377MOL0     C50781  10.221   1.975   1.871  0.0368  1.2944 -0.4696
  377MOL0     C50782  10.215   1.858   1.975  0.4623 -0.0207  0.4945
  377MOL0     C50783  10.187   1.892   2.124 -0.2307 -0.0491  0.6941
  377MOL0     O50784  10.265   2.006   2.148  0.3180 -0.2713  0.2988
  377MOL0     C50785  10.283   2.045   2.280  0.3866 -0.1143 -0.2460
  377MOL0     C50786  10.193   2.008   2.385 -0.0641 -0.8551 -0.1120
  377MOL0     C50787  10.240   2.012   2.514  0.2032 -0.4631 -0.6940
  377MOL0     C50788  10.359   2.069   2.552 -0.0728 -0.7242  0.1346
  377MOL0     C50789  10.400   2.113   2.686  0.7320  0.1798 -0.4122
  377MOL0     O50790  10.457   2.234   2.692 -0.7606 -1.2220  0.6026
  377MOL0     C50791  10.463   2.284   2.819 -0.0199 -0.2153  0.0831
  377MOL0     C50792  10.363   2.370   2.861 -0.4492  0.5821 -1.5008
  377MOL0     C50793  10.369   2.446   2.980  0.1020  0.5383 -0.0999
  377MOL0     C50794  10.484   2.427   3.061  0.5578  0.0763 -0.9992
  377MOL0     O50795  10.495   2.507   3.177 -0.0626 -0.5294  0.7215
  377MOL0     C50796  10.614   2.499   3.258 -0.6540 -0.0290 -1.2465
  377MOL0     C50797  10.741   2.561   3.202 -0.8688 -0.1446 -0.1374
  377MOL0     C50798  10.714   2.708   3.189  0.3716  0.3941 -0.1567
  377MOL0     C50799  10.821   2.796   3.109  0.3958  1.1181 -0.8068
  377MOL0     C50800  10.777   2.946   3.116 -0.1003  0.0414 -0.3805
  377MOL0     C50801  10.662   2.979   3.022  0.3040 -0.2779 -0.3186
  377MOL0     C50802  10.641   3.134   3.004  0.7701 -0.1488  0.2928
  377MOL0     C50803  10.489   3.160   3.021  0.3783 -0.0270 -0.5784
  377MOL0    Cl50804  10.371   3.071   2.909 -0.1270 -0.4783 -0.1632
  377MOL0     C50805  10.584   2.340   3.025  0.0841 -0.0013 -0.2987
  377MOL0     C50806  10.579   2.273   2.899 -0.6873 -0.1237 -0.6104
  377MOL0     O50807  10.367   2.049   2.783  0.6922  0.9081 -0.1412
  377MOL0     C50808  10.449   2.112   2.454  0.2744 -0.1412 -0.2974
  377MOL0     C50809  10.398   2.104   2.320 -1.0844  0.4533  0.5646
  377MOL0     N50810  10.157   2.235   1.719  0.2536 -0.9999 -0.4701
  377MOL0     N50811  10.124   2.290   1.602 -0.3713 -0.1813 -0.5461
  377MOL0     C50812  10.189   2.541   0.382  1.3223  0.1022  0.3159
  377MOL0     C50813  10.284   2.561   0.278 -0.7597 -0.5739 -0.7546
  377MOL0     C50814  10.727   2.686   0.138  0.1978 -0.8393 -0.8909
  377MOL0     C50815  10.737   2.598   0.028  1.0003 -0.3542 -0.5110
  377MOL0     C50816  10.841   2.597  -0.068  0.8681 -0.0174 -0.6289
  377MOL0     C50817  10.950   2.682  -0.047 -0.0150 -0.1733 -0.7779
  377MOL0     O50818  11.055   2.683  -0.131 -0.6197 -0.6930 -0.4810
  377MOL0     C50819  11.032   2.713  -0.270  0.5351  1.3787 -1.0308
  377MOL0     C50820  11.046   2.860  -0.293 -0.2340 -0.0694 -0.3746
  377MOL0     C50821  10.997   2.879  -0.441 -0.7756  1.2370 -0.0342
  377MOL0     C50822  10.957   3.018  -0.479  0.1171  0.1619 -0.4993
  377MOL0     C50823  11.065   3.112  -0.497 -0.8024  0.4325 -0.3881
  377MOL0     C50824  11.152   3.201  -0.516 -0.7091  0.0095  0.5595
  377MOL0     C50825  10.944   2.778   0.058  0.4194  0.9496  0.4865
  377MOL0     C50826  10.843   2.774   0.154  0.5754 -0.2857  0.6263
  377MOL0     C50827  10.866   2.873   0.271  1.0161 -0.8337 -0.8018
  377MOL0     H50828  10.565   2.531   0.457  0.7609  0.7648 -2.7133
  377MOL0     H50829  10.406   2.487   0.634 -0.5224  1.2557 -0.5831
  377MOL0     H50830  10.204   2.633   0.743 -1.0344 -0.7087  6.3814
  377MOL0     H50831  10.073   2.678   0.636  1.2723  0.3478  1.3087
  377MOL0     H50832   9.916   2.525   0.756  0.3165  1.1067 -2.2311
  377MOL0     H50833   9.995   2.642   0.865  1.1786 -0.1271  0.8707
  377MOL0     H50834  10.128   2.528   0.969 -0.8040  3.1208 -1.0328
  377MOL0     H50835  10.125   2.389   0.851  2.2621  2.9556 -3.9744
  377MOL0     H50836   9.909   2.471   1.055  1.9572  1.8649  1.5892
  377MOL0     H50837   9.892   2.347   0.920 -1.7348  0.8844  1.5284
  377MOL0     H50838  10.057   2.216   1.014  0.2656  1.7897 -1.3065
  377MOL0     H50839  10.110   2.330   1.128  0.9926 -2.3780  1.6783
  377MOL0     H50840   9.855   2.331   1.207 -0.9353 -0.1864  0.8432
  377MOL0     H50841   9.851   2.166   1.135 -3.3503  1.4267  0.4591
  377MOL0     H50842  10.074   2.159   1.295 -0.1503 -0.3721  0.7000
  377MOL0     H50843   9.921   2.078   1.337  0.0258  1.5210  2.7904
  377MOL0     H50844   9.995   2.366   1.393 -2.8781 -0.1907 -0.6001
  377MOL0     H50845   9.853   2.290   1.444 -0.3852 -2.0175  0.8707
  377MOL0     H50846   9.939   2.028   1.574  3.1385 -2.4254  1.1021
  377MOL0     H50847  10.027   2.047   1.926  0.0414  0.7487 -1.6412
  377MOL0     H50848  10.028   1.918   1.808  1.4290 -1.0606 -0.2732
  377MOL0     H50849  10.276   1.931   1.788 -0.7728 -4.0275  1.4562
  377MOL0     H50850  10.278   2.061   1.906  1.7153  0.2977 -0.6859
  377MOL0     H50851  10.317   1.819   1.967 -1.4458 -5.7737 -0.5442
  377MOL0     H50852  10.151   1.777   1.936  1.0995  0.0765 -0.8021
  377MOL0     H50853  10.200   1.813   2.198 -2.9499 -2.4146 -1.1535
  377MOL0     H50854  10.081   1.916   2.125 -0.3411 -0.5514  1.4630
  377MOL0     H50855  10.095   1.964   2.373 -0.6400  0.4438 -0.4017
  377MOL0     H50856  10.178   1.970   2.594  0.9229  2.9450  1.8837
  377MOL0     H50857  10.280   2.395   2.796 -1.2777  3.3595  0.4297
  377MOL0     H50858  10.285   2.509   3.010  0.2275  0.5249  0.2832
  377MOL0     H50859  10.602   2.547   3.355  1.0797 -1.3387 -0.3430
  377MOL0     H50860  10.637   2.394   3.278  0.0600  0.2929 -0.3300
  377MOL0     H50861  10.824   2.559   3.273  0.9848  2.2137 -2.0326
  377MOL0     H50862  10.765   2.519   3.104 -3.1180 -0.0821 -0.7780
  377MOL0     H50863  10.616   2.718   3.141 -0.6322 -0.6493  1.5757
  377MOL0     H50864  10.694   2.755   3.286  0.3688  0.0496  0.0097
  377MOL0     H50865  10.813   2.750   3.010 -4.4522 -0.0269 -0.1307
  377MOL0     H50866  10.923   2.787   3.148  0.1319 -2.3787 -0.6180
  377MOL0     H50867  10.865   3.002   3.084  1.0234 -2.1332 -1.2401
  377MOL0     H50868  10.767   2.977   3.221  2.0924 -3.8942  1.2157
  377MOL0     H50869  10.675   2.931   2.925 -0.3219 -1.7495  0.2941
  377MOL0     H50870  10.572   2.932   3.064  0.6200 -1.2454 -0.7197
  377MOL0     H50871  10.657   3.158   2.898  2.9826 -2.3484  0.0135
  377MOL0     H50872  10.711   3.197   3.060  0.0073 -0.8035  2.0416
  377MOL0     H50873  10.457   3.147   3.125  1.5870  2.8195  0.2547
  377MOL0     H50874  10.482   3.269   3.014  1.7556  0.2839  1.8340
  377MOL0     H50875  10.669   2.321   3.089  2.2857  0.5623 -2.8666
  377MOL0     H50876  10.646   2.193   2.869  1.7030  0.3122  3.0038
  377MOL0     H50877  10.548   2.150   2.478  0.4390 -0.8464  0.1831
  377MOL0     H50878  10.468   2.132   2.242 -3.0177  0.1968 -1.3534
  377MOL0     H50879  10.081   2.539   0.379  1.3434 -0.3543 -0.5126
  377MOL0     H50880  10.250   2.593   0.180 -0.7764  0.1718 -0.5110
  377MOL0     H50881  10.654   2.528   0.018 -0.1751  0.9373 -0.1993
  377MOL0     H50882  10.854   2.519  -0.142  2.4475  0.9215 -1.3960
  377MOL0     H50883  10.930   2.688  -0.300 -0.4987  2.1305  1.5799
  377MOL0     H50884  11.099   2.662  -0.340 -0.2210 -0.1725 -0.6615
  377MOL0     H50885  11.143   2.903  -0.267  0.9359 -2.5044 -0.4258
  377MOL0     H50886  10.981   2.925  -0.234  0.0133 -1.1945  1.2001
  377MOL0     H50887  10.919   2.807  -0.466  1.4668 -0.3752 -2.9454
  377MOL0     H50888  11.084   2.847  -0.499 -1.5541  0.5605 -0.8435
  377MOL0     H50889  10.900   3.006  -0.571 -1.8649 -0.2036  0.7104
  377MOL0     H50890  10.897   3.052  -0.394  1.5933 -0.9972  1.1011
  377MOL0     H50891  11.233   3.267  -0.540 -1.2591  1.1479  1.6788
  377MOL0     H50892  11.024   2.850   0.069  1.8568 -0.0512 -2.4393
  377MOL0     H50893  10.971   2.901   0.282  0.8485 -0.8019  1.0364
  377MOL0     H50894  10.807   2.957   0.233  1.1049 -0.9097 -1.1102
  377MOL0     H50895  10.823   2.841   0.366  0.7494 -0.6957 -0.8762
  378MOL0     O50896   8.801   6.271   4.448 -0.4268  0.1978  1.4716
  378MOL0     C50897   8.782   6.325   4.332 -0.5065 -0.2854 -0.2585
  378MOL0     O50898   8.701   6.430   4.309  0.2375  0.2165 -0.5556
  378MOL0     C50899   8.657   6.499   4.418  0.6919  0.1227  0.6122
  378MOL0     C50900   8.743   6.586   4.492 -0.1265  0.6695  0.3571
  378MOL0     C50901   8.692   6.663   4.599 -0.1779 -0.3143 -0.8809
  378MOL0     C50902   8.556   6.648   4.632 -0.0755 -0.5170  0.1069
  378MOL0     O50903   8.506   6.730   4.736 -0.1093  0.8551  0.5050
  378MOL0     C50904   8.402   6.677   4.817  0.0136 -0.0921 -0.2041
  378MOL0     C50905   8.463   6.559   4.905  0.4801  1.0478  0.6922
  378MOL0     C50906   8.587   6.622   4.978  0.4727  0.0479  0.1778
  378MOL0     C50907   8.574   6.766   5.037 -0.1801 -0.6516 -0.0324
  378MOL0     C50908   8.699   6.806   5.113 -1.2404  0.9821 -1.0655
  378MOL0     C50909   8.831   6.789   5.024  0.4189 -0.0403 -0.3427
  378MOL0     C50910   8.946   6.874   5.085 -0.1064 -0.4201 -0.1784
  378MOL0     C50911   9.077   6.874   5.003  0.7485 -0.2069  0.9930
  378MOL0     N50912   9.191   6.943   5.062  0.5447  0.2293  0.3149
  378MOL0     C50913   9.221   6.948   5.192  0.0208  0.1571  0.2528
  378MOL0     C50914   9.339   7.020   5.201  0.5382  0.5044 -0.0951
  378MOL0     C50915   9.415   7.055   5.327  0.1160 -0.2644 -0.0020
  378MOL0     C50916   9.564   7.013   5.307 -0.4052 -0.6471 -1.0085
  378MOL0     C50917   9.638   7.002   5.437 -0.1166  0.3895 -0.5857
  378MOL0     C50918   9.680   7.142   5.493  0.3441 -0.0934 -0.2124
  378MOL0     O50919   9.790   7.115   5.570  0.0389 -0.1651  0.5730
  378MOL0     C50920   9.812   7.167   5.690  0.0108  0.3422  0.2761
  378MOL0     C50921   9.923   7.107   5.757 -0.5501 -0.4005 -0.5576
  378MOL0     C50922   9.960   7.152   5.890  0.1260 -0.4383  1.0251
  378MOL0     C50923   9.889   7.261   5.954  0.4007  0.1494  0.2494
  378MOL0     C50924   9.936   7.306   6.089 -0.6377 -0.2082  0.3244
  378MOL0     O50925   9.994   7.205   6.160  0.0655  0.9610 -0.7513
  378MOL0     C50926   9.992   7.218   6.298  0.2230  0.3850  0.2410
  378MOL0     C50927   9.870   7.225   6.378 -0.3254  0.6580 -0.0927
  378MOL0     C50928   9.886   7.236   6.513  0.0672  0.8443 -0.9758
  378MOL0     C50929  10.009   7.229   6.570  0.5181 -0.2336 -0.2435
  378MOL0     O50930  10.008   7.254   6.708 -0.8924  0.4227  0.4846
  378MOL0     C50931  10.115   7.210   6.785  0.7560 -0.4161 -0.7325
  378MOL0     C50932  10.074   7.179   6.921 -0.8137  0.3637 -0.3746
  378MOL0     C50933   9.932   7.119   6.928 -0.6061  0.9072  0.0706
  378MOL0     C50934   9.929   7.035   7.060  0.1705 -0.4228  0.5719
  378MOL0     C50935   9.896   7.124   7.181 -0.2636 -0.6411  0.4540
  378MOL0     C50936   9.824   7.039   7.285  0.7223 -0.5858 -0.6996
  378MOL0     C50937   9.773   7.116   7.416 -0.4965  0.8342 -0.0330
  378MOL0     C50938   9.864   7.191   7.513  0.6554 -0.1775  0.0790
  378MOL0    Cl50939   9.907   7.355   7.466 -0.0373  0.5624  0.2251
  378MOL0     C50940  10.123   7.208   6.497 -0.7760  0.3395  0.6024
  378MOL0     C50941  10.117   7.192   6.356  0.0354  0.2278 -1.0435
  378MOL0     O50942   9.883   7.406   6.136  0.4930 -0.0260 -0.0599
  378MOL0     C50943   9.779   7.319   5.882  0.5919  0.5157  0.2898
  378MOL0     C50944   9.741   7.269   5.753  0.0555 -0.0732 -0.5881
  378MOL0     N50945   9.363   7.078   5.079  0.2654 -0.8231  0.0675
  378MOL0     N50946   9.283   7.023   4.995  0.1654 -0.2572 -0.0919
  378MOL0     C50947   8.473   6.564   4.554  0.4356  1.3269  1.1414
  378MOL0     C50948   8.517   6.489   4.438  0.6841  0.2137  0.5764
  378MOL0     C50949   8.851   6.260   4.214 -1.1192  0.0659  0.9940
  378MOL0     C50950   8.799   6.292   4.085 -0.7349 -0.0560 -1.1845
  378MOL0     C50951   8.855   6.227   3.971 -0.4317 -0.2435  0.3043
  378MOL0     C50952   8.962   6.139   3.982  0.4442 -0.0852  0.5138
  378MOL0     O50953   8.992   6.071   3.866 -0.2886 -0.7248  0.0639
  378MOL0     C50954   9.105   5.981   3.875 -0.0383 -1.1288  0.1119
  378MOL0     C50955   9.139   5.918   3.743  0.1143  0.2897 -0.0245
  378MOL0     C50956   9.284   5.917   3.697  0.3179  0.0277  0.8139
  378MOL0     C50957   9.297   5.820   3.580  0.2675  0.7179  0.8383
  378MOL0     C50958   9.421   5.812   3.511 -1.0262 -1.3406  0.8520
  378MOL0     C50959   9.527   5.793   3.455 -0.0946 -1.6031  0.3694
  378MOL0     C50960   9.019   6.120   4.114 -0.0017  0.1728  0.2799
  378MOL0     C50961   8.967   6.179   4.234 -0.1063  1.1327 -0.2182
  378MOL0     C50962   9.049   6.174   4.365  0.2714 -0.2376  0.2893
  378MOL0     H50963   8.850   6.589   4.474 -0.1791 -0.5468 -0.2369
  378MOL0     H50964   8.754   6.728   4.661 -1.6340 -0.0562  0.3462
  378MOL0     H50965   8.350   6.754   4.874 -1.9544 -2.2596  1.0992
  378MOL0     H50966   8.326   6.634   4.751  0.7048 -0.5407 -0.7272
  378MOL0     H50967   8.483   6.470   4.845 -1.6244 -0.1775  1.7070
  378MOL0     H50968   8.393   6.519   4.980 -1.9927 -0.5339 -2.2366
  378MOL0     H50969   8.669   6.609   4.907 -1.4329  1.4401 -2.4353
  378MOL0     H50970   8.608   6.567   5.070  1.4707  3.8881  2.4522
  378MOL0     H50971   8.569   6.836   4.953 -1.9550 -0.2510  0.3597
  378MOL0     H50972   8.481   6.766   5.095  0.0024 -0.9977  0.2633
  378MOL0     H50973   8.695   6.910   5.147 -1.1388  0.0075  2.2540
  378MOL0     H50974   8.707   6.752   5.207  0.9126  2.1712 -0.5095
  378MOL0     H50975   8.850   6.681   5.024  1.1702  0.0879  0.2304
  378MOL0     H50976   8.802   6.818   4.922 -2.5461  3.7923  1.3742
  378MOL0     H50977   8.970   6.837   5.185  0.3015 -0.3969 -0.2645
  378MOL0     H50978   8.916   6.978   5.102 -0.1102 -0.8906  3.3796
  378MOL0     H50979   9.100   6.768   4.995 -1.8348 -0.7627 -0.2400
  378MOL0     H50980   9.059   6.914   4.903  1.1896  0.4018  1.1462
  378MOL0     H50981   9.170   6.917   5.283  5.1365  1.9900  4.2660
  378MOL0     H50982   9.403   7.161   5.348  1.6957 -0.0895  0.1151
  378MOL0     H50983   9.371   7.003   5.413 -1.3674  0.3421 -0.3596
  378MOL0     H50984   9.574   6.912   5.267 -5.1025 -2.9005  2.4420
  378MOL0     H50985   9.619   7.080   5.241 -0.5415 -1.7411 -2.2676
  378MOL0     H50986   9.719   6.934   5.410 -3.7291 -3.5673 -2.5411
  378MOL0     H50987   9.584   6.942   5.512  0.4254 -1.0966 -1.3511
  378MOL0     H50988   9.596   7.188   5.544  2.2769  1.7245  1.4771
  378MOL0     H50989   9.708   7.209   5.412  1.3115 -1.6161 -1.1965
  378MOL0     H50990   9.981   7.034   5.701  1.2223 -1.5099  2.4968
  378MOL0     H50991  10.059   7.125   5.925  2.3682  0.9582 -3.4176
  378MOL0     H50992   9.769   7.239   6.343 -0.3540 -2.3091 -1.4605
  378MOL0     H50993   9.800   7.257   6.577  0.6140 -0.1368  0.0990
  378MOL0     H50994  10.159   7.116   6.751 -2.3273 -2.3820  0.3461
  378MOL0     H50995  10.193   7.287   6.798 -0.5979  1.0665 -1.0958
  378MOL0     H50996  10.160   7.125   6.962 -0.0357 -0.5926 -3.0935
  378MOL0     H50997  10.065   7.275   6.974  1.7827  0.9254 -0.8152
  378MOL0     H50998   9.844   7.184   6.923 -2.9392 -1.7739  2.5010
  378MOL0     H50999   9.937   7.044   6.849  3.4936  0.9723  0.0614
  378MOL0     H51000  10.024   6.982   7.072  0.7730  0.6140  0.4873
  378MOL0     H51001   9.847   6.963   7.048 -1.0141  0.9922 -0.0292
  378MOL0     H51002   9.842   7.214   7.150  1.4247 -0.3881 -2.0877
  378MOL0     H51003   9.988   7.171   7.214  0.1025 -0.5662 -0.6164
  378MOL0     H51004   9.734   6.995   7.242 -0.1755 -0.3815  0.8991
  378MOL0     H51005   9.894   6.959   7.310  1.0874 -0.4508 -1.2633
  378MOL0     H51006   9.717   7.050   7.483  0.1867  0.6036  0.3182
  378MOL0     H51007   9.707   7.192   7.373 -0.4997 -0.7098 -2.9439
  378MOL0     H51008   9.804   7.192   7.604  1.8261  4.2612  1.0257
  378MOL0     H51009   9.950   7.130   7.541  1.9191  2.6116  2.8047
  378MOL0     H51010  10.218   7.203   6.549  0.0566 -0.0640 -0.9072
  378MOL0     H51011  10.200   7.160   6.293  1.3081  3.2649 -1.0924
  378MOL0     H51012   9.746   7.409   5.932 -2.4160 -0.2057 -0.2239
  378MOL0     H51013   9.656   7.306   5.697 -1.2179 -2.1164 -0.0966
  378MOL0     H51014   8.366   6.568   4.573  0.0016 -0.8541 -0.3213
  378MOL0     H51015   8.453   6.431   4.372  2.3677 -0.7648 -0.2694
  378MOL0     H51016   8.716   6.359   4.063 -2.7515 -1.9728  0.1500
  378MOL0     H51017   8.818   6.258   3.873  2.5462 -2.2393 -1.5956
  378MOL0     H51018   9.068   5.906   3.945  0.4257 -0.1979  1.3832
  378MOL0     H51019   9.188   6.043   3.910 -0.1340 -0.7965 -0.2465
  378MOL0     H51020   9.088   5.965   3.659 -1.3891  2.3408  1.9053
  378MOL0     H51021   9.098   5.817   3.750 -1.8926  1.1690  2.5249
  378MOL0     H51022   9.358   5.895   3.774  0.9099  0.3463  0.3453
  378MOL0     H51023   9.320   6.013   3.660  1.3841 -1.3695 -2.1261
  378MOL0     H51024   9.278   5.721   3.623  2.4051 -0.0206  0.1894
  378MOL0     H51025   9.226   5.842   3.499  1.3506 -1.4480 -0.8206
  378MOL0     H51026   9.614   5.771   3.397  0.0353 -3.0412  1.0877
  378MOL0     H51027   9.114   6.068   4.121  1.0424  1.7858 -0.9603
  378MOL0     H51028   8.994   6.118   4.442  1.0009 -0.2941  0.7798
  378MOL0     H51029   9.134   6.107   4.351 -1.6406 -3.0421  1.1312
  378MOL0     H51030   9.067   6.279   4.390  0.0985 -0.3217  0.7752
  379MOL0     O51031   0.131  10.681   4.364  0.7953  0.0872 -0.6284
  379MOL0     C51032   0.249  10.703   4.384  0.2688 -0.7331 -0.7561
  379MOL0     O51033   0.322  10.791   4.302  0.5013  0.6039 -0.6108
  379MOL0     C51034   0.259  10.879   4.219  0.2469 -1.1513 -0.5924
  379MOL0     C51035   0.311  11.006   4.199  0.1073  0.9805  0.1388
  379MOL0     C51036   0.261  11.097   4.106 -0.2442  0.1012 -0.6623
  379MOL0     C51037   0.155  11.063   4.022 -0.3122  0.7381 -0.2666
  379MOL0     O51038   0.124  11.141   3.918  0.3779  1.0301 -0.0785
  379MOL0     C51039   0.211  11.229   3.856 -0.0061 -0.2781  0.7934
  379MOL0     C51040   0.191  11.263   3.707  0.2149 -0.5426  0.2521
  379MOL0     C51041   0.084  11.358   3.663  0.2428  0.1160 -0.9047
  379MOL0     C51042  -0.050  11.279   3.679  0.0231  0.5362  0.8233
  379MOL0     C51043  -0.174  11.360   3.660  0.3856 -0.1687 -0.5389
  379MOL0     C51044  -0.305  11.313   3.738 -0.3674  0.1839  0.2973
  379MOL0     C51045  -0.273  11.258   3.879  0.1976 -0.5387 -0.0559
  379MOL0     C51046  -0.204  11.372   3.962 -0.3702 -0.2092 -1.3225
  379MOL0     N51047  -0.190  11.342   4.101 -0.3256 -0.0885 -0.4183
  379MOL0     C51048  -0.106  11.243   4.146 -0.2160 -0.1138 -0.6842
  379MOL0     C51049  -0.108  11.259   4.278  1.2669 -0.6768 -0.8922
  379MOL0     C51050  -0.032  11.190   4.382  0.9100 -0.8701  0.0431
  379MOL0     C51051  -0.061  11.043   4.390  0.1245  0.1571 -0.3590
  379MOL0     C51052  -0.174  11.017   4.489 -0.5505  0.3851  0.3618
  379MOL0     C51053  -0.196  10.866   4.493 -0.2562  0.3101  0.0189
  379MOL0     O51054  -0.303  10.840   4.583  0.4618 -0.6503  1.0215
  379MOL0     C51055  -0.359  10.719   4.598  0.4297 -0.2138  0.2435
  379MOL0     C51056  -0.459  10.705   4.686 -0.6559 -0.8204 -0.4823
  379MOL0     C51057  -0.508  10.577   4.712 -0.3765 -0.9628 -0.0317
  379MOL0     C51058  -0.462  10.458   4.651  0.8863  0.6747 -0.1292
  379MOL0     C51059  -0.517  10.321   4.707  0.1144  0.0803  0.4771
  379MOL0     O51060  -0.471  10.209   4.641 -0.3312 -0.1351 -0.6879
  379MOL0     C51061  -0.509  10.087   4.686  0.3129  0.1547 -1.4202
  379MOL0     C51062  -0.646  10.058   4.716 -0.4497 -0.2486 -0.0245
  379MOL0     C51063  -0.691   9.933   4.758 -0.3051  0.0584  0.2950
  379MOL0     C51064  -0.600   9.828   4.782  0.0262  0.3580 -0.0186
  379MOL0     O51065  -0.648   9.705   4.818 -0.4529 -0.5246  0.3719
  379MOL0     C51066  -0.591   9.579   4.759 -0.2027  0.1584 -0.3811
  379MOL0     C51067  -0.606   9.471   4.866  0.5686  0.0625  0.0918
  379MOL0     C51068  -0.753   9.466   4.926  0.2751  0.5471  0.7152
  379MOL0     C51069  -0.761   9.411   5.062  0.0321 -0.3103 -0.7010
  379MOL0     C51070  -0.894   9.352   5.103 -0.4759  0.3349 -0.3332
  379MOL0     C51071  -0.908   9.317   5.259 -0.2487 -0.2942  0.6333
  379MOL0     C51072  -1.052   9.260   5.276  0.0577  0.2727  0.7797
  379MOL0     C51073  -1.067   9.197   5.412  0.0057 -0.0760  0.5405
  379MOL0    Cl51074  -0.975   9.050   5.419 -0.2852 -0.2051 -0.1848
  379MOL0     C51075  -0.466   9.854   4.751  0.4893 -0.5635  0.8339
  379MOL0     C51076  -0.417   9.984   4.713 -0.2920  0.4166  0.5363
  379MOL0     O51077  -0.582  10.315   4.812  0.1581 -0.4441  0.3408
  379MOL0     C51078  -0.362  10.468   4.558 -0.7000  0.2960  0.0467
  379MOL0     C51079  -0.305  10.597   4.539 -0.6605 -0.1521 -0.4114
  379MOL0     N51080  -0.192  11.369   4.313  0.2597  0.7664  0.6613
  379MOL0     N51081  -0.235  11.419   4.205 -0.6939  0.3714  0.4291
  379MOL0     C51082   0.096  10.944   4.044 -0.6237 -0.7270 -0.5740
  379MOL0     C51083   0.144  10.854   4.145  0.2602  0.9045  0.5657
  379MOL0     C51084   0.327  10.638   4.494 -0.3229 -0.0202 -0.5617
  379MOL0     C51085   0.467  10.672   4.499  0.7194  0.9600  0.0274
  379MOL0     C51086   0.551  10.597   4.583 -0.2023 -1.0619  0.5576
  379MOL0     C51087   0.507  10.493   4.660  0.1910 -0.1234 -0.2806
  379MOL0     O51088   0.570  10.422   4.755 -0.5611  0.0346  0.2297
  379MOL0     C51089   0.611  10.495   4.869  0.3790  0.7142 -0.4095
  379MOL0     C51090   0.676  10.405   4.973  0.0400  0.2020 -0.9456
  379MOL0     C51091   0.571  10.329   5.064 -1.4338  0.1352  0.2320
  379MOL0     C51092   0.497  10.210   5.003  1.2737  0.3886  0.4499
  379MOL0     C51093   0.360  10.239   4.957 -0.1847 -0.2862  0.4549
  379MOL0     C51094   0.238  10.249   4.924 -0.0990  0.0461 -0.4663
  379MOL0     C51095   0.368  10.464   4.656  0.0585  0.1835  0.5819
  379MOL0     C51096   0.276  10.529   4.570  0.1224 -1.0008 -0.5908
  379MOL0     C51097   0.133  10.490   4.585  0.2655 -1.0149  0.9325
  379MOL0     H51098   0.388  11.044   4.265 -2.1442  2.1716  2.3042
  379MOL0     H51099   0.302  11.197   4.098 -0.7678  1.2495  5.8280
  379MOL0     H51100   0.200  11.329   3.900 -1.0267  1.0408 -2.2287
  379MOL0     H51101   0.310  11.184   3.866  1.8510  3.5731  1.6232
  379MOL0     H51102   0.184  11.176   3.641  2.8570  0.0381 -0.9507
  379MOL0     H51103   0.284  11.315   3.680 -1.6256  1.4661 -2.8364
  379MOL0     H51104   0.111  11.389   3.562  2.3952  2.3169  0.2196
  379MOL0     H51105   0.073  11.448   3.724  1.5261 -1.0612  1.1798
  379MOL0     H51106  -0.053  11.195   3.609 -0.1331  3.3703 -2.8688
  379MOL0     H51107  -0.054  11.235   3.779  0.9826  0.2641  0.7588
  379MOL0     H51108  -0.165  11.462   3.699 -0.4575 -1.3468  3.1411
  379MOL0     H51109  -0.192  11.370   3.552 -2.0289 -1.4749 -0.3223
  379MOL0     H51110  -0.373  11.399   3.749 -0.6193  0.0493 -0.1967
  379MOL0     H51111  -0.369  11.235   3.695 -0.9444 -0.7611  2.6887
  379MOL0     H51112  -0.216  11.164   3.882  0.4319 -0.4224  3.1748
  379MOL0     H51113  -0.371  11.246   3.928 -0.5629  1.9978 -0.8144
  379MOL0     H51114  -0.099  11.387   3.933 -0.0422 -1.0551 -0.6166
  379MOL0     H51115  -0.253  11.469   3.954 -1.6216 -0.1021  4.0922
  379MOL0     H51116  -0.044  11.170   4.095  0.2585 -0.5347  0.4470
  379MOL0     H51117   0.073  11.210   4.359  0.9424 -1.2767 -0.1589
  379MOL0     H51118  -0.055  11.234   4.480 -1.7789 -0.2621 -0.7707
  379MOL0     H51119  -0.069  11.001   4.290  2.2525  0.0154 -0.5197
  379MOL0     H51120   0.031  10.998   4.428 -0.8885 -0.1032  1.9601
  379MOL0     H51121  -0.267  11.064   4.457 -1.5073 -1.5225  0.1831
  379MOL0     H51122  -0.140  11.042   4.590  3.3032 -0.7448 -0.4642
  379MOL0     H51123  -0.103  10.810   4.510 -0.0264 -1.1446 -4.7386
  379MOL0     H51124  -0.224  10.828   4.395  0.7950  1.1135 -0.6068
  379MOL0     H51125  -0.496  10.786   4.747 -1.8152 -2.4733  1.1253
  379MOL0     H51126  -0.593  10.571   4.779 -0.2992 -2.0587 -0.0076
  379MOL0     H51127  -0.718  10.136   4.694  1.2224  2.3496  2.9882
  379MOL0     H51128  -0.797   9.910   4.751  0.0439 -1.5746 -0.0283
  379MOL0     H51129  -0.639   9.546   4.667 -0.8722 -0.4574  0.1818
  379MOL0     H51130  -0.483   9.584   4.743  0.0556  5.4402  1.1066
  379MOL0     H51131  -0.563   9.374   4.838  1.5664  0.4500  0.2695
  379MOL0     H51132  -0.557   9.501   4.959  0.1289 -1.6202  0.9239
  379MOL0     H51133  -0.799   9.566   4.923  1.3384  1.0347 -0.4869
  379MOL0     H51134  -0.815   9.403   4.862  2.9701 -1.3073 -0.2210
  379MOL0     H51135  -0.738   9.487   5.138 -2.0763  0.3033 -0.5952
  379MOL0     H51136  -0.681   9.337   5.067  1.8008  1.6106  1.3471
  379MOL0     H51137  -0.907   9.259   5.048 -0.2668 -0.9407  1.6592
  379MOL0     H51138  -0.969   9.425   5.074 -0.6180  2.4569  4.3622
  379MOL0     H51139  -0.828   9.249   5.291  0.4172  0.1102 -0.1378
  379MOL0     H51140  -0.896   9.408   5.319  3.1260 -0.1557 -0.0592
  379MOL0     H51141  -1.082   9.182   5.206  0.5578  1.0288 -0.2966
  379MOL0     H51142  -1.125   9.341   5.269 -0.5999 -0.1619  2.0442
  379MOL0     H51143  -1.028   9.264   5.489  1.3671  2.5619 -2.2190
  379MOL0     H51144  -1.169   9.175   5.446 -0.3388  0.9036  0.1990
  379MOL0     H51145  -0.389   9.785   4.784  0.3484 -0.4547  1.3932
  379MOL0     H51146  -0.314  10.003   4.683 -0.8413  1.3588 -0.8574
  379MOL0     H51147  -0.315  10.380   4.514 -1.8371 -1.5726  2.3908
  379MOL0     H51148  -0.211  10.612   4.488 -0.0840  1.0786  0.9361
  379MOL0     H51149   0.016  10.913   3.977  0.6307 -1.8714 -1.5922
  379MOL0     H51150   0.097  10.756   4.149 -0.7730  1.3849  0.7684
  379MOL0     H51151   0.515  10.756   4.450  0.9828  0.9506  0.2714
  379MOL0     H51152   0.657  10.618   4.576  0.2722 -3.2082  0.6827
  379MOL0     H51153   0.530  10.538   4.930  2.3049 -1.0082  3.7894
  379MOL0     H51154   0.680  10.577   4.845  1.4301 -0.2679 -0.8251
  379MOL0     H51155   0.741  10.471   5.032 -1.0018  1.4698 -1.1674
  379MOL0     H51156   0.749  10.337   4.928  1.6187  2.6686 -2.3506
  379MOL0     H51157   0.501  10.400   5.109 -2.3782  0.5334 -1.7621
  379MOL0     H51158   0.626  10.284   5.147 -0.4086  2.1165  0.6967
  379MOL0     H51159   0.555  10.162   4.923 -1.8312 -1.7430 -0.7439
  379MOL0     H51160   0.481  10.133   5.079 -0.0504  2.1113  1.9795
  379MOL0     H51161   0.137  10.242   4.890 -0.3416  0.0713  0.2178
  379MOL0     H51162   0.341  10.384   4.724  1.5451 -0.1652  0.7867
  379MOL0     H51163   0.128  10.415   4.665  0.2006 -1.4300  0.5429
  379MOL0     H51164   0.069  10.569   4.625 -2.5371 -2.9334  0.5225
  379MOL0     H51165   0.082  10.451   4.497 -0.6505  2.5567 -0.3053
  380MOL0     O51166   1.817   8.411   9.225 -0.1158 -0.8710 -0.5731
  380MOL0     C51167   1.825   8.325   9.144  0.4304 -0.1363 -0.5249
  380MOL0     O51168   1.904   8.217   9.159 -0.1640  0.1220 -0.2759
  380MOL0     C51169   2.003   8.214   9.254 -0.2796  0.7429 -0.4015
  380MOL0     C51170   1.993   8.108   9.342 -0.6032 -0.2725 -0.3465
  380MOL0     C51171   2.084   8.112   9.449  0.0613  0.6490 -0.8393
  380MOL0     C51172   2.179   8.209   9.470 -0.3303 -0.7722  0.0757
  380MOL0     O51173   2.257   8.207   9.590 -0.2705  0.5833  0.2075
  380MOL0     C51174   2.240   8.308   9.685  0.1772  0.5899  0.2261
  380MOL0     C51175   2.281   8.230   9.814  0.3679 -0.8419  0.0657
  380MOL0     C51176   2.161   8.150   9.871 -0.2969  0.4374  0.2277
  380MOL0     C51177   2.191   8.119  10.026 -0.9728 -0.4798 -0.1470
  380MOL0     C51178   2.072   8.046  10.087  0.4722  0.0082 -0.9016
  380MOL0     C51179   2.105   7.981  10.227 -0.1346  0.2717  0.0663
  380MOL0     C51180   1.968   7.947  10.282  0.2965  0.0871 -0.5278
  380MOL0     C51181   1.980   7.885  10.421  0.0040  0.4146  0.7145
  380MOL0     N51182   2.063   7.756  10.414  0.0145  0.4199  0.4357
  380MOL0     C51183   2.186   7.738  10.465  0.4428 -0.6988  0.5559
  380MOL0     C51184   2.221   7.611  10.440  0.8373  0.3729  1.1249
  380MOL0     C51185   2.351   7.533  10.467  0.2673  0.2007  0.0541
  380MOL0     C51186   2.442   7.583  10.576  1.1298  0.7234  0.0532
  380MOL0     C51187   2.567   7.497  10.581  0.6578  0.2227  0.3089
  380MOL0     C51188   2.679   7.540  10.476  0.1714 -0.4920 -0.3277
  380MOL0     O51189   2.796   7.464  10.516 -0.4269 -0.3761  0.1562
  380MOL0     C51190   2.857   7.384  10.419  1.0401  0.0245 -0.0270
  380MOL0     C51191   2.856   7.410  10.281 -0.5269 -1.3217  0.1536
  380MOL0     C51192   2.881   7.303  10.200 -1.1147 -0.1327 -0.2783
  380MOL0     C51193   2.909   7.173  10.250 -0.6622 -0.1083 -0.1203
  380MOL0     C51194   2.923   7.060  10.150 -0.1337 -0.7948  0.2388
  380MOL0     O51195   2.860   7.081  10.033  0.0110  0.4027 -0.2998
  380MOL0     C51196   2.855   6.991   9.936  0.1870  1.1805 -0.3098
  380MOL0     C51197   2.865   7.039   9.804  0.3233 -0.1326  0.0468
  380MOL0     C51198   2.825   6.961   9.689 -0.0424  0.0189 -0.0142
  380MOL0     C51199   2.776   6.830   9.710 -0.3126 -0.7303 -0.2531
  380MOL0     O51200   2.712   6.770   9.602 -0.1708 -0.1293  0.2774
  380MOL0     C51201   2.696   6.628   9.613 -0.8345 -0.2171  0.4661
  380MOL0     C51202   2.680   6.558   9.477  0.3515 -0.2845 -0.2134
  380MOL0     C51203   2.810   6.585   9.395 -0.2833 -0.6926  0.5596
  380MOL0     C51204   2.798   6.503   9.266 -0.8251 -0.4582  0.4083
  380MOL0     C51205   2.844   6.347   9.275 -0.5599 -0.3998  0.8849
  380MOL0     C51206   2.792   6.271   9.156  0.2710  0.9005  0.3724
  380MOL0     C51207   2.816   6.118   9.177  0.2449  0.0607 -0.3307
  380MOL0     C51208   2.704   6.039   9.123  0.5204  0.9276 -0.3880
  380MOL0    Cl51209   2.677   6.044   8.951 -0.0327 -0.1010 -0.2101
  380MOL0     C51210   2.789   6.776   9.846  0.4143 -1.0641  0.2567
  380MOL0     C51211   2.825   6.857   9.949 -0.6007 -0.2301  0.2370
  380MOL0     O51212   2.979   6.954  10.186  0.3847  0.7480  0.0376
  380MOL0     C51213   2.941   7.160  10.384  0.2535  0.0167 -0.8740
  380MOL0     C51214   2.904   7.260  10.473 -0.1359 -0.0154 -0.5967
  380MOL0     N51215   2.121   7.553  10.365 -0.1467  0.1680 -0.2033
  380MOL0     N51216   2.027   7.640  10.357  0.5644  0.0132  0.8814
  380MOL0     C51217   2.184   8.317   9.375 -0.5966  1.0880 -1.1669
  380MOL0     C51218   2.104   8.310   9.263 -0.9273  0.5456 -0.2409
  380MOL0     C51219   1.760   8.340   9.011  0.5453  0.6736 -0.4173
  380MOL0     C51220   1.810   8.256   8.907  0.4534 -1.0888  0.0167
  380MOL0     C51221   1.760   8.272   8.775  0.0322  0.4350 -0.1081
  380MOL0     C51222   1.661   8.366   8.745  0.3396  0.4458 -0.2934
  380MOL0     O51223   1.614   8.385   8.620 -0.2105 -0.3083 -0.7344
  380MOL0     C51224   1.703   8.352   8.517 -0.2073 -0.3573 -0.9229
  380MOL0     C51225   1.664   8.434   8.395  0.1071 -0.2066 -0.2096
  380MOL0     C51226   1.703   8.577   8.382 -0.3887 -0.0568  0.3635
  380MOL0     C51227   1.845   8.613   8.328  0.9513  0.1635 -0.8545
  380MOL0     C51228   1.863   8.759   8.328  0.1208  1.5455  0.1255
  380MOL0     C51229   1.886   8.875   8.322 -0.2768  1.2935  0.3943
  380MOL0     C51230   1.606   8.441   8.851 -0.6318  0.4295  1.0312
  380MOL0     C51231   1.657   8.433   8.977 -0.8619 -0.3735 -0.2623
  380MOL0     C51232   1.585   8.517   9.081  0.1560  0.1935 -0.1613
  380MOL0     H51233   1.925   8.026   9.322 -0.8297  0.1345 -1.3465
  380MOL0     H51234   2.083   8.032   9.522 -0.1569  0.0437 -1.4975
  380MOL0     H51235   2.313   8.387   9.665  0.1306  0.2259 -1.5304
  380MOL0     H51236   2.136   8.342   9.687  0.2894  1.3946 -2.7248
  380MOL0     H51237   2.297   8.307   9.890  0.3635  0.8004 -1.5093
  380MOL0     H51238   2.370   8.171   9.793  0.5447 -1.2650  1.8874
  380MOL0     H51239   2.148   8.051   9.827 -1.6048 -0.6433  2.8242
  380MOL0     H51240   2.069   8.209   9.859 -0.2701  0.9044  2.0459
  380MOL0     H51241   2.289   8.072  10.040  1.6778  4.5634  0.3475
  380MOL0     H51242   2.198   8.215  10.077 -1.0933 -0.7162  0.3122
  380MOL0     H51243   1.978   8.100  10.092 -1.4918 -3.2856  0.8712
  380MOL0     H51244   2.052   7.962  10.019 -3.5820 -1.2057  1.4576
  380MOL0     H51245   2.170   7.894  10.214  0.0296  0.0873  1.9035
  380MOL0     H51246   2.155   8.048  10.298  0.1384  2.1732 -1.7938
  380MOL0     H51247   1.912   7.878  10.218 -0.1320  0.6870 -0.8001
  380MOL0     H51248   1.909   8.039  10.283  1.2997  0.7465  0.6818
  380MOL0     H51249   2.016   7.954  10.498 -0.6473  0.8585  0.6331
  380MOL0     H51250   1.876   7.858  10.441 -0.3228  1.2560  0.2050
  380MOL0     H51251   2.237   7.813  10.524  1.9445 -2.6722  1.9036
  380MOL0     H51252   2.318   7.432  10.491  1.2461  0.0477  0.8128
  380MOL0     H51253   2.400   7.518  10.371 -2.0981  0.0321 -1.2084
  380MOL0     H51254   2.471   7.688  10.574  0.9180  0.8155  1.0090
  380MOL0     H51255   2.382   7.583  10.668 -1.2842 -2.5315 -1.3094
  380MOL0     H51256   2.530   7.395  10.564 -0.7063  0.9783 -1.6357
  380MOL0     H51257   2.606   7.514  10.681 -1.3626  4.6907  0.5701
  380MOL0     H51258   2.693   7.649  10.477  1.2163 -0.5858 -1.6552
  380MOL0     H51259   2.651   7.517  10.373 -0.1531  2.6048 -1.0168
  380MOL0     H51260   2.836   7.509  10.240  2.8606 -1.2148 -1.6277
  380MOL0     H51261   2.859   7.306  10.094 -1.0619 -2.0986 -0.3754
  380MOL0     H51262   2.897   7.142   9.788 -3.1005  0.6931 -2.7960
  380MOL0     H51263   2.819   7.003   9.589  2.4722  1.6135  0.4501
  380MOL0     H51264   2.784   6.580   9.658  1.0847  0.2632 -2.5066
  380MOL0     H51265   2.604   6.599   9.663 -0.9660  2.1972  1.7980
  380MOL0     H51266   2.663   6.452   9.498  1.8087 -0.3250  0.9559
  380MOL0     H51267   2.593   6.590   9.418 -1.8664 -2.1901  1.8248
  380MOL0     H51268   2.801   6.689   9.361 -0.0642 -1.3553 -1.7461
  380MOL0     H51269   2.905   6.567   9.446 -0.4112  0.7617  1.3797
  380MOL0     H51270   2.873   6.549   9.201 -0.6306  2.1271  2.2865
  380MOL0     H51271   2.705   6.509   9.208  0.3593 -0.3451 -1.5792
  380MOL0     H51272   2.788   6.309   9.362 -0.0814 -1.3159  0.8106
  380MOL0     H51273   2.951   6.330   9.286 -0.6228 -1.5394 -0.1264
  380MOL0     H51274   2.690   6.295   9.125 -0.0435 -2.1689 -1.4253
  380MOL0     H51275   2.855   6.291   9.068  0.1066  0.5815  0.1792
  380MOL0     H51276   2.822   6.100   9.285  0.7828 -2.2855 -0.6856
  380MOL0     H51277   2.906   6.088   9.122  0.7158 -2.5868  1.6244
  380MOL0     H51278   2.724   5.933   9.140  1.9895  1.2358 -0.0658
  380MOL0     H51279   2.616   6.066   9.183  0.4477 -3.0167  1.5966
  380MOL0     H51280   2.770   6.673   9.874 -0.1190 -1.6506 -2.0660
  380MOL0     H51281   2.819   6.815  10.049 -0.1749 -0.5335  0.1351
  380MOL0     H51282   2.984   7.068  10.422  3.8887  0.7736 -2.6495
  380MOL0     H51283   2.922   7.247  10.579 -1.7246 -2.6153 -0.5504
  380MOL0     H51284   2.258   8.394   9.396  0.5233 -0.3432  0.3868
  380MOL0     H51285   2.113   8.385   9.185 -0.4988  0.8188  0.0678
  380MOL0     H51286   1.887   8.181   8.919  1.8909 -0.0764 -2.2612
  380MOL0     H51287   1.796   8.206   8.697 -1.5171  0.6656 -1.0636
  380MOL0     H51288   1.701   8.244   8.503  1.1227 -0.4163 -0.8046
  380MOL0     H51289   1.802   8.390   8.544 -0.0861  0.3074 -2.2008
  380MOL0     H51290   1.556   8.428   8.382  0.1459  0.4720 -0.9689
  380MOL0     H51291   1.717   8.382   8.315 -0.3170 -2.0598  0.6605
  380MOL0     H51292   1.708   8.637   8.473  0.8465  3.2811 -1.6896
  380MOL0     H51293   1.628   8.626   8.320 -2.0687 -1.6266  1.0703
  380MOL0     H51294   1.926   8.587   8.397 -0.3278  0.8927  1.0134
  380MOL0     H51295   1.873   8.572   8.231 -0.0474 -1.3708 -0.5256
  380MOL0     H51296   1.912   8.978   8.310  1.5722  0.7917 -0.2850
  380MOL0     H51297   1.530   8.517   8.831  0.8427  1.5442 -0.6606
  380MOL0     H51298   1.537   8.451   9.154  1.0587 -0.9261 -0.5486
  380MOL0     H51299   1.654   8.594   9.116 -1.6155  2.6694 -1.7473
  380MOL0     H51300   1.498   8.565   9.035 -1.7765 -3.9090 -1.2228
  381MOL0     O51301   4.212   2.635  10.738 -0.0577 -0.7893 -0.2186
  381MOL0     C51302   4.248   2.526  10.725 -0.0930  1.1511  0.2630
  381MOL0     O51303   4.358   2.499  10.653 -0.1255 -0.5194  0.0451
  381MOL0     C51304   4.439   2.604  10.604  0.2327  1.2194 -0.0861
  381MOL0     C51305   4.432   2.643  10.471  0.8981 -0.0893  0.5075
  381MOL0     C51306   4.506   2.755  10.436  0.4433  0.1778  0.4619
  381MOL0     C51307   4.578   2.828  10.531 -0.3475  0.6365 -0.1612
  381MOL0     O51308   4.646   2.940  10.490  0.5296  0.3300 -0.0578
  381MOL0     C51309   4.791   2.931  10.516  0.4553  0.1378  0.0909
  381MOL0     C51310   4.854   2.828  10.427  0.0006 -0.1307 -0.3866
  381MOL0     C51311   5.012   2.850  10.424  0.7595  0.1275  0.5844
  381MOL0     C51312   5.096   2.718  10.465  0.4704 -0.6954  0.6901
  381MOL0     C51313   5.104   2.605  10.368  0.1815  0.1255  0.1891
  381MOL0     C51314   5.179   2.654  10.239 -0.5185  0.3126  0.2198
  381MOL0     C51315   5.212   2.539  10.149 -0.0599  0.2583 -1.1129
  381MOL0     C51316   5.302   2.592  10.033 -0.8572  0.4730 -0.1239
  381MOL0     N51317   5.381   2.474   9.981  0.5832 -0.2688  0.6055
  381MOL0     C51318   5.342   2.369   9.891 -0.5634 -0.0741 -0.2269
  381MOL0     C51319   5.457   2.287   9.884  0.6539  0.0917 -0.6209
  381MOL0     C51320   5.461   2.155   9.818 -0.6623  0.5722 -0.1928
  381MOL0     C51321   5.413   2.039   9.903 -0.4179 -0.2615  1.1735
  381MOL0     C51322   5.441   1.905   9.843  0.4380 -0.6561 -0.3662
  381MOL0     C51323   5.367   1.802   9.931  0.4660 -0.2382 -1.2727
  381MOL0     O51324   5.354   1.670   9.867  0.1788  0.1409 -0.8505
  381MOL0     C51325   5.354   1.551   9.942  0.0315  0.1800 -0.3928
  381MOL0     C51326   5.471   1.495   9.999 -0.0056 -0.2141 -0.2561
  381MOL0     C51327   5.462   1.376  10.078  1.2414 -0.0138 -0.3733
  381MOL0     C51328   5.336   1.306  10.073  0.7611 -0.4661 -0.4420
  381MOL0     C51329   5.340   1.175  10.138 -0.5129  0.3604  0.3662
  381MOL0     O51330   5.461   1.125  10.172  0.3920 -0.1496 -2.1307
  381MOL0     C51331   5.451   1.005  10.238  0.5746  0.1378  0.7441
  381MOL0     C51332   5.504   0.885  10.172  0.6688  0.4534  0.7564
  381MOL0     C51333   5.471   0.762  10.228  0.3192 -0.4416  0.8194
  381MOL0     C51334   5.394   0.752  10.339 -0.2627  0.4288 -0.7944
  381MOL0     O51335   5.383   0.631  10.406  0.9253  0.4313  0.0706
  381MOL0     C51336   5.266   0.555  10.364 -0.2158 -0.7978 -0.3270
  381MOL0     C51337   5.257   0.425  10.450  0.1903  0.1164 -0.5672
  381MOL0     C51338   5.369   0.325  10.432 -0.3881  0.6121  0.3250
  381MOL0     C51339   5.383   0.270  10.286 -0.5282 -0.0050  0.7237
  381MOL0     C51340   5.503   0.165  10.267  0.7122  0.2686  0.1030
  381MOL0     C51341   5.473   0.021  10.310  0.1370  0.6897  0.4547
  381MOL0     C51342   5.589  -0.066  10.257  0.5074 -0.2767  0.5042
  381MOL0     C51343   5.581  -0.200  10.326  0.9515  1.1947  0.0449
  381MOL0    Cl51344   5.421  -0.266  10.282  0.3475  0.7108  0.2058
  381MOL0     C51345   5.363   0.863  10.411 -1.3742 -0.3538  1.0773
  381MOL0     C51346   5.390   0.998  10.362  0.0562 -0.0574  0.0915
  381MOL0     O51347   5.234   1.112  10.138 -0.5174 -0.6693  0.2158
  381MOL0     C51348   5.222   1.354  10.001  1.0701 -0.3096 -1.3033
  381MOL0     C51349   5.233   1.480   9.944  0.3083 -0.3304  0.4166
  381MOL0     N51350   5.550   2.340   9.968 -0.0067 -0.8118 -0.1228
  381MOL0     N51351   5.509   2.452  10.018 -0.2360 -0.0752  0.2620
  381MOL0     C51352   4.586   2.778  10.663 -0.5120  0.2835  0.0575
  381MOL0     C51353   4.516   2.666  10.703 -0.3165  0.6697 -0.7148
  381MOL0     C51354   4.163   2.416  10.772 -0.0890  0.0268 -0.8111
  381MOL0     C51355   4.218   2.320  10.863 -0.4779 -0.5694 -0.1141
  381MOL0     C51356   4.147   2.218  10.927 -0.4227 -0.1007 -0.5964
  381MOL0     C51357   4.004   2.221  10.904  1.3159  0.2979 -0.6701
  381MOL0     O51358   3.904   2.127  10.941 -0.1804  0.2424  0.2858
  381MOL0     C51359   3.942   2.030  11.049 -0.7717 -0.7266  0.3301
  381MOL0     C51360   3.833   1.977  11.131  0.2540  0.5175  0.2537
  381MOL0     C51361   3.727   1.897  11.061 -1.0585 -0.2364  0.8697
  381MOL0     C51362   3.636   1.974  10.955  0.3366  0.6222 -0.2005
  381MOL0     C51363   3.555   2.079  11.031 -0.0065  0.4412 -0.0307
  381MOL0     C51364   3.488   2.166  11.085  1.1541 -0.5855 -0.3874
  381MOL0     C51365   3.949   2.311  10.812 -0.4639  0.0393  0.3125
  381MOL0     C51366   4.030   2.405  10.742 -0.2252  0.3437 -0.3263
  381MOL0     C51367   3.962   2.494  10.639  0.6440  0.4881 -0.2414
  381MOL0     H51368   4.361   2.590  10.408 -1.0022 -2.0111  3.9103
  381MOL0     H51369   4.510   2.790  10.334  2.0655  1.9169  1.0686
  381MOL0     H51370   4.826   3.026  10.477 -0.5953  0.4690 -0.0700
  381MOL0     H51371   4.819   2.930  10.622  2.4728  6.1428 -0.0101
  381MOL0     H51372   4.812   2.850  10.328 -1.8526  1.3213  0.6729
  381MOL0     H51373   4.834   2.723  10.453  1.8547 -0.9196 -1.8722
  381MOL0     H51374   5.028   2.928  10.499  2.4056  2.3832 -1.9357
  381MOL0     H51375   5.053   2.883  10.328  0.4902  0.5452  0.6065
  381MOL0     H51376   5.198   2.753  10.484  0.1557 -0.7193  2.6206
  381MOL0     H51377   5.061   2.679  10.561 -1.5079  1.1590  0.7834
  381MOL0     H51378   5.149   2.515  10.409  1.3087 -0.0033 -1.2513
  381MOL0     H51379   5.006   2.580  10.326  0.3458 -0.1961 -0.0025
  381MOL0     H51380   5.115   2.726  10.186 -0.8561  0.3027  0.6106
  381MOL0     H51381   5.274   2.696  10.273 -0.8382  0.7213  0.6178
  381MOL0     H51382   5.124   2.501  10.097 -0.3215  1.7999 -1.8507
  381MOL0     H51383   5.269   2.462  10.201 -1.0101 -2.1526 -3.3984
  381MOL0     H51384   5.241   2.647   9.961 -1.7326 -1.9977 -1.3888
  381MOL0     H51385   5.385   2.656  10.064 -1.8651  2.5360 -1.5279
  381MOL0     H51386   5.245   2.358   9.843 -2.2194  1.6619  2.4562
  381MOL0     H51387   5.402   2.156   9.725  0.5925 -0.3949 -1.0285
  381MOL0     H51388   5.568   2.138   9.801  0.0936  3.8618  0.5792
  381MOL0     H51389   5.480   2.037   9.990  1.9522  1.5353 -0.4621
  381MOL0     H51390   5.308   2.051   9.931 -0.4656 -0.8317  1.2390
  381MOL0     H51391   5.547   1.882   9.835  0.4380  0.0025 -3.6896
  381MOL0     H51392   5.410   1.902   9.738  3.2413  1.5416 -1.3894
  381MOL0     H51393   5.269   1.844   9.952  1.0936  2.0730 -2.5980
  381MOL0     H51394   5.426   1.789  10.023  0.9435  0.5717 -1.4528
  381MOL0     H51395   5.569   1.542   9.993  0.3828 -0.5066  2.5547
  381MOL0     H51396   5.555   1.340  10.120  0.0464 -0.3622  2.1414
  381MOL0     H51397   5.557   0.890  10.078  1.6709  0.3472  1.2987
  381MOL0     H51398   5.496   0.669  10.176  0.6754 -0.4041  0.9183
  381MOL0     H51399   5.173   0.613  10.373  0.0733 -0.2646 -0.7128
  381MOL0     H51400   5.263   0.526  10.259 -0.5344 -2.1199  0.0333
  381MOL0     H51401   5.263   0.459  10.554 -1.3634 -1.3018  0.0232
  381MOL0     H51402   5.157   0.390  10.425 -1.2016  3.8111 -0.8273
  381MOL0     H51403   5.465   0.375  10.446 -1.0040  2.3967 -1.3097
  381MOL0     H51404   5.355   0.236  10.494  0.0077  0.7982  0.6875
  381MOL0     H51405   5.413   0.360  10.231 -1.1606 -0.4592 -0.3993
  381MOL0     H51406   5.288   0.231  10.251 -1.4572  2.5260  0.2147
  381MOL0     H51407   5.589   0.190  10.329 -0.4967  3.0212  0.8169
  381MOL0     H51408   5.538   0.161  10.163 -0.8768  0.1527 -0.4576
  381MOL0     H51409   5.473   0.009  10.418  0.6773  0.0373  0.3893
  381MOL0     H51410   5.373  -0.006  10.272  0.1564  1.5932 -0.2878
  381MOL0     H51411   5.680  -0.010  10.283 -1.5086  2.7536  1.6852
  381MOL0     H51412   5.594  -0.076  10.148 -0.2394  0.1236  0.4267
  381MOL0     H51413   5.661  -0.264  10.287  1.0723  0.2886  1.6828
  381MOL0     H51414   5.594  -0.188  10.433  0.0932  0.3102  0.2587
  381MOL0     H51415   5.329   0.852  10.514 -0.6910  1.6632  1.5629
  381MOL0     H51416   5.353   1.085  10.416 -1.7074  0.4759 -1.8432
  381MOL0     H51417   5.138   1.293   9.969  1.3113  0.2852 -3.1624
  381MOL0     H51418   5.155   1.526   9.883  0.9309 -0.2666 -0.3466
  381MOL0     H51419   4.642   2.833  10.739  1.2333 -2.3790  0.8659
  381MOL0     H51420   4.505   2.643  10.808 -1.4072  0.0719 -0.9356
  381MOL0     H51421   4.323   2.337  10.889 -1.8384  2.4805  4.8124
  381MOL0     H51422   4.198   2.153  10.998  0.6806  0.2328 -1.0675
  381MOL0     H51423   4.023   2.060  11.116 -1.7142 -1.7492  2.0135
  381MOL0     H51424   3.982   1.942  10.998  1.8308  0.7209 -0.2685
  381MOL0     H51425   3.788   2.070  11.166 -0.4307  0.7842 -1.2649
  381MOL0     H51426   3.883   1.925  11.213  1.7520  1.0889 -0.2784
  381MOL0     H51427   3.651   1.864  11.131 -1.7976  1.7857  1.0966
  381MOL0     H51428   3.777   1.808  11.023  1.3981  0.6487  1.8377
  381MOL0     H51429   3.694   2.019  10.873  1.9022 -0.0560  0.4818
  381MOL0     H51430   3.567   1.909  10.901  2.2260 -1.9506  0.3093
  381MOL0     H51431   3.449   2.252  11.137  0.7969  1.2315 -3.4274
  381MOL0     H51432   3.842   2.309  10.793 -0.4062  2.4455 -0.6616
  381MOL0     H51433   4.011   2.477  10.543  1.8257 -0.6011  0.5276
  381MOL0     H51434   3.856   2.465  10.639 -0.1280  2.9183 -2.4200
  381MOL0     H51435   3.974   2.596  10.678  0.9462  0.0437  0.8608
  382MOL0     O51436   1.734   6.416   5.748  0.0399 -0.6552  0.4085
  382MOL0     C51437   1.682   6.504   5.679 -0.5574 -0.9880  0.3163
  382MOL0     O51438   1.744   6.594   5.594  0.1163  0.4281 -0.8237
  382MOL0     C51439   1.837   6.546   5.506 -1.2235 -0.2626 -0.1164
  382MOL0     C51440   1.860   6.412   5.461  0.7316  1.1223  0.8631
  382MOL0     C51441   1.959   6.380   5.362  0.7984 -0.3680 -0.2614
  382MOL0     C51442   2.045   6.484   5.312 -0.2379 -0.7568 -0.3653
  382MOL0     O51443   2.142   6.457   5.214  0.7386 -1.0524  0.6137
  382MOL0     C51444   2.086   6.382   5.102 -0.7026 -0.7121 -0.4075
  382MOL0     C51445   2.168   6.254   5.075 -0.7464  0.7908  0.5301
  382MOL0     C51446   2.298   6.286   5.002  0.5734  0.5364  0.0830
  382MOL0     C51447   2.287   6.292   4.845  0.3702  0.2697  0.3672
  382MOL0     C51448   2.390   6.383   4.775  0.0312 -0.1167 -0.9393
  382MOL0     C51449   2.375   6.392   4.632 -0.0794  0.6868  0.4175
  382MOL0     C51450   2.461   6.505   4.577  0.4031 -0.2239  0.8772
  382MOL0     C51451   2.616   6.465   4.570  0.2020 -0.9073  0.2033
  382MOL0     N51452   2.696   6.582   4.526  0.3302 -0.2565 -0.0149
  382MOL0     C51453   2.730   6.691   4.608  0.7154  0.3614 -0.5747
  382MOL0     C51454   2.786   6.774   4.520  0.0288 -0.5496  0.0133
  382MOL0     C51455   2.834   6.910   4.569 -0.5409  0.2647  0.2785
  382MOL0     C51456   2.985   6.923   4.568 -0.8504 -0.3433  0.1761
  382MOL0     C51457   3.031   7.055   4.608  0.0151  0.0176  0.0809
  382MOL0     C51458   2.994   7.177   4.522  0.2555  0.4241 -0.3477
  382MOL0     O51459   3.070   7.297   4.529  1.2211 -0.6311 -0.5839
  382MOL0     C51460   3.019   7.384   4.614  0.2358 -0.0475 -0.2292
  382MOL0     C51461   2.998   7.514   4.565  0.3000  0.2648  0.1672
  382MOL0     C51462   2.945   7.614   4.645 -0.5130  0.2876  0.5919
  382MOL0     C51463   2.906   7.594   4.780 -0.2523 -0.1333 -0.0034
  382MOL0     C51464   2.841   7.705   4.861 -0.0107 -0.5082  0.0344
  382MOL0     O51465   2.799   7.665   4.991 -0.7156 -0.1201  0.1077
  382MOL0     C51466   2.748   7.762   5.078 -0.7162  1.2045 -0.0713
  382MOL0     C51467   2.777   7.753   5.214 -0.1506 -0.4767 -0.5681
  382MOL0     C51468   2.720   7.842   5.300 -0.4660  0.5839 -0.1295
  382MOL0     C51469   2.648   7.962   5.262  0.5822  0.3608 -0.2301
  382MOL0     O51470   2.629   8.065   5.354 -1.0443 -0.6875 -0.1115
  382MOL0     C51471   2.551   8.184   5.315  0.1192  0.1471 -0.1829
  382MOL0     C51472   2.402   8.138   5.312 -0.4451 -0.7587  0.0694
  382MOL0     C51473   2.368   8.042   5.422  0.2754 -0.1791  0.2979
  382MOL0     C51474   2.211   8.042   5.450  0.3381  0.3144 -0.7444
  382MOL0     C51475   2.161   7.937   5.548 -0.1349  0.4533 -0.2651
  382MOL0     C51476   2.131   7.802   5.468  0.3702 -0.6172 -0.8334
  382MOL0     C51477   2.151   7.671   5.544  0.6916 -0.4693 -0.1032
  382MOL0     C51478   2.063   7.556   5.490 -0.2229  0.9400 -0.4635
  382MOL0    Cl51479   2.083   7.403   5.584  0.0211  0.0958  0.0096
  382MOL0     C51480   2.617   7.968   5.126  0.3516  0.6614 -0.2557
  382MOL0     C51481   2.660   7.867   5.041  0.3497 -0.1332  1.3859
  382MOL0     O51482   2.816   7.814   4.813 -0.0772 -1.0682  0.3229
  382MOL0     C51483   2.927   7.467   4.825  0.1220  0.2844 -0.4181
  382MOL0     C51484   2.986   7.364   4.753 -0.7402  0.2812  0.4965
  382MOL0     N51485   2.797   6.718   4.392  0.1524  0.2734  1.4034
  382MOL0     N51486   2.744   6.603   4.397  0.3209  0.4742 -0.5132
  382MOL0     C51487   2.049   6.607   5.382 -0.2328 -0.1678 -0.3201
  382MOL0     C51488   1.943   6.637   5.461  0.0398  0.6110 -1.1578
  382MOL0     C51489   1.546   6.547   5.718  0.3872  0.3857 -0.3557
  382MOL0     C51490   1.503   6.674   5.672 -1.0658  0.2736 -0.4609
  382MOL0     C51491   1.393   6.727   5.729  0.1429 -0.1192 -0.3623
  382MOL0     C51492   1.325   6.670   5.837  0.7350  0.1109 -0.1529
  382MOL0     O51493   1.223   6.747   5.883  0.3068 -0.2701 -0.0990
  382MOL0     C51494   1.215   6.768   6.028 -0.1495  0.0631  0.1776
  382MOL0     C51495   1.100   6.861   6.049 -0.0258 -0.7172 -0.1533
  382MOL0     C51496   1.071   6.905   6.192  1.0714 -0.0246  0.5148
  382MOL0     C51497   0.946   6.997   6.201  1.0182  0.4277 -0.6636
  382MOL0     C51498   0.820   6.909   6.187  0.3949 -0.2155  0.3712
  382MOL0     C51499   0.735   6.831   6.201  0.0808  0.4347  0.5104
  382MOL0     C51500   1.355   6.535   5.867  0.2404  1.1761  0.2672
  382MOL0     C51501   1.458   6.467   5.803 -0.1133  0.4937  0.6023
  382MOL0     C51502   1.489   6.322   5.844  0.1867 -0.7044  0.2302
  382MOL0     H51503   1.793   6.337   5.501 -0.3821  1.9150  0.5185
  382MOL0     H51504   1.980   6.277   5.333  2.0087  0.2714 -1.8464
  382MOL0     H51505   1.982   6.358   5.122 -1.5517  2.4290 -0.4924
  382MOL0     H51506   2.086   6.442   5.011 -3.1981  0.3721  0.2181
  382MOL0     H51507   2.117   6.167   5.032 -1.9404  0.7573  1.9281
  382MOL0     H51508   2.198   6.212   5.172  1.0652 -4.1798 -1.8485
  382MOL0     H51509   2.364   6.201   5.020 -0.0062  0.1209  0.2869
  382MOL0     H51510   2.355   6.371   5.042 -0.2809  0.5718  1.2584
  382MOL0     H51511   2.298   6.189   4.809  0.7615  0.0962  0.9617
  382MOL0     H51512   2.187   6.332   4.825  0.1253  0.1751  1.3641
  382MOL0     H51513   2.386   6.487   4.807 -0.7450 -0.0761 -1.1414
  382MOL0     H51514   2.488   6.338   4.795  0.4041  0.5412 -1.2414
  382MOL0     H51515   2.392   6.295   4.584 -0.0645  0.4741  0.8455
  382MOL0     H51516   2.277   6.424   4.595 -0.1424  0.2543  0.2029
  382MOL0     H51517   2.447   6.603   4.624 -0.9776  1.0390 -1.8815
  382MOL0     H51518   2.438   6.529   4.472  1.0612  0.7615  0.9398
  382MOL0     H51519   2.639   6.429   4.671  0.2792 -2.1301 -0.2377
  382MOL0     H51520   2.632   6.381   4.502 -2.4034  0.6416 -2.6132
  382MOL0     H51521   2.694   6.698   4.710  1.4388 -0.4375 -0.2555
  382MOL0     H51522   2.797   6.989   4.502  3.2807  1.5055 -0.6451
  382MOL0     H51523   2.796   6.923   4.670 -0.0907 -0.4956  0.5507
  382MOL0     H51524   3.029   6.848   4.635  1.2265 -0.2714 -1.0173
  382MOL0     H51525   3.024   6.890   4.472  0.7642 -1.9928  1.3285
  382MOL0     H51526   3.140   7.049   4.614 -0.1488 -1.5773  3.2022
  382MOL0     H51527   2.994   7.062   4.711  0.6244  0.8691  0.2580
  382MOL0     H51528   2.889   7.200   4.537  1.1154  4.2244  0.9986
  382MOL0     H51529   2.999   7.162   4.414  1.0696 -0.7648 -0.1729
  382MOL0     H51530   3.026   7.544   4.465  0.3600  0.5445  0.2658
  382MOL0     H51531   2.936   7.708   4.591  2.3204  0.4624  0.2804
  382MOL0     H51532   2.833   7.668   5.252  0.1888  0.5007  1.1797
  382MOL0     H51533   2.739   7.819   5.404  0.1183 -0.0228 -0.3676
  382MOL0     H51534   2.566   8.256   5.396 -0.0424 -0.6611  0.5896
  382MOL0     H51535   2.575   8.228   5.218  0.2968  0.7666  0.1338
  382MOL0     H51536   2.344   8.231   5.323 -1.7412 -1.3250 -1.5580
  382MOL0     H51537   2.370   8.096   5.216 -4.8420  1.9961  0.0414
  382MOL0     H51538   2.398   7.942   5.390  1.3771 -0.2633  1.4950
  382MOL0     H51539   2.425   8.056   5.515 -0.7417 -0.3689  0.9648
  382MOL0     H51540   2.162   8.031   5.352 -0.3155  2.5094 -0.7054
  382MOL0     H51541   2.178   8.135   5.496 -1.2640 -0.3864 -0.3918
  382MOL0     H51542   2.066   7.965   5.595 -0.3724  0.2065 -0.5970
  382MOL0     H51543   2.242   7.930   5.622 -0.9241  0.8074  0.6539
  382MOL0     H51544   2.035   7.828   5.423  0.2035 -2.5648 -1.7107
  382MOL0     H51545   2.198   7.797   5.382  0.1907  1.5610 -1.1590
  382MOL0     H51546   2.121   7.695   5.647 -0.0549  2.3065 -0.8879
  382MOL0     H51547   2.252   7.631   5.534  0.4825 -0.9047 -0.5192
  382MOL0     H51548   1.960   7.593   5.495 -0.9978 -1.1700  0.3287
  382MOL0     H51549   2.079   7.533   5.385 -2.6877 -0.8374 -0.5617
  382MOL0     H51550   2.565   8.052   5.081 -1.5266 -1.8083 -2.9914
  382MOL0     H51551   2.625   7.888   4.940  0.0879  0.6152  1.6232
  382MOL0     H51552   2.910   7.435   4.927  2.3930  0.1783 -0.0339
  382MOL0     H51553   3.033   7.278   4.799  0.5444  0.8405  0.2804
  382MOL0     H51554   2.124   6.684   5.370 -0.3144 -0.2568 -1.5209
  382MOL0     H51555   1.935   6.738   5.499 -1.5521 -0.1527  0.6922
  382MOL0     H51556   1.551   6.723   5.588 -2.6123  0.2595 -1.3798
  382MOL0     H51557   1.361   6.823   5.688  0.7180  0.9900  1.6058
  382MOL0     H51558   1.306   6.815   6.067 -1.3459  1.6467  1.1765
  382MOL0     H51559   1.185   6.675   6.077 -1.0276 -1.8883 -3.6926
  382MOL0     H51560   1.007   6.819   6.012 -0.6895 -0.3888  1.1015
  382MOL0     H51561   1.124   6.956   5.999  4.8521 -0.2134  2.5035
  382MOL0     H51562   1.148   6.970   6.234 -1.0740  0.6194  3.7823
  382MOL0     H51563   1.068   6.814   6.253  1.4618 -2.4374 -2.8042
  382MOL0     H51564   0.944   7.061   6.289  0.0235 -1.2446  0.6013
  382MOL0     H51565   0.947   7.057   6.109  1.7444 -1.6327 -2.0706
  382MOL0     H51566   0.656   6.758   6.203  2.5041 -2.4153 -0.9381
  382MOL0     H51567   1.299   6.478   5.941  0.2582  2.8453  1.6157
  382MOL0     H51568   1.511   6.254   5.761 -1.4411 -0.6988 -0.2379
  382MOL0     H51569   1.573   6.325   5.913 -0.4921 -1.0000  1.0819
  382MOL0     H51570   1.409   6.284   5.908  0.3335  1.6559  1.9621
  383MOL0     O51571  10.600   8.808   5.870  0.4235  0.0464 -0.0104
  383MOL0     C51572  10.608   8.813   5.747 -0.0768 -0.6199  0.3652
  383MOL0     O51573  10.500   8.831   5.662 -1.1632 -0.0039 -0.6293
  383MOL0     C51574  10.374   8.816   5.724 -0.0640 -0.9236  0.7277
  383MOL0     C51575  10.277   8.884   5.654  0.0418 -0.0966  0.5772
  383MOL0     C51576  10.139   8.866   5.689 -0.5028  0.3007  1.1453
  383MOL0     C51577  10.096   8.779   5.792  0.2190  0.8325 -0.0093
  383MOL0     O51578   9.962   8.762   5.819 -0.3046  0.7857 -0.4391
  383MOL0     C51579   9.914   8.844   5.907 -0.0449 -0.0542 -0.3225
  383MOL0     C51580   9.764   8.830   5.928  0.3189  0.9309 -0.0975
  383MOL0     C51581   9.713   8.696   5.974  0.3365  0.1791  0.2586
  383MOL0     C51582   9.557   8.690   5.965  0.3770 -0.6631  0.3383
  383MOL0     C51583   9.489   8.557   5.990 -1.2873  0.0790 -0.0310
  383MOL0     C51584   9.344   8.567   5.970  0.1892  0.4143  0.0761
  383MOL0     C51585   9.277   8.433   5.921  0.1788 -0.5802  0.1862
  383MOL0     C51586   9.128   8.454   5.875  0.1312  0.4428 -0.6217
  383MOL0     N51587   9.112   8.552   5.762  0.5499 -0.1115 -0.8898
  383MOL0     C51588   9.117   8.514   5.634  0.0716  0.1995 -0.2626
  383MOL0     C51589   9.084   8.624   5.568 -0.8905  0.1135  0.0260
  383MOL0     C51590   9.089   8.644   5.419 -0.2883  0.1966  1.1592
  383MOL0     C51591   8.951   8.604   5.359  0.2411 -0.1044  0.7850
  383MOL0     C51592   8.958   8.619   5.206  0.3791 -0.3329  0.4153
  383MOL0     C51593   8.981   8.760   5.155 -0.3752 -0.0614  0.7954
  383MOL0     O51594   8.965   8.757   5.014  0.6151 -0.5619 -0.1317
  383MOL0     C51595   8.972   8.873   4.944  1.1431 -1.2263  0.1872
  383MOL0     C51596   8.933   8.871   4.815  0.0522 -0.2671 -0.1675
  383MOL0     C51597   8.921   8.975   4.731  0.3230 -0.2373 -0.0698
  383MOL0     C51598   8.968   9.097   4.782 -0.4268  0.8335 -0.5072
  383MOL0     C51599   8.954   9.220   4.704 -0.2062  0.0715 -0.1843
  383MOL0     O51600   9.036   9.327   4.745  0.2795  0.2687 -0.6453
  383MOL0     C51601   9.055   9.429   4.660 -0.4803 -0.0596 -0.9780
  383MOL0     C51602   9.119   9.411   4.536  0.5879 -0.3114 -0.1298
  383MOL0     C51603   9.127   9.507   4.441 -0.0088  0.0965 -0.9688
  383MOL0     C51604   9.082   9.642   4.482  0.4661 -0.4714  0.6116
  383MOL0     O51605   9.100   9.734   4.379 -0.4643 -0.6326  0.0154
  383MOL0     C51606   9.228   9.796   4.371  0.3911 -0.1212 -0.1335
  383MOL0     C51607   9.224   9.933   4.297  0.1480  0.5426  0.0022
  383MOL0     C51608   9.149  10.043   4.381 -0.0961  0.6282  0.2350
  383MOL0     C51609   9.011  10.075   4.314  0.3667  0.3766  0.1225
  383MOL0     C51610   8.910   9.958   4.334 -0.9235 -0.4390 -0.2835
  383MOL0     C51611   8.769  10.004   4.337  1.3108 -0.1716 -0.2449
  383MOL0     C51612   8.685   9.877   4.372 -0.0346 -0.4894  0.8927
  383MOL0     C51613   8.533   9.905   4.335  0.4878  0.5016 -0.2577
  383MOL0    Cl51614   8.513   9.922   4.158  0.3188  0.5100  0.1747
  383MOL0     C51615   9.024   9.665   4.603 -0.1451  1.1192  0.4208
  383MOL0     C51616   9.019   9.562   4.698  0.1217  0.3459  0.2982
  383MOL0     O51617   8.871   9.225   4.612  0.6413 -0.1075  0.6065
  383MOL0     C51618   9.026   9.106   4.904 -0.4146 -0.1133  0.7081
  383MOL0     C51619   9.027   9.000   4.994  0.2389  0.7361  0.6070
  383MOL0     N51620   9.049   8.724   5.661  0.8989  0.0391  0.1271
  383MOL0     N51621   9.070   8.683   5.780  0.1114 -0.6236 -0.1454
  383MOL0     C51622  10.195   8.707   5.860  0.5317 -0.4321 -0.2386
  383MOL0     C51623  10.333   8.730   5.831  0.4107 -0.8059 -0.9501
  383MOL0     C51624  10.739   8.778   5.683 -0.1338 -0.1479 -0.5124
  383MOL0     C51625  10.774   8.858   5.574 -0.0312  0.3110  0.0564
  383MOL0     C51626  10.900   8.860   5.515 -0.3003  0.9354 -0.6336
  383MOL0     C51627  10.992   8.763   5.544 -0.1560  0.2629  0.4982
  383MOL0     O51628  11.119   8.749   5.485  0.3582  0.7145 -0.0235
  383MOL0     C51629  11.185   8.851   5.409  0.4543 -0.0549 -0.0175
  383MOL0     C51630  11.192   8.979   5.494 -0.2551 -0.4998  0.3742
  383MOL0     C51631  11.323   9.060   5.496  0.7228 -0.0462 -0.6893
  383MOL0     C51632  11.430   8.985   5.588  0.8381  0.5056 -0.2464
  383MOL0     C51633  11.553   9.059   5.606  0.6599  1.0472  1.0171
  383MOL0     C51634  11.651   9.125   5.616 -1.0430 -0.3546  0.3626
  383MOL0     C51635  10.963   8.678   5.650  0.8221  1.3545 -0.1014
  383MOL0     C51636  10.840   8.689   5.723  1.2652  0.5897  0.2804
  383MOL0     C51637  10.823   8.599   5.839 -0.4293 -0.6459 -0.0155
  383MOL0     H51638  10.316   8.929   5.564 -0.3186  2.3612  1.5827
  383MOL0     H51639  10.068   8.912   5.621 -0.9962 -0.2603  1.2744
  383MOL0     H51640   9.970   8.819   5.997 -2.6788  0.0532  1.4768
  383MOL0     H51641   9.935   8.948   5.883  1.7561 -0.6587 -1.5498
  383MOL0     H51642   9.727   8.857   5.829  0.2150 -1.0295 -0.6319
  383MOL0     H51643   9.732   8.903   6.003  0.7760 -1.5397  2.6614
  383MOL0     H51644   9.748   8.673   6.075 -0.0875 -2.0030 -0.0405
  383MOL0     H51645   9.749   8.618   5.907 -2.9214 -2.4252  1.2441
  383MOL0     H51646   9.503   8.747   6.041  0.2826 -1.1834  0.6704
  383MOL0     H51647   9.525   8.721   5.865 -1.2824  2.0519  1.6113
  383MOL0     H51648   9.541   8.479   5.933 -0.9730 -0.9409  1.5615
  383MOL0     H51649   9.508   8.525   6.093 -2.4159  3.8473  1.5059
  383MOL0     H51650   9.301   8.594   6.066  1.0274 -2.7329  1.4472
  383MOL0     H51651   9.330   8.651   5.900 -1.1575 -0.5019 -0.7848
  383MOL0     H51652   9.289   8.367   6.007  0.2031  0.4880  1.0343
  383MOL0     H51653   9.330   8.392   5.835  2.9123  1.0732  0.9650
  383MOL0     H51654   9.083   8.357   5.854  1.9687 -0.3956 -0.8318
  383MOL0     H51655   9.061   8.506   5.944  0.7196  0.1479  0.1821
  383MOL0     H51656   9.156   8.419   5.597  1.1331 -0.1128  1.5535
  383MOL0     H51657   9.112   8.749   5.404 -2.5005  0.4278 -1.4999
  383MOL0     H51658   9.170   8.582   5.379 -2.0636 -2.9974  2.0977
  383MOL0     H51659   8.939   8.498   5.383  3.0784 -0.8507 -0.5645
  383MOL0     H51660   8.870   8.664   5.400  0.4256  3.0825 -2.8360
  383MOL0     H51661   8.865   8.585   5.160 -0.3494  3.6346 -1.5503
  383MOL0     H51662   9.045   8.560   5.176  0.7479  0.9325 -1.1926
  383MOL0     H51663   9.080   8.794   5.187  0.1202  0.5375 -1.2111
  383MOL0     H51664   8.900   8.819   5.198 -0.3168  0.0460  0.7608
  383MOL0     H51665   8.904   8.772   4.782 -0.4260  0.1112 -0.9215
  383MOL0     H51666   8.877   8.962   4.633 -1.1856  1.0416  0.3779
  383MOL0     H51667   9.142   9.307   4.517 -3.4237 -1.0662 -1.8709
  383MOL0     H51668   9.181   9.501   4.347  3.5672  0.5779  0.8930
  383MOL0     H51669   9.262   9.823   4.471  2.7573 -0.1301 -0.8551
  383MOL0     H51670   9.304   9.731   4.327 -2.3653 -2.8181 -1.2542
  383MOL0     H51671   9.331   9.954   4.284  0.2264 -0.4022 -1.1134
  383MOL0     H51672   9.191   9.947   4.194  2.8047 -2.2141 -1.4160
  383MOL0     H51673   9.135  10.005   4.482  0.9126 -0.4541 -0.0053
  383MOL0     H51674   9.205  10.137   4.382  1.9681 -0.5611  1.3064
  383MOL0     H51675   9.022  10.084   4.205  1.6635 -2.8400 -0.1341
  383MOL0     H51676   8.959  10.162   4.354 -0.5244  0.5626 -1.3629
  383MOL0     H51677   8.936   9.903   4.425 -1.2525 -0.3614 -0.1427
  383MOL0     H51678   8.932   9.889   4.253 -1.5689 -0.7396 -0.2085
  383MOL0     H51679   8.757  10.079   4.416 -1.4022  0.8740 -1.5433
  383MOL0     H51680   8.755  10.040   4.235 -0.1211  1.9060  0.6188
  383MOL0     H51681   8.693   9.845   4.476 -2.0799 -0.1471  1.1901
  383MOL0     H51682   8.724   9.787   4.323  0.9230 -0.4705  1.5978
  383MOL0     H51683   8.478   9.819   4.374  0.5893  1.2047  1.5604
  383MOL0     H51684   8.508   9.991   4.398 -2.4618 -0.5990  0.2259
  383MOL0     H51685   8.986   9.765   4.623  1.6785  2.5268 -2.3938
  383MOL0     H51686   8.964   9.572   4.791  0.6627  0.1410  0.6461
  383MOL0     H51687   9.061   9.200   4.945 -2.5864  0.1225  2.2393
  383MOL0     H51688   9.061   9.003   5.097  1.8374 -0.4099  0.1512
  383MOL0     H51689  10.168   8.631   5.932 -1.6431  0.6501  0.1678
  383MOL0     H51690  10.406   8.677   5.892 -0.0585  1.6312  1.9744
  383MOL0     H51691  10.704   8.927   5.528 -0.7812 -1.7165 -2.0153
  383MOL0     H51692  10.921   8.935   5.439 -0.6291  1.0555 -0.6089
  383MOL0     H51693  11.138   8.865   5.312  1.1393 -1.3131 -0.5588
  383MOL0     H51694  11.285   8.812   5.388  0.7915  0.4855  0.5618
  383MOL0     H51695  11.150   8.956   5.593  0.7315 -2.6698  0.3594
  383MOL0     H51696  11.131   9.047   5.434  0.7406  0.7845  0.7504
  383MOL0     H51697  11.309   9.161   5.537 -1.1688  0.2897 -2.0416
  383MOL0     H51698  11.349   9.059   5.390 -4.5222 -2.7893 -2.3071
  383MOL0     H51699  11.376   8.968   5.682  1.2904 -3.5224 -0.5429
  383MOL0     H51700  11.462   8.885   5.556  1.0848  0.2861  0.6784
  383MOL0     H51701  11.739   9.184   5.634 -0.2632 -1.9147  1.9954
  383MOL0     H51702  11.041   8.604   5.669 -0.9581 -1.2828 -2.2829
  383MOL0     H51703  10.732   8.622   5.895 -0.1844  2.7158 -0.7580
  383MOL0     H51704  10.814   8.492   5.820 -4.4197 -0.1110 -2.0119
  383MOL0     H51705  10.910   8.608   5.906 -0.8197 -4.2031  1.1923
  384MOL0     O51706   2.097   4.169   8.079 -0.6392 -0.0240 -0.0216
  384MOL0     C51707   1.975   4.158   8.054  0.0770  0.3182 -0.1111
  384MOL0     O51708   1.914   4.128   7.925 -0.0124  0.0729  0.9196
  384MOL0     C51709   1.996   4.131   7.816  1.3014  0.1493  0.2343
  384MOL0     C51710   2.083   4.235   7.780  0.2265 -0.0085 -0.3712
  384MOL0     C51711   2.159   4.219   7.662  0.4101 -0.1532  0.1806
  384MOL0     C51712   2.146   4.106   7.580 -0.1111 -0.1000  0.3092
  384MOL0     O51713   2.227   4.111   7.469 -0.3465  0.6211 -0.3654
  384MOL0     C51714   2.233   3.985   7.390  0.6204  0.0926 -0.1959
  384MOL0     C51715   2.296   4.038   7.260  0.0949  0.3014  0.4255
  384MOL0     C51716   2.433   4.092   7.293 -0.2775  0.4614 -0.4566
  384MOL0     C51717   2.534   4.066   7.181 -0.3001 -0.3489 -0.4031
  384MOL0     C51718   2.656   4.158   7.189 -0.6536 -0.1415 -0.1089
  384MOL0     C51719   2.623   4.294   7.129 -0.4543 -0.0248  0.4414
  384MOL0     C51720   2.748   4.387   7.113  0.1162 -0.2279 -0.2818
  384MOL0     C51721   2.798   4.442   7.249  1.0586 -0.3766 -0.3062
  384MOL0     N51722   2.711   4.553   7.289 -0.6617  0.7494 -0.3727
  384MOL0     C51723   2.682   4.663   7.217  0.1359 -0.6273  0.9335
  384MOL0     C51724   2.605   4.736   7.294  0.0630 -0.2549  0.3666
  384MOL0     C51725   2.538   4.867   7.265  0.1126 -0.1869 -0.5385
  384MOL0     C51726   2.428   4.853   7.163  0.4016 -0.2953 -0.2623
  384MOL0     C51727   2.317   4.759   7.222 -0.0071  0.3287 -0.3784
  384MOL0     C51728   2.242   4.671   7.119 -0.0368 -0.1561 -0.1965
  384MOL0     O51729   2.180   4.559   7.181  0.2417  0.3490  0.5766
  384MOL0     C51730   2.099   4.583   7.287  0.6240 -0.2561  0.0232
  384MOL0     C51731   1.975   4.649   7.274 -0.6862  0.6405  0.0632
  384MOL0     C51732   1.884   4.652   7.381  0.3802 -0.1996 -0.5837
  384MOL0     C51733   1.917   4.578   7.501  0.2878  0.3032  0.5669
  384MOL0     C51734   1.832   4.586   7.617  0.0474  0.3418  0.1376
  384MOL0     O51735   1.845   4.478   7.698 -0.3293 -0.2387 -0.6680
  384MOL0     C51736   1.764   4.460   7.809 -0.0631  1.2185  1.2538
  384MOL0     C51737   1.769   4.547   7.915 -0.3529  0.7156 -0.1101
  384MOL0     C51738   1.699   4.523   8.031  1.0894  0.2940  0.8420
  384MOL0     C51739   1.609   4.411   8.035 -0.7029 -0.0637 -0.4945
  384MOL0     O51740   1.528   4.396   8.144 -0.2617 -0.6921  0.2201
  384MOL0     C51741   1.395   4.341   8.120  0.6403 -0.9733 -0.3605
  384MOL0     C51742   1.312   4.317   8.243  0.1427 -0.7569 -0.8748
  384MOL0     C51743   1.317   4.422   8.354 -0.4982  0.2031 -0.0140
  384MOL0     C51744   1.227   4.385   8.471 -0.4991 -0.1049  0.0668
  384MOL0     C51745   1.292   4.278   8.571  0.6147  0.5247 -0.2167
  384MOL0     C51746   1.233   4.145   8.542  0.5666 -0.0454  0.6455
  384MOL0     C51747   1.269   4.043   8.652  0.0847  0.4635  0.3671
  384MOL0     C51748   1.232   3.911   8.607 -0.9734 -0.5079  0.5104
  384MOL0    Cl51749   1.052   3.883   8.609 -0.5884 -0.7314  0.7731
  384MOL0     C51750   1.610   4.323   7.925  0.1290  0.5062 -0.7758
  384MOL0     C51751   1.690   4.343   7.815 -0.3378  0.2426  0.6734
  384MOL0     O51752   1.760   4.682   7.639  0.4068  0.3680 -0.2176
  384MOL0     C51753   2.034   4.506   7.509 -0.5599 -0.4357  0.2977
  384MOL0     C51754   2.130   4.510   7.404 -0.0862  0.1095  0.2030
  384MOL0     N51755   2.601   4.674   7.419 -0.1522 -0.4322  0.2689
  384MOL0     N51756   2.678   4.572   7.418  0.4041  0.4195 -0.0101
  384MOL0     C51757   2.073   3.994   7.630 -0.7797 -0.3214  0.0806
  384MOL0     C51758   1.991   4.013   7.739  0.0120 -0.1818  0.4803
  384MOL0     C51759   1.884   4.162   8.170  0.1818  0.8976 -0.2660
  384MOL0     C51760   1.753   4.117   8.150  0.1679  0.0236  0.9733
  384MOL0     C51761   1.659   4.099   8.259  0.1081 -0.5419 -0.8302
  384MOL0     C51762   1.699   4.122   8.386 -0.6339 -0.5832  0.3694
  384MOL0     O51763   1.598   4.115   8.491 -0.1898 -0.0914 -0.2859
  384MOL0     C51764   1.634   4.117   8.626 -0.6306 -0.6533  0.2530
  384MOL0     C51765   1.725   3.995   8.667 -0.0862 -0.3084  0.5140
  384MOL0     C51766   1.674   3.850   8.669  1.2176  0.0987 -0.1873
  384MOL0     C51767   1.670   3.794   8.522 -0.3145 -0.3926  0.0022
  384MOL0     C51768   1.601   3.664   8.534 -1.4578 -0.2756 -0.0728
  384MOL0     C51769   1.521   3.568   8.534  0.2055 -0.4103 -0.2658
  384MOL0     C51770   1.832   4.170   8.407  0.1699  0.2430 -0.5298
  384MOL0     C51771   1.921   4.183   8.301 -0.9481 -0.1827 -0.2355
  384MOL0     C51772   2.062   4.220   8.337  0.0655  0.3401  0.6616
  384MOL0     H51773   2.087   4.330   7.833  0.1810 -1.5989  2.7654
  384MOL0     H51774   2.232   4.292   7.628  2.4694 -1.5209  1.4368
  384MOL0     H51775   2.296   3.904   7.430  0.2720 -0.8060 -1.4228
  384MOL0     H51776   2.138   3.936   7.371  1.5620 -1.7696 -0.3429
  384MOL0     H51777   2.236   4.115   7.209 -0.2585 -1.3213 -1.7113
  384MOL0     H51778   2.316   3.951   7.197 -0.7785  1.4263 -1.5144
  384MOL0     H51779   2.470   4.052   7.388 -4.6847 -1.4875  0.7318
  384MOL0     H51780   2.418   4.200   7.307 -4.4215 -0.2162  2.5545
  384MOL0     H51781   2.571   3.966   7.203 -0.8231 -0.0522  2.1240
  384MOL0     H51782   2.492   4.080   7.081  0.6435  1.6455 -0.5765
  384MOL0     H51783   2.698   4.170   7.289 -2.2331  1.0017  0.4513
  384MOL0     H51784   2.733   4.113   7.125  0.7896  2.5531 -0.3891
  384MOL0     H51785   2.578   4.277   7.030  0.1315  2.2879 -0.2798
  384MOL0     H51786   2.549   4.346   7.190 -3.1083 -3.2607  0.2631
  384MOL0     H51787   2.712   4.468   7.049  1.8219 -0.6226 -1.8247
  384MOL0     H51788   2.816   4.321   7.058 -0.2239 -1.3692  0.6450
  384MOL0     H51789   2.795   4.368   7.329 -1.3717 -0.0360  0.0055
  384MOL0     H51790   2.895   4.487   7.229  0.1039  2.3754  0.7252
  384MOL0     H51791   2.718   4.674   7.115  1.8070 -2.5796  1.2385
  384MOL0     H51792   2.482   4.901   7.353  0.8853  0.2399 -0.2030
  384MOL0     H51793   2.612   4.944   7.243 -1.2994  2.2124  2.2858
  384MOL0     H51794   2.391   4.954   7.142  0.9724  0.2486  1.2440
  384MOL0     H51795   2.467   4.792   7.080  0.4480 -0.0761 -0.4010
  384MOL0     H51796   2.255   4.825   7.283  1.2474  0.5719  0.6769
  384MOL0     H51797   2.366   4.694   7.295  1.1916  0.6508 -0.8712
  384MOL0     H51798   2.308   4.641   7.037 -1.9600 -2.1974 -1.0958
  384MOL0     H51799   2.174   4.735   7.061 -0.3807  1.9128  2.3120
  384MOL0     H51800   1.955   4.701   7.181  2.2194  2.6778  0.4231
  384MOL0     H51801   1.789   4.705   7.382 -0.4289 -1.6019  0.2047
  384MOL0     H51802   1.836   4.631   7.899 -1.5209  2.1684  2.0998
  384MOL0     H51803   1.724   4.584   8.117  0.7208 -0.0895  1.2284
  384MOL0     H51804   1.340   4.412   8.057 -0.5399  0.6010  2.2753
  384MOL0     H51805   1.417   4.247   8.067  1.4617 -1.6647  1.1350
  384MOL0     H51806   1.206   4.317   8.216  0.3501 -0.2100 -1.7493
  384MOL0     H51807   1.345   4.219   8.277 -1.3979 -1.6810 -1.9363
  384MOL0     H51808   1.422   4.418   8.385 -1.4369  3.2932  4.6289
  384MOL0     H51809   1.293   4.519   8.310  0.5216  1.5181  2.1712
  384MOL0     H51810   1.131   4.346   8.438 -0.7466 -2.4218  3.0737
  384MOL0     H51811   1.195   4.462   8.542 -1.1842 -1.3330  1.1380
  384MOL0     H51812   1.255   4.296   8.672 -3.8103 -1.3091 -1.2498
  384MOL0     H51813   1.401   4.274   8.570  0.6308 -2.6547  1.6006
  384MOL0     H51814   1.124   4.156   8.541  0.5541 -0.1818  0.1186
  384MOL0     H51815   1.247   4.100   8.443 -3.2406 -2.3721  0.9341
  384MOL0     H51816   1.220   4.063   8.748 -0.0724  0.5577  0.2691
  384MOL0     H51817   1.377   4.037   8.667  0.3203 -0.0682 -1.3806
  384MOL0     H51818   1.262   3.895   8.504 -1.7684  2.3222 -0.2370
  384MOL0     H51819   1.279   3.828   8.662  0.5248 -2.5959 -3.5531
  384MOL0     H51820   1.565   4.225   7.921  3.7339 -1.4284  0.8683
  384MOL0     H51821   1.698   4.283   7.725  0.3991  0.8822  0.2919
  384MOL0     H51822   2.063   4.456   7.600 -0.3172 -0.6059  0.1278
  384MOL0     H51823   2.226   4.460   7.413 -0.3757 -0.5419 -0.3018
  384MOL0     H51824   2.062   3.896   7.584 -1.0530 -1.7927  3.0464
  384MOL0     H51825   1.916   3.938   7.764 -1.4490 -0.1549 -3.1064
  384MOL0     H51826   1.716   4.088   8.052  1.4801 -0.5216  0.6072
  384MOL0     H51827   1.555   4.068   8.246 -0.2514  1.1626 -2.4707
  384MOL0     H51828   1.557   4.112   8.703  1.4990  0.6859  2.6207
  384MOL0     H51829   1.700   4.202   8.648  1.6426 -2.2444 -0.1015
  384MOL0     H51830   1.756   4.023   8.768  1.1526 -1.9950  0.6603
  384MOL0     H51831   1.820   3.997   8.612 -1.8650  0.9243 -2.8313
  384MOL0     H51832   1.577   3.847   8.720  0.3544 -0.1810 -1.7816
  384MOL0     H51833   1.747   3.790   8.725  2.9980  0.4856 -2.0015
  384MOL0     H51834   1.627   3.857   8.444  1.2476 -0.4812 -0.9569
  384MOL0     H51835   1.776   3.776   8.505 -0.5923 -0.9398 -1.2376
  384MOL0     H51836   1.464   3.477   8.531 -2.2467  0.8842  1.9810
  384MOL0     H51837   1.869   4.192   8.507  3.5107  1.1976 -1.8516
  384MOL0     H51838   2.146   4.154   8.311  1.6413  2.0290  1.2323
  384MOL0     H51839   2.095   4.309   8.283  1.4360 -0.4919  0.0629
  384MOL0     H51840   2.071   4.227   8.446 -3.8658 -1.0470  1.2571
  385MOL0     O51841   8.413   1.567   5.752 -0.0619 -0.5868 -0.6738
  385MOL0     C51842   8.463   1.584   5.647  0.2858  0.2269 -0.5119
  385MOL0     O51843   8.590   1.637   5.629  0.0699 -0.0392 -0.2544
  385MOL0     C51844   8.669   1.701   5.735 -0.4843 -0.7113  0.6351
  385MOL0     C51845   8.628   1.825   5.799 -0.5428 -0.4291 -0.3490
  385MOL0     C51846   8.698   1.882   5.901 -0.0410  0.3816  0.5108
  385MOL0     C51847   8.833   1.845   5.920  0.1707  0.9188 -0.3497
  385MOL0     O51848   8.917   1.919   6.007  0.1831 -0.7921  1.1821
  385MOL0     C51849   8.931   2.052   5.953 -0.2017  0.4628  0.2457
  385MOL0     C51850   8.999   2.048   5.812 -0.4562 -0.4404  0.0604
  385MOL0     C51851   9.150   2.048   5.837 -0.4124  0.4751 -0.6748
  385MOL0     C51852   9.211   2.037   5.709 -1.3973 -0.4920  0.5113
  385MOL0     C51853   9.365   2.018   5.726 -0.3849  0.4931 -0.5450
  385MOL0     C51854   9.446   2.045   5.590 -0.0260  0.6524  0.8109
  385MOL0     C51855   9.602   2.039   5.604 -0.2051  0.0165  0.3020
  385MOL0     C51856   9.659   2.170   5.651 -0.0160 -0.4578 -0.6556
  385MOL0     N51857   9.679   2.263   5.538  0.4691  0.3009 -0.3686
  385MOL0     C51858   9.762   2.233   5.431  0.6377 -0.2565 -0.5616
  385MOL0     C51859   9.759   2.348   5.359  0.7435 -0.0779 -0.6072
  385MOL0     C51860   9.855   2.371   5.243 -0.5899  0.2278  0.9260
  385MOL0     C51861   9.770   2.385   5.111 -0.0488  0.1134 -0.6516
  385MOL0     C51862   9.845   2.387   4.981 -0.5436  0.0625  0.1034
  385MOL0     C51863   9.916   2.521   4.949 -0.4248 -0.6634 -1.5562
  385MOL0     O51864   9.824   2.633   4.949 -0.0179  0.0903  0.2250
  385MOL0     C51865   9.847   2.754   4.999  0.9541 -0.5572 -0.6083
  385MOL0     C51866   9.746   2.853   4.981 -0.4090  1.0083  1.0227
  385MOL0     C51867   9.762   2.974   5.030  0.3582 -1.0314  0.5454
  385MOL0     C51868   9.878   3.017   5.101 -0.1663  0.6117 -0.3661
  385MOL0     C51869   9.895   3.154   5.134 -1.1959  0.3841 -1.4067
  385MOL0     O51870   9.796   3.235   5.098 -0.8038  0.3470 -0.2310
  385MOL0     C51871   9.790   3.363   5.133  0.0500  1.0522  0.3312
  385MOL0     C51872   9.863   3.467   5.067 -0.6441 -0.2274  0.2416
  385MOL0     C51873   9.861   3.586   5.128  0.6770 -0.5572  0.4998
  385MOL0     C51874   9.777   3.622   5.234  0.2487  0.4295 -0.3044
  385MOL0     O51875   9.772   3.756   5.273  0.1620  0.3326 -0.1687
  385MOL0     C51876   9.681   3.792   5.379 -0.3548 -0.1935 -0.2063
  385MOL0     C51877   9.680   3.945   5.401  0.2249  0.0146 -0.1137
  385MOL0     C51878   9.565   3.993   5.497 -0.8501  0.1137  0.2556
  385MOL0     C51879   9.423   3.938   5.457  0.1622  0.2704  0.6036
  385MOL0     C51880   9.321   4.007   5.546  1.1277 -0.2697  0.0950
  385MOL0     C51881   9.176   3.950   5.531 -0.1225 -0.1257 -0.4629
  385MOL0     C51882   9.073   3.964   5.644  0.1162 -0.3299  0.6526
  385MOL0     C51883   9.064   4.097   5.692 -0.2101 -0.7214  0.8079
  385MOL0    Cl51884   8.905   4.130   5.785  0.3473 -0.6359 -0.5065
  385MOL0     C51885   9.706   3.522   5.291 -0.5060  0.3977 -0.1056
  385MOL0     C51886   9.706   3.389   5.242 -0.8546 -0.4590  0.1511
  385MOL0     O51887   9.999   3.184   5.191  0.3271 -0.6076  0.2898
  385MOL0     C51888   9.983   2.919   5.136  0.0668  0.0623  0.3644
  385MOL0     C51889   9.960   2.790   5.070 -0.6295  0.3540  0.6686
  385MOL0     N51890   9.674   2.439   5.427  0.4650  1.2370 -0.2074
  385MOL0     N51891   9.623   2.387   5.537 -0.5221  0.0348 -0.4107
  385MOL0     C51892   8.888   1.739   5.846 -0.5121 -0.3915  0.0632
  385MOL0     C51893   8.804   1.664   5.755 -0.2582  0.3028 -0.1348
  385MOL0     C51894   8.381   1.547   5.526 -0.8472 -0.4585 -0.8280
  385MOL0     C51895   8.300   1.432   5.538 -0.3040 -0.3621 -0.0993
  385MOL0     C51896   8.235   1.382   5.422 -0.6506  1.0356 -0.6499
  385MOL0     C51897   8.233   1.450   5.303 -0.1350 -0.3488 -0.1231
  385MOL0     O51898   8.158   1.418   5.197 -0.0878  0.6128 -0.1721
  385MOL0     C51899   8.019   1.449   5.227 -0.3211  0.3634 -0.0381
  385MOL0     C51900   7.960   1.493   5.084 -0.0304 -0.6772  1.0831
  385MOL0     C51901   8.037   1.623   5.031 -0.1263 -0.2175 -1.1424
  385MOL0     C51902   7.971   1.671   4.893 -0.1744 -0.3462 -0.7470
  385MOL0     C51903   7.849   1.743   4.926  0.1719 -0.9974  0.3161
  385MOL0     C51904   7.743   1.780   4.955  0.2836  0.4696  0.3090
  385MOL0     C51905   8.308   1.576   5.303 -0.2772  0.2797  1.2558
  385MOL0     C51906   8.388   1.617   5.404  0.4676 -0.5726 -0.0501
  385MOL0     C51907   8.469   1.738   5.385  0.3324  0.3808  0.4283
  385MOL0     H51908   8.527   1.862   5.782 -0.1687  1.3891  1.0586
  385MOL0     H51909   8.661   1.960   5.966 -0.6120  2.0137 -1.6872
  385MOL0     H51910   8.834   2.101   5.944 -2.9286 -3.4857  4.1379
  385MOL0     H51911   8.985   2.108   6.031 -1.1305  0.6827  0.7426
  385MOL0     H51912   8.966   2.141   5.765 -0.7057  0.2610  1.5548
  385MOL0     H51913   8.971   1.961   5.752  0.8936 -1.9374  1.4732
  385MOL0     H51914   9.174   1.961   5.898  0.1901 -1.1751 -3.1150
  385MOL0     H51915   9.186   2.142   5.879  0.1889 -0.4601  0.9974
  385MOL0     H51916   9.172   1.952   5.653  2.6297 -2.7667  0.7611
  385MOL0     H51917   9.191   2.130   5.654 -2.6360  1.0715  3.3787
  385MOL0     H51918   9.401   2.088   5.802 -1.0124  0.0650  0.1687
  385MOL0     H51919   9.393   1.921   5.767  1.7004  1.4272  0.3842
  385MOL0     H51920   9.415   1.976   5.510  0.9013  1.7258 -0.5291
  385MOL0     H51921   9.432   2.142   5.542 -3.3619 -0.5865 -1.0215
  385MOL0     H51922   9.645   2.017   5.506  2.4502 -0.2824  1.4416
  385MOL0     H51923   9.627   1.955   5.669 -4.2451  0.8720  3.3295
  385MOL0     H51924   9.596   2.219   5.726  1.5409  2.2627 -1.0206
  385MOL0     H51925   9.754   2.155   5.703 -0.5612 -1.0733  0.1849
  385MOL0     H51926   9.816   2.139   5.434 -2.3174 -2.0492  0.4817
  385MOL0     H51927   9.906   2.461   5.278 -1.0421  1.5432 -1.6175
  385MOL0     H51928   9.932   2.292   5.239  0.3741  0.6108  5.5038
  385MOL0     H51929   9.709   2.294   5.101  0.6469 -0.1804 -2.8059
  385MOL0     H51930   9.705   2.473   5.118 -0.2119  0.2914 -3.3042
  385MOL0     H51931   9.769   2.376   4.904 -1.6549 -2.3098  1.4179
  385MOL0     H51932   9.902   2.295   4.968 -0.2547  0.5205 -2.4904
  385MOL0     H51933   9.960   2.513   4.849 -0.4297  0.1353 -1.6284
  385MOL0     H51934   9.996   2.526   5.024  1.0859 -2.4658 -2.9457
  385MOL0     H51935   9.662   2.814   4.923  1.2626 -5.0488  1.9480
  385MOL0     H51936   9.687   3.046   5.000  1.8512  0.2863 -0.1863
  385MOL0     H51937   9.931   3.451   4.983  1.8446  3.8925  1.1792
  385MOL0     H51938   9.940   3.649   5.089 -0.8097  1.9771  1.3689
  385MOL0     H51939   9.577   3.767   5.353 -0.8517 -0.9613  2.2661
  385MOL0     H51940   9.707   3.738   5.470  1.6612 -0.2472 -0.7810
  385MOL0     H51941   9.772   3.982   5.448  0.1332  0.2525 -0.1166
  385MOL0     H51942   9.664   3.980   5.298 -1.3938 -1.5425 -0.4232
  385MOL0     H51943   9.586   3.953   5.597 -0.2263  3.0835  1.4167
  385MOL0     H51944   9.582   4.100   5.507  1.2807 -0.3303  2.0133
  385MOL0     H51945   9.419   3.831   5.475  1.7117  0.0156 -0.4376
  385MOL0     H51946   9.401   3.962   5.352  0.5143  0.0472  0.4789
  385MOL0     H51947   9.317   4.115   5.528 -1.4615 -0.0105  1.6847
  385MOL0     H51948   9.350   3.989   5.649  1.9190  0.9931  0.1070
  385MOL0     H51949   9.137   3.983   5.435 -2.1646  1.4550  0.8350
  385MOL0     H51950   9.188   3.841   5.521  1.8262  0.2013 -2.2780
  385MOL0     H51951   9.095   3.897   5.728  2.9125  0.8638  0.9721
  385MOL0     H51952   8.972   3.934   5.614 -1.0671  3.1367  0.7591
  385MOL0     H51953   9.152   4.118   5.754 -0.4859  2.2837  0.3343
  385MOL0     H51954   9.058   4.165   5.607  0.3524 -2.0113 -0.2933
  385MOL0     H51955   9.635   3.541   5.370  0.7514 -0.8418  1.3925
  385MOL0     H51956   9.631   3.322   5.280 -0.8020  0.3262  1.7290
  385MOL0     H51957  10.067   2.945   5.200 -0.6520 -1.4670  2.0461
  385MOL0     H51958  10.041   2.723   5.095 -0.8557  0.7350  2.5429
  385MOL0     H51959   8.995   1.730   5.865 -0.7511  0.8637  2.2759
  385MOL0     H51960   8.842   1.576   5.702 -1.1411 -1.3348  1.8138
  385MOL0     H51961   8.299   1.373   5.630  2.5535 -3.1575 -1.6584
  385MOL0     H51962   8.202   1.280   5.434  0.7059  0.8008  1.6300
  385MOL0     H51963   8.004   1.529   5.301  1.4048 -0.3188  1.1080
  385MOL0     H51964   7.972   1.357   5.262  0.2607 -0.4951 -1.4236
  385MOL0     H51965   7.853   1.510   5.096 -0.5315 -2.5032 -0.3759
  385MOL0     H51966   7.970   1.410   5.013 -0.0537 -0.1151  0.4158
  385MOL0     H51967   8.136   1.584   5.007  0.8500  1.3781  0.0493
  385MOL0     H51968   8.040   1.703   5.106  3.9977 -0.9162 -0.3530
  385MOL0     H51969   8.047   1.741   4.856 -1.6343  0.2727 -2.7245
  385MOL0     H51970   7.943   1.593   4.822 -0.1590  0.9055 -2.1858
  385MOL0     H51971   7.645   1.799   4.994 -0.4318 -0.5945 -0.9002
  385MOL0     H51972   8.286   1.646   5.223 -0.6919  0.1560  1.2573
  385MOL0     H51973   8.440   1.780   5.288  1.1937 -0.9344 -0.4332
  385MOL0     H51974   8.453   1.813   5.463  2.4109  2.9331 -1.4110
  385MOL0     H51975   8.573   1.710   5.366  0.6754  0.5963  1.8833
  386MOL0     O51976   2.463   1.638   8.318 -0.2865 -0.1806 -0.6754
  386MOL0     C51977   2.381   1.732   8.301 -0.5993  1.0067 -0.5283
  386MOL0     O51978   2.300   1.785   8.400 -0.0662  1.0982 -0.2967
  386MOL0     C51979   2.300   1.712   8.516  0.5018 -0.5359  0.2405
  386MOL0     C51980   2.331   1.775   8.633 -0.8419 -0.5465 -0.2320
  386MOL0     C51981   2.321   1.700   8.754  0.2016  1.3789  0.0947
  386MOL0     C51982   2.307   1.558   8.749 -0.0901 -0.3057  0.2636
  386MOL0     O51983   2.307   1.486   8.864 -0.6173  0.4114  0.0380
  386MOL0     C51984   2.420   1.389   8.884 -0.1965  0.7054 -0.0772
  386MOL0     C51985   2.370   1.279   8.978  0.4532  0.5544  0.1231
  386MOL0     C51986   2.224   1.224   8.949 -0.8583 -0.6033 -0.2834
  386MOL0     C51987   2.214   1.084   8.999  0.9755 -0.0040  0.0144
  386MOL0     C51988   2.078   1.024   8.979  0.9087  0.1354 -0.0459
  386MOL0     C51989   2.082   0.880   8.998  0.3495  0.4275 -0.5345
  386MOL0     C51990   1.966   0.801   8.960  0.1521  0.1171 -0.2677
  386MOL0     C51991   1.956   0.766   8.805 -0.8070  0.3671  1.0484
  386MOL0     N51992   1.848   0.669   8.771 -0.1860 -1.6087  0.1519
  386MOL0     C51993   1.842   0.545   8.802 -0.0988 -0.6302  0.2082
  386MOL0     C51994   1.732   0.490   8.738 -0.6022 -0.2018  0.4266
  386MOL0     C51995   1.673   0.352   8.742  0.3722  0.3965 -0.3109
  386MOL0     C51996   1.578   0.326   8.863  0.3213  0.0684 -0.6060
  386MOL0     C51997   1.494   0.196   8.824  0.1037  0.5575 -0.6424
  386MOL0     C51998   1.387   0.168   8.932 -0.0141  0.1676 -0.1806
  386MOL0     O51999   1.307   0.045   8.894 -0.5879  0.0678  0.4619
  386MOL0     C52000   1.201   0.006   8.968  0.3618 -1.2671  0.2319
  386MOL0     C52001   1.160   0.064   9.089  0.6704 -0.0121 -0.3916
  386MOL0     C52002   1.031   0.033   9.140  0.1386 -0.5711  0.0319
  386MOL0     C52003   0.946  -0.061   9.072  0.3719 -0.5327  0.1027
  386MOL0     C52004   0.810  -0.083   9.115 -0.4113 -0.0435  0.0547
  386MOL0     O52005   0.758   0.007   9.209  0.1038  0.3471  0.1251
  386MOL0     C52006   0.614  -0.008   9.210 -0.5088  0.3443 -0.2052
  386MOL0     C52007   0.550  -0.033   9.332 -0.1419  0.1298 -0.8705
  386MOL0     C52008   0.413  -0.032   9.339 -0.0912 -0.1352  0.2927
  386MOL0     C52009   0.337  -0.004   9.231 -0.1972  0.8176 -0.0030
  386MOL0     O52010   0.205  -0.022   9.226  0.2339  0.1324  0.2935
  386MOL0     C52011   0.150  -0.143   9.282 -0.2642  0.8328  0.1749
  386MOL0     C52012   0.078  -0.110   9.419  0.2797 -0.3122 -0.3218
  386MOL0     C52013   0.003  -0.241   9.456 -0.0163 -0.2649 -0.3049
  386MOL0     C52014  -0.129  -0.204   9.516 -0.0446 -0.2995 -0.4567
  386MOL0     C52015  -0.224  -0.322   9.539  0.0983  0.4565 -0.6854
  386MOL0     C52016  -0.356  -0.284   9.609 -0.4505  0.2911  0.1807
  386MOL0     C52017  -0.459  -0.401   9.640  0.3548 -0.2242 -0.7418
  386MOL0     C52018  -0.585  -0.394   9.548 -0.7484 -0.0476  0.3697
  386MOL0    Cl52019  -0.703  -0.519   9.606 -0.3128 -0.5118 -0.1043
  386MOL0     C52020   0.397   0.025   9.116  0.0978 -1.0945  1.0119
  386MOL0     C52021   0.532   0.022   9.096 -0.3436  0.8542  0.8243
  386MOL0     O52022   0.749  -0.180   9.069  0.0434 -0.4126 -0.6143
  386MOL0     C52023   0.991  -0.123   8.954  1.2904  0.2729  0.7334
  386MOL0     C52024   1.119  -0.091   8.905 -0.5222 -0.4553  0.4651
  386MOL0     N52025   1.670   0.593   8.672  0.2318  0.3335 -0.1049
  386MOL0     N52026   1.752   0.693   8.678  0.6960 -0.3650  0.4585
  386MOL0     C52027   2.276   1.494   8.636  0.9365  0.3836 -0.3701
  386MOL0     C52028   2.273   1.571   8.520 -0.4948  0.5871  0.2423
  386MOL0     C52029   2.362   1.783   8.159  0.8956  0.1840 -0.1130
  386MOL0     C52030   2.243   1.850   8.137 -0.2619 -0.1237 -0.6599
  386MOL0     C52031   2.228   1.919   8.011  0.2214  0.6497  0.7873
  386MOL0     C52032   2.317   1.894   7.905  0.0471  0.1127  0.2223
  386MOL0     O52033   2.282   1.954   7.789  0.8352 -0.4870  0.2353
  386MOL0     C52034   2.315   1.887   7.664  0.4746 -0.5308  0.0167
  386MOL0     C52035   2.230   1.930   7.544  0.4478 -0.1058  0.4289
  386MOL0     C52036   2.295   1.876   7.412  0.1252  0.0026  0.2748
  386MOL0     C52037   2.295   1.728   7.393  0.0061  0.6661  0.5719
  386MOL0     C52038   2.165   1.678   7.341 -0.3777  0.0773  1.0834
  386MOL0     C52039   2.057   1.638   7.305 -0.4264  0.7740 -1.2067
  386MOL0     C52040   2.426   1.812   7.929  0.4520  0.7239  0.3895
  386MOL0     C52041   2.458   1.755   8.055 -0.0365  0.2361 -1.2295
  386MOL0     C52042   2.587   1.677   8.068  0.1331  0.3216 -0.9710
  386MOL0     H52043   2.354   1.881   8.638  0.6693 -0.8315 -0.5959
  386MOL0     H52044   2.337   1.751   8.848  1.3577 -0.6755  1.0803
  386MOL0     H52045   2.457   1.342   8.792  0.8509  2.4942 -0.6220
  386MOL0     H52046   2.502   1.443   8.933 -1.4916  0.2625  2.7976
  386MOL0     H52047   2.391   1.310   9.081  1.9460  2.6921 -0.7260
  386MOL0     H52048   2.437   1.196   8.954 -0.1581  0.4569 -1.3408
  386MOL0     H52049   2.212   1.221   8.840 -0.8695  1.6257 -0.3923
  386MOL0     H52050   2.141   1.281   8.993  0.2995  0.9742 -0.0493
  386MOL0     H52051   2.286   1.026   8.939  0.6288  2.2764 -2.8323
  386MOL0     H52052   2.246   1.089   9.103  0.4411 -0.8723  0.2299
  386MOL0     H52053   2.008   1.064   9.053 -0.8922 -2.3661 -0.2925
  386MOL0     H52054   2.035   1.052   8.883  1.1747  0.7469  0.0074
  386MOL0     H52055   2.166   0.835   8.943 -0.4074 -0.3427 -1.0856
  386MOL0     H52056   2.101   0.859   9.104 -2.3014  2.1248  0.3721
  386MOL0     H52057   1.880   0.857   8.999  1.7343  1.9473  0.7436
  386MOL0     H52058   1.970   0.707   9.015 -2.9389  1.0191  1.7764
  386MOL0     H52059   1.956   0.855   8.740  2.6416 -1.0140 -1.1698
  386MOL0     H52060   2.050   0.715   8.780  0.2357  2.6055  0.1117
  386MOL0     H52061   1.906   0.484   8.865  0.2947  0.1937  0.6167
  386MOL0     H52062   1.622   0.337   8.646  5.2402 -1.6398 -2.9389
  386MOL0     H52063   1.750   0.276   8.757 -2.5559 -2.6913  0.2907
  386MOL0     H52064   1.645   0.316   8.949 -0.6305 -0.2146  0.1079
  386MOL0     H52065   1.517   0.416   8.875  0.5712  0.0405  1.0498
  386MOL0     H52066   1.558   0.108   8.815  0.5436  0.3154  3.3066
  386MOL0     H52067   1.446   0.224   8.729  1.8030  3.1502 -0.8462
  386MOL0     H52068   1.317   0.251   8.920  0.2163  0.1367 -2.0203
  386MOL0     H52069   1.422   0.165   9.036  0.6290  1.6197 -0.3308
  386MOL0     H52070   1.222   0.144   9.128 -2.1161  3.4672 -2.5396
  386MOL0     H52071   1.003   0.084   9.231  3.1559  0.4649  0.4894
  386MOL0     H52072   0.607  -0.057   9.421 -1.8208 -0.7573  0.0358
  386MOL0     H52073   0.377  -0.060   9.438  2.0321 -2.5571  0.5128
  386MOL0     H52074   0.080  -0.188   9.211  0.3233  2.4007 -1.4665
  386MOL0     H52075   0.230  -0.213   9.304  0.7352  1.1162 -2.2238
  386MOL0     H52076   0.151  -0.071   9.490 -0.6346  0.0793  0.4204
  386MOL0     H52077   0.002  -0.033   9.406 -0.5208 -0.4423  2.8298
  386MOL0     H52078  -0.027  -0.288   9.362  0.4626 -0.0693 -0.5635
  386MOL0     H52079   0.067  -0.314   9.507 -0.4033 -2.0992 -2.2895
  386MOL0     H52080  -0.186  -0.138   9.450  0.8913 -0.0755 -1.0591
  386MOL0     H52081  -0.114  -0.146   9.607  0.7936 -1.9871  0.5256
  386MOL0     H52082  -0.177  -0.399   9.602 -1.4442 -1.6675 -2.0274
  386MOL0     H52083  -0.245  -0.372   9.445 -0.7025  1.0805 -0.8439
  386MOL0     H52084  -0.339  -0.220   9.697  0.4985  1.4583 -0.8131
  386MOL0     H52085  -0.406  -0.208   9.548  0.8214  1.5239  0.6126
  386MOL0     H52086  -0.471  -0.404   9.749 -1.3814  0.1310 -0.8900
  386MOL0     H52087  -0.400  -0.490   9.614  0.3809  0.4606 -3.2682
  386MOL0     H52088  -0.631  -0.294   9.544  0.9104  0.6949 -2.3780
  386MOL0     H52089  -0.555  -0.407   9.444  0.0936  0.8270  0.4860
  386MOL0     H52090   0.339   0.051   9.028  0.2869  0.7715  1.3957
  386MOL0     H52091   0.576   0.043   8.999  0.4893  0.4621  1.1110
  386MOL0     H52092   0.921  -0.178   8.892 -1.3803  4.4355 -0.3932
  386MOL0     H52093   1.147  -0.115   8.803 -1.3346  0.7691 -0.0723
  386MOL0     H52094   2.258   1.387   8.625 -2.3600  0.6859  0.8161
  386MOL0     H52095   2.245   1.506   8.438 -1.2060 -0.1467  1.0503
  386MOL0     H52096   2.152   1.867   8.194 -0.6541  0.3115 -1.3986
  386MOL0     H52097   2.139   1.976   7.987 -1.8983 -3.6255 -2.7686
  386MOL0     H52098   2.296   1.780   7.680  1.0445 -0.7845 -0.8974
  386MOL0     H52099   2.419   1.901   7.634 -0.2492 -0.9038 -3.0214
  386MOL0     H52100   2.225   2.038   7.532 -1.2780 -0.3781 -2.1506
  386MOL0     H52101   2.128   1.894   7.556  0.7395 -1.8122 -1.5463
  386MOL0     H52102   2.401   1.904   7.404 -0.0204  0.4981  0.0100
  386MOL0     H52103   2.246   1.934   7.333  2.0757  0.5046 -0.6446
  386MOL0     H52104   2.370   1.698   7.320 -2.0975  2.9398 -2.7825
  386MOL0     H52105   2.308   1.688   7.494  3.6826  3.5660  1.4749
  386MOL0     H52106   1.957   1.599   7.301 -0.0202 -0.4410 -0.2628
  386MOL0     H52107   2.495   1.784   7.849 -0.7054 -0.0255 -0.3765
  386MOL0     H52108   2.638   1.725   8.152 -2.0751  1.3019 -0.0979
  386MOL0     H52109   2.571   1.569   8.077 -2.4836  0.7892  2.2332
  386MOL0     H52110   2.644   1.690   7.976 -1.0477 -0.9136 -1.9217
  387MOL0     O52111   1.717   8.714   2.476 -0.5857 -0.0332  0.5318
  387MOL0     C52112   1.779   8.730   2.585  0.5779 -0.0720  0.8665
  387MOL0     O52113   1.714   8.761   2.699  0.2617 -0.7623 -0.1424
  387MOL0     C52114   1.583   8.792   2.690 -0.5954 -0.4092  0.5883
  387MOL0     C52115   1.490   8.688   2.680 -0.6855  0.3418 -0.3554
  387MOL0     C52116   1.350   8.720   2.675  0.3514 -0.1488 -1.0694
  387MOL0     C52117   1.306   8.856   2.681 -1.2396 -1.0359 -0.4480
  387MOL0     O52118   1.180   8.883   2.644 -0.4746  0.4815  0.1735
  387MOL0     C52119   1.158   8.920   2.508 -0.2726  0.3068 -0.0063
  387MOL0     C52120   1.057   9.031   2.496 -0.1404  0.2753  0.2997
  387MOL0     C52121   1.096   9.134   2.586  0.2873 -1.5988  0.0816
  387MOL0     C52122   1.009   9.257   2.555  0.4575  0.6992 -0.6038
  387MOL0     C52123   1.068   9.372   2.642  0.5388 -0.5615  0.1296
  387MOL0     C52124   1.052   9.366   2.787 -0.1103  0.6159 -0.5397
  387MOL0     C52125   0.907   9.345   2.822 -0.4201  0.7619  0.1601
  387MOL0     C52126   0.858   9.401   2.961 -0.1821  0.1942  0.6435
  387MOL0     N52127   0.721   9.351   2.990  0.1434 -0.4383  0.2244
  387MOL0     C52128   0.609   9.404   2.925  0.8287  1.0139 -0.1116
  387MOL0     C52129   0.502   9.325   2.970 -0.3268  0.3649 -1.1241
  387MOL0     C52130   0.353   9.332   2.928  0.4145 -0.1347  0.0556
  387MOL0     C52131   0.291   9.188   2.928  0.8104 -0.2543  0.2962
  387MOL0     C52132   0.147   9.186   2.877  0.1174  0.2193  0.6233
  387MOL0     C52133   0.083   9.065   2.949  0.4052  0.0275 -1.0436
  387MOL0     O52134   0.141   8.934   2.931  0.3629  0.0884  0.4655
  387MOL0     C52135   0.113   8.895   2.802  0.0699  0.0405 -0.1974
  387MOL0     C52136  -0.014   8.857   2.772  0.6465 -0.5903  0.2502
  387MOL0     C52137  -0.059   8.853   2.644 -0.2437  0.2501  0.6192
  387MOL0     C52138   0.037   8.860   2.543 -0.1593 -0.3513 -0.3894
  387MOL0     C52139   0.000   8.818   2.407  1.0181 -0.0354 -1.4146
  387MOL0     O52140  -0.129   8.850   2.378  0.3886  0.3257 -0.3513
  387MOL0     C52141  -0.149   8.895   2.251  0.1206  0.6291 -0.9110
  387MOL0     C52142  -0.144   9.028   2.218 -0.5930 -0.2451 -0.4525
  387MOL0     C52143  -0.175   9.069   2.083  0.1364  0.2670 -0.5885
  387MOL0     C52144  -0.228   8.974   1.993  0.1941 -0.2454 -0.1089
  387MOL0     O52145  -0.253   9.002   1.858 -0.2057 -0.2926 -0.5712
  387MOL0     C52146  -0.286   9.139   1.818  0.4198 -0.5606  0.6648
  387MOL0     C52147  -0.338   9.149   1.673 -0.4907  0.6999 -0.4954
  387MOL0     C52148  -0.395   9.293   1.633 -1.3972  1.1340  1.0886
  387MOL0     C52149  -0.439   9.301   1.483 -0.0726  0.4891 -1.2732
  387MOL0     C52150  -0.462   9.441   1.441  0.3563 -0.3832 -1.2912
  387MOL0     C52151  -0.323   9.518   1.426  0.1135 -0.2081 -0.3242
  387MOL0     C52152  -0.324   9.655   1.350  0.5606  0.9894  0.2828
  387MOL0     C52153  -0.320   9.637   1.206  0.1527  0.7018  1.4907
  387MOL0    Cl52154  -0.480   9.597   1.131 -0.1906  0.1047  0.1543
  387MOL0     C52155  -0.227   8.841   2.036 -0.1398  0.2948  0.1918
  387MOL0     C52156  -0.183   8.798   2.156 -0.6323  0.5224 -0.5662
  387MOL0     O52157   0.094   8.813   2.326  0.7984 -0.1814  0.1149
  387MOL0     C52158   0.169   8.878   2.570 -0.6722 -0.2538 -0.4477
  387MOL0     C52159   0.212   8.898   2.700  0.2494 -0.0802  0.1571
  387MOL0     N52160   0.550   9.230   3.060  0.5202  0.6553 -0.4426
  387MOL0     N52161   0.679   9.244   3.067  0.2167  0.3568  0.3840
  387MOL0     C52162   1.403   8.958   2.707  0.5299  0.1453  0.4449
  387MOL0     C52163   1.543   8.925   2.703 -0.0157 -0.4776  0.1123
  387MOL0     C52164   1.927   8.718   2.585  0.7977  0.8482 -0.2217
  387MOL0     C52165   1.985   8.734   2.710 -1.0541  0.6194  0.2743
  387MOL0     C52166   2.119   8.699   2.727  0.5152 -0.5987  0.1987
  387MOL0     C52167   2.197   8.644   2.632 -0.5632  1.0092 -0.1542
  387MOL0     O52168   2.325   8.590   2.645 -0.0130  0.2802  0.0337
  387MOL0     C52169   2.401   8.579   2.763  0.1899  0.3503 -1.4052
  387MOL0     C52170   2.500   8.463   2.748  0.1289 -0.0951 -0.2605
  387MOL0     C52171   2.647   8.500   2.748 -0.2264 -0.1770 -0.7192
  387MOL0     C52172   2.687   8.582   2.620 -0.4168 -0.6019  0.5866
  387MOL0     C52173   2.736   8.490   2.519 -1.1990 -0.0263  0.7196
  387MOL0     C52174   2.775   8.391   2.453  0.0355  0.8720  0.0456
  387MOL0     C52175   2.140   8.631   2.505 -0.9754  0.3347 -0.2828
  387MOL0     C52176   2.010   8.663   2.480  0.3088  0.9645  0.0584
  387MOL0     C52177   1.967   8.658   2.330 -0.5951  0.5351 -0.5572
  387MOL0     H52178   1.520   8.585   2.666 -1.2569  0.0853  0.2257
  387MOL0     H52179   1.292   8.630   2.658  1.1230 -0.7118 -0.8170
  387MOL0     H52180   1.254   8.949   2.464 -0.5208  0.6152 -0.3533
  387MOL0     H52181   1.122   8.830   2.457  3.1936  0.1320 -2.4944
  387MOL0     H52182   0.960   8.984   2.519  0.7895 -0.7384  2.4230
  387MOL0     H52183   1.067   9.056   2.390 -0.1354  1.4634  0.5592
  387MOL0     H52184   1.198   9.165   2.565 -1.3127  1.5603 -4.3857
  387MOL0     H52185   1.074   9.105   2.689  1.0070  1.6005  1.2301
  387MOL0     H52186   1.023   9.302   2.457 -2.3658  2.2415 -0.3836
  387MOL0     H52187   0.903   9.239   2.574  0.1987  2.4579 -0.2563
  387MOL0     H52188   1.174   9.387   2.621 -0.1213  0.7164 -2.7558
  387MOL0     H52189   1.034   9.473   2.616  0.6183 -0.4980  0.2686
  387MOL0     H52190   1.111   9.289   2.837  0.6470  1.4430 -0.1176
  387MOL0     H52191   1.089   9.463   2.823 -1.3134  0.6418  0.7183
  387MOL0     H52192   0.874   9.242   2.809 -2.3216  0.7776  3.8000
  387MOL0     H52193   0.850   9.401   2.747  1.2221  0.5642 -1.3161
  387MOL0     H52194   0.922   9.361   3.040 -1.2699 -2.8904  0.1039
  387MOL0     H52195   0.867   9.510   2.965  0.9111  0.1865 -0.8612
  387MOL0     H52196   0.615   9.481   2.849 -0.6488  0.6751 -0.5979
  387MOL0     H52197   0.300   9.397   2.998 -3.4723  0.2318 -2.8917
  387MOL0     H52198   0.329   9.376   2.831 -3.5645 -0.3297  0.7750
  387MOL0     H52199   0.356   9.138   2.855  1.1482  0.1301  0.3328
  387MOL0     H52200   0.300   9.146   3.029  2.4909  0.0967  0.3272
  387MOL0     H52201   0.143   9.176   2.768  1.4226  2.8118  0.2311
  387MOL0     H52202   0.089   9.276   2.900 -0.3041 -0.2671  1.4943
  387MOL0     H52203  -0.024   9.070   2.928  0.9916  1.4377 -4.2020
  387MOL0     H52204   0.107   9.079   3.055 -0.5739 -2.2134 -0.4596
  387MOL0     H52205  -0.085   8.853   2.854  0.3110 -0.0937 -0.0136
  387MOL0     H52206  -0.164   8.836   2.621 -0.4936  1.1144  1.0991
  387MOL0     H52207  -0.115   9.098   2.296  1.5297  1.0184 -2.2352
  387MOL0     H52208  -0.177   9.176   2.069 -0.6835  0.1854 -1.1682
  387MOL0     H52209  -0.362   9.174   1.888  0.6738 -0.0895  0.7111
  387MOL0     H52210  -0.199   9.206   1.812 -0.4192  0.6243  1.3789
  387MOL0     H52211  -0.270   9.112   1.595  0.8486  0.7178  0.6131
  387MOL0     H52212  -0.424   9.082   1.670 -0.9130  1.2474 -2.7621
  387MOL0     H52213  -0.481   9.313   1.697 -0.3162 -0.6868  3.2646
  387MOL0     H52214  -0.316   9.364   1.660  1.1137 -1.3330  0.6630
  387MOL0     H52215  -0.537   9.255   1.475  0.9414 -2.9235  2.7311
  387MOL0     H52216  -0.375   9.243   1.416 -1.4484 -0.2963 -1.9464
  387MOL0     H52217  -0.533   9.499   1.500 -1.6226 -1.9353 -2.0126
  387MOL0     H52218  -0.528   9.435   1.353 -0.3561  1.3347 -0.9205
  387MOL0     H52219  -0.286   9.541   1.526  2.5199  2.3985 -1.6950
  387MOL0     H52220  -0.245   9.450   1.391 -0.5465 -1.6462  0.8867
  387MOL0     H52221  -0.244   9.725   1.375  2.2685 -0.8359  0.1116
  387MOL0     H52222  -0.412   9.712   1.382 -0.3684 -1.0664  1.5766
  387MOL0     H52223  -0.275   9.723   1.155 -1.2519 -0.8618 -2.8097
  387MOL0     H52224  -0.250   9.557   1.181  2.4812  2.7970  0.8346
  387MOL0     H52225  -0.263   8.767   1.964  0.2421 -1.0452  1.3366
  387MOL0     H52226  -0.184   8.693   2.185 -0.0727  0.1944 -1.6654
  387MOL0     H52227   0.251   8.860   2.501  1.1237 -0.1823  1.5841
  387MOL0     H52228   0.316   8.911   2.730  0.4457  0.9192 -0.8978
  387MOL0     H52229   1.355   9.054   2.723 -0.8583 -0.0860 -1.8309
  387MOL0     H52230   1.626   8.994   2.716 -1.9117  1.6135  1.8283
  387MOL0     H52231   1.934   8.780   2.794 -0.2603 -1.9864  2.3327
  387MOL0     H52232   2.134   8.709   2.834 -0.8263  4.9050  0.1330
  387MOL0     H52233   2.337   8.556   2.848  2.0639  5.4879  1.8604
  387MOL0     H52234   2.450   8.675   2.784  0.1739  0.3442 -1.3408
  387MOL0     H52235   2.494   8.418   2.648  2.3712  2.6200 -1.7556
  387MOL0     H52236   2.493   8.401   2.838  2.5100  1.5141  1.1480
  387MOL0     H52237   2.704   8.407   2.754 -0.6096 -0.4900 -1.6466
  387MOL0     H52238   2.662   8.569   2.831 -2.3781  0.9438 -1.1856
  387MOL0     H52239   2.600   8.641   2.590 -1.9136 -0.8782  3.9083
  387MOL0     H52240   2.765   8.652   2.653 -1.1333 -0.4891  2.1565
  387MOL0     H52241   2.818   8.307   2.402 -0.4481  0.6268  0.0391
  387MOL0     H52242   2.210   8.600   2.428 -0.5423  0.5067  0.0319
  387MOL0     H52243   2.033   8.597   2.269  1.0292  2.4097 -0.7655
  387MOL0     H52244   1.864   8.634   2.304 -0.9399 -0.5324  1.5372
  387MOL0     H52245   1.986   8.761   2.297 -0.2212  1.9428  3.4053
  388MOL0     O52246   9.739   0.053   7.920  0.0137  0.0322  0.2164
  388MOL0     C52247   9.725   0.071   7.797  0.3329 -0.0458 -0.0990
  388MOL0     O52248   9.817   0.120   7.704  0.1909  0.8392  0.0863
  388MOL0     C52249   9.936   0.161   7.761  0.3995 -0.3986 -0.5785
  388MOL0     C52250   9.946   0.282   7.826  0.0404  0.1296 -0.2207
  388MOL0     C52251  10.060   0.316   7.895 -0.0684  0.0885  0.7102
  388MOL0     C52252  10.175   0.231   7.892  1.1236  0.3160  0.1898
  388MOL0     O52253  10.282   0.252   7.972  0.3868 -0.0546 -0.5936
  388MOL0     C52254  10.256   0.291   8.105  0.2872  0.6195 -0.3906
  388MOL0     C52255  10.304   0.430   8.139 -0.4695 -0.0522 -0.5492
  388MOL0     C52256  10.297   0.450   8.288 -0.3921 -1.0472 -0.2653
  388MOL0     C52257  10.301   0.599   8.331  1.0754 -0.6409  0.6661
  388MOL0     C52258  10.431   0.666   8.315  0.2206  0.1485 -0.6966
  388MOL0     C52259  10.533   0.590   8.397 -1.1955 -0.0674 -0.1302
  388MOL0     C52260  10.661   0.666   8.420 -0.5278 -0.6577  0.0251
  388MOL0     C52261  10.712   0.735   8.303  0.8004 -0.2963  0.7235
  388MOL0     N52262  10.847   0.775   8.316 -0.4091 -0.1591  0.3343
  388MOL0     C52263  10.922   0.819   8.424  0.2517  0.7343  0.9262
  388MOL0     C52264  11.033   0.880   8.376  0.0503  0.8776  0.2571
  388MOL0     C52265  11.139   0.962   8.447 -0.3976 -0.0614  0.1069
  388MOL0     C52266  11.290   0.900   8.443  0.4559  0.1638  0.8618
  388MOL0     C52267  11.368   0.993   8.536  0.0877 -0.6212 -0.0016
  388MOL0     C52268  11.510   0.948   8.559 -0.3458 -0.4366  0.2991
  388MOL0     O52269  11.507   0.836   8.645 -0.6926  0.0952  0.0979
  388MOL0     C52270  11.625   0.769   8.672  0.2107 -0.1023 -0.3665
  388MOL0     C52271  11.612   0.639   8.714  0.0760 -0.5311  0.0979
  388MOL0     C52272  11.727   0.567   8.757  0.2278  0.3704  0.7438
  388MOL0     C52273  11.854   0.623   8.748 -0.6923 -0.1815 -0.2403
  388MOL0     C52274  11.973   0.530   8.776  0.8738 -0.2126  0.3875
  388MOL0     O52275  11.956   0.405   8.816  0.6186 -0.2120  0.3004
  388MOL0     C52276  12.053   0.310   8.786  0.1372 -0.3789 -0.1880
  388MOL0     C52277  12.169   0.301   8.876 -0.1378 -0.0971 -0.1905
  388MOL0     C52278  12.268   0.204   8.839 -0.4579 -0.8458 -0.4614
  388MOL0     C52279  12.261   0.133   8.722 -0.3381  0.6527 -0.5075
  388MOL0     O52280  12.371   0.044   8.682  0.6263 -1.0609 -0.5699
  388MOL0     C52281  12.440   0.089   8.567 -0.4958 -0.5481  0.4789
  388MOL0     C52282  12.567   0.153   8.615  0.5363  0.3484 -1.0433
  388MOL0     C52283  12.582   0.280   8.531 -0.0671  0.9351 -0.8993
  388MOL0     C52284  12.715   0.369   8.550 -0.2668  0.0916  0.9657
  388MOL0     C52285  12.735   0.471   8.430  1.1166  0.8668 -0.1060
  388MOL0     C52286  12.854   0.565   8.449  0.5196  0.1399 -0.7369
  388MOL0     C52287  12.834   0.664   8.568  0.5112  0.1498 -0.1846
  388MOL0     C52288  12.922   0.784   8.539  0.0008 -0.7334 -0.1470
  388MOL0    Cl52289  12.853   0.918   8.438  0.6944 -0.2836  0.3486
  388MOL0     C52290  12.153   0.143   8.640  0.2161  0.0159 -0.1589
  388MOL0     C52291  12.055   0.235   8.667  0.7638 -0.9240 -0.1347
  388MOL0     O52292  12.083   0.590   8.766  0.2402  0.2324  0.2719
  388MOL0     C52293  11.862   0.745   8.694  0.1590 -0.9805 -0.3067
  388MOL0     C52294  11.752   0.820   8.652 -0.7233 -1.1895 -0.8426
  388MOL0     N52295  11.029   0.855   8.237  0.2142 -1.2043  0.6197
  388MOL0     N52296  10.912   0.812   8.199  0.7826 -0.5850  0.0849
  388MOL0     C52297  10.171   0.126   7.796 -1.7559 -0.3340  0.3277
  388MOL0     C52298  10.054   0.084   7.729  0.9325  0.7204 -0.5152
  388MOL0     C52299   9.592   0.045   7.737 -0.1981  0.5555 -0.2098
  388MOL0     C52300   9.514  -0.067   7.772  0.0021 -0.1683  0.2499
  388MOL0     C52301   9.405  -0.108   7.695  0.7540 -0.1189  0.3061
  388MOL0     C52302   9.357  -0.025   7.591  0.4325  0.3884 -0.2040
  388MOL0     O52303   9.250  -0.072   7.516  0.4043  0.1778  0.4750
  388MOL0     C52304   9.152   0.029   7.472  0.2035 -0.0608  0.3370
  388MOL0     C52305   9.071   0.089   7.595  0.1263  0.1353 -0.1402
  388MOL0     C52306   8.986  -0.021   7.662 -0.2126  0.3784  0.4717
  388MOL0     C52307   8.886  -0.088   7.572  0.9417  0.1998 -0.4882
  388MOL0     C52308   8.742  -0.108   7.609 -0.0309 -0.0672  0.5087
  388MOL0     C52309   8.629  -0.144   7.606 -0.0827 -0.3190 -0.2385
  388MOL0     C52310   9.419   0.095   7.567  0.0472 -0.6006  0.0394
  388MOL0     C52311   9.534   0.137   7.639  0.1041 -0.0924  0.3898
  388MOL0     C52312   9.586   0.270   7.601  0.2717 -0.4744  0.0653
  388MOL0     H52313   9.864   0.352   7.812 -0.4792 -0.6217 -0.9559
  388MOL0     H52314  10.064   0.406   7.955 -0.2547  0.0416  0.7956
  388MOL0     H52315  10.149   0.277   8.122  0.7833 -3.2473  0.4731
  388MOL0     H52316  10.318   0.223   8.164  0.6910  1.4231  0.1211
  388MOL0     H52317  10.262   0.519   8.092  4.1425  2.3132 -0.7645
  388MOL0     H52318  10.407   0.434   8.103 -1.1387 -2.1392 -3.0209
  388MOL0     H52319  10.378   0.395   8.337  0.1750 -0.5359 -0.6162
  388MOL0     H52320  10.206   0.417   8.338 -1.0668 -1.5678 -1.7860
  388MOL0     H52321  10.222   0.630   8.261  0.6880 -3.8885 -0.4955
  388MOL0     H52322  10.265   0.614   8.434 -0.3996  0.1152  0.0768
  388MOL0     H52323  10.454   0.648   8.210  0.9615 -1.3895 -0.3065
  388MOL0     H52324  10.425   0.770   8.349 -0.0987  0.9172 -2.9753
  388MOL0     H52325  10.493   0.543   8.487  0.9318 -3.9775 -0.9570
  388MOL0     H52326  10.568   0.524   8.317 -1.0252  5.0576 -4.9196
  388MOL0     H52327  10.729   0.590   8.458  0.5840 -0.5808 -1.6879
  388MOL0     H52328  10.639   0.734   8.503 -1.0944 -2.5785  1.5202
  388MOL0     H52329  10.686   0.679   8.212 -2.7825  2.5927 -0.2954
  388MOL0     H52330  10.649   0.825   8.299 -0.4853 -1.0001  3.0118
  388MOL0     H52331  10.889   0.800   8.525 -3.6217 -0.8274 -0.4543
  388MOL0     H52332  11.134   1.057   8.394  2.7084  1.2613  1.8769
  388MOL0     H52333  11.120   1.002   8.547  1.1239  2.0790 -0.4024
  388MOL0     H52334  11.283   0.796   8.476 -1.2707 -0.1744 -0.4188
  388MOL0     H52335  11.336   0.897   8.344 -0.6154 -0.8687  0.3694
  388MOL0     H52336  11.320   1.007   8.633  2.1588  1.9587  0.8084
  388MOL0     H52337  11.369   1.090   8.486 -0.5035 -0.8586 -0.4740
  388MOL0     H52338  11.559   1.033   8.606 -2.5304  2.3543 -2.0845
  388MOL0     H52339  11.552   0.934   8.459 -0.8445 -4.2835  0.4834
  388MOL0     H52340  11.517   0.587   8.719  0.1281 -0.6359  0.0076
  388MOL0     H52341  11.697   0.471   8.798  0.7733  0.0231  0.3393
  388MOL0     H52342  12.178   0.357   8.969 -0.4343 -1.3060  0.5911
  388MOL0     H52343  12.349   0.192   8.910 -1.8215 -0.3087  1.2376
  388MOL0     H52344  12.454  -0.004   8.512 -1.1796  0.6019 -1.8093
  388MOL0     H52345  12.381   0.146   8.494  0.1124  1.7869  1.7091
  388MOL0     H52346  12.552   0.180   8.720 -3.9656  2.3959 -1.9579
  388MOL0     H52347  12.645   0.079   8.597 -2.3760 -2.3111 -4.2640
  388MOL0     H52348  12.580   0.251   8.425 -0.7832  0.9881 -0.9014
  388MOL0     H52349  12.498   0.345   8.558  1.0057  1.8937  0.2951
  388MOL0     H52350  12.805   0.309   8.566  1.0425  1.8966  0.7949
  388MOL0     H52351  12.697   0.416   8.647  0.4216  1.0625  0.6442
  388MOL0     H52352  12.648   0.534   8.412 -1.3701 -1.7973  1.6188
  388MOL0     H52353  12.753   0.412   8.339 -1.8865  0.2155 -0.3759
  388MOL0     H52354  12.944   0.504   8.461 -0.8865 -2.0867 -0.7074
  388MOL0     H52355  12.863   0.630   8.361 -1.2911  1.0112 -0.3345
  388MOL0     H52356  12.861   0.615   8.662 -1.7019 -0.7329  0.0690
  388MOL0     H52357  12.730   0.698   8.577  0.4845 -0.4218  2.3508
  388MOL0     H52358  12.949   0.821   8.639  4.7389 -0.5774 -1.2291
  388MOL0     H52359  13.018   0.751   8.499  1.3479 -0.6876  2.7530
  388MOL0     H52360  12.139   0.094   8.544 -0.3823 -2.0545  0.9389
  388MOL0     H52361  11.982   0.275   8.598 -1.2179  3.0202  3.7381
  388MOL0     H52362  11.957   0.798   8.687  0.6087 -1.8387 -0.9478
  388MOL0     H52363  11.765   0.926   8.636  0.3842 -0.8172  1.8636
  388MOL0     H52364  10.262   0.070   7.782 -1.3796  0.2222  0.5206
  388MOL0     H52365  10.053  -0.005   7.667 -0.1418  1.0062 -0.9258
  388MOL0     H52366   9.532  -0.117   7.867 -2.4043  1.8803  1.9120
  388MOL0     H52367   9.355  -0.202   7.713 -1.3996  1.1351  1.3453
  388MOL0     H52368   9.085  -0.006   7.393  3.1314 -0.5389 -2.1599
  388MOL0     H52369   9.205   0.111   7.422  1.4967 -1.4945 -0.7438
  388MOL0     H52370   8.998   0.165   7.566  1.2934  1.5608  0.5160
  388MOL0     H52371   9.151   0.121   7.663 -1.4524 -0.6852  2.2376
  388MOL0     H52372   8.942   0.012   7.756  1.4346 -0.7502  1.7112
  388MOL0     H52373   9.060  -0.095   7.695  1.3643  1.1613 -1.1320
  388MOL0     H52374   8.884  -0.020   7.486  1.8197 -0.8772 -1.3808
  388MOL0     H52375   8.924  -0.184   7.537 -0.4706 -0.7604  0.4891
  388MOL0     H52376   8.529  -0.182   7.612  0.1563 -0.8421  0.6654
  388MOL0     H52377   9.392   0.162   7.486  0.9454  2.5829  2.1995
  388MOL0     H52378   9.517   0.341   7.554  1.1809  0.3184 -0.1044
  388MOL0     H52379   9.637   0.313   7.688 -0.6124  0.6996  0.0311
  388MOL0     H52380   9.668   0.249   7.532 -0.5943 -1.6922 -0.6234
  389MOL0     O52381  10.278   1.878   8.615 -0.5447  0.0461  0.4893
  389MOL0     C52382  10.340   1.919   8.509 -0.4172  0.2133 -0.5042
  389MOL0     O52383  10.284   1.940   8.391  0.6256 -0.0090 -0.4217
  389MOL0     C52384  10.151   1.921   8.379  0.0245 -0.7721 -0.3902
  389MOL0     C52385  10.103   1.805   8.321 -0.8548  0.0696 -0.6051
  389MOL0     C52386   9.971   1.799   8.284 -0.3769  0.1997 -0.5082
  389MOL0     C52387   9.877   1.906   8.315 -0.0638  0.1041 -0.0479
  389MOL0     O52388   9.748   1.903   8.283  0.6683 -0.4759 -0.5185
  389MOL0     C52389   9.687   1.769   8.282 -0.2447  0.2782  0.1995
  389MOL0     C52390   9.539   1.780   8.309 -0.7013 -0.0885 -0.3880
  389MOL0     C52391   9.463   1.850   8.208 -0.4942  0.0145  0.1791
  389MOL0     C52392   9.443   1.755   8.082  0.4203  0.1339  0.4179
  389MOL0     C52393   9.358   1.824   7.983 -0.5921 -0.0838 -0.5593
  389MOL0     C52394   9.205   1.837   8.021  0.2570 -0.5489 -0.2042
  389MOL0     C52395   9.105   1.891   7.923 -0.4435  0.5861  0.6212
  389MOL0     C52396   8.965   1.840   7.923  0.3649 -0.2393 -1.2177
  389MOL0     N52397   8.879   1.873   8.034  0.6325 -0.6816 -0.1500
  389MOL0     C52398   8.737   1.871   8.027  0.7907 -0.9257 -0.1152
  389MOL0     C52399   8.714   1.915   8.157 -0.5320  0.9851 -0.4601
  389MOL0     C52400   8.581   1.943   8.196 -0.6697 -0.3477  0.2037
  389MOL0     C52401   8.515   1.827   8.268  0.2001  0.2466 -0.5283
  389MOL0     C52402   8.508   1.830   8.416  0.0974  0.4519  0.8040
  389MOL0     C52403   8.409   1.941   8.470  0.4760  0.2865  0.3961
  389MOL0     O52404   8.282   1.880   8.477  0.7509  0.0328 -0.3520
  389MOL0     C52405   8.176   1.947   8.525 -0.5654 -1.1096  0.2548
  389MOL0     C52406   8.055   1.925   8.469  0.7542  0.1448  0.0607
  389MOL0     C52407   7.938   2.001   8.506  1.0987  0.0646  0.2034
  389MOL0     C52408   7.940   2.091   8.612 -0.0391  0.1604 -0.2634
  389MOL0     C52409   7.819   2.159   8.662  0.2500  0.3593 -0.9894
  389MOL0     O52410   7.703   2.111   8.611 -0.0236  0.0769  0.1621
  389MOL0     C52411   7.588   2.176   8.651  0.4724  0.8758  1.0329
  389MOL0     C52412   7.494   2.100   8.717  1.3711  0.3925 -0.1651
  389MOL0     C52413   7.377   2.163   8.772 -0.0162  0.3723  0.2503
  389MOL0     C52414   7.358   2.307   8.765  0.1462 -0.4584 -0.6261
  389MOL0     O52415   7.254   2.378   8.831  0.6580  0.4590 -0.1995
  389MOL0     C52416   7.149   2.417   8.738 -0.4210 -0.3109  0.0790
  389MOL0     C52417   7.041   2.497   8.807  0.0453  0.6240  0.2575
  389MOL0     C52418   7.073   2.647   8.845 -0.5928  0.6651  0.0507
  389MOL0     C52419   6.962   2.705   8.936  0.3297 -1.0400  0.3620
  389MOL0     C52420   6.969   2.661   9.086  0.4709 -0.3165  0.3527
  389MOL0     C52421   7.106   2.639   9.143 -0.0045  0.0746  1.0991
  389MOL0     C52422   7.099   2.588   9.285  0.0838  1.0105  0.1443
  389MOL0     C52423   7.228   2.538   9.341  0.5536 -0.1408 -0.6645
  389MOL0    Cl52424   7.183   2.470   9.496 -0.2039 -0.1007  0.0768
  389MOL0     C52425   7.460   2.373   8.707 -0.4744 -0.2554  0.4851
  389MOL0     C52426   7.567   2.319   8.646  0.1438 -0.0531  0.3278
  389MOL0     O52427   7.832   2.246   8.750  0.2825  0.1874 -0.0791
  389MOL0     C52428   8.067   2.121   8.664  0.0567 -0.8802  1.1720
  389MOL0     C52429   8.184   2.059   8.609  0.3654  0.4501 -0.1276
  389MOL0     N52430   8.824   1.929   8.226 -0.4564  0.2599 -0.9016
  389MOL0     N52431   8.922   1.902   8.157  0.3294 -0.3550 -0.0697
  389MOL0     C52432   9.929   2.015   8.381 -0.8578  0.2662  0.3242
  389MOL0     C52433  10.065   2.025   8.402 -0.0715 -0.5815 -0.2670
  389MOL0     C52434  10.487   1.932   8.522 -0.3906 -0.4037 -0.2209
  389MOL0     C52435  10.547   1.963   8.650 -0.1192 -0.0982  0.5986
  389MOL0     C52436  10.681   1.993   8.664 -0.6198 -0.3634 -0.1807
  389MOL0     C52437  10.770   1.971   8.561  0.2012 -0.2981  0.7270
  389MOL0     O52438  10.906   1.971   8.567  0.1438  0.4244  0.1169
  389MOL0     C52439  10.976   2.017   8.680  0.2876  0.3882  0.5777
  389MOL0     C52440  11.125   1.995   8.656 -0.8875 -0.8817  0.7341
  389MOL0     C52441  11.155   1.852   8.632 -0.6585  0.3820 -0.4317
  389MOL0     C52442  11.263   1.836   8.524 -0.4707 -0.0696  0.3505
  389MOL0     C52443  11.220   1.868   8.388  0.9519  0.3493  0.1304
  389MOL0     C52444  11.183   1.904   8.282  0.7911 -0.4007 -0.2494
  389MOL0     C52445  10.712   1.936   8.433 -0.2830 -1.0180  0.8354
  389MOL0     C52446  10.571   1.920   8.410 -1.2653 -0.6953  0.3073
  389MOL0     C52447  10.524   1.901   8.272 -0.3977 -0.2541 -0.0604
  389MOL0     H52448  10.169   1.722   8.297 -0.2441  0.4151 -0.1836
  389MOL0     H52449   9.943   1.709   8.230  0.2648 -1.6176  2.0222
  389MOL0     H52450   9.703   1.713   8.189 -2.7691  2.2861 -1.5793
  389MOL0     H52451   9.725   1.719   8.371  0.1849 -0.6850 -0.5071
  389MOL0     H52452   9.533   1.839   8.401 -3.2279  0.2992 -0.7212
  389MOL0     H52453   9.518   1.673   8.323  1.6360 -0.2110  3.2539
  389MOL0     H52454   9.516   1.936   8.168  0.9183 -0.8536  0.1243
  389MOL0     H52455   9.367   1.894   8.236 -0.5878  0.0928 -0.2491
  389MOL0     H52456   9.545   1.754   8.043  0.1893  0.7827 -0.2140
  389MOL0     H52457   9.410   1.653   8.106 -1.4427  0.4631 -0.5657
  389MOL0     H52458   9.397   1.923   7.958  2.3478 -0.8330  0.5875
  389MOL0     H52459   9.362   1.762   7.893  0.4037 -0.8601 -0.0098
  389MOL0     H52460   9.178   1.741   8.064  0.4395 -0.4162  0.2104
  389MOL0     H52461   9.201   1.904   8.107 -2.7721  0.0759 -0.7403
  389MOL0     H52462   9.155   1.882   7.826  3.2932  4.3668  1.9064
  389MOL0     H52463   9.086   1.997   7.942 -0.8807  0.6187  0.0400
  389MOL0     H52464   8.920   1.876   7.830 -0.2424  1.9045 -0.1609
  389MOL0     H52465   8.978   1.731   7.925  4.0344  0.0209 -2.5582
  389MOL0     H52466   8.676   1.828   7.949  3.5944 -0.7863 -2.5383
  389MOL0     H52467   8.581   2.022   8.272  4.2261 -0.7605  0.9415
  389MOL0     H52468   8.521   1.977   8.111  2.5050 -0.4927 -2.2708
  389MOL0     H52469   8.412   1.819   8.232 -0.9309  2.1700  1.9269
  389MOL0     H52470   8.571   1.735   8.245 -0.1587 -0.0353 -0.3017
  389MOL0     H52471   8.613   1.839   8.445  0.5438 -1.2698 -0.1446
  389MOL0     H52472   8.472   1.731   8.443 -2.8227  0.7326 -1.5548
  389MOL0     H52473   8.396   2.025   8.402  0.2943 -1.6159 -2.0346
  389MOL0     H52474   8.431   1.987   8.567  0.7602 -1.3848  1.1693
  389MOL0     H52475   8.051   1.835   8.408 -4.3220 -0.7643  1.2784
  389MOL0     H52476   7.843   1.981   8.456  0.8991  0.6031  0.3613
  389MOL0     H52477   7.501   1.994   8.738 -2.6852 -0.5248 -2.5357
  389MOL0     H52478   7.316   2.083   8.813  0.3265 -4.1349 -6.4603
  389MOL0     H52479   7.189   2.471   8.652  0.8183 -2.3304 -0.6975
  389MOL0     H52480   7.110   2.323   8.699 -2.9623  1.7428 -2.7412
  389MOL0     H52481   6.958   2.497   8.736  2.5542  1.4550 -2.9059
  389MOL0     H52482   7.004   2.439   8.891 -2.2031  0.7273 -0.5960
  389MOL0     H52483   7.170   2.656   8.893 -0.7068 -1.2153  0.6948
  389MOL0     H52484   7.073   2.712   8.757  0.8433  0.2344 -0.2772
  389MOL0     H52485   6.865   2.669   8.899  1.3376 -3.0912 -0.4203
  389MOL0     H52486   6.978   2.812   8.928  1.2856 -1.0470  1.8131
  389MOL0     H52487   6.915   2.569   9.110 -0.0853  0.5133  2.5012
  389MOL0     H52488   6.933   2.749   9.139 -0.0687  0.7474 -1.6580
  389MOL0     H52489   7.158   2.560   9.087  0.0126 -1.7405  3.4987
  389MOL0     H52490   7.163   2.732   9.136  1.7989 -0.8698  2.4541
  389MOL0     H52491   7.025   2.507   9.282  1.0714  0.0335  1.3745
  389MOL0     H52492   7.057   2.667   9.348 -0.5076  3.3822 -2.9397
  389MOL0     H52493   7.266   2.460   9.274  0.1128 -0.9396 -0.0165
  389MOL0     H52494   7.299   2.621   9.346  1.7866 -1.2213  0.8603
  389MOL0     H52495   7.468   2.482   8.701  1.4997 -0.1589  3.0375
  389MOL0     H52496   7.651   2.374   8.605 -3.2751  1.9568 -5.1096
  389MOL0     H52497   8.066   2.184   8.752 -1.5412  1.4449 -0.3908
  389MOL0     H52498   8.280   2.083   8.654  1.0111 -1.5602 -0.3055
  389MOL0     H52499   9.853   2.090   8.400 -0.1602  1.7682 -2.3597
  389MOL0     H52500  10.107   2.107   8.459 -0.1779 -2.0082  1.9983
  389MOL0     H52501  10.471   1.962   8.727 -0.4065  0.7757  0.3390
  389MOL0     H52502  10.722   2.031   8.757  2.9222  1.9531 -2.4977
  389MOL0     H52503  10.931   1.967   8.767 -1.8231  3.5059  1.4567
  389MOL0     H52504  10.956   2.122   8.705 -3.7850 -0.5712  2.0919
  389MOL0     H52505  11.186   2.038   8.735  2.1652 -0.8179 -1.4971
  389MOL0     H52506  11.152   2.053   8.568 -2.6037 -1.1274 -0.0006
  389MOL0     H52507  11.069   1.790   8.605 -1.0587  1.8542 -2.8508
  389MOL0     H52508  11.192   1.821   8.730 -3.2099 -0.3989  0.3560
  389MOL0     H52509  11.352   1.895   8.547  1.3425 -2.0130 -1.2811
  389MOL0     H52510  11.289   1.730   8.532  2.6295  0.6181  0.9365
  389MOL0     H52511  11.151   1.946   8.188 -2.6823 -2.7689 -0.3146
  389MOL0     H52512  10.769   1.916   8.343 -2.7817 -0.5237 -0.9869
  389MOL0     H52513  10.618   1.884   8.218  0.6387 -6.1324  2.7507
  389MOL0     H52514  10.470   1.807   8.257 -1.0049 -0.1788  1.5079
  389MOL0     H52515  10.476   1.987   8.225  2.3076  0.2337 -2.2255
  390MOL0     O52516   0.973   6.013   5.056  0.7221 -0.2735 -0.4290
  390MOL0     C52517   1.006   6.052   4.940  0.3693  0.5498 -0.2556
  390MOL0     O52518   1.024   5.964   4.836  0.5854  0.9605 -0.5280
  390MOL0     C52519   1.032   5.826   4.852  0.0384 -0.2919  0.4589
  390MOL0     C52520   0.979   5.740   4.761  1.0585 -0.4820 -0.4453
  390MOL0     C52521   0.990   5.594   4.770 -0.8361 -0.8454 -0.3463
  390MOL0     C52522   1.082   5.545   4.857  0.3633  0.5767  0.0691
  390MOL0     O52523   1.122   5.411   4.856 -0.3331 -0.5626  0.1818
  390MOL0     C52524   1.045   5.316   4.786  0.1450 -0.1517  0.1757
  390MOL0     C52525   0.907   5.299   4.854 -0.8542  0.6857 -0.3821
  390MOL0     C52526   0.841   5.171   4.805  1.1581 -0.0864 -0.2113
  390MOL0     C52527   0.720   5.141   4.895 -0.6288  0.2321  0.1333
  390MOL0     C52528   0.661   5.006   4.874 -0.4881  0.6274  1.0410
  390MOL0     C52529   0.565   4.991   4.993  0.4788  0.5612 -0.2838
  390MOL0     C52530   0.491   4.865   4.996  0.2388  0.4069  0.1945
  390MOL0     C52531   0.369   4.855   4.912 -0.7265 -0.3289  0.2111
  390MOL0     N52532   0.251   4.932   4.956  0.4141  0.0848  0.6466
  390MOL0     C52533   0.213   5.060   4.923  0.3483 -0.4251 -0.0290
  390MOL0     C52534   0.100   5.091   4.993  0.4916  0.1147  0.0564
  390MOL0     C52535   0.013   5.212   4.999  0.4655  0.7043  1.2592
  390MOL0     C52536   0.061   5.295   5.124  0.0814 -0.5452 -0.2820
  390MOL0     C52537  -0.029   5.409   5.145 -0.1887 -0.8153 -0.3454
  390MOL0     C52538  -0.014   5.522   5.037  0.0227  0.6705 -0.1848
  390MOL0     O52539  -0.029   5.647   5.102  0.3049  0.6200 -0.1193
  390MOL0     C52540  -0.089   5.750   5.040 -0.4345 -1.0610 -0.4691
  390MOL0     C52541  -0.183   5.729   4.933 -0.2599 -0.0411 -0.0331
  390MOL0     C52542  -0.255   5.834   4.878 -0.9256 -0.4741  0.4303
  390MOL0     C52543  -0.223   5.961   4.922 -0.4272 -0.4408  0.2707
  390MOL0     C52544  -0.297   6.085   4.880  0.1073  0.1503  0.7647
  390MOL0     O52545  -0.265   6.202   4.943 -0.2555  0.3473  0.0651
  390MOL0     C52546  -0.319   6.329   4.915  0.1155  1.5931  0.1099
  390MOL0     C52547  -0.263   6.441   4.975  0.3793 -0.5399  0.6113
  390MOL0     C52548  -0.317   6.571   4.954 -0.6944  0.5575 -0.6251
  390MOL0     C52549  -0.418   6.601   4.857 -0.4156  0.2349  0.1640
  390MOL0     O52550  -0.460   6.727   4.819 -0.0990 -0.0668  0.1170
  390MOL0     C52551  -0.576   6.743   4.746  0.4645  0.1250 -0.6299
  390MOL0     C52552  -0.629   6.889   4.770  0.3170  0.1064 -0.0476
  390MOL0     C52553  -0.725   6.913   4.658 -0.1910 -0.9093 -0.7529
  390MOL0     C52554  -0.720   7.061   4.632 -0.3458  1.0480 -1.0473
  390MOL0     C52555  -0.792   7.090   4.503  0.0435 -0.0747  0.7945
  390MOL0     C52556  -0.785   7.236   4.452 -0.2242  0.1906  0.1118
  390MOL0     C52557  -0.847   7.334   4.553 -0.0375  0.9170  0.3274
  390MOL0     C52558  -0.873   7.474   4.502  0.7116  0.8255  0.1817
  390MOL0    Cl52559  -1.003   7.479   4.383  0.2018 -0.2339 -0.5236
  390MOL0     C52560  -0.489   6.481   4.821 -0.0414 -0.3373  0.5002
  390MOL0     C52561  -0.441   6.350   4.851 -0.6080 -0.2342  0.2262
  390MOL0     O52562  -0.383   6.068   4.792  0.6208  0.6152 -0.0640
  390MOL0     C52563  -0.118   5.984   5.008  0.7453 -0.0785 -0.3749
  390MOL0     C52564  -0.053   5.883   5.074  0.2311  0.0880  1.2857
  390MOL0     N52565   0.066   4.987   5.062 -0.0154 -0.1953 -1.0918
  390MOL0     N52566   0.164   4.898   5.053  0.1031 -0.1259  0.7847
  390MOL0     C52567   1.153   5.638   4.943 -0.5791  0.0793  0.2651
  390MOL0     C52568   1.131   5.769   4.939 -0.6353 -0.2351  1.1734
  390MOL0     C52569   0.989   6.198   4.907  0.0761  0.1231  0.1530
  390MOL0     C52570   0.905   6.233   4.801  0.5268  0.0634 -0.2226
  390MOL0     C52571   0.882   6.366   4.768 -0.0053 -0.7300 -0.3189
  390MOL0     C52572   0.946   6.465   4.850  0.3617  0.2057 -0.4941
  390MOL0     O52573   0.919   6.599   4.823 -1.1220 -1.1004 -0.1579
  390MOL0     C52574   1.005   6.660   4.727 -0.7678 -0.6703  0.2992
  390MOL0     C52575   1.110   6.749   4.801 -0.8849 -0.0229  0.1393
  390MOL0     C52576   1.235   6.779   4.710  0.2228  0.6077  0.2798
  390MOL0     C52577   1.331   6.652   4.712  0.2208  0.0430 -0.5442
  390MOL0     C52578   1.411   6.648   4.830 -0.1930  0.0421 -0.5075
  390MOL0     C52579   1.480   6.655   4.931  0.5212 -0.7009  0.1315
  390MOL0     C52580   1.033   6.432   4.949  0.5651  0.3425 -0.4550
  390MOL0     C52581   1.049   6.296   4.984  0.7035  0.1093  0.3526
  390MOL0     C52582   1.129   6.260   5.111 -0.8553  0.3087 -0.0585
  390MOL0     H52583   0.919   5.783   4.681 -5.7414 -2.6412  2.7631
  390MOL0     H52584   0.925   5.534   4.707 -2.9631  1.6313 -0.6919
  390MOL0     H52585   1.032   5.353   4.684  1.2162 -0.3323 -0.0369
  390MOL0     H52586   1.100   5.222   4.776  0.0544 -0.3460  1.3584
  390MOL0     H52587   0.840   5.384   4.833 -1.2190  0.8440  1.3264
  390MOL0     H52588   0.925   5.283   4.960 -0.6760  0.2045 -0.4854
  390MOL0     H52589   0.907   5.085   4.815 -1.1900 -1.7109  3.0971
  390MOL0     H52590   0.805   5.171   4.701  2.7910  1.5097 -0.8310
  390MOL0     H52591   0.762   5.148   4.996 -0.0327 -1.1909 -0.0047
  390MOL0     H52592   0.640   5.214   4.881 -0.6420  0.0625 -0.7256
  390MOL0     H52593   0.600   5.004   4.784  1.9802  1.3865 -0.7687
  390MOL0     H52594   0.733   4.923   4.873  2.2730  2.8462  0.9734
  390MOL0     H52595   0.616   5.006   5.089  0.9110  0.9561 -0.5696
  390MOL0     H52596   0.496   5.075   4.999  2.2783  2.0400  1.8426
  390MOL0     H52597   0.446   4.840   5.093  1.0654 -1.0934  0.2244
  390MOL0     H52598   0.553   4.775   4.994 -5.0110 -3.8465  2.7535
  390MOL0     H52599   0.397   4.867   4.807 -0.1751  2.1955  0.5934
  390MOL0     H52600   0.330   4.753   4.918  1.7493 -1.4251 -0.8032
  390MOL0     H52601   0.260   5.125   4.850  1.1340  1.3110  1.9177
  390MOL0     H52602   0.025   5.272   4.908  3.4086  2.1409  2.4601
  390MOL0     H52603  -0.091   5.182   5.013 -0.2611  3.0433  1.3624
  390MOL0     H52604   0.052   5.232   5.213  1.2585  0.6208  0.7140
  390MOL0     H52605   0.169   5.305   5.111  0.0159 -1.9438 -2.3183
  390MOL0     H52606   0.004   5.457   5.238 -2.3261  1.3067 -0.5910
  390MOL0     H52607  -0.132   5.373   5.150 -0.3522 -0.4247 -0.8021
  390MOL0     H52608  -0.084   5.488   4.961  1.0463 -1.7810 -0.1300
  390MOL0     H52609   0.080   5.521   4.981 -0.3297 -1.4368 -0.8184
  390MOL0     H52610  -0.208   5.629   4.898 -3.9445  0.7577 -0.0180
  390MOL0     H52611  -0.330   5.822   4.800 -0.8378 -0.4229  0.3371
  390MOL0     H52612  -0.170   6.429   5.030  1.1239  0.6020 -0.3393
  390MOL0     H52613  -0.290   6.656   5.016 -0.5383 -2.3156  3.7028
  390MOL0     H52614  -0.552   6.711   4.644  2.5411 -1.8894  0.3995
  390MOL0     H52615  -0.661   6.680   4.772  2.4880 -2.6269 -0.3053
  390MOL0     H52616  -0.675   6.897   4.869 -1.2908  2.8472 -0.8926
  390MOL0     H52617  -0.554   6.968   4.779 -0.5298  0.7386  2.0152
  390MOL0     H52618  -0.693   6.855   4.570  0.2790 -2.6444  0.5034
  390MOL0     H52619  -0.819   6.868   4.689  0.6669 -0.6260  2.5801
  390MOL0     H52620  -0.617   7.078   4.599 -0.8904  3.2477 -1.7922
  390MOL0     H52621  -0.748   7.116   4.722 -3.5474 -0.2961 -1.1026
  390MOL0     H52622  -0.897   7.062   4.517  0.1433  0.7505  3.8456
  390MOL0     H52623  -0.748   7.028   4.424  2.7787  4.2732 -1.5623
  390MOL0     H52624  -0.690   7.272   4.411 -0.6839 -1.3007 -2.5288
  390MOL0     H52625  -0.859   7.237   4.371  0.7730  0.2450 -0.8278
  390MOL0     H52626  -0.780   7.346   4.639 -1.2285  0.0604  1.4168
  390MOL0     H52627  -0.945   7.288   4.571  0.3351 -1.0498 -2.1932
  390MOL0     H52628  -0.914   7.534   4.584 -0.8151  0.5000 -0.3076
  390MOL0     H52629  -0.778   7.512   4.463  1.4414 -2.1574 -1.2512
  390MOL0     H52630  -0.589   6.485   4.781 -1.5582  2.4600  4.0789
  390MOL0     H52631  -0.507   6.271   4.819 -0.2129 -0.2877 -0.4767
  390MOL0     H52632  -0.080   6.082   5.033 -1.5473  0.4020  1.6137
  390MOL0     H52633   0.030   5.889   5.143  1.4282 -3.2397  0.3419
  390MOL0     H52634   1.231   5.604   5.011  0.2641  0.4295 -0.5022
  390MOL0     H52635   1.202   5.836   4.987 -0.2399  0.1521  0.0850
  390MOL0     H52636   0.858   6.165   4.732 -1.9210  1.1547  0.2688
  390MOL0     H52637   0.808   6.398   4.695 -1.7664 -2.7860  0.4614
  390MOL0     H52638   0.937   6.719   4.664 -4.0345 -4.1751  0.1715
  390MOL0     H52639   1.055   6.589   4.661 -0.8342  1.0133 -1.6542
  390MOL0     H52640   1.130   6.693   4.892 -0.8434 -0.7956 -0.3398
  390MOL0     H52641   1.070   6.848   4.826  3.0687  2.1034 -1.1457
  390MOL0     H52642   1.284   6.874   4.736  0.7812  1.8290 -4.3660
  390MOL0     H52643   1.182   6.788   4.615 -0.3597 -3.9251 -0.0297
  390MOL0     H52644   1.276   6.558   4.708 -0.1257  0.2417 -0.4512
  390MOL0     H52645   1.404   6.651   4.630  0.9432 -0.7481  0.0895
  390MOL0     H52646   1.533   6.665   5.024  2.2639 -1.0518 -0.7735
  390MOL0     H52647   1.057   6.512   5.018  0.3650 -0.8217  1.0086
  390MOL0     H52648   1.198   6.339   5.142 -0.8511  0.3821 -0.2526
  390MOL0     H52649   1.057   6.251   5.192  0.2578  3.3555  1.4450
  390MOL0     H52650   1.187   6.169   5.092 -2.0669 -0.6702  0.8131
  391MOL0     O52651   9.646   5.548   1.980 -1.2904  0.4356 -0.4386
  391MOL0     C52652   9.672   5.609   2.086 -0.3533 -0.6180  0.5001
  391MOL0     O52653   9.697   5.546   2.202 -0.2388 -0.7513  0.0214
  391MOL0     C52654   9.710   5.414   2.221 -0.1523 -0.6399  0.0951
  391MOL0     C52655   9.599   5.330   2.196  0.0533 -0.5412  0.0254
  391MOL0     C52656   9.617   5.197   2.210  1.1248  0.0338 -0.3180
  391MOL0     C52657   9.738   5.144   2.261  0.0366  0.1110  0.1724
  391MOL0     O52658   9.733   5.004   2.288  0.7959 -0.3591  0.4004
  391MOL0     C52659   9.855   4.934   2.280 -0.1984 -0.3231 -0.1870
  391MOL0     C52660   9.929   4.923   2.410 -0.5384 -0.1725  0.0848
  391MOL0     C52661  10.068   4.853   2.404 -0.1531  0.1861  0.5941
  391MOL0     C52662  10.121   4.854   2.552 -0.1753  1.3569  0.0031
  391MOL0     C52663  10.251   4.786   2.578 -0.0818  0.8588  0.5164
  391MOL0     C52664  10.310   4.832   2.711  0.4675 -0.9133  0.3179
  391MOL0     C52665  10.439   4.764   2.754  0.5829  0.7232  0.4129
  391MOL0     C52666  10.421   4.612   2.778  0.5052  0.1097  0.2805
  391MOL0     N52667  10.546   4.553   2.844 -0.7401  0.3715 -0.1346
  391MOL0     C52668  10.671   4.533   2.781 -0.3426 -0.6241 -0.5173
  391MOL0     C52669  10.743   4.462   2.864  0.6287 -0.2135 -0.8747
  391MOL0     C52670  10.870   4.401   2.824 -0.8197  0.4394 -0.2634
  391MOL0     C52671  10.843   4.250   2.804  0.0652 -0.2375  0.1412
  391MOL0     C52672  10.965   4.177   2.756 -0.2321  1.2656  1.8293
  391MOL0     C52673  10.947   4.019   2.774 -0.4308  0.2848  0.0838
  391MOL0     O52674  11.044   3.937   2.698  0.1201 -0.2510 -0.2240
  391MOL0     C52675  11.056   3.802   2.714 -0.6883 -0.2333 -0.0887
  391MOL0     C52676  10.986   3.729   2.801  0.1809 -0.1290 -0.6957
  391MOL0     C52677  11.008   3.596   2.820  0.5701  0.2027 -0.1022
  391MOL0     C52678  11.102   3.526   2.742  0.1984 -0.9727 -0.2202
  391MOL0     C52679  11.112   3.383   2.750 -1.2766 -1.0638 -0.9079
  391MOL0     O52680  11.084   3.324   2.871  0.1606  0.1760 -0.2652
  391MOL0     C52681  11.112   3.191   2.881 -0.5005 -0.4244 -0.6474
  391MOL0     C52682  11.020   3.097   2.829 -0.1022 -0.3685 -0.2666
  391MOL0     C52683  11.054   2.963   2.834  0.8102 -0.3211 -0.8841
  391MOL0     C52684  11.166   2.915   2.902 -0.3612 -0.2176  1.0422
  391MOL0     O52685  11.181   2.773   2.903  0.8010  0.4710  0.2675
  391MOL0     C52686  11.312   2.717   2.888 -1.1011 -0.0377 -0.2113
  391MOL0     C52687  11.358   2.729   2.745  0.3004  0.2366  0.0079
  391MOL0     C52688  11.275   2.643   2.653 -0.4517  0.4287  0.8443
  391MOL0     C52689  11.345   2.621   2.515  1.0449  0.3095 -0.0269
  391MOL0     C52690  11.476   2.548   2.501  0.3571 -0.4092 -0.4659
  391MOL0     C52691  11.510   2.510   2.361  0.5807 -0.3479  1.6136
  391MOL0     C52692  11.633   2.413   2.352  0.6392 -0.0712 -0.6953
  391MOL0     C52693  11.655   2.380   2.213  0.3275  0.0866  0.6608
  391MOL0    Cl52694  11.777   2.237   2.200  0.5196  0.1426 -0.2060
  391MOL0     C52695  11.255   3.013   2.957  0.0956 -0.1391  1.2946
  391MOL0     C52696  11.231   3.145   2.950  1.1433  0.1763  1.0195
  391MOL0     O52697  11.150   3.327   2.652  0.6783  0.2987 -0.5225
  391MOL0     C52698  11.178   3.601   2.645 -0.2745 -0.8451 -0.6440
  391MOL0     C52699  11.149   3.738   2.631  0.2146  0.7367  0.4251
  391MOL0     N52700  10.665   4.432   2.971 -0.0641 -0.2416 -0.4031
  391MOL0     N52701  10.555   4.493   2.961  0.7076  0.5859 -0.3712
  391MOL0     C52702   9.852   5.227   2.286 -0.0470 -0.0825  0.4272
  391MOL0     C52703   9.836   5.362   2.263  0.3260 -0.5731 -0.6985
  391MOL0     C52704   9.666   5.761   2.084  0.6184 -0.8724 -0.3676
  391MOL0     C52705   9.592   5.832   2.184  0.0029  1.1380 -0.6506
  391MOL0     C52706   9.599   5.969   2.175 -0.1270 -0.0885  0.9085
  391MOL0     C52707   9.670   6.039   2.074  0.1965 -0.9412 -0.6161
  391MOL0     O52708   9.680   6.182   2.067 -0.4666  0.3732 -0.0721
  391MOL0     C52709   9.629   6.257   2.175 -0.4994 -0.0354 -0.6708
  391MOL0     C52710   9.733   6.290   2.292  0.2213  0.8996 -0.7170
  391MOL0     C52711   9.862   6.355   2.234 -0.9735 -1.1788 -0.3208
  391MOL0     C52712   9.856   6.505   2.254  0.5118 -0.3403  0.1698
  391MOL0     C52713   9.969   6.567   2.191 -0.4018 -0.4872  0.3719
  391MOL0     C52714  10.037   6.638   2.116  1.5850 -0.1107 -0.3207
  391MOL0     C52715   9.749   5.974   1.990 -0.2253  0.1866 -0.1199
  391MOL0     C52716   9.750   5.834   1.991 -0.1597  1.2058 -0.3108
  391MOL0     C52717   9.824   5.763   1.882 -0.8108 -0.2536 -0.0448
  391MOL0     H52718   9.511   5.388   2.170 -1.0292 -3.2143 -2.8722
  391MOL0     H52719   9.532   5.130   2.206  1.3614 -0.2710 -0.2751
  391MOL0     H52720   9.825   4.834   2.246  1.5303 -1.5198  1.5793
  391MOL0     H52721   9.916   4.970   2.197 -0.6899  0.3305 -0.2669
  391MOL0     H52722   9.857   4.883   2.482  0.5056  2.4025  2.7354
  391MOL0     H52723   9.944   5.027   2.440  1.4930 -0.5331  0.4712
  391MOL0     H52724  10.130   4.908   2.333 -1.8349 -0.7240 -1.7181
  391MOL0     H52725  10.042   4.752   2.371 -0.4153  0.1770  0.8276
  391MOL0     H52726  10.141   4.956   2.587 -1.6650  0.8512  2.6346
  391MOL0     H52727  10.052   4.815   2.628  0.3800  2.6558  1.2311
  391MOL0     H52728  10.237   4.677   2.574  2.9449  0.3702  0.6902
  391MOL0     H52729  10.325   4.818   2.504 -0.2149 -1.8338 -0.9129
  391MOL0     H52730  10.314   4.941   2.717  2.6491 -1.0007  1.9028
  391MOL0     H52731  10.229   4.820   2.783  1.3286  2.2574  1.9639
  391MOL0     H52732  10.471   4.805   2.851  1.2882 -1.7761  1.3093
  391MOL0     H52733  10.515   4.781   2.677  0.2346 -3.1549 -1.0219
  391MOL0     H52734  10.342   4.577   2.846  0.5057  1.2492  0.8957
  391MOL0     H52735  10.404   4.569   2.679  0.8535 -0.9960  0.6821
  391MOL0     H52736  10.701   4.566   2.682  0.0392 -1.5817 -0.7313
  391MOL0     H52737  10.901   4.438   2.726  0.4814 -2.7602 -1.2074
  391MOL0     H52738  10.949   4.416   2.899 -0.7660 -0.8784 -0.0324
  391MOL0     H52739  10.808   4.214   2.901 -1.6569 -0.2690 -0.4630
  391MOL0     H52740  10.756   4.242   2.739 -0.4859  0.3679  0.7851
  391MOL0     H52741  11.055   4.221   2.800  0.5085  0.8952  0.7398
  391MOL0     H52742  10.975   4.196   2.648 -1.6053 -1.5687  1.1038
  391MOL0     H52743  10.844   3.985   2.760  0.5842 -2.0577 -2.6321
  391MOL0     H52744  10.969   4.011   2.881 -1.9299  1.5435  0.5118
  391MOL0     H52745  10.915   3.782   2.864  1.0051  0.3601 -0.1492
  391MOL0     H52746  10.951   3.541   2.895  2.2685  0.8037  1.7122
  391MOL0     H52747  10.920   3.122   2.794 -2.0656 -2.6453  3.1750
  391MOL0     H52748  10.997   2.879   2.796  1.5735 -1.5953  0.7120
  391MOL0     H52749  11.379   2.776   2.952 -0.9622  0.3523 -0.7066
  391MOL0     H52750  11.310   2.612   2.918 -2.1025 -0.2707 -1.0310
  391MOL0     H52751  11.346   2.832   2.709 -0.6555 -0.3915 -1.6101
  391MOL0     H52752  11.465   2.707   2.744 -0.0758 -2.2083 -3.0204
  391MOL0     H52753  11.266   2.541   2.690 -0.0039 -0.0254 -0.2700
  391MOL0     H52754  11.175   2.685   2.641 -0.1670  0.6095 -1.4271
  391MOL0     H52755  11.363   2.721   2.474 -1.4619  1.9787  2.5392
  391MOL0     H52756  11.268   2.583   2.448 -1.1662  1.4254  1.7647
  391MOL0     H52757  11.475   2.461   2.567 -1.4779  0.2102  0.3778
  391MOL0     H52758  11.555   2.616   2.537 -1.7170  1.0234  1.6967
  391MOL0     H52759  11.424   2.460   2.316  1.1836 -0.7713  0.9222
  391MOL0     H52760  11.521   2.601   2.301 -1.8671 -0.1098  1.4092
  391MOL0     H52761  11.613   2.315   2.396 -0.0523 -0.8282 -2.5787
  391MOL0     H52762  11.719   2.459   2.401 -2.4755  1.9012  3.6166
  391MOL0     H52763  11.556   2.345   2.181 -0.6638  0.1801  3.3534
  391MOL0     H52764  11.689   2.465   2.153  1.0168 -0.3549  0.4197
  391MOL0     H52765  11.345   2.978   3.007 -0.5442 -1.3866  1.6108
  391MOL0     H52766  11.309   3.216   2.976 -0.1515  2.2857 -0.4888
  391MOL0     H52767  11.249   3.549   2.582  2.7386 -2.0408  3.3366
  391MOL0     H52768  11.195   3.791   2.548 -1.8748  2.5906  0.3311
  391MOL0     H52769   9.949   5.191   2.319  1.1649  1.7432 -0.9429
  391MOL0     H52770   9.907   5.426   2.315  1.5825 -2.5304  0.1039
  391MOL0     H52771   9.525   5.789   2.259 -0.3642  0.0017 -1.5908
  391MOL0     H52772   9.554   6.010   2.265 -2.7355 -3.4391  1.3563
  391MOL0     H52773   9.537   6.215   2.216  0.5292 -1.3451  0.3559
  391MOL0     H52774   9.613   6.357   2.133  0.4072  0.1132 -0.6796
  391MOL0     H52775   9.772   6.204   2.347 -4.1550  0.3655  2.0201
  391MOL0     H52776   9.692   6.353   2.371 -1.3677 -2.5596  1.4656
  391MOL0     H52777   9.872   6.339   2.127 -3.2674  2.3155 -1.1916
  391MOL0     H52778   9.950   6.310   2.282 -1.7780 -0.4591  1.9834
  391MOL0     H52779   9.762   6.548   2.217 -0.4627 -0.8054  2.0147
  391MOL0     H52780   9.858   6.532   2.359  1.5735  1.5663 -0.2887
  391MOL0     H52781  10.095   6.704   2.054 -0.2916  2.3806  0.4189
  391MOL0     H52782   9.799   6.019   1.905  3.8810  0.3191  2.1017
  391MOL0     H52783   9.906   5.812   1.828  0.7517 -2.9230 -0.2702
  391MOL0     H52784   9.862   5.664   1.907  5.7353  2.0972  1.2318
  391MOL0     H52785   9.756   5.755   1.796  1.7890 -1.6349 -2.1382
  392MOL0     O52786   1.709   6.131  10.719  0.3569  0.0417 -0.5915
  392MOL0     C52787   1.701   6.231  10.653  0.1915 -0.1096 -0.6165
  392MOL0     O52788   1.602   6.325  10.658  0.1637 -1.2988 -0.0795
  392MOL0     C52789   1.481   6.286  10.702 -0.3973 -0.4079  0.0970
  392MOL0     C52790   1.414   6.373  10.789 -0.7167  0.4188 -0.6347
  392MOL0     C52791   1.278   6.371  10.810 -0.9052 -0.0400 -0.3682
  392MOL0     C52792   1.205   6.282  10.741 -0.2770  0.5236  0.2369
  392MOL0     O52793   1.065   6.279  10.755 -0.0160  0.6357  0.9968
  392MOL0     C52794   1.018   6.274  10.885  0.6482  0.2718 -0.6247
  392MOL0     C52795   0.864   6.300  10.883 -0.3434  0.1238 -0.4502
  392MOL0     C52796   0.838   6.451  10.876  0.2921  1.3846 -0.3462
  392MOL0     C52797   0.857   6.530  11.013 -0.4803 -0.2851  0.8985
  392MOL0     C52798   0.770   6.652  11.035  0.0603 -0.7658  0.3897
  392MOL0     C52799   0.814   6.771  10.941  0.7195 -0.4644  0.0364
  392MOL0     C52800   0.704   6.872  10.948  0.9160 -0.1579  0.1182
  392MOL0     C52801   0.748   7.005  10.896  0.9920 -0.2907  1.5852
  392MOL0     N52802   0.641   7.101  10.889  0.4384  0.4565  0.5422
  392MOL0     C52803   0.601   7.181  10.992 -0.2416 -0.0794 -0.3825
  392MOL0     C52804   0.515   7.268  10.941 -0.0392  0.3701 -0.0535
  392MOL0     C52805   0.425   7.363  11.013  0.5731  1.3285 -0.6475
  392MOL0     C52806   0.495   7.423  11.133 -0.4364 -0.5641 -0.8649
  392MOL0     C52807   0.436   7.557  11.184  0.2207 -0.0947 -0.3160
  392MOL0     C52808   0.513   7.605  11.309 -0.5565  0.9476  0.7790
  392MOL0     O52809   0.467   7.727  11.365 -0.3490 -0.8350 -0.4781
  392MOL0     C52810   0.487   7.850  11.300  0.3163  0.4422  0.5521
  392MOL0     C52811   0.568   7.870  11.188 -0.6679  0.1555  0.5116
  392MOL0     C52812   0.568   7.989  11.114  1.2289  0.0421 -0.8500
  392MOL0     C52813   0.484   8.095  11.161  0.0497 -0.2125  0.3118
  392MOL0     C52814   0.484   8.213  11.100 -0.1894 -1.7489  0.3959
  392MOL0     O52815   0.518   8.206  10.971  0.0372  0.3285  0.1057
  392MOL0     C52816   0.527   8.314  10.893  0.0815 -0.3608  0.7503
  392MOL0     C52817   0.423   8.340  10.801  0.8102 -0.1336  0.4627
  392MOL0     C52818   0.419   8.466  10.738 -0.4171 -0.0710  0.7978
  392MOL0     C52819   0.517   8.561  10.754 -0.9998 -0.1878 -0.7765
  392MOL0     O52820   0.513   8.683  10.690  0.1123 -0.2585 -0.2916
  392MOL0     C52821   0.418   8.709  10.577 -0.7603 -0.1299 -0.1001
  392MOL0     C52822   0.463   8.838  10.519  0.0311 -0.2328  0.1377
  392MOL0     C52823   0.594   8.831  10.436  0.3612 -0.3918  0.4326
  392MOL0     C52824   0.633   8.965  10.381 -0.0312 -0.5563  0.8998
  392MOL0     C52825   0.767   8.967  10.304  0.8630 -0.4094  0.4044
  392MOL0     C52826   0.896   8.974  10.391 -0.0602 -0.7805  0.1489
  392MOL0     C52827   1.018   9.022  10.328 -1.0499  0.2103  0.0645
  392MOL0     C52828   1.027   9.170  10.333 -0.4404  0.0968  0.2953
  392MOL0    Cl52829   1.122   9.181  10.489  0.2201 -0.7721 -0.0883
  392MOL0     C52830   0.620   8.528  10.843  0.7102 -0.5535  0.0148
  392MOL0     C52831   0.633   8.410  10.901  0.6360  0.1557 -0.4750
  392MOL0     O52832   0.439   8.318  11.157 -0.4536 -0.1074  0.5552
  392MOL0     C52833   0.396   8.069  11.272  0.5473  1.1950  0.3183
  392MOL0     C52834   0.403   7.950  11.337 -0.2787  0.3092  0.2357
  392MOL0     N52835   0.505   7.236  10.806  1.0263  0.2061  0.1354
  392MOL0     N52836   0.562   7.127  10.777  0.1750  0.1937 -0.4491
  392MOL0     C52837   1.266   6.182  10.664  0.7831 -0.2596  0.4698
  392MOL0     C52838   1.402   6.193  10.637 -0.5216  0.3303 -0.2923
  392MOL0     C52839   1.810   6.267  10.561  0.4322  0.3193  0.7989
  392MOL0     C52840   1.777   6.371  10.475  0.6647  0.7117 -1.2968
  392MOL0     C52841   1.857   6.381  10.358 -0.0039 -0.0840  0.6953
  392MOL0     C52842   1.972   6.306  10.340  1.1414 -0.6396 -0.0550
  392MOL0     O52843   2.043   6.318  10.225  0.1341 -0.2512  0.6507
  392MOL0     C52844   2.087   6.191  10.162  0.0431  0.0522  0.1859
  392MOL0     C52845   1.981   6.157  10.054  1.5048  0.2795 -0.0831
  392MOL0     C52846   1.981   6.247   9.929 -0.0364 -0.0087 -0.7285
  392MOL0     C52847   1.909   6.388   9.946 -0.8126 -0.2506 -0.2867
  392MOL0     C52848   1.914   6.461   9.817 -0.6699 -0.2685  0.5254
  392MOL0     C52849   1.932   6.507   9.703 -0.4537 -0.6785  0.1094
  392MOL0     C52850   2.009   6.219  10.439  0.6572 -0.3021 -0.3161
  392MOL0     C52851   1.926   6.187  10.544 -0.2136 -0.4514 -0.2237
  392MOL0     C52852   1.964   6.065  10.625 -0.6037 -0.2220  0.2362
  392MOL0     H52853   1.468   6.455  10.835  2.1720 -0.0495 -2.8794
  392MOL0     H52854   1.223   6.448  10.862  1.6275  0.5933  1.6205
  392MOL0     H52855   1.024   6.171  10.921  1.3895 -0.1268 -1.8203
  392MOL0     H52856   1.063   6.351  10.948 -1.3412  2.1471 -1.3657
  392MOL0     H52857   0.824   6.270  10.981 -0.5040  1.1439 -0.1925
  392MOL0     H52858   0.817   6.240  10.805  0.5907 -1.8871  0.4570
  392MOL0     H52859   0.734   6.450  10.843  1.1437  1.1371 -3.3296
  392MOL0     H52860   0.913   6.486  10.804  1.5701 -3.0307 -1.4619
  392MOL0     H52861   0.841   6.455  11.092 -0.0899 -2.4722 -0.9932
  392MOL0     H52862   0.959   6.568  11.010 -0.4328 -0.4702 -1.2501
  392MOL0     H52863   0.663   6.627  11.029  0.2579 -1.8068  0.8591
  392MOL0     H52864   0.789   6.687  11.137 -2.8075  1.6193  0.2292
  392MOL0     H52865   0.910   6.818  10.961 -0.1185  1.5678 -0.4879
  392MOL0     H52866   0.825   6.733  10.839  1.8378 -1.8919  0.6454
  392MOL0     H52867   0.674   6.871  11.053 -0.5183 -0.4158 -0.2730
  392MOL0     H52868   0.614   6.831  10.901 -1.9347  1.0013  4.0595
  392MOL0     H52869   0.833   7.039  10.956  1.7285 -1.6068  1.3346
  392MOL0     H52870   0.788   6.993  10.794 -0.1506  0.3931  1.0326
  392MOL0     H52871   0.642   7.194  11.091  0.2184  3.0221 -0.8850
  392MOL0     H52872   0.393   7.444  10.947 -0.5021 -0.6873 -2.7397
  392MOL0     H52873   0.332   7.320  11.051 -0.7983  2.5903 -2.3786
  392MOL0     H52874   0.500   7.350  11.214 -2.0269  1.3265  1.0661
  392MOL0     H52875   0.594   7.444  11.091 -0.9147 -1.5993 -2.6278
  392MOL0     H52876   0.328   7.553  11.205  0.1379  1.3004 -0.3715
  392MOL0     H52877   0.445   7.635  11.109 -0.7867 -2.6807 -3.3380
  392MOL0     H52878   0.620   7.604  11.285 -0.5183  2.3622  0.8024
  392MOL0     H52879   0.500   7.528  11.386 -0.9280 -0.5555 -0.7270
  392MOL0     H52880   0.634   7.790  11.154  1.2512  1.1383  1.7431
  392MOL0     H52881   0.638   7.986  11.032  0.6020 -1.5045 -1.3592
  392MOL0     H52882   0.343   8.273  10.773  0.5996  0.9110 -1.7325
  392MOL0     H52883   0.339   8.494  10.670  2.3566  2.6926 -1.6766
  392MOL0     H52884   0.414   8.631  10.500  2.9945  1.4988 -2.2384
  392MOL0     H52885   0.318   8.724  10.617 -0.7514  0.8621 -0.4116
  392MOL0     H52886   0.380   8.872  10.456 -0.5283  2.4181  2.1530
  392MOL0     H52887   0.471   8.919  10.592  0.5847  0.4113 -0.6126
  392MOL0     H52888   0.672   8.780  10.492  2.5026 -2.2621 -3.8118
  392MOL0     H52889   0.581   8.763  10.351  1.0014 -0.7097  0.5902
  392MOL0     H52890   0.631   9.044  10.456  0.8945  2.0364 -1.6396
  392MOL0     H52891   0.557   8.993  10.307  1.9036 -0.7346 -1.2562
  392MOL0     H52892   0.770   9.056  10.240 -0.1256 -1.6759 -1.5274
  392MOL0     H52893   0.776   8.880  10.238 -2.6843  0.3352 -1.3363
  392MOL0     H52894   0.868   9.043  10.472  1.8760 -0.7587  0.8517
  392MOL0     H52895   0.909   8.886  10.455  0.3961 -1.8324 -1.3622
  392MOL0     H52896   1.018   9.004  10.220  0.4545  0.9114 -0.0758
  392MOL0     H52897   1.110   8.976  10.364 -0.0083  0.0517 -2.6147
  392MOL0     H52898   1.085   9.221  10.255  1.1428 -0.8365  0.8263
  392MOL0     H52899   0.929   9.218  10.333 -1.1352 -1.0305  3.7651
  392MOL0     H52900   0.703   8.597  10.858  0.6030 -0.6324  1.0255
  392MOL0     H52901   0.713   8.394  10.973  0.1289  1.6130  0.4684
  392MOL0     H52902   0.323   8.134  11.320 -3.8424 -2.4135 -0.8203
  392MOL0     H52903   0.335   7.942  11.421  0.7466 -1.3384  0.9494
  392MOL0     H52904   1.202   6.114  10.610 -1.5170  1.2919  1.1237
  392MOL0     H52905   1.434   6.130  10.554  0.4928  0.8735 -0.3285
  392MOL0     H52906   1.705   6.450  10.490  3.4951  3.4888 -1.1245
  392MOL0     H52907   1.826   6.451  10.282  1.8570  0.5872  0.4982
  392MOL0     H52908   2.092   6.101  10.224  1.6811 -0.2259 -0.2899
  392MOL0     H52909   2.183   6.198  10.109  0.5369 -2.1928  0.6929
  392MOL0     H52910   1.881   6.161  10.098  2.1874 -2.3926  1.9997
  392MOL0     H52911   1.987   6.050  10.032 -3.0011 -0.5868  1.6335
  392MOL0     H52912   1.922   6.198   9.852 -0.5563 -1.8400  0.7580
  392MOL0     H52913   2.086   6.248   9.899  0.2542  0.9569  0.2614
  392MOL0     H52914   1.808   6.358   9.975 -1.5543 -1.8129 -3.9252
  392MOL0     H52915   1.959   6.452  10.019 -0.0131  0.3858 -1.3690
  392MOL0     H52916   1.952   6.564   9.615  0.9783 -0.0763  0.7977
  392MOL0     H52917   2.109   6.178  10.449  1.3256  1.6362  2.0970
  392MOL0     H52918   2.041   6.017  10.565 -1.8272 -0.5590 -1.1311
  392MOL0     H52919   1.999   6.088  10.726  4.5280 -2.3771 -0.7761
  392MOL0     H52920   1.880   5.997  10.642 -1.5537  0.4029 -1.6641
  393MOL0     O52921   7.240   6.221   9.194 -0.2810 -0.0712 -0.1965
  393MOL0     C52922   7.290   6.324   9.153  0.0047 -1.1966 -0.1641
  393MOL0     O52923   7.218   6.443   9.138  0.2864  0.6801 -0.6116
  393MOL0     C52924   7.083   6.461   9.174 -0.7398 -0.1931 -0.1701
  393MOL0     C52925   7.029   6.396   9.291 -0.2887 -0.1627 -0.6102
  393MOL0     C52926   6.898   6.416   9.332  0.0792 -0.0370  0.3875
  393MOL0     C52927   6.820   6.514   9.263  0.1381  0.9771 -0.6861
  393MOL0     O52928   6.697   6.551   9.322  0.2338 -0.4045 -0.4729
  393MOL0     C52929   6.600   6.595   9.227  0.6797 -0.9204  0.3799
  393MOL0     C52930   6.459   6.593   9.272  0.0208  0.3554 -0.5190
  393MOL0     C52931   6.399   6.446   9.320 -0.4411 -0.6276 -0.1076
  393MOL0     C52932   6.287   6.465   9.427  0.1405 -0.2998  0.2425
  393MOL0     C52933   6.241   6.330   9.474 -0.3598  0.4330  0.4018
  393MOL0     C52934   6.181   6.345   9.622 -0.0780 -0.6304  0.2488
  393MOL0     C52935   6.132   6.221   9.696  0.4905  0.5778  0.1746
  393MOL0     C52936   6.103   6.255   9.841  0.0487  0.5348 -0.2221
  393MOL0     N52937   6.014   6.367   9.859 -0.0524 -0.7152 -0.0493
  393MOL0     C52938   5.883   6.362   9.821  0.1946  0.1435  0.4310
  393MOL0     C52939   5.815   6.466   9.885 -0.1086 -0.2349 -0.1711
  393MOL0     C52940   5.671   6.502   9.840 -0.5907 -0.1686  0.3070
  393MOL0     C52941   5.665   6.649   9.768  0.4071  1.0854 -0.9857
  393MOL0     C52942   5.782   6.684   9.675 -0.2218 -0.0111  0.7924
  393MOL0     C52943   5.791   6.590   9.560  1.2767 -0.3281  0.2913
  393MOL0     O52944   5.914   6.600   9.483  0.2901  0.4574  0.4658
  393MOL0     C52945   5.897   6.563   9.351  0.5994  0.1596  0.6463
  393MOL0     C52946   5.887   6.668   9.255 -0.6726  1.1148  0.9212
  393MOL0     C52947   5.877   6.649   9.117  0.2331 -0.4670 -1.2814
  393MOL0     C52948   5.852   6.518   9.078  0.0642 -0.0209  0.8099
  393MOL0     C52949   5.822   6.490   8.931  0.2272 -0.0128  0.0779
  393MOL0     O52950   5.812   6.588   8.837 -0.1524  0.4117 -0.2590
  393MOL0     C52951   5.755   6.556   8.712 -1.0090 -0.1505  0.4475
  393MOL0     C52952   5.625   6.602   8.683  0.4598  0.1492 -0.7701
  393MOL0     C52953   5.561   6.560   8.566 -0.3550  0.2922  1.0464
  393MOL0     C52954   5.617   6.471   8.479  0.1465 -0.4963  0.2091
  393MOL0     O52955   5.553   6.427   8.375 -1.5820 -0.1546  0.4151
  393MOL0     C52956   5.562   6.285   8.338  0.4421 -0.3098 -0.1961
  393MOL0     C52957   5.676   6.244   8.249 -0.2640 -0.5582  0.3132
  393MOL0     C52958   5.731   6.109   8.284  0.3455 -0.2024 -0.3530
  393MOL0     C52959   5.808   6.099   8.412  0.5953 -1.2120 -0.4376
  393MOL0     C52960   5.856   5.949   8.413 -0.1206 -0.5853 -0.4077
  393MOL0     C52961   5.990   5.926   8.341  0.6322 -0.9455  0.4654
  393MOL0     C52962   6.045   5.784   8.328  0.1883  0.9921 -0.6462
  393MOL0     C52963   6.088   5.721   8.465  0.7311  0.3837  0.2692
  393MOL0    Cl52964   6.185   5.832   8.563  0.1400  0.1699 -0.6998
  393MOL0     C52965   5.750   6.430   8.513  0.0892 -0.3736 -0.2905
  393MOL0     C52966   5.824   6.481   8.617  0.4302 -0.5462  0.3202
  393MOL0     O52967   5.802   6.371   8.909  0.0790 -0.3260 -0.0781
  393MOL0     C52968   5.851   6.419   9.173 -0.1982  0.1235 -0.5794
  393MOL0     C52969   5.872   6.437   9.311 -0.5543  0.0791 -0.3561
  393MOL0     N52970   5.913   6.541   9.962  0.4791  0.7696  0.0564
  393MOL0     N52971   6.018   6.472   9.950 -1.2293  0.1302  0.3054
  393MOL0     C52972   6.872   6.573   9.145  0.1337  0.6170 -0.2033
  393MOL0     C52973   7.006   6.552   9.110  0.1501  0.0713  0.1161
  393MOL0     C52974   7.438   6.341   9.146  0.1899 -1.1084 -0.0298
  393MOL0     C52975   7.499   6.463   9.131 -0.0677 -0.4212  0.8745
  393MOL0     C52976   7.634   6.482   9.134  0.2181 -1.0882 -0.2196
  393MOL0     C52977   7.723   6.378   9.156  0.5699 -0.9196  0.8275
  393MOL0     O52978   7.857   6.395   9.153  0.7695  0.6406  0.5993
  393MOL0     C52979   7.910   6.521   9.185 -0.3710  0.7983  0.2615
  393MOL0     C52980   8.065   6.513   9.206 -0.2912 -0.4106 -0.2215
  393MOL0     C52981   8.156   6.494   9.087  1.0015  1.1087 -1.0270
  393MOL0     C52982   8.127   6.366   9.002 -0.9086 -0.4877 -1.1849
  393MOL0     C52983   8.218   6.374   8.882 -0.8935  0.0762  0.5670
  393MOL0     C52984   8.298   6.353   8.790 -0.6720 -0.5523  0.0128
  393MOL0     C52985   7.665   6.256   9.164  0.1308  0.4642  0.4550
  393MOL0     C52986   7.529   6.236   9.160 -0.7966 -0.8372 -0.2028
  393MOL0     C52987   7.488   6.092   9.174 -0.1586  0.6986 -0.5830
  393MOL0     H52988   7.096   6.327   9.341  0.3319  1.4018  0.8323
  393MOL0     H52989   6.857   6.379   9.425 -0.4716  1.4923  0.7711
  393MOL0     H52990   6.632   6.694   9.194  0.2388 -0.3796  1.5455
  393MOL0     H52991   6.592   6.529   9.140  2.9133  0.5683 -1.0636
  393MOL0     H52992   6.394   6.636   9.196 -2.4255 -0.2955  1.0941
  393MOL0     H52993   6.449   6.660   9.358  3.6421 -1.8337  1.8756
  393MOL0     H52994   6.477   6.381   9.361 -2.1048 -3.9449 -1.7648
  393MOL0     H52995   6.364   6.389   9.233 -1.7343  3.1853 -2.3229
  393MOL0     H52996   6.323   6.528   9.509  1.1882 -0.8509  0.2208
  393MOL0     H52997   6.210   6.518   9.370 -0.2542 -0.6020  0.4995
  393MOL0     H52998   6.169   6.289   9.402 -0.0883  0.0458  0.3462
  393MOL0     H52999   6.316   6.251   9.483 -1.6112 -0.7066  1.1852
  393MOL0     H53000   6.260   6.394   9.679 -0.4903 -1.3334  1.4646
  393MOL0     H53001   6.096   6.414   9.617  0.2257 -0.3569 -1.9240
  393MOL0     H53002   6.211   6.145   9.691  0.7084  0.6086  2.1940
  393MOL0     H53003   6.045   6.176   9.648  2.8990 -2.9239 -1.2776
  393MOL0     H53004   6.069   6.162   9.888 -1.2878  1.4150  0.6331
  393MOL0     H53005   6.199   6.274   9.889 -1.0622  2.7052  1.3548
  393MOL0     H53006   5.827   6.292   9.760 -2.0046  1.0855  1.2791
  393MOL0     H53007   5.628   6.421   9.780  0.1552 -1.8078  1.9105
  393MOL0     H53008   5.607   6.503   9.929  0.6651  0.5046  1.2298
  393MOL0     H53009   5.567   6.651   9.720 -1.2184  0.2391  2.0256
  393MOL0     H53010   5.653   6.731   9.840 -0.3806  0.1056  0.0335
  393MOL0     H53011   5.877   6.684   9.728  1.0628 -3.3713 -1.1728
  393MOL0     H53012   5.765   6.787   9.640  1.4552  0.2523  0.6811
  393MOL0     H53013   5.710   6.629   9.498 -1.7889  3.0794  5.7006
  393MOL0     H53014   5.771   6.487   9.589  2.7537 -1.1746 -1.4560
  393MOL0     H53015   5.916   6.767   9.290  2.5396  0.6076  0.0097
  393MOL0     H53016   5.880   6.733   9.049 -0.9925  0.9636  0.3466
  393MOL0     H53017   5.582   6.682   8.741 -0.1841 -0.7759  0.0627
  393MOL0     H53018   5.473   6.618   8.543 -0.5043  1.0720  3.3770
  393MOL0     H53019   5.567   6.225   8.429 -1.0914  0.1516  0.2174
  393MOL0     H53020   5.473   6.255   8.282  0.7175  0.4670 -1.0922
  393MOL0     H53021   5.652   6.254   8.143  3.4336  0.3708 -0.5602
  393MOL0     H53022   5.758   6.314   8.267 -4.2171  4.5113  1.0360
  393MOL0     H53023   5.643   6.044   8.285 -2.1030  2.8548  1.2459
  393MOL0     H53024   5.793   6.089   8.196 -0.2819  4.3327 -2.0675
  393MOL0     H53025   5.749   6.123   8.501  2.4106 -1.2236  0.8257
  393MOL0     H53026   5.900   6.159   8.411  0.8759 -1.6358 -0.9096
  393MOL0     H53027   5.783   5.881   8.368 -1.6030  0.8119 -0.2396
  393MOL0     H53028   5.860   5.924   8.519  0.1695  0.4743 -0.1576
  393MOL0     H53029   5.962   5.942   8.236  2.2100  0.9137  0.2727
  393MOL0     H53030   6.068   5.992   8.380  0.9908 -1.8630  1.3496
  393MOL0     H53031   6.134   5.792   8.265 -0.7311  1.8291 -1.8877
  393MOL0     H53032   5.980   5.715   8.273  0.6986  0.5543 -0.7106
  393MOL0     H53033   5.998   5.699   8.525 -0.7556  1.6928 -1.3679
  393MOL0     H53034   6.132   5.622   8.454 -0.5171  0.0414 -2.1879
  393MOL0     H53035   5.801   6.369   8.439  2.3767  0.6012  0.3941
  393MOL0     H53036   5.926   6.456   8.641  0.7334  2.5028  2.8492
  393MOL0     H53037   5.832   6.316   9.143  0.9360 -0.5762  0.9735
  393MOL0     H53038   5.869   6.364   9.391 -0.5222  1.8351  1.3081
  393MOL0     H53039   6.811   6.642   9.088 -3.7545 -1.6791  0.7462
  393MOL0     H53040   7.045   6.597   9.019  1.4120  0.8280  1.0074
  393MOL0     H53041   7.435   6.550   9.121 -1.2018 -0.8672  3.2802
  393MOL0     H53042   7.668   6.585   9.136  0.8457 -1.2869 -0.3878
  393MOL0     H53043   7.868   6.558   9.279 -0.7586 -0.5699  0.6370
  393MOL0     H53044   7.890   6.578   9.093 -6.3575 -1.9887 -0.6423
  393MOL0     H53045   8.098   6.442   9.283  0.1562  0.7872  0.7198
  393MOL0     H53046   8.082   6.617   9.235 -1.6798 -0.3020  0.2582
  393MOL0     H53047   8.256   6.498   9.130  0.3908  2.0818  0.3852
  393MOL0     H53048   8.154   6.574   9.011 -0.7654 -0.8441 -3.2011
  393MOL0     H53049   8.139   6.274   9.059 -0.8504 -0.5755 -1.3380
  393MOL0     H53050   8.028   6.372   8.956 -0.6627  1.4656 -1.5618
  393MOL0     H53051   8.368   6.334   8.712  0.6835  0.8308  0.8356
  393MOL0     H53052   7.732   6.174   9.190 -1.6889 -1.3300 -0.2052
  393MOL0     H53053   7.455   6.100   9.278  1.0104  2.5691 -0.3242
  393MOL0     H53054   7.399   6.074   9.113 -1.5684  2.2538  0.8940
  393MOL0     H53055   7.560   6.011   9.159 -1.5807 -0.8720  0.6483
  394MOL0     O53056   4.805   2.847   9.100 -0.4056 -0.9142  0.4429
  394MOL0     C53057   4.807   2.890   8.977  0.6578  0.7048 -0.9440
  394MOL0     O53058   4.744   3.004   8.919  0.5155 -0.4027 -0.1069
  394MOL0     C53059   4.649   3.071   8.996  0.7619 -0.5595  0.8112
  394MOL0     C53060   4.654   3.103   9.127 -0.4892  0.1290 -0.7666
  394MOL0     C53061   4.553   3.176   9.181  0.4279 -0.0779  0.3681
  394MOL0     C53062   4.436   3.225   9.102  0.0708  0.5256  0.4514
  394MOL0     O53063   4.340   3.303   9.166  0.0350  0.8493 -0.4223
  394MOL0     C53064   4.204   3.238   9.178  0.4555 -0.0141  0.1225
  394MOL0     C53065   4.095   3.351   9.163 -0.4159  0.9436  0.4491
  394MOL0     C53066   3.958   3.292   9.191  0.3669  0.2261  0.6474
  394MOL0     C53067   3.894   3.250   9.057 -0.3002 -0.5832  0.3729
  394MOL0     C53068   3.744   3.267   9.059 -0.1801  0.4566  0.5446
  394MOL0     C53069   3.705   3.401   8.998  0.6327 -0.5963  0.0732
  394MOL0     C53070   3.558   3.404   8.945  0.5994 -0.2316 -0.5272
  394MOL0     C53071   3.539   3.543   8.879 -0.5510 -0.1574 -1.2130
  394MOL0     N53072   3.532   3.649   8.982  0.1124 -0.1514 -0.2195
  394MOL0     C53073   3.441   3.647   9.089  0.6552 -0.3411 -0.1650
  394MOL0     C53074   3.477   3.739   9.185 -0.1039  0.1215  0.0902
  394MOL0     C53075   3.410   3.748   9.323 -0.0241  0.1820  0.5757
  394MOL0     C53076   3.410   3.895   9.381 -0.1452 -0.7531  0.2612
  394MOL0     C53077   3.312   3.897   9.507 -0.2514  0.2078 -0.4446
  394MOL0     C53078   3.302   4.038   9.557 -0.1097 -0.2477  0.2609
  394MOL0     O53079   3.218   4.036   9.675 -0.3787  0.2268  0.1161
  394MOL0     C53080   3.179   4.158   9.723 -0.0779  0.2047  0.1537
  394MOL0     C53081   3.274   4.252   9.756 -0.6360  0.4007  0.7886
  394MOL0     C53082   3.233   4.382   9.790  0.5085 -0.3167  0.2620
  394MOL0     C53083   3.094   4.426   9.772  0.4020  0.8321 -0.3089
  394MOL0     C53084   3.054   4.558   9.803 -0.1593 -0.2632 -0.2035
  394MOL0     O53085   3.142   4.636   9.882 -0.5603  0.3286  0.4051
  394MOL0     C53086   3.103   4.763   9.913  0.8594  0.3118  0.1981
  394MOL0     C53087   3.007   4.792  10.015  0.2455  1.9983  0.1666
  394MOL0     C53088   2.992   4.927  10.054  0.3942  0.2603  1.2397
  394MOL0     C53089   3.064   5.030   9.986  1.2109 -0.0570 -0.3483
  394MOL0     O53090   3.041   5.166  10.002 -0.2163 -0.5717  0.3021
  394MOL0     C53091   2.905   5.198   9.995 -0.3148  0.7015  0.0999
  394MOL0     C53092   2.907   5.351   9.986  0.4498  0.0473 -0.2644
  394MOL0     C53093   2.763   5.389   9.937 -0.6110  0.4977 -0.5151
  394MOL0     C53094   2.759   5.531   9.880 -0.1553 -0.6062 -0.1106
  394MOL0     C53095   2.815   5.550   9.739 -0.8150 -0.9475  0.8060
  394MOL0     C53096   2.756   5.673   9.668 -0.1964  0.4192 -0.2872
  394MOL0     C53097   2.771   5.660   9.514 -0.5486 -0.2236  0.3189
  394MOL0     C53098   2.668   5.705   9.411 -0.8176 -0.2399  0.4889
  394MOL0    Cl53099   2.650   5.881   9.399 -0.2087 -0.0306  0.0785
  394MOL0     C53100   3.157   4.992   9.881  0.8041 -1.0118  0.2845
  394MOL0     C53101   3.180   4.858   9.849 -0.3464  0.0070 -1.2213
  394MOL0     O53102   2.944   4.591   9.771  0.1463 -0.4399  0.1667
  394MOL0     C53103   3.001   4.322   9.744 -0.9283  0.3267 -0.2679
  394MOL0     C53104   3.042   4.192   9.708  0.6263  0.4264 -0.4105
  394MOL0     N53105   3.592   3.805   9.126 -0.4183  0.6104  0.0753
  394MOL0     N53106   3.617   3.754   9.004 -0.7259 -0.4133 -0.1581
  394MOL0     C53107   4.429   3.192   8.974  0.4040  0.1279  0.2510
  394MOL0     C53108   4.530   3.109   8.925 -0.7335 -0.4621  0.6752
  394MOL0     C53109   4.882   2.809   8.879 -0.9030  0.4882  0.4042
  394MOL0     C53110   4.834   2.802   8.741 -0.3137  0.1048  0.5550
  394MOL0     C53111   4.886   2.718   8.647  0.2027  0.2133  0.6336
  394MOL0     C53112   5.002   2.648   8.679 -0.0129  0.7639 -0.4432
  394MOL0     O53113   5.055   2.564   8.587 -0.1848 -0.2602  0.4392
  394MOL0     C53114   5.021   2.423   8.598 -0.6360 -0.5003  1.1367
  394MOL0     C53115   5.036   2.330   8.483 -0.4345  0.5482  0.2998
  394MOL0     C53116   4.930   2.209   8.482  0.8773 -0.7063 -0.6683
  394MOL0     C53117   4.982   2.094   8.399 -0.5395  0.1324  0.2575
  394MOL0     C53118   5.009   2.125   8.254 -0.4498 -0.2071  0.4427
  394MOL0     C53119   5.045   2.152   8.131  0.2632  0.2448 -0.7261
  394MOL0     C53120   5.062   2.666   8.801  0.4890  0.0501  0.5166
  394MOL0     C53121   5.010   2.747   8.900 -0.4075 -0.0420 -0.0552
  394MOL0     C53122   5.072   2.750   9.038  0.0954  0.2315 -1.2809
  394MOL0     H53123   4.722   3.053   9.195  0.8439 -1.1039 -2.9191
  394MOL0     H53124   4.563   3.191   9.288 -1.6166  2.0527  0.3395
  394MOL0     H53125   4.197   3.166   9.096 -0.4877  0.2005  0.0105
  394MOL0     H53126   4.190   3.185   9.273 -0.7411 -0.5448 -0.3240
  394MOL0     H53127   4.092   3.395   9.063 -1.4636  0.9423  0.4716
  394MOL0     H53128   4.116   3.430   9.235  1.0366  2.4536 -1.5177
  394MOL0     H53129   3.905   3.366   9.252 -0.4161 -1.6359  2.3151
  394MOL0     H53130   3.964   3.198   9.246  1.1823 -0.2777 -0.2743
  394MOL0     H53131   3.929   3.304   8.968  0.4644  2.0672  2.1520
  394MOL0     H53132   3.918   3.146   9.034 -3.4613 -0.6895 -3.6987
  394MOL0     H53133   3.701   3.179   9.010  0.0389  0.0353  1.1023
  394MOL0     H53134   3.717   3.259   9.165  3.1219  2.6437  1.7142
  394MOL0     H53135   3.718   3.482   9.070  0.9107  0.9287 -1.6116
  394MOL0     H53136   3.774   3.420   8.915  0.1308  0.5737 -0.0967
  394MOL0     H53137   3.478   3.384   9.016  1.1111  3.8890  1.5242
  394MOL0     H53138   3.549   3.322   8.873  1.5397  0.0681 -1.0030
  394MOL0     H53139   3.616   3.562   8.803  1.1437 -1.8503 -0.0043
  394MOL0     H53140   3.440   3.550   8.834 -0.3977  2.8018 -1.3200
  394MOL0     H53141   3.361   3.574   9.095  1.9780 -1.7992  0.5346
  394MOL0     H53142   3.303   3.724   9.319  0.0837 -0.1259 -1.0737
  394MOL0     H53143   3.473   3.684   9.385  1.2600  1.0201  0.1703
  394MOL0     H53144   3.513   3.918   9.409  0.5526 -1.6550 -1.3792
  394MOL0     H53145   3.381   3.974   9.312  0.6433  1.5798  2.4688
  394MOL0     H53146   3.363   3.844   9.588 -0.3344  1.8555  0.7390
  394MOL0     H53147   3.211   3.866   9.479 -1.3347  3.5811 -0.6495
  394MOL0     H53148   3.276   4.106   9.475  3.1135  0.9716  0.0727
  394MOL0     H53149   3.406   4.068   9.575 -0.4339  1.6837 -0.7826
  394MOL0     H53150   3.376   4.218   9.772 -1.1236 -1.1755  0.7720
  394MOL0     H53151   3.309   4.452   9.823 -0.8396  0.8375  1.0409
  394MOL0     H53152   2.941   4.715  10.054  3.8655 -1.2939  0.3349
  394MOL0     H53153   2.923   4.951  10.135 -0.3499 -1.7775  1.2628
  394MOL0     H53154   2.857   5.157   9.906 -2.0329  0.7161  0.9895
  394MOL0     H53155   2.851   5.158  10.081  2.3486 -1.0704  1.0865
  394MOL0     H53156   2.944   5.415  10.067  5.0859  0.6758 -2.5498
  394MOL0     H53157   2.978   5.382   9.908 -3.2366  1.5288 -3.3703
  394MOL0     H53158   2.723   5.313   9.869  1.6137  0.9612 -2.4682
  394MOL0     H53159   2.706   5.399  10.030  0.0018  2.9938 -0.3229
  394MOL0     H53160   2.805   5.605   9.946 -0.8954  2.3405 -2.6867
  394MOL0     H53161   2.651   5.550   9.879  0.2970  2.3852  0.1152
  394MOL0     H53162   2.803   5.458   9.682  0.9437 -0.9532  0.3922
  394MOL0     H53163   2.924   5.561   9.741 -0.7624 -0.3303 -1.7152
  394MOL0     H53164   2.653   5.690   9.700  0.6942  1.3489  2.3961
  394MOL0     H53165   2.809   5.758   9.712  0.6121  1.0231 -2.3510
  394MOL0     H53166   2.774   5.555   9.486  0.9633 -0.5118  1.4520
  394MOL0     H53167   2.872   5.693   9.487 -0.0407 -1.1435  1.0492
  394MOL0     H53168   2.698   5.665   9.314 -2.0987  2.2277 -1.0213
  394MOL0     H53169   2.567   5.668   9.432 -0.5495 -2.0970 -1.2194
  394MOL0     H53170   3.204   5.077   9.832 -2.0089  1.5213  1.7082
  394MOL0     H53171   3.259   4.833   9.778 -0.5792  1.7002 -2.1341
  394MOL0     H53172   2.896   4.348   9.746 -0.1176  4.0415  0.4515
  394MOL0     H53173   2.963   4.128   9.673  2.0468 -0.3712 -2.2796
  394MOL0     H53174   4.340   3.235   8.929 -1.1079  0.2628  3.1620
  394MOL0     H53175   4.525   3.085   8.819 -2.8509 -0.1663  0.6685
  394MOL0     H53176   4.744   2.857   8.716  0.2949  0.1020 -1.8004
  394MOL0     H53177   4.830   2.704   8.555  1.2232  1.4720 -0.2077
  394MOL0     H53178   4.915   2.421   8.623 -1.2031 -1.6985 -1.1830
  394MOL0     H53179   5.069   2.383   8.688 -1.0059  0.8848  1.9795
  394MOL0     H53180   5.137   2.291   8.495 -1.2438 -1.4172  1.3530
  394MOL0     H53181   5.025   2.382   8.388  0.1514 -0.6489 -0.4405
  394MOL0     H53182   4.831   2.236   8.446  1.3837  1.5755 -0.5027
  394MOL0     H53183   4.922   2.178   8.587 -0.1465  0.3864 -0.4034
  394MOL0     H53184   5.075   2.061   8.447 -0.8042 -1.0163  0.0041
  394MOL0     H53185   4.921   2.005   8.417 -1.8392  0.7027 -1.1795
  394MOL0     H53186   5.069   2.165   8.028 -0.0961  0.1636 -0.8192
  394MOL0     H53187   5.144   2.599   8.823 -0.5746 -1.4920 -0.1054
  394MOL0     H53188   5.066   2.848   9.087  0.8156 -1.4173  2.3568
  394MOL0     H53189   5.006   2.687   9.097 -0.3731  0.3563 -1.6625
  394MOL0     H53190   5.175   2.712   9.039 -0.5233 -1.5095  0.4369
  395MOL0     O53191   9.973   0.291   2.368 -0.2002  0.2661 -0.4483
  395MOL0     C53192  10.080   0.351   2.345 -0.2739  1.2915  0.1103
  395MOL0     O53193  10.138   0.358   2.221 -0.4930 -0.6101  0.1456
  395MOL0     C53194  10.076   0.300   2.113 -0.2120 -0.3800 -0.0491
  395MOL0     C53195   9.945   0.299   2.080 -0.2128  1.0818  0.3705
  395MOL0     C53196   9.905   0.232   1.963  0.6835  0.9488 -0.5435
  395MOL0     C53197   9.994   0.156   1.890  0.8993 -0.4127 -0.6057
  395MOL0     O53198   9.952   0.088   1.784 -0.4837  0.7167 -0.7414
  395MOL0     C53199   9.903  -0.049   1.813  0.3525 -0.5187  0.5689
  395MOL0     C53200  10.013  -0.157   1.855 -0.0250 -0.7872 -0.0163
  395MOL0     C53201  10.141  -0.161   1.770  0.0862  0.1514 -0.3330
  395MOL0     C53202  10.245  -0.249   1.852 -0.4194  0.2878  0.1303
  395MOL0     C53203  10.374  -0.286   1.785  0.7016  0.2500 -0.1837
  395MOL0     C53204  10.481  -0.363   1.881 -0.0360  0.2599 -0.6003
  395MOL0     C53205  10.613  -0.396   1.802 -0.4526 -0.6520 -0.2815
  395MOL0     C53206  10.729  -0.475   1.873  0.2702  1.0186 -0.2800
  395MOL0     N53207  10.814  -0.507   1.761  0.2670 -0.7233  0.2854
  395MOL0     C53208  10.800  -0.613   1.679 -0.0037 -0.2657  0.7141
  395MOL0     C53209  10.875  -0.585   1.563  0.5671  0.7653 -0.4024
  395MOL0     C53210  10.891  -0.676   1.444  0.5444 -0.0229 -0.8974
  395MOL0     C53211  10.791  -0.793   1.443 -0.3897 -0.4114  0.1213
  395MOL0     C53212  10.644  -0.747   1.424  0.5315 -1.0100 -0.1370
  395MOL0     C53213  10.538  -0.860   1.426  0.0856  0.9581 -0.3248
  395MOL0     O53214  10.418  -0.800   1.449 -0.3406 -0.5138 -0.5962
  395MOL0     C53215  10.307  -0.883   1.456 -0.0358 -0.1453 -0.0841
  395MOL0     C53216  10.236  -0.884   1.573  0.3432  0.4582 -0.3970
  395MOL0     C53217  10.137  -0.977   1.610  0.2015 -1.0996  0.0906
  395MOL0     C53218  10.100  -1.067   1.521  0.1864  0.4122 -0.5295
  395MOL0     C53219   9.982  -1.159   1.547 -0.5854 -0.0495  0.0428
  395MOL0     O53220   9.924  -1.142   1.670  0.8787  0.0744 -0.1934
  395MOL0     C53221   9.812  -1.213   1.700  0.1353 -0.3140  1.0610
  395MOL0     C53222   9.698  -1.144   1.669  0.7721  0.1557  0.4320
  395MOL0     C53223   9.575  -1.208   1.695  0.2133 -0.6134 -0.3963
  395MOL0     C53224   9.566  -1.333   1.762 -1.6160  0.0407  0.3214
  395MOL0     O53225   9.455  -1.401   1.780 -0.0230  0.2007 -0.1287
  395MOL0     C53226   9.325  -1.332   1.788  0.2134 -0.2970 -0.2969
  395MOL0     C53227   9.234  -1.349   1.671  0.4887  0.5518 -0.4297
  395MOL0     C53228   9.201  -1.495   1.664  0.6613  0.1568  1.4791
  395MOL0     C53229   9.121  -1.510   1.535  0.3151  0.0817 -0.4312
  395MOL0     C53230   9.055  -1.642   1.505  0.0047 -0.3011 -0.1377
  395MOL0     C53231   9.155  -1.746   1.459 -0.1332 -0.1464 -1.3416
  395MOL0     C53232   9.088  -1.882   1.434 -0.0680 -0.2335  0.1458
  395MOL0     C53233   9.173  -1.976   1.365 -0.2428  1.3716  0.3633
  395MOL0    Cl53234   9.101  -2.142   1.348  0.0843 -0.0973 -0.6607
  395MOL0     C53235   9.684  -1.400   1.783 -0.6614  0.1026 -0.4904
  395MOL0     C53236   9.807  -1.342   1.751  0.5215  0.8771 -0.9615
  395MOL0     O53237   9.944  -1.241   1.461 -0.4105  0.4321 -0.3790
  395MOL0     C53238  10.170  -1.070   1.402  0.0602 -0.2012  0.1211
  395MOL0     C53239  10.272  -0.979   1.368 -0.2625  0.6846 -0.2931
  395MOL0     N53240  10.924  -0.452   1.573  0.8198 -0.1649 -0.2435
  395MOL0     N53241  10.890  -0.412   1.692  0.6208  0.4240 -0.1411
  395MOL0     C53242  10.124   0.157   1.925 -0.1206  0.0613  0.2392
  395MOL0     C53243  10.169   0.234   2.030 -0.5055  0.0855 -1.4675
  395MOL0     C53244  10.145   0.396   2.474  0.2249  0.8322  0.0409
  395MOL0     C53245  10.285   0.402   2.478 -0.0176 -0.3826  0.2013
  395MOL0     C53246  10.354   0.437   2.590  0.2824 -0.4782  0.8646
  395MOL0     C53247  10.291   0.472   2.707  0.1829  0.7736 -0.5870
  395MOL0     O53248  10.354   0.510   2.824 -0.3429  0.1485  0.8249
  395MOL0     C53249  10.419   0.407   2.898  0.1139  0.7489 -0.2864
  395MOL0     C53250  10.410   0.443   3.047  0.1572  0.2545  0.8313
  395MOL0     C53251  10.267   0.500   3.099 -1.3067  0.1829 -0.1784
  395MOL0     C53252  10.270   0.654   3.076  0.3989 -0.1789 -0.9738
  395MOL0     C53253  10.168   0.715   3.168  0.7395 -0.9240  0.5298
  395MOL0     C53254  10.087   0.746   3.250  1.1600 -0.3775 -0.1334
  395MOL0     C53255  10.150   0.490   2.698 -0.5828  0.3620  0.6039
  395MOL0     C53256  10.078   0.451   2.582 -1.0523 -0.6777 -0.5377
  395MOL0     C53257   9.923   0.472   2.595  0.9467 -0.1473 -0.4292
  395MOL0     H53258   9.870   0.304   2.158  1.3716 -1.9051  2.2790
  395MOL0     H53259   9.799   0.230   1.938  0.3463  0.2573  0.8467
  395MOL0     H53260   9.826  -0.039   1.890 -2.4268 -0.1268 -2.0436
  395MOL0     H53261   9.858  -0.089   1.721  0.3974  0.7758 -0.0536
  395MOL0     H53262   9.967  -0.256   1.861 -1.5960 -0.1680 -1.1247
  395MOL0     H53263  10.041  -0.132   1.957 -2.0111  4.6202 -0.4739
  395MOL0     H53264  10.175  -0.059   1.751 -1.0087  0.7194  0.6562
  395MOL0     H53265  10.132  -0.214   1.675  4.9558  2.7242 -2.6328
  395MOL0     H53266  10.266  -0.189   1.942  1.9976 -0.1089 -0.1158
  395MOL0     H53267  10.192  -0.341   1.880  0.0499  0.3962  1.4559
  395MOL0     H53268  10.354  -0.347   1.696  0.2014  0.9331 -0.5476
  395MOL0     H53269  10.418  -0.194   1.746 -0.6573  0.3843 -1.5218
  395MOL0     H53270  10.503  -0.295   1.963  0.1159  0.1716 -0.5671
  395MOL0     H53271  10.430  -0.451   1.923 -0.8831  1.4492  0.9604
  395MOL0     H53272  10.652  -0.297   1.774  0.5446  0.0143  3.0130
  395MOL0     H53273  10.585  -0.452   1.712 -0.2086  1.3319 -1.6878
  395MOL0     H53274  10.775  -0.423   1.957  0.5540 -4.2024  3.2663
  395MOL0     H53275  10.692  -0.567   1.919 -0.4736  1.3893 -0.1228
  395MOL0     H53276  10.748  -0.706   1.701 -0.2428 -0.9960 -2.4614
  395MOL0     H53277  10.891  -0.618   1.351  1.6659 -0.6972 -1.3368
  395MOL0     H53278  10.996  -0.707   1.446  1.0989  1.1063 -4.5286
  395MOL0     H53279  10.815  -0.837   1.345 -2.9858  1.7263 -1.6279
  395MOL0     H53280  10.808  -0.861   1.527  1.1283 -3.4246 -2.4057
  395MOL0     H53281  10.641  -0.692   1.330 -1.4582 -4.1628 -2.1141
  395MOL0     H53282  10.606  -0.686   1.506  0.4955 -1.5410  0.2529
  395MOL0     H53283  10.553  -0.932   1.507  1.0311  3.1321  1.5234
  395MOL0     H53284  10.537  -0.899   1.323 -0.7539  3.6952 -1.4515
  395MOL0     H53285  10.279  -0.820   1.650  2.9975 -0.2943 -1.1677
  395MOL0     H53286  10.102  -0.985   1.712 -0.1615  1.1650  0.1924
  395MOL0     H53287   9.708  -1.050   1.618  1.4001 -2.0765 -4.0225
  395MOL0     H53288   9.484  -1.158   1.663  1.8475  2.8986 -0.0094
  395MOL0     H53289   9.267  -1.365   1.875  0.3170  0.5349  0.1006
  395MOL0     H53290   9.327  -1.223   1.800 -1.3852 -0.3825  1.3459
  395MOL0     H53291   9.139  -1.295   1.678 -1.1101 -1.9033 -1.6496
  395MOL0     H53292   9.285  -1.314   1.582  0.2203  0.3336 -0.6722
  395MOL0     H53293   9.297  -1.545   1.651 -0.2175 -1.2343  0.0164
  395MOL0     H53294   9.154  -1.535   1.754 -1.4686  2.0337  1.3131
  395MOL0     H53295   9.186  -1.475   1.454  0.8639  1.0420  0.3942
  395MOL0     H53296   9.038  -1.439   1.543 -0.6961 -0.9436 -1.4867
  395MOL0     H53297   8.987  -1.626   1.421  2.3030 -0.2117 -2.0919
  395MOL0     H53298   8.996  -1.678   1.589 -0.9529 -1.6305 -1.3305
  395MOL0     H53299   9.217  -1.716   1.374  3.6426 -0.6416  1.0401
  395MOL0     H53300   9.220  -1.779   1.540 -1.3860 -0.1611 -0.3138
  395MOL0     H53301   8.999  -1.872   1.371  1.1620 -2.3226 -2.0771
  395MOL0     H53302   9.068  -1.931   1.529 -1.4508  0.4545  0.2392
  395MOL0     H53303   9.192  -1.922   1.272 -2.0901  1.0162 -0.2590
  395MOL0     H53304   9.272  -1.983   1.412  0.4101  0.8246 -1.0336
  395MOL0     H53305   9.680  -1.502   1.820 -1.2484 -0.2760 -1.5337
  395MOL0     H53306   9.898  -1.400   1.763  0.3101  1.0262  1.8339
  395MOL0     H53307  10.142  -1.136   1.320  0.5631 -0.2024 -0.0516
  395MOL0     H53308  10.335  -0.967   1.280  1.5986  1.8269  1.1297
  395MOL0     H53309  10.202   0.107   1.868  2.0659  1.4575  1.8256
  395MOL0     H53310  10.275   0.238   2.055 -1.0313 -2.3456  2.0187
  395MOL0     H53311  10.350   0.370   2.397  0.1384  0.9149 -0.1975
  395MOL0     H53312  10.462   0.432   2.587  0.3705  1.3286 -1.1566
  395MOL0     H53313  10.523   0.391   2.867  0.2498  3.7242 -1.7059
  395MOL0     H53314  10.366   0.313   2.879 -0.0452  0.3543  1.8929
  395MOL0     H53315  10.477   0.528   3.062  2.2384 -1.4608  1.7462
  395MOL0     H53316  10.445   0.355   3.102  2.0358  0.0569 -0.5856
  395MOL0     H53317  10.255   0.470   3.203 -0.5530 -1.2494 -0.4806
  395MOL0     H53318  10.183   0.450   3.049 -2.7220  0.4779  1.7857
  395MOL0     H53319  10.369   0.695   3.098  0.3275 -0.5320  0.0605
  395MOL0     H53320  10.245   0.686   2.974  0.1340 -0.4442 -0.9940
  395MOL0     H53321  10.023   0.753   3.336 -2.6076  1.0566 -2.8108
  395MOL0     H53322  10.088   0.533   2.776 -3.1569 -2.4991  0.3249
  395MOL0     H53323   9.888   0.369   2.594  2.5718 -0.7855  1.4423
  395MOL0     H53324   9.899   0.515   2.692 -0.7833 -1.0156 -0.4359
  395MOL0     H53325   9.883   0.536   2.515 -2.1219  1.0930  1.8912
  396MOL0     O53326   0.083   7.692   4.249 -0.3617 -0.1409 -0.8054
  396MOL0     C53327   0.185   7.731   4.198 -0.1423 -0.9314  0.6114
  396MOL0     O53328   0.227   7.860   4.198 -0.2390  0.1043 -0.2918
  396MOL0     C53329   0.217   7.941   4.308  0.0271  0.0315 -0.4589
  396MOL0     C53330   0.234   8.069   4.276 -0.0144 -0.0650 -0.0654
  396MOL0     C53331   0.253   8.163   4.379  0.5994 -0.3273  0.9998
  396MOL0     C53332   0.250   8.128   4.510 -0.3976  0.0927 -0.4583
  396MOL0     O53333   0.261   8.218   4.615 -0.7150  0.0615  0.0867
  396MOL0     C53334   0.365   8.325   4.595 -0.1727 -1.2184 -0.0346
  396MOL0     C53335   0.373   8.412   4.720 -0.0456  0.0706 -0.3240
  396MOL0     C53336   0.241   8.476   4.741  0.4958  0.1084 -0.0917
  396MOL0     C53337   0.242   8.560   4.870 -0.4139  0.5488  0.7588
  396MOL0     C53338   0.090   8.591   4.890  0.0874 -0.4851  0.2099
  396MOL0     C53339   0.063   8.695   5.003  0.2867 -0.0500  0.7086
  396MOL0     C53340   0.073   8.627   5.143  0.4644 -1.1707  0.2428
  396MOL0     C53341   0.027   8.723   5.252 -0.0080  0.8008  0.2424
  396MOL0     N53342   0.139   8.771   5.331 -0.2741 -0.2655  0.7346
  396MOL0     C53343   0.223   8.880   5.302 -0.7353  0.2955  0.3026
  396MOL0     C53344   0.316   8.882   5.398 -0.4700  0.3081  1.0401
  396MOL0     C53345   0.417   8.992   5.425 -0.4720 -0.4666 -0.0840
  396MOL0     C53346   0.534   8.989   5.330  0.3364  0.3402 -0.9689
  396MOL0     C53347   0.508   9.040   5.186 -0.2428 -1.3630  0.0801
  396MOL0     C53348   0.650   9.070   5.122 -0.4558  0.7494  1.0668
  396MOL0     O53349   0.639   9.165   5.012 -0.3451 -0.1336  0.3928
  396MOL0     C53350   0.739   9.178   4.918 -0.4067  0.3837 -0.7963
  396MOL0     C53351   0.702   9.274   4.811 -0.1544 -0.0166  0.7222
  396MOL0     C53352   0.797   9.294   4.711 -0.3297  0.3931  0.3746
  396MOL0     C53353   0.925   9.224   4.710 -0.0657 -0.1396 -0.5839
  396MOL0     C53354   1.028   9.253   4.610  0.5045 -0.1757  0.3168
  396MOL0     O53355   0.994   9.341   4.521 -1.0438 -0.0754 -0.2532
  396MOL0     C53356   1.081   9.339   4.417 -0.6038 -1.3262  0.9593
  396MOL0     C53357   1.045   9.273   4.292 -0.4234  0.0116  0.0927
  396MOL0     C53358   1.133   9.288   4.181 -0.2223  1.0288 -0.3703
  396MOL0     C53359   1.252   9.361   4.200 -0.2593 -0.9594 -0.8966
  396MOL0     O53360   1.328   9.367   4.090  0.4175 -0.6784  0.2884
  396MOL0     C53361   1.473   9.387   4.108  0.4623  0.5967 -0.3102
  396MOL0     C53362   1.538   9.312   3.996  0.3683  0.2994  0.0515
  396MOL0     C53363   1.667   9.245   4.043 -0.1604 -0.4418  0.7103
  396MOL0     C53364   1.775   9.227   3.933  0.2361 -0.6074 -0.0481
  396MOL0     C53365   1.892   9.143   3.975 -0.3019 -0.3373 -0.9793
  396MOL0     C53366   2.007   9.146   3.878 -0.2418  0.5164  0.5117
  396MOL0     C53367   2.140   9.087   3.941 -0.8364 -0.5898 -0.1718
  396MOL0     C53368   2.246   9.038   3.836  0.2369 -0.1121 -0.2428
  396MOL0    Cl53369   2.284   9.164   3.712 -0.3421 -0.2636 -0.3863
  396MOL0     C53370   1.279   9.437   4.322  0.7431  0.8802 -0.6612
  396MOL0     C53371   1.199   9.418   4.434  0.1173  0.1350 -0.8566
  396MOL0     O53372   1.144   9.206   4.623  0.5673 -0.2835  0.2785
  396MOL0     C53373   0.950   9.134   4.812 -0.9837 -0.5064  0.4064
  396MOL0     C53374   0.861   9.108   4.915  0.0086 -0.9029  0.6415
  396MOL0     N53375   0.283   8.771   5.475  0.1762 -0.3505  0.6192
  396MOL0     N53376   0.186   8.700   5.432  0.1858  0.0892 -0.6768
  396MOL0     C53377   0.236   7.991   4.542 -0.0586 -0.0268  0.4486
  396MOL0     C53378   0.232   7.899   4.443 -0.4835  0.0905 -0.6404
  396MOL0     C53379   0.262   7.643   4.105  0.6193  0.6616 -0.0255
  396MOL0     C53380   0.190   7.528   4.057  0.9013  1.2875 -0.1690
  396MOL0     C53381   0.255   7.443   3.967  0.7420 -0.3688  0.3813
  396MOL0     C53382   0.384   7.471   3.931  1.0245 -0.2768 -0.1995
  396MOL0     O53383   0.429   7.387   3.836 -0.4082  0.1662  0.6020
  396MOL0     C53384   0.566   7.359   3.837  0.7040  0.1204 -0.3559
  396MOL0     C53385   0.584   7.234   3.749 -0.3144 -0.7469 -0.5163
  396MOL0     C53386   0.727   7.179   3.743  0.0407 -0.0578  0.7596
  396MOL0     C53387   0.775   7.129   3.881 -0.1433 -0.1337 -0.0105
  396MOL0     C53388   0.687   7.028   3.939  0.6685 -0.6349  0.1386
  396MOL0     C53389   0.616   6.943   3.989  0.3905 -0.1804  0.5089
  396MOL0     C53390   0.456   7.582   3.988 -0.8966 -0.4225  1.6106
  396MOL0     C53391   0.401   7.665   4.087  0.3460  0.1411  0.5838
  396MOL0     C53392   0.490   7.769   4.161 -0.1944 -0.0047 -0.0304
  396MOL0     H53393   0.223   8.099   4.173 -3.5693 -1.0478 -0.1151
  396MOL0     H53394   0.256   8.267   4.346  1.5906 -1.3291 -2.4283
  396MOL0     H53395   0.461   8.277   4.577 -1.3326 -3.1977 -1.3889
  396MOL0     H53396   0.333   8.386   4.510 -0.2189  2.4762  2.3997
  396MOL0     H53397   0.447   8.492   4.714  1.3962 -1.2384 -0.9983
  396MOL0     H53398   0.398   8.343   4.801 -1.7727 -2.9936 -2.2066
  396MOL0     H53399   0.158   8.405   4.751 -0.6514  1.3831 -0.1855
  396MOL0     H53400   0.219   8.544   4.658  1.5813  1.3379  0.5979
  396MOL0     H53401   0.282   8.508   4.957 -0.3418 -0.8886 -0.1037
  396MOL0     H53402   0.306   8.648   4.855 -3.4384  3.0945  1.6740
  396MOL0     H53403   0.045   8.633   4.799  1.7357  0.3883 -0.2373
  396MOL0     H53404   0.032   8.499   4.899 -1.7879  0.6985  1.0101
  396MOL0     H53405   0.140   8.772   5.000  0.5441 -0.2464  1.8569
  396MOL0     H53406  -0.035   8.742   4.988  0.2510 -0.2201  0.4135
  396MOL0     H53407   0.177   8.594   5.154  1.7098  2.2007 -0.1793
  396MOL0     H53408  -0.002   8.549   5.139 -1.9769  1.0817 -2.3929
  396MOL0     H53409  -0.014   8.813   5.205 -1.1325 -1.0155 -2.5352
  396MOL0     H53410  -0.049   8.678   5.316  1.0870  1.9312  2.4447
  396MOL0     H53411   0.207   8.951   5.221 -2.6708 -0.9320 -0.4701
  396MOL0     H53412   0.371   9.091   5.416  2.7936  1.5353  2.8354
  396MOL0     H53413   0.458   8.980   5.526  2.4298  0.9328 -0.9899
  396MOL0     H53414   0.631   9.018   5.373  0.6201  0.1544 -1.4688
  396MOL0     H53415   0.553   8.885   5.302 -1.9306 -0.1536 -0.8309
  396MOL0     H53416   0.449   9.131   5.188 -0.9532 -1.7589 -1.3311
  396MOL0     H53417   0.451   8.977   5.117  2.2666 -1.2056 -2.3013
  396MOL0     H53418   0.680   8.973   5.082  3.6277  1.9105  0.7838
  396MOL0     H53419   0.726   9.103   5.194  0.2094 -1.1239  1.2829
  396MOL0     H53420   0.611   9.331   4.796  0.1476 -0.1751 -2.2307
  396MOL0     H53421   0.778   9.373   4.640 -2.1354 -0.6338 -0.3411
  396MOL0     H53422   0.943   9.237   4.299 -1.3527  2.6425  1.3059
  396MOL0     H53423   1.102   9.245   4.086  0.1795 -1.8670  0.6996
  396MOL0     H53424   1.512   9.488   4.115 -0.3017  1.1757 -3.2585
  396MOL0     H53425   1.497   9.338   4.203 -1.8695  1.9723  1.0962
  396MOL0     H53426   1.475   9.230   3.960 -0.6932  0.6460  1.0479
  396MOL0     H53427   1.544   9.388   3.917 -0.7640 -0.1720 -0.5068
  396MOL0     H53428   1.712   9.309   4.120  1.9345 -1.5624  0.4914
  396MOL0     H53429   1.649   9.149   4.092 -4.7684 -0.2220 -0.1165
  396MOL0     H53430   1.820   9.324   3.909  3.2718 -1.1376  2.7044
  396MOL0     H53431   1.722   9.220   3.838 -1.5322  1.8543  0.6500
  396MOL0     H53432   1.866   9.036   3.980  1.4542 -0.7621 -0.2743
  396MOL0     H53433   1.917   9.178   4.075 -0.7938 -2.3026 -0.1173
  396MOL0     H53434   1.979   9.092   3.788  2.3465 -1.4621  0.7622
  396MOL0     H53435   2.026   9.246   3.840  0.4051  1.2415  2.6032
  396MOL0     H53436   2.110   8.999   3.998  3.5530 -2.2996 -0.1324
  396MOL0     H53437   2.182   9.162   4.009 -2.1793  1.5482 -1.5603
  396MOL0     H53438   2.346   9.015   3.872  0.8405 -2.2095 -2.9497
  396MOL0     H53439   2.194   8.949   3.800 -0.2339  0.5515 -1.2257
  396MOL0     H53440   1.376   9.484   4.332  2.4740 -2.7714  2.2652
  396MOL0     H53441   1.230   9.468   4.526  3.4911 -4.3443  0.8263
  396MOL0     H53442   1.047   9.086   4.819 -1.2139 -1.3064 -1.3250
  396MOL0     H53443   0.897   9.048   4.998 -1.8252  0.5454  2.6036
  396MOL0     H53444   0.230   7.972   4.649  0.3908  1.7407  0.8320
  396MOL0     H53445   0.238   7.791   4.453 -3.5292 -0.3303 -2.2765
  396MOL0     H53446   0.085   7.517   4.080  0.7819  1.1672 -0.7504
  396MOL0     H53447   0.210   7.358   3.916 -1.1062  0.6893  0.1574
  396MOL0     H53448   0.590   7.342   3.943 -1.1841 -1.7794 -0.1764
  396MOL0     H53449   0.622   7.451   3.820 -0.0509  0.6117 -0.2123
  396MOL0     H53450   0.539   7.270   3.656 -1.5113 -0.8013  0.0151
  396MOL0     H53451   0.524   7.147   3.779  0.6334 -0.5590  2.2999
  396MOL0     H53452   0.786   7.259   3.697 -2.2557 -0.0359 -2.5170
  396MOL0     H53453   0.737   7.094   3.675 -1.7571 -1.0266  1.6271
  396MOL0     H53454   0.868   7.073   3.865 -1.7550 -2.2904 -2.8501
  396MOL0     H53455   0.788   7.212   3.951  0.5506  0.4901 -0.8587
  396MOL0     H53456   0.551   6.867   4.027  2.0346 -1.7115  0.3804
  396MOL0     H53457   0.559   7.597   3.954 -1.4007  1.6672  0.8452
  396MOL0     H53458   0.452   7.866   4.129 -1.5378 -0.9363 -1.4565
  396MOL0     H53459   0.489   7.755   4.269  3.4746  1.9119  0.3787
  396MOL0     H53460   0.594   7.762   4.128  0.5121  2.3151  1.4834
  397MOL0     O53461   5.317   9.569   3.516 -0.0721  0.3596 -0.7465
  397MOL0     C53462   5.440   9.575   3.499 -0.1050  0.9199  0.1952
  397MOL0     O53463   5.519   9.462   3.472 -0.5476 -0.6294  0.8565
  397MOL0     C53464   5.467   9.339   3.448 -0.0045  0.3599 -0.6551
  397MOL0     C53465   5.358   9.314   3.377 -0.4529 -0.5871 -0.0654
  397MOL0     C53466   5.305   9.187   3.360 -0.1775  0.2399 -0.0094
  397MOL0     C53467   5.358   9.081   3.426 -0.7330 -0.2887  0.4882
  397MOL0     O53468   5.298   8.958   3.437  0.6405  0.1526 -0.3854
  397MOL0     C53469   5.158   8.933   3.400 -0.3106  0.1997  0.0976
  397MOL0     C53470   5.169   8.868   3.261  1.3874 -0.7001 -0.4180
  397MOL0     C53471   5.027   8.848   3.203  0.6733  0.2594  0.1567
  397MOL0     C53472   4.939   8.784   3.309 -0.2577 -0.3584  0.2679
  397MOL0     C53473   4.984   8.641   3.344  0.0886  0.2927 -0.5306
  397MOL0     C53474   4.900   8.558   3.442  0.1119 -0.1721 -0.2378
  397MOL0     C53475   4.753   8.533   3.388 -0.8295  0.0157  0.5119
  397MOL0     C53476   4.673   8.441   3.486  0.1141 -0.3316 -0.5743
  397MOL0     N53477   4.546   8.421   3.420  0.1935  0.8506  0.8467
  397MOL0     C53478   4.436   8.502   3.423  0.0532 -0.4024 -0.0268
  397MOL0     C53479   4.348   8.466   3.322 -0.9215 -0.3382 -0.0563
  397MOL0     C53480   4.217   8.529   3.279 -0.4342  0.3055  0.7193
  397MOL0     C53481   4.236   8.668   3.218  1.0401 -0.7992  0.4823
  397MOL0     C53482   4.204   8.773   3.332 -0.2173  0.2264 -0.3029
  397MOL0     C53483   4.181   8.913   3.279  1.3339  1.1566  0.1047
  397MOL0     O53484   4.196   9.010   3.375  0.6087 -0.1850 -0.4814
  397MOL0     C53485   4.180   9.140   3.334 -0.1103  0.1657 -0.4470
  397MOL0     C53486   4.213   9.245   3.423 -0.5397 -0.0202  0.4950
  397MOL0     C53487   4.209   9.381   3.381  0.5542 -0.2191  0.2451
  397MOL0     C53488   4.151   9.417   3.253 -0.7688 -0.6958  0.2511
  397MOL0     C53489   4.130   9.551   3.204  0.0434  0.0230 -0.7281
  397MOL0     O53490   4.113   9.565   3.068 -0.1481  0.0271  0.8545
  397MOL0     C53491   4.099   9.690   3.017 -0.4587 -0.3106 -0.5654
  397MOL0     C53492   4.135   9.704   2.881 -0.0854 -0.0636  0.1101
  397MOL0     C53493   4.118   9.826   2.813  0.2368  0.5019 -0.0299
  397MOL0     C53494   4.062   9.933   2.879 -0.2190 -0.2252 -0.5174
  397MOL0     O53495   4.052  10.065   2.839 -0.8570  0.3237  0.2974
  397MOL0     C53496   4.029  10.098   2.701  0.0816 -0.1979 -0.0093
  397MOL0     C53497   4.158  10.135   2.624 -1.0638  0.4086  0.1660
  397MOL0     C53498   4.259  10.227   2.694  0.2791 -0.9232 -0.4377
  397MOL0     C53499   4.387  10.230   2.619 -0.6627 -0.2730  0.0333
  397MOL0     C53500   4.474  10.344   2.664  0.5864 -0.4885 -0.4073
  397MOL0     C53501   4.592  10.372   2.558  0.0652  0.2058  1.4730
  397MOL0     C53502   4.685  10.491   2.587  0.2999 -1.0747  0.8092
  397MOL0     C53503   4.785  10.514   2.458  0.0104  0.3123 -0.2090
  397MOL0    Cl53504   4.708  10.550   2.299  0.2206 -0.0251 -0.3108
  397MOL0     C53505   4.016   9.911   3.016 -0.1499  1.4606 -0.5745
  397MOL0     C53506   4.033   9.791   3.079  0.4575 -0.0938  0.8057
  397MOL0     O53507   4.139   9.641   3.288 -0.1936  1.0762  0.4367
  397MOL0     C53508   4.109   9.307   3.168 -0.2513 -0.5864 -0.1917
  397MOL0     C53509   4.127   9.178   3.205 -0.2856  0.3326 -0.1938
  397MOL0     N53510   4.407   8.351   3.273  0.1501 -0.3210  0.2030
  397MOL0     N53511   4.517   8.324   3.329  0.8389  0.7571 -0.1362
  397MOL0     C53512   5.484   9.104   3.492 -0.1424  0.4438  0.3304
  397MOL0     C53513   5.538   9.232   3.503  1.3816 -0.4876 -0.7533
  397MOL0     C53514   5.504   9.701   3.468 -0.7509 -0.1120 -0.3777
  397MOL0     C53515   5.600   9.703   3.367  0.4529 -0.3419  0.2773
  397MOL0     C53516   5.658   9.822   3.323 -1.0360 -0.8504  0.4401
  397MOL0     C53517   5.624   9.939   3.384 -0.0443  0.2194  0.3415
  397MOL0     O53518   5.693  10.045   3.331  0.1819  0.1435  0.0690
  397MOL0     C53519   5.641  10.181   3.325  0.1105 -0.0625 -0.0049
  397MOL0     C53520   5.549  10.187   3.210  0.5055 -0.0646 -0.0146
  397MOL0     C53521   5.620  10.183   3.076  0.4919  0.6540  0.0496
  397MOL0     C53522   5.574  10.288   2.978  0.1263 -0.5152 -0.1668
  397MOL0     C53523   5.649  10.277   2.858  0.7776  0.6376 -0.4786
  397MOL0     C53524   5.717  10.263   2.756  0.8311 -0.1013  0.0546
  397MOL0     C53525   5.523   9.939   3.489 -0.6449 -0.7919  0.7334
  397MOL0     C53526   5.459   9.822   3.531  0.2450  0.6970  0.2950
  397MOL0     C53527   5.359   9.826   3.645 -0.5580 -0.5715 -0.5678
  397MOL0     H53528   5.308   9.394   3.323 -0.5104 -0.6721 -0.1372
  397MOL0     H53529   5.206   9.194   3.315  0.1653  3.1189 -0.5056
  397MOL0     H53530   5.123   8.866   3.480  0.4728 -2.1422 -1.3984
  397MOL0     H53531   5.097   9.023   3.400 -1.1044 -0.3200  0.6915
  397MOL0     H53532   5.225   8.775   3.269 -4.1163 -4.3057  2.4309
  397MOL0     H53533   5.210   8.933   3.182  0.4023 -0.4304 -0.7193
  397MOL0     H53534   5.027   8.773   3.124  0.9905  4.3015 -4.1500
  397MOL0     H53535   4.979   8.938   3.162 -0.6914 -0.9064 -0.8864
  397MOL0     H53536   4.912   8.854   3.389  2.0666 -0.1572  0.9457
  397MOL0     H53537   4.852   8.763   3.247 -0.7683  1.4008  0.3125
  397MOL0     H53538   5.003   8.573   3.260 -0.1637 -2.2112  1.3486
  397MOL0     H53539   5.076   8.663   3.399  0.5859 -0.4277 -1.0576
  397MOL0     H53540   4.942   8.464   3.480 -0.7966 -0.7949 -0.7132
  397MOL0     H53541   4.882   8.613   3.534 -1.1305 -0.9639  0.0221
  397MOL0     H53542   4.760   8.470   3.300  0.1775 -1.8623  1.8629
  397MOL0     H53543   4.698   8.627   3.378 -0.1270  0.4973  1.0691
  397MOL0     H53544   4.708   8.338   3.497 -2.1428 -1.1057 -0.1679
  397MOL0     H53545   4.667   8.472   3.591  3.6538 -1.2064  0.0265
  397MOL0     H53546   4.425   8.595   3.478 -1.2589  2.5833 -4.7574
  397MOL0     H53547   4.173   8.471   3.197  1.1816  2.5078 -1.8925
  397MOL0     H53548   4.157   8.529   3.371 -2.6449  0.3672 -0.6496
  397MOL0     H53549   4.334   8.691   3.174 -0.4589  1.2253 -2.0846
  397MOL0     H53550   4.168   8.685   3.134  1.8899 -1.5039 -0.3702
  397MOL0     H53551   4.294   8.781   3.393 -1.6571  2.1599  1.7433
  397MOL0     H53552   4.129   8.738   3.404 -1.1932  1.1564 -0.8309
  397MOL0     H53553   4.078   8.910   3.242  0.9820 -0.5456  1.1274
  397MOL0     H53554   4.246   8.930   3.192 -1.5579 -1.7911 -2.9865
  397MOL0     H53555   4.261   9.221   3.518 -0.1125 -0.4395  0.1802
  397MOL0     H53556   4.236   9.455   3.455 -0.6645 -0.0043  0.5033
  397MOL0     H53557   4.190   9.628   2.825  0.2057  0.7487 -0.7382
  397MOL0     H53558   4.145   9.850   2.711 -1.1884  0.3059 -0.4751
  397MOL0     H53559   3.981  10.018   2.644  0.7144 -2.2350  2.1310
  397MOL0     H53560   3.959  10.182   2.705 -0.2860 -0.5157  0.3013
  397MOL0     H53561   4.219  10.047   2.599  1.8352  2.2564  0.2364
  397MOL0     H53562   4.126  10.196   2.539 -0.6159  3.3194  1.9455
  397MOL0     H53563   4.220  10.329   2.697 -0.6904 -1.2413 -1.5258
  397MOL0     H53564   4.279  10.208   2.800 -3.0798 -0.0045  0.4531
  397MOL0     H53565   4.345  10.253   2.521 -1.8084 -1.2659  0.2584
  397MOL0     H53566   4.431  10.130   2.616  2.4078  0.9408  0.7628
  397MOL0     H53567   4.516  10.330   2.763  0.4656  3.0099  0.2589
  397MOL0     H53568   4.410  10.432   2.674  2.2122  0.4568  2.5895
  397MOL0     H53569   4.667  10.294   2.544  0.8290  1.3806 -2.0855
  397MOL0     H53570   4.542  10.379   2.461  0.8302  0.4774  1.0924
  397MOL0     H53571   4.732  10.470   2.683  0.8596  0.0171  0.7885
  397MOL0     H53572   4.630  10.586   2.593 -0.0563 -1.3226  1.6093
  397MOL0     H53573   4.854  10.595   2.481 -1.0919  2.0181 -2.4688
  397MOL0     H53574   4.839  10.420   2.446 -1.0602  0.0013 -3.7835
  397MOL0     H53575   3.969   9.992   3.070 -3.9739 -1.3052  0.6795
  397MOL0     H53576   3.986   9.776   3.176  1.9560 -0.1006  1.5527
  397MOL0     H53577   4.045   9.309   3.081 -1.1429 -2.2812  0.3677
  397MOL0     H53578   4.081   9.107   3.136 -0.2058 -0.1016  0.1989
  397MOL0     H53579   5.520   9.030   3.562  0.9233  1.0256  0.4134
  397MOL0     H53580   5.624   9.240   3.570  0.3673 -1.6693  0.7781
  397MOL0     H53581   5.628   9.606   3.326  0.2260  0.1774 -1.1626
  397MOL0     H53582   5.728   9.836   3.241  0.3108  1.8095  1.9004
  397MOL0     H53583   5.716  10.260   3.312  0.1484 -0.0981  0.0007
  397MOL0     H53584   5.585  10.204   3.416  3.6862 -0.1905  2.4134
  397MOL0     H53585   5.492  10.280   3.208 -1.8317 -1.4134 -2.4918
  397MOL0     H53586   5.486  10.098   3.222  2.9748 -1.6908  1.8871
  397MOL0     H53587   5.605  10.085   3.029 -2.5472  1.2254 -0.3730
  397MOL0     H53588   5.729  10.182   3.086  0.3623 -0.4784  2.0212
  397MOL0     H53589   5.470  10.262   2.956  0.7519 -2.5600 -0.9806
  397MOL0     H53590   5.574  10.386   3.027 -0.0367 -1.8636  2.7286
  397MOL0     H53591   5.783  10.258   2.671  0.9362  0.1371  0.1203
  397MOL0     H53592   5.502  10.036   3.531  2.4405  0.8973 -1.1961
  397MOL0     H53593   5.256   9.828   3.607 -0.8605 -1.0147  0.1996
  397MOL0     H53594   5.374   9.730   3.695  1.1171 -1.5550 -2.7741
  397MOL0     H53595   5.377   9.917   3.702 -1.7520 -0.8369  0.2817
  398MOL0     O53596   9.803   0.581   3.297  0.5365 -0.0894 -0.4028
  398MOL0     C53597   9.683   0.574   3.299 -0.0895  0.6386 -0.4441
  398MOL0     O53598   9.617   0.516   3.396 -0.3596  0.1095  0.8570
  398MOL0     C53599   9.671   0.531   3.520 -0.5927  0.1837 -0.5674
  398MOL0     C53600   9.667   0.653   3.585  1.2477 -0.3335 -0.6713
  398MOL0     C53601   9.692   0.662   3.722  1.2257  0.5546 -0.4956
  398MOL0     C53602   9.719   0.553   3.806  0.2809  0.3111 -0.5098
  398MOL0     O53603   9.732   0.564   3.941 -0.7567  0.7916  0.5197
  398MOL0     C53604   9.871   0.556   3.990 -1.3407  0.6869 -0.1428
  398MOL0     C53605   9.875   0.659   4.099  0.9417  0.9659 -0.5802
  398MOL0     C53606  10.001   0.613   4.180  0.5901 -0.2702  1.2979
  398MOL0     C53607  10.125   0.638   4.094  0.8124  0.2567  0.1079
  398MOL0     C53608  10.248   0.654   4.186  0.3524  1.0273  0.1169
  398MOL0     C53609  10.381   0.637   4.112 -1.2640  0.2190 -0.3282
  398MOL0     C53610  10.411   0.768   4.043 -0.1883 -0.3775  0.2850
  398MOL0     C53611  10.554   0.786   3.985  0.2643  0.5284 -0.5794
  398MOL0     N53612  10.581   0.925   3.943  0.4274 -0.2005 -1.1715
  398MOL0     C53613  10.633   0.966   3.818  0.1907 -0.5102  0.3790
  398MOL0     C53614  10.663   1.092   3.840 -0.4407  0.2284 -0.5884
  398MOL0     C53615  10.724   1.172   3.727  0.4620  0.6540  0.1639
  398MOL0     C53616  10.877   1.129   3.714 -0.6019  0.0583  0.1788
  398MOL0     C53617  10.964   1.224   3.640 -0.7252 -0.2249 -0.4073
  398MOL0     C53618  11.005   1.344   3.728  0.1426 -0.5228  0.1348
  398MOL0     O53619  11.085   1.299   3.841  0.0862  0.8838  0.4451
  398MOL0     C53620  11.093   1.363   3.955  0.7706 -0.8333 -0.4715
  398MOL0     C53621  11.083   1.285   4.072 -1.0495 -0.5708  0.1304
  398MOL0     C53622  11.100   1.343   4.201  1.1259 -0.6703 -0.0392
  398MOL0     C53623  11.119   1.481   4.213 -0.4654 -0.0437 -0.5781
  398MOL0     C53624  11.141   1.547   4.337 -0.6581  0.6519 -0.9651
  398MOL0     O53625  11.157   1.683   4.342  0.0820  0.7288  0.2096
  398MOL0     C53626  11.180   1.730   4.474 -0.2268  0.0516  0.6849
  398MOL0     C53627  11.259   1.845   4.495  0.5147  0.2457 -0.4394
  398MOL0     C53628  11.262   1.912   4.617  0.0557  0.1000 -0.1982
  398MOL0     C53629  11.206   1.869   4.733 -0.5090  0.2256 -0.3835
  398MOL0     O53630  11.219   1.947   4.841  0.2178 -0.9431  0.4921
  398MOL0     C53631  11.179   1.899   4.971  0.0934 -0.0568  0.5212
  398MOL0     C53632  11.216   2.007   5.064  1.1783 -0.2224  0.0898
  398MOL0     C53633  11.154   1.971   5.208 -0.4611  0.1691  0.1140
  398MOL0     C53634  11.204   2.071   5.304 -0.5613  0.4952 -0.1701
  398MOL0     C53635  11.157   2.037   5.447 -0.0196 -0.1625  0.4062
  398MOL0     C53636  11.245   2.110   5.554  0.4984  0.0805  1.0543
  398MOL0     C53637  11.377   2.043   5.594  0.3004  0.9591 -0.0327
  398MOL0     C53638  11.360   1.912   5.673 -0.5207 -1.0752  0.1106
  398MOL0    Cl53639  11.347   1.757   5.572  0.0761 -0.0372  0.6498
  398MOL0     C53640  11.126   1.759   4.712 -1.8897 -0.6116 -0.5840
  398MOL0     C53641  11.108   1.702   4.589  0.8501 -1.2000 -0.2268
  398MOL0     O53642  11.164   1.467   4.428  0.6531 -0.4202  1.1989
  398MOL0     C53643  11.115   1.558   4.098  0.3322 -0.6569  0.1225
  398MOL0     C53644  11.089   1.505   3.970 -0.6626  0.2809 -0.2755
  398MOL0     N53645  10.612   1.128   3.962  0.3400 -0.9184 -0.4646
  398MOL0     N53646  10.565   1.031   4.022 -1.3899  0.3449 -0.0073
  398MOL0     C53647   9.720   0.434   3.747 -0.7702  0.1431  0.0694
  398MOL0     C53648   9.697   0.420   3.604  0.0733  0.0070  0.3532
  398MOL0     C53649   9.600   0.612   3.184  0.0134 -0.1288  0.4568
  398MOL0     C53650   9.460   0.629   3.190  0.3507  0.1194  0.0469
  398MOL0     C53651   9.384   0.658   3.080  0.4118 -0.3246  0.6020
  398MOL0     C53652   9.450   0.680   2.957  0.3278  0.3216 -0.5118
  398MOL0     O53653   9.368   0.722   2.859 -0.2151  0.5584  0.5407
  398MOL0     C53654   9.337   0.609   2.778  0.1056 -0.7705 -0.4850
  398MOL0     C53655   9.196   0.620   2.713 -0.7416 -0.0876 -0.7067
  398MOL0     C53656   9.083   0.626   2.809  0.8004  0.6954 -0.6538
  398MOL0     C53657   9.034   0.770   2.834  0.7026 -0.2832  1.2511
  398MOL0     C53658   8.934   0.804   2.732  1.1017 -0.1293  0.2330
  398MOL0     C53659   8.846   0.848   2.657  0.3345  0.0574  0.4113
  398MOL0     C53660   9.588   0.661   2.944  0.3004  1.4753  0.1351
  398MOL0     C53661   9.664   0.633   3.056 -0.0832  0.5714  0.4089
  398MOL0     C53662   9.811   0.637   3.020 -0.0473 -0.9501 -0.4345
  398MOL0     H53663   9.629   0.730   3.518 -0.3286 -0.5253 -0.0565
  398MOL0     H53664   9.688   0.754   3.779  2.1749 -0.5745  1.4743
  398MOL0     H53665   9.900   0.459   4.031  0.9760  1.6806  0.7354
  398MOL0     H53666   9.944   0.581   3.913 -1.4479 -0.3200 -0.5921
  398MOL0     H53667   9.787   0.632   4.158 -0.3231 -0.9606 -3.1686
  398MOL0     H53668   9.874   0.765   4.072  0.9218  0.5643 -2.2508
  398MOL0     H53669   9.989   0.509   4.211 -1.2581 -0.9819 -1.4579
  398MOL0     H53670  10.013   0.673   4.271 -0.9425 -0.1950  1.4707
  398MOL0     H53671  10.151   0.561   4.021  1.4679  0.5329  0.0440
  398MOL0     H53672  10.118   0.732   4.038  1.9915 -0.1440 -0.7478
  398MOL0     H53673  10.246   0.743   4.250  0.4600  1.1424 -0.0381
  398MOL0     H53674  10.218   0.574   4.254 -4.6757  1.1550 -1.5939
  398MOL0     H53675  10.460   0.612   4.184 -0.8237 -5.5787 -2.3265
  398MOL0     H53676  10.385   0.564   4.031 -2.6901 -1.5357  1.0934
  398MOL0     H53677  10.403   0.843   4.122 -2.1507  0.2321 -0.4191
  398MOL0     H53678  10.339   0.787   3.963 -0.1239  0.8350  0.5002
  398MOL0     H53679  10.630   0.787   4.064  0.6748 -1.2953 -0.9206
  398MOL0     H53680  10.575   0.713   3.907 -2.0231 -2.1544  1.1650
  398MOL0     H53681  10.649   0.900   3.734 -0.9013 -1.9311  1.2573
  398MOL0     H53682  10.686   1.146   3.628 -0.8432  1.1044  0.5340
  398MOL0     H53683  10.708   1.280   3.742  0.1925  0.5960  0.2848
  398MOL0     H53684  10.915   1.099   3.812  1.4248  0.8279 -0.3241
  398MOL0     H53685  10.868   1.032   3.664  1.7468 -1.4895  2.5021
  398MOL0     H53686  10.909   1.253   3.549 -1.1392 -0.3126 -0.1856
  398MOL0     H53687  11.051   1.164   3.612 -2.0257 -1.1533 -2.8164
  398MOL0     H53688  10.911   1.391   3.758  0.2224 -0.4435  0.2607
  398MOL0     H53689  11.073   1.421   3.689  0.5714  0.2438  2.2625
  398MOL0     H53690  11.073   1.178   4.060  0.7899 -1.3437  3.9941
  398MOL0     H53691  11.097   1.287   4.294  1.7323  0.0634  0.4397
  398MOL0     H53692  11.301   1.876   4.400  3.0198 -0.7461  0.2710
  398MOL0     H53693  11.321   2.003   4.624 -2.4980  1.8079  0.1491
  398MOL0     H53694  11.071   1.880   4.962  0.3291 -0.7693 -1.0729
  398MOL0     H53695  11.236   1.807   4.986  2.6313  0.8188 -2.6015
  398MOL0     H53696  11.326   2.006   5.068  1.1488 -0.3912  2.5824
  398MOL0     H53697  11.193   2.109   5.032 -2.5403 -1.1583 -0.6733
  398MOL0     H53698  11.045   1.960   5.200 -0.3613  0.0217 -1.2722
  398MOL0     H53699  11.198   1.875   5.233 -0.8920  0.0754  0.5275
  398MOL0     H53700  11.165   2.170   5.278 -2.1747 -0.3010 -0.9829
  398MOL0     H53701  11.313   2.079   5.300 -0.4751 -0.6311 -0.3900
  398MOL0     H53702  11.189   1.932   5.452 -0.4746 -0.6884 -3.8174
  398MOL0     H53703  11.049   2.045   5.461 -0.1104 -1.4419  0.5554
  398MOL0     H53704  11.273   2.211   5.521 -0.2390 -0.9085 -3.3118
  398MOL0     H53705  11.186   2.132   5.644  1.2068 -1.5312  1.9443
  398MOL0     H53706  11.422   2.121   5.656 -0.2308  0.2957  1.2234
  398MOL0     H53707  11.428   2.024   5.499  0.7421  1.0922  0.1759
  398MOL0     H53708  11.449   1.908   5.737 -1.0145  2.7184  1.2514
  398MOL0     H53709  11.268   1.912   5.731 -1.0163  2.3725 -0.4922
  398MOL0     H53710  11.057   1.731   4.791  0.4913  1.0022  2.2844
  398MOL0     H53711  11.039   1.618   4.594  2.0730 -2.1637  1.2268
  398MOL0     H53712  11.122   1.666   4.089  2.0336 -0.8755 -2.5948
  398MOL0     H53713  11.067   1.564   3.882  0.2534  0.2219 -0.5559
  398MOL0     H53714   9.739   0.343   3.803  1.7664 -2.6774 -4.6674
  398MOL0     H53715   9.688   0.321   3.560 -1.8713  1.1563 -2.0676
  398MOL0     H53716   9.423   0.626   3.292  0.6587  2.2502  0.2652
  398MOL0     H53717   9.276   0.663   3.085  0.3339 -1.3812  0.1771
  398MOL0     H53718   9.330   0.528   2.851 -1.0889 -0.4195 -0.1928
  398MOL0     H53719   9.414   0.586   2.704  0.9756 -1.3223  0.5582
  398MOL0     H53720   9.180   0.531   2.650 -1.7001  0.2218 -0.9167
  398MOL0     H53721   9.193   0.706   2.645 -1.2337  0.0259 -0.5447
  398MOL0     H53722   9.113   0.585   2.906 -0.3985 -1.4490 -1.1087
  398MOL0     H53723   9.001   0.569   2.763 -0.3456  3.0004 -1.6320
  398MOL0     H53724   8.973   0.785   2.924 -1.0213  2.0515 -0.2108
  398MOL0     H53725   9.124   0.832   2.836  0.5930 -0.1356  1.8863
  398MOL0     H53726   8.779   0.901   2.592  1.1605  0.7898  0.1446
  398MOL0     H53727   9.631   0.677   2.846  0.9610 -3.2444 -0.5898
  398MOL0     H53728   9.842   0.690   2.929 -2.9372  1.1662 -0.3375
  398MOL0     H53729   9.849   0.705   3.097  1.2732 -0.8077 -1.1723
  398MOL0     H53730   9.869   0.544   3.021  2.2037  0.3570  0.0432
  399MOL0     O53731   1.070  10.965   7.766  0.7283 -0.1918 -0.8365
  399MOL0     C53732   0.990  11.037   7.833  0.0955 -0.0415 -0.3836
  399MOL0     O53733   0.878  11.087   7.781 -0.5278 -0.3814 -0.2826
  399MOL0     C53734   0.832  11.043   7.662 -0.7409 -0.2879 -0.2172
  399MOL0     C53735   0.773  10.915   7.659 -0.3792 -0.7812  0.4599
  399MOL0     C53736   0.721  10.874   7.536 -0.1114 -0.0476  1.0895
  399MOL0     C53737   0.752  10.938   7.415  0.3055 -0.3102  0.0119
  399MOL0     O53738   0.728  10.893   7.288 -0.4428  0.1459 -0.1025
  399MOL0     C53739   0.667  10.762   7.263  0.0113 -0.9134 -0.3764
  399MOL0     C53740   0.695  10.720   7.119  0.0753 -0.8232 -0.5641
  399MOL0     C53741   0.611  10.808   7.025 -0.4308 -0.5012  0.0680
  399MOL0     C53742   0.690  10.870   6.908 -0.0585  0.1081  0.0923
  399MOL0     C53743   0.613  10.970   6.831 -0.4716 -0.3607  0.1946
  399MOL0     C53744   0.587  11.104   6.903 -0.0419  0.1232 -0.1681
  399MOL0     C53745   0.527  11.216   6.817 -0.0782 -0.4444  0.1750
  399MOL0     C53746   0.378  11.206   6.772 -0.4577  0.4566  0.1915
  399MOL0     N53747   0.307  11.335   6.760 -0.3938  0.4216  0.0613
  399MOL0     C53748   0.371  11.448   6.713  0.5918  0.3161  0.4797
  399MOL0     C53749   0.296  11.550   6.756  0.5420  0.4317  0.1170
  399MOL0     C53750   0.349  11.692   6.730  0.7961 -0.2471 -0.3440
  399MOL0     C53751   0.444  11.753   6.839 -0.4273 -0.5347 -0.3094
  399MOL0     C53752   0.574  11.675   6.855  0.8165 -0.3828 -0.2595
  399MOL0     C53753   0.685  11.772   6.900  0.1901  0.2708  0.1845
  399MOL0     O53754   0.698  11.892   6.828 -0.0399  0.3558 -0.0302
  399MOL0     C53755   0.810  11.965   6.840  0.2504 -0.7851 -0.4731
  399MOL0     C53756   0.877  11.977   6.964 -0.4795 -0.4484 -0.3179
  399MOL0     C53757   0.984  12.069   6.989  0.5888  0.0634  0.1983
  399MOL0     C53758   1.023  12.155   6.885  0.5019  0.3414  0.6030
  399MOL0     C53759   1.139  12.248   6.910 -0.2518  0.9086 -0.4221
  399MOL0     O53760   1.185  12.250   7.038  0.4618 -0.3601  0.0169
  399MOL0     C53761   1.300  12.308   7.079  0.5771 -0.4202 -0.1223
  399MOL0     C53762   1.412  12.341   6.999  0.2035 -0.4609 -0.2498
  399MOL0     C53763   1.530  12.387   7.044  0.0298 -0.5045 -0.1750
  399MOL0     C53764   1.545  12.418   7.175  0.3624  0.3691 -0.0668
  399MOL0     O53765   1.651  12.479   7.232  0.3187  0.2158 -0.2428
  399MOL0     C53766   1.779  12.449   7.182  0.0607 -0.7123 -0.7935
  399MOL0     C53767   1.888  12.499   7.290 -0.1153  0.0409 -0.6388
  399MOL0     C53768   1.897  12.650   7.309  0.5210 -0.7429 -0.6143
  399MOL0     C53769   2.001  12.708   7.212 -0.3742 -0.3089  0.3478
  399MOL0     C53770   2.139  12.703   7.279  0.1139  0.6785  0.4267
  399MOL0     C53771   2.253  12.695   7.174 -0.0747  0.3976 -0.0887
  399MOL0     C53772   2.379  12.666   7.242 -0.5785 -0.5232 -0.8285
  399MOL0     C53773   2.455  12.777   7.313 -0.5972 -0.8450  0.7623
  399MOL0    Cl53774   2.523  12.916   7.219  0.0151 -0.3168  0.7414
  399MOL0     C53775   1.438  12.391   7.265  0.7316  0.1691 -0.3605
  399MOL0     C53776   1.321  12.325   7.218  0.6138 -0.2404 -0.8178
  399MOL0     O53777   1.187  12.302   6.812 -0.2368 -0.3822  0.7125
  399MOL0     C53778   0.963  12.146   6.764  0.6190 -0.0275 -0.4265
  399MOL0     C53779   0.863  12.050   6.736  0.1663 -0.1474 -0.2449
  399MOL0     N53780   0.201  11.486   6.841  0.2668  0.2147  1.0725
  399MOL0     N53781   0.194  11.361   6.824  0.7382 -0.2799  0.0069
  399MOL0     C53782   0.804  11.067   7.428  1.1131  0.3992  0.2863
  399MOL0     C53783   0.836  11.120   7.552 -0.6535 -0.2867  0.5058
  399MOL0     C53784   1.008  11.055   7.973 -0.2331 -0.6742  0.6093
  399MOL0     C53785   0.947  11.172   8.027 -0.2197  0.7193  0.1412
  399MOL0     C53786   0.982  11.215   8.154 -0.0975  0.8981 -0.6411
  399MOL0     C53787   1.071  11.154   8.237 -0.2533  0.0987 -0.3526
  399MOL0     O53788   1.091  11.216   8.364  0.2918 -0.9521 -0.5892
  399MOL0     C53789   1.171  11.151   8.464  1.2486  0.2899  0.0250
  399MOL0     C53790   1.112  11.018   8.523 -0.6851  0.3915  0.4695
  399MOL0     C53791   1.003  11.026   8.625 -0.0480  0.6128 -0.7994
  399MOL0     C53792   0.871  11.072   8.572  0.6191  0.1024 -1.0766
  399MOL0     C53793   0.778  11.137   8.669 -0.2537  0.0761 -0.2090
  399MOL0     C53794   0.705  11.180   8.750  0.1429 -0.7059 -0.9025
  399MOL0     C53795   1.127  11.032   8.189  1.0994 -0.6445  0.1559
  399MOL0     C53796   1.097  10.983   8.049 -0.9467 -0.5516  0.0480
  399MOL0     C53797   1.160  10.867   8.004 -0.7156 -0.2521 -0.5420
  399MOL0     H53798   0.764  10.871   7.758 -1.7921  0.1458  0.7843
  399MOL0     H53799   0.686  10.772   7.535 -2.9625  0.5189  6.5993
  399MOL0     H53800   0.710  10.688   7.331  2.0223  1.0353  0.5880
  399MOL0     H53801   0.558  10.766   7.277  0.2330  3.1924  1.5047
  399MOL0     H53802   0.684  10.612   7.104 -1.2310 -0.3960 -3.2019
  399MOL0     H53803   0.802  10.735   7.102  0.3613 -3.2885 -1.3233
  399MOL0     H53804   0.568  10.893   7.079 -0.2555 -0.6830  0.5058
  399MOL0     H53805   0.532  10.751   6.975 -2.7679  0.7494  2.1218
  399MOL0     H53806   0.778  10.927   6.940  0.4096 -0.4854 -0.1120
  399MOL0     H53807   0.738  10.789   6.853 -0.2675  1.1778 -1.7629
  399MOL0     H53808   0.657  11.008   6.738 -0.4299 -1.8081 -0.4026
  399MOL0     H53809   0.515  10.925   6.810 -0.5873 -0.9252  1.8571
  399MOL0     H53810   0.517  11.085   6.985 -0.1400 -0.1569 -0.3136
  399MOL0     H53811   0.683  11.134   6.947 -0.7816  1.4455  0.6146
  399MOL0     H53812   0.575  11.221   6.719  1.8416  0.5213  1.0930
  399MOL0     H53813   0.548  11.314   6.860  2.3878  0.8132 -3.4046
  399MOL0     H53814   0.386  11.164   6.671  2.8754  0.4493  0.3609
  399MOL0     H53815   0.326  11.135   6.837  1.1304 -1.9320 -1.0151
  399MOL0     H53816   0.455  11.462   6.647 -0.5844  0.8091 -0.9648
  399MOL0     H53817   0.402  11.689   6.635  1.2484 -0.2741 -0.0939
  399MOL0     H53818   0.259  11.754   6.738 -0.0878 -1.6693  1.7522
  399MOL0     H53819   0.470  11.855   6.810  1.4966  0.0372  2.8546
  399MOL0     H53820   0.400  11.762   6.939  0.2614  3.5634 -0.1886
  399MOL0     H53821   0.606  11.628   6.761 -1.9769 -1.2430 -0.8697
  399MOL0     H53822   0.551  11.601   6.932 -1.6494 -0.7863 -1.2801
  399MOL0     H53823   0.780  11.718   6.891  0.2470  0.6720 -2.7928
  399MOL0     H53824   0.667  11.788   7.006 -1.6201 -1.3255  0.1710
  399MOL0     H53825   0.842  11.917   7.048  2.1386  0.6087  1.6680
  399MOL0     H53826   1.025  12.074   7.089  3.2596  1.7128 -0.8762
  399MOL0     H53827   1.404  12.313   6.895  2.0041 -2.8920  0.1723
  399MOL0     H53828   1.607  12.407   6.970 -2.9619 -0.5326 -3.5634
  399MOL0     H53829   1.783  12.340   7.168  2.0105 -0.7694 -0.1146
  399MOL0     H53830   1.802  12.497   7.086  2.2810 -0.4826 -0.2175
  399MOL0     H53831   1.838  12.461   7.380 -2.0524  0.5800 -1.4334
  399MOL0     H53832   1.989  12.463   7.268  0.8804  1.7963  0.7980
  399MOL0     H53833   1.815  12.721   7.294  0.9133 -0.1947 -0.2161
  399MOL0     H53834   1.925  12.670   7.413 -1.5036  0.1770 -0.2024
  399MOL0     H53835   1.975  12.813   7.195  0.6540 -0.3081 -1.4817
  399MOL0     H53836   1.988  12.671   7.110  1.1498  1.7482 -0.6839
  399MOL0     H53837   2.155  12.615   7.342  0.9276 -0.7108 -1.6173
  399MOL0     H53838   2.153  12.792   7.342  1.0494  0.9908 -0.2060
  399MOL0     H53839   2.228  12.615   7.104 -1.6929  0.3073  0.5429
  399MOL0     H53840   2.268  12.785   7.115  0.1468  0.1550 -0.4082
  399MOL0     H53841   2.453  12.631   7.170  0.6049  1.7637 -0.8264
  399MOL0     H53842   2.359  12.588   7.316 -1.0977 -2.1512 -2.5929
  399MOL0     H53843   2.390  12.821   7.390  1.0496 -0.4220  1.9782
  399MOL0     H53844   2.531  12.737   7.380 -2.0264 -1.6903  1.9511
  399MOL0     H53845   1.445  12.438   7.362 -2.3799  0.4141 -0.1540
  399MOL0     H53846   1.249  12.291   7.291 -0.3041 -0.5545 -1.8532
  399MOL0     H53847   0.997  12.217   6.689  1.7322  1.6585  1.5640
  399MOL0     H53848   0.818  12.045   6.637  0.7342  3.6710 -0.8473
  399MOL0     H53849   0.828  11.123   7.338 -0.7752  0.6060 -0.1293
  399MOL0     H53850   0.892  11.213   7.555  0.2617 -0.8277  3.1310
  399MOL0     H53851   0.868  11.225   7.974 -2.8123 -2.3711  0.6250
  399MOL0     H53852   0.948  11.314   8.182 -2.2795  0.9220 -2.9290
  399MOL0     H53853   1.187  11.213   8.552 -0.5795 -2.3921  2.4379
  399MOL0     H53854   1.263  11.110   8.422 -0.7055 -2.8804 -1.5931
  399MOL0     H53855   1.198  10.961   8.560 -1.4056 -1.2968 -0.3322
  399MOL0     H53856   1.068  10.960   8.441  3.5333  0.6972 -2.3403
  399MOL0     H53857   1.038  11.082   8.713  0.9735  2.5159 -2.3289
  399MOL0     H53858   0.984  10.929   8.671  1.6091  0.4261 -0.4354
  399MOL0     H53859   0.892  11.154   8.502  2.9176  1.9770  1.5766
  399MOL0     H53860   0.824  10.986   8.523 -1.2643 -0.0679  0.8506
  399MOL0     H53861   0.639  11.227   8.820  1.3579  2.5771 -1.7900
  399MOL0     H53862   1.190  10.982   8.261 -1.6525  0.0556  3.2723
  399MOL0     H53863   1.216  10.881   7.912 -1.9644 -2.7936 -1.8035
  399MOL0     H53864   1.225  10.841   8.089  0.5170  1.3306 -0.9634
  399MOL0     H53865   1.094  10.787   7.970  1.1456 -2.2931  0.3487
  400MOL0     O53866  10.286   6.291   7.513 -0.4370 -1.1007  0.8691
  400MOL0     C53867  10.326   6.198   7.448  0.2116  1.2797  0.4817
  400MOL0     O53868  10.441   6.122   7.474 -0.0904  0.2054 -0.0410
  400MOL0     C53869  10.532   6.190   7.562  1.4087  0.4040  0.1761
  400MOL0     C53870  10.571   6.321   7.554 -0.1349  0.1761 -0.5325
  400MOL0     C53871  10.667   6.372   7.647  0.5677 -0.4468 -0.1909
  400MOL0     C53872  10.724   6.293   7.751  0.1537 -0.1994  0.0682
  400MOL0     O53873  10.807   6.351   7.843 -0.9823  0.2272 -0.6851
  400MOL0     C53874  10.730   6.376   7.960  0.6061 -0.8704 -1.2544
  400MOL0     C53875  10.819   6.435   8.078  0.1358 -0.4561  0.1793
  400MOL0     C53876  10.952   6.363   8.093 -0.1476  0.6835 -0.5408
  400MOL0     C53877  11.024   6.394   8.224 -0.3169  0.2651 -0.7910
  400MOL0     C53878  11.144   6.301   8.252 -0.0674  0.2698 -0.4480
  400MOL0     C53879  11.283   6.368   8.235  0.7389 -0.3794 -0.1564
  400MOL0     C53880  11.310   6.436   8.095  0.0690 -0.1658  0.7450
  400MOL0     C53881  11.305   6.334   7.972 -0.5293  0.6694  0.2016
  400MOL0     N53882  11.418   6.234   7.977 -0.3658 -0.4280 -0.5325
  400MOL0     C53883  11.550   6.255   7.956  0.0037 -0.0110  0.8722
  400MOL0     C53884  11.611   6.139   7.979  0.2780 -0.0112 -0.6536
  400MOL0     C53885  11.759   6.119   7.986  1.1900  0.2273  0.3900
  400MOL0     C53886  11.814   6.163   8.123 -0.2422  0.3267  0.7245
  400MOL0     C53887  11.732   6.111   8.251 -0.5315  0.2654  1.1447
  400MOL0     C53888  11.797   6.161   8.382 -0.2646  0.0492  0.5421
  400MOL0     O53889  11.721   6.125   8.506  0.1327 -0.4496 -0.5714
  400MOL0     C53890  11.792   6.140   8.625  0.6094  0.4856  0.2750
  400MOL0     C53891  11.919   6.209   8.621  1.3463 -0.7275 -1.4092
  400MOL0     C53892  11.986   6.233   8.738  0.0164  0.5327 -0.3621
  400MOL0     C53893  11.930   6.184   8.860  0.1568 -0.7214 -0.9056
  400MOL0     C53894  12.006   6.207   8.990  0.0347 -0.3893 -1.3868
  400MOL0     O53895  12.098   6.303   9.005 -0.6905 -0.6939  0.8208
  400MOL0     C53896  12.168   6.309   9.123 -0.3368 -0.4491 -0.1736
  400MOL0     C53897  12.112   6.352   9.246  0.8915  0.2211 -0.2700
  400MOL0     C53898  12.187   6.354   9.364 -0.8306  0.6013 -0.2299
  400MOL0     C53899  12.317   6.309   9.367  0.1347  0.9855 -0.9785
  400MOL0     O53900  12.389   6.307   9.486  1.0947 -0.0959 -0.3361
  400MOL0     C53901  12.427   6.184   9.553 -1.0294 -0.7681 -1.6639
  400MOL0     C53902  12.448   6.214   9.698  0.1033 -0.5402 -0.9696
  400MOL0     C53903  12.306   6.241   9.767  0.3122  0.1512 -0.2657
  400MOL0     C53904  12.323   6.322   9.897 -0.4166  0.2900  0.2726
  400MOL0     C53905  12.187   6.338   9.978  0.1987 -0.4720 -1.2263
  400MOL0     C53906  12.069   6.407   9.914 -0.5569 -0.1665  0.7804
  400MOL0     C53907  12.019   6.524   9.987 -0.0452 -0.1860 -0.6792
  400MOL0     C53908  11.882   6.558   9.934 -0.2517  0.0505  0.0143
  400MOL0    Cl53909  11.794   6.658  10.055  0.1673 -0.1855  0.5413
  400MOL0     C53910  12.377   6.277   9.246  0.0503 -0.9407  0.0658
  400MOL0     C53911  12.299   6.271   9.126 -0.0683 -0.1559  0.0906
  400MOL0     O53912  11.967   6.141   9.082 -0.8742  0.6107  0.0871
  400MOL0     C53913  11.806   6.132   8.862  0.4479  0.5083 -0.2412
  400MOL0     C53914  11.736   6.105   8.744  0.7341 -0.2196  0.8873
  400MOL0     N53915  11.509   6.051   8.019  0.4864 -0.1270 -0.6016
  400MOL0     N53916  11.390   6.107   8.015 -0.3537 -0.9788  0.0984
  400MOL0     C53917  10.704   6.156   7.729  0.3878 -0.4356 -0.1948
  400MOL0     C53918  10.604   6.112   7.648 -0.2211  0.2064 -0.2846
  400MOL0     C53919  10.246   6.149   7.334  0.0131 -0.8536 -0.2483
  400MOL0     C53920  10.295   6.034   7.272 -0.7303  0.3727 -1.0600
  400MOL0     C53921  10.218   5.975   7.174  0.1284 -0.2315  0.7437
  400MOL0     C53922  10.099   6.031   7.127  0.8542  0.9033 -0.7383
  400MOL0     O53923  10.030   5.955   7.031  0.3538  0.1793 -0.6399
  400MOL0     C53924   9.888   5.974   7.036  0.2654 -0.4150 -0.3058
  400MOL0     C53925   9.833   5.905   6.915  0.0900  0.2013  0.8329
  400MOL0     C53926   9.861   5.992   6.794 -0.1034 -1.1463 -0.1165
  400MOL0     C53927   9.805   5.926   6.660  0.2843  0.6404 -0.2419
  400MOL0     C53928   9.657   5.907   6.688 -1.0666 -0.6862  0.6502
  400MOL0     C53929   9.542   5.892   6.718 -0.7075 -0.1261 -0.2970
  400MOL0     C53930  10.055   6.156   7.187  0.4156  0.7124  0.2511
  400MOL0     C53931  10.128   6.210   7.286  0.1026 -0.4047  0.0446
  400MOL0     C53932  10.059   6.328   7.352  0.4467 -1.4142 -1.4085
  400MOL0     H53933  10.532   6.388   7.478  1.0572  3.0689  1.2588
  400MOL0     H53934  10.683   6.479   7.646 -2.1175  0.0535  0.8961
  400MOL0     H53935  10.653   6.450   7.934  0.3104 -0.7994 -0.1966
  400MOL0     H53936  10.693   6.280   7.997  0.1570  0.5673  2.4550
  400MOL0     H53937  10.752   6.423   8.164  0.7844 -1.2046  0.5952
  400MOL0     H53938  10.836   6.539   8.049 -0.9556 -0.0909  0.7719
  400MOL0     H53939  11.014   6.397   8.009  1.0214 -0.7332 -0.2883
  400MOL0     H53940  10.936   6.256   8.081 -3.8174  0.9293  1.0812
  400MOL0     H53941  11.048   6.501   8.233 -3.5175  1.0660 -0.4831
  400MOL0     H53942  10.951   6.373   8.303 -0.8864 -1.2856 -1.7161
  400MOL0     H53943  11.129   6.258   8.352 -1.9775  0.7695 -0.4817
  400MOL0     H53944  11.136   6.217   8.182  0.6404  1.7492 -2.3915
  400MOL0     H53945  11.273   6.452   8.305  0.9375  0.2078 -0.8292
  400MOL0     H53946  11.361   6.296   8.261  1.1587 -1.3083 -3.5294
  400MOL0     H53947  11.403   6.489   8.116  1.0259 -1.7870  0.7154
  400MOL0     H53948  11.231   6.511   8.085 -0.1202 -0.6967 -2.9329
  400MOL0     H53949  11.212   6.277   7.984  1.6062 -3.0936  0.3361
  400MOL0     H53950  11.314   6.389   7.878 -2.3218  0.6635 -0.0048
  400MOL0     H53951  11.605   6.339   7.915 -0.5195 -1.1579 -2.5191
  400MOL0     H53952  11.781   6.013   7.975  0.3204  0.1072 -0.2996
  400MOL0     H53953  11.792   6.173   7.896 -1.0163  2.8605  1.0071
  400MOL0     H53954  11.919   6.137   8.141 -0.5517 -0.0862  2.0974
  400MOL0     H53955  11.804   6.272   8.115 -0.0380  0.2316 -1.4471
  400MOL0     H53956  11.719   6.003   8.247  1.0414  0.0751  0.3109
  400MOL0     H53957  11.635   6.161   8.253  1.2348  4.0954  0.5068
  400MOL0     H53958  11.800   6.270   8.377 -2.6628  0.1511  0.3129
  400MOL0     H53959  11.896   6.115   8.388 -1.1667 -1.9850  1.0361
  400MOL0     H53960  11.968   6.247   8.532  1.2304  1.2412 -0.6725
  400MOL0     H53961  12.090   6.265   8.735 -0.0056  0.6405 -0.0250
  400MOL0     H53962  12.005   6.369   9.254  0.8650  0.5445 -1.3120
  400MOL0     H53963  12.138   6.375   9.458  0.6087 -0.8768  0.9148
  400MOL0     H53964  12.356   6.102   9.541 -1.1229 -0.7266 -1.3881
  400MOL0     H53965  12.521   6.148   9.509  1.4534  3.3356 -0.3098
  400MOL0     H53966  12.501   6.136   9.755 -1.1870 -0.7386 -0.0020
  400MOL0     H53967  12.511   6.303   9.709 -0.0124 -0.7481  2.3060
  400MOL0     H53968  12.246   6.302   9.699  2.4861  1.1365 -1.3980
  400MOL0     H53969  12.252   6.147   9.782  1.0111 -0.0198  1.3506
  400MOL0     H53970  12.368   6.420   9.880  0.7412 -0.5763 -2.0618
  400MOL0     H53971  12.397   6.268   9.957 -2.5478 -1.7917  1.1878
  400MOL0     H53972  12.213   6.385  10.073  0.1120 -1.7120 -0.5569
  400MOL0     H53973  12.148   6.241  10.010 -1.1583 -0.7825 -3.5513
  400MOL0     H53974  12.092   6.429   9.809  2.4280 -1.9733  0.9460
  400MOL0     H53975  11.988   6.336   9.894 -0.2311  0.3376 -3.1611
  400MOL0     H53976  12.084   6.612   9.990  0.2434 -0.4003 -0.4948
  400MOL0     H53977  12.015   6.503  10.095  1.4522  4.9427  0.6433
  400MOL0     H53978  11.880   6.593   9.830 -0.9151  0.3532  0.1263
  400MOL0     H53979  11.827   6.465   9.923 -0.3288  0.2262 -1.2709
  400MOL0     H53980  12.482   6.252   9.247  0.6564  1.1687 -1.7635
  400MOL0     H53981  12.345   6.234   9.035  1.5393  1.3859  0.2129
  400MOL0     H53982  11.767   6.100   8.958 -1.1435  1.4938 -0.5233
  400MOL0     H53983  11.641   6.053   8.747  1.2766 -1.4185 -0.8123
  400MOL0     H53984  10.756   6.080   7.787  1.5193  1.4233  1.3557
  400MOL0     H53985  10.575   6.007   7.639  1.6822 -0.5903  1.8953
  400MOL0     H53986  10.391   5.991   7.299 -0.9174  1.7209  2.2719
  400MOL0     H53987  10.244   5.883   7.123 -0.3317 -2.3059  3.9408
  400MOL0     H53988   9.862   6.080   7.043  1.4782 -0.0677 -0.7962
  400MOL0     H53989   9.842   5.918   7.118 -0.3883 -1.6615 -1.4873
  400MOL0     H53990   9.725   5.891   6.926  0.3457 -3.0336  0.0817
  400MOL0     H53991   9.874   5.804   6.913  0.2913  0.2604  1.5935
  400MOL0     H53992   9.969   6.007   6.784 -0.4633  0.7403 -1.8652
  400MOL0     H53993   9.816   6.091   6.806 -0.4655 -1.5544  2.3720
  400MOL0     H53994   9.821   5.982   6.567  1.0060  3.6916  1.5510
  400MOL0     H53995   9.836   5.822   6.649  0.8717  0.7228  0.4975
  400MOL0     H53996   9.437   5.893   6.740 -0.1989 -1.9112  2.7517
  400MOL0     H53997   9.966   6.204   7.148  0.3373 -0.2272 -0.7841
  400MOL0     H53998  10.018   6.306   7.451 -0.6139 -0.6259 -1.6554
  400MOL0     H53999  10.131   6.408   7.372 -2.8646  0.9427  3.0993
  400MOL0     H54000   9.977   6.365   7.289  0.1037 -0.2474 -0.3251
  401MOL0     O54001  10.114   8.620   6.251  0.0055 -0.8388  0.2530
  401MOL0     C54002  10.057   8.698   6.330  0.0300  0.6108 -0.0807
  401MOL0     O54003  10.069   8.838   6.343 -0.3353  0.2038  0.0565
  401MOL0     C54004  10.154   8.906   6.259  0.4846 -1.3383 -0.2336
  401MOL0     C54005  10.269   8.865   6.179 -0.2817  0.4877 -0.9986
  401MOL0     C54006  10.338   8.953   6.098 -0.0606  0.2475 -0.8473
  401MOL0     C54007  10.297   9.090   6.086 -0.0696  0.1408  0.8956
  401MOL0     O54008  10.359   9.178   5.995  0.3723  0.2580 -0.6405
  401MOL0     C54009  10.460   9.129   5.904 -1.8406  0.1319 -0.5730
  401MOL0     C54010  10.545   9.243   5.857 -0.0692  0.3023  0.3385
  401MOL0     C54011  10.465   9.365   5.800  0.0580 -0.8906  0.1228
  401MOL0     C54012  10.563   9.489   5.785 -0.6214 -0.0058  0.5189
  401MOL0     C54013  10.644   9.473   5.653  0.0611  0.0155  0.6513
  401MOL0     C54014  10.754   9.583   5.658 -0.2151 -0.3635 -0.3105
  401MOL0     C54015  10.870   9.557   5.558  0.0644 -0.3090 -0.4621
  401MOL0     C54016  10.965   9.433   5.599  0.2565  0.5444  0.6493
  401MOL0     N54017  11.071   9.443   5.503 -0.5279 -0.0923  0.0511
  401MOL0     C54018  11.211   9.446   5.531  0.7525  0.5263  0.6005
  401MOL0     C54019  11.263   9.429   5.407 -0.8983  0.2225  0.0920
  401MOL0     C54020  11.415   9.420   5.391  0.3362 -0.6881  0.5626
  401MOL0     C54021  11.514   9.476   5.488 -0.3648 -0.2827 -0.4280
  401MOL0     C54022  11.659   9.462   5.431  0.5147 -0.4505  0.7705
  401MOL0     C54023  11.700   9.555   5.315 -0.6672  0.2659  0.0236
  401MOL0     O54024  11.821   9.513   5.254 -0.1678 -0.1330  0.2226
  401MOL0     C54025  11.867   9.588   5.149  0.1557  0.4915 -0.0337
  401MOL0     C54026  11.986   9.547   5.093  0.5159  0.4629  0.5392
  401MOL0     C54027  12.028   9.605   4.978  0.4435 -0.5569  0.4628
  401MOL0     C54028  11.967   9.722   4.928  0.0492 -0.1033  0.5770
  401MOL0     C54029  12.019   9.802   4.811 -0.3734  0.1685 -1.6285
  401MOL0     O54030  11.958   9.915   4.775  0.5325  0.6700  0.0866
  401MOL0     C54031  11.977   9.975   4.654 -0.4293 -0.7432 -0.2601
  401MOL0     C54032  11.866  10.062   4.622  0.2134 -0.8600  0.1429
  401MOL0     C54033  11.853  10.125   4.500  1.1828 -0.7007 -0.0874
  401MOL0     C54034  11.966  10.113   4.417  0.0412 -0.1749 -0.6067
  401MOL0     O54035  11.986  10.187   4.312  0.5476 -0.5813  0.0501
  401MOL0     C54036  11.946  10.329   4.320  0.7553 -0.4992 -0.3090
  401MOL0     C54037  11.957  10.379   4.170  0.5160 -0.1832 -0.2667
  401MOL0     C54038  11.921  10.527   4.155  0.6581  0.3618  1.4091
  401MOL0     C54039  11.930  10.576   4.004 -0.5689 -0.1852 -0.9656
  401MOL0     C54040  11.832  10.516   3.905 -0.3647 -0.2574  0.5173
  401MOL0     C54041  11.838  10.569   3.764  0.4625  0.6820 -0.0032
  401MOL0     C54042  11.779  10.710   3.753 -0.2180  0.0251  0.7085
  401MOL0     C54043  11.707  10.742   3.616  0.6183 -0.2737  0.6188
  401MOL0    Cl54044  11.669  10.910   3.615  0.2939 -0.0198  0.0472
  401MOL0     C54045  12.076  10.019   4.441  0.3371 -0.6104  0.3749
  401MOL0     C54046  12.082   9.950   4.563  0.1417 -0.3213 -0.6273
  401MOL0     O54047  12.113   9.745   4.756  0.2414  0.3113 -0.5175
  401MOL0     C54048  11.856   9.772   4.986  0.5729 -0.2376  0.3757
  401MOL0     C54049  11.805   9.697   5.093  0.6480 -0.6877  0.3812
  401MOL0     N54050  11.169   9.416   5.309 -0.3889 -0.3402  1.0996
  401MOL0     N54051  11.050   9.412   5.372 -0.1781  0.4229 -0.4470
  401MOL0     C54052  10.190   9.133   6.159 -0.1316 -0.1045  0.2862
  401MOL0     C54053  10.125   9.039   6.240  0.5220 -0.8891  0.0104
  401MOL0     C54054   9.977   8.639   6.432  0.6106  0.7851  0.1307
  401MOL0     C54055   9.971   8.701   6.560 -0.7968 -1.0385  0.4813
  401MOL0     C54056   9.876   8.663   6.659  0.5195 -0.3624  0.7798
  401MOL0     C54057   9.795   8.552   6.626 -0.1959  0.0074 -0.5447
  401MOL0     O54058   9.694   8.497   6.709 -0.2774  0.6172  0.1748
  401MOL0     C54059   9.686   8.565   6.834 -0.3150  0.3396  0.2952
  401MOL0     C54060   9.561   8.531   6.917  0.4848 -0.0486 -0.3277
  401MOL0     C54061   9.536   8.387   6.912  0.0098  0.7971 -0.4384
  401MOL0     C54062   9.439   8.353   7.027  1.1294 -0.1218 -0.0179
  401MOL0     C54063   9.293   8.373   6.993  0.1260 -0.3474  0.6308
  401MOL0     C54064   9.183   8.405   6.953 -0.2070 -1.1262  0.4726
  401MOL0     C54065   9.807   8.477   6.508  0.0602  0.4895 -0.4728
  401MOL0     C54066   9.898   8.520   6.408  0.3328  0.2517 -0.4262
  401MOL0     C54067   9.896   8.434   6.283  0.2251 -0.7158 -0.5981
  401MOL0     H54068  10.300   8.762   6.167 -3.1412 -0.8143  1.3729
  401MOL0     H54069  10.410   8.906   6.032 -2.2663  0.9650 -3.9727
  401MOL0     H54070  10.519   9.044   5.940 -0.6930  0.0553 -2.4875
  401MOL0     H54071  10.409   9.094   5.814 -0.3451 -1.8489 -0.7087
  401MOL0     H54072  10.613   9.211   5.778  0.8236  0.3914  1.0574
  401MOL0     H54073  10.604   9.280   5.941 -0.6394  1.8465  0.0987
  401MOL0     H54074  10.380   9.388   5.865  0.1464 -3.4749  1.2499
  401MOL0     H54075  10.424   9.335   5.703 -1.7893 -0.9664  0.8992
  401MOL0     H54076  10.516   9.588   5.781 -1.7972 -0.5966 -1.5217
  401MOL0     H54077  10.622   9.488   5.877 -0.5314 -1.2921  0.4611
  401MOL0     H54078  10.693   9.375   5.643 -1.0736 -0.4507 -0.8881
  401MOL0     H54079  10.582   9.486   5.563  1.1769 -0.8328 -0.2789
  401MOL0     H54080  10.702   9.679   5.658  3.9227  2.1080  0.3396
  401MOL0     H54081  10.804   9.574   5.755  0.9682 -0.6726 -0.9399
  401MOL0     H54082  10.940   9.641   5.566 -0.2157 -0.0747 -0.4462
  401MOL0     H54083  10.833   9.552   5.455 -1.8710  2.8034 -0.0640
  401MOL0     H54084  10.997   9.434   5.703 -0.4321  4.1500  0.9645
  401MOL0     H54085  10.911   9.341   5.574  0.8880  0.8037 -2.0090
  401MOL0     H54086  11.262   9.466   5.625 -2.2820  3.9323  1.7426
  401MOL0     H54087  11.434   9.314   5.368  1.2456 -0.6457  1.0817
  401MOL0     H54088  11.435   9.470   5.296 -0.7617  1.7995  1.5578
  401MOL0     H54089  11.493   9.582   5.500  3.1584  0.8199 -2.6705
  401MOL0     H54090  11.510   9.432   5.588 -2.3176  1.6997  0.4370
  401MOL0     H54091  11.671   9.358   5.401 -2.1472 -1.2382  2.0675
  401MOL0     H54092  11.724   9.468   5.519  1.5864  0.1433 -0.0456
  401MOL0     H54093  11.715   9.656   5.354  1.7623 -0.6445  1.7258
  401MOL0     H54094  11.620   9.570   5.242  0.6815 -1.3633 -1.8980
  401MOL0     H54095  12.049   9.474   5.142 -0.6438 -0.2155  1.0726
  401MOL0     H54096  12.113   9.563   4.925 -0.5059  0.7160 -2.2533
  401MOL0     H54097  11.795  10.084   4.701 -0.4833  3.7415 -1.4815
  401MOL0     H54098  11.766  10.188   4.484  0.5103 -1.3648  0.8260
  401MOL0     H54099  11.840  10.343   4.345 -0.1996 -3.2541 -2.3102
  401MOL0     H54100  12.019  10.386   4.378  2.3176 -2.1140 -0.6199
  401MOL0     H54101  12.061  10.369   4.139  0.7007 -1.3417  0.6740
  401MOL0     H54102  11.900  10.313   4.103  1.5775  0.4744 -1.8934
  401MOL0     H54103  11.814  10.538   4.172  0.2103  1.0695 -1.3731
  401MOL0     H54104  11.979  10.587   4.226  0.8949 -0.5621  2.0121
  401MOL0     H54105  12.022  10.536   3.962  1.1459  0.3915  1.9648
  401MOL0     H54106  11.931  10.684   3.988 -2.5578 -0.6223 -5.7544
  401MOL0     H54107  11.730  10.528   3.943 -0.4983  1.2405 -0.2181
  401MOL0     H54108  11.846  10.409   3.887  2.5063  0.0286  0.7151
  401MOL0     H54109  11.941  10.574   3.727  1.4816  0.6760  2.5859
  401MOL0     H54110  11.791  10.496   3.698 -2.7980  0.3968  2.3813
  401MOL0     H54111  11.860  10.781   3.773  0.5239  0.0733 -2.0386
  401MOL0     H54112  11.707  10.718   3.834 -0.6972  1.9844  0.1432
  401MOL0     H54113  11.775  10.733   3.532 -0.4630 -1.2285 -0.1835
  401MOL0     H54114  11.620  10.676   3.610  1.8805 -1.8317 -1.7443
  401MOL0     H54115  12.157  10.011   4.369 -0.5758  1.6328 -1.0229
  401MOL0     H54116  12.167   9.887   4.587  0.9253  1.4431  1.6057
  401MOL0     H54117  11.809   9.866   4.958 -0.4542 -1.2316 -1.5248
  401MOL0     H54118  11.715   9.744   5.132 -1.6217 -1.6608 -3.1493
  401MOL0     H54119  10.157   9.235   6.144 -1.0789 -0.2676  1.2163
  401MOL0     H54120  10.052   9.088   6.303 -0.0003  0.0075 -1.2492
  401MOL0     H54121  10.047   8.768   6.599 -0.3338 -2.8894  3.0304
  401MOL0     H54122   9.871   8.715   6.754 -0.6798  1.5049 -0.2372
  401MOL0     H54123   9.702   8.673   6.836  1.0930  0.1563  0.1324
  401MOL0     H54124   9.771   8.518   6.884 -0.9818 -4.1037 -2.1787
  401MOL0     H54125   9.477   8.594   6.886 -1.1532 -1.3885  1.1358
  401MOL0     H54126   9.572   8.563   7.021  0.2288  0.3519 -0.4194
  401MOL0     H54127   9.627   8.331   6.937 -0.8911 -2.1155 -3.0399
  401MOL0     H54128   9.493   8.360   6.815  4.9325 -1.7797 -2.2509
  401MOL0     H54129   9.448   8.252   7.068  1.1516 -1.1356 -2.3954
  401MOL0     H54130   9.464   8.417   7.112 -3.8412  2.6837 -0.2471
  401MOL0     H54131   9.082   8.419   6.919  0.0683 -1.2401 -0.4122
  401MOL0     H54132   9.745   8.391   6.488 -1.0282  1.2345 -0.3970
  401MOL0     H54133   9.994   8.387   6.293  1.3875  1.8261  1.0248
  401MOL0     H54134   9.806   8.372   6.275 -2.4245  2.6405  0.8838
  401MOL0     H54135   9.906   8.494   6.192  0.1189  2.1349  1.1562
  402MOL0     O54136   3.838   7.933   9.097  0.3732 -0.8841 -0.0529
  402MOL0     C54137   3.903   7.895   9.000  0.5020 -0.4358 -0.2158
  402MOL0     O54138   3.855   7.876   8.883  0.2053 -0.0261 -0.2054
  402MOL0     C54139   3.716   7.876   8.887  0.6829 -0.9088  0.0792
  402MOL0     C54140   3.639   7.788   8.955  0.5278  0.2969 -0.5867
  402MOL0     C54141   3.494   7.781   8.938 -0.3000  0.5967 -1.0389
  402MOL0     C54142   3.427   7.874   8.855 -0.1177  0.8003  0.1561
  402MOL0     O54143   3.291   7.885   8.833  0.3086  0.6182 -0.3719
  402MOL0     C54144   3.220   7.829   8.942 -0.7222  0.0408  0.8284
  402MOL0     C54145   3.071   7.876   8.919  0.2576  0.2037  0.3276
  402MOL0     C54146   2.965   7.802   9.003  0.1072 -1.1370 -0.2911
  402MOL0     C54147   2.969   7.845   9.153 -0.3539 -1.1798  0.7202
  402MOL0     C54148   2.856   7.798   9.242  0.4662  0.0880  0.5470
  402MOL0     C54149   2.839   7.639   9.244 -0.3072 -0.4105 -0.2558
  402MOL0     C54150   2.723   7.616   9.343 -0.5170 -0.0115  0.7106
  402MOL0     C54151   2.690   7.470   9.360  0.8025 -0.7621 -0.6745
  402MOL0     N54152   2.552   7.438   9.311 -0.0489 -0.8563  0.4386
  402MOL0     C54153   2.455   7.371   9.382 -0.3662  1.0018 -0.8610
  402MOL0     C54154   2.355   7.335   9.300  0.0962  0.0165 -0.4778
  402MOL0     C54155   2.227   7.257   9.340  0.4429  0.5277  1.4416
  402MOL0     C54156   2.247   7.101   9.327 -0.6144  0.4219 -0.6975
  402MOL0     C54157   2.374   7.044   9.398  0.3455  0.3833 -0.3021
  402MOL0     C54158   2.377   6.891   9.412 -0.3579 -0.3248  0.0266
  402MOL0     O54159   2.286   6.842   9.511 -0.0306  0.6494 -1.0369
  402MOL0     C54160   2.325   6.835   9.644  0.6053 -0.3160  0.0425
  402MOL0     C54161   2.439   6.906   9.702  1.0143  0.0393  0.3232
  402MOL0     C54162   2.473   6.892   9.835 -0.1261  0.1569  0.3794
  402MOL0     C54163   2.389   6.810   9.916  0.5428  0.6306 -0.1070
  402MOL0     C54164   2.427   6.777  10.059  0.4889 -0.3771 -0.0825
  402MOL0     O54165   2.360   6.683  10.127  0.4115 -0.7087  0.9262
  402MOL0     C54166   2.378   6.626  10.249 -0.0168 -0.1165  0.3435
  402MOL0     C54167   2.499   6.625  10.310 -0.0546 -0.1628  0.3388
  402MOL0     C54168   2.525   6.554  10.427 -0.3451 -0.3304 -0.6022
  402MOL0     C54169   2.429   6.473  10.489  0.7783 -0.1201 -0.1733
  402MOL0     O54170   2.447   6.394  10.598  0.2941  0.7333  0.7476
  402MOL0     C54171   2.566   6.391  10.670 -0.4063  0.2378  1.0321
  402MOL0     C54172   2.538   6.307  10.797  0.5606 -0.5814 -0.1519
  402MOL0     C54173   2.472   6.180  10.750 -0.4845 -0.2629 -0.2584
  402MOL0     C54174   2.451   6.086  10.868  1.0278 -0.2644  1.3663
  402MOL0     C54175   2.369   5.957  10.840 -0.7525  0.6458  0.3122
  402MOL0     C54176   2.379   5.851  10.952  0.2510  0.3062  0.3814
  402MOL0     C54177   2.285   5.868  11.080 -0.8763 -0.8785  0.1000
  402MOL0     C54178   2.339   5.807  11.201  0.4428  0.7261 -0.6546
  402MOL0    Cl54179   2.512   5.842  11.222 -0.0983  0.0942  0.1774
  402MOL0     C54180   2.307   6.468  10.423  0.2126 -0.6149  0.0794
  402MOL0     C54181   2.269   6.548  10.309 -0.3381  0.4793 -0.1867
  402MOL0     O54182   2.521   6.839  10.100  0.1962  0.3458  0.1864
  402MOL0     C54183   2.276   6.738   9.862 -0.3157 -0.3958 -0.0940
  402MOL0     C54184   2.244   6.749   9.731  0.0480  0.8837 -0.2139
  402MOL0     N54185   2.381   7.389   9.184 -0.8377  0.2296 -0.0343
  402MOL0     N54186   2.501   7.437   9.181 -0.0686  0.5685  0.1903
  402MOL0     C54187   3.510   7.973   8.802  1.0055  0.1644 -0.0034
  402MOL0     C54188   3.647   7.974   8.812 -1.2319  0.6343  0.1011
  402MOL0     C54189   4.053   7.882   9.023  0.1810  0.5959 -0.9087
  402MOL0     C54190   4.134   7.930   8.920  0.2510 -0.0079 -1.0007
  402MOL0     C54191   4.269   7.944   8.938  0.5415  0.9159  0.7278
  402MOL0     C54192   4.330   7.887   9.053 -0.0910  0.9313  0.5196
  402MOL0     O54193   4.468   7.864   9.055  0.5322  0.4329  0.3710
  402MOL0     C54194   4.516   7.746   8.991  0.7150  0.2112 -0.9455
  402MOL0     C54195   4.543   7.633   9.098  0.5981  0.1486  0.0600
  402MOL0     C54196   4.598   7.675   9.231 -0.0325 -0.3374  0.4528
  402MOL0     C54197   4.597   7.557   9.324  0.0126  0.2359  0.1015
  402MOL0     C54198   4.720   7.481   9.313 -0.3639 -0.9967  0.0461
  402MOL0     C54199   4.821   7.406   9.316  0.1548  0.4102  0.2864
  402MOL0     C54200   4.250   7.832   9.161 -0.2434 -0.6117 -0.3314
  402MOL0     C54201   4.107   7.853   9.157 -0.1966  0.3809  1.0595
  402MOL0     C54202   4.017   7.803   9.275 -0.1294 -0.4918  0.4815
  402MOL0     H54203   3.690   7.715   9.018 -0.0467  1.8507  1.8311
  402MOL0     H54204   3.445   7.701   8.994 -0.5627  0.4925 -1.4131
  402MOL0     H54205   3.224   7.720   8.935 -0.9707  0.1558 -3.4427
  402MOL0     H54206   3.258   7.853   9.042  0.5635  0.4940  0.2479
  402MOL0     H54207   3.048   7.862   8.813 -0.6274  2.2222  0.2120
  402MOL0     H54208   3.070   7.984   8.930 -0.4749  0.1527  0.8115
  402MOL0     H54209   2.967   7.693   9.000  2.8074 -1.3887  3.4020
  402MOL0     H54210   2.870   7.823   8.953 -0.0554 -1.1396  0.0121
  402MOL0     H54211   3.064   7.813   9.196 -0.9413 -1.3852  1.9110
  402MOL0     H54212   2.961   7.954   9.159  2.5016 -0.8811  0.6274
  402MOL0     H54213   2.872   7.847   9.339 -0.9900  1.3528  0.1746
  402MOL0     H54214   2.763   7.840   9.203  1.6752  2.7048  0.1978
  402MOL0     H54215   2.801   7.591   9.154 -1.4295 -3.1323  1.5409
  402MOL0     H54216   2.929   7.582   9.270  0.3514  0.2960 -0.9383
  402MOL0     H54217   2.633   7.667   9.307  1.4931  3.3729  0.0529
  402MOL0     H54218   2.740   7.654   9.445  0.2831  0.9908  0.2210
  402MOL0     H54219   2.756   7.413   9.295 -0.1347 -1.4899 -1.0018
  402MOL0     H54220   2.699   7.438   9.464 -3.3593  2.7310  1.0846
  402MOL0     H54221   2.464   7.339   9.486  2.0341  1.7084 -0.7754
  402MOL0     H54222   2.184   7.282   9.437  0.4868  2.6527  0.9611
  402MOL0     H54223   2.145   7.295   9.278  0.7892  1.8364  1.7539
  402MOL0     H54224   2.162   7.038   9.354  0.9415 -1.3299  0.3406
  402MOL0     H54225   2.272   7.085   9.221  1.1578 -1.6210 -0.0405
  402MOL0     H54226   2.378   7.095   9.495  1.3737 -4.7360  2.6924
  402MOL0     H54227   2.463   7.077   9.344  0.7853 -0.0463  0.1447
  402MOL0     H54228   2.481   6.863   9.433  0.6986  3.0999 -0.0253
  402MOL0     H54229   2.353   6.844   9.316  3.1645 -0.8438 -0.7225
  402MOL0     H54230   2.491   6.977   9.638 -2.3384  0.6423 -1.9853
  402MOL0     H54231   2.557   6.953   9.867  2.3111 -1.5796 -2.1805
  402MOL0     H54232   2.581   6.674  10.258 -2.1824  4.0553  0.4484
  402MOL0     H54233   2.625   6.556  10.469 -0.4530  1.6888 -0.3321
  402MOL0     H54234   2.638   6.338  10.608  1.3944  1.2593  2.1579
  402MOL0     H54235   2.609   6.489  10.695 -1.5649  0.8453  0.7403
  402MOL0     H54236   2.619   6.271  10.861  1.3319 -0.9965 -1.3200
  402MOL0     H54237   2.459   6.359  10.851 -1.1594 -1.5165 -1.6648
  402MOL0     H54238   2.366   6.188  10.728 -1.1688 -0.3600  2.6203
  402MOL0     H54239   2.524   6.126  10.671  0.9600  2.5902 -1.3986
  402MOL0     H54240   2.395   6.136  10.947  1.0893 -0.9849  1.8737
  402MOL0     H54241   2.551   6.058  10.902  2.3781  1.2600 -1.0070
  402MOL0     H54242   2.378   5.915  10.740 -2.8926  1.7883 -0.4292
  402MOL0     H54243   2.262   5.981  10.845 -0.6701  0.8647  1.1720
  402MOL0     H54244   2.361   5.754  10.905 -0.4583 -0.3887  1.9959
  402MOL0     H54245   2.484   5.852  10.981 -0.0826  0.9696  1.6441
  402MOL0     H54246   2.192   5.813  11.065 -1.6149  0.3904 -0.0939
  402MOL0     H54247   2.265   5.973  11.102 -0.4309 -0.4637 -1.3554
  402MOL0     H54248   2.272   5.828  11.285  0.3057 -0.4361 -0.4501
  402MOL0     H54249   2.327   5.699  11.188  0.9211  0.5894 -0.0202
  402MOL0     H54250   2.232   6.402  10.467 -2.5117  1.0415 -1.7677
  402MOL0     H54251   2.177   6.554  10.252 -0.1452  2.2821 -0.3649
  402MOL0     H54252   2.216   6.674   9.927 -0.5975  0.8476  0.9287
  402MOL0     H54253   2.168   6.688   9.684  0.7081  0.3524 -0.6060
  402MOL0     H54254   3.457   8.032   8.728 -0.1846 -2.0842 -1.0489
  402MOL0     H54255   3.698   8.043   8.746 -1.6016 -0.8598 -1.8367
  402MOL0     H54256   4.076   7.965   8.835  0.7838  2.0949 -0.5579
  402MOL0     H54257   4.320   7.990   8.854 -2.3639  0.2133 -1.5936
  402MOL0     H54258   4.599   7.780   8.929  2.0374  0.0224  0.6585
  402MOL0     H54259   4.441   7.715   8.918 -2.6388 -0.8850  2.6260
  402MOL0     H54260   4.603   7.556   9.049  1.3999  0.7662  0.0527
  402MOL0     H54261   4.447   7.582   9.105  1.3417 -1.1751  1.1087
  402MOL0     H54262   4.538   7.755   9.275 -0.5465  0.2315 -1.2333
  402MOL0     H54263   4.703   7.707   9.224 -0.0199 -0.6440 -0.8650
  402MOL0     H54264   4.588   7.581   9.431  0.9227  0.0179  0.2348
  402MOL0     H54265   4.518   7.489   9.292  0.6590 -0.3989 -0.1754
  402MOL0     H54266   4.909   7.344   9.322  3.9914  5.2750  0.4910
  402MOL0     H54267   4.302   7.779   9.241 -0.5713  0.3556  0.5399
  402MOL0     H54268   3.987   7.892   9.330  0.6786 -0.2276  0.5085
  402MOL0     H54269   3.926   7.748   9.249 -0.4801  0.3428 -0.0995
  402MOL0     H54270   4.074   7.750   9.352 -1.1667 -0.1974  1.4740
  403MOL0     O54271   7.194   3.889   5.602 -0.1087  0.3883 -0.4005
  403MOL0     C54272   7.098   3.838   5.564  0.6134 -0.2567  0.2353
  403MOL0     O54273   6.966   3.880   5.592  0.6440  0.4826 -0.8602
  403MOL0     C54274   6.938   3.996   5.664 -1.5361  0.4082 -0.7123
  403MOL0     C54275   6.855   3.981   5.773  0.3031  0.1078 -0.5629
  403MOL0     C54276   6.836   4.093   5.862 -0.0349 -0.6983  0.2672
  403MOL0     C54277   6.880   4.220   5.824  0.7871  0.2548  0.0500
  403MOL0     O54278   6.835   4.335   5.891  0.6204  0.1667  0.1649
  403MOL0     C54279   6.846   4.343   6.037 -0.0881  0.3272  0.6710
  403MOL0     C54280   6.814   4.481   6.101  0.5151  0.0983 -0.2373
  403MOL0     C54281   6.773   4.455   6.245 -1.1938 -0.3419  1.3107
  403MOL0     C54282   6.760   4.592   6.308 -0.1903  0.0806 -0.5254
  403MOL0     C54283   6.745   4.574   6.460 -0.0941 -0.5748  0.0556
  403MOL0     C54284   6.884   4.582   6.531 -0.3076 -0.0917 -0.4027
  403MOL0     C54285   6.872   4.542   6.680  0.4109 -0.3121  0.1578
  403MOL0     C54286   6.822   4.653   6.773  0.3264 -0.4175  0.5998
  403MOL0     N54287   6.856   4.647   6.918 -0.0576  0.5064  0.6060
  403MOL0     C54288   6.966   4.581   6.962  0.3500 -0.2974 -0.7119
  403MOL0     C54289   6.935   4.551   7.091 -0.0316  0.4847 -0.1283
  403MOL0     C54290   7.022   4.496   7.208 -0.7916 -1.1381  0.7721
  403MOL0     C54291   7.081   4.614   7.290 -0.5203 -0.7750 -0.2239
  403MOL0     C54292   7.181   4.573   7.395 -0.1355 -0.2749 -0.5547
  403MOL0     C54293   7.286   4.684   7.443  0.4466  0.2524 -0.0681
  403MOL0     O54294   7.207   4.790   7.495  0.0282 -1.0701 -0.5184
  403MOL0     C54295   7.264   4.924   7.502  0.2191 -0.1703  0.7025
  403MOL0     C54296   7.191   5.014   7.575 -0.1053 -0.8522 -0.6772
  403MOL0     C54297   7.218   5.148   7.556  0.5856 -0.6236  1.0590
  403MOL0     C54298   7.326   5.198   7.489 -0.1001  0.6725  0.9598
  403MOL0     C54299   7.364   5.337   7.477  0.2756 -0.3438  0.1087
  403MOL0     O54300   7.273   5.425   7.525 -0.5800 -0.2002 -0.1450
  403MOL0     C54301   7.306   5.559   7.552  0.1308  1.2784 -0.5024
  403MOL0     C54302   7.397   5.631   7.479  0.3929  0.0478 -0.3636
  403MOL0     C54303   7.427   5.766   7.509 -0.7259 -0.3804 -0.4278
  403MOL0     C54304   7.378   5.831   7.618  0.1345 -0.3140  0.0205
  403MOL0     O54305   7.424   5.950   7.658  0.4471  0.0207  0.0222
  403MOL0     C54306   7.332   6.056   7.628 -0.3343 -0.8218 -0.0625
  403MOL0     C54307   7.393   6.190   7.674 -0.2141 -0.7332 -0.9068
  403MOL0     C54308   7.324   6.316   7.648  0.5176 -0.0028 -1.3893
  403MOL0     C54309   7.422   6.429   7.656 -0.1929 -0.3262 -0.1318
  403MOL0     C54310   7.359   6.561   7.622 -0.0267 -0.5717  0.1173
  403MOL0     C54311   7.456   6.674   7.636  0.2481 -0.0398  0.8229
  403MOL0     C54312   7.562   6.670   7.525 -0.2262  0.7702 -0.7851
  403MOL0     C54313   7.708   6.682   7.573 -0.2080 -0.5257 -0.1350
  403MOL0    Cl54314   7.724   6.811   7.686 -0.1732 -0.2074  0.3291
  403MOL0     C54315   7.290   5.763   7.691  0.2747 -0.0742 -0.4317
  403MOL0     C54316   7.257   5.626   7.660  0.1269 -0.5427 -0.3977
  403MOL0     O54317   7.468   5.365   7.423 -0.1684 -0.2923 -0.1237
  403MOL0     C54318   7.419   5.102   7.436 -0.8768  0.6239  0.0926
  403MOL0     C54319   7.383   4.964   7.450 -0.6015 -0.0879  1.4780
  403MOL0     N54320   6.804   4.597   7.115 -0.4225  0.4268  0.0340
  403MOL0     N54321   6.761   4.661   7.013 -0.1675 -0.7887 -0.8095
  403MOL0     C54322   6.948   4.234   5.707  0.5782  0.5801 -0.4839
  403MOL0     C54323   6.981   4.124   5.626  0.1292  1.3237  0.3252
  403MOL0     C54324   7.112   3.725   5.468 -0.7283  0.3281  0.3036
  403MOL0     C54325   6.995   3.643   5.446 -0.8264 -0.7847 -0.4577
  403MOL0     C54326   6.992   3.541   5.356  0.6424  1.3636 -0.2215
  403MOL0     C54327   7.109   3.508   5.282 -0.5299  1.0667 -0.1580
  403MOL0     O54328   7.123   3.401   5.197 -0.4800  0.6325  0.7980
  403MOL0     C54329   7.021   3.375   5.092 -0.5355  0.2044 -0.9432
  403MOL0     C54330   6.955   3.235   5.110 -0.3311  0.5942  0.4023
  403MOL0     C54331   6.830   3.216   5.211 -0.9506 -0.2357  0.5400
  403MOL0     C54332   6.806   3.071   5.243 -0.0710  0.7623  1.0579
  403MOL0     C54333   6.676   3.053   5.309 -0.8136  0.1853 -0.0101
  403MOL0     C54334   6.565   3.049   5.361 -0.3404  0.5527 -0.2915
  403MOL0     C54335   7.218   3.583   5.308  0.0072  0.6004  0.2109
  403MOL0     C54336   7.233   3.677   5.406  0.6563 -0.0603  0.9319
  403MOL0     C54337   7.370   3.727   5.446 -0.7679  0.0985  0.2235
  403MOL0     H54338   6.825   3.890   5.823  0.8826 -0.3018 -0.9430
  403MOL0     H54339   6.766   4.087   5.946 -0.5629 -2.0699 -0.2395
  403MOL0     H54340   6.770   4.274   6.074 -0.3633  1.0639  1.4895
  403MOL0     H54341   6.944   4.309   6.072  1.0770  0.3592 -2.2396
  403MOL0     H54342   6.726   4.521   6.050 -0.2884 -0.3465  0.7772
  403MOL0     H54343   6.905   4.540   6.083 -0.6447  1.1509 -3.3510
  403MOL0     H54344   6.854   4.404   6.298  1.7517  1.5429 -1.0271
  403MOL0     H54345   6.680   4.396   6.248 -1.6653  0.2260 -0.6736
  403MOL0     H54346   6.846   4.656   6.289 -0.3113  0.3539 -0.1701
  403MOL0     H54347   6.671   4.639   6.265  1.7041  3.0093 -1.5481
  403MOL0     H54348   6.683   4.645   6.515  1.8395 -0.8074  2.7468
  403MOL0     H54349   6.701   4.477   6.485 -0.9441 -0.5318 -1.2052
  403MOL0     H54350   6.955   4.509   6.491 -3.1636 -3.4155  0.1451
  403MOL0     H54351   6.929   4.682   6.525  2.0278 -1.0801 -0.4321
  403MOL0     H54352   6.971   4.510   6.712  0.4832  1.1445  1.5299
  403MOL0     H54353   6.819   4.446   6.683  0.5515 -0.4841 -1.8736
  403MOL0     H54354   6.871   4.736   6.722  4.2603 -3.2172 -0.6263
  403MOL0     H54355   6.713   4.656   6.762  0.2471 -3.8390 -0.7364
  403MOL0     H54356   7.055   4.561   6.902 -0.5221 -0.2224 -2.0692
  403MOL0     H54357   6.955   4.436   7.270 -0.9082 -1.0832  0.7012
  403MOL0     H54358   7.101   4.441   7.157  1.1838  1.7953  0.4447
  403MOL0     H54359   7.141   4.677   7.225  4.6266 -2.8767  1.9465
  403MOL0     H54360   6.993   4.659   7.337 -0.8904  1.4076 -2.7875
  403MOL0     H54361   7.244   4.494   7.353 -0.7724 -1.5919  0.8804
  403MOL0     H54362   7.134   4.536   7.486 -1.0550  0.8828 -0.5334
  403MOL0     H54363   7.344   4.716   7.356  0.2876  0.0210 -0.2606
  403MOL0     H54364   7.349   4.655   7.527  0.2665  0.5925  0.1900
  403MOL0     H54365   7.106   4.981   7.634 -1.1702  1.4099 -0.8248
  403MOL0     H54366   7.152   5.220   7.602  2.5170 -0.0662  3.1486
  403MOL0     H54367   7.433   5.587   7.386  1.9006 -1.2708  0.7847
  403MOL0     H54368   7.500   5.818   7.447 -0.4801  3.5361  2.7310
  403MOL0     H54369   7.311   6.059   7.520 -0.2527 -3.9194 -0.2416
  403MOL0     H54370   7.235   6.047   7.677 -0.3909  0.2262  0.0546
  403MOL0     H54371   7.420   6.176   7.779  0.0806 -1.1869 -1.0388
  403MOL0     H54372   7.493   6.200   7.629  0.1838 -1.3481 -0.1956
  403MOL0     H54373   7.269   6.319   7.553 -0.9903 -2.5795 -0.6842
  403MOL0     H54374   7.247   6.332   7.725 -0.7914 -0.7175 -2.5027
  403MOL0     H54375   7.511   6.401   7.599 -1.1784  0.2696 -2.0909
  403MOL0     H54376   7.441   6.439   7.763  4.5569  1.7617 -0.9074
  403MOL0     H54377   7.275   6.569   7.692 -0.4765 -0.9011 -0.3823
  403MOL0     H54378   7.324   6.554   7.519  2.5329  3.0550 -1.2119
  403MOL0     H54379   7.403   6.770   7.628 -1.8059 -1.1720 -0.0655
  403MOL0     H54380   7.494   6.673   7.738 -1.8551  1.5422  1.7106
  403MOL0     H54381   7.536   6.741   7.445 -4.1791 -1.5872 -1.9119
  403MOL0     H54382   7.556   6.584   7.457 -3.3372  0.4772 -0.3248
  403MOL0     H54383   7.736   6.585   7.614  0.3036 -0.6501 -0.7639
  403MOL0     H54384   7.772   6.702   7.487 -3.7779 -0.1930 -2.9728
  403MOL0     H54385   7.230   5.809   7.769  2.7841  1.3632  0.7621
  403MOL0     H54386   7.189   5.559   7.713  0.1823 -2.7389 -2.8925
  403MOL0     H54387   7.512   5.126   7.386 -0.0504 -1.2226  0.6323
  403MOL0     H54388   7.460   4.894   7.418  0.6055  1.5053  0.7115
  403MOL0     H54389   6.961   4.336   5.674  1.5080  0.0745 -1.7843
  403MOL0     H54390   7.044   4.130   5.538 -3.7276 -2.9848 -3.2816
  403MOL0     H54391   6.903   3.654   5.503 -0.5999 -0.2474 -0.1904
  403MOL0     H54392   6.902   3.481   5.350  0.2085  1.5076  2.8883
  403MOL0     H54393   7.073   3.369   4.996  0.9834  1.2485 -0.2185
  403MOL0     H54394   6.942   3.451   5.090 -0.4013  0.3621 -0.4211
  403MOL0     H54395   7.044   3.176   5.135  0.2171  0.8908 -0.7823
  403MOL0     H54396   6.936   3.205   5.007  3.3849  1.5146 -0.7045
  403MOL0     H54397   6.746   3.256   5.154  0.0774 -0.3009 -1.0883
  403MOL0     H54398   6.848   3.267   5.306  3.6018 -1.4549  0.5664
  403MOL0     H54399   6.810   3.009   5.153 -1.9724 -1.1710  2.2202
  403MOL0     H54400   6.884   3.037   5.312 -1.0608  1.8225  2.7537
  403MOL0     H54401   6.476   3.052   5.422 -0.4636 -0.3295 -0.4209
  403MOL0     H54402   7.310   3.541   5.269  0.3006 -0.4513  1.9405
  403MOL0     H54403   7.398   3.695   5.547 -1.5101  0.6499  0.6136
  403MOL0     H54404   7.454   3.694   5.383 -0.3467 -2.4829  1.9567
  403MOL0     H54405   7.376   3.836   5.446  1.5054  0.0355  1.5198
  404MOL0     O54406  10.762   8.409   1.148 -1.0677  0.2783 -0.1837
  404MOL0     C54407  10.719   8.426   1.262  0.1984  0.2215  0.3679
  404MOL0     O54408  10.603   8.389   1.312  0.0439 -0.5804 -0.1425
  404MOL0     C54409  10.507   8.334   1.240  0.4465 -0.3353  0.6023
  404MOL0     C54410  10.411   8.250   1.309  0.5146  1.2542 -0.2591
  404MOL0     C54411  10.299   8.186   1.246 -0.4244  0.0717 -0.5759
  404MOL0     C54412  10.293   8.201   1.109  0.2310  0.2414 -0.0047
  404MOL0     O54413  10.197   8.133   1.045 -0.3396  0.0423  0.0868
  404MOL0     C54414  10.252   8.037   0.953  0.7120 -0.4230  0.2835
  404MOL0     C54415  10.184   7.905   0.981 -0.0249 -0.1224 -0.6659
  404MOL0     C54416  10.224   7.833   1.108  0.2574 -0.4039 -0.3120
  404MOL0     C54417  10.125   7.715   1.142  0.0142 -1.1172 -1.0079
  404MOL0     C54418  10.186   7.583   1.104 -0.9487 -1.0895 -0.4702
  404MOL0     C54419  10.286   7.539   1.215  0.1808 -0.3799 -0.3106
  404MOL0     C54420  10.339   7.406   1.170  1.7089 -0.0201 -0.1253
  404MOL0     C54421  10.468   7.356   1.238  0.2948 -0.1445 -0.4335
  404MOL0     N54422  10.463   7.322   1.380 -0.4134 -0.1931  1.4149
  404MOL0     C54423  10.476   7.190   1.429  0.6663 -0.7878 -0.8680
  404MOL0     C54424  10.412   7.207   1.549  0.1238 -0.0732 -1.1532
  404MOL0     C54425  10.401   7.093   1.651 -0.5120 -0.4994  0.5061
  404MOL0     C54426  10.288   7.010   1.610 -0.5997 -0.7082 -0.2414
  404MOL0     C54427  10.266   6.874   1.694  0.0266  0.0957  0.4060
  404MOL0     C54428  10.199   6.758   1.622 -0.4744 -0.2651  0.0508
  404MOL0     O54429  10.083   6.720   1.701 -0.2341  0.1471  0.1424
  404MOL0     C54430  10.030   6.592   1.678 -0.3406 -0.4606  0.1579
  404MOL0     C54431  10.046   6.518   1.557 -0.3155  0.1048 -1.7204
  404MOL0     C54432   9.978   6.397   1.532  0.2139 -0.6732  0.1481
  404MOL0     C54433   9.885   6.351   1.617 -0.4252  0.0747  0.5582
  404MOL0     C54434   9.806   6.233   1.590 -0.4913  1.4143  0.6099
  404MOL0     O54435   9.733   6.229   1.474  0.3705 -0.5711  1.0288
  404MOL0     C54436   9.685   6.104   1.446  0.4530  0.7392  0.2886
  404MOL0     C54437   9.729   6.030   1.331  0.1208  0.0513  0.0148
  404MOL0     C54438   9.677   5.909   1.299  0.7017  0.1342  0.2971
  404MOL0     C54439   9.584   5.844   1.383 -0.1198 -0.0599 -0.9605
  404MOL0     O54440   9.559   5.711   1.366  0.2768 -0.1211 -1.0088
  404MOL0     C54441   9.507   5.627   1.464  0.6550 -0.3207 -0.9595
  404MOL0     C54442   9.603   5.596   1.571 -1.1723 -0.4963 -0.7961
  404MOL0     C54443   9.731   5.530   1.532 -0.8328 -1.1557  0.6576
  404MOL0     C54444   9.710   5.392   1.455 -0.4536 -0.1354  0.6408
  404MOL0     C54445   9.842   5.343   1.401 -0.4973 -0.3757 -1.0734
  404MOL0     C54446   9.836   5.194   1.353  0.4799  0.2944  0.3412
  404MOL0     C54447   9.960   5.122   1.298 -0.1316 -0.1308  0.1422
  404MOL0     C54448   9.977   5.090   1.147 -0.5500  0.7526 -0.7125
  404MOL0    Cl54449  10.125   4.976   1.132  0.3455 -0.5925 -0.0815
  404MOL0     C54450   9.526   5.920   1.496 -0.0397  0.3197 -0.8604
  404MOL0     C54451   9.578   6.046   1.522  1.1640 -0.3385 -0.0393
  404MOL0     O54452   9.827   6.139   1.669  0.3640  0.5660 -0.6458
  404MOL0     C54453   9.866   6.412   1.740  0.0208 -0.3160  0.4431
  404MOL0     C54454   9.932   6.539   1.764 -0.1210  0.1477  0.1965
  404MOL0     N54455  10.370   7.328   1.579 -0.5500 -0.4012 -0.6693
  404MOL0     N54456  10.407   7.396   1.477 -0.0729 -0.1837  0.9436
  404MOL0     C54457  10.375   8.277   1.035 -1.1775  0.4858 -0.4010
  404MOL0     C54458  10.471   8.346   1.103 -0.2017 -0.1428 -0.2693
  404MOL0     C54459  10.806   8.488   1.362 -1.1828  0.2314  0.6645
  404MOL0     C54460  10.743   8.584   1.444 -0.3055  0.6182  0.6552
  404MOL0     C54461  10.823   8.655   1.533  0.1952 -0.2236 -0.6644
  404MOL0     C54462  10.960   8.639   1.542 -0.5459  0.2139 -0.6973
  404MOL0     O54463  11.027   8.701   1.642 -0.0354  0.5605 -0.3406
  404MOL0     C54464  10.967   8.802   1.726  0.8092 -0.9051 -0.1977
  404MOL0     C54465  10.911   8.744   1.854  0.3448 -0.2329  0.6452
  404MOL0     C54466  10.826   8.851   1.932 -1.6126 -0.2557  0.0910
  404MOL0     C54467  10.778   8.804   2.072  0.5340  0.7110 -0.1673
  404MOL0     C54468  10.885   8.834   2.163 -0.2024 -0.1321 -1.6442
  404MOL0     C54469  10.978   8.829   2.243  1.1340  0.3009  0.0340
  404MOL0     C54470  11.026   8.543   1.458 -0.7724 -0.6304  0.9178
  404MOL0     C54471  10.946   8.471   1.373  0.7151  0.1633  0.3436
  404MOL0     C54472  11.009   8.356   1.300  0.0402 -0.3260  0.6064
  404MOL0     H54473  10.430   8.251   1.416  0.7988  5.1001 -0.1861
  404MOL0     H54474  10.223   8.132   1.301  0.3349 -0.1439  0.2898
  404MOL0     H54475  10.231   8.072   0.852 -3.6205  1.9351  1.7387
  404MOL0     H54476  10.361   8.028   0.963  0.6192 -1.4091  0.5443
  404MOL0     H54477  10.191   7.839   0.894  0.3083 -0.0657 -0.6829
  404MOL0     H54478  10.076   7.923   0.983  0.0725  0.5921 -1.1582
  404MOL0     H54479  10.225   7.900   1.194  0.8767  0.0909 -0.6981
  404MOL0     H54480  10.330   7.811   1.092  0.9185  3.1921 -1.7594
  404MOL0     H54481  10.106   7.720   1.250  0.3093  1.8658 -1.0213
  404MOL0     H54482  10.026   7.742   1.104  0.1509  0.1239 -0.5322
  404MOL0     H54483  10.115   7.501   1.090  1.7333 -3.4815 -1.0655
  404MOL0     H54484  10.242   7.605   1.012 -2.7491 -0.6320 -1.4956
  404MOL0     H54485  10.361   7.619   1.217 -0.1786  0.2097  5.1392
  404MOL0     H54486  10.242   7.539   1.315 -1.2747  1.9609 -0.8787
  404MOL0     H54487  10.370   7.410   1.065  2.8295 -0.5434  0.1670
  404MOL0     H54488  10.259   7.335   1.190 -0.4212  2.2189 -0.3160
  404MOL0     H54489  10.501   7.268   1.183 -0.5461  0.3980 -1.8613
  404MOL0     H54490  10.538   7.439   1.221 -1.0181  1.4120  1.3379
  404MOL0     H54491  10.506   7.095   1.387  0.3177 -1.2902 -0.0003
  404MOL0     H54492  10.490   7.032   1.669  0.5173  0.5655 -0.6802
  404MOL0     H54493  10.388   7.141   1.748 -0.5895 -0.2833  0.3890
  404MOL0     H54494  10.198   7.069   1.633  0.9707  0.2662  4.3012
  404MOL0     H54495  10.300   6.986   1.504  1.7276  1.0843 -0.4579
  404MOL0     H54496  10.207   6.895   1.784  2.0046 -0.4648  1.8869
  404MOL0     H54497  10.361   6.843   1.738 -0.0553 -2.0692 -0.7918
  404MOL0     H54498  10.280   6.685   1.615  1.6927  1.8357  1.3324
  404MOL0     H54499  10.172   6.806   1.528 -2.2099 -0.1909  0.5413
  404MOL0     H54500  10.111   6.556   1.479 -0.5462 -1.4389 -2.6882
  404MOL0     H54501   9.992   6.331   1.447  3.2953 -1.5510  1.2026
  404MOL0     H54502   9.802   6.083   1.270 -0.2670  0.1451 -0.3721
  404MOL0     H54503   9.704   5.874   1.200  0.7410 -0.5794  0.5551
  404MOL0     H54504   9.420   5.674   1.512  1.3165  1.1094 -1.1087
  404MOL0     H54505   9.474   5.533   1.419  0.3818  0.3420 -2.1906
  404MOL0     H54506   9.630   5.686   1.627 -0.8399  0.1579 -1.9857
  404MOL0     H54507   9.554   5.528   1.642 -0.7835 -0.0782 -0.1128
  404MOL0     H54508   9.793   5.604   1.480 -1.0295 -0.9671  0.6877
  404MOL0     H54509   9.789   5.497   1.618  1.1607  1.1829  0.3274
  404MOL0     H54510   9.637   5.405   1.374  1.6914  2.9201 -0.9910
  404MOL0     H54511   9.678   5.309   1.519  3.1097 -3.8464 -1.8568
  404MOL0     H54512   9.923   5.351   1.474 -1.7763  0.6109  0.3046
  404MOL0     H54513   9.870   5.419   1.328 -1.4044  2.4480  1.3311
  404MOL0     H54514   9.804   5.127   1.433  0.3115 -1.4210 -1.0846
  404MOL0     H54515   9.772   5.192   1.264  0.9297 -2.7325 -0.0245
  404MOL0     H54516   9.944   5.026   1.348 -1.5031 -0.6097 -1.1637
  404MOL0     H54517  10.054   5.162   1.337  1.2900 -2.4308 -0.6805
  404MOL0     H54518   9.888   5.034   1.117 -0.7534 -0.9358  2.5560
  404MOL0     H54519   9.991   5.174   1.078  4.6750 -0.5355 -1.6410
  404MOL0     H54520   9.455   5.874   1.563  2.3828  0.1472  1.7645
  404MOL0     H54521   9.542   6.102   1.607 -0.6862 -1.2246 -0.1857
  404MOL0     H54522   9.787   6.387   1.810 -3.1314  2.0379 -1.9926
  404MOL0     H54523   9.894   6.599   1.846  0.6941  1.7827 -0.5748
  404MOL0     H54524  10.377   8.280   0.926 -1.0337 -3.8765 -0.6622
  404MOL0     H54525  10.525   8.412   1.037  1.1477 -0.1489  0.7852
  404MOL0     H54526  10.636   8.600   1.447 -0.2553  1.1037 -0.0587
  404MOL0     H54527  10.776   8.723   1.604  4.5412  0.8394  1.5596
  404MOL0     H54528  10.904   8.868   1.666  2.3449  0.2338 -0.6433
  404MOL0     H54529  11.049   8.871   1.750 -1.2557  1.1129  1.4252
  404MOL0     H54530  11.001   8.717   1.910  1.3635  0.2380 -0.7089
  404MOL0     H54531  10.858   8.649   1.841  3.1648 -2.0594  1.5119
  404MOL0     H54532  10.743   8.875   1.865 -0.2196  2.6537 -0.7920
  404MOL0     H54533  10.878   8.947   1.943 -2.3518 -0.0303  1.8732
  404MOL0     H54534  10.698   8.874   2.099  0.9846  1.2749 -0.2603
  404MOL0     H54535  10.748   8.699   2.071  2.3478  0.1472 -2.3133
  404MOL0     H54536  11.068   8.824   2.301  3.0545  2.2860 -2.5196
  404MOL0     H54537  11.132   8.522   1.472 -0.0578  1.2941 -0.9837
  404MOL0     H54538  10.946   8.266   1.307  1.2543 -1.2364  0.2200
  404MOL0     H54539  11.012   8.390   1.196  0.2574  2.0227  1.3371
  404MOL0     H54540  11.109   8.342   1.342 -0.0874  2.1309  1.8965
  405MOL0     O54541   6.940   9.326   1.223  0.5285  0.2462 -0.3302
  405MOL0     C54542   7.032   9.249   1.247 -0.8860 -0.3343 -0.0857
  405MOL0     O54543   7.031   9.132   1.319  0.9091 -0.5017  0.0345
  405MOL0     C54544   6.903   9.089   1.344  1.0615  0.6206 -0.0960
  405MOL0     C54545   6.815   9.055   1.238  0.6300  0.3611 -0.0397
  405MOL0     C54546   6.682   9.028   1.272 -1.0529 -0.0507  0.6101
  405MOL0     C54547   6.643   9.004   1.400 -0.9138 -0.3200  0.3932
  405MOL0     O54548   6.511   8.987   1.428 -0.1084 -0.5604  0.1779
  405MOL0     C54549   6.410   8.994   1.321 -0.6330  0.0755  0.2777
  405MOL0     C54550   6.273   8.990   1.391  0.5666 -0.6366 -0.1445
  405MOL0     C54551   6.260   8.867   1.486 -0.0067 -0.1712  0.1470
  405MOL0     C54552   6.276   8.729   1.414  0.2938  0.1961 -0.2524
  405MOL0     C54553   6.210   8.613   1.484  0.6937 -0.0228 -0.2556
  405MOL0     C54554   6.248   8.596   1.625  0.8990  0.0508 -0.1616
  405MOL0     C54555   6.147   8.489   1.698  0.1745  0.1805 -0.3003
  405MOL0     C54556   6.144   8.339   1.646  0.0714 -0.4561  0.1990
  405MOL0     N54557   6.091   8.271   1.761 -0.1417  0.3556  0.7928
  405MOL0     C54558   5.959   8.241   1.787  0.6689 -0.8702 -0.7087
  405MOL0     C54559   5.969   8.177   1.907  0.4018  0.7164  0.6983
  405MOL0     C54560   5.848   8.122   1.976 -0.0115  0.3397 -0.4578
  405MOL0     C54561   5.760   8.021   1.903  0.9048 -0.5220  0.6882
  405MOL0     C54562   5.652   7.985   1.999 -0.0114 -0.5345 -0.2472
  405MOL0     C54563   5.580   7.853   1.966 -0.7977 -0.8701  0.0113
  405MOL0     O54564   5.659   7.753   1.914  0.9493 -0.3190  0.0350
  405MOL0     C54565   5.598   7.639   1.882 -0.1109  1.3693 -0.6347
  405MOL0     C54566   5.679   7.538   1.831 -0.0851 -0.1188  0.6309
  405MOL0     C54567   5.632   7.418   1.798  0.6845 -0.0998  0.3636
  405MOL0     C54568   5.498   7.383   1.804 -0.1291  0.9697 -0.5354
  405MOL0     C54569   5.451   7.251   1.765 -1.5851  0.7292  0.0924
  405MOL0     O54570   5.533   7.173   1.686 -0.2884 -0.0759  0.0264
  405MOL0     C54571   5.485   7.057   1.646  0.7252 -0.5476  0.1229
  405MOL0     C54572   5.506   6.942   1.720  0.0090 -0.9948  0.6823
  405MOL0     C54573   5.437   6.823   1.680  0.8422 -0.9813 -0.3004
  405MOL0     C54574   5.357   6.828   1.562 -0.2129 -0.2107 -0.0352
  405MOL0     O54575   5.288   6.706   1.535  0.2347  0.3556  0.6014
  405MOL0     C54576   5.286   6.686   1.391 -1.1756 -0.0300  1.1564
  405MOL0     C54577   5.362   6.560   1.346 -0.3657  0.0757  0.0493
  405MOL0     C54578   5.304   6.433   1.393 -0.0746 -0.0977  0.2952
  405MOL0     C54579   5.155   6.423   1.350 -0.9604  0.0039  0.4176
  405MOL0     C54580   5.097   6.284   1.386 -0.7814  1.0114 -0.3380
  405MOL0     C54581   5.088   6.254   1.541  0.3941  0.0533 -0.1972
  405MOL0     C54582   5.023   6.114   1.570  1.0723 -0.8344 -0.2663
  405MOL0     C54583   5.120   5.998   1.565 -0.6008  0.0034 -0.1611
  405MOL0    Cl54584   5.270   6.019   1.650  0.3804  0.1746 -0.0877
  405MOL0     C54585   5.349   6.949   1.484  0.3143  0.1297 -1.3095
  405MOL0     C54586   5.417   7.064   1.525  0.0664 -0.1824  0.1471
  405MOL0     O54587   5.353   7.209   1.823 -0.1006 -0.2574 -0.4757
  405MOL0     C54588   5.412   7.488   1.841  0.9071 -0.5034  1.1394
  405MOL0     C54589   5.464   7.612   1.887 -0.1194 -0.1052 -1.0006
  405MOL0     N54590   6.096   8.165   1.944 -0.9125 -0.2040 -0.1942
  405MOL0     N54591   6.172   8.221   1.858 -0.5841 -0.4013  0.1168
  405MOL0     C54592   6.737   9.026   1.500 -0.5301  0.8668 -0.1610
  405MOL0     C54593   6.863   9.073   1.472 -0.3010  0.7655 -0.1057
  405MOL0     C54594   7.167   9.306   1.229 -0.3107  0.2805 -0.8696
  405MOL0     C54595   7.176   9.450   1.246 -0.5191  0.0169  0.6030
  405MOL0     C54596   7.295   9.521   1.237  0.0141  0.7117 -0.3350
  405MOL0     C54597   7.411   9.453   1.211  0.6412 -0.4742  0.3695
  405MOL0     O54598   7.524   9.526   1.191 -0.2835 -0.1417  0.1128
  405MOL0     C54599   7.617   9.476   1.088  0.5112 -0.1874 -0.8023
  405MOL0     C54600   7.538   9.479   0.946 -0.2661 -0.2936  0.8998
  405MOL0     C54601   7.503   9.611   0.882  0.3467 -0.2540  0.3635
  405MOL0     C54602   7.363   9.659   0.926 -1.3095  0.8585  0.7645
  405MOL0     C54603   7.312   9.750   0.815 -0.7515  0.1303  0.9285
  405MOL0     C54604   7.260   9.827   0.733  0.2848 -0.0475  0.7284
  405MOL0     C54605   7.407   9.312   1.205 -0.6966 -0.5571 -0.0838
  405MOL0     C54606   7.283   9.240   1.211  0.8866  0.4968 -0.6205
  405MOL0     C54607   7.286   9.083   1.201 -0.5466  0.2827 -0.3176
  405MOL0     H54608   6.842   9.068   1.134 -3.5642  1.9359 -1.1230
  405MOL0     H54609   6.608   9.023   1.193  2.3517  1.6924 -3.0047
  405MOL0     H54610   6.409   9.087   1.264 -3.1514 -0.0612 -0.0408
  405MOL0     H54611   6.423   8.924   1.238  0.2779 -0.3245  0.7371
  405MOL0     H54612   6.190   8.998   1.320  1.7970 -0.1491 -1.5944
  405MOL0     H54613   6.269   9.077   1.456 -2.3195 -0.0736 -0.9127
  405MOL0     H54614   6.157   8.872   1.524 -0.4328  0.1128 -1.0233
  405MOL0     H54615   6.328   8.869   1.572  0.9513 -3.4450 -0.3881
  405MOL0     H54616   6.218   8.741   1.322 -0.5334  0.5849  0.3150
  405MOL0     H54617   6.380   8.709   1.386  0.6687  2.1391 -0.3690
  405MOL0     H54618   6.104   8.638   1.486 -0.3623 -3.8730  2.1761
  405MOL0     H54619   6.222   8.521   1.426  1.8805  0.9137 -1.5535
  405MOL0     H54620   6.352   8.564   1.635  0.3911 -2.2561 -1.6064
  405MOL0     H54621   6.234   8.681   1.692  1.6539 -0.1715  0.3023
  405MOL0     H54622   6.048   8.534   1.703  1.6005  3.4479  0.7932
  405MOL0     H54623   6.180   8.487   1.802  4.1087  0.1484 -1.3971
  405MOL0     H54624   6.080   8.327   1.558  1.6816 -3.2236 -0.7241
  405MOL0     H54625   6.247   8.316   1.617  0.5727 -0.4937  1.9049
  405MOL0     H54626   5.875   8.249   1.719  2.9342  1.8453 -3.4729
  405MOL0     H54627   5.881   8.077   2.070  0.2075  1.3900 -0.0201
  405MOL0     H54628   5.782   8.207   1.998 -0.2571 -0.4336  2.0557
  405MOL0     H54629   5.715   8.076   1.820  3.3495 -0.6576 -0.8087
  405MOL0     H54630   5.807   7.932   1.859 -2.5569 -0.3759 -4.1604
  405MOL0     H54631   5.583   8.070   1.998  1.0374  0.3673 -2.2505
  405MOL0     H54632   5.695   7.967   2.097  0.3990 -1.2733 -0.5533
  405MOL0     H54633   5.497   7.868   1.895 -0.1018 -2.8152 -1.3022
  405MOL0     H54634   5.536   7.816   2.059  0.9586 -2.9075  0.0828
  405MOL0     H54635   5.784   7.548   1.807 -0.3479 -2.5024 -1.9779
  405MOL0     H54636   5.704   7.344   1.763  3.0347  1.3780  1.7652
  405MOL0     H54637   5.561   6.944   1.814  0.6239  2.6315  0.3869
  405MOL0     H54638   5.452   6.733   1.738  3.4190 -1.1655 -1.1116
  405MOL0     H54639   5.182   6.678   1.358 -0.1128 -1.6357 -2.2928
  405MOL0     H54640   5.339   6.757   1.327  1.0275 -3.4285 -1.1215
  405MOL0     H54641   5.365   6.552   1.237 -2.3137 -2.2091  0.0859
  405MOL0     H54642   5.465   6.571   1.380 -1.5444 -0.3137  4.3133
  405MOL0     H54643   5.361   6.346   1.360 -2.1269 -1.7880  0.9793
  405MOL0     H54644   5.303   6.422   1.502  0.1008 -0.0815  0.2996
  405MOL0     H54645   5.152   6.453   1.245  2.8740  0.2428  0.2440
  405MOL0     H54646   5.099   6.500   1.404 -2.7664 -3.4858  4.0917
  405MOL0     H54647   5.166   6.216   1.337  2.2122  3.2210  0.5325
  405MOL0     H54648   4.997   6.259   1.348 -0.2939 -1.0068 -0.3709
  405MOL0     H54649   5.180   6.258   1.600 -0.2485 -3.2366  1.2704
  405MOL0     H54650   5.019   6.332   1.574  3.4691  2.9989 -0.2902
  405MOL0     H54651   4.955   6.098   1.486  0.8064  0.5660 -0.3449
  405MOL0     H54652   4.967   6.104   1.664  0.7023  0.2282 -0.3564
  405MOL0     H54653   5.076   5.908   1.608 -1.2672 -0.1270 -1.0887
  405MOL0     H54654   5.145   5.987   1.459 -4.1651 -0.1338 -1.1270
  405MOL0     H54655   5.286   6.961   1.396  0.4648 -0.6959 -1.5372
  405MOL0     H54656   5.426   7.153   1.463 -1.6002 -1.1633 -1.6141
  405MOL0     H54657   5.304   7.491   1.834  1.0246  2.2586 -2.3730
  405MOL0     H54658   5.388   7.684   1.914 -1.8597 -2.7291  1.6773
  405MOL0     H54659   6.713   9.037   1.605  1.4935  0.9721  0.3338
  405MOL0     H54660   6.934   9.095   1.551  0.9436 -2.6786 -0.1186
  405MOL0     H54661   7.081   9.502   1.243 -1.9267 -2.3420 -3.0203
  405MOL0     H54662   7.288   9.628   1.225 -1.0132  0.4618 -2.3415
  405MOL0     H54663   7.654   9.375   1.107 -0.3124 -0.4814 -0.7470
  405MOL0     H54664   7.705   9.541   1.091 -0.3895  1.0255  1.3089
  405MOL0     H54665   7.454   9.409   0.948  0.7978 -1.6878 -0.3621
  405MOL0     H54666   7.616   9.438   0.882  1.2375  3.5243  0.0179
  405MOL0     H54667   7.493   9.582   0.777  0.3537 -0.1007  0.3196
  405MOL0     H54668   7.582   9.686   0.894  0.9806 -0.9402  0.5551
  405MOL0     H54669   7.294   9.576   0.945 -2.2758  1.5600  0.4153
  405MOL0     H54670   7.375   9.711   1.021  0.3684  2.4709 -0.2658
  405MOL0     H54671   7.189   9.893   0.687  0.9175 -0.4839 -0.9340
  405MOL0     H54672   7.493   9.249   1.186  0.1503  0.9075 -1.3962
  405MOL0     H54673   7.330   9.039   1.292 -0.2048 -0.6080 -0.8972
  405MOL0     H54674   7.185   9.046   1.184 -2.1625  2.6936  2.9692
  405MOL0     H54675   7.337   9.048   1.111  2.1632 -0.9775  1.5388
  406MOL0     O54676   6.796  10.690  10.213  0.1393  0.0547  0.7556
  406MOL0     C54677   6.742  10.785  10.152  0.2418 -0.1878  0.2193
  406MOL0     O54678   6.660  10.772  10.050  0.2394 -0.5627 -0.0965
  406MOL0     C54679   6.625  10.647  10.008 -0.4659 -1.0631 -0.0310
  406MOL0     C54680   6.550  10.566  10.088  0.6746  0.3225 -0.4977
  406MOL0     C54681   6.495  10.450  10.031  0.6105 -0.4443  0.5663
  406MOL0     C54682   6.524  10.412   9.897 -0.8800  0.3739 -0.7417
  406MOL0     O54683   6.483  10.287   9.850  0.1711 -0.0155 -0.4472
  406MOL0     C54684   6.452  10.272   9.709 -0.7832 -0.7240  0.3027
  406MOL0     C54685   6.402  10.139   9.672  0.4179 -0.0973 -0.5037
  406MOL0     C54686   6.340  10.057   9.793  0.0818  0.3175 -0.0868
  406MOL0     C54687   6.194  10.096   9.828  0.1090 -0.1676  0.8497
  406MOL0     C54688   6.124   9.994   9.908  0.1768  0.3483 -0.2213
  406MOL0     C54689   5.976   9.994   9.892  0.0430 -0.6722  0.5168
  406MOL0     C54690   5.921  10.111   9.981  1.1697  1.1275  0.7399
  406MOL0     C54691   5.775  10.153   9.939 -0.1899  1.0468  0.3015
  406MOL0     N54692   5.666  10.059   9.984 -0.0455 -0.2326 -0.4748
  406MOL0     C54693   5.561   9.993   9.916  0.4146 -0.1077  0.0917
  406MOL0     C54694   5.486   9.935  10.013  0.1592  0.4804 -0.1711
  406MOL0     C54695   5.365   9.861  10.009  0.6447  0.3300 -0.3685
  406MOL0     C54696   5.336   9.783   9.878 -0.6345 -1.3280  0.1429
  406MOL0     C54697   5.395   9.643   9.877  0.8525 -0.6386  0.0075
  406MOL0     C54698   5.546   9.631   9.878 -0.2038  0.5578 -1.0944
  406MOL0     O54699   5.576   9.671   9.750  0.3580 -0.6458 -0.5504
  406MOL0     C54700   5.710   9.693   9.717 -0.4930  0.0830 -0.3925
  406MOL0     C54701   5.824   9.668   9.802  0.8536  0.3513  0.1891
  406MOL0     C54702   5.953   9.682   9.744  0.2190  0.6857 -0.3371
  406MOL0     C54703   5.980   9.738   9.620 -1.0383  0.9149  0.1293
  406MOL0     C54704   6.118   9.750   9.567  0.2709  0.4710 -0.4218
  406MOL0     O54705   6.108   9.766   9.433 -0.9003 -0.3247 -0.0702
  406MOL0     C54706   6.218   9.775   9.362 -1.2077 -0.3522  0.1485
  406MOL0     C54707   6.315   9.676   9.350  0.8516 -0.6719 -0.2315
  406MOL0     C54708   6.414   9.681   9.262 -0.4909 -0.7217  0.4386
  406MOL0     C54709   6.420   9.792   9.178 -0.5120  0.6586  0.2642
  406MOL0     O54710   6.520   9.810   9.096 -0.6791  0.0508 -0.2688
  406MOL0     C54711   6.649   9.749   9.124 -0.7574 -0.3985  0.4021
  406MOL0     C54712   6.658   9.615   9.059  0.3093 -0.0855 -0.0181
  406MOL0     C54713   6.798   9.577   9.029 -0.4687  0.8919  0.3534
  406MOL0     C54714   6.872   9.536   9.160  0.0897 -0.6655  0.5907
  406MOL0     C54715   7.011   9.491   9.137 -0.3758 -0.1981  0.1058
  406MOL0     C54716   7.107   9.595   9.080  0.2734 -0.1515  0.7640
  406MOL0     C54717   7.127   9.578   8.926 -0.5982  0.6041  0.4759
  406MOL0     C54718   7.257   9.505   8.888  0.8960  0.2595  0.7242
  406MOL0    Cl54719   7.388   9.617   8.912 -0.3181 -0.0926 -0.3030
  406MOL0     C54720   6.322   9.889   9.177  0.0983 -0.3308 -0.6043
  406MOL0     C54721   6.228   9.885   9.277 -0.7759 -0.2815  0.1215
  406MOL0     O54722   6.217   9.737   9.634 -0.4524  0.3957 -0.5893
  406MOL0     C54723   5.870   9.774   9.542  0.2728 -0.8032  0.8340
  406MOL0     C54724   5.741   9.740   9.589 -1.1393  0.3326 -0.0287
  406MOL0     N54725   5.543   9.978  10.137 -0.7142 -0.4251  0.0390
  406MOL0     N54726   5.648  10.034  10.120  0.9128  1.1292  0.0464
  406MOL0     C54727   6.599  10.503   9.820 -0.5083  0.5569  0.3257
  406MOL0     C54728   6.649  10.614   9.879  0.6432 -0.1529  0.2837
  406MOL0     C54729   6.762  10.933  10.196 -0.6718 -0.0390 -0.8060
  406MOL0     C54730   6.688  11.037  10.126  0.6872 -0.5300 -0.5751
  406MOL0     C54731   6.695  11.179  10.166 -0.2494  0.2972  0.6209
  406MOL0     C54732   6.771  11.210  10.279  0.0511  0.0896 -0.7233
  406MOL0     O54733   6.790  11.337  10.331  0.3091 -0.5996 -0.1482
  406MOL0     C54734   6.674  11.379  10.402  0.1508 -0.1358  0.2203
  406MOL0     C54735   6.707  11.523  10.446  0.0479 -0.0858 -0.6019
  406MOL0     C54736   6.836  11.555  10.521  0.2082 -0.3934  0.2118
  406MOL0     C54737   6.869  11.447  10.623 -1.1200  0.5326 -1.0044
  406MOL0     C54738   6.955  11.493  10.733 -0.7294 -0.0824  0.8370
  406MOL0     C54739   7.020  11.524  10.829  0.1139  0.4921 -0.4528
  406MOL0     C54740   6.849  11.116  10.336  0.4086  1.0096 -0.4549
  406MOL0     C54741   6.855  10.982  10.296  0.8889  0.3009  0.6424
  406MOL0     C54742   6.947  10.895  10.368 -0.4681  0.0647 -0.4102
  406MOL0     H54743   6.532  10.595  10.191  1.5251  0.2732 -0.3275
  406MOL0     H54744   6.434  10.382  10.090 -2.5169  0.3437 -1.4876
  406MOL0     H54745   6.378  10.352   9.695 -2.0174 -1.9812 -0.6077
  406MOL0     H54746   6.529  10.293   9.635 -2.1194 -1.7533 -1.4758
  406MOL0     H54747   6.486  10.089   9.622 -0.7307  0.6528 -3.4211
  406MOL0     H54748   6.322  10.147   9.598 -0.9651 -1.0687  0.8392
  406MOL0     H54749   6.405  10.072   9.880  0.7306  2.1808 -0.8437
  406MOL0     H54750   6.351   9.951   9.768  0.1270  0.5534 -1.1007
  406MOL0     H54751   6.192  10.197   9.870 -1.3522  0.5155 -0.7520
  406MOL0     H54752   6.143  10.091   9.731 -0.4554 -0.3834  1.1518
  406MOL0     H54753   6.172   9.901   9.876  0.1591  1.1182 -2.6727
  406MOL0     H54754   6.149  10.007  10.014  0.2555  0.4943 -0.2568
  406MOL0     H54755   5.956  10.001   9.785 -0.5308  1.5815  0.7215
  406MOL0     H54756   5.936   9.899   9.929  0.0228 -1.0106 -0.3466
  406MOL0     H54757   5.995  10.191   9.971  3.5121 -1.1100 -1.1495
  406MOL0     H54758   5.920  10.084  10.087  1.3043  3.4289  1.3853
  406MOL0     H54759   5.747  10.253   9.975  0.4413  1.6507 -0.8609
  406MOL0     H54760   5.768  10.162   9.831 -0.7787  1.9740  0.4020
  406MOL0     H54761   5.553   9.981   9.808  2.3255  0.5373 -0.1591
  406MOL0     H54762   5.370   9.794  10.095  2.1969 -0.1895 -0.8365
  406MOL0     H54763   5.288   9.937  10.023  0.4774  0.0151  0.4624
  406MOL0     H54764   5.229   9.769   9.866 -0.5629 -1.5246 -0.2693
  406MOL0     H54765   5.374   9.837   9.791  2.0830 -1.2901  1.2272
  406MOL0     H54766   5.349   9.585   9.797  0.4539 -0.6708  0.2516
  406MOL0     H54767   5.352   9.593   9.965  1.8063  1.3372  1.7012
  406MOL0     H54768   5.573   9.525   9.882  0.1898  0.6917  1.8657
  406MOL0     H54769   5.598   9.693   9.951 -1.6490  0.1649  0.3446
  406MOL0     H54770   5.824   9.617   9.898  1.1291  1.1182  0.6054
  406MOL0     H54771   6.041   9.642   9.794  1.1256  2.0366 -0.7831
  406MOL0     H54772   6.306   9.594   9.421 -2.0032 -0.0138  0.2816
  406MOL0     H54773   6.481   9.596   9.259  0.1578 -0.1923 -2.3638
  406MOL0     H54774   6.726   9.820   9.093 -0.3656  0.5231  3.2399
  406MOL0     H54775   6.678   9.725   9.227  1.3595 -6.2325 -1.1323
  406MOL0     H54776   6.615   9.545   9.132 -1.6123  1.8434  0.7944
  406MOL0     H54777   6.598   9.616   8.968 -0.0685 -0.5271  0.2212
  406MOL0     H54778   6.796   9.496   8.955  0.6170  0.3778  0.8738
  406MOL0     H54779   6.844   9.661   8.976 -0.4773  0.7088  0.0498
  406MOL0     H54780   6.812   9.454   9.200 -1.6634 -0.9476 -2.3437
  406MOL0     H54781   6.873   9.615   9.237  0.3181 -0.4612  0.3802
  406MOL0     H54782   7.007   9.399   9.078  0.5192 -0.1103 -0.1045
  406MOL0     H54783   7.047   9.447   9.231 -1.8710 -1.3415  0.1753
  406MOL0     H54784   7.062   9.692   9.101  0.1190 -0.0717  0.0811
  406MOL0     H54785   7.200   9.578   9.135  2.4404  2.2785 -1.8581
  406MOL0     H54786   7.134   9.677   8.879  1.7110 -0.1889 -1.0237
  406MOL0     H54787   7.035   9.527   8.898 -1.0864  1.0189  1.2679
  406MOL0     H54788   7.291   9.416   8.942  1.6324  1.1296  1.7242
  406MOL0     H54789   7.252   9.471   8.784  5.2644 -4.1387  1.5559
  406MOL0     H54790   6.319   9.970   9.105 -0.1642  0.8729  0.7087
  406MOL0     H54791   6.154   9.962   9.261 -0.3022 -0.3859 -3.2166
  406MOL0     H54792   5.892   9.823   9.448 -2.5223 -2.6506 -0.9180
  406MOL0     H54793   5.649   9.747   9.532 -3.3436  0.8894  3.3421
  406MOL0     H54794   6.630  10.484   9.718 -1.6351  0.2074  0.0414
  406MOL0     H54795   6.713  10.678   9.819  2.2706 -0.5262  1.5346
  406MOL0     H54796   6.628  11.006  10.041  0.9879 -2.9209  0.0087
  406MOL0     H54797   6.635  11.260  10.124 -0.4592  2.4441  4.5458
  406MOL0     H54798   6.655  11.319  10.492 -1.2855 -0.8599 -0.5388
  406MOL0     H54799   6.583  11.380  10.342  1.2790 -0.6654 -1.5640
  406MOL0     H54800   6.623  11.553  10.510  2.5838  3.9088  1.2361
  406MOL0     H54801   6.718  11.591  10.362  4.0358 -2.9071 -2.6729
  406MOL0     H54802   6.815  11.648  10.574  1.5112 -0.7738  1.4639
  406MOL0     H54803   6.912  11.571  10.444  0.5823 -2.0205  0.2069
  406MOL0     H54804   6.775  11.406  10.661  0.2357 -3.5027 -1.5514
  406MOL0     H54805   6.923  11.365  10.575  0.4373 -0.0915  1.6197
  406MOL0     H54806   7.066  11.544  10.924  1.5510  3.8460 -1.7000
  406MOL0     H54807   6.917  11.149  10.414  2.1023 -2.3819 -0.3025
  406MOL0     H54808   6.892  10.844  10.447  1.3025 -2.1823 -0.5028
  406MOL0     H54809   6.989  10.820  10.300 -1.6823 -1.0789  0.0367
  406MOL0     H54810   7.034  10.951  10.402 -1.2169  2.1219 -1.6970
  407MOL0     O54811   6.721   0.419   7.651  0.3446  0.1152 -0.3346
  407MOL0     C54812   6.622   0.493   7.633 -0.7365 -0.8640  0.4374
  407MOL0     O54813   6.607   0.616   7.691  0.7107 -0.0204 -0.2619
  407MOL0     C54814   6.706   0.663   7.772  0.3462 -0.0293 -0.2895
  407MOL0     C54815   6.682   0.691   7.905  0.0973 -0.1956  0.0521
  407MOL0     C54816   6.792   0.728   7.989  0.0713 -0.9994  0.7625
  407MOL0     C54817   6.921   0.734   7.936 -0.6216  0.1343  0.6164
  407MOL0     O54818   7.015   0.767   8.028  1.1224 -0.1871  0.4601
  407MOL0     C54819   7.138   0.823   7.980  0.2872  0.5021  0.2970
  407MOL0     C54820   7.236   0.861   8.083  0.2803 -0.4826  1.1695
  407MOL0     C54821   7.175   0.962   8.187  0.5276 -0.4987  0.9973
  407MOL0     C54822   7.130   0.886   8.312 -0.1649  0.2756  0.2976
  407MOL0     C54823   7.061   0.970   8.423  1.1028  0.3074  0.3197
  407MOL0     C54824   7.152   1.063   8.506  0.1721  1.7427 -0.8076
  407MOL0     C54825   7.091   1.138   8.623  0.8915  0.4963  0.2314
  407MOL0     C54826   7.181   1.243   8.669 -0.1926  0.6341  0.2087
  407MOL0     N54827   7.121   1.294   8.790  0.0203 -0.7109 -0.4076
  407MOL0     C54828   7.175   1.259   8.913  0.0674 -0.6481  0.8304
  407MOL0     C54829   7.104   1.341   8.995  0.2449  0.3904  0.0371
  407MOL0     C54830   7.123   1.304   9.142  0.1774 -0.7990  0.1001
  407MOL0     C54831   7.031   1.190   9.179  0.3872 -0.0216  0.5525
  407MOL0     C54832   7.019   1.187   9.335  0.1365 -0.4624 -0.6539
  407MOL0     C54833   6.965   1.055   9.388  0.1518 -0.0285  0.5269
  407MOL0     O54834   7.068   0.955   9.414 -0.3484  0.2426 -0.1269
  407MOL0     C54835   7.043   0.817   9.432 -1.2926  0.1960 -0.5984
  407MOL0     C54836   6.913   0.753   9.433  0.1982  0.0532  0.0066
  407MOL0     C54837   6.906   0.621   9.471 -1.0459 -0.0110  0.2858
  407MOL0     C54838   7.018   0.539   9.505  0.7177 -0.0823  0.7250
  407MOL0     C54839   7.010   0.393   9.539 -0.0914 -0.0102  0.5587
  407MOL0     O54840   6.885   0.329   9.541  0.5810 -0.0620  0.2577
  407MOL0     C54841   6.866   0.204   9.591 -0.0098 -0.8142 -0.2552
  407MOL0     C54842   6.797   0.097   9.537  0.4442 -1.6294  0.1216
  407MOL0     C54843   6.778  -0.029   9.595 -0.4121 -0.7246 -0.1745
  407MOL0     C54844   6.833  -0.052   9.723 -0.5547 -1.1171  0.1322
  407MOL0     O54845   6.810  -0.163   9.806 -0.0918 -0.4305  0.0296
  407MOL0     C54846   6.681  -0.224   9.803  1.1359 -0.9265  0.2418
  407MOL0     C54847   6.698  -0.360   9.737  0.0777  0.0220 -0.5824
  407MOL0     C54848   6.569  -0.444   9.714 -0.0454  0.1454 -0.0033
  407MOL0     C54849   6.557  -0.504   9.572  0.4240  0.5606  0.2742
  407MOL0     C54850   6.462  -0.619   9.576  0.0925 -0.2388 -0.2250
  407MOL0     C54851   6.422  -0.672   9.432  0.3354 -0.6216 -0.9581
  407MOL0     C54852   6.359  -0.814   9.446  0.1595  0.3286  0.7228
  407MOL0     C54853   6.382  -0.900   9.331 -0.9638 -0.1428  0.4552
  407MOL0    Cl54854   6.299  -1.060   9.362 -0.2321  0.1215  0.1543
  407MOL0     C54855   6.902   0.055   9.785 -0.2020 -0.2864  0.1075
  407MOL0     C54856   6.915   0.184   9.726  0.2609  0.5626 -0.6314
  407MOL0     O54857   7.115   0.344   9.580 -0.7121  0.7081  0.4589
  407MOL0     C54858   7.140   0.598   9.501 -0.7755  0.5609  0.8048
  407MOL0     C54859   7.160   0.733   9.449  1.1255  0.4372 -1.2686
  407MOL0     N54860   7.008   1.412   8.925  0.4667  1.0271  0.1897
  407MOL0     N54861   7.022   1.384   8.800 -0.0794  0.3959  0.4588
  407MOL0     C54862   6.940   0.725   7.797 -0.6719  0.2308  0.8176
  407MOL0     C54863   6.835   0.694   7.723 -0.0434  0.3504 -0.0942
  407MOL0     C54864   6.519   0.439   7.544  0.0795 -0.2636 -0.6315
  407MOL0     C54865   6.549   0.398   7.421  0.1947  0.1567 -0.2171
  407MOL0     C54866   6.453   0.358   7.330  0.4595 -0.5379 -0.1674
  407MOL0     C54867   6.316   0.352   7.356 -0.7245 -0.8478  0.5362
  407MOL0     O54868   6.223   0.301   7.278  0.0912  0.4236  0.5083
  407MOL0     C54869   6.136   0.388   7.212  0.1841 -0.0350 -0.1970
  407MOL0     C54870   6.081   0.312   7.092  0.7939  0.1475  0.2834
  407MOL0     C54871   5.958   0.383   7.036  1.0814  0.4445  0.3770
  407MOL0     C54872   5.889   0.319   6.915  0.1479  0.2565  0.6922
  407MOL0     C54873   5.862   0.436   6.826 -0.4342 -0.7922  0.3415
  407MOL0     C54874   5.844   0.516   6.740 -0.8522 -0.0687 -0.4106
  407MOL0     C54875   6.279   0.409   7.486  0.9941 -0.0079  0.9924
  407MOL0     C54876   6.377   0.445   7.580 -0.7892 -0.0489 -0.1293
  407MOL0     C54877   6.333   0.468   7.726 -0.6158  0.5186 -0.1112
  407MOL0     H54878   6.578   0.688   7.939  0.5579  4.4800  2.7379
  407MOL0     H54879   6.783   0.747   8.095 -1.6231 -0.8967  0.6239
  407MOL0     H54880   7.197   0.754   7.918  1.5578  2.8975 -1.3093
  407MOL0     H54881   7.097   0.911   7.930 -1.7150  1.6115  3.5605
  407MOL0     H54882   7.326   0.911   8.043 -1.6426  1.9887 -0.4296
  407MOL0     H54883   7.261   0.765   8.128 -0.6985 -1.1084  0.4199
  407MOL0     H54884   7.086   1.010   8.145  0.5440 -3.0044 -2.3055
  407MOL0     H54885   7.245   1.041   8.216 -1.5693  2.0971 -0.5892
  407MOL0     H54886   7.082   0.792   8.284  3.7923 -2.2588  1.2090
  407MOL0     H54887   7.228   0.861   8.355  0.1238  0.2216 -0.3776
  407MOL0     H54888   6.980   1.023   8.373  0.7164 -1.3760 -0.9072
  407MOL0     H54889   7.014   0.904   8.497 -0.4024  2.4250  1.3439
  407MOL0     H54890   7.229   0.997   8.546 -2.1516 -1.0249 -0.5160
  407MOL0     H54891   7.195   1.137   8.438  1.8864 -0.6758 -2.5468
  407MOL0     H54892   7.060   1.068   8.701  4.5520 -1.4911  0.0829
  407MOL0     H54893   6.991   1.173   8.595 -0.3417 -1.0685  2.4034
  407MOL0     H54894   7.279   1.199   8.687 -0.2452  0.2249 -0.4597
  407MOL0     H54895   7.181   1.338   8.615  0.3488  0.6485  0.2299
  407MOL0     H54896   7.262   1.200   8.939 -2.7124 -3.6517  4.3454
  407MOL0     H54897   7.229   1.281   9.156  0.6287 -0.0096 -1.7098
  407MOL0     H54898   7.107   1.394   9.201  0.6084 -0.4057 -0.3778
  407MOL0     H54899   6.933   1.208   9.133 -0.5077  0.6708  2.5934
  407MOL0     H54900   7.081   1.103   9.136  2.3688  1.0510  0.5724
  407MOL0     H54901   6.965   1.268   9.386 -0.2222  0.2823 -2.1465
  407MOL0     H54902   7.122   1.206   9.369 -0.5938  3.2820 -0.1008
  407MOL0     H54903   6.900   1.020   9.308  1.0688  2.0127 -1.2228
  407MOL0     H54904   6.913   1.082   9.481  0.0690  0.1027  0.4423
  407MOL0     H54905   6.831   0.815   9.400  2.4204  1.3795 -3.6083
  407MOL0     H54906   6.806   0.579   9.467 -1.1039  0.2352 -1.5062
  407MOL0     H54907   6.752   0.123   9.441  0.1169 -3.8043 -0.3739
  407MOL0     H54908   6.704  -0.097   9.554 -0.2812 -1.4335  0.7488
  407MOL0     H54909   6.649  -0.232   9.907 -0.0346  1.1711  0.0869
  407MOL0     H54910   6.606  -0.166   9.748  1.7520  0.1847  0.5464
  407MOL0     H54911   6.741  -0.333   9.641  1.5737  2.1265  0.5964
  407MOL0     H54912   6.771  -0.431   9.777 -2.6027 -0.9781  3.1896
  407MOL0     H54913   6.574  -0.526   9.786  0.7610  1.6004  1.6604
  407MOL0     H54914   6.479  -0.385   9.738  1.5938  1.3677  4.0129
  407MOL0     H54915   6.652  -0.546   9.539 -0.0091 -0.1632 -0.0860
  407MOL0     H54916   6.518  -0.434   9.498  0.0697 -0.2718 -0.3459
  407MOL0     H54917   6.373  -0.582   9.628 -1.6450 -1.2924 -2.3148
  407MOL0     H54918   6.522  -0.688   9.637 -0.7077 -1.3457 -0.6625
  407MOL0     H54919   6.352  -0.603   9.383 -1.6852 -3.1545 -1.8198
  407MOL0     H54920   6.520  -0.687   9.385  1.1119  0.5561  0.2072
  407MOL0     H54921   6.252  -0.806   9.466 -0.4350 -1.0539 -1.5250
  407MOL0     H54922   6.408  -0.868   9.527  0.5745  3.8280  3.0289
  407MOL0     H54923   6.338  -0.864   9.238 -1.7155  0.0933  0.8979
  407MOL0     H54924   6.490  -0.911   9.323 -0.9849 -0.2977  0.3648
  407MOL0     H54925   6.934   0.039   9.888  0.1774 -2.2999 -0.2793
  407MOL0     H54926   6.963   0.250   9.798 -0.0484  2.7039 -2.2991
  407MOL0     H54927   7.237   0.550   9.510  0.0309  1.5420 -1.7813
  407MOL0     H54928   7.252   0.788   9.463  1.2698  0.0780 -0.7625
  407MOL0     H54929   7.040   0.738   7.757  0.3002 -1.1336  2.6376
  407MOL0     H54930   6.845   0.668   7.618  1.4194 -2.3886  0.6095
  407MOL0     H54931   6.650   0.415   7.385  1.5971  1.0110  3.6304
  407MOL0     H54932   6.479   0.339   7.227 -1.2184 -0.9789 -0.5366
  407MOL0     H54933   6.192   0.472   7.170 -1.3065  0.8009 -0.5891
  407MOL0     H54934   6.061   0.430   7.280  0.5600 -0.0702  0.2409
  407MOL0     H54935   6.051   0.213   7.127 -0.0123  1.1134  2.5450
  407MOL0     H54936   6.164   0.297   7.022  0.6888 -1.4005  0.4514
  407MOL0     H54937   5.986   0.485   7.010 -1.4489  0.4527 -3.0541
  407MOL0     H54938   5.886   0.393   7.118  2.3309 -4.8378  2.5478
  407MOL0     H54939   5.956   0.249   6.864  0.0756  0.5748  0.1465
  407MOL0     H54940   5.797   0.269   6.945 -0.9768  0.5475 -1.9880
  407MOL0     H54941   5.804   0.589   6.673  1.5870  0.7406 -1.0725
  407MOL0     H54942   6.174   0.424   7.506  0.5423 -2.6886  1.0200
  407MOL0     H54943   6.368   0.387   7.791 -1.7795 -0.4769 -0.6820
  407MOL0     H54944   6.361   0.568   7.760 -0.1038 -0.1687  1.5951
  407MOL0     H54945   6.225   0.453   7.743 -1.0916 -1.2236 -3.7944
  408MOL0     O54946   7.596   9.873   1.725 -0.7586 -0.5827 -0.2060
  408MOL0     C54947   7.558   9.758   1.712  0.1432 -0.4741  0.7303
  408MOL0     O54948   7.422   9.712   1.710 -0.1010  0.1707  0.4723
  408MOL0     C54949   7.319   9.810   1.724  0.6484 -0.9826  0.7026
  408MOL0     C54950   7.215   9.829   1.625  0.1187 -0.1435  0.0139
  408MOL0     C54951   7.132   9.936   1.630  0.9518 -0.6052 -0.0565
  408MOL0     C54952   7.134  10.025   1.737 -0.3127  0.2666 -0.2168
  408MOL0     O54953   7.053  10.129   1.760  0.3388 -0.4930  0.1784
  408MOL0     C54954   6.975  10.185   1.651  0.1064  0.4156 -0.2362
  408MOL0     C54955   6.875  10.284   1.702  0.4292  0.4158  0.0556
  408MOL0     C54956   6.801  10.348   1.584  0.7510  0.7846 -0.5493
  408MOL0     C54957   6.874  10.462   1.512  0.5667 -0.3977  0.4906
  408MOL0     C54958   6.778  10.564   1.451 -0.2085  0.1779 -0.0226
  408MOL0     C54959   6.869  10.694   1.425 -0.0307  0.5327 -0.3036
  408MOL0     C54960   6.792  10.783   1.326  0.3568  1.0849  0.5197
  408MOL0     C54961   6.859  10.914   1.296 -0.2604 -0.2089  0.3687
  408MOL0     N54962   6.778  11.006   1.219  0.1476 -0.0589 -0.6254
  408MOL0     C54963   6.715  11.122   1.265 -0.7231 -0.1825 -0.6885
  408MOL0     C54964   6.618  11.144   1.176  0.0728  0.8310 -0.4684
  408MOL0     C54965   6.541  11.269   1.180  0.2842  0.2981  0.2273
  408MOL0     C54966   6.546  11.362   1.045  0.1173  0.4163 -0.0817
  408MOL0     C54967   6.455  11.480   1.058 -0.4957 -0.0820 -0.4714
  408MOL0     C54968   6.511  11.597   1.151 -0.4807  0.0295  0.5680
  408MOL0     O54969   6.424  11.711   1.143 -0.1086  0.4694 -0.2217
  408MOL0     C54970   6.299  11.701   1.202 -0.5355  0.1308 -0.1509
  408MOL0     C54971   6.193  11.754   1.124 -0.8793 -0.0303  0.4548
  408MOL0     C54972   6.066  11.762   1.172  0.0787  0.2232 -0.8743
  408MOL0     C54973   6.033  11.725   1.307 -0.2211 -0.0616 -0.6854
  408MOL0     C54974   5.900  11.739   1.370 -0.9082 -0.3551  0.9205
  408MOL0     O54975   5.877  11.658   1.475  0.1279  0.2108 -1.0733
  408MOL0     C54976   5.756  11.662   1.553 -1.3530 -0.9826  0.1599
  408MOL0     C54977   5.771  11.728   1.675 -0.4807  0.5394 -0.7618
  408MOL0     C54978   5.671  11.735   1.770  1.0142  0.8388 -0.1062
  408MOL0     C54979   5.555  11.677   1.744  0.2229 -0.2318  0.0824
  408MOL0     O54980   5.458  11.675   1.846 -0.2663 -0.6930 -0.4617
  408MOL0     C54981   5.321  11.688   1.806  0.4819  0.1264 -0.5962
  408MOL0     C54982   5.260  11.570   1.891 -0.5058  1.1592 -1.3210
  408MOL0     C54983   5.108  11.558   1.858 -0.1178  0.0452  0.2940
  408MOL0     C54984   5.033  11.459   1.946 -1.5047 -0.2646 -0.9206
  408MOL0     C54985   4.918  11.400   1.870  0.3906  0.9153 -0.6836
  408MOL0     C54986   4.817  11.331   1.966  0.0603 -0.1994 -0.2224
  408MOL0     C54987   4.776  11.193   1.910 -0.2044  0.2314 -0.4334
  408MOL0     C54988   4.665  11.126   1.989 -0.4536  0.7589  0.1073
  408MOL0    Cl54989   4.561  11.022   1.888  0.1360 -0.0622 -0.0690
  408MOL0     C54990   5.534  11.619   1.614  0.4456 -0.7392  0.9800
  408MOL0     C54991   5.632  11.603   1.520 -0.0195 -0.5122 -0.2952
  408MOL0     O54992   5.841  11.836   1.333 -0.0116 -0.9585 -0.2161
  408MOL0     C54993   6.141  11.681   1.394  0.0546 -0.1258  0.9195
  408MOL0     C54994   6.267  11.663   1.338  0.5508  0.2909 -0.3062
  408MOL0     N54995   6.615  11.041   1.078 -1.0121 -0.5447 -0.6653
  408MOL0     N54996   6.718  10.956   1.108  0.0707  0.3563  0.4920
  408MOL0     C54997   7.230  10.008   1.835  0.7440 -0.2562  0.2299
  408MOL0     C54998   7.326   9.901   1.827  0.3269  0.4873 -0.7364
  408MOL0     C54999   7.676   9.658   1.704 -0.4537 -0.2015  0.1097
  408MOL0     C55000   7.799   9.704   1.761  0.0761 -0.1640 -0.4890
  408MOL0     C55001   7.904   9.616   1.765 -0.0273 -0.1199  0.4060
  408MOL0     C55002   7.893   9.484   1.726 -0.5120 -0.5206 -0.4041
  408MOL0     O55003   7.998   9.395   1.740  0.4853  0.5299 -0.3010
  408MOL0     C55004   8.114   9.407   1.829 -0.3311  0.0932 -0.0509
  408MOL0     C55005   8.238   9.375   1.747  0.1287  0.8642 -0.2274
  408MOL0     C55006   8.219   9.223   1.702  0.0350 -0.3433  0.7052
  408MOL0     C55007   8.337   9.174   1.615  0.4399  0.0724  0.0235
  408MOL0     C55008   8.452   9.157   1.700  0.1727 -0.3812  0.2749
  408MOL0     C55009   8.554   9.141   1.775 -0.1096 -0.8134  0.5409
  408MOL0     C55010   7.772   9.438   1.673  0.4063  0.2459  0.5548
  408MOL0     C55011   7.664   9.523   1.652  0.1071 -0.6276 -0.1496
  408MOL0     C55012   7.540   9.464   1.576  0.5839 -0.0057 -0.0806
  408MOL0     H55013   7.212   9.748   1.553  5.3920 -1.2690  0.6184
  408MOL0     H55014   7.065   9.951   1.545  1.4515 -0.2379 -0.3923
  408MOL0     H55015   7.038  10.219   1.568 -1.0027 -3.7890 -3.0968
  408MOL0     H55016   6.920  10.104   1.602 -1.3133  1.4429 -0.4129
  408MOL0     H55017   6.941  10.352   1.757 -0.8879  3.0884 -1.4654
  408MOL0     H55018   6.803  10.241   1.772  0.1628  0.0370 -0.4480
  408MOL0     H55019   6.705  10.388   1.617 -0.3449 -3.2373  1.7993
  408MOL0     H55020   6.761  10.274   1.514  0.9027  0.3650 -0.2028
  408MOL0     H55021   6.939  10.514   1.583  1.4062 -0.1587 -0.4132
  408MOL0     H55022   6.943  10.427   1.435  3.2493  0.5444  2.3045
  408MOL0     H55023   6.732  10.516   1.364  1.7266 -1.9287  0.0384
  408MOL0     H55024   6.688  10.572   1.513 -0.1563 -1.7089  0.3472
  408MOL0     H55025   6.891  10.753   1.514  4.2154  2.4353 -2.3330
  408MOL0     H55026   6.965  10.666   1.379 -2.1240 -1.7891 -3.7729
  408MOL0     H55027   6.703  10.819   1.379  0.4748  0.3515  1.2356
  408MOL0     H55028   6.758  10.728   1.238  0.4423  2.6617 -0.5513
  408MOL0     H55029   6.903  10.957   1.387  1.0404  0.0933 -0.3893
  408MOL0     H55030   6.955  10.904   1.246 -0.1818 -2.5090  0.8876
  408MOL0     H55031   6.750  11.178   1.350  0.6905 -2.6409  0.4784
  408MOL0     H55032   6.437  11.242   1.196  0.5946  0.2968  2.6187
  408MOL0     H55033   6.574  11.320   1.271 -0.8827 -0.2481  0.9752
  408MOL0     H55034   6.642  11.394   1.004  1.1012 -0.2664  1.5672
  408MOL0     H55035   6.493  11.288   0.985 -0.0827 -0.3641  1.0267
  408MOL0     H55036   6.361  11.439   1.095  0.1267 -0.7664  0.3798
  408MOL0     H55037   6.434  11.527   0.962 -1.5695  1.4019  0.4353
  408MOL0     H55038   6.617  11.613   1.132  0.0252 -2.2657  1.1169
  408MOL0     H55039   6.528  11.563   1.254  2.8143  1.8086  0.7509
  408MOL0     H55040   6.211  11.780   1.020 -0.5589 -3.2059 -0.4102
  408MOL0     H55041   5.981  11.781   1.108  0.7080  1.5272 -1.3643
  408MOL0     H55042   5.865  11.779   1.696  0.8418 -1.7160 -0.8703
  408MOL0     H55043   5.683  11.770   1.873 -2.2303  2.0022  0.0068
  408MOL0     H55044   5.276  11.784   1.830 -1.2530 -1.1551  1.7768
  408MOL0     H55045   5.298  11.676   1.699 -1.2731  0.7948 -0.3257
  408MOL0     H55046   5.313  11.476   1.872  1.1372  1.4815  1.1493
  408MOL0     H55047   5.267  11.609   1.993 -0.3459 -0.7843 -0.5638
  408MOL0     H55048   5.066  11.660   1.859  1.0457  0.7133 -3.6822
  408MOL0     H55049   5.098  11.522   1.755 -0.7918  1.9052 -0.3408
  408MOL0     H55050   5.003  11.505   2.041  1.6937 -1.8245  1.0322
  408MOL0     H55051   5.107  11.382   1.970 -1.1636  0.5572  0.8003
  408MOL0     H55052   4.962  11.331   1.797  0.2324 -1.0383  0.9766
  408MOL0     H55053   4.874  11.477   1.806  0.8222  1.2312 -0.6051
  408MOL0     H55054   4.871  11.311   2.059 -1.9823  1.9417  1.5611
  408MOL0     H55055   4.729  11.391   1.991  2.0613  1.4181  3.9926
  408MOL0     H55056   4.864  11.129   1.900 -0.0544  0.6151 -1.8265
  408MOL0     H55057   4.739  11.212   1.809 -1.7408 -0.4485 -0.0128
  408MOL0     H55058   4.723  11.072   2.065 -0.9945  1.1083  0.7813
  408MOL0     H55059   4.594  11.198   2.031  0.6574  1.3713  1.0061
  408MOL0     H55060   5.438  11.578   1.583  0.8386  0.1779 -1.6926
  408MOL0     H55061   5.621  11.551   1.426 -1.5642 -0.7000 -0.0227
  408MOL0     H55062   6.123  11.670   1.501 -2.3641  1.8340  0.7989
  408MOL0     H55063   6.352  11.634   1.398  1.9174  1.2868 -1.6648
  408MOL0     H55064   7.241  10.077   1.918 -1.5116 -0.3473  0.6562
  408MOL0     H55065   7.406   9.884   1.899 -1.6234  0.7167  1.6354
  408MOL0     H55066   7.804   9.807   1.795 -4.5110  0.3381 -0.6458
  408MOL0     H55067   7.998   9.662   1.796  0.4831 -1.1511  0.4484
  408MOL0     H55068   8.092   9.334   1.907 -1.5013  2.0421  1.5244
  408MOL0     H55069   8.108   9.505   1.876 -0.5037 -0.4546  1.1064
  408MOL0     H55070   8.327   9.380   1.810  1.8709 -4.5386 -1.6763
  408MOL0     H55071   8.225   9.443   1.662 -0.7125  3.1524  1.6332
  408MOL0     H55072   8.132   9.219   1.636 -1.4284  1.2768  2.4121
  408MOL0     H55073   8.204   9.159   1.790  0.1831 -0.0799  0.9236
  408MOL0     H55074   8.303   9.081   1.568 -0.4453  1.2799 -1.8807
  408MOL0     H55075   8.372   9.253   1.548  2.5177  0.2359  1.2179
  408MOL0     H55076   8.646   9.143   1.831  1.7229  0.1023 -2.2708
  408MOL0     H55077   7.777   9.335   1.638  1.4622  0.6388 -0.5121
  408MOL0     H55078   7.498   9.527   1.496  2.0136 -2.3958 -2.8833
  408MOL0     H55079   7.583   9.377   1.526  1.6628  1.8801 -2.7165
  408MOL0     H55080   7.455   9.444   1.642  0.4240  0.1354 -0.2422
  409MOL0     O55081   3.507  10.147   8.470 -0.0428 -0.4687 -0.3101
  409MOL0     C55082   3.392  10.129   8.515 -1.1908  0.1087 -0.7081
  409MOL0     O55083   3.322  10.017   8.510  0.8218  0.3222 -0.0900
  409MOL0     C55084   3.368   9.899   8.452  1.0768  0.8474 -0.4233
  409MOL0     C55085   3.509   9.861   8.423  0.9434  0.0526 -0.4682
  409MOL0     C55086   3.538   9.745   8.363  0.4648 -0.0220 -0.8649
  409MOL0     C55087   3.441   9.654   8.328  0.3609  0.4804 -0.2880
  409MOL0     O55088   3.467   9.542   8.250 -0.0697  0.5858  0.1642
  409MOL0     C55089   3.547   9.436   8.317  0.6793 -0.2284 -0.8413
  409MOL0     C55090   3.586   9.332   8.217  0.4242  0.0666  0.6389
  409MOL0     C55091   3.710   9.247   8.251  0.8113  0.0647 -0.1492
  409MOL0     C55092   3.837   9.331   8.218  0.3964  0.0503  0.3117
  409MOL0     C55093   3.959   9.256   8.236 -0.9787  0.0521  0.7282
  409MOL0     C55094   4.020   9.175   8.119 -1.1670 -0.1296 -0.0080
  409MOL0     C55095   3.971   9.032   8.110 -0.3866  0.1783  0.2043
  409MOL0     C55096   3.963   8.988   7.963 -0.5921 -0.3709  1.1096
  409MOL0     N55097   4.099   8.974   7.911  0.2778  1.1437 -0.1365
  409MOL0     C55098   4.224   8.938   7.967  0.7204 -0.6706 -0.0434
  409MOL0     C55099   4.310   8.992   7.875 -0.2268 -0.0725 -0.4152
  409MOL0     C55100   4.459   8.992   7.886  0.6788 -0.4539  0.2160
  409MOL0     C55101   4.519   8.860   7.831  0.2368  0.0211 -0.1085
  409MOL0     C55102   4.495   8.849   7.680 -0.6382 -0.6410 -0.3258
  409MOL0     C55103   4.572   8.728   7.626 -0.4951 -0.7166  0.1046
  409MOL0     O55104   4.549   8.616   7.709  0.7307 -0.6667  0.1162
  409MOL0     C55105   4.622   8.494   7.681 -0.3203 -0.8415  1.0138
  409MOL0     C55106   4.705   8.475   7.571  0.0215 -0.0254 -0.1461
  409MOL0     C55107   4.777   8.352   7.544 -0.0952  0.4149 -0.1896
  409MOL0     C55108   4.775   8.252   7.640 -0.3404  0.0051 -0.6996
  409MOL0     C55109   4.847   8.123   7.626  0.0610  0.5230 -0.1670
  409MOL0     O55110   4.883   8.087   7.507  0.6050 -0.1014 -0.2460
  409MOL0     C55111   4.957   7.970   7.491  0.0985  0.9035  0.5819
  409MOL0     C55112   4.937   7.839   7.549  0.0272  0.5767 -0.9253
  409MOL0     C55113   5.034   7.732   7.532 -0.4101 -0.5161  0.5841
  409MOL0     C55114   5.128   7.754   7.438 -0.4099 -0.3828 -0.6454
  409MOL0     O55115   5.218   7.659   7.451  0.3194  0.9331 -0.4383
  409MOL0     C55116   5.345   7.676   7.387 -0.4862 -0.6819 -0.0368
  409MOL0     C55117   5.398   7.542   7.385  0.4013  0.8380  0.1665
  409MOL0     C55118   5.512   7.544   7.293  0.7360 -0.2528  0.0535
  409MOL0     C55119   5.549   7.406   7.257  1.0792 -0.5442 -0.0151
  409MOL0     C55120   5.561   7.298   7.365  0.2470 -0.2281 -0.3156
  409MOL0     C55121   5.662   7.325   7.478 -0.5446 -0.4136  0.3780
  409MOL0     C55122   5.657   7.215   7.585 -1.7698  0.4317 -0.1613
  409MOL0     C55123   5.615   7.271   7.718  0.1243 -0.3934 -1.1317
  409MOL0    Cl55124   5.750   7.369   7.796  0.1550  0.1466  0.1637
  409MOL0     C55125   5.141   7.871   7.368  0.1294  0.3623  0.4435
  409MOL0     C55126   5.056   7.980   7.384 -0.6340  0.4049 -0.6257
  409MOL0     O55127   4.858   8.054   7.730  0.0781  0.9601  0.8513
  409MOL0     C55128   4.704   8.284   7.759  0.4716  0.0691 -0.0907
  409MOL0     C55129   4.627   8.399   7.783 -0.2341 -0.2609  0.3564
  409MOL0     N55130   4.239   9.054   7.777  0.2065 -0.6054 -0.3986
  409MOL0     N55131   4.120   9.032   7.798 -0.1748 -0.0841  0.8169
  409MOL0     C55132   3.308   9.686   8.351  0.1744  0.8370  0.9235
  409MOL0     C55133   3.268   9.803   8.409  0.3882 -0.3858 -0.2654
  409MOL0     C55134   3.344  10.239   8.610  0.0358 -0.4064 -0.3890
  409MOL0     C55135   3.288  10.193   8.732  0.2197  0.4402  0.1618
  409MOL0     C55136   3.225  10.278   8.817 -0.0117  0.7829 -1.3005
  409MOL0     C55137   3.238  10.421   8.800  0.1183  0.3721  0.7494
  409MOL0     O55138   3.151  10.491   8.875  0.2615 -0.0239 -0.7936
  409MOL0     C55139   3.181  10.636   8.883  1.0903 -0.0001  1.1903
  409MOL0     C55140   3.090  10.718   8.981 -0.4907 -0.4996  0.2278
  409MOL0     C55141   2.940  10.683   8.965  0.4686 -0.4561  0.7739
  409MOL0     C55142   2.880  10.708   8.832 -0.5956  0.0021  0.1919
  409MOL0     C55143   2.737  10.749   8.826  0.2066  0.1775  0.8522
  409MOL0     C55144   2.617  10.776   8.836  0.2733 -0.5959 -0.4415
  409MOL0     C55145   3.297  10.466   8.682  0.6480 -0.9297  0.1056
  409MOL0     C55146   3.358  10.378   8.594 -0.6195  0.4046 -0.2697
  409MOL0     C55147   3.418  10.429   8.462 -0.0644 -0.1394 -0.1451
  409MOL0     H55148   3.588   9.927   8.457  0.5660 -0.1667  0.9269
  409MOL0     H55149   3.643   9.721   8.346  0.2574 -0.9819 -0.8423
  409MOL0     H55150   3.629   9.475   8.377  1.1196 -1.7231 -0.4303
  409MOL0     H55151   3.480   9.386   8.387 -0.9968  0.4751 -1.8812
  409MOL0     H55152   3.598   9.377   8.118  0.5230 -0.2806  0.4938
  409MOL0     H55153   3.503   9.261   8.214 -0.6206  1.2971 -0.9842
  409MOL0     H55154   3.709   9.151   8.197 -1.3932 -0.3766  0.5602
  409MOL0     H55155   3.711   9.214   8.355  1.9156  0.5115 -0.0162
  409MOL0     H55156   3.835   9.376   8.118  0.9490  2.6294  1.3811
  409MOL0     H55157   3.841   9.419   8.283  0.1673  1.7451 -1.8349
  409MOL0     H55158   4.042   9.326   8.251  0.8136 -1.8636  0.3154
  409MOL0     H55159   3.949   9.199   8.329  1.8642  1.8786  2.2840
  409MOL0     H55160   4.005   9.228   8.024 -1.1639 -3.4121 -1.9854
  409MOL0     H55161   4.128   9.163   8.130 -0.8557  0.7827 -1.7064
  409MOL0     H55162   3.868   9.029   8.148 -1.4192 -0.2630 -2.4405
  409MOL0     H55163   4.035   8.970   8.174 -3.3003 -1.8484  1.3949
  409MOL0     H55164   3.911   8.892   7.961  1.2565 -1.3911  0.6687
  409MOL0     H55165   3.906   9.065   7.909  0.9789  0.7348  0.9541
  409MOL0     H55166   4.252   8.890   8.060  0.3393 -0.8340 -0.0119
  409MOL0     H55167   4.502   9.081   7.839  1.0277 -0.9228 -0.3622
  409MOL0     H55168   4.490   8.991   7.990  0.5345 -0.4123  0.2605
  409MOL0     H55169   4.627   8.852   7.847 -0.0164 -1.8660  0.8875
  409MOL0     H55170   4.473   8.775   7.882  3.4049 -2.4833 -1.0577
  409MOL0     H55171   4.523   8.941   7.628  0.2762  1.1838  3.1243
  409MOL0     H55172   4.388   8.830   7.670 -0.6638  0.7437 -4.8111
  409MOL0     H55173   4.675   8.761   7.639 -1.7508  3.5333  1.0321
  409MOL0     H55174   4.548   8.720   7.520 -0.1390  1.9246 -0.2458
  409MOL0     H55175   4.720   8.553   7.497  0.8848  0.3727  0.4396
  409MOL0     H55176   4.839   8.350   7.456 -0.5310  0.2415 -0.4999
  409MOL0     H55177   4.861   7.834   7.627  1.4190  2.6037  0.6596
  409MOL0     H55178   5.024   7.635   7.579 -0.4642 -2.0041 -2.2904
  409MOL0     H55179   5.326   7.710   7.285 -1.3214 -0.4998  0.1723
  409MOL0     H55180   5.411   7.748   7.436  1.4557 -1.2128 -1.7160
  409MOL0     H55181   5.419   7.502   7.485 -0.1832  1.2233  0.4469
  409MOL0     H55182   5.321   7.481   7.337  2.6257 -0.5504 -1.8692
  409MOL0     H55183   5.503   7.612   7.208  1.9347  1.0929  0.9563
  409MOL0     H55184   5.592   7.593   7.350 -2.1148  2.9995  1.6125
  409MOL0     H55185   5.645   7.419   7.205 -0.9307 -0.3440 -4.0815
  409MOL0     H55186   5.474   7.366   7.187 -1.1606 -2.1032  3.0405
  409MOL0     H55187   5.608   7.211   7.318  0.1707 -0.7208  0.5106
  409MOL0     H55188   5.466   7.256   7.398 -0.5855 -0.4884 -2.8484
  409MOL0     H55189   5.756   7.331   7.422 -1.8477 -1.8567 -2.1146
  409MOL0     H55190   5.650   7.418   7.536 -2.7987 -0.8145  0.6292
  409MOL0     H55191   5.755   7.168   7.594 -0.7738  2.2705 -0.8302
  409MOL0     H55192   5.589   7.134   7.556 -0.0496  0.1067 -3.8490
  409MOL0     H55193   5.525   7.332   7.704 -0.6916 -1.4885 -0.8336
  409MOL0     H55194   5.587   7.190   7.787 -0.0142 -1.3069 -2.2418
  409MOL0     H55195   5.215   7.894   7.292 -1.2713  3.9791 -0.0546
  409MOL0     H55196   5.067   8.064   7.316  1.2879 -0.4221 -1.4060
  409MOL0     H55197   4.714   8.213   7.840 -1.4137 -2.1729 -1.6896
  409MOL0     H55198   4.571   8.421   7.873 -0.6901  0.0816 -0.0041
  409MOL0     H55199   3.245   9.602   8.322  3.0430 -1.2211  0.2109
  409MOL0     H55200   3.162   9.826   8.406  0.8664  1.9581 -1.7925
  409MOL0     H55201   3.281  10.087   8.755  0.2844 -0.2601 -2.6650
  409MOL0     H55202   3.156  10.230   8.886 -0.0806  0.7580 -1.3864
  409MOL0     H55203   3.145  10.678   8.789  0.3823  0.8414  1.8081
  409MOL0     H55204   3.289  10.651   8.896  1.1416  1.7690 -0.7395
  409MOL0     H55205   3.104  10.826   8.968 -1.1593 -0.1005  2.3732
  409MOL0     H55206   3.106  10.715   9.090  1.9048  1.6402  0.0371
  409MOL0     H55207   2.885  10.735   9.044  3.5442  0.7802  2.2638
  409MOL0     H55208   2.921  10.580   8.994  1.1123 -0.1540  2.4099
  409MOL0     H55209   2.925  10.795   8.782 -2.6669  0.7868 -0.3849
  409MOL0     H55210   2.895  10.616   8.775 -0.8611  0.6312 -0.9353
  409MOL0     H55211   2.516  10.812   8.844 -0.2536 -1.7731 -1.4708
  409MOL0     H55212   3.309  10.572   8.660 -4.8105 -0.6012 -3.0435
  409MOL0     H55213   3.406  10.535   8.438  2.6121  0.6007  1.3873
  409MOL0     H55214   3.526  10.413   8.461 -0.1606 -1.1049 -2.2935
  409MOL0     H55215   3.396  10.365   8.375 -1.1177 -1.3117  0.9436
  410MOL0     O55216   9.155   6.302   8.458  0.6728 -0.1637  0.0871
  410MOL0     C55217   9.062   6.222   8.469 -1.2328 -0.9491 -0.1690
  410MOL0     O55218   8.997   6.160   8.369  0.2204  0.0956  0.5477
  410MOL0     C55219   9.020   6.203   8.238 -0.0028 -0.1344 -0.0893
  410MOL0     C55220   8.924   6.278   8.167  0.6708 -0.1205 -0.1981
  410MOL0     C55221   8.952   6.318   8.036 -0.4566 -0.2072  0.7680
  410MOL0     C55222   9.071   6.274   7.972 -0.6240  0.4993  0.0879
  410MOL0     O55223   9.093   6.312   7.839 -0.9037 -0.0812 -0.9063
  410MOL0     C55224   9.227   6.372   7.806  0.8544  0.3989 -0.2350
  410MOL0     C55225   9.238   6.531   7.779  0.3103 -0.4444 -0.2274
  410MOL0     C55226   9.156   6.624   7.866  0.4555 -0.2589 -0.5542
  410MOL0     C55227   9.208   6.634   8.013  1.0965 -0.2914 -0.7474
  410MOL0     C55228   9.109   6.716   8.092 -1.0275 -0.8654 -0.1001
  410MOL0     C55229   9.140   6.738   8.237 -0.2103  0.3928 -0.5989
  410MOL0     C55230   9.198   6.623   8.308  0.4572  0.7541  0.0001
  410MOL0     C55231   9.183   6.636   8.461 -0.1195 -0.6478  0.0336
  410MOL0     N55232   9.255   6.751   8.505 -0.2087  0.4827  0.1577
  410MOL0     C55233   9.380   6.767   8.470 -1.0755 -0.2568  0.0234
  410MOL0     C55234   9.421   6.894   8.502  0.6523 -0.6560  0.2223
  410MOL0     C55235   9.554   6.940   8.463  0.3115  0.3562  0.6146
  410MOL0     C55236   9.558   7.071   8.376 -0.6061  0.7170 -0.2378
  410MOL0     C55237   9.700   7.133   8.353  0.0179 -0.1642 -0.8395
  410MOL0     C55238   9.705   7.252   8.263  0.7794 -0.3344  1.0869
  410MOL0     O55239   9.686   7.212   8.130  0.4673  0.3291 -0.0771
  410MOL0     C55240   9.644   7.294   8.032 -0.2613  1.0195 -0.6379
  410MOL0     C55241   9.726   7.343   7.932 -0.2751  0.3953 -0.2393
  410MOL0     C55242   9.680   7.411   7.824 -0.1399 -1.1761 -0.2627
  410MOL0     C55243   9.550   7.460   7.823 -0.0739 -0.4640  1.3114
  410MOL0     C55244   9.503   7.538   7.705  0.3313  0.4220 -0.0763
  410MOL0     O55245   9.589   7.551   7.595 -0.1229 -0.0475 -0.0622
  410MOL0     C55246   9.543   7.604   7.482 -0.6735 -0.2976  0.4991
  410MOL0     C55247   9.600   7.541   7.368 -0.0305 -1.0088  0.2462
  410MOL0     C55248   9.569   7.590   7.240  1.0986  0.8565 -0.0848
  410MOL0     C55249   9.481   7.698   7.230  0.1939 -0.2305  0.9924
  410MOL0     O55250   9.455   7.723   7.095  0.6927  0.0219  0.6988
  410MOL0     C55251   9.350   7.807   7.045 -0.0668 -0.0037 -0.6473
  410MOL0     C55252   9.307   7.760   6.912 -0.2546 -0.6015 -0.5248
  410MOL0     C55253   9.180   7.836   6.859 -0.6512 -0.2159 -1.0129
  410MOL0     C55254   9.078   7.739   6.821  0.3565  0.3040 -0.0114
  410MOL0     C55255   8.951   7.811   6.785  0.1274 -0.1562  0.1194
  410MOL0     C55256   8.860   7.711   6.707 -0.1874 -0.5709 -0.1577
  410MOL0     C55257   8.733   7.784   6.642 -0.3760  0.1736 -0.7481
  410MOL0     C55258   8.774   7.847   6.512 -0.8065  0.7177 -0.7476
  410MOL0    Cl55259   8.617   7.910   6.441  0.0332  0.1892  0.3132
  410MOL0     C55260   9.425   7.766   7.334  0.1645  0.0421  0.0696
  410MOL0     C55261   9.451   7.715   7.462  0.2622  1.0332  0.0654
  410MOL0     O55262   9.390   7.583   7.711  0.3848  0.4892  0.4799
  410MOL0     C55263   9.463   7.423   7.929  0.3843  0.3323 -0.2946
  410MOL0     C55264   9.506   7.338   8.031 -0.0927 -0.3274  0.4653
  410MOL0     N55265   9.303   6.955   8.553 -0.2571 -0.9916 -0.2949
  410MOL0     N55266   9.212   6.865   8.567 -0.0230  0.1230 -0.4436
  410MOL0     C55267   9.153   6.187   8.044 -0.6438  0.0487 -0.1091
  410MOL0     C55268   9.133   6.162   8.175  0.2373  0.2221  0.3442
  410MOL0     C55269   9.021   6.203   8.611  0.6386 -0.3484  0.1263
  410MOL0     C55270   8.889   6.150   8.638  0.1318 -0.1529 -0.0912
  410MOL0     C55271   8.847   6.114   8.763  0.2429  1.1425 -0.2078
  410MOL0     C55272   8.929   6.146   8.868 -1.3347 -0.3448  0.1621
  410MOL0     O55273   8.885   6.133   8.998 -0.9971 -0.4337 -0.3486
  410MOL0     C55274   8.760   6.065   9.032 -0.2776 -0.6298 -0.2233
  410MOL0     C55275   8.774   5.910   9.007 -0.2395 -0.5412  0.5579
  410MOL0     C55276   8.635   5.834   8.991  1.2241 -0.6453  0.1008
  410MOL0     C55277   8.539   5.831   9.109  0.1599 -0.3803 -0.3819
  410MOL0     C55278   8.449   5.947   9.115 -0.0820  0.6977 -0.2082
  410MOL0     C55279   8.369   6.037   9.097 -0.2916 -0.4649 -0.6555
  410MOL0     C55280   9.050   6.215   8.853 -0.0340  0.7810  0.5300
  410MOL0     C55281   9.105   6.230   8.727  0.6257  0.1098  0.3580
  410MOL0     C55282   9.250   6.275   8.719  1.4872  0.7321  0.0852
  410MOL0     H55283   8.828   6.299   8.214  1.7066 -0.8106  2.4259
  410MOL0     H55284   8.881   6.375   7.978 -1.6126  2.2526  4.3325
  410MOL0     H55285   9.291   6.361   7.894 -2.3789  0.9299  2.3748
  410MOL0     H55286   9.261   6.319   7.716 -0.9468  1.7231 -1.7640
  410MOL0     H55287   9.215   6.549   7.674  2.9968 -0.8584 -0.9522
  410MOL0     H55288   9.345   6.550   7.792  0.6723 -0.8909 -2.2075
  410MOL0     H55289   9.051   6.592   7.859 -0.1071  1.5147 -0.8922
  410MOL0     H55290   9.159   6.729   7.835 -1.2062  0.0767  0.3137
  410MOL0     H55291   9.217   6.534   8.056  1.1539  1.3267  3.4861
  410MOL0     H55292   9.308   6.679   8.010  0.5291  1.5157  2.3202
  410MOL0     H55293   9.079   6.811   8.046 -2.6297 -1.4593 -0.3611
  410MOL0     H55294   9.011   6.666   8.091 -1.1017 -0.8246  1.8340
  410MOL0     H55295   9.214   6.819   8.238  0.2140  0.1014 -3.0666
  410MOL0     H55296   9.046   6.769   8.283 -0.1659 -0.3411  0.0042
  410MOL0     H55297   9.302   6.615   8.278  1.0590 -0.7163  2.2048
  410MOL0     H55298   9.156   6.527   8.276  2.6393  0.2212 -1.4214
  410MOL0     H55299   9.077   6.648   8.488  0.1750 -3.0664  2.7651
  410MOL0     H55300   9.221   6.547   8.512  3.5817  1.7823  1.9375
  410MOL0     H55301   9.453   6.694   8.436  0.1336  0.2554  1.4387
  410MOL0     H55302   9.584   6.975   8.561 -2.3285  1.9629  0.9622
  410MOL0     H55303   9.614   6.857   8.425 -0.9767 -0.8042  1.0320
  410MOL0     H55304   9.506   7.054   8.281 -0.6649  0.0660 -0.0899
  410MOL0     H55305   9.501   7.151   8.425  1.3859  2.8324 -1.1768
  410MOL0     H55306   9.772   7.060   8.315  1.9998  1.7745 -0.9876
  410MOL0     H55307   9.750   7.170   8.443 -0.8905  0.5443 -0.6083
  410MOL0     H55308   9.800   7.305   8.262 -0.0309  1.1851  1.5213
  410MOL0     H55309   9.632   7.324   8.300  0.0706 -0.8515  0.7211
  410MOL0     H55310   9.828   7.307   7.929 -0.2016  0.5276  0.5568
  410MOL0     H55311   9.745   7.449   7.746 -3.0183 -1.2309 -2.8742
  410MOL0     H55312   9.671   7.459   7.380  2.0269  0.7082  0.4962
  410MOL0     H55313   9.603   7.544   7.148  0.8718 -0.0749  0.2863
  410MOL0     H55314   9.266   7.783   7.110 -0.3095  0.3610 -0.8252
  410MOL0     H55315   9.375   7.914   7.050  0.7211 -0.1919 -0.3462
  410MOL0     H55316   9.376   7.774   6.829 -0.0679 -4.4413 -1.2098
  410MOL0     H55317   9.286   7.654   6.931  2.3742 -1.0824  0.1314
  410MOL0     H55318   9.138   7.905   6.933  1.4009  0.8735 -0.8044
  410MOL0     H55319   9.209   7.889   6.768 -1.4052 -0.2114 -1.2583
  410MOL0     H55320   9.063   7.659   6.893  2.4481  0.1373  0.2949
  410MOL0     H55321   9.112   7.690   6.730  1.6983 -2.1330  1.6816
  410MOL0     H55322   8.969   7.905   6.733  0.6991 -0.7031 -0.6850
  410MOL0     H55323   8.901   7.849   6.875  4.2487 -2.3133  3.6517
  410MOL0     H55324   8.911   7.657   6.627 -1.2860  0.1227 -1.3713
  410MOL0     H55325   8.818   7.640   6.779  0.2275  0.9622  1.6926
  410MOL0     H55326   8.693   7.861   6.709  1.9787  1.9200 -1.2091
  410MOL0     H55327   8.664   7.702   6.617  2.5141 -1.7836 -2.8805
  410MOL0     H55328   8.836   7.936   6.525 -0.6038  0.4925 -0.1905
  410MOL0     H55329   8.821   7.770   6.451  1.3827  2.4665 -1.4124
  410MOL0     H55330   9.351   7.842   7.309 -1.7836 -2.2073 -1.3532
  410MOL0     H55331   9.418   7.765   7.552 -0.1692 -1.8531  1.6490
  410MOL0     H55332   9.361   7.459   7.924 -0.0234 -0.6333  0.5630
  410MOL0     H55333   9.433   7.303   8.104 -1.1812  0.9433  0.0272
  410MOL0     H55334   9.251   6.161   8.006 -0.4233 -1.3527  1.3142
  410MOL0     H55335   9.188   6.087   8.232  0.8079 -1.0647 -1.7706
  410MOL0     H55336   8.822   6.133   8.554  0.6142  0.4304 -0.6020
  410MOL0     H55337   8.744   6.082   8.775 -0.0331  2.3461  0.8308
  410MOL0     H55338   8.686   6.102   8.960  1.1551 -1.5905 -2.2889
  410MOL0     H55339   8.732   6.082   9.136  3.3669 -2.9064  1.3116
  410MOL0     H55340   8.823   5.861   9.092 -1.9007  0.5819  2.2464
  410MOL0     H55341   8.838   5.907   8.919  0.7590  1.9836  1.0971
  410MOL0     H55342   8.667   5.729   8.989  1.5294 -0.5451 -0.5201
  410MOL0     H55343   8.576   5.857   8.902  0.5684 -1.6726  0.2483
  410MOL0     H55344   8.484   5.736   9.103 -2.7961  1.2608 -1.9784
  410MOL0     H55345   8.592   5.834   9.204  0.8033  0.4939 -0.7603
  410MOL0     H55346   8.300   6.117   9.079 -0.7215  0.0099  2.5707
  410MOL0     H55347   9.106   6.237   8.944 -0.1618  3.0481  0.1349
  410MOL0     H55348   9.296   6.218   8.637 -1.0667 -0.2943 -0.7433
  410MOL0     H55349   9.265   6.381   8.694  2.6625  1.0794  2.0794
  410MOL0     H55350   9.312   6.246   8.804  2.6209 -0.7758 -1.2005
  411MOL0     O55351   9.003   0.295   3.421  0.3110  0.0049 -0.6948
  411MOL0     C55352   8.959   0.384   3.345  0.2220 -0.1101 -0.8370
  411MOL0     O55353   9.005   0.404   3.222 -0.6480  0.3507  1.1938
  411MOL0     C55354   9.119   0.342   3.174 -0.2603 -0.4438 -0.3770
  411MOL0     C55355   9.242   0.334   3.254 -0.7111 -0.2515 -0.2682
  411MOL0     C55356   9.358   0.277   3.207  0.4814 -0.0541  0.0700
  411MOL0     C55357   9.362   0.236   3.073 -0.3848 -0.8797  0.6795
  411MOL0     O55358   9.479   0.181   3.022 -0.2259 -0.2852  0.3020
  411MOL0     C55359   9.555   0.277   2.949  0.1279 -0.0108  0.0507
  411MOL0     C55360   9.696   0.237   2.935 -0.8463  0.7302  0.2065
  411MOL0     C55361   9.765   0.259   3.070 -0.5964  0.0966  0.0464
  411MOL0     C55362   9.926   0.270   3.070  0.1078  0.0618 -0.3509
  411MOL0     C55363  10.023   0.183   3.159 -0.7627 -0.7844  0.8795
  411MOL0     C55364  10.001   0.186   3.306 -0.3405  0.7700 -0.4361
  411MOL0     C55365  10.059   0.319   3.365 -0.1566 -0.3669 -1.3491
  411MOL0     C55366  10.031   0.347   3.519 -0.1381  0.8989  1.1198
  411MOL0     N55367  10.084   0.468   3.586  0.5010  0.6375  1.3013
  411MOL0     C55368  10.038   0.594   3.584  0.7908 -0.4365  0.4700
  411MOL0     C55369  10.115   0.663   3.672 -0.2962  0.0846  0.0471
  411MOL0     C55370  10.093   0.800   3.724 -0.2458  0.3177 -0.1419
  411MOL0     C55371  10.213   0.902   3.685 -0.3010  0.1126  0.6847
  411MOL0     C55372  10.251   0.922   3.536  0.1583  0.5012  0.4888
  411MOL0     C55373  10.188   1.041   3.465  0.2704 -0.5948  0.3496
  411MOL0     O55374  10.047   1.008   3.467  0.8976  0.2298 -0.0543
  411MOL0     C55375   9.956   1.062   3.551  0.4004  0.0706 -0.2076
  411MOL0     C55376   9.971   1.165   3.630  0.4012  0.6021  0.5382
  411MOL0     C55377   9.867   1.238   3.683  0.0499  0.2860  0.3562
  411MOL0     C55378   9.738   1.185   3.673  0.5958  0.1955  0.1830
  411MOL0     C55379   9.629   1.246   3.773  0.9082 -0.0613 -0.3887
  411MOL0     O55380   9.533   1.153   3.820  0.0488  0.2624 -0.1134
  411MOL0     C55381   9.478   1.163   3.948 -0.5746  0.1031  1.0569
  411MOL0     C55382   9.550   1.200   4.064  0.3588  0.0758  0.3459
  411MOL0     C55383   9.477   1.210   4.184  0.0275 -0.2851 -0.0873
  411MOL0     C55384   9.345   1.170   4.193  0.2346 -0.7093  0.2222
  411MOL0     O55385   9.293   1.176   4.324  0.0572 -0.7760  0.6503
  411MOL0     C55386   9.158   1.136   4.348  0.2294  0.0848  0.9535
  411MOL0     C55387   9.121   1.187   4.488 -0.1130  0.2747 -0.3604
  411MOL0     C55388   9.072   1.338   4.496 -0.8937  0.4298 -0.5068
  411MOL0     C55389   9.176   1.416   4.578 -0.1407  0.1078 -0.7984
  411MOL0     C55390   9.107   1.545   4.637 -0.1547  0.2187  0.0716
  411MOL0     C55391   9.016   1.523   4.763  0.9014 -0.3540 -0.8332
  411MOL0     C55392   9.091   1.466   4.879  0.2655 -0.1208  1.0891
  411MOL0     C55393   9.209   1.544   4.915  0.1176 -0.9501 -0.2002
  411MOL0    Cl55394   9.166   1.716   4.949  0.0791 -0.3644 -0.6086
  411MOL0     C55395   9.278   1.127   4.072  0.1656  0.0773  0.3657
  411MOL0     C55396   9.350   1.123   3.954 -0.7516 -0.0235 -0.0358
  411MOL0     O55397   9.649   1.359   3.821  0.1458  0.6758  0.2631
  411MOL0     C55398   9.716   1.062   3.613  0.6969 -0.2249  0.4467
  411MOL0     C55399   9.824   1.012   3.544  0.2212 -0.9233 -0.1166
  411MOL0     N55400  10.213   0.579   3.715  0.5855 -0.0204 -0.3874
  411MOL0     N55401  10.191   0.457   3.676  0.0240  0.1124  0.0899
  411MOL0     C55402   9.243   0.251   2.998 -0.2882 -0.7583  0.0093
  411MOL0     C55403   9.116   0.300   3.041  0.5813 -0.5224  0.0194
  411MOL0     C55404   8.829   0.448   3.368  0.1077 -1.3909 -0.4173
  411MOL0     C55405   8.757   0.506   3.259 -0.1300 -0.3901 -0.5721
  411MOL0     C55406   8.635   0.572   3.284  0.4407  0.6818  0.4918
  411MOL0     C55407   8.580   0.587   3.406 -0.0282  0.1424  0.8688
  411MOL0     O55408   8.460   0.634   3.428 -0.6238 -0.5163 -0.5355
  411MOL0     C55409   8.371   0.670   3.325  0.1555  0.1908  0.1196
  411MOL0     C55410   8.392   0.815   3.274 -0.0590 -0.2907 -0.6794
  411MOL0     C55411   8.463   0.911   3.353 -0.8203  0.7016  0.4956
  411MOL0     C55412   8.441   1.068   3.326  0.2194  0.9406  0.2976
  411MOL0     C55413   8.552   1.148   3.377  0.3605 -0.0959  0.7106
  411MOL0     C55414   8.632   1.216   3.424 -0.1195 -0.4490  0.2938
  411MOL0     C55415   8.646   0.535   3.516 -0.0268 -0.2367  0.1470
  411MOL0     C55416   8.773   0.470   3.499  0.4728 -0.3366 -0.3523
  411MOL0     C55417   8.846   0.425   3.623  0.2471  0.8082 -0.6599
  411MOL0     H55418   9.250   0.376   3.353  3.5793  0.4037 -0.7352
  411MOL0     H55419   9.445   0.268   3.271 -0.3064 -2.5933  0.9095
  411MOL0     H55420   9.502   0.291   2.855  1.4248 -2.2263 -1.0944
  411MOL0     H55421   9.550   0.377   2.993 -0.6424  1.2049 -2.5979
  411MOL0     H55422   9.740   0.281   2.845 -2.7727 -1.8211 -2.1883
  411MOL0     H55423   9.696   0.128   2.926 -1.4848  0.6837  0.6667
  411MOL0     H55424   9.734   0.179   3.139 -1.3092  0.3280 -0.0092
  411MOL0     H55425   9.734   0.348   3.125  0.0266 -0.4605  1.3563
  411MOL0     H55426   9.956   0.242   2.968 -1.6446  2.1417 -1.5216
  411MOL0     H55427   9.955   0.374   3.082 -2.2520  0.6810  0.5630
  411MOL0     H55428  10.014   0.080   3.122 -1.8178 -1.4423  2.8281
  411MOL0     H55429  10.126   0.214   3.139 -0.8635 -0.6267  0.5975
  411MOL0     H55430   9.892   0.181   3.316 -0.3039  1.1613  0.2262
  411MOL0     H55431  10.041   0.096   3.355 -3.1504 -0.7181 -0.6554
  411MOL0     H55432  10.010   0.406   3.321  0.3162  2.1286  2.5018
  411MOL0     H55433  10.166   0.325   3.342 -0.1020 -1.9302 -1.5973
  411MOL0     H55434   9.925   0.328   3.542  0.0573 -0.2022  1.1767
  411MOL0     H55435  10.075   0.262   3.572  1.0876  1.4055  0.9396
  411MOL0     H55436   9.954   0.634   3.528  0.7364  0.9794  1.5231
  411MOL0     H55437   9.996   0.841   3.695 -0.6858 -0.0869  0.7085
  411MOL0     H55438  10.099   0.797   3.833 -2.6661  1.0458  0.0784
  411MOL0     H55439  10.194   1.005   3.717  3.0218  1.7967 -2.0849
  411MOL0     H55440  10.301   0.878   3.746  0.4864  2.8154  0.7319
  411MOL0     H55441  10.222   0.829   3.485 -0.8001  0.6757  0.7013
  411MOL0     H55442  10.359   0.938   3.528  0.0939  0.6766 -0.0907
  411MOL0     H55443  10.222   1.053   3.362  1.2039 -0.7351  0.6368
  411MOL0     H55444  10.218   1.127   3.526  2.0874  0.6992 -2.1598
  411MOL0     H55445  10.073   1.198   3.647  0.1869  0.4400  2.3354
  411MOL0     H55446   9.894   1.324   3.743  3.4869 -1.0453  0.9399
  411MOL0     H55447   9.653   1.233   4.072  0.5506 -0.0558 -1.3413
  411MOL0     H55448   9.511   1.238   4.283 -0.2872  2.3684 -0.6599
  411MOL0     H55449   9.096   1.167   4.264 -1.1700  0.1056  1.9550
  411MOL0     H55450   9.161   1.027   4.342  0.3322  0.1602 -1.2268
  411MOL0     H55451   9.044   1.128   4.538  0.2692  2.5421  3.3025
  411MOL0     H55452   9.212   1.170   4.547  0.6528  0.8743 -1.3320
  411MOL0     H55453   9.055   1.379   4.396  0.1801 -0.3172 -1.0141
  411MOL0     H55454   8.971   1.333   4.539 -0.9338 -2.5394 -0.7299
  411MOL0     H55455   9.267   1.430   4.519  0.1599 -1.0765 -0.6451
  411MOL0     H55456   9.205   1.348   4.659  0.9859  0.8905 -0.5255
  411MOL0     H55457   9.049   1.596   4.559  0.4406  2.9801  1.3052
  411MOL0     H55458   9.193   1.607   4.666  1.5518 -1.5796 -0.8756
  411MOL0     H55459   8.968   1.613   4.801  0.6119 -0.9631  0.2988
  411MOL0     H55460   8.927   1.472   4.726 -1.2938  4.5085 -3.1642
  411MOL0     H55461   9.132   1.367   4.860  0.4993  0.2244 -0.3028
  411MOL0     H55462   9.023   1.461   4.965 -1.3077  1.4208  0.0162
  411MOL0     H55463   9.241   1.504   5.012 -1.6836 -1.8894  0.0337
  411MOL0     H55464   9.295   1.526   4.850  0.4824 -1.6731  0.4613
  411MOL0     H55465   9.175   1.092   4.069 -0.0933  0.5874  2.2888
  411MOL0     H55466   9.299   1.099   3.861  0.6974  1.9823 -1.4199
  411MOL0     H55467   9.616   1.022   3.603  0.1164  1.1905  0.4500
  411MOL0     H55468   9.796   0.935   3.472 -0.3704 -0.5420 -0.3042
  411MOL0     H55469   9.254   0.210   2.898 -2.3887  0.9428 -0.9807
  411MOL0     H55470   9.031   0.296   2.974 -1.2079  0.2113  2.1522
  411MOL0     H55471   8.796   0.491   3.159  2.6014  2.2160 -0.0576
  411MOL0     H55472   8.600   0.618   3.192  0.4128 -1.0257 -0.3802
  411MOL0     H55473   8.273   0.668   3.373 -0.1465 -0.2300 -0.5083
  411MOL0     H55474   8.374   0.592   3.249  0.1089  0.8462 -0.5769
  411MOL0     H55475   8.296   0.862   3.251  0.0400 -0.2607 -1.0313
  411MOL0     H55476   8.441   0.818   3.176 -1.6350 -2.2145 -1.6047
  411MOL0     H55477   8.570   0.885   3.347 -1.3085 -1.2206 -0.5410
  411MOL0     H55478   8.429   0.905   3.457 -1.1162  0.7185  0.4001
  411MOL0     H55479   8.442   1.078   3.217  2.2496 -0.1326  0.1767
  411MOL0     H55480   8.346   1.109   3.362 -0.0871 -2.0134  3.4122
  411MOL0     H55481   8.708   1.284   3.457 -1.1877  1.3880 -0.8772
  411MOL0     H55482   8.598   0.535   3.613 -0.1831 -2.0430  0.0869
  411MOL0     H55483   8.949   0.457   3.610 -0.0575  1.2048 -2.4819
  411MOL0     H55484   8.795   0.481   3.702 -0.6054  1.9039 -1.9222
  411MOL0     H55485   8.832   0.318   3.639  0.1212  1.2708  2.9659
  412MOL0     O55486   6.223   6.021   8.009  0.0101 -0.7308 -0.5602
  412MOL0     C55487   6.269   6.086   8.109 -0.2663  0.4017  0.0397
  412MOL0     O55488   6.381   6.049   8.184 -0.0339  0.3233  0.1104
  412MOL0     C55489   6.402   5.912   8.198 -1.5677  0.1368  0.7394
  412MOL0     C55490   6.410   5.860   8.322  0.4535 -0.2538 -0.3299
  412MOL0     C55491   6.421   5.722   8.341  1.5616 -0.0902  0.7210
  412MOL0     C55492   6.416   5.634   8.237  0.1266  0.5544  0.4316
  412MOL0     O55493   6.437   5.503   8.256 -0.3908 -0.2013 -0.2542
  412MOL0     C55494   6.385   5.437   8.369  0.2522 -0.6789 -0.5634
  412MOL0     C55495   6.394   5.288   8.379  0.2931  0.9402  0.1259
  412MOL0     C55496   6.290   5.215   8.295 -0.3537 -0.2185  0.0995
  412MOL0     C55497   6.339   5.085   8.234 -0.1625 -0.7704  0.2000
  412MOL0     C55498   6.345   4.958   8.326  0.8176 -0.0661  0.5990
  412MOL0     C55499   6.387   4.840   8.236  0.0925 -0.0041 -0.0996
  412MOL0     C55500   6.274   4.792   8.144 -0.2829 -0.1428 -0.0237
  412MOL0     C55501   6.290   4.650   8.097  0.2949 -0.5553 -0.7135
  412MOL0     N55502   6.226   4.635   7.964  0.4839 -0.0217 -0.8464
  412MOL0     C55503   6.288   4.574   7.859 -0.2726 -0.4686  0.0357
  412MOL0     C55504   6.193   4.553   7.770 -0.3478 -0.5937  0.6819
  412MOL0     C55505   6.223   4.481   7.643 -0.0884 -0.3552  0.0650
  412MOL0     C55506   6.142   4.517   7.514 -0.2424 -0.8343  0.5662
  412MOL0     C55507   6.157   4.660   7.450  0.0385 -0.0482 -1.3706
  412MOL0     C55508   6.062   4.657   7.325 -0.9487 -0.2746  0.3897
  412MOL0     O55509   6.065   4.781   7.242 -0.1835  0.9589  0.0767
  412MOL0     C55510   5.995   4.777   7.123  1.0336  0.5950  0.4133
  412MOL0     C55511   5.951   4.648   7.068 -0.0029 -0.5152  0.1421
  412MOL0     C55512   5.890   4.642   6.941  0.2642  0.3563 -0.4929
  412MOL0     C55513   5.866   4.759   6.864  0.3191  0.6857 -1.2713
  412MOL0     C55514   5.825   4.744   6.714 -0.0611 -0.4486 -0.5329
  412MOL0     O55515   5.824   4.863   6.636  0.1735 -0.1575 -0.1962
  412MOL0     C55516   5.823   4.839   6.498  0.1677 -0.4469 -0.5231
  412MOL0     C55517   5.702   4.835   6.429 -0.2566  0.2273 -0.8200
  412MOL0     C55518   5.704   4.801   6.297 -0.1821 -1.3429 -0.4953
  412MOL0     C55519   5.823   4.775   6.234 -0.7330  0.3005  0.0623
  412MOL0     O55520   5.817   4.726   6.103 -0.6338 -0.1045  0.7625
  412MOL0     C55521   5.908   4.614   6.073  0.6078 -0.2784  0.4764
  412MOL0     C55522   5.883   4.493   6.170 -0.1629  0.3072  0.5725
  412MOL0     C55523   5.911   4.354   6.111 -0.0728  0.9553  0.1909
  412MOL0     C55524   6.040   4.337   6.041  0.2462  0.1747 -0.2152
  412MOL0     C55525   6.046   4.203   5.963  0.5793 -0.1883  0.0698
  412MOL0     C55526   6.058   4.088   6.066 -0.5120 -0.2991 -0.9252
  412MOL0     C55527   6.076   3.955   6.002 -0.3870  0.0343 -0.9321
  412MOL0     C55528   6.078   3.838   6.099 -0.1651 -0.0400 -1.4129
  412MOL0    Cl55529   6.143   3.691   6.010  0.2467  0.2734  0.0149
  412MOL0     C55530   5.945   4.792   6.293 -0.4879 -0.0185 -0.3042
  412MOL0     C55531   5.945   4.823   6.432 -0.1534  0.2766  0.1561
  412MOL0     O55532   5.814   4.630   6.665 -0.1221 -0.5724 -0.3844
  412MOL0     C55533   5.916   4.880   6.916  0.8772  0.6870 -0.1251
  412MOL0     C55534   5.977   4.888   7.041 -0.6416  1.0638 -0.1136
  412MOL0     N55535   6.079   4.616   7.807 -0.1221 -0.3618 -1.1067
  412MOL0     N55536   6.099   4.670   7.925  0.1391 -0.2646  0.4155
  412MOL0     C55537   6.422   5.676   8.105  0.6804 -0.3300  0.3326
  412MOL0     C55538   6.415   5.818   8.088  0.3331  0.1385  0.1257
  412MOL0     C55539   6.193   6.204   8.143 -0.2942 -0.3655 -0.3523
  412MOL0     C55540   6.183   6.244   8.277  0.4889 -0.1501  0.9363
  412MOL0     C55541   6.110   6.357   8.316  0.3449  0.5524  0.4000
  412MOL0     C55542   6.040   6.426   8.217  0.4423  0.0363  0.1511
  412MOL0     O55543   5.970   6.542   8.263 -0.0529 -0.2449 -0.2295
  412MOL0     C55544   5.871   6.615   8.183  0.3739  0.6669 -0.0082
  412MOL0     C55545   5.782   6.698   8.275  0.4224  0.3918  0.3638
  412MOL0     C55546   5.851   6.781   8.383  0.5062  0.3495 -0.2521
  412MOL0     C55547   5.761   6.866   8.479  0.4050 -0.1364  1.3520
  412MOL0     C55548   5.659   6.941   8.402 -0.3887  0.2129  0.6145
  412MOL0     C55549   5.573   6.997   8.329 -0.7746 -0.3143  0.1406
  412MOL0     C55550   6.048   6.389   8.079  0.0974 -0.2193  0.0517
  412MOL0     C55551   6.130   6.285   8.039 -0.7375  0.9495  0.3191
  412MOL0     C55552   6.138   6.258   7.890 -0.7270 -0.5040  0.2342
  412MOL0     H55553   6.397   5.930   8.404 -1.7181 -0.9491  0.0058
  412MOL0     H55554   6.442   5.682   8.440  0.4356 -3.6051 -0.3153
  412MOL0     H55555   6.437   5.473   8.459  0.0546 -2.1923  0.1805
  412MOL0     H55556   6.278   5.459   8.379  0.5671  0.2214  1.4684
  412MOL0     H55557   6.381   5.273   8.486  1.7404  3.5177  0.7780
  412MOL0     H55558   6.495   5.245   8.370  1.1066  1.5379  4.2785
  412MOL0     H55559   6.269   5.283   8.211 -0.4416  2.1163  1.9167
  412MOL0     H55560   6.206   5.194   8.361  1.5967  0.5306  3.0243
  412MOL0     H55561   6.264   5.072   8.156 -1.0340  2.4687  0.3720
  412MOL0     H55562   6.436   5.094   8.184 -0.2486  0.7900  0.2811
  412MOL0     H55563   6.410   4.979   8.412  1.5442  2.9810 -0.5488
  412MOL0     H55564   6.242   4.932   8.353  1.4890 -2.4413  1.0888
  412MOL0     H55565   6.469   4.875   8.173  0.5461  0.2500  0.6119
  412MOL0     H55566   6.431   4.767   8.305  2.4591  1.4310  0.0081
  412MOL0     H55567   6.255   4.860   8.061  1.9156 -0.1102 -0.5659
  412MOL0     H55568   6.175   4.786   8.189 -1.0690 -0.0320 -1.6550
  412MOL0     H55569   6.399   4.634   8.099  0.5844  0.9621  2.2323
  412MOL0     H55570   6.245   4.578   8.166 -1.2225  0.2136 -0.8704
  412MOL0     H55571   6.393   4.550   7.850 -0.1438  0.3586 -0.8021
  412MOL0     H55572   6.330   4.487   7.620 -0.1484  0.1606 -0.0892
  412MOL0     H55573   6.214   4.373   7.658 -0.5582 -0.7910 -2.7661
  412MOL0     H55574   6.163   4.435   7.445  1.4186 -2.1443  2.4851
  412MOL0     H55575   6.038   4.512   7.548 -0.3341  0.3149  0.5133
  412MOL0     H55576   6.257   4.667   7.406  0.1192  1.4275 -0.9933
  412MOL0     H55577   6.131   4.731   7.528  1.7000 -1.6339  0.7791
  412MOL0     H55578   5.957   4.639   7.349 -1.0807  2.5441  2.4547
  412MOL0     H55579   6.093   4.570   7.266  0.9338  1.7696 -1.8506
  412MOL0     H55580   5.962   4.561   7.132  0.8957  0.0274  0.7572
  412MOL0     H55581   5.844   4.553   6.901 -0.8932 -0.6184  2.7954
  412MOL0     H55582   5.605   4.859   6.472  0.3397 -1.7861  1.8990
  412MOL0     H55583   5.621   4.792   6.227 -0.8833  2.2150 -0.2979
  412MOL0     H55584   5.879   4.584   5.972 -0.5768 -0.0825  0.7385
  412MOL0     H55585   6.013   4.644   6.072  0.7221 -0.6981 -0.8194
  412MOL0     H55586   5.941   4.494   6.263  1.1437 -1.6791 -0.1465
  412MOL0     H55587   5.783   4.503   6.213 -0.7203  2.6810 -1.0794
  412MOL0     H55588   5.905   4.282   6.194 -2.3348 -0.2125 -0.9021
  412MOL0     H55589   5.816   4.339   6.060  0.5178  0.3928 -0.7779
  412MOL0     H55590   6.129   4.343   6.105  0.0302 -0.5932  0.1676
  412MOL0     H55591   6.035   4.421   5.972 -1.0331  0.0661 -0.2667
  412MOL0     H55592   6.125   4.203   5.887 -0.7774 -0.9119 -1.4134
  412MOL0     H55593   5.956   4.176   5.907  1.5830 -1.3919 -1.0347
  412MOL0     H55594   6.150   4.108   6.122 -0.5334 -2.8618  0.1664
  412MOL0     H55595   5.965   4.078   6.121 -0.1480  2.6091  0.3651
  412MOL0     H55596   6.155   3.949   5.927  0.8014  0.8403  0.2234
  412MOL0     H55597   5.987   3.927   5.944  1.6676 -0.3151 -4.2126
  412MOL0     H55598   6.147   3.854   6.182 -1.6068 -2.4234  0.3976
  412MOL0     H55599   5.981   3.813   6.144 -0.5556  0.9840 -1.6653
  412MOL0     H55600   6.037   4.785   6.235 -0.6777 -0.5085 -0.5598
  412MOL0     H55601   6.034   4.843   6.491  1.7755  0.7290 -2.6966
  412MOL0     H55602   5.888   4.971   6.865 -3.7274 -0.5566 -0.1959
  412MOL0     H55603   6.009   4.983   7.082 -1.5481  0.8061  1.2411
  412MOL0     H55604   6.424   5.603   8.025 -1.0133 -1.9293  1.6741
  412MOL0     H55605   6.419   5.852   7.985 -1.1466 -1.3371 -0.4600
  412MOL0     H55606   6.241   6.197   8.356  0.2998  0.7685  1.6423
  412MOL0     H55607   6.088   6.383   8.419  0.5000 -1.6358  1.0404
  412MOL0     H55608   5.810   6.554   8.115  0.4986 -2.0048  2.1072
  412MOL0     H55609   5.927   6.687   8.122  1.4712  1.8256  2.2503
  412MOL0     H55610   5.714   6.628   8.323  0.8424 -0.4831 -0.2992
  412MOL0     H55611   5.737   6.770   8.206  2.3497  0.2483 -1.1220
  412MOL0     H55612   5.934   6.836   8.340 -1.0844  0.0990 -4.0198
  412MOL0     H55613   5.904   6.707   8.444 -2.3353 -0.8908  0.9122
  412MOL0     H55614   5.717   6.806   8.558  0.0442 -1.2003  0.3674
  412MOL0     H55615   5.824   6.928   8.544  0.9314  0.1486  0.5845
  412MOL0     H55616   5.501   7.057   8.278 -0.5845 -0.3184 -0.1374
  412MOL0     H55617   5.985   6.454   8.020 -1.4711 -0.3618  1.4825
  412MOL0     H55618   6.233   6.212   7.861 -0.9969 -1.1381  0.3458
  412MOL0     H55619   6.062   6.191   7.847 -0.4926  1.6877 -4.1793
  412MOL0     H55620   6.127   6.354   7.838 -1.8984 -0.4829  0.4974
  413MOL0     O55621   3.364  11.280   8.076  0.4806  0.3957 -0.9177
  413MOL0     C55622   3.321  11.283   7.964  0.2632  0.6219  0.4445
  413MOL0     O55623   3.280  11.182   7.894 -0.0584 -0.3248 -0.3167
  413MOL0     C55624   3.349  11.064   7.884 -0.4119  1.3761 -0.7402
  413MOL0     C55625   3.484  11.036   7.932  1.8829  0.7080 -0.0544
  413MOL0     C55626   3.536  10.911   7.905  0.1190 -0.2333 -0.5562
  413MOL0     C55627   3.464  10.797   7.867  1.1856 -0.4045 -0.9830
  413MOL0     O55628   3.532  10.677   7.876 -0.4443  0.0407 -0.0633
  413MOL0     C55629   3.511  10.609   7.752  0.7128  0.7587  0.7962
  413MOL0     C55630   3.646  10.562   7.697 -0.0078 -0.2550  0.0028
  413MOL0     C55631   3.636  10.475   7.581 -0.7835 -0.1440 -0.2094
  413MOL0     C55632   3.774  10.423   7.538  0.6160  0.2687  0.2255
  413MOL0     C55633   3.870  10.538   7.512  0.8529 -0.5365 -0.7179
  413MOL0     C55634   3.975  10.508   7.406 -0.0315 -0.6607 -0.0158
  413MOL0     C55635   4.092  10.435   7.473 -0.3625 -0.0789 -0.0073
  413MOL0     C55636   4.214  10.446   7.377 -0.8691 -1.1507 -0.1943
  413MOL0     N55637   4.195  10.365   7.258  0.2204 -0.2736  0.8873
  413MOL0     C55638   4.181  10.230   7.253 -0.1038  0.4649 -0.6731
  413MOL0     C55639   4.099  10.213   7.145 -0.6127  0.3897  0.3867
  413MOL0     C55640   4.043  10.071   7.107 -0.6202  0.5448 -0.0944
  413MOL0     C55641   4.148   9.980   7.036 -0.3985  0.1615  0.3179
  413MOL0     C55642   4.100   9.826   7.040  0.4663 -0.4001 -0.3295
  413MOL0     C55643   4.183   9.735   6.956  0.3980  0.1649  0.5772
  413MOL0     O55644   4.304   9.717   7.027  0.5178 -0.2030  0.6692
  413MOL0     C55645   4.394   9.629   6.987  0.6464  0.6851  0.6873
  413MOL0     C55646   4.519   9.633   7.040 -0.2237  0.4640 -0.5227
  413MOL0     C55647   4.623   9.535   7.019  0.1712 -0.4711  0.8431
  413MOL0     C55648   4.576   9.422   6.940  0.1825 -0.1769 -0.7055
  413MOL0     C55649   4.672   9.320   6.923  0.0014  0.7183  0.7002
  413MOL0     O55650   4.619   9.192   6.914  0.0577  0.1442  0.3742
  413MOL0     C55651   4.700   9.084   6.879  0.3435 -0.0031 -0.0131
  413MOL0     C55652   4.644   8.985   6.798 -0.8450  0.2086  0.2380
  413MOL0     C55653   4.713   8.869   6.771 -0.4167  0.0374 -0.1777
  413MOL0     C55654   4.846   8.859   6.813 -0.9622  0.5362 -0.7591
  413MOL0     O55655   4.923   8.744   6.814 -0.8879 -0.2464  0.1874
  413MOL0     C55656   4.859   8.622   6.856  0.4518 -0.0983  0.1792
  413MOL0     C55657   4.950   8.505   6.897  0.5297  0.2843 -0.7689
  413MOL0     C55658   5.059   8.470   6.798 -0.1791 -0.3835 -0.2827
  413MOL0     C55659   5.096   8.319   6.800 -0.2257 -0.8035  0.2535
  413MOL0     C55660   5.146   8.263   6.670  0.9815  0.5448 -0.0517
  413MOL0     C55661   5.293   8.306   6.624 -0.3497  0.0430  0.0559
  413MOL0     C55662   5.324   8.283   6.464  0.3154  0.8450  0.8363
  413MOL0     C55663   5.293   8.132   6.412  0.1155  0.1870  0.0787
  413MOL0    Cl55664   5.136   8.094   6.362  0.0193  0.1159  0.0415
  413MOL0     C55665   4.903   8.955   6.899 -0.0138 -0.7244  0.4554
  413MOL0     C55666   4.826   9.063   6.939  0.2089  0.0282  0.8122
  413MOL0     O55667   4.791   9.352   6.906 -0.0423 -0.5878 -0.9271
  413MOL0     C55668   4.454   9.420   6.874 -0.2055 -0.3184  0.0498
  413MOL0     C55669   4.359   9.512   6.906 -0.1751 -0.4482 -0.0813
  413MOL0     N55670   4.074  10.329   7.082 -0.4329 -0.1799  0.6563
  413MOL0     N55671   4.131  10.422   7.153 -0.0664 -0.7070  0.6482
  413MOL0     C55672   3.323  10.818   7.837 -1.5552 -0.7671 -0.0270
  413MOL0     C55673   3.276  10.950   7.828 -0.2401 -0.3228  0.1607
  413MOL0     C55674   3.293  11.407   7.899  0.2275 -0.0368  0.1279
  413MOL0     C55675   3.307  11.407   7.755 -0.3581  0.8378 -0.5439
  413MOL0     C55676   3.300  11.527   7.682 -1.0199 -0.3617 -0.8454
  413MOL0     C55677   3.262  11.650   7.737 -0.5085  0.2900  0.2740
  413MOL0     O55678   3.219  11.766   7.669 -0.1863  0.0577  1.0265
  413MOL0     C55679   3.213  11.762   7.522 -1.4275  1.1023 -0.1646
  413MOL0     C55680   3.173  11.894   7.459  0.3344 -0.0747  0.4463
  413MOL0     C55681   3.018  11.886   7.436 -0.5547  0.0363 -0.1239
  413MOL0     C55682   2.957  12.021   7.404  0.4731  0.3621 -0.4508
  413MOL0     C55683   2.817  12.024   7.369 -0.3921  1.0735  0.1411
  413MOL0     C55684   2.706  12.038   7.326  0.0888  0.9177 -0.6000
  413MOL0     C55685   3.256  11.645   7.874  0.5218 -0.6365 -0.3136
  413MOL0     C55686   3.275  11.534   7.959  0.2583 -0.2148  0.2931
  413MOL0     C55687   3.253  11.542   8.110  0.4041  0.2730 -0.2630
  413MOL0     H55688   3.532  11.125   7.972 -2.2758  1.9814  2.7952
  413MOL0     H55689   3.637  10.886   7.935  0.0929  1.2419  0.8305
  413MOL0     H55690   3.445  10.524   7.774 -0.0483  1.4548  1.2381
  413MOL0     H55691   3.459  10.666   7.675  0.3405 -2.5322 -1.6481
  413MOL0     H55692   3.698  10.515   7.781 -0.7592 -1.7794 -0.3560
  413MOL0     H55693   3.708  10.647   7.668  1.1833 -1.5216 -1.2518
  413MOL0     H55694   3.593  10.523   7.493  2.3965 -0.5060 -2.1110
  413MOL0     H55695   3.571  10.390   7.607  0.1396 -0.4518  1.2420
  413MOL0     H55696   3.816  10.365   7.620 -1.8397 -0.1448  1.2777
  413MOL0     H55697   3.748  10.367   7.448 -0.8609  0.0717  0.7495
  413MOL0     H55698   3.807  10.624   7.486 -2.6472 -1.3823  3.7694
  413MOL0     H55699   3.923  10.565   7.604 -1.7860 -0.2625  0.8408
  413MOL0     H55700   3.934  10.450   7.323  1.1198 -0.8624 -0.4770
  413MOL0     H55701   4.003  10.604   7.361  0.7866 -0.6052  0.5746
  413MOL0     H55702   4.077  10.327   7.480 -2.0377  0.1291  0.0115
  413MOL0     H55703   4.117  10.491   7.564  0.5696  0.4571 -0.5867
  413MOL0     H55704   4.233  10.549   7.347  0.0835 -0.8412  1.3645
  413MOL0     H55705   4.309  10.410   7.419 -0.4026  0.1405 -0.1050
  413MOL0     H55706   4.215  10.164   7.332  1.3154  3.2754  1.2332
  413MOL0     H55707   4.002  10.021   7.195  0.2478 -1.9510 -1.0088
  413MOL0     H55708   3.957  10.092   7.043 -2.1016 -3.0135  0.4845
  413MOL0     H55709   4.161  10.003   6.930 -0.6587  1.3961  0.5311
  413MOL0     H55710   4.240   9.985   7.095 -1.4981 -0.7699  2.2146
  413MOL0     H55711   3.994   9.816   7.015 -1.0355  2.3968  3.7736
  413MOL0     H55712   4.103   9.794   7.145 -0.3332 -0.1939 -0.2338
  413MOL0     H55713   4.205   9.785   6.861 -1.0397  3.2434  1.7225
  413MOL0     H55714   4.131   9.640   6.947  2.2970 -0.8897  0.1825
  413MOL0     H55715   4.533   9.724   7.099 -2.2096  0.2950  0.2654
  413MOL0     H55716   4.723   9.535   7.061  0.9804 -2.8247 -0.8753
  413MOL0     H55717   4.538   8.985   6.774 -0.8501  0.8156  0.2694
  413MOL0     H55718   4.661   8.782   6.732 -2.8164  1.2733  0.1258
  413MOL0     H55719   4.791   8.654   6.935  1.8553  1.8974  0.6624
  413MOL0     H55720   4.797   8.576   6.779 -1.0607 -0.5433  1.6104
  413MOL0     H55721   4.991   8.531   6.995  2.8874 -1.8300 -1.0981
  413MOL0     H55722   4.882   8.420   6.907  1.1483 -0.0550  0.8576
  413MOL0     H55723   5.020   8.506   6.702 -3.1068 -2.0213  0.1837
  413MOL0     H55724   5.157   8.518   6.810 -0.0636 -1.2915  4.0094
  413MOL0     H55725   5.002   8.263   6.806 -1.0720  0.4139 -0.9856
  413MOL0     H55726   5.160   8.299   6.886  0.5375  0.5434  0.0229
  413MOL0     H55727   5.078   8.312   6.599  0.4251  2.4235  1.6638
  413MOL0     H55728   5.129   8.156   6.662  1.4249  0.4163  0.6587
  413MOL0     H55729   5.302   8.410   6.657 -3.1975 -0.0938  1.5470
  413MOL0     H55730   5.364   8.250   6.686 -1.9115  1.0455  2.8784
  413MOL0     H55731   5.428   8.315   6.452  1.2128 -1.3347  2.1071
  413MOL0     H55732   5.259   8.342   6.398  0.1352 -1.8388 -1.5630
  413MOL0     H55733   5.354   8.125   6.321  1.3977 -1.4209  0.9984
  413MOL0     H55734   5.332   8.051   6.474 -0.7538 -1.3959 -1.3483
  413MOL0     H55735   5.005   8.951   6.935 -0.2915 -1.6929  1.1495
  413MOL0     H55736   4.876   9.135   7.003 -1.0493  0.0600  1.7995
  413MOL0     H55737   4.413   9.340   6.813 -0.2741  0.4520 -0.9382
  413MOL0     H55738   4.259   9.503   6.867 -0.1916 -3.3612  0.3787
  413MOL0     H55739   3.250  10.738   7.829 -0.5877 -1.6147 -0.5036
  413MOL0     H55740   3.172  10.970   7.809 -0.8953 -1.7702  1.8695
  413MOL0     H55741   3.346  11.319   7.705 -1.0168  0.2510 -0.0412
  413MOL0     H55742   3.315  11.528   7.574  1.4027 -1.5105 -0.5957
  413MOL0     H55743   3.140  11.689   7.487 -1.6490  2.2731 -2.2702
  413MOL0     H55744   3.317  11.732   7.504 -1.6008 -0.5018  1.2032
  413MOL0     H55745   3.213  11.901   7.357  1.4303 -3.0751  0.5740
  413MOL0     H55746   3.198  11.984   7.518  0.4207 -0.0097  0.3118
  413MOL0     H55747   2.967  11.841   7.522 -0.2815  0.6515  0.3693
  413MOL0     H55748   3.009  11.815   7.353 -1.9748 -0.5920  0.5279
  413MOL0     H55749   2.971  12.088   7.489  2.7863  0.1978 -0.6269
  413MOL0     H55750   3.000  12.077   7.320 -1.9909  1.5090 -1.0274
  413MOL0     H55751   2.616  12.025   7.270 -1.4300  1.1487  1.6369
  413MOL0     H55752   3.221  11.733   7.927  1.3541  1.6325 -3.2379
  413MOL0     H55753   3.169  11.492   8.159  1.7079 -0.6921  1.0754
  413MOL0     H55754   3.344  11.508   8.160  1.5786 -2.1025 -3.6319
  413MOL0     H55755   3.246  11.650   8.125 -0.7001  1.0466 -4.8549
  414MOL0     O55756   9.668   9.428   8.401  0.0282 -0.0889  0.8210
  414MOL0     C55757   9.640   9.436   8.517 -0.2657  0.1397 -0.1258
  414MOL0     O55758   9.537   9.504   8.575 -0.8850  0.0732  0.2057
  414MOL0     C55759   9.444   9.577   8.495  0.0785  0.4229  0.5823
  414MOL0     C55760   9.309   9.533   8.483  0.2275  0.4983 -0.2168
  414MOL0     C55761   9.227   9.599   8.398  0.5325 -0.6327 -0.6014
  414MOL0     C55762   9.267   9.704   8.310 -0.4035  0.7417 -1.2882
  414MOL0     O55763   9.185   9.775   8.230  0.6278 -0.3249  0.4008
  414MOL0     C55764   9.116   9.692   8.140  0.0121  0.2756 -0.7375
  414MOL0     C55765   9.190   9.676   8.010  0.7267  0.4013 -0.1139
  414MOL0     C55766   9.117   9.590   7.903  0.2938  0.0240  0.2698
  414MOL0     C55767   8.979   9.637   7.841 -0.5671 -1.1638 -0.0799
  414MOL0     C55768   8.939   9.575   7.698  0.4903 -0.5571  0.0160
  414MOL0     C55769   8.887   9.429   7.714 -0.7773  0.3053 -1.2835
  414MOL0     C55770   8.853   9.358   7.582  0.4961  0.1683  0.1065
  414MOL0     C55771   8.755   9.251   7.618 -0.1645  0.3815  0.9080
  414MOL0     N55772   8.614   9.310   7.612  0.0252 -0.9821 -0.7308
  414MOL0     C55773   8.573   9.393   7.512  0.3275  0.0751 -0.6723
  414MOL0     C55774   8.457   9.441   7.572  0.2429 -0.2876  0.3099
  414MOL0     C55775   8.366   9.547   7.525 -0.4959  0.2345  0.0854
  414MOL0     C55776   8.418   9.687   7.533 -0.6126 -0.2029 -0.5971
  414MOL0     C55777   8.509   9.735   7.650  0.6658  0.1160  0.0767
  414MOL0     C55778   8.435   9.745   7.782  0.1871  0.0089 -0.1848
  414MOL0     O55779   8.294   9.791   7.775 -0.6000  0.1996 -0.8981
  414MOL0     C55780   8.228   9.825   7.885  0.3617 -0.4939 -1.0368
  414MOL0     C55781   8.091   9.856   7.868  1.6935 -0.3403  0.3118
  414MOL0     C55782   8.007   9.875   7.980  0.5256  0.3159 -0.7330
  414MOL0     C55783   8.060   9.867   8.112 -0.7100  0.9892  0.4393
  414MOL0     C55784   7.976   9.884   8.234  0.5550 -0.0599 -0.3991
  414MOL0     O55785   7.915  10.002   8.258  0.0436 -0.3148  0.1281
  414MOL0     C55786   7.820  10.019   8.356  0.5402  0.4884  0.2472
  414MOL0     C55787   7.728   9.920   8.398  0.0790  0.4271 -0.8682
  414MOL0     C55788   7.647   9.941   8.518  0.4370 -0.6339  0.0897
  414MOL0     C55789   7.650  10.060   8.587 -0.2161 -0.5756  0.1324
  414MOL0     O55790   7.590  10.091   8.697  0.4002  0.1241 -0.1843
  414MOL0     C55791   7.468  10.019   8.730  0.2022  0.5160  0.8256
  414MOL0     C55792   7.344  10.044   8.642 -0.3706  0.6401  0.6617
  414MOL0     C55793   7.296  10.195   8.651 -0.0469 -0.6596 -0.2780
  414MOL0     C55794   7.247  10.238   8.793 -0.2785 -0.3705 -0.0638
  414MOL0     C55795   7.116  10.173   8.841 -0.7944  0.0437  0.0403
  414MOL0     C55796   7.068  10.230   8.977  0.2927 -0.4356 -0.5628
  414MOL0     C55797   7.164  10.194   9.097 -0.2957  0.6724 -0.1717
  414MOL0     C55798   7.086  10.130   9.218 -0.2498 -0.2908  0.1518
  414MOL0    Cl55799   6.971  10.000   9.148  0.1783  0.3958  0.3320
  414MOL0     C55800   7.744  10.156   8.549 -0.3791  0.7275 -1.2401
  414MOL0     C55801   7.822  10.136   8.431  0.1593  0.2566  0.5995
  414MOL0     O55802   7.983   9.791   8.316  0.8383 -0.4562  0.3137
  414MOL0     C55803   8.196   9.833   8.141 -0.6605  0.0244  0.2285
  414MOL0     C55804   8.268   9.817   8.019 -0.8877 -1.0614 -0.0996
  414MOL0     N55805   8.431   9.364   7.682 -0.4370  0.2607  0.5851
  414MOL0     N55806   8.525   9.285   7.712 -0.7094  0.0315  0.6730
  414MOL0     C55807   9.402   9.745   8.318  0.0834  0.0408  0.6841
  414MOL0     C55808   9.483   9.685   8.411 -0.4671 -1.2944 -0.2165
  414MOL0     C55809   9.721   9.357   8.612  0.2761  1.4074 -0.3128
  414MOL0     C55810   9.683   9.350   8.751 -0.3056 -0.3158 -0.0641
  414MOL0     C55811   9.752   9.271   8.848 -0.1039  0.1636  0.2617
  414MOL0     C55812   9.852   9.185   8.807  0.9538 -0.2364  0.4918
  414MOL0     O55813   9.912   9.082   8.892 -0.0962  0.0925 -0.2048
  414MOL0     C55814   9.829   8.961   8.899 -0.2006 -1.1143  0.6084
  414MOL0     C55815   9.760   8.958   9.032  0.7971  0.0594 -0.4604
  414MOL0     C55816   9.857   8.940   9.145  0.5028 -0.3776  1.1497
  414MOL0     C55817   9.790   8.867   9.264  0.3755  0.4308  0.8437
  414MOL0     C55818   9.773   8.727   9.232  0.3053 -0.1324 -0.7363
  414MOL0     C55819   9.750   8.620   9.183 -0.2409 -0.6790  1.3450
  414MOL0     C55820   9.885   9.186   8.673 -0.2168  0.0582  0.1934
  414MOL0     C55821   9.835   9.274   8.580 -0.0891  0.4426 -0.1689
  414MOL0     C55822   9.907   9.276   8.452  1.1437 -0.6079 -0.8433
  414MOL0     H55823   9.281   9.452   8.549  2.8118  0.9035  1.5382
  414MOL0     H55824   9.123   9.571   8.402  0.8889 -2.1247 -1.1918
  414MOL0     H55825   9.077   9.600   8.184 -0.4967  0.3588 -1.0057
  414MOL0     H55826   9.028   9.747   8.105 -1.3477 -1.8007 -0.7632
  414MOL0     H55827   9.289   9.635   8.034  1.4703  2.6898  1.0477
  414MOL0     H55828   9.210   9.776   7.970  1.7678  0.9654  1.7045
  414MOL0     H55829   9.099   9.490   7.945  2.5003 -1.5084 -2.1667
  414MOL0     H55830   9.184   9.588   7.817  0.0224  3.5445 -0.1617
  414MOL0     H55831   8.900   9.615   7.913 -0.1631 -1.4575  0.2788
  414MOL0     H55832   8.983   9.746   7.833  0.4809 -0.8844  3.1055
  414MOL0     H55833   8.869   9.627   7.632  0.8074 -0.8376 -0.5456
  414MOL0     H55834   9.036   9.565   7.648  0.9094  0.8390  0.4906
  414MOL0     H55835   8.940   9.359   7.779  0.0936  0.6561 -1.6007
  414MOL0     H55836   8.809   9.447   7.789  1.6384 -0.5192  1.6203
  414MOL0     H55837   8.941   9.321   7.528  1.5527  1.3039  0.9926
  414MOL0     H55838   8.816   9.429   7.507 -0.7224 -2.2641 -1.7351
  414MOL0     H55839   8.767   9.166   7.550 -0.0548  0.6925  0.5415
  414MOL0     H55840   8.788   9.202   7.711 -0.6271 -1.1142  0.3168
  414MOL0     H55841   8.609   9.438   7.420 -1.0857  1.2364 -0.6935
  414MOL0     H55842   8.344   9.530   7.419  0.6372  1.5965 -0.3937
  414MOL0     H55843   8.270   9.546   7.579 -0.3482  1.3773  0.3913
  414MOL0     H55844   8.470   9.714   7.441  1.4583  1.6953  1.0102
  414MOL0     H55845   8.336   9.758   7.518  1.3797  1.7889 -3.0175
  414MOL0     H55846   8.537   9.840   7.641  2.6254 -0.3624  0.1145
  414MOL0     H55847   8.597   9.674   7.672  1.2748  0.7266 -0.6093
  414MOL0     H55848   8.499   9.807   7.845 -0.7396  1.1895 -0.3705
  414MOL0     H55849   8.426   9.646   7.828 -1.9870  0.0069 -0.5268
  414MOL0     H55850   8.044   9.868   7.771 -0.8085 -0.1874  1.4607
  414MOL0     H55851   7.901   9.891   7.963  0.8755  1.5706 -1.9258
  414MOL0     H55852   7.720   9.825   8.347  0.7349  1.1305 -2.3502
  414MOL0     H55853   7.579   9.866   8.556 -1.0686  0.7253  0.1761
  414MOL0     H55854   7.477   9.910   8.724 -0.4601  0.3756  1.9304
  414MOL0     H55855   7.440  10.044   8.833 -0.8837 -0.4773  0.7950
  414MOL0     H55856   7.354  10.011   8.539 -2.4365  0.7810  0.3730
  414MOL0     H55857   7.265   9.975   8.672  2.5726 -2.4897  1.8430
  414MOL0     H55858   7.386  10.251   8.626  0.7645 -2.7389 -2.3668
  414MOL0     H55859   7.218  10.228   8.582  1.4364  2.8394 -0.4290
  414MOL0     H55860   7.243  10.347   8.791 -0.6633 -0.3909 -1.0024
  414MOL0     H55861   7.327  10.217   8.866  0.1556  1.5694  0.0827
  414MOL0     H55862   7.137  10.066   8.841 -2.3485 -0.2966 -0.9022
  414MOL0     H55863   7.038  10.190   8.766  0.2127  3.2778 -0.4640
  414MOL0     H55864   7.070  10.339   8.974  1.2518 -0.2832  2.4607
  414MOL0     H55865   6.966  10.192   8.972 -0.5684  1.8470 -1.8054
  414MOL0     H55866   7.227  10.280   9.123  0.7474  1.0572 -3.4755
  414MOL0     H55867   7.238  10.122   9.061  1.7684  2.0835  0.9878
  414MOL0     H55868   7.154  10.085   9.291  0.8870  5.0911  2.9811
  414MOL0     H55869   7.031  10.213   9.265  0.3331  0.4054 -0.3663
  414MOL0     H55870   7.753  10.237   8.621 -4.8979  0.9218 -0.5791
  414MOL0     H55871   7.902  10.209   8.421  0.0484  0.9127  3.5602
  414MOL0     H55872   8.247   9.816   8.235  1.4121 -1.9728 -1.1583
  414MOL0     H55873   8.374   9.793   8.025 -0.8394 -2.2486 -3.5572
  414MOL0     H55874   9.444   9.822   8.254  0.2420  0.2558  1.0409
  414MOL0     H55875   9.584   9.724   8.415 -0.8548 -0.2310  4.1718
  414MOL0     H55876   9.594   9.404   8.782 -0.6565 -0.7048 -0.3818
  414MOL0     H55877   9.711   9.256   8.948  1.1925 -0.5469  0.7126
  414MOL0     H55878   9.889   8.872   8.879 -1.7215 -2.0415 -0.0230
  414MOL0     H55879   9.756   8.972   8.817  0.3636  5.4221  0.4514
  414MOL0     H55880   9.697   8.869   9.034  1.6380 -0.5457  1.4182
  414MOL0     H55881   9.700   9.047   9.055  1.5703  0.3801  0.3985
  414MOL0     H55882   9.895   9.035   9.181  2.1732 -1.8435  3.5248
  414MOL0     H55883   9.953   8.891   9.126  2.9648  4.0965  0.7826
  414MOL0     H55884   9.844   8.890   9.356 -0.0401  0.6274  1.0405
  414MOL0     H55885   9.690   8.907   9.285  0.0991  0.8051 -0.9967
  414MOL0     H55886   9.714   8.528   9.142 -0.6019  0.6268 -1.5523
  414MOL0     H55887   9.973   9.126   8.650  0.3958  0.7207  0.7597
  414MOL0     H55888   9.916   9.374   8.404  0.5977  0.9700  2.0622
  414MOL0     H55889  10.007   9.232   8.457  0.4855 -2.1130  3.8428
  414MOL0     H55890   9.847   9.216   8.382  0.3642  2.1685 -2.7563
  415MOL0     O55891   9.465   5.046  10.513 -0.9551  0.2116  0.0171
  415MOL0     C55892   9.518   5.114  10.424 -0.0531  0.1926  0.9181
  415MOL0     O55893   9.580   5.230  10.446  0.6476 -0.5153  0.2800
  415MOL0     C55894   9.615   5.281  10.564 -0.4136  0.4043  0.3648
  415MOL0     C55895   9.627   5.417  10.565 -0.3032  0.6358  0.8564
  415MOL0     C55896   9.647   5.486  10.687  0.3803 -0.8721 -0.1654
  415MOL0     C55897   9.663   5.414  10.803  0.1145  1.4631  0.1916
  415MOL0     O55898   9.697   5.478  10.919  0.1081  1.0106  0.0541
  415MOL0     C55899   9.808   5.431  11.000 -0.0276  0.6037 -1.0423
  415MOL0     C55900   9.935   5.476  10.926  0.3246  0.3888  0.5557
  415MOL0     C55901   9.966   5.623  10.926  0.5591  0.0015  0.7863
  415MOL0     C55902  10.041   5.656  11.061 -0.2398  0.5367 -0.3506
  415MOL0     C55903  10.125   5.777  11.071 -0.1268 -0.6835  0.1526
  415MOL0     C55904  10.232   5.792  10.960 -0.4714  0.4787 -0.6729
  415MOL0     C55905  10.357   5.861  10.999 -0.1788  0.9917  0.2568
  415MOL0     C55906  10.356   6.005  11.034  0.0843 -0.0884  0.5161
  415MOL0     N55907  10.278   6.097  10.946  0.5506 -0.5821 -0.0442
  415MOL0     C55908  10.330   6.169  10.849 -0.2013 -0.4596  0.0828
  415MOL0     C55909  10.234   6.228  10.780 -0.2216 -0.4987  0.7694
  415MOL0     C55910  10.237   6.313  10.655 -0.1108  1.7569 -0.4262
  415MOL0     C55911  10.333   6.253  10.549  0.1407  0.6446 -0.0784
  415MOL0     C55912  10.333   6.333  10.416  0.5800 -0.7041  0.5587
  415MOL0     C55913  10.392   6.475  10.425  0.9345  0.6156  0.5532
  415MOL0     O55914  10.536   6.498  10.441  0.0323  0.9049 -0.4701
  415MOL0     C55915  10.573   6.613  10.393 -0.6482 -0.1328  0.6550
  415MOL0     C55916  10.559   6.737  10.457 -0.3359 -0.2003 -0.7917
  415MOL0     C55917  10.592   6.858  10.391  1.1731 -0.4790  0.4026
  415MOL0     C55918  10.653   6.862  10.273  0.3240 -0.0554 -0.0435
  415MOL0     C55919  10.696   6.992  10.212 -0.7231  0.4152 -0.0696
  415MOL0     O55920  10.768   7.074  10.289 -0.0254 -0.0795 -0.3006
  415MOL0     C55921  10.813   7.193  10.237 -0.2972 -0.3353  0.5770
  415MOL0     C55922  10.756   7.315  10.290  0.6729  0.3581  0.0101
  415MOL0     C55923  10.795   7.438  10.226  0.4462  0.3163  0.0063
  415MOL0     C55924  10.890   7.446  10.118 -0.7044 -0.0691 -0.6721
  415MOL0     O55925  10.939   7.558  10.057 -0.4484  0.1936  0.0667
  415MOL0     C55926  10.835   7.643  10.001  0.3017 -0.0215  0.0681
  415MOL0     C55927  10.893   7.716   9.880 -0.2341 -0.1154 -0.4475
  415MOL0     C55928  10.784   7.781   9.794  0.0409 -1.2399 -0.1960
  415MOL0     C55929  10.838   7.820   9.650  0.6412  0.7375  0.0728
  415MOL0     C55930  10.911   7.947   9.642 -0.3628  0.1786 -0.1078
  415MOL0     C55931  10.978   7.956   9.502  0.4867 -0.2363 -0.1336
  415MOL0     C55932  11.029   8.101   9.471  0.0937  1.1361  0.0026
  415MOL0     C55933  11.108   8.107   9.341 -0.0601  0.3459  0.5536
  415MOL0    Cl55934  11.031   8.044   9.185  0.0365  0.1833 -0.0181
  415MOL0     C55935  10.954   7.319  10.087  0.0194  0.1854  0.4078
  415MOL0     C55936  10.912   7.200  10.140  0.6225  0.5322 -0.8182
  415MOL0     O55937  10.666   7.015  10.098 -0.4219 -0.4073 -0.3879
  415MOL0     C55938  10.673   6.745  10.211 -0.4008 -0.7805  0.4788
  415MOL0     C55939  10.631   6.624  10.268 -0.4061 -0.5547  0.2605
  415MOL0     N55940  10.116   6.182  10.846  0.1563 -0.0184 -0.2296
  415MOL0     N55941  10.147   6.107  10.944  0.3641 -0.0095  0.1062
  415MOL0     C55942   9.656   5.276  10.799 -0.0744  0.3574  0.0145
  415MOL0     C55943   9.640   5.204  10.677  0.2191  1.6509 -1.0530
  415MOL0     C55944   9.503   5.067  10.286  0.2952  0.3955 -0.6822
  415MOL0     C55945   9.463   4.928  10.260 -0.1683 -0.4623 -0.4269
  415MOL0     C55946   9.435   4.888  10.131 -0.5298  0.0690  1.5024
  415MOL0     C55947   9.442   4.979  10.019 -0.9936  0.1010 -0.0950
  415MOL0     O55948   9.402   4.951   9.892  0.5488  0.4632 -1.1340
  415MOL0     C55949   9.509   4.902   9.812  0.3048 -0.3288  0.3237
  415MOL0     C55950   9.486   4.758   9.764  0.3882 -0.1650  0.1048
  415MOL0     C55951   9.345   4.697   9.784 -0.8517 -0.4784  0.5332
  415MOL0     C55952   9.342   4.545   9.764  0.0663 -1.2164  0.2954
  415MOL0     C55953   9.418   4.510   9.643 -0.6172 -0.0683 -0.0502
  415MOL0     C55954   9.459   4.485   9.534 -0.9623  0.3878  0.2195
  415MOL0     C55955   9.471   5.112  10.043 -0.9123  0.4126  0.3225
  415MOL0     C55956   9.503   5.161  10.174  0.7983  0.8306  0.9378
  415MOL0     C55957   9.542   5.306  10.179 -0.4115 -0.6725  0.2657
  415MOL0     H55958   9.616   5.468  10.470 -0.1188  0.1538  0.5757
  415MOL0     H55959   9.657   5.594  10.686  3.5764 -0.9657  2.3517
  415MOL0     H55960   9.810   5.485  11.095 -1.7300 -1.3769  0.2209
  415MOL0     H55961   9.804   5.324  11.022  0.0385  0.6975 -0.5602
  415MOL0     H55962   9.933   5.438  10.824 -1.8859  2.0047 -0.0695
  415MOL0     H55963  10.009   5.414  10.979  0.2477  1.6095  2.1721
  415MOL0     H55964   9.882   5.688  10.900  1.8263  0.2935 -3.2687
  415MOL0     H55965  10.037   5.634  10.843 -0.6291 -1.9387 -0.5698
  415MOL0     H55966   9.970   5.645  11.143 -0.3713 -1.0860 -0.6445
  415MOL0     H55967  10.107   5.572  11.086 -1.8166 -0.1777  1.6524
  415MOL0     H55968  10.065   5.869  11.074  2.2575  0.9842  0.3285
  415MOL0     H55969  10.173   5.787  11.169 -3.6755  0.5315  1.9634
  415MOL0     H55970  10.253   5.690  10.926 -0.7950 -0.0859  0.7762
  415MOL0     H55971  10.185   5.836  10.871 -1.1432 -0.5557 -0.8449
  415MOL0     H55972  10.438   5.843  10.928 -1.0525 -0.8391 -0.3336
  415MOL0     H55973  10.397   5.809  11.086  0.0841  1.1960  0.2603
  415MOL0     H55974  10.292   6.007  11.122 -1.5103 -0.0079 -0.6077
  415MOL0     H55975  10.460   6.037  11.050 -0.5512  3.1819 -1.0940
  415MOL0     H55976  10.434   6.177  10.820 -0.7414  3.0783 -1.4850
  415MOL0     H55977  10.137   6.319  10.610  0.3586  0.3334 -1.7461
  415MOL0     H55978  10.286   6.409  10.678 -0.1415  1.5785  0.4182
  415MOL0     H55979  10.431   6.250  10.597 -0.7465  3.0152  2.0840
  415MOL0     H55980  10.304   6.151  10.523  1.4800 -0.0460  1.0207
  415MOL0     H55981  10.231   6.340  10.377  0.2536  0.7424  1.5802
  415MOL0     H55982  10.391   6.274  10.345 -2.3371 -2.3853 -0.5786
  415MOL0     H55983  10.333   6.529  10.499 -0.5641  0.7473 -0.6820
  415MOL0     H55984  10.367   6.540  10.340 -1.7395 -0.3078  0.5235
  415MOL0     H55985  10.516   6.734  10.557 -1.5988 -2.2113 -1.3368
  415MOL0     H55986  10.563   6.948  10.444 -1.2924 -0.6859 -0.4939
  415MOL0     H55987  10.700   7.315  10.383  0.0486 -1.4732 -0.3153
  415MOL0     H55988  10.764   7.528  10.277 -3.7739 -0.1931 -1.2670
  415MOL0     H55989  10.746   7.593   9.963  0.6008  1.0489 -2.1999
  415MOL0     H55990  10.802   7.713  10.079  2.0479  3.2153 -1.9115
  415MOL0     H55991  10.952   7.800   9.919 -1.7204 -0.9124  4.0718
  415MOL0     H55992  10.963   7.656   9.822  1.5857  1.7665 -0.3400
  415MOL0     H55993  10.698   7.715   9.780 -0.5980 -0.6627  0.8296
  415MOL0     H55994  10.740   7.866   9.848 -0.7187 -1.6583 -0.1519
  415MOL0     H55995  10.756   7.829   9.577 -1.9416 -1.2946  2.5076
  415MOL0     H55996  10.900   7.737   9.615 -0.7726  0.4178 -1.8747
  415MOL0     H55997  10.994   7.936   9.712 -0.7738 -0.5342  0.2836
  415MOL0     H55998  10.854   8.036   9.668 -1.6670 -1.0909  1.6207
  415MOL0     H55999  11.056   7.879   9.492  0.3113 -0.3965 -0.2888
  415MOL0     H56000  10.897   7.937   9.430 -0.2047  1.9348  0.0240
  415MOL0     H56001  11.091   8.133   9.556  0.4708 -1.2910  0.7086
  415MOL0     H56002  10.952   8.178   9.464 -0.7837  0.0865 -2.9270
  415MOL0     H56003  11.125   8.213   9.317 -0.6471  0.3031 -0.0913
  415MOL0     H56004  11.203   8.059   9.368  1.3377  1.2858 -2.2820
  415MOL0     H56005  11.040   7.314  10.021 -0.2074 -3.2063  0.2013
  415MOL0     H56006  10.945   7.103  10.104 -1.4294 -0.1913 -0.8883
  415MOL0     H56007  10.730   6.750  10.119 -1.9552 -1.9959 -0.5910
  415MOL0     H56008  10.646   6.533  10.210 -1.8873 -0.8807  0.3462
  415MOL0     H56009   9.679   5.227  10.893 -0.4304 -0.3275 -0.2483
  415MOL0     H56010   9.649   5.096  10.663 -4.2496  1.3535 -3.1382
  415MOL0     H56011   9.439   4.875  10.352  0.5581  1.3026  0.8335
  415MOL0     H56012   9.414   4.791  10.088 -0.5644  1.8713 -3.0403
  415MOL0     H56013   9.606   4.916   9.860  1.1391  1.3913 -1.6877
  415MOL0     H56014   9.509   4.954   9.716  2.8439 -2.5629 -1.0304
  415MOL0     H56015   9.560   4.691   9.807 -1.1320  0.7243  4.5600
  415MOL0     H56016   9.497   4.771   9.655 -2.6686  2.4190 -0.0526
  415MOL0     H56017   9.266   4.758   9.739 -0.5389  0.2422  0.9358
  415MOL0     H56018   9.331   4.709   9.891 -1.5973 -3.0486  0.7938
  415MOL0     H56019   9.398   4.501   9.848  0.0073  0.4622  1.2561
  415MOL0     H56020   9.241   4.503   9.765 -0.0738 -0.8885  1.2539
  415MOL0     H56021   9.520   4.461   9.449 -4.2625  0.6055 -2.4484
  415MOL0     H56022   9.469   5.173   9.953 -0.8700 -1.0511 -0.6990
  415MOL0     H56023   9.522   5.365  10.269  0.5548  0.1105 -0.0085
  415MOL0     H56024   9.649   5.299  10.155 -0.0240 -2.6940  2.3076
  415MOL0     H56025   9.471   5.343  10.104 -0.7583 -0.3785  0.7385
  416MOL0     O56026   3.141   8.916   7.110 -0.0207 -0.1443  0.0554
  416MOL0     C56027   3.196   8.818   7.154  0.6664 -0.6058 -0.2835
  416MOL0     O56028   3.306   8.769   7.110  0.4589  0.1600  0.2206
  416MOL0     C56029   3.349   8.792   6.984  0.2868 -0.2827  0.2541
  416MOL0     C56030   3.371   8.923   6.933 -0.1451  0.4487 -0.3576
  416MOL0     C56031   3.425   8.939   6.806  1.1678  0.1325 -0.1717
  416MOL0     C56032   3.462   8.823   6.715 -1.2935 -0.2374 -0.3174
  416MOL0     O56033   3.540   8.856   6.607 -0.2499 -0.7580 -0.3119
  416MOL0     C56034   3.548   8.766   6.498 -0.0654  0.1114  0.6358
  416MOL0     C56035   3.417   8.759   6.421  0.4789 -0.6096  0.1652
  416MOL0     C56036   3.407   8.638   6.323  0.5730  0.0743 -0.4583
  416MOL0     C56037   3.542   8.564   6.301 -0.1478 -1.3238  0.0661
  416MOL0     C56038   3.541   8.470   6.171 -0.3129  0.2869  0.6533
  416MOL0     C56039   3.571   8.554   6.043 -0.8424  0.5807 -0.1715
  416MOL0     C56040   3.492   8.507   5.918 -0.0650 -0.3521 -0.0269
  416MOL0     C56041   3.484   8.608   5.807 -0.2088 -0.7448  0.2613
  416MOL0     N56042   3.604   8.594   5.722 -0.5032 -0.2861  0.2244
  416MOL0     C56043   3.632   8.496   5.632  0.6001  0.3907  0.4992
  416MOL0     C56044   3.752   8.530   5.577 -0.1640 -0.0329 -0.6911
  416MOL0     C56045   3.817   8.451   5.468  0.7822  1.4814 -0.0819
  416MOL0     C56046   3.798   8.301   5.476  0.4374  0.1846 -0.2584
  416MOL0     C56047   3.867   8.231   5.367  0.1000 -0.6848 -0.4943
  416MOL0     C56048   3.871   8.080   5.380  0.0594 -0.4918  0.4288
  416MOL0     O56049   3.977   8.016   5.304 -0.6389 -0.0777 -0.4833
  416MOL0     C56050   3.982   7.885   5.289  1.5562  0.0818 -0.5800
  416MOL0     C56051   4.086   7.831   5.222 -0.9480 -0.6691  0.3508
  416MOL0     C56052   4.087   7.704   5.169  0.0320  0.5581  0.2243
  416MOL0     C56053   3.982   7.606   5.189  0.0330 -0.4945  0.3624
  416MOL0     C56054   3.981   7.464   5.169 -0.2566  0.9817  1.5296
  416MOL0     O56055   3.867   7.394   5.184  1.1195 -0.2042 -0.2644
  416MOL0     C56056   3.873   7.261   5.144  0.0068  0.4757  1.1555
  416MOL0     C56057   3.865   7.151   5.224 -0.0107  0.5405 -0.2898
  416MOL0     C56058   3.870   7.023   5.172 -1.1946 -0.1316 -0.2122
  416MOL0     C56059   3.872   7.002   5.032 -0.9855  0.9354 -0.8109
  416MOL0     O56060   3.867   6.865   4.998  0.5166  0.5002 -0.3835
  416MOL0     C56061   3.783   6.837   4.883 -0.3117  0.7936  0.3539
  416MOL0     C56062   3.697   6.708   4.905  0.0062  0.0999 -0.3910
  416MOL0     C56063   3.790   6.587   4.939 -0.0254  0.0261 -0.1262
  416MOL0     C56064   3.711   6.464   4.966  1.4394  0.7286  0.0010
  416MOL0     C56065   3.709   6.421   5.114 -0.9295 -0.0964  0.0474
  416MOL0     C56066   3.637   6.296   5.140  1.0429 -0.0391  0.6298
  416MOL0     C56067   3.697   6.181   5.057  1.2483 -0.1963  0.5051
  416MOL0     C56068   3.848   6.147   5.084 -0.2489  0.8184 -0.1030
  416MOL0    Cl56069   3.892   6.012   4.970 -0.0252  0.0354 -0.0093
  416MOL0     C56070   3.880   7.120   4.945 -0.5538 -0.5370 -0.0491
  416MOL0     C56071   3.885   7.245   5.010  0.0302  0.3814  0.1731
  416MOL0     O56072   4.089   7.431   5.115  0.6535  1.2398 -0.4324
  416MOL0     C56073   3.871   7.661   5.259 -0.8183 -0.4973 -0.0093
  416MOL0     C56074   3.867   7.803   5.304 -0.7600 -0.6350  0.6708
  416MOL0     N56075   3.785   8.650   5.632  0.0011 -0.1736  1.3814
  416MOL0     N56076   3.703   8.680   5.723 -0.7200  0.9077  0.2544
  416MOL0     C56077   3.423   8.700   6.757  0.2521  0.2129 -0.6257
  416MOL0     C56078   3.369   8.685   6.892 -1.1091  0.6876 -0.5892
  416MOL0     C56079   3.134   8.775   7.282 -0.3242  0.7285 -0.1335
  416MOL0     C56080   3.025   8.842   7.342  0.2562 -0.6154  0.2085
  416MOL0     C56081   2.958   8.785   7.448  0.0560 -0.4444 -0.0748
  416MOL0     C56082   2.989   8.657   7.491  0.0433  0.2459  0.7043
  416MOL0     O56083   2.920   8.603   7.589 -0.4371  0.2035  0.2860
  416MOL0     C56084   2.788   8.554   7.550 -0.1525 -1.4267  0.3039
  416MOL0     C56085   2.692   8.593   7.666 -0.3328 -0.5450 -0.6345
  416MOL0     C56086   2.552   8.535   7.632 -0.2212 -0.1386 -0.5780
  416MOL0     C56087   2.449   8.538   7.741  0.6454 -0.1639  0.0126
  416MOL0     C56088   2.412   8.677   7.776  0.0542 -0.1054 -0.0904
  416MOL0     C56089   2.375   8.782   7.804  0.3871 -0.6365  0.7849
  416MOL0     C56090   3.089   8.586   7.432 -0.0399 -0.5142  1.1187
  416MOL0     C56091   3.171   8.647   7.338  0.0868 -0.5999 -0.4877
  416MOL0     C56092   3.277   8.559   7.277 -0.1740  0.6954  0.1775
  416MOL0     H56093   3.334   9.009   6.988 -1.9105 -0.0332 -0.7274
  416MOL0     H56094   3.464   9.038   6.787 -1.2958  1.6010  1.9457
  416MOL0     H56095   3.627   8.787   6.426 -2.6332 -0.4595 -2.6026
  416MOL0     H56096   3.567   8.669   6.546  1.9448  1.0377  1.8458
  416MOL0     H56097   3.394   8.858   6.382  2.2063  0.9007  2.6878
  416MOL0     H56098   3.335   8.743   6.491  0.0334 -0.1204 -0.2431
  416MOL0     H56099   3.374   8.668   6.222 -0.7030 -1.5815 -0.5758
  416MOL0     H56100   3.323   8.575   6.353 -0.0999  0.5683 -1.2460
  416MOL0     H56101   3.599   8.655   6.280 -3.5888  2.3755  4.6858
  416MOL0     H56102   3.590   8.518   6.388 -2.2849  1.8076  3.1783
  416MOL0     H56103   3.618   8.395   6.195  2.1741  3.1324  2.1953
  416MOL0     H56104   3.446   8.415   6.171 -0.9456  1.3430 -0.2327
  416MOL0     H56105   3.530   8.655   6.054 -0.9375  0.6769 -1.3631
  416MOL0     H56106   3.674   8.577   6.016 -0.7907  2.1346  1.1998
  416MOL0     H56107   3.389   8.478   5.941 -0.3402  0.6020 -0.0352
  416MOL0     H56108   3.548   8.421   5.879  0.6767  0.5986 -1.1024
  416MOL0     H56109   3.405   8.577   5.738 -0.0236 -5.2062  1.7534
  416MOL0     H56110   3.455   8.707   5.842  1.8748  0.2247 -0.5838
  416MOL0     H56111   3.583   8.399   5.632  2.5328 -0.7558  4.0954
  416MOL0     H56112   3.766   8.470   5.373 -0.7845  0.3550  0.4933
  416MOL0     H56113   3.922   8.479   5.469  0.7125  1.9401  2.7927
  416MOL0     H56114   3.844   8.256   5.565  0.1126 -2.2206 -1.2341
  416MOL0     H56115   3.691   8.280   5.469 -0.0379  0.8884  3.1290
  416MOL0     H56116   3.970   8.268   5.366 -0.2252  0.5594  2.2877
  416MOL0     H56117   3.835   8.278   5.274  0.0790  0.0895 -0.1132
  416MOL0     H56118   3.773   8.035   5.362  1.8825 -3.8473 -2.4270
  416MOL0     H56119   3.875   8.043   5.483 -2.1861 -3.4794 -0.4134
  416MOL0     H56120   4.154   7.909   5.191 -2.1856 -0.4987 -2.2854
  416MOL0     H56121   4.174   7.678   5.109 -0.7317 -2.2521  0.1906
  416MOL0     H56122   3.872   7.171   5.331 -0.8953  0.8839 -0.2856
  416MOL0     H56123   3.893   6.930   5.225  2.6791  1.1716  0.7236
  416MOL0     H56124   3.710   6.914   4.856 -1.9700 -1.2689 -1.2571
  416MOL0     H56125   3.845   6.814   4.796  1.9714 -3.5375  2.7969
  416MOL0     H56126   3.633   6.728   4.991  1.2142 -1.8544  1.0396
  416MOL0     H56127   3.638   6.686   4.816  0.1409 -0.6103 -0.3123
  416MOL0     H56128   3.860   6.557   4.859 -0.3812 -1.9446  0.2606
  416MOL0     H56129   3.848   6.631   5.021 -1.4265  3.6979 -0.9161
  416MOL0     H56130   3.746   6.382   4.902  0.6289  1.9567 -2.1302
  416MOL0     H56131   3.605   6.473   4.941  1.1514 -1.6531  0.0787
  416MOL0     H56132   3.672   6.508   5.168 -0.0902  1.1240 -1.2613
  416MOL0     H56133   3.814   6.411   5.143 -0.9273  0.0337  0.0837
  416MOL0     H56134   3.641   6.273   5.247  2.0041  0.1291  0.6376
  416MOL0     H56135   3.530   6.315   5.125  0.3861  0.2466  4.6900
  416MOL0     H56136   3.665   6.196   4.953  1.7784  2.4142  0.6492
  416MOL0     H56137   3.639   6.099   5.102 -0.1824  1.3899  1.6495
  416MOL0     H56138   3.908   6.235   5.061 -0.0250  0.6246 -0.2558
  416MOL0     H56139   3.888   6.119   5.182  2.5559  2.3477 -0.7206
  416MOL0     H56140   3.889   7.096   4.840 -0.9008 -1.4357  0.1114
  416MOL0     H56141   3.871   7.333   4.948  0.2489  0.6037  0.4387
  416MOL0     H56142   3.781   7.605   5.278 -0.2034 -2.1068 -1.6024
  416MOL0     H56143   3.778   7.835   5.356 -2.2671 -2.6302 -0.4910
  416MOL0     H56144   3.444   8.613   6.695 -1.0814 -0.5777 -0.0142
  416MOL0     H56145   3.341   8.592   6.941 -0.6570  1.7033  1.7442
  416MOL0     H56146   2.992   8.939   7.306  1.7527 -0.1312  0.0846
  416MOL0     H56147   2.881   8.841   7.500  1.5594 -0.6937  2.6221
  416MOL0     H56148   2.783   8.445   7.538 -2.5818 -1.2053 -1.4458
  416MOL0     H56149   2.753   8.602   7.458  2.2896  4.4882  1.9515
  416MOL0     H56150   2.696   8.702   7.673  0.8115 -0.7090  2.8132
  416MOL0     H56151   2.715   8.563   7.768 -0.2770 -0.5556 -0.6503
  416MOL0     H56152   2.554   8.427   7.614 -2.0337 -0.6507  1.8151
  416MOL0     H56153   2.510   8.582   7.543 -1.9470 -0.3139  0.1087
  416MOL0     H56154   2.356   8.482   7.727  0.9984 -2.5879  5.0677
  416MOL0     H56155   2.497   8.494   7.829  1.4362  2.2821  0.8805
  416MOL0     H56156   2.345   8.884   7.818  0.8935 -0.0947 -1.7211
  416MOL0     H56157   3.107   8.486   7.468  1.1680 -0.6870  0.1020
  416MOL0     H56158   3.294   8.476   7.346  2.5891  0.0479 -1.1670
  416MOL0     H56159   3.258   8.519   7.177 -3.1692 -0.9279  1.2403
  416MOL0     H56160   3.372   8.612   7.275  0.1669  0.1429 -2.6358
  417MOL0     O56161   4.984   2.223   0.218 -0.4880 -0.2851 -0.3432
  417MOL0     C56162   4.890   2.208   0.136  0.1233  0.1243  0.3780
  417MOL0     O56163   4.876   2.093   0.064  0.6961 -0.5303  0.6238
  417MOL0     C56164   4.976   1.993   0.066 -0.0895  0.0962 -0.6864
  417MOL0     C56165   5.099   2.000  -0.005  0.5443  0.2951  0.6496
  417MOL0     C56166   5.182   1.888  -0.003  0.8552  0.1586  0.1332
  417MOL0     C56167   5.163   1.783   0.083  0.5110 -0.3367 -0.0020
  417MOL0     O56168   5.249   1.686   0.104 -0.5386 -0.4848  0.1794
  417MOL0     C56169   5.384   1.712   0.089 -0.0265 -0.2877  0.2589
  417MOL0     C56170   5.466   1.592   0.137 -0.4008 -0.3675  0.2590
  417MOL0     C56171   5.467   1.587   0.290  0.9437  0.1115 -0.4284
  417MOL0     C56172   5.576   1.480   0.339  0.2515  0.6930 -0.2017
  417MOL0     C56173   5.575   1.462   0.491 -0.1486 -0.1430  0.0445
  417MOL0     C56174   5.555   1.587   0.579  0.5407  0.5755  0.0306
  417MOL0     C56175   5.616   1.563   0.715 -0.0622  0.4392 -0.3179
  417MOL0     C56176   5.542   1.449   0.792  0.6270  0.3222 -0.4148
  417MOL0     N56177   5.594   1.459   0.929  0.0576 -0.3197 -0.3303
  417MOL0     C56178   5.521   1.415   1.042  0.6621 -0.6638 -0.2973
  417MOL0     C56179   5.610   1.376   1.130  0.0658  0.2936 -0.1618
  417MOL0     C56180   5.564   1.304   1.263  0.1534  0.0102  0.6264
  417MOL0     C56181   5.589   1.402   1.393  0.4247 -0.0387 -0.5480
  417MOL0     C56182   5.643   1.326   1.511  0.8632 -0.9787  0.5697
  417MOL0     C56183   5.538   1.253   1.580 -0.0194  1.1054  0.2641
  417MOL0     O56184   5.562   1.219   1.720 -0.2278 -0.1788  0.4383
  417MOL0     C56185   5.462   1.158   1.794 -0.6112 -0.4984 -0.5339
  417MOL0     C56186   5.339   1.102   1.739 -0.6268 -0.1437  1.0514
  417MOL0     C56187   5.246   1.051   1.819  0.1773 -0.1296  0.0312
  417MOL0     C56188   5.267   1.046   1.960 -0.4159  0.2021 -1.6571
  417MOL0     C56189   5.167   0.985   2.039  0.5101  0.3536 -0.2188
  417MOL0     O56190   5.036   0.970   1.986  0.0848  0.6367  0.2887
  417MOL0     C56191   4.936   0.884   2.036  0.0886 -0.3134  0.4397
  417MOL0     C56192   4.813   0.905   1.984  0.3835 -0.9119 -0.4716
  417MOL0     C56193   4.705   0.814   2.019 -0.7642 -0.0453  1.0098
  417MOL0     C56194   4.733   0.706   2.107 -0.5818 -0.4258 -0.7005
  417MOL0     O56195   4.630   0.632   2.164  0.6126 -0.2778 -0.1178
  417MOL0     C56196   4.500   0.647   2.099  0.1632  0.3111  0.1394
  417MOL0     C56197   4.405   0.537   2.153 -0.0997 -0.9606  0.4565
  417MOL0     C56198   4.434   0.389   2.111 -0.3417 -0.0116 -0.1167
  417MOL0     C56199   4.395   0.299   2.221  0.6355 -0.7472 -0.5429
  417MOL0     C56200   4.381   0.158   2.159 -0.0271  0.2611  0.1086
  417MOL0     C56201   4.383   0.040   2.249  0.9019  0.6437 -0.6150
  417MOL0     C56202   4.430  -0.088   2.174 -0.0719  0.3962 -0.2185
  417MOL0     C56203   4.333  -0.121   2.058  0.7168 -0.4958  0.1378
  417MOL0    Cl56204   4.399  -0.071   1.897 -0.0301 -0.6369 -0.1603
  417MOL0     C56205   4.856   0.702   2.164 -0.0768  0.7148  0.1033
  417MOL0     C56206   4.955   0.779   2.126 -0.5126 -0.1218 -0.7734
  417MOL0     O56207   5.204   0.940   2.146  0.2778  0.5569 -0.8265
  417MOL0     C56208   5.383   1.099   2.014 -0.7413 -0.5051  0.1290
  417MOL0     C56209   5.477   1.160   1.932 -0.4162  0.4479 -0.4689
  417MOL0     N56210   5.740   1.412   1.091  0.3689 -0.3338  0.4371
  417MOL0     N56211   5.724   1.450   0.967 -0.0398  0.3062  0.5973
  417MOL0     C56212   5.049   1.778   0.155  0.2516 -0.6628  0.3599
  417MOL0     C56213   4.952   1.875   0.138  0.3646  0.6942  0.2888
  417MOL0     C56214   4.783   2.311   0.141 -0.6208 -0.1945  0.3595
  417MOL0     C56215   4.790   2.416   0.235 -0.2545 -0.2917 -0.4399
  417MOL0     C56216   4.690   2.511   0.250  0.1821  0.3148 -0.6243
  417MOL0     C56217   4.569   2.502   0.190 -0.3057  0.9345  1.1264
  417MOL0     O56218   4.463   2.591   0.213 -0.4639 -0.6186 -0.6214
  417MOL0     C56219   4.428   2.621   0.350  0.2889 -0.0536  0.0417
  417MOL0     C56220   4.282   2.587   0.369  0.1541  0.3455  0.5015
  417MOL0     C56221   4.239   2.437   0.341 -0.0423  0.6699  0.1769
  417MOL0     C56222   4.092   2.419   0.387  0.3592  0.3375 -0.1074
  417MOL0     C56223   3.993   2.489   0.291 -1.5075 -0.2736  0.6027
  417MOL0     C56224   3.930   2.546   0.195 -1.0437  0.1046  0.0373
  417MOL0     C56225   4.560   2.401   0.084  0.3820  1.2463  0.6647
  417MOL0     C56226   4.662   2.307   0.065  0.0377  0.2089  0.4552
  417MOL0     C56227   4.658   2.208  -0.050  0.1087  1.3626  0.7853
  417MOL0     H56228   5.132   2.090  -0.057  0.3046  1.1834  1.9847
  417MOL0     H56229   5.272   1.894  -0.064 -0.4738  1.1807 -1.8342
  417MOL0     H56230   5.406   1.739  -0.015  0.1491  2.6172  0.9432
  417MOL0     H56231   5.412   1.803   0.143 -0.1083  0.3513 -0.7465
  417MOL0     H56232   5.559   1.599   0.079 -0.4919  0.7567  0.2204
  417MOL0     H56233   5.414   1.503   0.100  1.7012 -1.7409  0.4774
  417MOL0     H56234   5.364   1.567   0.321 -0.0482 -0.1891 -3.6052
  417MOL0     H56235   5.487   1.684   0.337 -4.2228  0.5931  1.3368
  417MOL0     H56236   5.557   1.378   0.303 -0.1073 -0.3964  2.7565
  417MOL0     H56237   5.677   1.508   0.309  0.4691  1.7053  1.3576
  417MOL0     H56238   5.495   1.389   0.505 -0.1795 -0.5963 -2.1508
  417MOL0     H56239   5.671   1.418   0.518 -0.4229 -1.1569 -0.5854
  417MOL0     H56240   5.600   1.672   0.527 -0.5461  0.0436 -1.9066
  417MOL0     H56241   5.448   1.610   0.585  0.7607  1.4363  0.8140
  417MOL0     H56242   5.595   1.651   0.776 -1.5886 -0.3629  0.3823
  417MOL0     H56243   5.724   1.549   0.708  0.2480  3.1330 -4.5490
  417MOL0     H56244   5.433   1.453   0.783  0.2692 -1.6385  2.0068
  417MOL0     H56245   5.560   1.352   0.745 -1.5445  1.0467 -3.0115
  417MOL0     H56246   5.416   1.410   1.066  0.6925  0.8503  0.2226
  417MOL0     H56247   5.457   1.282   1.268  0.3390 -0.7694  1.4012
  417MOL0     H56248   5.611   1.206   1.273 -0.6294 -0.6648 -1.5686
  417MOL0     H56249   5.646   1.490   1.362 -2.7278  1.5174 -2.4193
  417MOL0     H56250   5.495   1.449   1.421  1.9020  2.9463 -0.2150
  417MOL0     H56251   5.679   1.395   1.588  0.8591 -1.2906  0.8547
  417MOL0     H56252   5.722   1.257   1.480  1.6356  0.7999 -1.7271
  417MOL0     H56253   5.518   1.167   1.515  0.0444 -0.1677  1.8574
  417MOL0     H56254   5.444   1.307   1.590 -1.0810 -1.1413  5.4905
  417MOL0     H56255   5.332   1.103   1.631  0.2945  0.1782  0.9879
  417MOL0     H56256   5.157   1.008   1.775  0.5502 -1.3188  0.4065
  417MOL0     H56257   4.807   0.982   1.908  0.4993 -0.2854  0.1412
  417MOL0     H56258   4.605   0.840   1.986  0.0871 -0.4101 -2.1706
  417MOL0     H56259   4.453   0.745   2.117  1.3557  1.4094 -2.2787
  417MOL0     H56260   4.518   0.632   1.993  1.6455  3.3000 -0.1580
  417MOL0     H56261   4.420   0.550   2.260 -0.8141 -1.3627  0.6107
  417MOL0     H56262   4.303   0.566   2.127  0.0682 -2.4917 -2.2984
  417MOL0     H56263   4.375   0.373   2.020 -1.4862  0.0940  0.5781
  417MOL0     H56264   4.541   0.379   2.092  0.4514  2.6927  2.2444
  417MOL0     H56265   4.297   0.325   2.262  0.0245 -2.2914 -0.9543
  417MOL0     H56266   4.468   0.307   2.302  1.3692 -1.3406 -1.1281
  417MOL0     H56267   4.475   0.154   2.102  0.4790 -0.1607  0.9514
  417MOL0     H56268   4.289   0.155   2.101 -2.1845  1.7095  3.1988
  417MOL0     H56269   4.444   0.064   2.337  0.5870  0.7913 -0.4363
  417MOL0     H56270   4.280   0.027   2.284  1.2801 -0.7341  0.0893
  417MOL0     H56271   4.447  -0.173   2.241 -2.2096  0.3163  0.3196
  417MOL0     H56272   4.526  -0.058   2.132 -0.6863  1.9033 -0.6271
  417MOL0     H56273   4.327  -0.230   2.060  2.0008 -0.5661  1.2900
  417MOL0     H56274   4.236  -0.075   2.081  1.9069  0.9613  2.6365
  417MOL0     H56275   4.859   0.623   2.238 -1.2131  1.2826  0.7812
  417MOL0     H56276   5.053   0.759   2.170 -0.0367 -0.3291 -1.8937
  417MOL0     H56277   5.398   1.110   2.121 -0.5421  3.1805 -0.1588
  417MOL0     H56278   5.560   1.211   1.981  0.6664 -2.1701  0.6023
  417MOL0     H56279   5.023   1.691   0.214  2.2901 -0.8608  1.0507
  417MOL0     H56280   4.869   1.859   0.205 -0.7005  1.0729 -0.8795
  417MOL0     H56281   4.882   2.445   0.286  1.5600  2.3127 -4.6372
  417MOL0     H56282   4.696   2.598   0.315 -1.4807  0.1124 -0.1490
  417MOL0     H56283   4.439   2.728   0.370 -2.8250  0.9352 -2.5679
  417MOL0     H56284   4.497   2.563   0.412  1.0389 -1.2031 -1.7537
  417MOL0     H56285   4.234   2.653   0.296 -1.2245 -1.5504 -0.3618
  417MOL0     H56286   4.263   2.613   0.473 -2.1931 -0.6623  0.3741
  417MOL0     H56287   4.309   2.371   0.392  3.4172  4.2016  0.4595
  417MOL0     H56288   4.232   2.417   0.234 -1.3649 -3.1344  0.8124
  417MOL0     H56289   4.073   2.313   0.406  1.5517  0.4101  1.7845
  417MOL0     H56290   4.086   2.460   0.489 -3.6173 -0.3633  0.1067
  417MOL0     H56291   3.861   2.599   0.133  1.8863  0.5247 -3.1097
  417MOL0     H56292   4.467   2.395   0.028  0.4157 -1.1236  0.7452
  417MOL0     H56293   4.747   2.183  -0.108  2.0206  2.8376  2.9786
  417MOL0     H56294   4.635   2.117   0.006  2.4191  1.2683  1.6576
  417MOL0     H56295   4.569   2.233  -0.109 -1.3188  3.3922  3.5639
  418MOL0     O56296   9.709  11.322   7.060 -0.2836  0.0309 -0.0595
  418MOL0     C56297   9.731  11.375   7.167  0.3760 -0.1791 -0.8338
  418MOL0     O56298   9.656  11.346   7.276  0.2201  0.5634  0.0772
  418MOL0     C56299   9.538  11.270   7.260 -0.6616 -0.3536  1.0684
  418MOL0     C56300   9.544  11.136   7.225  0.3217  0.4069  0.1419
  418MOL0     C56301   9.428  11.061   7.202  0.1252  0.0585  0.7522
  418MOL0     C56302   9.300  11.118   7.216 -0.5710 -0.0148  0.5283
  418MOL0     O56303   9.182  11.056   7.198 -0.6056 -0.9178  0.0072
  418MOL0     C56304   9.161  10.930   7.128  0.9235  0.5348 -0.0921
  418MOL0     C56305   9.019  10.925   7.072 -0.5914  0.5489 -0.0265
  418MOL0     C56306   9.003  10.984   6.929  0.5714 -0.0194 -0.1304
  418MOL0     C56307   8.864  10.982   6.868 -0.0837 -0.2182  0.5883
  418MOL0     C56308   8.838  10.835   6.836 -0.7664 -0.3259  0.1079
  418MOL0     C56309   8.727  10.818   6.733 -0.2629 -0.1875 -0.4408
  418MOL0     C56310   8.703  10.668   6.706  0.2788  0.0897 -0.4442
  418MOL0     C56311   8.586  10.652   6.602 -0.7729 -0.0899  0.3184
  418MOL0     N56312   8.448  10.688   6.648  0.2881  0.5138  0.4730
  418MOL0     C56313   8.386  10.810   6.648  0.4912  0.2931 -0.2825
  418MOL0     C56314   8.277  10.793   6.723 -0.2401 -0.8704 -0.6179
  418MOL0     C56315   8.176  10.899   6.741  0.6459  0.0170 -0.4073
  418MOL0     C56316   8.039  10.866   6.665  0.2368 -0.0297 -0.3264
  418MOL0     C56317   7.918  10.819   6.741 -0.1155  0.3026 -0.5736
  418MOL0     C56318   7.872  10.902   6.863  0.8593 -0.2958 -0.5174
  418MOL0     O56319   7.761  10.823   6.908 -0.6422  0.7391  0.1813
  418MOL0     C56320   7.712  10.887   7.014  0.2301  0.7619 -0.9156
  418MOL0     C56321   7.605  10.973   6.988  0.0874  0.1779  0.0788
  418MOL0     C56322   7.551  11.061   7.087  0.2875  0.2402  0.0743
  418MOL0     C56323   7.596  11.051   7.222 -0.1099  0.1468  0.4441
  418MOL0     C56324   7.560  11.145   7.318 -0.3364 -1.1322 -0.5598
  418MOL0     O56325   7.609  11.126   7.448 -0.1495  0.8908 -0.1258
  418MOL0     C56326   7.545  11.193   7.554 -0.9333  1.6689  0.3664
  418MOL0     C56327   7.411  11.230   7.565  0.6992  0.2253  0.6597
  418MOL0     C56328   7.353  11.283   7.683  0.0142 -0.2696  0.4083
  418MOL0     C56329   7.435  11.309   7.789 -0.5628 -1.0365 -0.7570
  418MOL0     O56330   7.371  11.360   7.899  0.4998  0.2795 -0.1071
  418MOL0     C56331   7.384  11.277   8.017  0.1173  0.2570  0.4607
  418MOL0     C56332   7.266  11.304   8.119  0.0289 -0.9927 -0.2924
  418MOL0     C56333   7.139  11.237   8.079  0.4605  0.5790  0.2091
  418MOL0     C56334   7.031  11.255   8.183  1.4818  0.8461  0.1100
  418MOL0     C56335   6.907  11.169   8.140 -0.6461 -0.4579 -0.2848
  418MOL0     C56336   6.801  11.190   8.245  1.1752  0.3200  0.7002
  418MOL0     C56337   6.676  11.096   8.210 -0.5515  0.0425  0.9149
  418MOL0     C56338   6.579  11.104   8.323 -0.5183 -0.2380 -0.0660
  418MOL0    Cl56339   6.428  11.021   8.278  0.6121 -0.2044  0.0516
  418MOL0     C56340   7.574  11.278   7.782 -0.0351 -1.3365  0.9079
  418MOL0     C56341   7.629  11.211   7.668 -0.5843 -0.2538  2.1160
  418MOL0     O56342   7.486  11.239   7.288 -0.2742  0.6199  0.4824
  418MOL0     C56343   7.701  10.954   7.241  0.4260  0.3072 -0.0264
  418MOL0     C56344   7.756  10.879   7.144 -0.2694  0.4630  0.6631
  418MOL0     N56345   8.294  10.672   6.791  0.1162 -0.3362  0.2319
  418MOL0     N56346   8.385  10.604   6.736  0.4228  0.0230  0.7204
  418MOL0     C56347   9.300  11.248   7.258  0.4941 -0.6750 -0.2774
  418MOL0     C56348   9.415  11.331   7.278 -0.0243  0.1112  0.4592
  418MOL0     C56349   9.828  11.486   7.184 -0.1604 -1.0369  0.8688
  418MOL0     C56350   9.827  11.560   7.309  0.0054 -0.0003 -0.2652
  418MOL0     C56351   9.915  11.666   7.332  0.0543  0.0635  0.5125
  418MOL0     C56352  10.012  11.699   7.238 -0.2394  0.2021 -0.6403
  418MOL0     O56353  10.095  11.807   7.269  0.1071 -0.8408  0.8229
  418MOL0     C56354  10.230  11.816   7.205  0.2673  0.4816 -0.2477
  418MOL0     C56355  10.313  11.695   7.234  0.5548 -1.0455  0.6718
  418MOL0     C56356  10.455  11.707   7.163  0.9065  0.0047 -0.6878
  418MOL0     C56357  10.454  11.749   7.015  0.3246 -0.4324 -0.2306
  418MOL0     C56358  10.402  11.639   6.939  0.2959  0.1309 -0.1013
  418MOL0     C56359  10.375  11.536   6.886  0.5915 -0.0464 -0.4339
  418MOL0     C56360  10.014  11.634   7.115 -0.1536  0.3867  0.0633
  418MOL0     C56361   9.926  11.523   7.091  0.6857  0.3325 -0.1828
  418MOL0     C56362   9.916  11.461   6.947  0.4335  0.2085 -0.2973
  418MOL0     H56363   9.629  11.068   7.232 -2.0151 -2.8231 -0.2017
  418MOL0     H56364   9.438  10.958   7.168 -1.0500  1.5079 -5.1009
  418MOL0     H56365   9.233  10.909   7.048  1.4114  0.9076  0.2406
  418MOL0     H56366   9.162  10.845   7.196 -0.5953  0.8591  0.3829
  418MOL0     H56367   8.946  10.984   7.128  0.8689  1.4074  1.0450
  418MOL0     H56368   8.984  10.822   7.061  0.2728  0.1636  0.6645
  418MOL0     H56369   9.071  10.931   6.862 -2.7240 -1.7536 -2.3632
  418MOL0     H56370   9.035  11.089   6.936 -0.9037  0.8914 -4.2176
  418MOL0     H56371   8.789  11.016   6.939  1.8399  2.1535  1.5836
  418MOL0     H56372   8.874  11.038   6.775 -0.4911  0.0472  0.7033
  418MOL0     H56373   8.922  10.783   6.788  0.2593  0.4918  0.9444
  418MOL0     H56374   8.798  10.792   6.928 -1.3906 -0.7152 -0.3396
  418MOL0     H56375   8.632  10.865   6.759 -2.3418 -1.2200 -5.1297
  418MOL0     H56376   8.768  10.868   6.645 -1.7550  2.5078  0.2874
  418MOL0     H56377   8.662  10.618   6.794  0.2490  0.0435 -0.4844
  418MOL0     H56378   8.793  10.611   6.682 -0.4722 -1.1799 -0.3392
  418MOL0     H56379   8.596  10.722   6.519 -0.4941  1.1269  1.3544
  418MOL0     H56380   8.598  10.551   6.560  1.0573 -0.7177  2.1462
  418MOL0     H56381   8.416  10.899   6.594  0.3806 -0.1628 -1.1113
  418MOL0     H56382   8.149  10.916   6.846 -1.2008 -0.2311 -0.8161
  418MOL0     H56383   8.212  10.996   6.704 -1.5357  0.7804 -0.6419
  418MOL0     H56384   8.020  10.952   6.599  4.5154  3.0566  1.8882
  418MOL0     H56385   8.071  10.798   6.586 -2.1129 -1.6852  0.0782
  418MOL0     H56386   7.954  10.723   6.780  1.4629  0.5067 -1.4437
  418MOL0     H56387   7.828  10.808   6.679 -1.9744  1.4116  1.7573
  418MOL0     H56388   7.836  10.996   6.820  1.3855 -0.4935 -1.4133
  418MOL0     H56389   7.932  10.924   6.952 -2.0444  1.5755  1.1500
  418MOL0     H56390   7.560  10.984   6.890  2.5505  0.2362 -1.1156
  418MOL0     H56391   7.473  11.131   7.060  0.8459 -0.0444 -2.5138
  418MOL0     H56392   7.351  11.215   7.476  1.9430  0.4569 -0.2432
  418MOL0     H56393   7.246  11.297   7.682 -0.2002 -1.6146  1.2134
  418MOL0     H56394   7.382  11.170   7.994 -0.7325  0.5971 -1.2218
  418MOL0     H56395   7.478  11.295   8.070  0.9490 -1.6981 -0.2637
  418MOL0     H56396   7.302  11.270   8.217 -2.1610  0.1270  0.9698
  418MOL0     H56397   7.235  11.409   8.112 -0.8244 -1.3632 -2.8187
  418MOL0     H56398   7.107  11.263   7.978 -0.6494 -0.9109  0.1301
  418MOL0     H56399   7.163  11.130   8.080 -0.8985  0.1294  4.1060
  418MOL0     H56400   7.002  11.361   8.186  0.4220  0.6021  4.1370
  418MOL0     H56401   7.049  11.224   8.286  3.1781 -0.6029 -0.5796
  418MOL0     H56402   6.935  11.065   8.123 -0.2218  0.0234 -3.0434
  418MOL0     H56403   6.874  11.208   8.043 -0.1406 -0.6489 -0.5358
  418MOL0     H56404   6.830  11.177   8.350 -0.4016 -1.1312  1.0073
  418MOL0     H56405   6.777  11.297   8.243  1.5644  0.4052  0.3728
  418MOL0     H56406   6.703  10.993   8.188 -0.9875  0.5853 -2.9318
  418MOL0     H56407   6.616  11.124   8.123 -2.1345 -1.8081  1.3432
  418MOL0     H56408   6.617  11.055   8.413 -1.7984 -1.5044 -0.1891
  418MOL0     H56409   6.556  11.208   8.350  3.4191  1.1749 -1.4446
  418MOL0     H56410   7.638  11.288   7.869 -1.4682  0.8677  1.8078
  418MOL0     H56411   7.731  11.172   7.663 -0.9508 -1.1058  0.6275
  418MOL0     H56412   7.746  10.937   7.339 -0.0931  2.8321  0.7090
  418MOL0     H56413   7.832  10.802   7.157  0.1642  0.7008 -0.3998
  418MOL0     H56414   9.207  11.291   7.292  1.8838 -0.0298  3.0448
  418MOL0     H56415   9.398  11.437   7.293 -0.5260  0.2338 -0.9050
  418MOL0     H56416   9.750  11.553   7.385  0.2796 -0.2267 -0.0089
  418MOL0     H56417   9.911  11.728   7.422  3.3994  3.1281 -1.1994
  418MOL0     H56418  10.278  11.908   7.240 -1.3428  1.8409 -1.4792
  418MOL0     H56419  10.213  11.814   7.097  0.4679 -1.2323 -0.2752
  418MOL0     H56420  10.269  11.600   7.202  2.1435 -1.6620  0.2338
  418MOL0     H56421  10.323  11.693   7.343 -0.8603 -4.5097  0.8698
  418MOL0     H56422  10.500  11.610   7.188  2.1117  0.0963 -2.3641
  418MOL0     H56423  10.519  11.784   7.206  0.9619 -0.6292  0.4013
  418MOL0     H56424  10.386  11.834   7.004 -0.9229 -1.4329 -0.5944
  418MOL0     H56425  10.559  11.767   6.991  0.6933 -2.5942 -0.5003
  418MOL0     H56426  10.352  11.444   6.834  0.7518 -0.3135 -0.0345
  418MOL0     H56427  10.080  11.653   7.031 -0.1274 -4.8621 -1.4618
  418MOL0     H56428   9.950  11.358   6.959 -0.4966  0.1236  2.4383
  418MOL0     H56429   9.815  11.481   6.908 -0.3094  4.3900  2.9369
  418MOL0     H56430   9.987  11.506   6.878  0.8753 -0.6291 -0.3896
  419MOL0     O56431   7.304   3.649   7.656  0.2850 -0.7075  0.3914
  419MOL0     C56432   7.326   3.631   7.774 -0.1980 -0.0257 -0.0850
  419MOL0     O56433   7.437   3.672   7.846  0.2590 -0.2552  0.1157
  419MOL0     C56434   7.537   3.727   7.775 -0.4668  0.0873  0.0427
  419MOL0     C56435   7.656   3.657   7.759  0.1731  0.1041  0.6032
  419MOL0     C56436   7.766   3.711   7.679 -1.0329  1.2770 -0.6249
  419MOL0     C56437   7.760   3.845   7.634  0.6978  0.7856 -0.4629
  419MOL0     O56438   7.868   3.901   7.574 -0.0895  0.2423 -0.6620
  419MOL0     C56439   8.005   3.863   7.610 -0.4235 -0.0307 -0.8912
  419MOL0     C56440   8.089   3.965   7.533  0.3950  0.3346  0.6106
  419MOL0     C56441   8.056   4.111   7.552 -1.0727  0.0499 -0.7348
  419MOL0     C56442   8.155   4.195   7.472 -0.1601 -0.2839  0.5460
  419MOL0     C56443   8.107   4.342   7.474 -0.7860 -0.3215 -0.0553
  419MOL0     C56444   8.003   4.374   7.368  0.8878 -0.6263 -0.3313
  419MOL0     C56445   7.908   4.485   7.408 -0.3495  0.0661  0.5823
  419MOL0     C56446   7.976   4.615   7.451 -0.5311  0.0302  0.1580
  419MOL0     N56447   7.874   4.716   7.474  0.5453 -1.1194  0.1718
  419MOL0     C56448   7.824   4.758   7.599 -0.0058  0.4475 -0.4416
  419MOL0     C56449   7.727   4.842   7.574 -0.0317 -0.3091 -0.7858
  419MOL0     C56450   7.646   4.925   7.675 -0.0197 -0.5415 -0.4896
  419MOL0     C56451   7.715   5.045   7.730  0.6337 -1.4169 -0.4623
  419MOL0     C56452   7.644   5.115   7.847  0.2591 -0.4718 -0.2269
  419MOL0     C56453   7.718   5.223   7.936 -0.8443 -0.7426 -0.7879
  419MOL0     O56454   7.728   5.345   7.869 -0.4705 -0.3041  0.1849
  419MOL0     C56455   7.734   5.465   7.939  0.7683 -0.6064 -1.1106
  419MOL0     C56456   7.723   5.593   7.876 -0.1192  0.0434  0.5250
  419MOL0     C56457   7.736   5.714   7.936 -0.1310 -0.1552  0.0509
  419MOL0     C56458   7.752   5.704   8.072 -0.0185 -1.1920  0.5326
  419MOL0     C56459   7.762   5.837   8.155  0.3537  0.1311  0.4610
  419MOL0     O56460   7.729   5.959   8.096  0.2869 -0.2181  0.1695
  419MOL0     C56461   7.721   6.072   8.176  0.3900  0.0350 -0.1947
  419MOL0     C56462   7.647   6.071   8.295  0.8863 -1.1917 -0.2387
  419MOL0     C56463   7.633   6.189   8.384  1.1526  0.3771  0.2430
  419MOL0     C56464   7.703   6.312   8.344 -0.0887  1.2046  0.5259
  419MOL0     O56465   7.687   6.427   8.424 -0.0776 -0.0422  0.1221
  419MOL0     C56466   7.671   6.559   8.355 -0.0699  0.5772  0.1179
  419MOL0     C56467   7.597   6.653   8.443  0.8632  0.0057  0.7035
  419MOL0     C56468   7.586   6.799   8.377 -0.7926 -0.8713  0.7752
  419MOL0     C56469   7.512   6.799   8.247 -0.5927 -0.1086  0.1441
  419MOL0     C56470   7.475   6.943   8.226  0.6893  0.6844  0.2564
  419MOL0     C56471   7.399   6.956   8.098 -0.0673 -0.2133 -0.9814
  419MOL0     C56472   7.486   6.990   7.981 -0.7236  0.3165 -0.3011
  419MOL0     C56473   7.427   6.988   7.843  0.8223  0.7470  0.0300
  419MOL0    Cl56474   7.332   7.132   7.801 -0.0436  0.1585  0.0206
  419MOL0     C56475   7.774   6.310   8.220  0.0266  0.2212 -0.0882
  419MOL0     C56476   7.779   6.191   8.138 -0.3726 -1.6625  0.0192
  419MOL0     O56477   7.785   5.815   8.276 -0.2126  0.1628 -0.5866
  419MOL0     C56478   7.765   5.583   8.145 -0.5564  0.6855 -0.1043
  419MOL0     C56479   7.751   5.452   8.080 -0.1974  0.3751 -1.3295
  419MOL0     N56480   7.713   4.851   7.440 -0.0579 -0.4100 -0.4599
  419MOL0     N56481   7.798   4.785   7.379 -1.1313  0.0814  0.3544
  419MOL0     C56482   7.635   3.915   7.650 -0.1430 -0.7614 -0.4660
  419MOL0     C56483   7.530   3.858   7.722 -0.1802  0.2180  0.0709
  419MOL0     C56484   7.247   3.531   7.849  0.5556 -0.1319  0.9529
  419MOL0     C56485   7.314   3.449   7.930 -1.1182 -0.7992 -0.3378
  419MOL0     C56486   7.264   3.328   7.970  0.2613 -0.1995 -0.1329
  419MOL0     C56487   7.137   3.298   7.944  0.4352  0.1760 -0.6814
  419MOL0     O56488   7.098   3.163   7.959  0.0079  0.0696 -0.4225
  419MOL0     C56489   7.039   3.134   8.091  0.5558  0.2962  1.0563
  419MOL0     C56490   6.890   3.168   8.099 -0.1975  0.2433  0.4584
  419MOL0     C56491   6.830   3.153   8.235  0.7635 -0.1454 -0.7050
  419MOL0     C56492   6.683   3.191   8.227  0.0944  0.9113 -0.0125
  419MOL0     C56493   6.624   3.186   8.366  0.7297  0.1612  0.1512
  419MOL0     C56494   6.600   3.170   8.482 -0.1818 -0.4982 -0.1178
  419MOL0     C56495   7.051   3.395   7.893  0.3436 -0.0580  0.1988
  419MOL0     C56496   7.111   3.506   7.838 -0.7429 -0.2492 -0.8748
  419MOL0     C56497   7.030   3.594   7.733 -0.3052 -0.1232 -0.3564
  419MOL0     H56498   7.680   3.561   7.803  1.4143  0.2153  0.2057
  419MOL0     H56499   7.857   3.653   7.671 -1.9654 -0.1592 -1.1786
  419MOL0     H56500   8.012   3.865   7.719 -0.6631 -0.2939 -0.8710
  419MOL0     H56501   8.027   3.760   7.580 -0.0416  0.2318 -1.5283
  419MOL0     H56502   8.082   3.941   7.427  2.1268 -0.8677  0.7263
  419MOL0     H56503   8.195   3.956   7.561  0.8392  0.2813 -1.0107
  419MOL0     H56504   8.062   4.153   7.653  0.6431 -0.3798 -0.6362
  419MOL0     H56505   7.956   4.123   7.509 -1.6474  3.0644  1.1342
  419MOL0     H56506   8.251   4.187   7.524  1.2370  0.2543 -1.7824
  419MOL0     H56507   8.162   4.165   7.367 -1.4244  1.3533 -0.0721
  419MOL0     H56508   8.061   4.354   7.573 -1.6246 -2.8413 -0.0740
  419MOL0     H56509   8.192   4.408   7.456 -1.6315  0.5095 -1.2163
  419MOL0     H56510   8.059   4.396   7.277  1.4645 -0.9822 -0.0667
  419MOL0     H56511   7.935   4.289   7.357 -0.7961  0.3239  1.8106
  419MOL0     H56512   7.839   4.445   7.482  1.7139 -1.5285  1.7438
  419MOL0     H56513   7.842   4.503   7.323 -0.2251 -2.5126 -0.1552
  419MOL0     H56514   8.026   4.582   7.543  1.1685 -0.7448 -0.9816
  419MOL0     H56515   8.053   4.646   7.380 -0.9779  1.8649  0.4165
  419MOL0     H56516   7.874   4.744   7.695 -0.0091  3.2389  0.0557
  419MOL0     H56517   7.551   4.960   7.633  0.7225  2.0914 -0.1421
  419MOL0     H56518   7.622   4.851   7.752  2.4201 -2.1829 -1.1876
  419MOL0     H56519   7.809   5.001   7.765 -0.5077 -4.4162 -0.7811
  419MOL0     H56520   7.722   5.110   7.643 -4.3553  1.6405  1.0196
  419MOL0     H56521   7.596   5.041   7.912 -1.0222  1.8211  1.5702
  419MOL0     H56522   7.562   5.168   7.799  0.3396  0.1266  0.2869
  419MOL0     H56523   7.812   5.179   7.970 -0.9541 -0.0115  0.5558
  419MOL0     H56524   7.653   5.236   8.023 -1.2545 -1.6561 -0.9447
  419MOL0     H56525   7.703   5.581   7.770 -1.3525  3.8064  0.1631
  419MOL0     H56526   7.723   5.805   7.879 -3.7736  0.3857  1.5020
  419MOL0     H56527   7.599   5.985   8.341  2.5952 -1.6043  0.8893
  419MOL0     H56528   7.571   6.202   8.473  0.6735  2.2215 -0.3236
  419MOL0     H56529   7.769   6.601   8.329 -0.9055  0.9054 -2.8951
  419MOL0     H56530   7.611   6.553   8.264 -1.6087  0.7717  1.0837
  419MOL0     H56531   7.496   6.614   8.459  0.1085  1.4620 -0.2359
  419MOL0     H56532   7.647   6.666   8.540  0.9010  3.2231  0.3523
  419MOL0     H56533   7.534   6.869   8.442 -0.0526 -0.5083  0.9846
  419MOL0     H56534   7.690   6.833   8.368 -1.1008  1.4657  4.1285
  419MOL0     H56535   7.417   6.744   8.248 -0.4916 -0.2909 -0.0789
  419MOL0     H56536   7.584   6.759   8.175 -1.5411 -0.8034 -0.4489
  419MOL0     H56537   7.562   7.010   8.225 -0.9599  2.9310  1.0478
  419MOL0     H56538   7.414   6.984   8.306  0.0152 -1.3090  0.8212
  419MOL0     H56539   7.342   6.871   8.060 -0.6182 -0.4453  0.3140
  419MOL0     H56540   7.328   7.036   8.117  0.6606 -0.3371  3.4076
  419MOL0     H56541   7.562   6.912   7.990  0.6556  1.5434 -0.9391
  419MOL0     H56542   7.531   7.089   7.995 -0.1461  0.1505 -0.9141
  419MOL0     H56543   7.510   6.980   7.772  2.0695  0.2330  1.5066
  419MOL0     H56544   7.357   6.904   7.839 -0.3363  1.7085 -2.9674
  419MOL0     H56545   7.821   6.395   8.173  0.4286 -0.1870 -0.4258
  419MOL0     H56546   7.844   6.190   8.051 -3.5652 -3.5860 -2.5633
  419MOL0     H56547   7.794   5.575   8.249 -0.5967  0.2401 -0.1273
  419MOL0     H56548   7.778   5.366   8.141 -0.5340  0.3241 -1.2542
  419MOL0     H56549   7.622   4.013   7.606  0.3288 -0.3457  0.3146
  419MOL0     H56550   7.433   3.906   7.728 -0.4796 -0.5021  3.6393
  419MOL0     H56551   7.420   3.462   7.950 -1.3687  0.4709  0.3047
  419MOL0     H56552   7.332   3.263   8.023  0.3300  0.0708  0.1076
  419MOL0     H56553   7.082   3.199   8.168  0.6221  2.3683 -0.6278
  419MOL0     H56554   7.058   3.029   8.116  0.0301  0.6798  3.2614
  419MOL0     H56555   6.840   3.090   8.040  1.9182 -1.2516  0.5296
  419MOL0     H56556   6.879   3.266   8.052  1.8787 -0.1917 -1.1129
  419MOL0     H56557   6.891   3.205   8.309  2.4963 -2.3125 -0.4755
  419MOL0     H56558   6.845   3.056   8.284  2.5350  1.1648  1.5395
  419MOL0     H56559   6.678   3.291   8.182  0.7073  1.0159  0.1489
  419MOL0     H56560   6.626   3.129   8.157 -1.5088  1.1990  0.9700
  419MOL0     H56561   6.573   3.132   8.578 -1.4992  0.3886 -0.1106
  419MOL0     H56562   6.953   3.366   7.856 -0.9160  0.0733  3.1114
  419MOL0     H56563   7.073   3.564   7.637  1.5720 -0.5379  0.5561
  419MOL0     H56564   6.922   3.590   7.749  0.0489  0.0792  2.7230
  419MOL0     H56565   7.056   3.700   7.737  0.3821 -0.3035  3.4020
  420MOL0     O56566   7.678   7.033   8.733 -0.2626  0.1370  0.1347
  420MOL0     C56567   7.711   7.094   8.634 -0.4412  1.0319 -0.0134
  420MOL0     O56568   7.837   7.092   8.570  0.0048  0.0139 -0.2436
  420MOL0     C56569   7.926   7.002   8.626 -0.4360 -0.5814  0.5499
  420MOL0     C56570   8.058   7.046   8.614  0.4123 -0.5100 -0.1565
  420MOL0     C56571   8.167   6.973   8.668 -0.5065 -0.0239  0.9094
  420MOL0     C56572   8.147   6.847   8.722  0.1972  1.0195 -0.8429
  420MOL0     O56573   8.240   6.769   8.789 -0.3118 -0.3707  0.5972
  420MOL0     C56574   8.311   6.841   8.886  0.8240 -0.3843 -1.3956
  420MOL0     C56575   8.369   6.762   9.009 -0.6255  0.3343  1.0858
  420MOL0     C56576   8.503   6.827   9.065 -0.2901  0.3056  0.2251
  420MOL0     C56577   8.472   6.971   9.117 -0.5580  0.4333 -0.3847
  420MOL0     C56578   8.572   7.008   9.223 -0.1241  1.0992 -0.2580
  420MOL0     C56579   8.551   7.156   9.260 -1.0201  0.5535  0.3844
  420MOL0     C56580   8.656   7.220   9.353 -0.0765  0.0421 -0.4528
  420MOL0     C56581   8.799   7.224   9.308  0.5376 -0.6909 -0.0627
  420MOL0     N56582   8.819   7.298   9.177  0.0737  0.4465 -0.8977
  420MOL0     C56583   8.816   7.234   9.056  0.3059  0.1571  0.1351
  420MOL0     C56584   8.843   7.336   8.967  0.9804 -0.5152 -0.5265
  420MOL0     C56585   8.890   7.338   8.830 -0.5041  0.3155 -1.3963
  420MOL0     C56586   9.029   7.265   8.807 -0.3572  0.5715  0.2996
  420MOL0     C56587   9.142   7.366   8.830  0.4680 -0.2894 -0.5856
  420MOL0     C56588   9.274   7.295   8.812 -1.0363 -0.6642 -0.8149
  420MOL0     O56589   9.378   7.392   8.779 -0.2390 -0.1032 -0.3264
  420MOL0     C56590   9.508   7.356   8.791  0.4566 -0.3221 -0.3989
  420MOL0     C56591   9.611   7.453   8.768  0.1244  0.0622  0.2472
  420MOL0     C56592   9.749   7.419   8.755  0.0272 -0.0896 -0.1072
  420MOL0     C56593   9.781   7.280   8.762  0.3064 -0.4505  0.6657
  420MOL0     C56594   9.923   7.230   8.734  0.3629 -0.5247  0.3152
  420MOL0     O56595   9.948   7.115   8.783  0.4602  0.1368  0.4720
  420MOL0     C56596  10.074   7.068   8.777  0.5997 -0.3268 -0.3298
  420MOL0     C56597  10.137   7.033   8.901  0.0617 -0.1976  0.0365
  420MOL0     C56598  10.271   6.994   8.904  0.4004 -0.5948 -0.4548
  420MOL0     C56599  10.351   7.004   8.785 -0.0326 -0.2110 -0.4453
  420MOL0     O56600  10.477   6.960   8.776 -0.1966  0.0390 -0.1700
  420MOL0     C56601  10.550   6.918   8.899  0.2928 -0.8403  0.0271
  420MOL0     C56602  10.693   6.889   8.871 -0.9765 -0.1808  0.3009
  420MOL0     C56603  10.775   7.015   8.880  0.1787  0.4762  0.9619
  420MOL0     C56604  10.887   7.016   8.773 -0.4190 -0.6384 -0.0517
  420MOL0     C56605  10.965   7.148   8.772 -0.4418  0.3625 -0.5742
  420MOL0     C56606  11.066   7.146   8.885  0.2461  0.9250 -1.0308
  420MOL0     C56607  11.170   7.254   8.877 -0.2348  0.2871  0.0294
  420MOL0     C56608  11.226   7.291   9.013  0.5974  0.1855 -0.5416
  420MOL0    Cl56609  11.122   7.444   9.059 -0.1142 -0.0729 -0.0962
  420MOL0     C56610  10.281   7.024   8.660 -1.3222 -0.0068 -0.5766
  420MOL0     C56611  10.144   7.054   8.660 -0.3371 -0.6945 -0.0446
  420MOL0     O56612   9.997   7.306   8.665  0.8480  0.2328  0.3780
  420MOL0     C56613   9.679   7.195   8.778 -1.0077  0.5036  0.8833
  420MOL0     C56614   9.548   7.223   8.800  0.2847  0.3558 -0.3352
  420MOL0     N56615   8.828   7.457   9.036 -0.9880 -0.1045 -0.2677
  420MOL0     N56616   8.811   7.431   9.164  0.5003 -0.0170  0.1805
  420MOL0     C56617   8.005   6.799   8.731  0.5476 -0.1367  0.1846
  420MOL0     C56618   7.893   6.870   8.674 -0.4110  0.5101 -0.8261
  420MOL0     C56619   7.598   7.170   8.557 -0.5991 -0.9899  0.3672
  420MOL0     C56620   7.640   7.249   8.445 -0.2410 -0.7299  0.0494
  420MOL0     C56621   7.547   7.308   8.366  0.4457 -0.4830  0.0455
  420MOL0     C56622   7.408   7.280   8.378 -0.0278 -0.7873 -0.2147
  420MOL0     O56623   7.332   7.310   8.266 -1.0970  0.0782 -0.1818
  420MOL0     C56624   7.194   7.321   8.281 -0.6352  0.3263 -1.1241
  420MOL0     C56625   7.131   7.387   8.161  0.7959 -0.8283 -1.3507
  420MOL0     C56626   7.182   7.352   8.016 -1.0106  0.0356 -0.2856
  420MOL0     C56627   7.097   7.416   7.907 -0.4448  0.3300  0.0911
  420MOL0     C56628   7.166   7.442   7.775 -0.6409 -0.0559 -0.0465
  420MOL0     C56629   7.246   7.461   7.676 -0.0673 -0.7537  0.1983
  420MOL0     C56630   7.362   7.214   8.487 -0.8381 -0.5509 -0.4799
  420MOL0     C56631   7.458   7.165   8.581  0.7506  0.8291 -0.1663
  420MOL0     C56632   7.403   7.087   8.697  1.5445  0.6363 -0.6656
  420MOL0     H56633   8.077   7.145   8.573  1.5219 -0.7402 -0.2356
  420MOL0     H56634   8.268   7.013   8.659 -0.9755  0.8751 -0.5498
  420MOL0     H56635   8.384   6.896   8.826  0.8649  1.6401  0.3826
  420MOL0     H56636   8.249   6.918   8.934  2.6554  0.7383 -0.7028
  420MOL0     H56637   8.397   6.661   8.980  2.5709  0.9362  1.7107
  420MOL0     H56638   8.296   6.761   9.090 -2.5524 -2.1407 -0.5415
  420MOL0     H56639   8.584   6.828   8.991  2.1790  0.0962  2.7444
  420MOL0     H56640   8.555   6.771   9.143  0.5150  0.5328 -0.1339
  420MOL0     H56641   8.462   7.044   9.036 -1.4516  1.0360  0.2625
  420MOL0     H56642   8.377   6.971   9.171  0.2295 -1.2901  1.1324
  420MOL0     H56643   8.553   6.946   9.310  4.1828  0.0338  0.1519
  420MOL0     H56644   8.675   6.991   9.190 -0.5443  1.7776 -2.0547
  420MOL0     H56645   8.550   7.211   9.166  0.4332 -1.7351 -1.0697
  420MOL0     H56646   8.452   7.176   9.302 -0.6333  0.8495  1.1938
  420MOL0     H56647   8.658   7.164   9.447  0.5040  0.7659 -0.0291
  420MOL0     H56648   8.609   7.317   9.371 -2.5767 -0.5130 -3.1491
  420MOL0     H56649   8.853   7.268   9.393 -2.9160  0.9157  1.4684
  420MOL0     H56650   8.830   7.121   9.285 -2.4097 -1.4135 -1.1869
  420MOL0     H56651   8.837   7.129   9.042  1.2411  0.3504  0.0395
  420MOL0     H56652   8.825   7.268   8.777 -0.2993  0.1448 -1.4203
  420MOL0     H56653   8.886   7.438   8.786 -1.7922  1.6495  1.4639
  420MOL0     H56654   9.042   7.185   8.881 -4.5360  0.6530  1.4058
  420MOL0     H56655   9.032   7.226   8.705 -6.4196 -1.5417  0.5279
  420MOL0     H56656   9.139   7.422   8.923 -0.6062  1.5550 -1.6669
  420MOL0     H56657   9.128   7.438   8.748 -2.3298  2.7906  2.3147
  420MOL0     H56658   9.273   7.221   8.732 -3.6446  2.3579 -3.9392
  420MOL0     H56659   9.303   7.246   8.905  2.3211 -4.2127 -3.4211
  420MOL0     H56660   9.585   7.555   8.741  1.6257  0.9821  2.0180
  420MOL0     H56661   9.812   7.500   8.720 -0.5766  0.7663  0.7287
  420MOL0     H56662  10.092   7.056   8.997  0.1218  1.0682 -0.2164
  420MOL0     H56663  10.309   6.976   9.004  1.2306  1.3508 -0.3765
  420MOL0     H56664  10.540   6.986   8.985  1.2846 -0.9140  0.2168
  420MOL0     H56665  10.500   6.826   8.931  3.0266 -1.9460  1.4840
  420MOL0     H56666  10.738   6.826   8.948  0.0942 -0.1746 -0.3055
  420MOL0     H56667  10.695   6.840   8.773  0.0681 -1.3625  0.8798
  420MOL0     H56668  10.712   7.104   8.872 -0.2864 -0.0185 -2.1997
  420MOL0     H56669  10.812   7.017   8.983  0.2027  0.8701  0.9489
  420MOL0     H56670  10.832   7.018   8.679  1.9098 -1.0376 -1.4993
  420MOL0     H56671  10.948   6.925   8.775 -0.7519 -0.8731 -0.3159
  420MOL0     H56672  10.906   7.240   8.778  2.2093  2.3704 -2.7117
  420MOL0     H56673  11.026   7.139   8.682  0.6051 -3.1218  0.3203
  420MOL0     H56674  11.003   7.173   8.971  1.0381 -3.2320  1.0903
  420MOL0     H56675  11.110   7.048   8.903 -1.0654 -0.0220 -2.7720
  420MOL0     H56676  11.132   7.348   8.838 -0.9481  0.8023  1.8642
  420MOL0     H56677  11.249   7.215   8.812  0.8619 -2.5685  2.7706
  420MOL0     H56678  11.211   7.211   9.087  2.5170 -1.5904 -1.9541
  420MOL0     H56679  11.335   7.298   9.006  0.5874  1.4549  0.2987
  420MOL0     H56680  10.335   7.031   8.566  2.8118  0.5725  1.6333
  420MOL0     H56681  10.089   7.065   8.567  2.0289  0.7429 -1.3707
  420MOL0     H56682   9.697   7.087   8.780 -0.8518  0.4324 -1.5260
  420MOL0     H56683   9.479   7.140   8.811 -0.6055  1.2321  1.0188
  420MOL0     H56684   7.986   6.717   8.800  1.5644  0.0475  0.7120
  420MOL0     H56685   7.793   6.830   8.684  0.0921 -0.1664  3.1079
  420MOL0     H56686   7.734   7.250   8.391 -1.5667 -1.7004 -2.4288
  420MOL0     H56687   7.579   7.365   8.279 -1.5415  2.3122  1.0109
  420MOL0     H56688   7.165   7.384   8.366  0.5416 -1.7608  0.9412
  420MOL0     H56689   7.150   7.221   8.287 -2.4760  1.1316 -0.7949
  420MOL0     H56690   7.140   7.496   8.175 -3.2536 -0.5928  0.7721
  420MOL0     H56691   7.026   7.359   8.168  0.3982  0.8555  0.3499
  420MOL0     H56692   7.179   7.243   8.013  1.2646 -0.1003  0.6100
  420MOL0     H56693   7.286   7.380   7.995 -1.3534  2.1093  0.5444
  420MOL0     H56694   7.003   7.366   7.882 -0.7252  1.9893 -2.4581
  420MOL0     H56695   7.058   7.507   7.952  1.9491  0.5999  1.8286
  420MOL0     H56696   7.315   7.474   7.596 -2.0638 -0.2377 -1.5435
  420MOL0     H56697   7.255   7.198   8.493 -1.3000  2.3910  0.5014
  420MOL0     H56698   7.433   7.116   8.798  0.2528  1.2415 -0.4276
  420MOL0     H56699   7.294   7.097   8.691  1.4620  0.9178  0.8264
  420MOL0     H56700   7.432   6.982   8.690 -0.0989 -0.0623  1.6264
  421MOL0     O56701   1.598   4.437   5.645 -0.4448 -0.5197 -0.0254
  421MOL0     C56702   1.531   4.514   5.578  0.4082  0.5452  0.6000
  421MOL0     O56703   1.557   4.651   5.585  0.0682  0.7219  0.0392
  421MOL0     C56704   1.519   4.736   5.487 -0.4182  0.7975 -0.1326
  421MOL0     C56705   1.406   4.818   5.508 -0.5331  0.8207  0.6153
  421MOL0     C56706   1.368   4.905   5.408 -1.0691  0.3116 -0.5894
  421MOL0     C56707   1.437   4.922   5.286  0.2952  0.2569  0.2113
  421MOL0     O56708   1.377   5.006   5.205  0.6188  0.4586  0.1975
  421MOL0     C56709   1.396   4.984   5.064  0.4851  0.0794 -0.3141
  421MOL0     C56710   1.506   5.075   5.011 -0.7048  0.4908  0.9645
  421MOL0     C56711   1.439   5.219   5.000  0.1040 -0.7766 -0.0411
  421MOL0     C56712   1.547   5.322   4.948  0.6684 -0.3085 -0.0992
  421MOL0     C56713   1.490   5.460   4.915  0.4610  0.5452 -0.3537
  421MOL0     C56714   1.595   5.562   4.863  1.0733 -0.5584 -0.2231
  421MOL0     C56715   1.523   5.697   4.862 -0.3673  0.0913  0.4506
  421MOL0     C56716   1.644   5.799   4.841  0.0278  0.3666 -0.5740
  421MOL0     N56717   1.592   5.929   4.881 -0.4074 -0.6956 -0.3401
  421MOL0     C56718   1.661   6.017   4.959 -0.4742  0.1580 -0.2576
  421MOL0     C56719   1.591   6.131   4.977  1.2953  0.4105  0.0744
  421MOL0     C56720   1.644   6.265   5.018 -0.1619  0.8382  0.2096
  421MOL0     C56721   1.684   6.257   5.163  0.7172  0.0723  0.8139
  421MOL0     C56722   1.573   6.288   5.269  0.6882  0.2809  0.2701
  421MOL0     C56723   1.503   6.420   5.262  1.0357  0.4653  0.1837
  421MOL0     O56724   1.372   6.407   5.325 -0.0917  0.1315 -0.4582
  421MOL0     C56725   1.308   6.514   5.372 -0.2970 -0.6207 -0.2755
  421MOL0     C56726   1.337   6.646   5.327  1.3189  1.0838 -0.4424
  421MOL0     C56727   1.261   6.753   5.378 -1.0241  0.2287  0.2293
  421MOL0     C56728   1.164   6.731   5.477 -0.6823 -0.7486  0.4551
  421MOL0     C56729   1.084   6.843   5.534 -0.3747  0.4782  0.2063
  421MOL0     O56730   0.953   6.813   5.578 -0.5199 -0.3475 -0.5111
  421MOL0     C56731   0.879   6.910   5.647 -0.3807 -0.7068  0.3294
  421MOL0     C56732   0.746   6.897   5.638 -0.0724 -0.0622 -0.3377
  421MOL0     C56733   0.656   6.985   5.704  0.6299  0.1647  0.7000
  421MOL0     C56734   0.702   7.084   5.789  0.8612 -1.0589 -0.3888
  421MOL0     O56735   0.623   7.148   5.867  0.4558 -0.5316 -0.9350
  421MOL0     C56736   0.485   7.107   5.896 -0.3034  0.2347  0.4899
  421MOL0     C56737   0.467   7.191   6.023  0.1595  0.6756 -1.3128
  421MOL0     C56738   0.446   7.339   5.982 -0.0071  0.3847  0.2345
  421MOL0     C56739   0.412   7.427   6.100 -0.0815 -0.1478  0.6731
  421MOL0     C56740   0.428   7.578   6.081 -0.1820  0.8488 -0.1389
  421MOL0     C56741   0.434   7.632   6.219  0.2987 -0.6457  0.0821
  421MOL0     C56742   0.292   7.632   6.280 -0.6885 -0.5759  0.1317
  421MOL0     C56743   0.212   7.768   6.251  0.5187 -0.0019 -0.5669
  421MOL0    Cl56744   0.229   7.884   6.394 -0.0982 -0.0050 -0.2121
  421MOL0     C56745   0.834   7.099   5.803 -0.0649 -0.4257 -0.0416
  421MOL0     C56746   0.926   7.009   5.740  0.1930  0.3464  0.3365
  421MOL0     O56747   1.133   6.959   5.525 -0.7055  0.4443  0.6872
  421MOL0     C56748   1.142   6.601   5.528 -0.1396 -0.1695 -0.4628
  421MOL0     C56749   1.212   6.499   5.467  0.8106  0.4861  0.0832
  421MOL0     N56750   1.467   6.098   4.920 -0.4440 -0.1364 -0.3387
  421MOL0     N56751   1.465   5.985   4.863 -0.3607  0.8800  0.0885
  421MOL0     C56752   1.539   4.827   5.263  0.4282 -0.1537 -0.2246
  421MOL0     C56753   1.586   4.738   5.358  0.7423  0.0075 -0.2764
  421MOL0     C56754   1.411   4.464   5.493 -0.1410 -0.1456  0.8218
  421MOL0     C56755   1.281   4.514   5.511 -0.5700  0.6784 -0.2362
  421MOL0     C56756   1.182   4.457   5.440 -0.4023  0.4116  1.1596
  421MOL0     C56757   1.205   4.336   5.360  1.0164  0.4749 -0.1259
  421MOL0     O56758   1.104   4.265   5.290  0.0307 -0.3748 -0.6089
  421MOL0     C56759   0.967   4.281   5.324 -0.9611 -0.6791  0.3399
  421MOL0     C56760   0.890   4.201   5.217 -0.2316 -0.2761 -0.7683
  421MOL0     C56761   0.751   4.176   5.285 -1.4753 -0.7236 -0.9255
  421MOL0     C56762   0.652   4.121   5.181  0.6764 -1.0446  0.4796
  421MOL0     C56763   0.705   3.996   5.121 -0.0398  0.0381  0.1074
  421MOL0     C56764   0.766   3.897   5.075 -0.7397 -1.1034  0.7440
  421MOL0     C56765   1.333   4.289   5.345  0.9612 -0.0973 -0.8437
  421MOL0     C56766   1.433   4.345   5.412 -0.1326  0.4220  0.7502
  421MOL0     C56767   1.575   4.276   5.396  1.0712  1.1256 -0.1437
  421MOL0     H56768   1.350   4.811   5.600 -1.1526  0.8643  0.2454
  421MOL0     H56769   1.271   4.952   5.422 -0.5885  1.5356 -1.1831
  421MOL0     H56770   1.415   4.881   5.033 -0.4715  0.3859 -2.0533
  421MOL0     H56771   1.308   5.007   5.004  0.8224 -1.5677 -1.5189
  421MOL0     H56772   1.545   5.029   4.920 -2.5971 -3.2530  1.8103
  421MOL0     H56773   1.578   5.081   5.093 -1.3476 -0.6111  1.6348
  421MOL0     H56774   1.388   5.268   5.084  0.4278  0.7482 -0.6921
  421MOL0     H56775   1.350   5.206   4.937  0.5911 -0.5877 -0.7788
  421MOL0     H56776   1.633   5.324   5.015  1.4883 -3.8831 -0.8320
  421MOL0     H56777   1.593   5.287   4.855  2.2348  0.5319  0.3223
  421MOL0     H56778   1.408   5.446   4.843 -0.0686 -2.4015  0.6849
  421MOL0     H56779   1.447   5.497   5.008 -0.1152 -0.3443 -0.2548
  421MOL0     H56780   1.675   5.560   4.937 -0.6817  1.0473  1.8567
  421MOL0     H56781   1.632   5.535   4.763  2.5388 -2.3079  0.7303
  421MOL0     H56782   1.483   5.709   4.963  0.9883 -0.2695  1.0489
  421MOL0     H56783   1.446   5.714   4.786 -0.2468 -0.1106  0.2834
  421MOL0     H56784   1.731   5.768   4.900  0.5204 -0.7241 -1.8162
  421MOL0     H56785   1.667   5.784   4.735 -2.5687 -2.4740 -0.8991
  421MOL0     H56786   1.757   6.004   5.008 -0.1914  0.9310 -0.5880
  421MOL0     H56787   1.735   6.282   4.961  2.5621 -2.8174  3.0049
  421MOL0     H56788   1.574   6.348   5.004 -0.4629  0.1929 -2.7491
  421MOL0     H56789   1.729   6.160   5.188 -0.2943 -0.5321  0.3456
  421MOL0     H56790   1.750   6.344   5.165  2.7020 -1.3622  0.4477
  421MOL0     H56791   1.622   6.284   5.366  0.8544 -0.0492  0.1763
  421MOL0     H56792   1.494   6.212   5.271 -0.8532  1.8602  0.9178
  421MOL0     H56793   1.477   6.448   5.160 -2.2282 -1.2531  0.4395
  421MOL0     H56794   1.560   6.502   5.307  1.5374  0.0180  0.3829
  421MOL0     H56795   1.413   6.661   5.250 -0.2042  1.3372 -1.9551
  421MOL0     H56796   1.291   6.853   5.346  0.6180  0.5933  2.6070
  421MOL0     H56797   0.691   6.818   5.588 -0.5621 -0.2541  0.4951
  421MOL0     H56798   0.553   6.963   5.678  1.3289 -1.4415 -0.9499
  421MOL0     H56799   0.407   7.120   5.822  0.5869 -3.3096 -1.2873
  421MOL0     H56800   0.486   7.001   5.924 -1.7854 -1.5182 -4.8663
  421MOL0     H56801   0.379   7.152   6.074 -1.8759  3.1365 -2.7279
  421MOL0     H56802   0.554   7.185   6.089 -1.5404  5.2144  1.8943
  421MOL0     H56803   0.534   7.392   5.943 -0.8619  3.2002  1.8278
  421MOL0     H56804   0.365   7.337   5.909  2.8297  2.1250 -3.2679
  421MOL0     H56805   0.487   7.398   6.174 -0.4347 -1.7525  0.4382
  421MOL0     H56806   0.311   7.410   6.139 -1.9477  4.1232 -1.6078
  421MOL0     H56807   0.342   7.611   6.022  1.8086  0.6703 -3.3913
  421MOL0     H56808   0.521   7.601   6.030  0.2158  1.0427  0.6648
  421MOL0     H56809   0.505   7.575   6.280  0.7415  0.0270  0.2043
  421MOL0     H56810   0.458   7.736   6.196 -1.8604 -0.5825 -2.2601
  421MOL0     H56811   0.310   7.623   6.388 -4.6209 -0.6576  0.9258
  421MOL0     H56812   0.225   7.551   6.250 -1.0997 -0.6362  1.1731
  421MOL0     H56813   0.241   7.836   6.171  1.1210  0.9813  0.4664
  421MOL0     H56814   0.109   7.733   6.240  1.2011 -2.6019  0.4387
  421MOL0     H56815   0.863   7.171   5.879 -1.6087  1.4907 -1.1742
  421MOL0     H56816   1.032   7.012   5.762 -0.1046  0.2170  1.8515
  421MOL0     H56817   1.071   6.590   5.609  1.0998 -2.4297  0.3933
  421MOL0     H56818   1.202   6.393   5.488 -1.3511  0.8745  1.3258
  421MOL0     H56819   1.592   4.819   5.169 -0.0473 -0.3029 -0.4850
  421MOL0     H56820   1.672   4.679   5.330  0.2799 -1.1718  0.7133
  421MOL0     H56821   1.278   4.598   5.580 -2.8670 -0.7169  1.5104
  421MOL0     H56822   1.084   4.501   5.454 -1.3386 -1.5440  1.1498
  421MOL0     H56823   0.935   4.386   5.316  0.8692 -0.0811  0.3807
  421MOL0     H56824   0.940   4.237   5.421 -2.1956 -0.7179  0.0007
  421MOL0     H56825   0.945   4.108   5.204 -1.4485 -0.8765 -1.8362
  421MOL0     H56826   0.882   4.256   5.123 -2.3333  1.1355  0.1553
  421MOL0     H56827   0.726   4.274   5.328  2.6738 -1.3935  4.0492
  421MOL0     H56828   0.762   4.098   5.360  1.6434  0.3613 -0.0709
  421MOL0     H56829   0.559   4.095   5.232  0.9100 -0.7006  1.0964
  421MOL0     H56830   0.622   4.195   5.107  3.7153  0.8910  0.9784
  421MOL0     H56831   0.809   3.809   5.032 -1.6022  0.6797 -4.3815
  421MOL0     H56832   1.348   4.213   5.269 -0.6282 -2.0972  0.7376
  421MOL0     H56833   1.575   4.241   5.292  0.4163  2.0335 -0.4709
  421MOL0     H56834   1.645   4.359   5.406  0.0483  1.9818  0.1680
  421MOL0     H56835   1.596   4.194   5.465  3.2203  0.3532 -1.6164
  422MOL0     O56836   9.785  10.352   0.035 -0.3298 -0.7755  0.3768
  422MOL0     C56837   9.760  10.468   0.019  0.0800 -0.7826 -0.3433
  422MOL0     O56838   9.641  10.530   0.065 -0.3812  0.4447 -0.5340
  422MOL0     C56839   9.542  10.460   0.135  0.5563  0.3020  0.9684
  422MOL0     C56840   9.461  10.530   0.216  0.5143 -0.5174 -0.4552
  422MOL0     C56841   9.343  10.475   0.274  0.6224 -0.3627 -0.0184
  422MOL0     C56842   9.318  10.337   0.252 -0.6026 -0.5497  0.2156
  422MOL0     O56843   9.212  10.284   0.312 -0.2434 -0.1402  0.3203
  422MOL0     C56844   9.226  10.162   0.385 -0.0192  0.2006  0.2216
  422MOL0     C56845   9.096  10.155   0.449  0.4641 -0.9088 -0.0799
  422MOL0     C56846   9.085  10.058   0.576 -0.3076 -0.9188 -0.2589
  422MOL0     C56847   9.104   9.916   0.536  0.3758 -0.3641  1.7510
  422MOL0     C56848   9.202   9.831   0.618 -0.0190  0.9386  0.1364
  422MOL0     C56849   9.224   9.679   0.578 -0.2035  0.1726  0.4590
  422MOL0     C56850   9.097   9.603   0.560 -0.6939  0.2024 -0.5051
  422MOL0     C56851   9.121   9.485   0.472 -0.7576  0.3523  0.0373
  422MOL0     N56852   9.198   9.377   0.538 -0.9363 -0.3948 -0.3483
  422MOL0     C56853   9.142   9.299   0.634  0.1282 -0.6111 -0.9128
  422MOL0     C56854   9.237   9.201   0.659  0.0737  0.1374 -0.2313
  422MOL0     C56855   9.235   9.090   0.764  1.5097 -0.1571 -0.4052
  422MOL0     C56856   9.239   9.148   0.908 -0.3831  0.6172 -0.2141
  422MOL0     C56857   9.137   9.102   1.012  0.2927 -0.5476  0.5668
  422MOL0     C56858   8.988   9.117   0.962 -0.0808  0.4337 -0.3005
  422MOL0     O56859   8.912   9.189   1.062  0.7492  0.3010 -0.7257
  422MOL0     C56860   8.774   9.200   1.045  0.0474 -0.2962  0.5427
  422MOL0     C56861   8.696   9.280   1.126 -1.0680  0.2524  0.3196
  422MOL0     C56862   8.564   9.295   1.117 -1.1900 -0.7389  0.3357
  422MOL0     C56863   8.489   9.213   1.035 -0.4784 -0.2595 -0.3746
  422MOL0     C56864   8.344   9.238   1.021  0.2397 -0.6591 -0.1330
  422MOL0     O56865   8.280   9.206   0.900 -0.0153 -0.2272  0.2882
  422MOL0     C56866   8.142   9.217   0.909 -0.1100 -0.1203 -0.5627
  422MOL0     C56867   8.075   9.344   0.892 -0.7559 -0.6024 -1.4176
  422MOL0     C56868   7.934   9.340   0.883  0.3059  0.9199  0.3010
  422MOL0     C56869   7.864   9.219   0.912 -0.9010  0.2072 -0.0509
  422MOL0     O56870   7.736   9.209   0.877 -0.2643 -1.0398 -0.1091
  422MOL0     C56871   7.676   9.081   0.860 -0.4962  0.1524 -0.4181
  422MOL0     C56872   7.535   9.111   0.803  0.5489 -0.0226  0.7705
  422MOL0     C56873   7.545   9.167   0.655 -0.4206 -0.2610  0.1752
  422MOL0     C56874   7.406   9.191   0.592 -0.0040  0.3036  0.2147
  422MOL0     C56875   7.336   9.326   0.632 -0.9347  0.1932 -0.6129
  422MOL0     C56876   7.198   9.330   0.551 -0.2229 -0.4119  0.6569
  422MOL0     C56877   7.108   9.453   0.571 -0.1474  0.3581 -0.1253
  422MOL0     C56878   7.015   9.461   0.450 -0.3036 -1.2226  0.1896
  422MOL0    Cl56879   6.868   9.549   0.484 -0.3814 -0.6052  0.5316
  422MOL0     C56880   7.939   9.099   0.947  0.4542 -0.5583 -0.8436
  422MOL0     C56881   8.075   9.100   0.938 -0.5142 -0.6223  0.0343
  422MOL0     O56882   8.283   9.275   1.122  0.0980 -0.4152 -0.5840
  422MOL0     C56883   8.553   9.122   0.953  0.2170  0.3709 -0.3852
  422MOL0     C56884   8.700   9.119   0.948  0.1773 -0.2722  0.3716
  422MOL0     N56885   9.335   9.205   0.563 -0.1289  0.3044 -0.0122
  422MOL0     N56886   9.306   9.308   0.489  0.5110  1.4842 -0.5866
  422MOL0     C56887   9.402  10.269   0.167  0.2925  0.1681  1.1574
  422MOL0     C56888   9.509  10.328   0.103  0.4466  0.3114 -0.6798
  422MOL0     C56889   9.836  10.561  -0.075 -0.9982 -0.5130 -0.7248
  422MOL0     C56890   9.817  10.701  -0.063  0.1850 -0.6250  0.2598
  422MOL0     C56891   9.901  10.791  -0.129 -0.3834  1.0288  0.3977
  422MOL0     C56892   9.991  10.746  -0.225  0.1428 -0.3837  0.2350
  422MOL0     O56893  10.079  10.828  -0.296  0.1735 -0.3987  0.3681
  422MOL0     C56894  10.031  10.953  -0.358 -0.6425  0.1322  0.1156
  422MOL0     C56895  10.024  10.953  -0.508  0.2025  0.1603 -0.4686
  422MOL0     C56896  10.132  10.894  -0.583 -0.6082 -0.0842 -0.7957
  422MOL0     C56897  10.130  10.914  -0.736 -0.0261 -0.5046 -0.3214
  422MOL0     C56898  10.241  10.848  -0.800 -0.7729  1.1816 -0.0838
  422MOL0     C56899  10.334  10.804  -0.865  0.3480  0.2237 -0.3116
  422MOL0     C56900  10.011  10.607  -0.239 -0.0403  0.9873  0.4584
  422MOL0     C56901   9.942  10.513  -0.160  0.1811 -0.4109  0.4091
  422MOL0     C56902   9.974  10.371  -0.190  0.1668 -0.1962 -0.1184
  422MOL0     H56903   9.487  10.634   0.232  1.1025 -0.8916  1.2454
  422MOL0     H56904   9.277  10.538   0.333  2.5952  0.8384  1.0271
  422MOL0     H56905   9.253  10.078   0.321 -0.1374 -0.0842  0.5444
  422MOL0     H56906   9.307  10.171   0.459  2.0328 -2.2200 -1.5465
  422MOL0     H56907   9.022  10.128   0.374 -0.5351  0.1479  0.5058
  422MOL0     H56908   9.068  10.253   0.488  0.1475 -0.7122 -0.8026
  422MOL0     H56909   8.995  10.081   0.633 -0.2179  0.9264 -0.8038
  422MOL0     H56910   9.161  10.085   0.650 -0.3873 -0.1517 -0.4515
  422MOL0     H56911   9.014   9.859   0.562 -0.6583 -0.4500 -1.4946
  422MOL0     H56912   9.124   9.899   0.430  0.2949 -0.0592  1.6853
  422MOL0     H56913   9.298   9.882   0.618 -1.2643  3.4845  0.5305
  422MOL0     H56914   9.170   9.817   0.722  2.2947  0.0875  0.7926
  422MOL0     H56915   9.286   9.673   0.488  1.1142 -0.8567  1.3902
  422MOL0     H56916   9.297   9.627   0.641  2.6688 -2.1561 -4.2142
  422MOL0     H56917   9.023   9.666   0.510 -0.4127  0.9814  0.0374
  422MOL0     H56918   9.054   9.563   0.652  0.3848  1.0593  0.4146
  422MOL0     H56919   9.025   9.438   0.450 -1.0239 -1.9778  4.8973
  422MOL0     H56920   9.170   9.521   0.381 -2.4944  0.1921 -0.9955
  422MOL0     H56921   9.058   9.322   0.699  0.4533  1.4561 -1.1589
  422MOL0     H56922   9.142   9.035   0.750  0.4219  2.1856 -3.2697
  422MOL0     H56923   9.317   9.019   0.748  4.2707  1.9167  2.8416
  422MOL0     H56924   9.338   9.119   0.944 -0.5408 -0.4911 -0.6201
  422MOL0     H56925   9.230   9.257   0.899 -1.0528  0.4760 -1.5667
  422MOL0     H56926   9.157   9.169   1.096 -2.9754  0.1433  0.9207
  422MOL0     H56927   9.159   8.997   1.031  1.4764 -0.4322 -0.0612
  422MOL0     H56928   8.939   9.019   0.963 -1.7079  1.2359  0.1146
  422MOL0     H56929   8.978   9.159   0.862 -2.6181 -0.5240 -0.5172
  422MOL0     H56930   8.746   9.344   1.198  0.4795  0.7981 -1.1738
  422MOL0     H56931   8.509   9.365   1.179 -3.6986 -2.4307  0.2037
  422MOL0     H56932   8.130   9.436   0.874 -3.3447  1.1423 -0.9000
  422MOL0     H56933   7.876   9.427   0.854  0.0184  0.0294 -1.9853
  422MOL0     H56934   7.736   9.024   0.789  0.7377  3.5859 -2.3784
  422MOL0     H56935   7.655   9.033   0.956 -0.6165  0.0995 -0.4696
  422MOL0     H56936   7.475   9.021   0.818 -2.2243  1.4067 -0.8777
  422MOL0     H56937   7.484   9.187   0.863 -0.6899  0.8262 -1.2495
  422MOL0     H56938   7.602   9.260   0.645 -3.6971  2.0600  1.0225
  422MOL0     H56939   7.599   9.084   0.610  1.1502  0.3278  0.9211
  422MOL0     H56940   7.342   9.104   0.610  0.9944  0.0895  3.1749
  422MOL0     H56941   7.426   9.190   0.484  3.7937 -0.4566  0.7896
  422MOL0     H56942   7.410   9.406   0.619  1.4536 -0.6280  5.1074
  422MOL0     H56943   7.309   9.343   0.736 -0.1448  3.5844 -0.8323
  422MOL0     H56944   7.222   9.319   0.445 -2.6463 -0.0960  0.0129
  422MOL0     H56945   7.135   9.243   0.571 -2.3535  0.5596 -1.4784
  422MOL0     H56946   7.164   9.546   0.581  2.9905 -1.5266  1.4574
  422MOL0     H56947   7.047   9.449   0.661 -1.1685  3.0763 -0.6195
  422MOL0     H56948   7.061   9.524   0.373 -3.1084  1.8215  0.7872
  422MOL0     H56949   6.986   9.362   0.415  0.5692 -2.7178  3.3496
  422MOL0     H56950   7.898   9.000   0.961  0.3654 -0.3390  0.6025
  422MOL0     H56951   8.137   9.011   0.946  0.0087 -0.1950  0.9417
  422MOL0     H56952   8.501   9.048   0.892  0.3944 -0.0482 -0.0369
  422MOL0     H56953   8.745   9.055   0.874 -0.7482 -0.4079 -0.0903
  422MOL0     H56954   9.386  10.162   0.159  0.8555  0.1685 -0.2599
  422MOL0     H56955   9.563  10.259   0.040 -1.6734 -1.5087 -0.6386
  422MOL0     H56956   9.747  10.743   0.008 -1.1700 -1.6427 -0.4333
  422MOL0     H56957   9.900  10.898  -0.110  2.7150  1.3276 -0.5700
  422MOL0     H56958  10.084  11.044  -0.331  1.6344 -0.4935 -1.7935
  422MOL0     H56959   9.926  10.969  -0.333 -0.5926  2.6751 -1.0287
  422MOL0     H56960  10.002  11.057  -0.535 -1.5638 -0.5163 -1.8431
  422MOL0     H56961   9.938  10.888  -0.526  1.6063 -2.3442  1.2775
  422MOL0     H56962  10.140  10.787  -0.565 -0.2081 -0.0095 -0.5103
  422MOL0     H56963  10.227  10.932  -0.543 -0.1437  0.5660 -2.4081
  422MOL0     H56964  10.033  10.887  -0.778 -1.7544 -0.8745  3.4616
  422MOL0     H56965  10.132  11.019  -0.764  2.3489 -0.0709  1.2133
  422MOL0     H56966  10.415  10.792  -0.934  1.4232 -0.7666  1.0676
  422MOL0     H56967  10.085  10.565  -0.306 -3.0655 -3.1110 -0.7173
  422MOL0     H56968   9.963  10.317  -0.095 -2.3392  0.9057  0.3021
  422MOL0     H56969   9.900  10.337  -0.264  2.3088 -1.6847 -1.6943
  422MOL0     H56970  10.076  10.353  -0.224  0.2069 -2.0787  0.8436
  423MOL0     O56971   7.925   9.902   2.651  0.6883  0.2117 -0.2592
  423MOL0     C56972   7.927   9.961   2.548  0.1519  0.5521 -0.0685
  423MOL0     O56973   7.821  10.018   2.485 -0.3276  1.3384 -0.2837
  423MOL0     C56974   7.700   9.956   2.499 -0.2440 -0.2037  0.5180
  423MOL0     C56975   7.678   9.822   2.506  0.0944  0.0412 -1.0420
  423MOL0     C56976   7.553   9.769   2.550  0.4893 -0.7523  0.5567
  423MOL0     C56977   7.443   9.855   2.563 -0.3032  0.5431 -0.0862
  423MOL0     O56978   7.309   9.803   2.583 -0.9246 -0.3747 -0.6480
  423MOL0     C56979   7.280   9.665   2.603  0.7867  0.2130  0.3980
  423MOL0     C56980   7.131   9.643   2.594 -0.1303  0.4595  0.6492
  423MOL0     C56981   7.081   9.504   2.622  0.0692  0.3935 -0.5868
  423MOL0     C56982   7.144   9.398   2.523 -0.3780 -0.3518  0.1539
  423MOL0     C56983   7.097   9.262   2.537  0.1811  0.4364 -0.5504
  423MOL0     C56984   7.186   9.161   2.463  0.4166 -0.1892  1.1006
  423MOL0     C56985   7.138   9.018   2.473 -0.5211 -0.0890 -0.5274
  423MOL0     C56986   7.157   8.961   2.613  0.3924 -0.2905 -0.2824
  423MOL0     N56987   7.127   8.813   2.591 -0.2470 -0.1245 -0.5728
  423MOL0     C56988   7.221   8.734   2.531 -0.1193  0.6579 -0.4021
  423MOL0     C56989   7.160   8.613   2.518  1.6591  0.8296 -0.7634
  423MOL0     C56990   7.209   8.486   2.459  0.9297 -0.1064  0.0050
  423MOL0     C56991   7.334   8.493   2.370  0.1028 -0.0377  0.2831
  423MOL0     C56992   7.340   8.353   2.298 -0.1850 -0.9578 -0.0811
  423MOL0     C56993   7.350   8.227   2.378 -0.9929  0.2925 -0.0750
  423MOL0     O56994   7.361   8.120   2.278 -0.4767 -0.0246 -1.2219
  423MOL0     C56995   7.295   8.004   2.298  0.6699 -0.0582  0.1254
  423MOL0     C56996   7.176   7.991   2.375  0.5512 -0.0256  0.1001
  423MOL0     C56997   7.120   7.862   2.384 -1.0974  0.1699 -0.9565
  423MOL0     C56998   7.186   7.744   2.335  0.7363 -0.5907  0.5526
  423MOL0     C56999   7.133   7.606   2.349  0.3912  0.0658  1.1981
  423MOL0     O57000   7.003   7.590   2.381  0.3579  0.1605  0.0027
  423MOL0     C57001   6.949   7.469   2.395 -0.3404  0.5084 -0.8311
  423MOL0     C57002   6.994   7.364   2.477  0.7058  0.5272  0.3609
  423MOL0     C57003   6.917   7.244   2.501 -0.0473 -0.0758 -0.3456
  423MOL0     C57004   6.788   7.227   2.450  0.7707 -0.7716  0.2169
  423MOL0     O57005   6.700   7.119   2.465 -0.4333  0.4103 -0.8257
  423MOL0     C57006   6.771   6.996   2.441  0.7272 -0.8914 -0.2312
  423MOL0     C57007   6.657   6.899   2.464 -0.1112  0.2607 -0.4528
  423MOL0     C57008   6.699   6.755   2.465 -0.0083 -0.1531  0.6520
  423MOL0     C57009   6.719   6.696   2.611  0.4748  0.5999  0.2784
  423MOL0     C57010   6.824   6.583   2.632  0.5509  0.1144  0.0624
  423MOL0     C57011   6.817   6.516   2.765  0.2905 -0.7430  0.7726
  423MOL0     C57012   6.942   6.426   2.792  0.3214  0.3438  0.6660
  423MOL0     C57013   6.936   6.352   2.920 -0.2332  0.2184 -0.5325
  423MOL0    Cl57014   6.822   6.217   2.914  0.1813 -0.1358  0.0885
  423MOL0     C57015   6.741   7.341   2.380 -0.1071  1.0335  0.4776
  423MOL0     C57016   6.820   7.452   2.345  1.2598 -0.2795  0.0713
  423MOL0     O57017   7.214   7.512   2.325 -0.9639  0.6885 -0.2283
  423MOL0     C57018   7.302   7.762   2.257  0.5109  0.0410 -0.1809
  423MOL0     C57019   7.351   7.894   2.235 -0.5136 -0.6300 -0.3038
  423MOL0     N57020   7.032   8.622   2.577 -0.5658  0.6555  0.0368
  423MOL0     N57021   7.020   8.741   2.615 -0.3194 -0.2470  0.0438
  423MOL0     C57022   7.456   9.986   2.530  0.0629  0.3794 -0.3604
  423MOL0     C57023   7.580  10.035   2.488 -0.3375 -0.6061  0.6230
  423MOL0     C57024   8.060   9.996   2.481 -0.1546  0.4484 -1.6590
  423MOL0     C57025   8.053  10.083   2.373  0.1689  0.7213  0.0376
  423MOL0     C57026   8.164  10.122   2.293 -0.0267 -0.3965  0.4584
  423MOL0     C57027   8.288  10.087   2.332  0.7199 -0.6894 -0.1270
  423MOL0     O57028   8.399  10.134   2.263 -0.8509 -0.0656 -0.1164
  423MOL0     C57029   8.504  10.186   2.345 -1.2802 -1.0494 -0.1286
  423MOL0     C57030   8.493  10.329   2.358 -0.7349  0.1750 -0.1761
  423MOL0     C57031   8.445  10.405   2.235 -0.2818  0.3215  0.6382
  423MOL0     C57032   8.532  10.439   2.120  0.1017 -0.9520 -0.2040
  423MOL0     C57033   8.661  10.501   2.169 -0.1067  1.2416 -0.0399
  423MOL0     C57034   8.775  10.533   2.209  0.0542 -0.2939  0.9261
  423MOL0     C57035   8.299  10.009   2.455  0.2368 -0.0296  0.6774
  423MOL0     C57036   8.186   9.956   2.521  0.1726  0.1064 -0.4261
  423MOL0     C57037   8.211   9.859   2.636 -0.0383  1.0649  0.5009
  423MOL0     H57038   7.764   9.759   2.482  2.0014  1.6591  1.1126
  423MOL0     H57039   7.535   9.663   2.564 -0.1056 -0.8540 -0.8602
  423MOL0     H57040   7.316   9.606   2.519 -0.0493  2.9525 -2.0516
  423MOL0     H57041   7.313   9.633   2.703 -0.2950 -0.8536  0.4264
  423MOL0     H57042   7.104   9.660   2.490  1.7407  2.8870  0.4839
  423MOL0     H57043   7.079   9.728   2.640 -1.3859  1.5498 -2.5607
  423MOL0     H57044   6.972   9.501   2.620 -0.1453  0.2422  3.6393
  423MOL0     H57045   7.111   9.469   2.721 -0.5437 -0.7334 -0.7837
  423MOL0     H57046   7.127   9.420   2.417 -1.9822 -2.3366 -0.0700
  423MOL0     H57047   7.252   9.392   2.537 -0.5103 -1.3372  0.8105
  423MOL0     H57048   7.105   9.238   2.644  3.2537 -0.4847 -0.9018
  423MOL0     H57049   6.995   9.252   2.500  0.2636  0.5928 -0.8212
  423MOL0     H57050   7.174   9.183   2.356 -2.3342  2.4724  1.8405
  423MOL0     H57051   7.292   9.168   2.487  0.7250 -1.9749  0.4878
  423MOL0     H57052   7.212   8.967   2.410  1.7159 -0.5453  2.2794
  423MOL0     H57053   7.038   9.005   2.430 -2.7520  1.4167  3.6173
  423MOL0     H57054   7.261   8.977   2.641  0.2009 -1.1814  1.0351
  423MOL0     H57055   7.099   9.009   2.692  1.1475 -0.6921  0.5265
  423MOL0     H57056   7.321   8.759   2.496 -0.6045  0.5476 -1.9784
  423MOL0     H57057   7.235   8.410   2.533  3.3789 -0.8245 -1.4502
  423MOL0     H57058   7.135   8.443   2.390 -0.5809  0.5544  1.1817
  423MOL0     H57059   7.336   8.579   2.302  4.3366 -1.7688 -2.1634
  423MOL0     H57060   7.419   8.522   2.433 -0.3768  3.1304 -0.3828
  423MOL0     H57061   7.417   8.363   2.222  1.2032  1.9931  1.5499
  423MOL0     H57062   7.251   8.350   2.233  2.3754  0.0739 -3.9968
  423MOL0     H57063   7.269   8.219   2.451  2.2194 -1.3875  3.7027
  423MOL0     H57064   7.442   8.236   2.438  1.2733  0.1706 -3.2682
  423MOL0     H57065   7.122   8.076   2.417  2.7783  2.2359 -1.3423
  423MOL0     H57066   7.033   7.849   2.446 -0.2403  4.0726  1.4409
  423MOL0     H57067   7.093   7.370   2.521 -0.0574  2.9955  1.9330
  423MOL0     H57068   6.966   7.167   2.560  0.6507 -0.8857 -1.9041
  423MOL0     H57069   6.809   6.985   2.339  1.1370 -4.2304  0.1583
  423MOL0     H57070   6.846   6.976   2.519  1.9107 -1.5390 -1.4905
  423MOL0     H57071   6.610   6.932   2.557  1.1043 -0.6440  0.5179
  423MOL0     H57072   6.585   6.910   2.382 -1.6526  1.3007  0.9769
  423MOL0     H57073   6.631   6.690   2.409  1.2297  0.7073 -2.0276
  423MOL0     H57074   6.790   6.750   2.404 -2.0364  0.1078 -2.6840
  423MOL0     H57075   6.629   6.658   2.661  1.7126  2.0948  4.0251
  423MOL0     H57076   6.749   6.785   2.667 -1.7535  1.9057 -0.4575
  423MOL0     H57077   6.920   6.632   2.617  0.6578 -0.6224 -1.8898
  423MOL0     H57078   6.811   6.506   2.555  1.7866  3.6321 -4.0643
  423MOL0     H57079   6.829   6.598   2.836 -0.0760  1.9840 -2.0839
  423MOL0     H57080   6.722   6.464   2.774 -0.7366  0.8162 -0.3861
  423MOL0     H57081   7.028   6.493   2.791  0.6478 -0.0626  1.3072
  423MOL0     H57082   6.966   6.359   2.709  3.5857  1.3543  0.6616
  423MOL0     H57083   7.041   6.327   2.940 -0.8633 -3.6317 -1.2580
  423MOL0     H57084   6.905   6.408   3.009  1.6555 -1.3934  1.2579
  423MOL0     H57085   6.638   7.344   2.346 -0.6451  2.9560  2.0401
  423MOL0     H57086   6.776   7.527   2.280  4.0993 -0.2651 -2.0705
  423MOL0     H57087   7.355   7.679   2.210  0.6512 -1.6408  2.7384
  423MOL0     H57088   7.432   7.893   2.163 -1.0634 -0.2287 -0.9415
  423MOL0     H57089   7.367  10.048   2.535 -0.2460 -0.1469  1.3332
  423MOL0     H57090   7.580  10.142   2.467  0.7959 -0.3193  1.9243
  423MOL0     H57091   7.962  10.130   2.339 -0.2595 -0.0043  0.1648
  423MOL0     H57092   8.153  10.192   2.211  0.5063 -0.6115  0.2025
  423MOL0     H57093   8.595  10.161   2.291  0.6899  0.5304  2.2049
  423MOL0     H57094   8.504  10.150   2.449 -1.4030 -1.1227 -0.1536
  423MOL0     H57095   8.595  10.355   2.387 -0.6778 -0.5306  0.2720
  423MOL0     H57096   8.420  10.348   2.437  0.2160  1.8331  0.3528
  423MOL0     H57097   8.402  10.501   2.264 -0.8625  0.3988 -0.4458
  423MOL0     H57098   8.358  10.349   2.198  0.3065 -1.2868  1.5778
  423MOL0     H57099   8.563  10.344   2.077  0.7031 -1.0263  0.3764
  423MOL0     H57100   8.486  10.507   2.048 -0.0802 -2.0986 -1.2071
  423MOL0     H57101   8.871  10.567   2.242 -0.7008  1.4460  1.4601
  423MOL0     H57102   8.394   9.972   2.493 -1.7170 -3.7073  2.6194
  423MOL0     H57103   8.158   9.768   2.608  2.7330  0.1078 -2.1273
  423MOL0     H57104   8.318   9.838   2.647  0.7168  2.4004 -3.0527
  423MOL0     H57105   8.170   9.903   2.728  0.8803 -0.8897  1.9211
  424MOL0     O57106   7.315   2.532   5.560 -0.7523 -0.0587 -0.5835
  424MOL0     C57107   7.261   2.420   5.537 -0.3449  0.6544  0.0381
  424MOL0     O57108   7.251   2.362   5.414  0.0240  0.0534 -0.1073
  424MOL0     C57109   7.308   2.404   5.306 -0.0938 -0.7358  0.2157
  424MOL0     C57110   7.357   2.525   5.273 -0.6465 -0.4503 -0.2047
  424MOL0     C57111   7.405   2.568   5.146  0.6231 -0.1058  0.2313
  424MOL0     C57112   7.418   2.470   5.048 -0.3770  0.4470  0.2586
  424MOL0     O57113   7.464   2.510   4.924  0.2051 -0.1763 -0.5075
  424MOL0     C57114   7.509   2.410   4.833 -0.1270 -0.7818 -0.0524
  424MOL0     C57115   7.569   2.487   4.715 -0.1053  0.7397  1.1174
  424MOL0     C57116   7.493   2.606   4.656 -0.3376  0.8895 -0.1663
  424MOL0     C57117   7.524   2.615   4.508  0.2648  0.3724  0.1101
  424MOL0     C57118   7.502   2.747   4.430  0.8953  0.2898 -0.3282
  424MOL0     C57119   7.351   2.770   4.425 -0.1858  0.5262  0.0699
  424MOL0     C57120   7.320   2.908   4.379  0.0705  0.9608  0.4963
  424MOL0     C57121   7.178   2.909   4.326 -0.0589  0.0366  0.3215
  424MOL0     N57122   7.154   3.030   4.253 -0.6086  0.1495 -0.1874
  424MOL0     C57123   7.039   3.104   4.267  0.1893 -0.6700  0.7089
  424MOL0     C57124   7.047   3.184   4.164  0.6629  0.3153  0.4368
  424MOL0     C57125   6.926   3.276   4.131 -0.5736  0.5632  0.4555
  424MOL0     C57126   6.919   3.398   4.230 -0.7001  0.1339  1.1501
  424MOL0     C57127   7.040   3.496   4.230 -0.2693  0.3439  0.9682
  424MOL0     C57128   7.060   3.562   4.091  0.1280  0.2126 -0.2480
  424MOL0     O57129   6.967   3.667   4.066  0.5282 -0.6946 -0.1517
  424MOL0     C57130   6.990   3.786   4.130  0.4608 -1.2440  0.0862
  424MOL0     C57131   7.106   3.862   4.129 -0.1479  0.8109 -0.1707
  424MOL0     C57132   7.120   3.979   4.208 -0.1413  0.4698  0.2313
  424MOL0     C57133   7.009   4.026   4.273 -0.3121 -0.1156  0.6072
  424MOL0     C57134   7.000   4.139   4.362  0.2275  0.1865 -0.0769
  424MOL0     O57135   7.036   4.263   4.315  0.5413 -0.2365 -0.7575
  424MOL0     C57136   7.053   4.370   4.406 -0.0348 -0.7195  0.2182
  424MOL0     C57137   7.123   4.366   4.529  0.0068  0.4525  0.7869
  424MOL0     C57138   7.123   4.469   4.607 -1.4732 -0.2746 -0.8102
  424MOL0     C57139   7.046   4.589   4.582 -0.5646  0.4080  0.6449
  424MOL0     O57140   7.039   4.675   4.686  0.0763 -0.2258  0.1325
  424MOL0     C57141   6.992   4.806   4.652  0.1711  0.1359 -0.4197
  424MOL0     C57142   6.977   4.876   4.782 -0.1976  0.1876  0.1482
  424MOL0     C57143   6.937   5.023   4.760 -0.1206  0.2850 -0.7110
  424MOL0     C57144   7.051   5.095   4.691 -0.2698 -0.0696  0.2176
  424MOL0     C57145   7.048   5.255   4.686 -0.0621  0.2998 -0.8371
  424MOL0     C57146   7.095   5.307   4.818 -0.3369  0.0808  0.2739
  424MOL0     C57147   7.062   5.454   4.829 -0.2645 -0.2482  0.1940
  424MOL0     C57148   7.114   5.505   4.959  0.1393 -0.8604  0.3310
  424MOL0    Cl57149   7.022   5.665   4.996 -0.3063  0.0907 -0.1035
  424MOL0     C57150   6.976   4.593   4.460 -0.6325 -0.9945 -0.0162
  424MOL0     C57151   6.990   4.491   4.372  0.7136  0.0920 -0.3661
  424MOL0     O57152   6.963   4.117   4.476  0.5528  0.8972  0.3369
  424MOL0     C57153   6.893   3.960   4.262 -0.2971  0.4301  0.0629
  424MOL0     C57154   6.881   3.841   4.190 -0.3664 -0.1411 -0.5798
  424MOL0     N57155   7.162   3.166   4.093 -0.6979 -0.5895  1.1713
  424MOL0     N57156   7.219   3.070   4.139 -0.9285 -0.6560  0.6636
  424MOL0     C57157   7.364   2.341   5.079  0.6840  0.2764  0.3194
  424MOL0     C57158   7.309   2.312   5.205 -0.4109 -1.0026  0.2928
  424MOL0     C57159   7.206   2.350   5.654 -0.3375  0.0388  0.7127
  424MOL0     C57160   7.171   2.415   5.768  0.7690  0.0860  0.9726
  424MOL0     C57161   7.119   2.358   5.886  0.2194  0.1806  0.2304
  424MOL0     C57162   7.117   2.219   5.892  0.2119 -0.5619  0.2190
  424MOL0     O57163   7.080   2.152   6.015  0.8730 -0.5602 -0.0465
  424MOL0     C57164   7.119   2.014   6.045 -0.7277 -0.4832 -0.4392
  424MOL0     C57165   7.079   1.968   6.181  0.9250  0.5529 -0.2596
  424MOL0     C57166   7.114   2.060   6.281  0.4941 -1.2404 -0.5169
  424MOL0     C57167   7.255   2.116   6.277  0.3797 -0.5297 -0.4478
  424MOL0     C57168   7.340   2.002   6.269 -0.9820  0.2795 -0.1258
  424MOL0     C57169   7.422   1.913   6.254 -1.3192 -0.4221  0.3798
  424MOL0     C57170   7.161   2.141   5.780 -1.4475 -0.8844  0.1943
  424MOL0     C57171   7.207   2.205   5.659 -0.6727 -1.1418  0.1302
  424MOL0     C57172   7.235   2.109   5.541  0.1944 -0.0263  0.4046
  424MOL0     H57173   7.364   2.606   5.345 -1.2679 -1.4035  0.9466
  424MOL0     H57174   7.431   2.672   5.131 -2.2644  0.9464  1.6193
  424MOL0     H57175   7.583   2.354   4.890  0.1176 -0.1223  0.2743
  424MOL0     H57176   7.430   2.343   4.795  0.9049 -0.5533 -2.8178
  424MOL0     H57177   7.586   2.406   4.644  3.0597  0.4579  2.0027
  424MOL0     H57178   7.665   2.533   4.743 -0.7459  1.9349  1.4182
  424MOL0     H57179   7.502   2.703   4.704 -2.5758 -0.0258  2.3509
  424MOL0     H57180   7.386   2.587   4.669  0.2799 -2.3470  1.3285
  424MOL0     H57181   7.629   2.593   4.486  0.3041 -0.2003  0.8519
  424MOL0     H57182   7.466   2.531   4.469 -1.4830  0.3593  2.5416
  424MOL0     H57183   7.546   2.830   4.486 -1.5512  0.7805  1.0121
  424MOL0     H57184   7.535   2.744   4.326 -0.9599  0.4627 -0.9506
  424MOL0     H57185   7.323   2.689   4.358  1.7934  0.5537 -0.8781
  424MOL0     H57186   7.305   2.756   4.523  1.6155  0.2186  0.9239
  424MOL0     H57187   7.382   2.939   4.294 -0.9120 -0.0324 -0.6205
  424MOL0     H57188   7.325   2.981   4.461  3.8453  0.8216  0.5463
  424MOL0     H57189   7.158   2.823   4.262  1.8125 -0.2088 -0.0096
  424MOL0     H57190   7.108   2.909   4.410 -1.3032  4.2667 -0.5031
  424MOL0     H57191   6.957   3.089   4.336  2.0008 -2.9726  2.5629
  424MOL0     H57192   6.933   3.308   4.026 -1.0463  1.0151  0.5566
  424MOL0     H57193   6.835   3.216   4.135 -2.0799  2.7573  1.0290
  424MOL0     H57194   6.828   3.452   4.203  0.9024  2.4595  0.0881
  424MOL0     H57195   6.917   3.365   4.335 -0.1902 -0.4475  0.9784
  424MOL0     H57196   7.134   3.442   4.244  0.4948 -0.0984 -4.0881
  424MOL0     H57197   7.041   3.566   4.314  0.1616  2.9282 -1.0646
  424MOL0     H57198   7.047   3.493   4.008 -0.9735 -1.6073  1.3461
  424MOL0     H57199   7.155   3.616   4.077 -1.8658  3.4674 -2.6148
  424MOL0     H57200   7.191   3.822   4.074  0.2778  1.0433  0.3056
  424MOL0     H57201   7.222   4.016   4.221  0.3813 -1.3483  1.7772
  424MOL0     H57202   7.181   4.276   4.550  0.0224  0.5766  1.2901
  424MOL0     H57203   7.177   4.459   4.700 -0.6588  0.7912 -1.1508
  424MOL0     H57204   7.060   4.858   4.584  1.6561 -0.5370  0.4987
  424MOL0     H57205   6.890   4.795   4.612  0.3721 -2.4557 -0.3557
  424MOL0     H57206   6.901   4.831   4.846 -1.4001  2.0221  0.1011
  424MOL0     H57207   7.071   4.857   4.834 -0.4051 -3.8774 -0.6475
  424MOL0     H57208   6.848   5.025   4.696  0.6388  0.5874 -1.7799
  424MOL0     H57209   6.928   5.062   4.862 -2.1428  0.6085 -0.9673
  424MOL0     H57210   7.044   5.072   4.584  0.4840 -1.8940  0.5177
  424MOL0     H57211   7.144   5.059   4.735 -0.4691 -0.4986  0.2937
  424MOL0     H57212   6.946   5.292   4.676  0.1248  1.5615  1.3188
  424MOL0     H57213   7.115   5.291   4.608  1.1345  0.5217  0.2565
  424MOL0     H57214   7.048   5.258   4.904  1.7083 -1.3170  0.6904
  424MOL0     H57215   7.203   5.287   4.815 -0.5664 -1.1100 -0.7271
  424MOL0     H57216   6.954   5.470   4.832 -0.0320  1.4464  1.2006
  424MOL0     H57217   7.108   5.508   4.745  0.3031 -2.5346 -1.0370
  424MOL0     H57218   7.094   5.433   5.039 -2.7239  0.4781  0.9380
  424MOL0     H57219   7.223   5.512   4.961  0.4229 -3.4674 -0.7592
  424MOL0     H57220   6.912   4.675   4.427  0.2312 -0.7477 -1.1337
  424MOL0     H57221   6.926   4.492   4.285 -1.4061 -0.5374  1.0922
  424MOL0     H57222   6.807   4.015   4.299  0.8191  2.0696  0.3070
  424MOL0     H57223   6.788   3.797   4.154 -0.8437  2.2205 -2.5718
  424MOL0     H57224   7.360   2.259   5.007  0.7615  1.1930 -0.7511
  424MOL0     H57225   7.261   2.219   5.234  0.6498 -0.9947  2.2964
  424MOL0     H57226   7.177   2.523   5.772  0.7964  0.2607 -1.7478
  424MOL0     H57227   7.092   2.424   5.968  2.0569 -4.1587  4.7962
  424MOL0     H57228   7.227   1.997   6.033 -0.7810  0.4746 -2.7242
  424MOL0     H57229   7.074   1.946   5.972  1.4370 -0.2947 -2.0414
  424MOL0     H57230   7.132   1.874   6.204  0.6066  0.3844 -0.2109
  424MOL0     H57231   6.972   1.946   6.187  1.1659 -0.5157  0.5817
  424MOL0     H57232   7.076   2.020   6.375 -4.2848 -1.9461 -2.4725
  424MOL0     H57233   7.046   2.145   6.272 -1.8740 -2.9290  0.4234
  424MOL0     H57234   7.269   2.181   6.189  0.7464 -1.0563 -0.7838
  424MOL0     H57235   7.268   2.179   6.366 -1.4039  1.0423 -1.2271
  424MOL0     H57236   7.504   1.845   6.245  1.2897  2.5325 -0.1421
  424MOL0     H57237   7.176   2.034   5.791  1.6084 -0.4424  1.4590
  424MOL0     H57238   7.218   2.004   5.568 -0.3962 -0.2140 -0.6596
  424MOL0     H57239   7.170   2.136   5.457  1.0859 -2.1615 -1.0381
  424MOL0     H57240   7.340   2.121   5.515  0.2838  1.8744  1.4263
  425MOL0     O57241   6.183   7.063   9.167 -0.4940 -0.4013  0.2021
  425MOL0     C57242   6.203   6.953   9.214  0.2451  0.0684  0.7340
  425MOL0     O57243   6.254   6.842   9.142  0.1944 -1.0239  0.3401
  425MOL0     C57244   6.301   6.865   9.015  0.3300 -0.3848  0.3280
  425MOL0     C57245   6.394   6.966   8.985  0.2929  0.0071 -0.3129
  425MOL0     C57246   6.428   6.968   8.849 -0.6474  0.3659 -0.4749
  425MOL0     C57247   6.371   6.896   8.747  0.0497 -0.1902 -1.1697
  425MOL0     O57248   6.410   6.924   8.616  0.5172 -0.0352  0.1196
  425MOL0     C57249   6.314   6.909   8.508  0.2802 -0.3200  0.4648
  425MOL0     C57250   6.386   6.907   8.380 -0.0745 -0.2098 -0.0756
  425MOL0     C57251   6.302   6.870   8.261 -0.2202 -0.6134 -0.5682
  425MOL0     C57252   6.392   6.851   8.132 -0.3241  1.0556  0.1895
  425MOL0     C57253   6.319   6.779   8.017 -1.1452  0.5279 -0.3936
  425MOL0     C57254   6.421   6.776   7.901 -0.2487  0.0512 -0.9234
  425MOL0     C57255   6.391   6.682   7.783 -0.6596  0.7181  0.9481
  425MOL0     C57256   6.371   6.531   7.811 -0.7837 -0.0869  0.6436
  425MOL0     N57257   6.496   6.453   7.826 -0.3319 -0.4571  0.0373
  425MOL0     C57258   6.511   6.321   7.866 -0.1474  0.2633 -0.1066
  425MOL0     C57259   6.641   6.282   7.851  0.6924  0.3642 -1.0849
  425MOL0     C57260   6.705   6.154   7.896 -0.8887 -0.6246  0.4913
  425MOL0     C57261   6.770   6.088   7.775  1.0415 -0.7638 -0.1273
  425MOL0     C57262   6.809   5.944   7.816 -0.0946 -0.1071 -0.0132
  425MOL0     C57263   6.912   5.879   7.716  0.7596 -0.5125  0.6458
  425MOL0     O57264   6.856   5.868   7.579 -0.2810 -0.2935  0.1922
  425MOL0     C57265   6.928   5.780   7.502 -0.5228  0.5551 -0.6509
  425MOL0     C57266   7.054   5.820   7.445  0.3130 -1.1972  0.0172
  425MOL0     C57267   7.102   5.739   7.349  0.4895  0.6105  0.1383
  425MOL0     C57268   7.036   5.625   7.306  0.6406  1.1215 -0.4116
  425MOL0     C57269   7.105   5.540   7.200  0.4849 -0.2684 -0.3361
  425MOL0     O57270   7.239   5.568   7.166  0.1264  0.1140 -0.1763
  425MOL0     C57271   7.318   5.483   7.087 -0.1286  0.0252  0.3109
  425MOL0     C57272   7.455   5.510   7.065  0.1219  0.2425 -0.3775
  425MOL0     C57273   7.536   5.436   6.971 -0.6106  0.9467  1.6294
  425MOL0     C57274   7.488   5.327   6.910  0.1306 -0.9802 -1.0365
  425MOL0     O57275   7.565   5.256   6.827 -0.7710 -0.4931  0.3534
  425MOL0     C57276   7.561   5.115   6.848 -0.0096 -0.5301  0.9280
  425MOL0     C57277   7.683   5.069   6.768  0.3806 -0.2723  0.2295
  425MOL0     C57278   7.700   4.917   6.781  0.0024  1.6395 -0.0027
  425MOL0     C57279   7.823   4.874   6.699 -0.0350  0.5417 -0.1856
  425MOL0     C57280   7.819   4.731   6.656 -0.2965 -0.9786  0.0481
  425MOL0     C57281   7.944   4.681   6.577  0.2911  0.2868 -0.2941
  425MOL0     C57282   7.899   4.563   6.484  0.0379 -0.0230  0.7576
  425MOL0     C57283   8.005   4.548   6.368 -0.4637 -1.6652  0.7014
  425MOL0    Cl57284   7.988   4.682   6.249  0.3856 -0.3756  0.5445
  425MOL0     C57285   7.361   5.293   6.933 -0.7879 -0.4110  0.0514
  425MOL0     C57286   7.272   5.371   7.014 -0.8300  0.0916  1.7385
  425MOL0     O57287   7.040   5.442   7.164 -0.6148 -0.2524 -0.0298
  425MOL0     C57288   6.924   5.585   7.372 -0.1383 -0.1570  0.1905
  425MOL0     C57289   6.865   5.665   7.469  0.2135  0.0724 -0.2645
  425MOL0     N57290   6.706   6.390   7.805  0.9482 -0.3295 -0.2213
  425MOL0     N57291   6.620   6.491   7.783 -0.2973  0.6695  0.1873
  425MOL0     C57292   6.272   6.803   8.784 -0.3883 -0.0401 -0.0918
  425MOL0     C57293   6.239   6.785   8.919 -0.6878  0.1288 -0.3185
  425MOL0     C57294   6.214   6.935   9.364  0.7350  0.5493  0.1426
  425MOL0     C57295   6.197   6.808   9.409  1.7677 -0.7484 -0.0379
  425MOL0     C57296   6.197   6.781   9.550 -0.3793  0.1584  1.5482
  425MOL0     C57297   6.238   6.877   9.641  0.0121  0.6831  0.6663
  425MOL0     O57298   6.265   6.835   9.761  0.3025  0.3742 -0.2198
  425MOL0     C57299   6.315   6.919   9.871  0.5394  0.0815 -0.1158
  425MOL0     C57300   6.295   6.825  10.000  0.0870  0.1972 -0.0595
  425MOL0     C57301   6.156   6.839  10.067  0.3692 -1.1479  0.5125
  425MOL0     C57302   6.145   6.757  10.201  0.3110 -1.1221 -0.1281
  425MOL0     C57303   6.060   6.831  10.299  0.4090 -0.3734 -0.9295
  425MOL0     C57304   5.991   6.901  10.374  0.2449  0.0086  0.9743
  425MOL0     C57305   6.259   7.004   9.592  0.1170  0.2323  0.4566
  425MOL0     C57306   6.238   7.038   9.458  0.2091  0.2404  0.3825
  425MOL0     C57307   6.250   7.182   9.421 -0.8112 -0.3563 -0.1556
  425MOL0     H57308   6.432   7.032   9.062 -0.1151  1.0535 -0.9956
  425MOL0     H57309   6.513   7.032   8.825 -0.8006  1.1599  1.0027
  425MOL0     H57310   6.264   6.812   8.505 -1.9521  0.7158 -4.0447
  425MOL0     H57311   6.232   6.981   8.510 -0.7169 -1.4205  1.2694
  425MOL0     H57312   6.464   6.832   8.395  2.0080  2.3308  3.3997
  425MOL0     H57313   6.430   7.005   8.357 -1.0147 -0.4198 -3.1545
  425MOL0     H57314   6.217   6.934   8.238  1.8485  2.0947 -1.1435
  425MOL0     H57315   6.260   6.773   8.289  1.3144 -0.3270  3.4988
  425MOL0     H57316   6.406   6.948   8.084 -0.1876  0.5404 -0.8346
  425MOL0     H57317   6.492   6.810   8.152 -0.6195  0.5143  0.5897
  425MOL0     H57318   6.293   6.674   8.037 -1.4862  1.0880  2.6243
  425MOL0     H57319   6.230   6.835   7.990 -0.0800  2.7191  0.4056
  425MOL0     H57320   6.417   6.876   7.858 -0.1798  0.6856  0.5070
  425MOL0     H57321   6.525   6.759   7.932 -0.1307 -1.8751 -2.1586
  425MOL0     H57322   6.468   6.687   7.705  0.4259 -3.2894  1.5364
  425MOL0     H57323   6.292   6.712   7.747 -1.9129 -2.9297  0.9684
  425MOL0     H57324   6.310   6.507   7.899  0.6320 -3.3360  0.9037
  425MOL0     H57325   6.320   6.498   7.721 -1.4877  0.7581  0.7256
  425MOL0     H57326   6.434   6.254   7.903 -0.1980  1.3027  1.8111
  425MOL0     H57327   6.779   6.174   7.974 -0.0366  3.2111 -1.0593
  425MOL0     H57328   6.634   6.088   7.947 -1.1322 -0.8784 -0.1644
  425MOL0     H57329   6.695   6.084   7.695 -1.0399 -0.5916  1.7335
  425MOL0     H57330   6.859   6.145   7.746 -0.1643  1.7190  0.7451
  425MOL0     H57331   6.710   5.901   7.829  0.7541 -1.3800  3.2876
  425MOL0     H57332   6.857   5.944   7.914 -0.5755  3.2538  0.3617
  425MOL0     H57333   6.939   5.781   7.756 -2.5540 -1.0224  1.8766
  425MOL0     H57334   6.999   5.945   7.722 -0.2203  0.8931 -0.1741
  425MOL0     H57335   7.095   5.915   7.478  0.5568 -0.3161 -2.5693
  425MOL0     H57336   7.198   5.772   7.311 -0.3412  1.7056 -1.0980
  425MOL0     H57337   7.497   5.587   7.129 -0.6535 -1.5111  2.4347
  425MOL0     H57338   7.643   5.449   6.966 -0.4918  0.1244  1.9477
  425MOL0     H57339   7.556   5.090   6.954 -2.5630  0.5213  1.1252
  425MOL0     H57340   7.468   5.077   6.804 -0.3581 -0.8043  1.8823
  425MOL0     H57341   7.669   5.100   6.664  2.2803  0.7784  0.2311
  425MOL0     H57342   7.773   5.117   6.807 -1.3933  3.1927  0.3971
  425MOL0     H57343   7.705   4.886   6.886  1.1330  0.9715 -0.2298
  425MOL0     H57344   7.615   4.865   6.736  2.7433 -2.6815 -0.8368
  425MOL0     H57345   7.907   4.891   6.767 -1.0662  3.1390  0.5426
  425MOL0     H57346   7.831   4.941   6.614 -1.5920  0.3300 -0.5151
  425MOL0     H57347   7.728   4.713   6.598 -0.2641 -4.9227  0.9806
  425MOL0     H57348   7.813   4.666   6.743  1.3981  0.8629  1.6285
  425MOL0     H57349   7.974   4.761   6.509 -0.1447 -0.0626 -0.9054
  425MOL0     H57350   8.015   4.646   6.653 -1.3644 -0.5564  0.9474
  425MOL0     H57351   7.801   4.595   6.448  1.2036  2.4138 -0.4899
  425MOL0     H57352   7.897   4.472   6.545  0.5694  0.6355  1.7810
  425MOL0     H57353   8.098   4.548   6.425  0.3397 -0.6083 -0.5617
  425MOL0     H57354   7.979   4.449   6.328  3.4456 -1.0201 -4.5009
  425MOL0     H57355   7.316   5.204   6.889  0.3031  0.3839 -2.9229
  425MOL0     H57356   7.168   5.338   7.010 -0.3292 -1.4369 -0.7969
  425MOL0     H57357   6.863   5.503   7.335 -2.0624 -0.5917  3.8504
  425MOL0     H57358   6.763   5.652   7.503  1.0963 -0.1358  2.5670
  425MOL0     H57359   6.213   6.754   8.707 -2.5542 -0.2541  1.6251
  425MOL0     H57360   6.160   6.716   8.946  1.9705 -1.7200  3.6361
  425MOL0     H57361   6.176   6.725   9.343  0.6990  0.9825 -1.9909
  425MOL0     H57362   6.179   6.677   9.576 -3.6102  0.0165 -0.6118
  425MOL0     H57363   6.258   7.012   9.881  0.7541  0.0056  2.5232
  425MOL0     H57364   6.420   6.942   9.847  1.0156 -1.7122  0.1330
  425MOL0     H57365   6.367   6.853  10.078  3.1690  2.1433 -3.2678
  425MOL0     H57366   6.322   6.721   9.981 -0.0088  0.2450 -0.4750
  425MOL0     H57367   6.084   6.800   9.995  1.8735  0.8127 -2.2787
  425MOL0     H57368   6.136   6.946  10.082 -0.8391 -1.3132  0.1953
  425MOL0     H57369   6.096   6.660  10.195 -2.4110  0.0097  1.7716
  425MOL0     H57370   6.248   6.740  10.234  0.1779 -1.9854 -0.1319
  425MOL0     H57371   5.911   6.952  10.423 -1.6429 -0.4781 -1.4038
  425MOL0     H57372   6.309   7.072   9.660  2.8084 -1.9647  0.8356
  425MOL0     H57373   6.334   7.209   9.356 -0.7254 -1.8848 -0.7156
  425MOL0     H57374   6.165   7.224   9.366  1.3032  5.5101  0.3166
  425MOL0     H57375   6.272   7.231   9.516  3.0233 -4.1697  1.2408
  426MOL0     O57376   6.734   5.865   0.615  0.1113  0.7767  0.3151
  426MOL0     C57377   6.691   5.873   0.728 -0.4241  0.2087 -0.0775
  426MOL0     O57378   6.670   5.768   0.808  0.0257  0.1168 -0.5266
  426MOL0     C57379   6.709   5.641   0.770 -0.0562  0.2251 -0.6752
  426MOL0     C57380   6.630   5.535   0.802 -0.1556 -0.3557  0.1606
  426MOL0     C57381   6.658   5.403   0.759 -0.4017  0.7434 -0.1296
  426MOL0     C57382   6.781   5.369   0.692  0.0417  0.9112 -0.2550
  426MOL0     O57383   6.815   5.246   0.647  0.3767  0.5605  0.3430
  426MOL0     C57384   6.911   5.233   0.540 -0.0283 -0.4478 -0.2032
  426MOL0     C57385   6.936   5.094   0.499 -0.7476  0.1164 -0.4826
  426MOL0     C57386   7.012   5.023   0.611 -0.2682 -0.7286 -0.6054
  426MOL0     C57387   7.073   4.893   0.563  0.1719  0.3033  0.0018
  426MOL0     C57388   7.181   4.842   0.664 -0.3640 -1.0121 -0.8098
  426MOL0     C57389   7.311   4.918   0.670 -0.5499 -0.2825 -0.6044
  426MOL0     C57390   7.418   4.831   0.729 -0.3341  0.7763  0.5034
  426MOL0     C57391   7.543   4.918   0.757  0.9424 -0.0430 -0.5100
  426MOL0     N57392   7.565   4.940   0.903 -0.0556  0.2172  0.2246
  426MOL0     C57393   7.512   5.041   0.982  0.1487 -0.0234  0.2787
  426MOL0     C57394   7.570   5.010   1.111  0.3550  1.2802 -0.2759
  426MOL0     C57395   7.529   5.077   1.241  0.8515 -0.8181  0.0079
  426MOL0     C57396   7.395   5.036   1.300  0.2079  0.6757  0.3831
  426MOL0     C57397   7.351   5.137   1.407 -0.9744 -0.4026 -0.3728
  426MOL0     C57398   7.458   5.157   1.514 -0.7815 -1.0479  0.7234
  426MOL0     O57399   7.395   5.227   1.616 -0.2300  0.2761  0.1164
  426MOL0     C57400   7.466   5.290   1.717 -0.3937  0.0659  1.0173
  426MOL0     C57401   7.588   5.355   1.698 -0.5013 -0.4318 -0.1462
  426MOL0     C57402   7.649   5.420   1.814 -1.3185 -0.3685  0.2707
  426MOL0     C57403   7.586   5.405   1.937 -0.4173  1.4370  0.3253
  426MOL0     C57404   7.630   5.474   2.057 -0.5386 -0.0545  0.1839
  426MOL0     O57405   7.557   5.459   2.166  0.1669 -0.4187  0.2074
  426MOL0     C57406   7.603   5.496   2.287 -0.3319  0.2116 -0.8731
  426MOL0     C57407   7.492   5.513   2.374  0.0646 -0.3265 -0.5992
  426MOL0     C57408   7.515   5.540   2.512 -0.2073  0.3786  0.3323
  426MOL0     C57409   7.646   5.566   2.558 -0.0473 -0.3941 -0.1860
  426MOL0     O57410   7.687   5.595   2.691  0.2751 -0.8250  0.2429
  426MOL0     C57411   7.587   5.622   2.795 -0.1242 -0.3671 -0.0583
  426MOL0     C57412   7.646   5.716   2.892  0.5276 -0.8736  0.5193
  426MOL0     C57413   7.543   5.764   3.002  0.2820  0.5463 -0.9230
  426MOL0     C57414   7.456   5.663   3.069 -0.4449  0.7021  0.0253
  426MOL0     C57415   7.428   5.721   3.204 -0.0975 -0.2651 -0.6849
  426MOL0     C57416   7.317   5.643   3.284 -0.0519 -0.1082  0.4784
  426MOL0     C57417   7.262   5.731   3.408  0.2310 -0.9358 -0.2960
  426MOL0     C57418   7.372   5.778   3.508 -0.0803 -0.1766 -0.4376
  426MOL0    Cl57419   7.468   5.658   3.598  0.0783 -0.1223 -0.3588
  426MOL0     C57420   7.751   5.541   2.472  0.1725 -0.3719  0.3857
  426MOL0     C57421   7.732   5.529   2.331 -0.3116  0.4595  0.6193
  426MOL0     O57422   7.738   5.536   2.050 -0.1667 -0.2056 -0.3939
  426MOL0     C57423   7.464   5.332   1.947 -0.1814 -0.7095  0.4864
  426MOL0     C57424   7.407   5.276   1.835 -0.6398  0.7693 -0.1401
  426MOL0     N57425   7.668   4.919   1.098  0.1643  0.0202 -0.2524
  426MOL0     N57426   7.648   4.863   0.977 -0.3680 -0.1263  0.1064
  426MOL0     C57427   6.866   5.478   0.672  0.9069  0.5603 -0.3106
  426MOL0     C57428   6.824   5.609   0.705  0.0715  0.1221 -0.6649
  426MOL0     C57429   6.658   6.004   0.795 -0.2810  0.3760 -1.4785
  426MOL0     C57430   6.591   6.003   0.921 -0.8438 -0.6755  1.3876
  426MOL0     C57431   6.557   6.121   0.976  0.1010 -0.9722 -0.2460
  426MOL0     C57432   6.587   6.248   0.922  0.1155  0.4162 -0.4246
  426MOL0     O57433   6.536   6.370   0.973 -0.6833 -0.1247  0.5958
  426MOL0     C57434   6.423   6.378   1.051  0.6224  0.3246 -0.5101
  426MOL0     C57435   6.370   6.521   1.064  0.4509 -0.2465  0.8852
  426MOL0     C57436   6.247   6.534   1.158 -0.8599 -0.2134  0.1359
  426MOL0     C57437   6.119   6.444   1.127  0.2822 -0.4062  1.1208
  426MOL0     C57438   5.999   6.519   1.165  0.2680  0.5085  0.7017
  426MOL0     C57439   5.915   6.601   1.206  0.1294  0.7877  0.0587
  426MOL0     C57440   6.670   6.248   0.814 -0.5287  0.3204  0.6487
  426MOL0     C57441   6.716   6.133   0.753  0.3710  0.6319 -0.4735
  426MOL0     C57442   6.826   6.147   0.651 -0.7634 -0.6008 -0.5677
  426MOL0     H57443   6.543   5.552   0.864 -1.3453  0.6304 -1.6864
  426MOL0     H57444   6.590   5.318   0.762  2.0763 -1.3627  0.7583
  426MOL0     H57445   6.882   5.285   0.448 -1.1655 -1.1459 -0.2627
  426MOL0     H57446   7.009   5.266   0.573  0.0472 -1.7098  0.9344
  426MOL0     H57447   6.992   5.102   0.406  0.1770 -2.1776 -0.2005
  426MOL0     H57448   6.845   5.037   0.481 -1.2730  0.5776  0.5821
  426MOL0     H57449   6.950   5.015   0.701 -2.6551 -0.9083 -2.1802
  426MOL0     H57450   7.104   5.077   0.635 -1.6579  0.8441  1.4992
  426MOL0     H57451   6.998   4.815   0.545  2.8703 -2.7965  1.1867
  426MOL0     H57452   7.118   4.903   0.463  2.3914 -1.0513  0.8042
  426MOL0     H57453   7.131   4.827   0.760 -0.9366 -2.4218 -1.3037
  426MOL0     H57454   7.200   4.739   0.632 -0.4466 -1.2919  0.0302
  426MOL0     H57455   7.341   4.953   0.571 -0.3520  1.8510  0.1682
  426MOL0     H57456   7.310   5.014   0.723  2.0980 -2.1634  3.3942
  426MOL0     H57457   7.456   4.755   0.660 -0.1693  0.7203  0.6550
  426MOL0     H57458   7.391   4.779   0.821  0.7741 -0.2798  0.2599
  426MOL0     H57459   7.641   4.877   0.733  0.1434 -2.8427  0.6135
  426MOL0     H57460   7.526   5.020   0.720  1.0997  0.7021  1.3635
  426MOL0     H57461   7.433   5.110   0.956 -1.3557 -0.9104  2.2394
  426MOL0     H57462   7.620   5.069   1.301  0.1638  0.1285  1.2204
  426MOL0     H57463   7.511   5.181   1.211 -2.7480 -1.2365  0.2457
  426MOL0     H57464   7.317   5.043   1.223  0.6787 -0.2871 -0.1974
  426MOL0     H57465   7.397   4.933   1.336 -0.4169  0.6464  0.3442
  426MOL0     H57466   7.254   5.111   1.450 -0.5632 -2.7103 -0.7019
  426MOL0     H57467   7.338   5.229   1.348 -0.6695 -0.9497 -1.3165
  426MOL0     H57468   7.526   5.228   1.468 -1.6888  0.0150  0.9760
  426MOL0     H57469   7.520   5.071   1.540  3.6197  1.8545  0.8985
  426MOL0     H57470   7.629   5.374   1.599  2.2951  2.7491  1.3979
  426MOL0     H57471   7.745   5.466   1.793 -2.9738  2.0927 -2.6575
  426MOL0     H57472   7.388   5.498   2.345  0.5425  0.7115 -3.1301
  426MOL0     H57473   7.433   5.528   2.582 -1.0459 -0.2671 -0.7410
  426MOL0     H57474   7.496   5.666   2.755  1.0826  3.2169  0.8132
  426MOL0     H57475   7.564   5.527   2.845 -4.1687 -0.3972 -1.5821
  426MOL0     H57476   7.740   5.676   2.930  0.9044 -1.2107 -0.7090
  426MOL0     H57477   7.681   5.805   2.839 -1.3619  1.1967  2.5155
  426MOL0     H57478   7.617   5.810   3.069  0.2566 -0.3930 -0.2365
  426MOL0     H57479   7.475   5.843   2.967 -1.9938 -0.6684  0.5246
  426MOL0     H57480   7.507   5.566   3.077 -1.0013  0.4227  0.2185
  426MOL0     H57481   7.362   5.659   3.014  1.0549  1.3679 -2.7741
  426MOL0     H57482   7.397   5.824   3.187 -1.6725 -0.8090 -1.2888
  426MOL0     H57483   7.521   5.715   3.261  0.6452  2.5179 -1.4611
  426MOL0     H57484   7.236   5.620   3.214  1.6737 -2.3381 -0.9308
  426MOL0     H57485   7.346   5.543   3.316 -2.1156 -1.6834 -2.1245
  426MOL0     H57486   7.186   5.686   3.474  2.0660  0.6036  3.1421
  426MOL0     H57487   7.221   5.822   3.363  0.9228  0.6087  2.0089
  426MOL0     H57488   7.430   5.851   3.451 -1.5463  2.4381  1.2206
  426MOL0     H57489   7.303   5.824   3.579 -0.4480 -1.5732  0.1598
  426MOL0     H57490   7.856   5.549   2.501  0.0231  3.4299  0.4214
  426MOL0     H57491   7.813   5.511   2.262 -0.1420 -2.5996  1.4858
  426MOL0     H57492   7.424   5.306   2.045  0.3445 -1.7349  0.4460
  426MOL0     H57493   7.311   5.226   1.845 -0.0343 -0.5554 -0.7085
  426MOL0     H57494   6.962   5.459   0.626  1.0197 -0.0122  0.1454
  426MOL0     H57495   6.889   5.690   0.675 -0.5076  0.8443 -0.0289
  426MOL0     H57496   6.549   5.916   0.970  0.9586 -1.5734  1.4416
  426MOL0     H57497   6.508   6.096   1.070  2.5007 -1.1515  1.0447
  426MOL0     H57498   6.454   6.338   1.148  1.0511  0.6797 -0.4943
  426MOL0     H57499   6.344   6.320   1.003 -0.0568 -1.4141  2.4541
  426MOL0     H57500   6.350   6.544   0.959  0.6656 -1.0690  0.6556
  426MOL0     H57501   6.453   6.581   1.103  2.0756 -2.6810  1.4286
  426MOL0     H57502   6.228   6.641   1.160  2.4342  0.5123 -1.0005
  426MOL0     H57503   6.277   6.507   1.260 -0.5990  1.4643  0.5228
  426MOL0     H57504   6.106   6.415   1.023 -1.4808 -0.4965  1.3433
  426MOL0     H57505   6.120   6.345   1.175 -1.1670 -1.2174 -0.4454
  426MOL0     H57506   5.831   6.661   1.235  1.0515  0.8854  2.8708
  426MOL0     H57507   6.698   6.348   0.781 -0.4395  0.7505  1.9805
  426MOL0     H57508   6.901   6.070   0.667 -0.4391 -0.6010 -1.9437
  426MOL0     H57509   6.782   6.128   0.553  0.4971  3.0832 -2.0034
  426MOL0     H57510   6.875   6.245   0.656 -0.6581 -0.3945 -3.7676
  427MOL0     O57511   1.499   9.805  10.104  0.5642 -0.1463  0.2568
  427MOL0     C57512   1.548   9.708  10.044 -0.6075  0.3356 -0.5983
  427MOL0     O57513   1.468   9.608   9.993 -0.1466  0.3142 -0.5274
  427MOL0     C57514   1.330   9.623  10.014  0.2348 -1.2186 -0.3967
  427MOL0     C57515   1.277   9.539  10.108 -0.7546 -0.1438 -0.1021
  427MOL0     C57516   1.145   9.548  10.145 -0.0717  0.2231 -0.1668
  427MOL0     C57517   1.052   9.621  10.069 -0.3747 -0.0809 -0.2319
  427MOL0     O57518   0.913   9.622  10.083 -0.8843 -0.4789 -0.2851
  427MOL0     C57519   0.844   9.522  10.158  0.6011  0.8290  0.3075
  427MOL0     C57520   0.694   9.560  10.156  0.8637 -0.5339  0.3508
  427MOL0     C57521   0.603   9.469  10.234  0.0692  0.1861  0.6003
  427MOL0     C57522   0.460   9.511  10.239 -0.4233 -0.1292 -0.6649
  427MOL0     C57523   0.389   9.437  10.359  0.1476  0.5573 -0.2571
  427MOL0     C57524   0.334   9.533  10.473  0.1327 -0.9178  0.2550
  427MOL0     C57525   0.313   9.468  10.604  0.6786  0.2366 -0.9133
  427MOL0     C57526   0.178   9.389  10.613 -0.5380  0.7668 -1.3850
  427MOL0     N57527   0.160   9.313  10.740 -0.0838 -0.1515 -1.1649
  427MOL0     C57528   0.086   9.200  10.771  0.0359 -0.2794 -0.3443
  427MOL0     C57529   0.081   9.183  10.908  0.9722 -0.2246 -0.1892
  427MOL0     C57530   0.013   9.079  10.987  0.2517  0.5234 -0.3826
  427MOL0     C57531  -0.111   9.020  10.920  0.7140 -0.3825 -0.0299
  427MOL0     C57532  -0.187   8.922  11.005  0.4921 -0.4871 -0.3706
  427MOL0     C57533  -0.113   8.795  11.045  0.0783  0.2908  0.7737
  427MOL0     O57534  -0.205   8.699  11.093  0.5610  0.5493  0.3268
  427MOL0     C57535  -0.163   8.572  11.136 -0.4348 -1.0648  0.1256
  427MOL0     C57536  -0.262   8.479  11.142 -0.4977 -0.0600  0.2947
  427MOL0     C57537  -0.237   8.344  11.167 -0.7441 -0.2883 -1.1126
  427MOL0     C57538  -0.109   8.305  11.192 -0.7506 -0.1438  0.2868
  427MOL0     C57539  -0.084   8.161  11.225 -0.3405  0.5515  0.6089
  427MOL0     O57540   0.046   8.115  11.265 -0.1914 -0.3552 -0.0695
  427MOL0     C57541   0.059   7.981  11.284 -0.0411 -0.1233 -0.5480
  427MOL0     C57542   0.066   7.882  11.183 -0.9725 -0.3708 -0.0011
  427MOL0     C57543   0.080   7.747  11.212  0.1716 -0.2295  0.6478
  427MOL0     C57544   0.105   7.703  11.345 -0.6094 -0.7500  0.4356
  427MOL0     O57545   0.164   7.592  11.389 -0.5903  0.9006  0.7022
  427MOL0     C57546   0.067   7.493  11.391 -0.5794  0.6827  0.4694
  427MOL0     C57547   0.124   7.355  11.431 -0.7706  0.0732  0.2273
  427MOL0     C57548   0.182   7.265  11.309 -0.5859 -1.2539 -0.4878
  427MOL0     C57549   0.244   7.132  11.356  0.0193  0.4420 -0.1084
  427MOL0     C57550   0.346   7.073  11.248 -0.9040  0.1839  1.2794
  427MOL0     C57551   0.413   6.936  11.279 -0.9002  0.0028  0.2848
  427MOL0     C57552   0.517   6.934  11.381 -0.5956 -0.6483  0.5240
  427MOL0     C57553   0.612   7.051  11.370  0.0087  0.5654 -0.2081
  427MOL0    Cl57554   0.765   7.000  11.453  0.1262  0.0958 -0.5049
  427MOL0     C57555   0.101   7.806  11.445  0.0662  0.4414 -0.5105
  427MOL0     C57556   0.076   7.936  11.417  0.0223  0.4666  0.7294
  427MOL0     O57557  -0.177   8.081  11.194  0.5820 -0.9700  1.0189
  427MOL0     C57558   0.001   8.395  11.179  0.0366 -0.4711  0.1353
  427MOL0     C57559  -0.029   8.534  11.150  0.0112  0.2763  0.4562
  427MOL0     N57560   0.130   9.309  10.954 -0.4401  0.3040  0.2779
  427MOL0     N57561   0.182   9.379  10.860 -0.4673 -0.2817  0.1728
  427MOL0     C57562   1.109   9.707   9.974  0.0908 -0.9998  0.7510
  427MOL0     C57563   1.250   9.718   9.951  0.3002  0.3726 -0.3031
  427MOL0     C57564   1.695   9.694  10.045 -1.4413  0.2570 -0.3968
  427MOL0     C57565   1.785   9.804  10.067  0.1820  0.3992 -0.0665
  427MOL0     C57566   1.922   9.787  10.088 -0.6231 -0.0422 -1.1618
  427MOL0     C57567   1.979   9.660  10.089 -0.4884  0.0444  0.0768
  427MOL0     O57568   2.118   9.637  10.107 -0.4670 -0.4331 -0.5511
  427MOL0     C57569   2.190   9.728  10.193 -0.4212  0.3885 -0.1047
  427MOL0     C57570   2.289   9.648  10.280 -0.5379 -0.3549 -0.3053
  427MOL0     C57571   2.402   9.571  10.202 -0.3188  0.2730 -0.1971
  427MOL0     C57572   2.499   9.657  10.128 -0.5676  0.4491 -0.0845
  427MOL0     C57573   2.579   9.740  10.221  0.4667  0.3269  0.5421
  427MOL0     C57574   2.649   9.824  10.273 -1.0429 -0.0336  0.0770
  427MOL0     C57575   1.896   9.553  10.073  0.1755  0.0133  0.7706
  427MOL0     C57576   1.753   9.564  10.046 -0.1021 -0.4666  1.6967
  427MOL0     C57577   1.688   9.438  10.033 -0.2306  0.1537  0.5158
  427MOL0     H57578   1.351   9.474  10.155  0.5932  1.3256 -0.1093
  427MOL0     H57579   1.105   9.503  10.235 -0.9518  0.3927 -0.4700
  427MOL0     H57580   0.853   9.430  10.101 -1.0983 -0.2863  1.7244
  427MOL0     H57581   0.870   9.490  10.259 -0.3879 -4.0695 -0.7443
  427MOL0     H57582   0.667   9.570  10.050 -1.0960 -0.3015  0.8354
  427MOL0     H57583   0.677   9.660  10.198  4.0059  0.1689  0.2381
  427MOL0     H57584   0.656   9.451  10.329  0.0911 -0.8499  0.4020
  427MOL0     H57585   0.604   9.376  10.177  5.0077  0.6941 -0.6136
  427MOL0     H57586   0.456   9.619  10.257 -1.5614 -0.3202  0.3619
  427MOL0     H57587   0.424   9.499  10.136  1.8911  0.6139 -1.6285
  427MOL0     H57588   0.308   9.370  10.331  1.3960 -1.7150  1.1930
  427MOL0     H57589   0.468   9.375  10.403  0.0761  1.8492  1.8321
  427MOL0     H57590   0.410   9.609  10.488  2.5176 -3.3620  1.4862
  427MOL0     H57591   0.241   9.574  10.433 -1.1533 -2.4577  1.5062
  427MOL0     H57592   0.303   9.548  10.679  1.8351 -0.4101 -0.0513
  427MOL0     H57593   0.399   9.407  10.630 -0.3215  0.2086  2.9094
  427MOL0     H57594   0.093   9.457  10.608 -2.1939 -1.2950 -2.3588
  427MOL0     H57595   0.179   9.324  10.526  1.4401 -3.7174  1.5898
  427MOL0     H57596   0.064   9.126  10.694  1.2142 -0.4229 -0.5551
  427MOL0     H57597   0.086   8.999  11.003 -0.9203 -0.6474 -0.7186
  427MOL0     H57598  -0.014   9.117  11.086  1.5723  3.4073 -0.9929
  427MOL0     H57599  -0.185   9.096  10.894  0.4211 -1.5071 -2.7815
  427MOL0     H57600  -0.073   8.961  10.836 -1.7740 -0.9750 -0.8029
  427MOL0     H57601  -0.273   8.887  10.947  1.6929 -1.4229 -1.6507
  427MOL0     H57602  -0.225   8.979  11.090  0.8010 -0.2368 -0.4016
  427MOL0     H57603  -0.043   8.835  11.120  0.5117  1.3835 -0.1729
  427MOL0     H57604  -0.057   8.762  10.957 -0.6126  0.7800  0.1410
  427MOL0     H57605  -0.362   8.517  11.122  0.0726  1.8226  0.7487
  427MOL0     H57606  -0.325   8.282  11.157  0.5750 -2.1747 -1.5087
  427MOL0     H57607   0.060   7.913  11.079 -2.4169 -1.0231 -0.1359
  427MOL0     H57608   0.094   7.671  11.136 -1.5091 -1.5423  1.5936
  427MOL0     H57609  -0.002   7.532  11.467 -1.6960 -1.0016  0.3824
  427MOL0     H57610   0.025   7.469  11.293  1.7126  2.9155 -1.1735
  427MOL0     H57611   0.196   7.367  11.512 -1.6418  2.1025  0.7596
  427MOL0     H57612   0.038   7.299  11.469 -1.2163  1.1723  0.8841
  427MOL0     H57613   0.103   7.250  11.236  0.0716 -0.1345 -1.4729
  427MOL0     H57614   0.256   7.332  11.264  1.0009 -3.2322 -0.9534
  427MOL0     H57615   0.162   7.063  11.378 -1.8314  2.3744 -0.6635
  427MOL0     H57616   0.300   7.154  11.448  2.5058  1.5310 -1.7515
  427MOL0     H57617   0.420   7.152  11.233 -2.1871  1.4338  1.3788
  427MOL0     H57618   0.287   7.060  11.156  0.6774  2.9332 -0.2281
  427MOL0     H57619   0.327   6.877  11.314  0.5276 -2.1515  0.3263
  427MOL0     H57620   0.453   6.891  11.188 -1.0842  1.2075 -0.4099
  427MOL0     H57621   0.574   6.843  11.361  1.8305  0.2148  3.0210
  427MOL0     H57622   0.481   6.929  11.484  1.7321 -3.5922  1.3079
  427MOL0     H57623   0.642   7.074  11.267  1.8464 -1.7435 -0.2793
  427MOL0     H57624   0.574   7.134  11.430  1.5494 -0.3385  2.1391
  427MOL0     H57625   0.132   7.788  11.547 -1.7859  2.3712  0.4696
  427MOL0     H57626   0.079   8.011  11.496  1.1550 -0.6269  1.7698
  427MOL0     H57627   0.100   8.351  11.190 -0.2995 -1.4905 -0.7438
  427MOL0     H57628   0.051   8.604  11.129 -0.6161  0.1793 -2.6976
  427MOL0     H57629   1.041   9.783   9.938  3.2167  1.2029 -0.9839
  427MOL0     H57630   1.302   9.783   9.882  0.6602 -1.2350 -1.6083
  427MOL0     H57631   1.746   9.903  10.089 -1.3920 -0.3532  0.6354
  427MOL0     H57632   1.981   9.876  10.105 -0.4607 -0.4005  0.2415
  427MOL0     H57633   2.111   9.770  10.255 -2.1351  0.3915 -2.1996
  427MOL0     H57634   2.231   9.804  10.126  0.7549  0.6309  0.8494
  427MOL0     H57635   2.226   9.574  10.330 -1.1356 -0.8625 -1.7556
  427MOL0     H57636   2.341   9.713  10.350  1.4086 -1.4223 -0.6930
  427MOL0     H57637   2.356   9.506  10.126  3.3337 -3.3543  0.3408
  427MOL0     H57638   2.452   9.495  10.263 -1.7483 -2.4864 -2.2348
  427MOL0     H57639   2.576   9.593  10.084  0.8346  1.4364  0.8387
  427MOL0     H57640   2.454   9.713  10.045 -1.8829 -0.7665 -0.2299
  427MOL0     H57641   2.698   9.910  10.311  1.5214 -0.4207 -2.0854
  427MOL0     H57642   1.940   9.453  10.072 -1.0604 -0.5570 -0.7900
  427MOL0     H57643   1.615   9.427   9.952  1.1466 -0.7765 -0.6410
  427MOL0     H57644   1.756   9.353  10.025  2.5682  1.7816  3.9771
  427MOL0     H57645   1.630   9.428  10.126 -2.7576  1.4216 -0.8271
  428MOL0     O57646   6.025  10.102   2.700 -0.5715  0.1410 -0.0119
  428MOL0     C57647   5.987  10.082   2.582  0.3452 -0.0214  0.0157
  428MOL0     O57648   6.031  10.146   2.475 -0.6221  0.5733  0.1838
  428MOL0     C57649   6.133  10.233   2.505 -0.1257 -0.1158 -0.4618
  428MOL0     C57650   6.258  10.185   2.544 -0.7733  0.4456 -0.4839
  428MOL0     C57651   6.361  10.278   2.591  0.3631  0.4502  0.5351
  428MOL0     C57652   6.339  10.412   2.577  0.1930 -0.2529  0.2166
  428MOL0     O57653   6.425  10.512   2.619 -0.8969 -0.7387 -0.0501
  428MOL0     C57654   6.475  10.496   2.753  0.6991  0.4279 -0.2776
  428MOL0     C57655   6.598  10.576   2.778  0.5526 -0.2270  0.5444
  428MOL0     C57656   6.632  10.589   2.931 -0.3114  0.7144 -0.1379
  428MOL0     C57657   6.773  10.649   2.943  0.3226  0.8160  0.7156
  428MOL0     C57658   6.810  10.686   3.093 -0.0283  0.8382 -0.6170
  428MOL0     C57659   6.959  10.724   3.108  0.8484 -1.1311 -0.0922
  428MOL0     C57660   7.032  10.731   3.246  0.9668  0.1416 -0.1933
  428MOL0     C57661   6.963  10.812   3.351 -0.0080  0.6873 -0.6741
  428MOL0     N57662   7.020  10.950   3.368 -0.4191 -0.0163  0.5864
  428MOL0     C57663   7.060  11.035   3.267  0.2040  0.6415  0.1981
  428MOL0     C57664   7.118  11.147   3.334 -0.5314  1.1178  0.3808
  428MOL0     C57665   7.151  11.266   3.257 -0.2147 -0.4810  0.1896
  428MOL0     C57666   7.278  11.328   3.292  0.3615 -0.2741 -0.2443
  428MOL0     C57667   7.397  11.234   3.265 -0.1927  0.4146  0.7122
  428MOL0     C57668   7.429  11.244   3.112  0.3381 -0.5960 -0.0770
  428MOL0     O57669   7.354  11.156   3.031  0.3475 -0.5964 -0.2809
  428MOL0     C57670   7.367  11.172   2.897  0.2557 -0.1969 -0.0863
  428MOL0     C57671   7.260  11.112   2.824 -0.6163  0.3538 -0.1962
  428MOL0     C57672   7.256  11.109   2.689 -0.2292  0.2963  1.1463
  428MOL0     C57673   7.349  11.188   2.614 -0.7702  0.8318 -0.1917
  428MOL0     C57674   7.331  11.179   2.470 -0.8120  1.2188  0.5047
  428MOL0     O57675   7.239  11.087   2.413  0.2040  0.0203 -0.1298
  428MOL0     C57676   7.207  11.103   2.281  0.3326  0.0990  0.9210
  428MOL0     C57677   7.088  11.172   2.244  0.1471  0.8826  0.5690
  428MOL0     C57678   7.051  11.184   2.118  0.1485  1.2705  0.6518
  428MOL0     C57679   7.127  11.111   2.021 -0.5342  0.0442 -0.7676
  428MOL0     O57680   7.069  11.127   1.895  0.4928 -0.4316 -0.4470
  428MOL0     C57681   7.079  11.024   1.794 -0.7805  0.0705 -0.1483
  428MOL0     C57682   6.981  10.912   1.834 -0.7050  0.1054  0.8467
  428MOL0     C57683   6.836  10.939   1.813 -0.6373  0.7449  0.2452
  428MOL0     C57684   6.753  10.859   1.903  0.1073  1.4490  0.0798
  428MOL0     C57685   6.610  10.869   1.875 -0.5987 -0.6122 -0.2552
  428MOL0     C57686   6.550  10.993   1.942 -0.0210 -0.1828  0.6386
  428MOL0     C57687   6.403  11.027   1.938 -0.1959 -0.3341  0.2303
  428MOL0     C57688   6.335  11.071   1.799 -0.6402 -0.1145 -0.6347
  428MOL0    Cl57689   6.168  11.131   1.800 -0.1278 -0.3359 -0.2463
  428MOL0     C57690   7.238  11.041   2.051 -0.7928 -0.2926  0.4016
  428MOL0     C57691   7.284  11.041   2.179  0.5968 -0.4644  0.3780
  428MOL0     O57692   7.407  11.254   2.409  0.1082  0.1457 -0.3006
  428MOL0     C57693   7.447  11.265   2.682 -0.6083  0.3284  0.6062
  428MOL0     C57694   7.459  11.251   2.823  0.5111 -0.1936  0.5017
  428MOL0     N57695   7.114  11.120   3.468 -0.3424  0.7116  0.3810
  428MOL0     N57696   7.066  10.999   3.489  0.7272  1.1216 -0.8144
  428MOL0     C57697   6.211  10.459   2.541  0.7437  0.8195 -0.0353
  428MOL0     C57698   6.116  10.372   2.496  0.2886  0.1838 -0.4985
  428MOL0     C57699   5.896   9.969   2.561 -0.2287  0.2820  0.0718
  428MOL0     C57700   5.803   9.940   2.659 -0.3685 -0.2914  0.3888
  428MOL0     C57701   5.706   9.842   2.635 -0.1943  0.0185  1.2440
  428MOL0     C57702   5.702   9.773   2.515 -0.1066 -0.8963 -0.8818
  428MOL0     O57703   5.600   9.693   2.472  0.3341  0.8695  0.2133
  428MOL0     C57704   5.503   9.638   2.568  0.2515 -0.8410  0.0154
  428MOL0     C57705   5.420   9.524   2.517  0.9521 -0.6391 -0.5355
  428MOL0     C57706   5.336   9.563   2.397  0.2307  1.2948 -1.0113
  428MOL0     C57707   5.243   9.445   2.353  0.4998  0.4635  0.5013
  428MOL0     C57708   5.285   9.347   2.258  1.2119  0.0212  0.4297
  428MOL0     C57709   5.306   9.255   2.181 -0.1792  0.1317 -1.3157
  428MOL0     C57710   5.793   9.801   2.412 -0.3159 -0.5932  0.5906
  428MOL0     C57711   5.892   9.896   2.434 -0.5535  0.5391 -0.0977
  428MOL0     C57712   5.992   9.910   2.317  0.1904  0.4394 -0.7236
  428MOL0     H57713   6.271  10.078   2.558 -1.8644  0.1566 -1.4929
  428MOL0     H57714   6.448  10.227   2.631  0.3162  0.2973  0.4454
  428MOL0     H57715   6.401  10.540   2.821  1.5354 -0.2722  1.0925
  428MOL0     H57716   6.490  10.393   2.786 -0.9208  0.0832 -0.5167
  428MOL0     H57717   6.574  10.672   2.732 -1.5871 -0.3284  1.3292
  428MOL0     H57718   6.678  10.532   2.718  1.3232 -3.0505  3.3259
  428MOL0     H57719   6.615  10.490   2.974 -1.2572 -0.6771 -3.3678
  428MOL0     H57720   6.570  10.662   2.983 -2.3385 -0.3098 -0.9748
  428MOL0     H57721   6.848  10.576   2.910  1.9351  3.1985 -1.3256
  428MOL0     H57722   6.784  10.736   2.876 -3.4449  1.3896  0.6502
  428MOL0     H57723   6.741  10.756   3.140  1.4972  1.8216  0.2585
  428MOL0     H57724   6.798  10.592   3.147  3.2615  1.3695  1.3195
  428MOL0     H57725   7.004  10.651   3.039  2.2067 -3.8830  3.4019
  428MOL0     H57726   6.965  10.826   3.069  1.0346 -1.1520 -0.1217
  428MOL0     H57727   7.138  10.759   3.234  0.7825  0.8679 -0.1793
  428MOL0     H57728   7.034  10.627   3.281  0.2173  1.3196  3.8160
  428MOL0     H57729   6.855  10.814   3.333 -0.2440 -0.4718  0.4752
  428MOL0     H57730   6.975  10.755   3.443 -0.2136  0.5244 -0.7476
  428MOL0     H57731   7.040  11.041   3.160 -2.2902  1.1104  0.6351
  428MOL0     H57732   7.147  11.246   3.150 -1.1867 -2.2303  0.5149
  428MOL0     H57733   7.072  11.340   3.274  0.9034  0.7403  0.2175
  428MOL0     H57734   7.280  11.423   3.238 -0.1686 -0.4425 -0.5702
  428MOL0     H57735   7.278  11.347   3.399  0.6903 -3.2308  0.3605
  428MOL0     H57736   7.371  11.134   3.303 -0.5686 -0.3304 -1.3919
  428MOL0     H57737   7.480  11.280   3.319 -0.4088  1.9899 -0.2647
  428MOL0     H57738   7.537  11.230   3.105  0.7757  1.7608  0.9626
  428MOL0     H57739   7.419  11.348   3.080  0.0138  0.3485  2.7337
  428MOL0     H57740   7.182  11.064   2.882  2.0782 -1.4521  2.2573
  428MOL0     H57741   7.162  11.063   2.663  0.4690 -2.1382  2.6345
  428MOL0     H57742   7.028  11.206   2.327 -2.6176 -2.4420  0.1830
  428MOL0     H57743   6.954  11.230   2.100 -1.0519 -1.9838 -2.3474
  428MOL0     H57744   7.052  11.073   1.699 -1.9183  2.1495  1.1653
  428MOL0     H57745   7.177  10.976   1.793 -1.8782 -2.5282  2.3403
  428MOL0     H57746   7.003  10.826   1.770 -1.8500 -0.1738  0.8091
  428MOL0     H57747   7.001  10.881   1.937  0.9980  2.0671  1.1723
  428MOL0     H57748   6.805  11.044   1.825 -3.1160 -0.0073  1.2293
  428MOL0     H57749   6.805  10.908   1.713  0.1015  0.3745  0.1281
  428MOL0     H57750   6.776  10.897   2.003  3.9880  3.0470 -1.2060
  428MOL0     H57751   6.794  10.758   1.895  3.8116  2.8700 -1.3050
  428MOL0     H57752   6.553  10.781   1.908 -1.2135 -0.7429 -1.6007
  428MOL0     H57753   6.601  10.870   1.766 -2.5183 -1.7469 -0.1488
  428MOL0     H57754   6.566  10.986   2.050  1.6950 -0.2182  0.4123
  428MOL0     H57755   6.607  11.083   1.917  2.2846 -1.4712  0.9267
  428MOL0     H57756   6.383  11.114   2.001  0.3661 -0.6048  0.7959
  428MOL0     H57757   6.351  10.938   1.976  0.9094 -0.1848  2.2272
  428MOL0     H57758   6.397  11.147   1.750 -2.4963  0.8696 -1.5472
  428MOL0     H57759   6.332  10.984   1.733 -1.5092  0.0179 -0.7862
  428MOL0     H57760   7.300  10.990   1.978  0.4127  1.8142 -0.1306
  428MOL0     H57761   7.384  11.013   2.210  0.3850  0.9201  2.6133
  428MOL0     H57762   7.519  11.330   2.634  0.5405  1.0155  3.1021
  428MOL0     H57763   7.532  11.320   2.864 -1.0614  0.9197  1.4830
  428MOL0     H57764   6.187  10.565   2.537  2.2417  1.1572 -1.3076
  428MOL0     H57765   6.021  10.419   2.476 -1.9069 -3.2375  1.0004
  428MOL0     H57766   5.802  10.014   2.738  0.0157  2.9242 -2.4261
  428MOL0     H57767   5.619   9.838   2.701 -1.1816  1.3628  0.0920
  428MOL0     H57768   5.428   9.711   2.600  0.4231 -0.8891  0.5464
  428MOL0     H57769   5.556   9.616   2.661 -0.2067  3.6219  1.5682
  428MOL0     H57770   5.356   9.477   2.593 -0.7766  1.6374 -0.4451
  428MOL0     H57771   5.487   9.442   2.490  1.6452  0.6666 -3.0298
  428MOL0     H57772   5.396   9.596   2.312 -0.1678  2.2916 -0.9147
  428MOL0     H57773   5.277   9.643   2.443 -0.4387  1.1642 -1.6250
  428MOL0     H57774   5.202   9.390   2.437  0.2316  0.7315  0.5470
  428MOL0     H57775   5.156   9.492   2.306  0.1639 -0.4680  0.1573
  428MOL0     H57776   5.337   9.175   2.117 -1.5045  1.3219 -3.5921
  428MOL0     H57777   5.792   9.745   2.319 -0.9570  0.0807  0.1883
  428MOL0     H57778   6.095   9.915   2.356  1.5495 -1.2464 -3.7330
  428MOL0     H57779   5.986   9.823   2.252 -1.4578 -0.7358  0.9249
  428MOL0     H57780   5.966   9.999   2.258  0.5170  0.3794 -0.9624
  429MOL0     O57781   4.703  10.801   7.866  0.0433 -0.1164  0.7801
  429MOL0     C57782   4.671  10.859   7.967 -0.0546  0.4195 -0.2842
  429MOL0     O57783   4.581  10.807   8.062 -0.8961  0.4016 -0.0965
  429MOL0     C57784   4.548  10.671   8.055 -0.1836 -0.5092 -0.0166
  429MOL0     C57785   4.415  10.627   8.080 -0.9719 -0.4078 -0.2403
  429MOL0     C57786   4.385  10.497   8.085  0.3010  0.7994 -0.3111
  429MOL0     C57787   4.483  10.399   8.081  0.2419 -0.2326 -0.0739
  429MOL0     O57788   4.449  10.271   8.116 -0.2602 -0.3152 -0.0825
  429MOL0     C57789   4.482  10.168   8.026  0.8282  0.3045  0.4698
  429MOL0     C57790   4.389  10.171   7.890  0.0115  0.8919 -0.1226
  429MOL0     C57791   4.246  10.118   7.926 -0.2742  0.4712  0.2328
  429MOL0     C57792   4.173  10.106   7.787 -0.4061 -0.7013 -0.1156
  429MOL0     C57793   4.028  10.067   7.812 -0.5910 -0.5139 -0.0191
  429MOL0     C57794   3.969  10.000   7.684 -0.2357 -0.3147 -0.3062
  429MOL0     C57795   3.813   9.969   7.698 -0.6493  0.1747 -0.0062
  429MOL0     C57796   3.740   9.934   7.566 -0.0304  0.1509  0.4607
  429MOL0     N57797   3.830   9.849   7.484 -0.0624 -0.4298 -0.6701
  429MOL0     C57798   3.839   9.719   7.521 -0.4632  0.1745 -0.2511
  429MOL0     C57799   3.913   9.668   7.421  0.1102  0.6018 -0.0951
  429MOL0     C57800   3.961   9.520   7.416 -0.1200 -0.4711 -0.4501
  429MOL0     C57801   3.834   9.433   7.416 -0.5294 -0.3369  0.5223
  429MOL0     C57802   3.871   9.280   7.402 -0.1305  0.3636 -0.1270
  429MOL0     C57803   3.930   9.204   7.529  0.2487  0.2153  0.3934
  429MOL0     O57804   3.829   9.245   7.626 -0.4913 -0.0733 -0.0136
  429MOL0     C57805   3.772   9.153   7.707 -0.2126  0.9409 -0.7063
  429MOL0     C57806   3.700   9.210   7.817 -0.1939 -0.4033  0.4774
  429MOL0     C57807   3.626   9.135   7.904  0.0445 -0.7268  0.2466
  429MOL0     C57808   3.629   8.990   7.884 -0.1319  0.3438  0.7221
  429MOL0     C57809   3.555   8.900   7.972 -0.1096 -0.2659  0.4111
  429MOL0     O57810   3.514   8.954   8.097  0.7095  0.8023  0.8796
  429MOL0     C57811   3.434   8.871   8.171 -0.0852  0.6810  0.3802
  429MOL0     C57812   3.302   8.907   8.187 -0.0595  0.7190 -0.2252
  429MOL0     C57813   3.226   8.834   8.276 -0.0162 -0.5832  0.0714
  429MOL0     C57814   3.286   8.737   8.362  0.2651 -0.1091 -0.7590
  429MOL0     O57815   3.229   8.648   8.458  0.5609 -0.1234 -0.3549
  429MOL0     C57816   3.087   8.619   8.441  0.6242  0.0906  0.1732
  429MOL0     C57817   3.046   8.488   8.512 -0.2490 -0.6941  0.5889
  429MOL0     C57818   3.135   8.366   8.465  0.3461  0.8005  0.4579
  429MOL0     C57819   3.277   8.373   8.499 -0.7289  0.5940  0.7939
  429MOL0     C57820   3.344   8.234   8.516  0.2439 -0.1794  0.2182
  429MOL0     C57821   3.334   8.155   8.380  0.3937  0.7015 -0.2476
  429MOL0     C57822   3.437   8.042   8.375 -0.0775  0.2994 -0.1458
  429MOL0     C57823   3.433   7.972   8.241  0.5938  0.2819  0.1335
  429MOL0    Cl57824   3.589   7.899   8.217  0.1191  0.1736 -0.3882
  429MOL0     C57825   3.422   8.708   8.347  0.1472  0.4369  0.2757
  429MOL0     C57826   3.498   8.778   8.249 -0.5907  0.5609 -0.0887
  429MOL0     O57827   3.549   8.783   7.944 -0.1172  0.4727 -0.2742
  429MOL0     C57828   3.705   8.933   7.784  0.4930 -0.7525 -0.4635
  429MOL0     C57829   3.768   9.012   7.689 -1.0710  0.2057 -0.0135
  429MOL0     N57830   3.937   9.763   7.323 -0.9593  1.0736  0.1390
  429MOL0     N57831   3.894   9.876   7.370  0.3359 -0.8506 -0.0810
  429MOL0     C57832   4.613  10.433   8.064 -0.0146  0.7951 -0.2531
  429MOL0     C57833   4.644  10.570   8.056 -0.1336  0.2614 -0.2528
  429MOL0     C57834   4.715  10.995   8.007 -0.1030  0.2881 -0.0434
  429MOL0     C57835   4.655  11.064   8.112  0.9128 -0.1846 -0.5865
  429MOL0     C57836   4.689  11.194   8.153 -0.4940 -0.3446  0.5221
  429MOL0     C57837   4.784  11.272   8.101  0.3156  0.7392 -0.6633
  429MOL0     O57838   4.819  11.393   8.160 -0.3618 -0.5586  0.9376
  429MOL0     C57839   4.870  11.495   8.073 -0.1240  0.4759  0.9874
  429MOL0     C57840   4.758  11.551   7.978 -0.0563 -0.3262 -0.5536
  429MOL0     C57841   4.815  11.648   7.881 -0.1656 -0.5486 -0.3756
  429MOL0     C57842   4.711  11.722   7.803 -0.7599 -0.7927  0.3320
  429MOL0     C57843   4.627  11.809   7.880  0.7664 -0.1881 -0.9106
  429MOL0     C57844   4.558  11.882   7.951  0.6030 -0.0649 -0.4493
  429MOL0     C57845   4.854  11.209   7.994  0.2832 -0.1543  0.3259
  429MOL0     C57846   4.816  11.077   7.946 -0.0794  0.2597  0.2645
  429MOL0     C57847   4.898  11.027   7.827  1.7561 -0.3078  0.0570
  429MOL0     H57848   4.345  10.704   8.113  0.8433 -0.8815  5.8735
  429MOL0     H57849   4.285  10.471   8.116  0.6527  3.4428  3.8722
  429MOL0     H57850   4.590  10.162   8.008  0.8227 -1.9102  0.8375
  429MOL0     H57851   4.456  10.066   8.057 -1.4518 -1.2958 -5.2678
  429MOL0     H57852   4.434  10.116   7.807  0.9323  0.0188  0.9150
  429MOL0     H57853   4.369  10.272   7.853 -1.7390  0.7132  0.2130
  429MOL0     H57854   4.198  10.200   7.981  2.6676  2.7631 -0.3124
  429MOL0     H57855   4.249  10.026   7.985 -4.4487 -2.1182 -3.0541
  429MOL0     H57856   4.196  10.189   7.720  0.6500 -2.0841 -1.5591
  429MOL0     H57857   4.227  10.029   7.731  1.4251  1.2450 -1.1185
  429MOL0     H57858   4.014   9.999   7.896 -0.4148  2.4020  2.5618
  429MOL0     H57859   3.976  10.160   7.836  1.0023  1.3758 -3.1460
  429MOL0     H57860   3.982  10.073   7.603  1.6521 -3.1360 -2.7755
  429MOL0     H57861   4.027   9.913   7.651 -0.5819  0.1978 -2.4125
  429MOL0     H57862   3.772  10.065   7.731 -0.8254  1.1981 -2.9221
  429MOL0     H57863   3.802   9.890   7.774 -1.5439  1.7240  1.5635
  429MOL0     H57864   3.643   9.891   7.592  0.0715 -0.0968  0.4306
  429MOL0     H57865   3.718  10.022   7.504 -1.4619 -0.9464 -0.6583
  429MOL0     H57866   3.801   9.677   7.614 -0.7715 -1.3948 -1.0571
  429MOL0     H57867   4.026   9.513   7.328  4.0463  4.5626  1.6963
  429MOL0     H57868   4.032   9.496   7.496 -0.5407 -0.6925 -0.1391
  429MOL0     H57869   3.776   9.456   7.505 -1.6156  3.0534 -0.9103
  429MOL0     H57870   3.776   9.460   7.327  2.7536 -1.9565 -2.3994
  429MOL0     H57871   3.928   9.263   7.310 -2.0423 -2.1601 -0.9579
  429MOL0     H57872   3.774   9.235   7.379 -1.0789  1.5530  1.3492
  429MOL0     H57873   4.028   9.243   7.555  1.4025 -3.2730  1.7795
  429MOL0     H57874   3.938   9.095   7.529 -0.8544  0.0362 -2.6177
  429MOL0     H57875   3.709   9.317   7.833  0.4588 -0.5568  1.2029
  429MOL0     H57876   3.576   9.193   7.981 -1.6594  4.5302 -4.1954
  429MOL0     H57877   3.257   8.972   8.113 -1.0036 -0.7259 -0.9693
  429MOL0     H57878   3.120   8.831   8.302 -0.2246  1.0103 -0.4335
  429MOL0     H57879   3.023   8.699   8.478  0.9197  0.1250  0.6069
  429MOL0     H57880   3.053   8.602   8.338 -0.9636 -3.6441  1.1558
  429MOL0     H57881   3.061   8.494   8.620 -3.7614 -2.3185  1.3350
  429MOL0     H57882   2.941   8.478   8.483 -0.0296 -0.2961 -0.3892
  429MOL0     H57883   3.085   8.278   8.505  0.2931  1.1612  1.2079
  429MOL0     H57884   3.128   8.354   8.356  2.7451  2.7954 -0.0211
  429MOL0     H57885   3.285   8.443   8.583 -0.7005  3.3168 -1.3401
  429MOL0     H57886   3.324   8.421   8.412 -1.6750  1.1854  0.5963
  429MOL0     H57887   3.286   8.173   8.586 -0.9253  1.4073  0.6767
  429MOL0     H57888   3.448   8.242   8.548  0.4784  0.9510 -0.7579
  429MOL0     H57889   3.234   8.111   8.373  0.8625 -0.2813 -1.0467
  429MOL0     H57890   3.354   8.221   8.295 -3.1796  1.3829 -0.7189
  429MOL0     H57891   3.412   7.960   8.443  2.7935  0.6191  1.4896
  429MOL0     H57892   3.540   8.073   8.395 -0.0811 -0.3396  0.9436
  429MOL0     H57893   3.354   7.899   8.225  0.8090 -0.0805  0.7054
  429MOL0     H57894   3.427   8.049   8.164  0.4378  0.3795  0.2422
  429MOL0     H57895   3.451   8.628   8.414 -3.4746  0.9156  2.7350
  429MOL0     H57896   3.604   8.766   8.230 -0.7524  0.8065 -1.2329
  429MOL0     H57897   3.712   8.827   7.765 -2.5430 -1.3392  0.9872
  429MOL0     H57898   3.811   8.966   7.600  0.5291  1.9725 -0.2048
  429MOL0     H57899   4.685  10.352   8.064 -3.0491 -2.1471 -0.5180
  429MOL0     H57900   4.752  10.582   8.054 -0.2611  1.4356 -1.6284
  429MOL0     H57901   4.566  11.014   8.148  0.3750 -0.6946 -2.4995
  429MOL0     H57902   4.649  11.236   8.245 -3.9242 -3.6576  0.7693
  429MOL0     H57903   4.942  11.446   8.008  0.3313  1.0976  1.0119
  429MOL0     H57904   4.917  11.569   8.138  1.2792  2.9104 -2.4897
  429MOL0     H57905   4.697  11.609   8.048  0.6406  1.7619 -1.5911
  429MOL0     H57906   4.694  11.479   7.926 -1.2044  0.8674 -0.8418
  429MOL0     H57907   4.879  11.588   7.815 -0.4570 -0.9362 -0.3125
  429MOL0     H57908   4.864  11.722   7.944 -1.1134 -1.4725  1.5632
  429MOL0     H57909   4.757  11.774   7.718  0.9911 -2.5853  0.0997
  429MOL0     H57910   4.646  11.647   7.757  0.5779 -0.3832 -2.4806
  429MOL0     H57911   4.485  11.942   8.001  0.1932 -0.4280 -0.6051
  429MOL0     H57912   4.951  11.240   7.956 -0.2631 -1.0696 -1.9764
  429MOL0     H57913   4.913  10.919   7.826 -0.1092 -0.6092 -0.9715
  429MOL0     H57914   4.853  11.063   7.734  1.3707 -1.4419 -0.2017
  429MOL0     H57915   4.995  11.077   7.837 -0.9467  5.2221  4.3974
  430MOL0     O57916   8.633   8.237   0.184  0.1943  0.0622 -0.5998
  430MOL0     C57917   8.639   8.117   0.174  0.9107 -0.9990  1.2969
  430MOL0     O57918   8.597   8.029   0.269 -0.4901 -0.6665  0.8432
  430MOL0     C57919   8.579   8.081   0.393  0.2899 -0.4537 -0.8985
  430MOL0     C57920   8.679   8.128   0.469 -0.2625 -0.3150 -0.2672
  430MOL0     C57921   8.660   8.204   0.580 -0.9703  0.4718 -0.6388
  430MOL0     C57922   8.536   8.233   0.630  0.1519 -0.3378  0.9942
  430MOL0     O57923   8.534   8.324   0.742 -0.7367  0.4354 -0.1788
  430MOL0     C57924   8.549   8.245   0.860 -0.4048  0.9017  0.4158
  430MOL0     C57925   8.440   8.299   0.966 -0.2600 -0.2219  0.4085
  430MOL0     C57926   8.442   8.228   1.107 -0.2088  0.4840  0.0709
  430MOL0     C57927   8.323   8.130   1.102 -0.0427  0.5765  0.0371
  430MOL0     C57928   8.302   8.047   1.232 -0.8591  0.1349 -0.6471
  430MOL0     C57929   8.436   7.992   1.298 -0.2609  1.3101  0.2047
  430MOL0     C57930   8.504   7.879   1.216  0.5102 -0.1705 -1.1333
  430MOL0     C57931   8.645   7.873   1.275 -0.1349  0.5105 -0.8941
  430MOL0     N57932   8.716   7.766   1.210  0.0472 -0.4439  0.1551
  430MOL0     C57933   8.676   7.632   1.198 -0.5859 -0.5529 -0.5843
  430MOL0     C57934   8.764   7.584   1.106  0.7209  0.6363  0.7054
  430MOL0     C57935   8.760   7.434   1.057 -0.1245 -0.2432 -0.0529
  430MOL0     C57936   8.644   7.407   0.962  0.3228 -0.0600 -0.1078
  430MOL0     C57937   8.645   7.497   0.838  0.3690  0.6297  0.3451
  430MOL0     C57938   8.524   7.484   0.742 -0.1980  0.1522  0.8111
  430MOL0     O57939   8.489   7.356   0.688 -0.6389 -0.2487  0.3573
  430MOL0     C57940   8.366   7.336   0.632 -0.3749 -0.8727  0.6493
  430MOL0     C57941   8.358   7.222   0.569  0.4516  0.2498  0.6223
  430MOL0     C57942   8.248   7.178   0.506  0.9442 -0.3467  0.0406
  430MOL0     C57943   8.136   7.260   0.495 -0.4165 -0.8002 -0.5723
  430MOL0     C57944   8.009   7.214   0.430 -1.0078  0.6041  0.2129
  430MOL0     O57945   7.902   7.297   0.439 -0.4809  0.6291 -0.1365
  430MOL0     C57946   7.782   7.263   0.379  0.0025  0.4747 -0.8330
  430MOL0     C57947   7.699   7.157   0.435 -0.3959 -0.6451  0.6333
  430MOL0     C57948   7.592   7.116   0.354  1.3978  0.2025 -0.9751
  430MOL0     C57949   7.536   7.182   0.249 -0.0345  0.4453 -0.8011
  430MOL0     O57950   7.421   7.133   0.183 -0.6156  0.0764  0.5839
  430MOL0     C57951   7.396   7.191   0.054 -0.0890 -0.0000 -0.6213
  430MOL0     C57952   7.271   7.127  -0.007 -0.5768 -0.6659  0.2508
  430MOL0     C57953   7.205   7.203  -0.122 -0.9341  0.4677  0.5618
  430MOL0     C57954   7.168   7.115  -0.243 -0.3749 -0.8815 -0.1151
  430MOL0     C57955   7.091   7.178  -0.351  0.0166 -0.1606 -0.1823
  430MOL0     C57956   7.075   7.083  -0.472  1.3320 -0.4975  0.0812
  430MOL0     C57957   7.031   7.175  -0.598 -0.2792  0.3025 -0.1433
  430MOL0     C57958   6.881   7.193  -0.616 -0.6538  0.1217 -0.9715
  430MOL0    Cl57959   6.841   7.238  -0.788  0.1223 -0.5393  0.2829
  430MOL0     C57960   7.611   7.298   0.219  0.0869  0.4458  0.8120
  430MOL0     C57961   7.721   7.337   0.289 -0.2078 -0.8038  0.1252
  430MOL0     O57962   8.007   7.107   0.368  0.3129 -0.1887  0.3139
  430MOL0     C57963   8.146   7.387   0.547  1.4596 -0.3537  0.1487
  430MOL0     C57964   8.265   7.427   0.614 -0.5734  0.0122 -0.0255
  430MOL0     N57965   8.848   7.687   1.064  0.1989  0.5793 -0.0090
  430MOL0     N57966   8.815   7.796   1.125 -1.3201  0.2807  0.0807
  430MOL0     C57967   8.426   8.174   0.561 -0.3522 -0.0925 -1.5957
  430MOL0     C57968   8.451   8.102   0.442  0.1402 -1.1572  0.0640
  430MOL0     C57969   8.688   8.052   0.043  0.3919  0.0549 -0.1863
  430MOL0     C57970   8.661   7.913   0.012  0.0066 -0.7145 -1.0156
  430MOL0     C57971   8.719   7.857  -0.105  0.5485  0.3171 -0.5785
  430MOL0     C57972   8.796   7.928  -0.189 -0.3652  0.3531  0.7943
  430MOL0     O57973   8.849   7.865  -0.298 -0.1339 -0.0268  0.5943
  430MOL0     C57974   8.975   7.792  -0.287  0.0678  1.1452  0.6254
  430MOL0     C57975   9.088   7.876  -0.352  0.6896  0.6260 -0.2576
  430MOL0     C57976   9.087   7.881  -0.506  0.3501  0.5115  0.4938
  430MOL0     C57977   9.052   8.022  -0.546 -0.3233 -0.2192 -1.6260
  430MOL0     C57978   9.038   8.060  -0.687  0.0400 -0.4226 -0.7083
  430MOL0     C57979   9.023   8.075  -0.802  0.3638 -0.0781  0.5662
  430MOL0     C57980   8.829   8.060  -0.160 -0.1233 -0.9216  0.1474
  430MOL0     C57981   8.772   8.120  -0.043 -1.3241 -0.5836  0.3138
  430MOL0     C57982   8.817   8.259  -0.028  0.0220 -0.6830 -0.1675
  430MOL0     H57983   8.780   8.101   0.439 -1.2285 -1.7909 -2.4631
  430MOL0     H57984   8.749   8.240   0.631 -0.9454  1.5518 -1.4095
  430MOL0     H57985   8.533   8.138   0.840  1.0601  0.4112  1.6767
  430MOL0     H57986   8.648   8.261   0.903  0.5622  0.5952 -1.5846
  430MOL0     H57987   8.340   8.287   0.924 -1.2779 -3.7105  3.3213
  430MOL0     H57988   8.461   8.406   0.976  3.2196 -0.3814 -2.7097
  430MOL0     H57989   8.415   8.308   1.177 -0.1110  1.6225 -1.1668
  430MOL0     H57990   8.538   8.175   1.117  2.2010  4.4565  0.2223
  430MOL0     H57991   8.228   8.175   1.074 -0.2854  0.4995  0.7211
  430MOL0     H57992   8.340   8.059   1.021 -3.5883 -2.4365  1.6103
  430MOL0     H57993   8.252   8.106   1.309 -0.3863 -0.0660 -0.1763
  430MOL0     H57994   8.236   7.968   1.194 -1.6111  1.0660 -1.3168
  430MOL0     H57995   8.507   8.065   1.338  2.9543 -0.7492 -1.2990
  430MOL0     H57996   8.407   7.930   1.383  2.5440 -3.4013 -1.8415
  430MOL0     H57997   8.514   7.887   1.108  0.6314 -2.5600 -1.3584
  430MOL0     H57998   8.434   7.794   1.221  0.1362 -0.0813 -3.7779
  430MOL0     H57999   8.696   7.965   1.247 -0.9333  0.8033 -1.4193
  430MOL0     H58000   8.634   7.861   1.384  2.1640 -0.1481 -0.6856
  430MOL0     H58001   8.611   7.572   1.262 -0.4701 -0.2210 -0.1484
  430MOL0     H58002   8.855   7.421   1.003  0.8407 -0.1116  1.5358
  430MOL0     H58003   8.755   7.374   1.148  1.8718  2.1892  1.8157
  430MOL0     H58004   8.655   7.308   0.915  0.2331  0.5106 -1.3887
  430MOL0     H58005   8.544   7.416   1.005 -0.4570  1.6680 -2.1029
  430MOL0     H58006   8.734   7.485   0.776  0.3624  2.9568 -0.2126
  430MOL0     H58007   8.643   7.599   0.878  0.2842  1.4395 -1.5775
  430MOL0     H58008   8.565   7.542   0.659  2.2931  1.4455  2.8132
  430MOL0     H58009   8.442   7.539   0.790  0.0109  0.9588  0.2639
  430MOL0     H58010   8.442   7.154   0.575 -1.0417 -1.6531  1.1081
  430MOL0     H58011   8.247   7.079   0.462  2.0843 -0.4358  0.1683
  430MOL0     H58012   7.732   7.112   0.528  0.4543 -3.8153 -1.0714
  430MOL0     H58013   7.547   7.026   0.394  2.6619 -1.4015 -2.9509
  430MOL0     H58014   7.370   7.296   0.069 -0.3895  0.2036 -2.3606
  430MOL0     H58015   7.490   7.181  -0.002  1.7562 -1.0598  2.3911
  430MOL0     H58016   7.284   7.029  -0.054 -0.9086  0.0286 -1.3694
  430MOL0     H58017   7.203   7.102   0.075 -1.5052 -0.7151 -0.5035
  430MOL0     H58018   7.113   7.239  -0.074 -1.5777 -1.9039  1.1989
  430MOL0     H58019   7.263   7.287  -0.161  1.1574 -0.9279  0.5591
  430MOL0     H58020   7.102   7.039  -0.198 -0.9813 -0.1898  0.1919
  430MOL0     H58021   7.263   7.075  -0.279  1.8730  3.2588  0.6212
  430MOL0     H58022   7.141   7.267  -0.390  1.6012 -1.9449 -2.5969
  430MOL0     H58023   6.985   7.190  -0.324 -0.1644 -1.0219 -0.4687
  430MOL0     H58024   7.160   7.029  -0.515  0.7299 -0.9660 -0.5504
  430MOL0     H58025   7.001   7.003  -0.459 -0.0797  0.4796 -1.5180
  430MOL0     H58026   7.061   7.117  -0.686  0.6937 -0.9962  1.0034
  430MOL0     H58027   7.082   7.270  -0.613 -1.6949  0.9607 -1.0788
  430MOL0     H58028   6.829   7.104  -0.580 -1.0348  0.6931 -0.0828
  430MOL0     H58029   6.859   7.285  -0.561  0.3281 -0.2969  0.1820
  430MOL0     H58030   7.586   7.366   0.137  2.1097 -0.2051 -0.4033
  430MOL0     H58031   7.767   7.423   0.239 -1.9012  1.4612  2.2237
  430MOL0     H58032   8.065   7.459   0.538 -0.8523 -2.7024  0.9324
  430MOL0     H58033   8.264   7.530   0.647  2.1205  0.4137 -0.9817
  430MOL0     H58034   8.327   8.189   0.601  0.3533  0.5762 -0.0095
  430MOL0     H58035   8.361   8.060   0.400 -1.1443  0.4462  1.0697
  430MOL0     H58036   8.599   7.849   0.075 -0.8818  0.3178 -0.8194
  430MOL0     H58037   8.681   7.757  -0.122  0.9811 -0.7069  3.4192
  430MOL0     H58038   8.962   7.695  -0.336 -0.2204  1.9006 -0.8220
  430MOL0     H58039   9.007   7.783  -0.182 -2.6553 -0.7632  1.4199
  430MOL0     H58040   9.187   7.849  -0.316  0.4536  0.7012  0.4473
  430MOL0     H58041   9.077   7.978  -0.314  0.1847  0.2811  0.5399
  430MOL0     H58042   9.006   7.818  -0.545  0.9894  2.0575 -4.0217
  430MOL0     H58043   9.180   7.836  -0.542 -0.3495 -0.9100  0.3733
  430MOL0     H58044   8.959   8.060  -0.505  1.6251  2.8561  0.4049
  430MOL0     H58045   9.129   8.092  -0.512 -0.7630  0.1103 -1.3058
  430MOL0     H58046   9.025   8.072  -0.909 -1.6734  0.7306  0.4701
  430MOL0     H58047   8.894   8.109  -0.232 -0.5857 -0.6116 -0.0605
  430MOL0     H58048   8.731   8.325  -0.009  0.0459 -0.7078  0.0265
  430MOL0     H58049   8.875   8.252   0.065 -1.3935 -2.3820  0.6506
  430MOL0     H58050   8.885   8.301  -0.102  5.1249 -0.9486  3.8164
  431MOL0     O58051   7.341  10.774   9.588  0.3849  0.4539  0.4766
  431MOL0     C58052   7.450  10.770   9.534 -0.1290  0.2782  0.6387
  431MOL0     O58053   7.565  10.820   9.593 -0.4313  0.4379  0.2907
  431MOL0     C58054   7.548  10.901   9.702 -0.2091 -0.0159 -0.4938
  431MOL0     C58055   7.531  10.846   9.829 -0.4557  0.6387 -0.7304
  431MOL0     C58056   7.512  10.933   9.943 -0.4890  0.2901 -0.8106
  431MOL0     C58057   7.512  11.067   9.924 -0.4053 -0.1073 -0.0627
  431MOL0     O58058   7.502  11.158  10.027 -0.1714  0.3081  1.7886
  431MOL0     C58059   7.624  11.229  10.052 -0.2619 -1.3553 -0.6848
  431MOL0     C58060   7.603  11.323  10.172 -0.1102 -0.0124  0.6364
  431MOL0     C58061   7.718  11.415  10.199 -0.0285 -1.1461 -0.1635
  431MOL0     C58062   7.822  11.356  10.296 -0.6591 -0.6768 -0.4825
  431MOL0     C58063   7.808  11.383  10.450 -0.3475 -0.4281  1.5500
  431MOL0     C58064   7.792  11.532  10.488  0.5532 -0.3992  0.0659
  431MOL0     C58065   7.768  11.552  10.641  0.1171  0.0104 -0.0706
  431MOL0     C58066   7.890  11.523  10.738 -0.3427 -0.4891  0.1273
  431MOL0     N58067   7.855  11.533  10.884  0.0724  0.5542 -0.3827
  431MOL0     C58068   7.950  11.547  10.987 -0.7722 -0.2693 -0.3194
  431MOL0     C58069   7.875  11.553  11.103  0.6388  0.2484  0.5472
  431MOL0     C58070   7.923  11.576  11.242  0.2228  0.4211  0.1878
  431MOL0     C58071   7.978  11.453  11.321 -0.5772  0.1171 -0.2332
  431MOL0     C58072   7.898  11.326  11.297  0.5369 -1.2073  0.5923
  431MOL0     C58073   7.942  11.212  11.387 -0.0024  0.2394 -0.1351
  431MOL0     O58074   7.946  11.248  11.523  0.4303  0.2445 -0.5100
  431MOL0     C58075   8.011  11.157  11.601  0.8197 -0.2037 -0.1210
  431MOL0     C58076   8.092  11.223  11.701  0.2906  0.2515  0.3427
  431MOL0     C58077   8.156  11.142  11.792  0.1561 -0.9451 -0.6051
  431MOL0     C58078   8.141  11.003  11.791 -0.0240  0.2756  0.2907
  431MOL0     C58079   8.220  10.925  11.888  0.4001  0.4541  0.5494
  431MOL0     O58080   8.191  10.795  11.893 -0.4012  0.1484 -0.6042
  431MOL0     C58081   8.241  10.723  11.997 -0.3736  0.0947 -0.0901
  431MOL0     C58082   8.193  10.747  12.127 -0.6405  0.4212  0.1529
  431MOL0     C58083   8.232  10.671  12.235 -0.4381  0.3820 -0.3786
  431MOL0     C58084   8.325  10.573  12.221  0.2571  0.4169 -0.1969
  431MOL0     O58085   8.348  10.511  12.336  0.4193  0.2774 -0.0379
  431MOL0     C58086   8.463  10.430  12.328  0.4169 -0.2373 -0.4046
  431MOL0     C58087   8.532  10.424  12.470 -0.7494  0.5268  0.6853
  431MOL0     C58088   8.637  10.316  12.478  1.6895  0.6437  0.7694
  431MOL0     C58089   8.622  10.220  12.612  0.3504  0.8856 -0.0615
  431MOL0     C58090   8.698  10.274  12.733  0.5511  0.1730 -0.1475
  431MOL0     C58091   8.855  10.264  12.717 -0.1210 -0.3446 -0.1723
  431MOL0     C58092   8.946  10.361  12.785  0.2962 -0.2724  0.6135
  431MOL0     C58093   8.940  10.353  12.932 -0.0145 -0.5424  0.5374
  431MOL0    Cl58094   9.061  10.471  13.012 -0.0177  0.0250 -0.1284
  431MOL0     C58095   8.379  10.549  12.092  0.5301  0.2442 -0.1194
  431MOL0     C58096   8.337  10.625  11.981  0.1914  0.6594 -0.0563
  431MOL0     O58097   8.289  10.982  11.975 -0.6576  0.2563 -0.1424
  431MOL0     C58098   8.052  10.940  11.704 -0.5438 -1.3109  0.9078
  431MOL0     C58099   7.986  11.012  11.605  0.0520 -0.9913 -0.1442
  431MOL0     N58100   7.744  11.525  11.068  0.1625  0.5978  0.6877
  431MOL0     N58101   7.732  11.505  10.940  0.5387 -0.1394  0.9880
  431MOL0     C58102   7.535  11.122   9.797  0.0471  0.4680  0.0822
  431MOL0     C58103   7.554  11.038   9.689 -0.3056 -0.5330  0.2777
  431MOL0     C58104   7.456  10.702   9.403  0.4300 -0.4771  0.6951
  431MOL0     C58105   7.340  10.620   9.374  1.0807  0.1981  0.0311
  431MOL0     C58106   7.327  10.539   9.266 -0.3972 -0.0351  1.1325
  431MOL0     C58107   7.434  10.535   9.175 -0.1085  0.0214 -0.3232
  431MOL0     O58108   7.428  10.455   9.062 -0.2942  0.7191  0.1937
  431MOL0     C58109   7.519  10.484   8.953 -0.0142 -0.4964 -0.2245
  431MOL0     C58110   7.616  10.364   8.923  0.1931 -0.2284 -0.0033
  431MOL0     C58111   7.743  10.370   9.010  0.2337 -0.0981 -0.5394
  431MOL0     C58112   7.848  10.474   8.967 -0.5865 -0.4604 -0.2472
  431MOL0     C58113   7.928  10.426   8.851 -1.0210 -0.2963 -0.4234
  431MOL0     C58114   7.966  10.381   8.744 -0.5865 -0.6699 -0.0727
  431MOL0     C58115   7.560  10.610   9.202 -0.1318 -0.6940  0.4854
  431MOL0     C58116   7.567  10.695   9.312 -0.0801 -0.2083 -1.1455
  431MOL0     C58117   7.700  10.772   9.340  0.0081  0.3902  0.0551
  431MOL0     H58118   7.512  10.740   9.846 -1.9572  1.0469  0.3516
  431MOL0     H58119   7.484  10.891  10.039  0.0041 -0.1598 -0.8547
  431MOL0     H58120   7.705  11.159  10.072  1.6559  1.2539  1.3461
  431MOL0     H58121   7.667  11.300   9.981  0.1244  0.6600  1.4493
  431MOL0     H58122   7.585  11.258  10.257 -0.3343 -2.3079 -1.0737
  431MOL0     H58123   7.510  11.379  10.165  1.6499  3.2555  1.3002
  431MOL0     H58124   7.679  11.509  10.240 -1.2048 -1.3003 -0.8771
  431MOL0     H58125   7.749  11.452  10.101 -1.4960  0.8895  0.0743
  431MOL0     H58126   7.830  11.248  10.283 -1.9143 -0.7623 -0.6724
  431MOL0     H58127   7.917  11.404  10.271 -0.8473 -0.7544 -1.3982
  431MOL0     H58128   7.714  11.340  10.486 -1.8306  1.0775 -0.3102
  431MOL0     H58129   7.894  11.343  10.506  1.9644  0.3120 -1.2079
  431MOL0     H58130   7.882  11.592  10.468  0.5980 -0.5808 -0.2878
  431MOL0     H58131   7.702  11.572  10.440  1.1638 -0.0249 -0.7957
  431MOL0     H58132   7.686  11.488  10.676 -1.6294  2.3974  0.4649
  431MOL0     H58133   7.740  11.657  10.651  0.3395 -0.0840  2.0071
  431MOL0     H58134   7.940  11.432  10.705 -0.4292  0.0951 -1.7176
  431MOL0     H58135   7.967  11.600  10.733  1.2534 -1.3717  5.2448
  431MOL0     H58136   8.056  11.565  10.978  0.4617 -4.7615  2.4823
  431MOL0     H58137   8.001  11.652  11.236 -0.0467  0.6825 -0.1356
  431MOL0     H58138   7.838  11.611  11.301 -0.1487  0.7484 -0.5191
  431MOL0     H58139   8.081  11.440  11.287 -0.3278  2.9108 -0.7664
  431MOL0     H58140   7.974  11.476  11.428  0.8598 -0.3508 -0.0557
  431MOL0     H58141   7.920  11.278  11.202  2.6797 -3.4084  2.0628
  431MOL0     H58142   7.793  11.354  11.310  1.3507  2.6316 -0.1556
  431MOL0     H58143   8.039  11.184  11.345 -1.9568 -5.4892 -1.7470
  431MOL0     H58144   7.877  11.124  11.381 -0.0456  0.3482 -1.5671
  431MOL0     H58145   8.095  11.331  11.696  4.0681  0.2042 -2.4895
  431MOL0     H58146   8.193  11.196  11.878 -1.7367 -1.7220  0.7658
  431MOL0     H58147   8.109  10.815  12.125 -1.2738 -0.3551 -1.8253
  431MOL0     H58148   8.181  10.693  12.327 -3.0956 -3.2751 -0.7448
  431MOL0     H58149   8.437  10.332  12.287 -0.2852 -0.4416  0.5146
  431MOL0     H58150   8.542  10.479  12.269  0.2461 -1.1643 -1.4438
  431MOL0     H58151   8.573  10.517  12.509 -1.0610 -0.1111  2.6182
  431MOL0     H58152   8.459  10.391  12.544  1.7007 -3.5466  1.5934
  431MOL0     H58153   8.608  10.249  12.396  1.7247  1.4029  0.1237
  431MOL0     H58154   8.737  10.358  12.469  1.7282  0.3425 -0.3287
  431MOL0     H58155   8.652  10.116  12.594  1.0627  0.2162  4.1020
  431MOL0     H58156   8.521  10.200  12.649  0.2650  1.3863 -0.0261
  431MOL0     H58157   8.669  10.216  12.821  0.4724  1.2846  0.5807
  431MOL0     H58158   8.666  10.378  12.749 -3.2823 -0.6621 -1.4289
  431MOL0     H58159   8.882  10.160  12.739  0.3461  0.4362  3.6369
  431MOL0     H58160   8.879  10.285  12.612 -0.8757  0.8946 -0.1120
  431MOL0     H58161   8.934  10.467  12.757  5.8389  0.4901 -0.1908
  431MOL0     H58162   9.046  10.337  12.748 -0.0062  0.4699 -0.8038
  431MOL0     H58163   8.835  10.364  12.963 -0.5593 -0.6804 -1.1446
  431MOL0     H58164   8.969  10.258  12.975 -1.7373  0.2052  3.6675
  431MOL0     H58165   8.455  10.472  12.084  0.3702 -0.1387  1.7137
  431MOL0     H58166   8.372  10.603  11.881 -2.1320 -2.6193 -0.3133
  431MOL0     H58167   8.040  10.832  11.713  2.4142 -1.7566  0.7477
  431MOL0     H58168   7.918  10.961  11.537 -1.3269  1.5658 -0.8356
  431MOL0     H58169   7.516  11.228   9.783  1.8782  0.6342 -1.5865
  431MOL0     H58170   7.549  11.090   9.593 -0.5544 -1.3892 -0.1799
  431MOL0     H58171   7.249  10.624   9.432  0.1246  0.8754 -1.4600
  431MOL0     H58172   7.246  10.468   9.253  1.8179 -2.2272 -2.6013
  431MOL0     H58173   7.561  10.585   8.953 -1.1017 -0.0177  0.5085
  431MOL0     H58174   7.451  10.494   8.867  0.3759  1.9515 -0.3113
  431MOL0     H58175   7.642  10.368   8.817 -2.7255 -1.3688 -0.8642
  431MOL0     H58176   7.567  10.268   8.941  0.3167 -0.0174  1.5358
  431MOL0     H58177   7.785  10.270   9.021 -0.3990 -0.3669 -0.5457
  431MOL0     H58178   7.707  10.395   9.110 -1.5807 -0.7517 -0.9992
  431MOL0     H58179   7.793  10.566   8.947 -1.0835 -1.0351 -1.6653
  431MOL0     H58180   7.910  10.495   9.055  0.8719 -0.9693 -1.1006
  431MOL0     H58181   8.003  10.343   8.651  2.8463  1.2162  0.3472
  431MOL0     H58182   7.642  10.605   9.131  1.0254  1.8687  1.5154
  431MOL0     H58183   7.748  10.781   9.243  1.1690  2.8030  0.7870
  431MOL0     H58184   7.679  10.874   9.376 -1.0703  0.6446 -1.2161
  431MOL0     H58185   7.759  10.711   9.409 -1.7003  1.8517  3.0147
  432MOL0     O58186   3.974   3.632   5.027 -0.0486 -0.4235  0.4816
  432MOL0     C58187   3.931   3.598   4.919  0.2811 -0.5754 -0.3629
  432MOL0     O58188   4.007   3.583   4.814  0.0974  0.7570  0.8765
  432MOL0     C58189   4.137   3.626   4.811 -0.4695 -0.0319  1.3578
  432MOL0     C58190   4.236   3.571   4.891  0.4444  0.5586  0.5113
  432MOL0     C58191   4.369   3.612   4.881 -0.8911  0.1886  0.0669
  432MOL0     C58192   4.405   3.705   4.781 -0.1241  0.5065  0.5108
  432MOL0     O58193   4.533   3.752   4.763  0.0023  0.1794 -0.0260
  432MOL0     C58194   4.566   3.889   4.784  0.5964 -0.0858 -0.4182
  432MOL0     C58195   4.714   3.935   4.758 -0.2778 -0.0199 -0.5365
  432MOL0     C58196   4.732   3.954   4.611 -0.0618 -0.2081  0.1098
  432MOL0     C58197   4.881   3.989   4.572 -0.0664 -0.6943 -0.5423
  432MOL0     C58198   4.903   3.994   4.423  0.1789 -0.6677 -0.3789
  432MOL0     C58199   5.045   4.054   4.388  0.0141 -0.3910 -0.0267
  432MOL0     C58200   5.075   4.031   4.238 -0.0610  0.3403 -0.0753
  432MOL0     C58201   5.196   4.128   4.191  0.9102  0.0289  0.0534
  432MOL0     N58202   5.260   4.085   4.070 -0.1622 -0.6831  0.3857
  432MOL0     C58203   5.192   4.033   3.966 -0.3439  0.6860  0.2869
  432MOL0     C58204   5.285   3.996   3.877  0.0694  0.9313  0.1125
  432MOL0     C58205   5.249   3.947   3.738  0.2772  1.4416 -0.8173
  432MOL0     C58206   5.361   3.847   3.694 -0.4153 -1.4646  0.8930
  432MOL0     C58207   5.321   3.766   3.568 -0.0821  0.4571 -0.7683
  432MOL0     C58208   5.324   3.853   3.443 -0.3176  0.0355  0.3542
  432MOL0     O58209   5.457   3.909   3.410  0.7402 -0.6951 -0.1497
  432MOL0     C58210   5.461   4.030   3.353  0.1603 -0.2155 -0.4442
  432MOL0     C58211   5.584   4.100   3.355  0.4172  1.0871 -0.2681
  432MOL0     C58212   5.597   4.220   3.277 -0.3436  0.4715  0.6087
  432MOL0     C58213   5.485   4.267   3.200  1.0334 -0.4052  0.0353
  432MOL0     C58214   5.493   4.400   3.130  0.2214  0.1073  0.4226
  432MOL0     O58215   5.387   4.428   3.055  0.3521 -0.5436 -0.1676
  432MOL0     C58216   5.378   4.565   3.004 -0.2555  0.3844  1.0537
  432MOL0     C58217   5.376   4.670   3.092 -0.1457  1.0133 -0.2748
  432MOL0     C58218   5.384   4.807   3.043 -0.0679  1.3562 -0.6492
  432MOL0     C58219   5.384   4.825   2.904  0.3581  0.1515 -0.4954
  432MOL0     O58220   5.399   4.961   2.878  0.3824  0.1273  0.1513
  432MOL0     C58221   5.325   5.008   2.759 -0.2267  1.1057 -0.0580
  432MOL0     C58222   5.323   5.158   2.723 -0.5526 -0.3680  0.3654
  432MOL0     C58223   5.272   5.183   2.574 -0.7934 -1.0109 -0.7783
  432MOL0     C58224   5.123   5.162   2.562  1.2849 -0.3400 -0.7593
  432MOL0     C58225   5.068   5.221   2.432 -0.1485 -0.2545  0.0729
  432MOL0     C58226   4.910   5.204   2.418 -0.3258  0.3963 -0.2055
  432MOL0     C58227   4.853   5.242   2.289  0.9342 -0.4659  0.4746
  432MOL0     C58228   4.701   5.210   2.281 -0.6290 -0.6537  0.1845
  432MOL0    Cl58229   4.618   5.299   2.411  0.0105 -0.0317 -0.0812
  432MOL0     C58230   5.376   4.717   2.808  0.3342 -0.1081 -0.4114
  432MOL0     C58231   5.361   4.587   2.865 -0.0420 -0.2015  0.2519
  432MOL0     O58232   5.584   4.477   3.163  0.2697  0.1132  0.0202
  432MOL0     C58233   5.363   4.193   3.212 -1.1600 -0.8799  0.9981
  432MOL0     C58234   5.355   4.083   3.287  0.7110  0.2276 -0.1598
  432MOL0     N58235   5.415   4.025   3.932  0.1424  0.2137  0.1730
  432MOL0     N58236   5.400   4.065   4.051  0.0362  0.0786  0.0808
  432MOL0     C58237   4.311   3.766   4.693  0.1751 -0.2677 -0.5424
  432MOL0     C58238   4.178   3.712   4.706  0.0306 -0.3246  0.5054
  432MOL0     C58239   3.785   3.582   4.902  0.0036 -0.1047 -0.8813
  432MOL0     C58240   3.734   3.515   4.789 -0.3194  1.1834  0.2514
  432MOL0     C58241   3.593   3.491   4.772 -1.2129  0.7767  0.0003
  432MOL0     C58242   3.513   3.542   4.863  0.2243 -0.3909 -0.1015
  432MOL0     O58243   3.378   3.517   4.848  0.1046 -0.7371  0.7477
  432MOL0     C58244   3.278   3.545   4.949  0.2120 -1.0260  0.2244
  432MOL0     C58245   3.134   3.513   4.911  0.4874  0.1735  0.0425
  432MOL0     C58246   3.086   3.552   4.768 -0.9304 -0.0683 -0.7255
  432MOL0     C58247   2.937   3.522   4.738 -0.1953 -0.1871 -0.4452
  432MOL0     C58248   2.899   3.568   4.605 -0.0155  0.4989 -0.0761
  432MOL0     C58249   2.860   3.592   4.494 -0.0225 -0.1946 -0.1975
  432MOL0     C58250   3.555   3.627   4.960  0.7368 -0.2255  0.7339
  432MOL0     C58251   3.690   3.637   4.997  0.7145  0.7686 -0.0881
  432MOL0     C58252   3.729   3.703   5.128  0.4958  0.1454 -0.8171
  432MOL0     H58253   4.200   3.497   4.962  1.4748 -0.9791 -0.4984
  432MOL0     H58254   4.436   3.544   4.933 -3.2285 -0.5276  2.4058
  432MOL0     H58255   4.498   3.959   4.734 -1.4041 -1.5999  0.0646
  432MOL0     H58256   4.546   3.908   4.890  0.0924  1.0289 -0.6959
  432MOL0     H58257   4.768   3.851   4.803  0.5742  1.4870  1.4028
  432MOL0     H58258   4.734   4.020   4.824 -1.6698  0.8734 -1.2249
  432MOL0     H58259   4.666   4.033   4.573  0.6215 -0.0201 -0.7192
  432MOL0     H58260   4.711   3.858   4.561  0.5993  0.7847 -2.2111
  432MOL0     H58261   4.895   4.094   4.601  0.6495 -1.5707  2.6748
  432MOL0     H58262   4.949   3.921   4.624 -0.0881  0.0785  0.5487
  432MOL0     H58263   4.892   3.894   4.379  1.5399 -0.4044 -1.4160
  432MOL0     H58264   4.826   4.051   4.370  0.4844  1.8662  1.7268
  432MOL0     H58265   5.040   4.163   4.391  0.8231 -0.2418 -2.0774
  432MOL0     H58266   5.136   4.031   4.443  0.0773 -0.2997 -0.0915
  432MOL0     H58267   4.988   4.053   4.175 -0.1055 -2.0216 -0.9347
  432MOL0     H58268   5.108   3.930   4.214  0.1352  0.6903 -1.3672
  432MOL0     H58269   5.167   4.234   4.195  0.3592 -0.1644  2.8280
  432MOL0     H58270   5.279   4.119   4.261  1.7104 -0.4631 -0.9245
  432MOL0     H58271   5.087   4.009   3.950 -0.2027 -0.7127  1.2746
  432MOL0     H58272   5.151   3.900   3.730 -0.5077  2.8699  0.0712
  432MOL0     H58273   5.248   4.030   3.667  2.3396  0.7477 -1.7651
  432MOL0     H58274   5.453   3.903   3.675 -0.2513 -2.4404 -1.6100
  432MOL0     H58275   5.385   3.779   3.777  0.0866 -0.4129  1.6231
  432MOL0     H58276   5.221   3.723   3.576 -1.6145  3.8646  0.5007
  432MOL0     H58277   5.399   3.691   3.550 -1.4086 -0.9026 -0.9492
  432MOL0     H58278   5.254   3.935   3.460 -0.1176  0.1733  0.5164
  432MOL0     H58279   5.286   3.789   3.362  0.2433 -1.6173  1.3486
  432MOL0     H58280   5.666   4.070   3.418  1.0422  3.0319 -0.1038
  432MOL0     H58281   5.694   4.268   3.281 -0.1786  0.3723 -1.2853
  432MOL0     H58282   5.374   4.655   3.200  1.6894 -1.9389 -0.5765
  432MOL0     H58283   5.390   4.896   3.104  0.2996  0.2801  0.9728
  432MOL0     H58284   5.369   4.955   2.674 -0.1573 -2.0412  1.7694
  432MOL0     H58285   5.222   4.976   2.776  0.0100 -0.6038 -1.5291
  432MOL0     H58286   5.261   5.212   2.795 -0.8223  0.6252 -0.5811
  432MOL0     H58287   5.424   5.201   2.716 -0.6646 -0.4041 -3.1584
  432MOL0     H58288   5.301   5.286   2.554 -2.6652 -0.5844 -1.5523
  432MOL0     H58289   5.332   5.135   2.495 -1.6564 -0.0852 -2.0405
  432MOL0     H58290   5.080   5.201   2.654  0.2835 -0.1667 -1.2897
  432MOL0     H58291   5.107   5.053   2.562 -0.1408 -0.2069 -3.3675
  432MOL0     H58292   5.111   5.183   2.339  1.1149  4.7391 -1.7234
  432MOL0     H58293   5.098   5.326   2.432  2.4738 -0.8965  1.5908
  432MOL0     H58294   4.886   5.099   2.438  0.9215  0.4172  1.6740
  432MOL0     H58295   4.860   5.257   2.499  0.5225  0.9783 -0.0411
  432MOL0     H58296   4.907   5.184   2.214  0.8767 -3.0517  2.2730
  432MOL0     H58297   4.876   5.347   2.272  0.2463 -0.2926  0.5851
  432MOL0     H58298   4.657   5.233   2.184  0.0203  1.1057  0.2741
  432MOL0     H58299   4.687   5.102   2.292  0.8928 -0.7210  2.1418
  432MOL0     H58300   5.369   4.740   2.702 -2.5003  1.5800  0.0286
  432MOL0     H58301   5.342   4.502   2.801  0.8550  0.1946 -0.5501
  432MOL0     H58302   5.282   4.253   3.171  1.7174  3.1420  0.5091
  432MOL0     H58303   5.261   4.030   3.276  0.6865 -0.3425  2.2079
  432MOL0     H58304   4.340   3.842   4.622 -0.5716 -0.5295 -1.1501
  432MOL0     H58305   4.115   3.761   4.632  0.2642  1.3605  1.3750
  432MOL0     H58306   3.807   3.486   4.713  0.3605  4.1375 -0.3625
  432MOL0     H58307   3.548   3.443   4.686 -1.0548  0.8395 -0.1179
  432MOL0     H58308   3.283   3.654   4.956 -0.0549 -0.7855 -2.3853
  432MOL0     H58309   3.312   3.497   5.041  0.1041  1.9064  1.8965
  432MOL0     H58310   3.060   3.554   4.981 -0.3549 -0.4123 -0.4856
  432MOL0     H58311   3.132   3.404   4.915  1.9818  0.1452  2.1554
  432MOL0     H58312   3.159   3.509   4.699  3.8773  2.6422  2.1727
  432MOL0     H58313   3.087   3.661   4.759 -5.3561 -0.0174 -5.0156
  432MOL0     H58314   2.918   3.416   4.757  0.3868  0.0435  1.6438
  432MOL0     H58315   2.878   3.570   4.816 -1.1235 -1.1597 -0.5097
  432MOL0     H58316   2.833   3.615   4.392 -0.3277  0.5245  0.0329
  432MOL0     H58317   3.487   3.696   5.009 -0.4857  0.8557 -2.2627
  432MOL0     H58318   3.808   3.775   5.108  0.1560  0.7638 -0.0214
  432MOL0     H58319   3.645   3.760   5.170  1.4546  2.1084 -1.4703
  432MOL0     H58320   3.764   3.626   5.198 -1.0240 -1.8552 -2.1682
  433MOL0     O58321   3.558   7.420   8.857  0.0715 -0.0311  0.3705
  433MOL0     C58322   3.667   7.431   8.803 -0.1621  0.1205  1.0785
  433MOL0     O58323   3.680   7.427   8.669 -0.0402 -0.2566  0.5712
  433MOL0     C58324   3.561   7.394   8.590  0.1048 -0.0709 -0.4082
  433MOL0     C58325   3.528   7.269   8.544  0.0549  0.5821 -0.5787
  433MOL0     C58326   3.416   7.245   8.472  0.2397  0.4837 -0.1206
  433MOL0     C58327   3.327   7.345   8.440 -0.4509 -0.0739  0.3530
  433MOL0     O58328   3.219   7.307   8.369 -0.5456 -0.6665  0.6805
  433MOL0     C58329   3.107   7.396   8.353 -0.3990 -0.1193  0.6022
  433MOL0     C58330   3.023   7.341   8.234  0.0901 -0.1346 -0.1268
  433MOL0     C58331   2.906   7.432   8.205  0.5047  0.2078  0.4053
  433MOL0     C58332   2.823   7.386   8.075 -0.7128  0.3121  0.2835
  433MOL0     C58333   2.725   7.487   8.027  0.0540  0.4404  0.0725
  433MOL0     C58334   2.705   7.476   7.871 -0.4902  0.0481 -0.1738
  433MOL0     C58335   2.650   7.589   7.787  0.5341  0.8950  0.7267
  433MOL0     C58336   2.757   7.673   7.717  0.0322 -0.1004 -1.4564
  433MOL0     N58337   2.700   7.788   7.653 -0.1343  0.4919 -0.1259
  433MOL0     C58338   2.674   7.810   7.516  0.4143  0.6379 -0.3860
  433MOL0     C58339   2.659   7.941   7.500  0.1396  0.8862  0.3563
  433MOL0     C58340   2.632   8.018   7.374  0.4633 -0.1075 -0.0334
  433MOL0     C58341   2.758   8.006   7.283 -0.0055 -0.0325 -0.6756
  433MOL0     C58342   2.741   8.068   7.150 -1.1225  0.4932 -0.4886
  433MOL0     C58343   2.760   8.225   7.129 -0.8921  0.8973  0.5733
  433MOL0     O58344   2.663   8.288   7.205  0.4372 -0.1370  0.1473
  433MOL0     C58345   2.645   8.422   7.201 -0.4342  0.9538 -0.6955
  433MOL0     C58346   2.550   8.476   7.289 -1.0417 -0.3038  0.3764
  433MOL0     C58347   2.524   8.611   7.278 -0.0582  0.9190  0.3122
  433MOL0     C58348   2.609   8.698   7.217  0.2393 -1.0742 -0.0317
  433MOL0     C58349   2.611   8.848   7.240  0.5474  0.4969 -0.5637
  433MOL0     O58350   2.572   8.892   7.370 -0.8069 -0.5910  0.6945
  433MOL0     C58351   2.558   9.028   7.386 -0.0268  0.2647 -0.8576
  433MOL0     C58352   2.431   9.077   7.434 -1.1591 -0.2530  0.0635
  433MOL0     C58353   2.417   9.215   7.459 -0.8803 -0.1963 -0.2999
  433MOL0     C58354   2.511   9.318   7.429 -1.0348 -0.1570  0.6443
  433MOL0     O58355   2.490   9.457   7.443 -0.0820  0.0955 -0.1500
  433MOL0     C58356   2.566   9.537   7.354 -0.3117 -0.0591  0.1207
  433MOL0     C58357   2.478   9.657   7.313 -0.1458  0.4018  0.2413
  433MOL0     C58358   2.574   9.762   7.239 -0.0773 -0.0951  0.1378
  433MOL0     C58359   2.497   9.884   7.175  0.1842 -0.7628 -0.0476
  433MOL0     C58360   2.595   9.986   7.119 -0.6505  0.4708  0.2762
  433MOL0     C58361   2.623  10.104   7.208 -0.2228 -0.5532  0.1564
  433MOL0     C58362   2.725  10.205   7.143 -0.6203  0.4725  0.2593
  433MOL0     C58363   2.697  10.348   7.158 -0.0772 -0.5362 -0.2568
  433MOL0    Cl58364   2.635  10.389   7.315  0.2787 -0.4545  0.0670
  433MOL0     C58365   2.631   9.265   7.378 -0.2809  0.3491  0.1395
  433MOL0     C58366   2.655   9.120   7.356  0.0738 -0.6359 -1.8698
  433MOL0     O58367   2.646   8.918   7.147  0.1427 -0.1762 -0.0871
  433MOL0     C58368   2.710   8.642   7.133 -0.4893  0.3135  0.6211
  433MOL0     C58369   2.722   8.506   7.117  0.2269  0.6165  0.7275
  433MOL0     N58370   2.696   7.998   7.623 -0.0471  0.5930 -0.4975
  433MOL0     N58371   2.714   7.907   7.712 -0.0975 -0.1029  0.1810
  433MOL0     C58372   3.361   7.476   8.485  0.2081  0.5562 -0.0088
  433MOL0     C58373   3.476   7.504   8.552  0.1997 -1.3714 -0.4984
  433MOL0     C58374   3.784   7.449   8.896 -0.1447  0.5545 -0.6995
  433MOL0     C58375   3.765   7.405   9.027 -0.6047  0.1890  0.1047
  433MOL0     C58376   3.868   7.414   9.121 -0.0451  0.2419  0.7966
  433MOL0     C58377   3.984   7.480   9.091  0.0111 -0.1457  0.1076
  433MOL0     O58378   4.086   7.498   9.179  0.4688  0.1585  0.0785
  433MOL0     C58379   4.101   7.413   9.294 -0.0195 -0.0439  0.8043
  433MOL0     C58380   4.118   7.269   9.258 -0.4780 -0.4695  0.7442
  433MOL0     C58381   4.236   7.240   9.165  0.5805  0.0969 -0.5887
  433MOL0     C58382   4.364   7.217   9.245  0.2948  0.1816  0.5451
  433MOL0     C58383   4.484   7.236   9.168  0.4726  0.7726  0.8924
  433MOL0     C58384   4.585   7.247   9.108  0.3709 -0.5446  0.4150
  433MOL0     C58385   4.011   7.531   8.963  0.0706  0.1850 -0.1249
  433MOL0     C58386   3.915   7.510   8.858 -0.4766 -0.0214 -0.1927
  433MOL0     C58387   3.949   7.559   8.717  0.0968  0.6663 -0.2433
  433MOL0     H58388   3.598   7.193   8.576  0.0849  1.2618  1.0472
  433MOL0     H58389   3.389   7.142   8.452  0.8937 -0.1948  2.1901
  433MOL0     H58390   3.038   7.394   8.439 -0.2856  4.4069  1.0625
  433MOL0     H58391   3.138   7.498   8.328 -0.0630 -0.3119  0.2342
  433MOL0     H58392   2.961   7.254   8.259 -0.2647  0.0132 -0.4913
  433MOL0     H58393   3.079   7.332   8.140 -1.1594 -0.5686 -0.8598
  433MOL0     H58394   2.939   7.536   8.201 -0.6636  0.5978 -2.8960
  433MOL0     H58395   2.837   7.426   8.290  2.4070 -3.0582  1.8852
  433MOL0     H58396   2.888   7.358   7.991 -1.6499  3.1973 -1.5391
  433MOL0     H58397   2.761   7.298   8.095 -0.0296 -0.1356  0.4824
  433MOL0     H58398   2.634   7.461   8.082  0.4896 -3.7482 -0.8327
  433MOL0     H58399   2.747   7.591   8.051 -1.1004  1.5157 -3.0462
  433MOL0     H58400   2.798   7.441   7.825  1.2945  2.6973  1.1845
  433MOL0     H58401   2.639   7.392   7.847 -1.8281  1.0531 -0.1798
  433MOL0     H58402   2.582   7.646   7.851  0.7158 -0.4363  2.1521
  433MOL0     H58403   2.592   7.547   7.705 -0.8973  0.9815  1.6545
  433MOL0     H58404   2.828   7.702   7.795  2.1406  1.9796 -3.9750
  433MOL0     H58405   2.806   7.602   7.650 -1.2738 -1.8924 -0.5936
  433MOL0     H58406   2.652   7.744   7.432  0.3235  0.1229  0.0371
  433MOL0     H58407   2.558   7.969   7.310 -0.0464  2.2357 -1.3234
  433MOL0     H58408   2.605   8.122   7.393  1.8853  0.3464 -0.3744
  433MOL0     H58409   2.828   8.073   7.335 -1.9400  0.9705  0.7585
  433MOL0     H58410   2.808   7.909   7.289  1.3594  0.7039  0.9023
  433MOL0     H58411   2.653   8.031   7.097 -0.8114  0.0312 -0.6921
  433MOL0     H58412   2.820   8.024   7.089 -0.7369  0.5486 -0.0381
  433MOL0     H58413   2.764   8.256   7.024 -1.6286  2.3591  0.9581
  433MOL0     H58414   2.860   8.252   7.164  0.4521 -1.5881 -1.0323
  433MOL0     H58415   2.499   8.406   7.354 -1.7136 -1.0337 -0.8998
  433MOL0     H58416   2.443   8.659   7.332 -2.3813 -0.1456 -1.9744
  433MOL0     H58417   2.348   9.009   7.452  0.4527 -2.0087  1.3101
  433MOL0     H58418   2.322   9.226   7.511 -1.8014 -1.7407 -1.5765
  433MOL0     H58419   2.657   9.567   7.408 -0.1459  0.3012 -0.3559
  433MOL0     H58420   2.595   9.488   7.260 -0.3990 -0.0454  0.0871
  433MOL0     H58421   2.399   9.620   7.247  1.3571  0.7926 -1.8738
  433MOL0     H58422   2.426   9.704   7.397 -4.2064 -0.9371 -1.2974
  433MOL0     H58423   2.659   9.794   7.300 -0.8619  2.6352 -0.0784
  433MOL0     H58424   2.603   9.705   7.151 -2.5227 -2.1863  0.5651
  433MOL0     H58425   2.432   9.929   7.251  1.7364 -1.1499  1.5889
  433MOL0     H58426   2.436   9.853   7.090  2.6742  1.4952 -2.8414
  433MOL0     H58427   2.560  10.016   7.020 -1.1797 -2.5204 -0.5496
  433MOL0     H58428   2.693   9.938   7.112 -0.3005  1.0087  1.2710
  433MOL0     H58429   2.528  10.159   7.207  0.6929  1.1163  0.3299
  433MOL0     H58430   2.649  10.070   7.308 -0.3486 -0.1432  0.3296
  433MOL0     H58431   2.743  10.186   7.037  1.0798 -2.9997  1.0239
  433MOL0     H58432   2.827  10.186   7.177 -1.1728  0.2314  1.8613
  433MOL0     H58433   2.786  10.410   7.146 -0.3850 -0.0796 -0.2158
  433MOL0     H58434   2.618  10.376   7.086 -2.7206 -3.2736  1.3650
  433MOL0     H58435   2.714   9.329   7.350  1.0171 -0.9303  0.8991
  433MOL0     H58436   2.750   9.081   7.320  0.6687 -1.4949  0.4790
  433MOL0     H58437   2.767   8.709   7.069 -0.8267  0.5890  0.6046
  433MOL0     H58438   2.794   8.468   7.045 -0.6346 -0.3940  0.3627
  433MOL0     H58439   3.297   7.557   8.450  0.9514  0.2836 -2.1716
  433MOL0     H58440   3.510   7.604   8.579  1.3866 -2.0644  0.6807
  433MOL0     H58441   3.672   7.366   9.066 -0.2699 -0.0004  0.7296
  433MOL0     H58442   3.862   7.368   9.219 -0.6290 -0.8022  0.2898
  433MOL0     H58443   4.011   7.420   9.356 -0.7129 -0.5434 -0.1134
  433MOL0     H58444   4.184   7.450   9.355 -1.5101  2.0688  1.7129
  433MOL0     H58445   4.020   7.237   9.222 -0.6617  1.7243 -0.9161
  433MOL0     H58446   4.135   7.213   9.351  3.0472 -1.9276 -0.5949
  433MOL0     H58447   4.251   7.320   9.093  1.3705 -1.6516 -2.4564
  433MOL0     H58448   4.213   7.153   9.103 -1.2592 -0.0696  0.2479
  433MOL0     H58449   4.376   7.295   9.322  2.0915 -0.2466  0.7360
  433MOL0     H58450   4.360   7.113   9.278 -4.4547 -1.6495 -4.3268
  433MOL0     H58451   4.681   7.246   9.061 -0.9153 -1.2533 -2.3622
  433MOL0     H58452   4.106   7.577   8.939  0.1453 -0.0016 -0.1912
  433MOL0     H58453   3.923   7.483   8.642 -1.0740 -0.0005  0.8089
  433MOL0     H58454   3.886   7.644   8.693  0.4129  0.7522 -0.8085
  433MOL0     H58455   4.054   7.586   8.703 -0.3527  1.4420 -2.5414
  434MOL0     O58456   5.086   9.309   1.477 -0.2337  0.4648 -0.1946
  434MOL0     C58457   5.162   9.210   1.495  0.5457  0.4588 -0.4760
  434MOL0     O58458   5.242   9.147   1.405  0.5652  0.1864 -0.4166
  434MOL0     C58459   5.229   9.194   1.277 -0.5383 -0.4679 -0.0142
  434MOL0     C58460   5.170   9.109   1.185 -0.1672  0.7699 -0.5340
  434MOL0     C58461   5.178   9.127   1.049 -0.0361  0.2268 -0.1388
  434MOL0     C58462   5.246   9.232   0.994 -0.0640 -0.3889 -0.5403
  434MOL0     O58463   5.251   9.252   0.858  0.0360 -0.6890  0.5548
  434MOL0     C58464   5.365   9.329   0.808 -0.7348 -0.0205 -0.3932
  434MOL0     C58465   5.387   9.299   0.662 -0.4045 -0.7122  1.4566
  434MOL0     C58466   5.501   9.394   0.600  0.3369  0.0945  0.3071
  434MOL0     C58467   5.461   9.542   0.598 -0.6985  1.3684 -0.0294
  434MOL0     C58468   5.562   9.631   0.525  0.1750 -0.7478  0.7320
  434MOL0     C58469   5.711   9.611   0.576  0.3788  0.3950  0.2563
  434MOL0     C58470   5.801   9.726   0.518 -0.7697 -0.6689  0.1362
  434MOL0     C58471   5.947   9.721   0.577 -0.0394  0.6895 -0.0306
  434MOL0     N58472   6.041   9.826   0.551 -0.4169 -0.1527  0.0490
  434MOL0     C58473   6.056   9.875   0.420  1.3723  0.4862  0.6088
  434MOL0     C58474   6.172   9.941   0.420 -0.5483 -0.8262 -0.7487
  434MOL0     C58475   6.212  10.020   0.297 -0.7580  0.4414  1.0451
  434MOL0     C58476   6.354  10.083   0.297  0.1644 -0.1331 -0.5043
  434MOL0     C58477   6.468   9.978   0.263  0.0758 -0.0440  0.5764
  434MOL0     C58478   6.580  10.009   0.362 -0.4173  0.1035  1.4101
  434MOL0     O58479   6.655  10.115   0.299  0.0352  0.0170  0.2162
  434MOL0     C58480   6.795  10.117   0.301 -0.1130 -0.4430 -0.6122
  434MOL0     C58481   6.839  10.239   0.260  0.6286  0.8669 -0.8170
  434MOL0     C58482   6.976  10.268   0.264 -0.2011  0.1032 -0.5117
  434MOL0     C58483   7.070  10.181   0.320  1.1490  0.0027 -0.4429
  434MOL0     C58484   7.210  10.199   0.345 -0.1139  0.5554 -0.3738
  434MOL0     O58485   7.274  10.123   0.451  0.6038 -0.2367 -0.1104
  434MOL0     C58486   7.401  10.149   0.506 -0.0388  0.2605 -0.7171
  434MOL0     C58487   7.471  10.049   0.579 -0.1334 -0.6080 -0.2257
  434MOL0     C58488   7.588  10.090   0.643 -0.0332  1.1404 -0.3410
  434MOL0     C58489   7.649  10.211   0.625  0.3725  0.6465 -0.1786
  434MOL0     O58490   7.770  10.238   0.687  0.1102  0.5170 -0.0039
  434MOL0     C58491   7.871  10.142   0.710  0.5832 -0.1718 -0.1086
  434MOL0     C58492   7.995  10.210   0.765 -0.5169 -0.8931 -0.1038
  434MOL0     C58493   8.103  10.110   0.776 -0.5658  0.4178 -0.4366
  434MOL0     C58494   8.212  10.163   0.876  0.6635 -0.5097  0.8695
  434MOL0     C58495   8.339  10.080   0.892  0.5051  0.1830 -0.7465
  434MOL0     C58496   8.411  10.034   0.776 -0.0223 -0.1649  0.7730
  434MOL0     C58497   8.510   9.918   0.809  0.2889 -0.6469 -0.1789
  434MOL0     C58498   8.612   9.889   0.704 -0.2059 -0.3704  1.7126
  434MOL0    Cl58499   8.709  10.032   0.656  0.0233 -0.3823  0.1851
  434MOL0     C58500   7.568  10.315   0.566 -0.4349  0.0541  0.6310
  434MOL0     C58501   7.447  10.288   0.511  1.2152 -0.2490 -0.3306
  434MOL0     O58502   7.268  10.282   0.274  0.0453 -0.2750 -0.0055
  434MOL0     C58503   7.018  10.057   0.357 -0.0712  0.7037  0.3893
  434MOL0     C58504   6.887  10.015   0.336  0.1113  0.3887 -0.6201
  434MOL0     N58505   6.246   9.907   0.539 -0.1988 -0.3727  0.5274
  434MOL0     N58506   6.165   9.834   0.612  0.5327  0.1607 -0.7823
  434MOL0     C58507   5.297   9.330   1.088 -0.1979  0.7848 -0.0028
  434MOL0     C58508   5.292   9.309   1.227  0.3899  0.4989  0.7030
  434MOL0     C58509   5.152   9.140   1.627 -0.3322 -0.2935  0.3820
  434MOL0     C58510   5.160   8.994   1.629 -0.6377 -1.0534  0.5796
  434MOL0     C58511   5.160   8.923   1.754 -0.2020 -0.8691 -0.0931
  434MOL0     C58512   5.159   9.003   1.873 -0.5537 -0.6638  0.2398
  434MOL0     O58513   5.167   8.948   1.997 -0.5894 -0.4259  0.4175
  434MOL0     C58514   5.076   8.836   2.034  0.5489  0.0398  0.2567
  434MOL0     C58515   5.105   8.811   2.177 -0.4475  0.7774  0.3534
  434MOL0     C58516   5.241   8.750   2.190  0.0551  0.0899 -0.9692
  434MOL0     C58517   5.263   8.707   2.343  0.9521  0.5043 -0.0767
  434MOL0     C58518   5.391   8.641   2.376  0.2386  0.0404 -0.5864
  434MOL0     C58519   5.496   8.591   2.424  0.1582  0.4681  0.4767
  434MOL0     C58520   5.136   9.140   1.873  0.3224 -1.2406 -1.1379
  434MOL0     C58521   5.134   9.217   1.750 -0.9636 -0.3303 -0.3205
  434MOL0     C58522   5.147   9.365   1.756  0.0966  0.1640 -1.1386
  434MOL0     H58523   5.112   9.027   1.226  0.9673 -0.4011 -1.1744
  434MOL0     H58524   5.135   9.051   0.985 -3.4581  0.3139  1.8116
  434MOL0     H58525   5.362   9.437   0.826  0.6332 -0.4643  3.3461
  434MOL0     H58526   5.450   9.285   0.861  0.1038  1.8487 -0.1178
  434MOL0     H58527   5.301   9.321   0.599  1.5688  0.8454 -0.8605
  434MOL0     H58528   5.418   9.194   0.656  3.3217  0.3368 -0.7380
  434MOL0     H58529   5.501   9.350   0.500 -2.6317  0.5280  0.0278
  434MOL0     H58530   5.601   9.369   0.636  1.4795 -0.4760 -2.9270
  434MOL0     H58531   5.368   9.541   0.541 -1.1011 -1.8541  0.4972
  434MOL0     H58532   5.443   9.572   0.702  0.5333  2.1495 -0.0140
  434MOL0     H58533   5.549   9.620   0.417  1.0333 -0.1834  0.5553
  434MOL0     H58534   5.538   9.737   0.543 -1.5812 -1.3401  2.2108
  434MOL0     H58535   5.697   9.620   0.684  0.3150  0.2975  0.2559
  434MOL0     H58536   5.745   9.510   0.555 -1.7095 -0.4337  0.5625
  434MOL0     H58537   5.763   9.821   0.556 -0.7174 -2.4055  5.2858
  434MOL0     H58538   5.809   9.717   0.409  3.0342 -2.4432  0.4095
  434MOL0     H58539   5.938   9.728   0.686 -2.2095  2.2282 -0.2395
  434MOL0     H58540   5.998   9.628   0.550  0.6657  0.4691  1.9006
  434MOL0     H58541   5.977   9.870   0.345  0.3890  0.5975  1.6046
  434MOL0     H58542   6.202   9.955   0.210  4.3606 -0.0437  0.5039
  434MOL0     H58543   6.144  10.106   0.299  2.1180  2.9919  5.0510
  434MOL0     H58544   6.350  10.163   0.223 -0.6294 -0.4019 -0.7609
  434MOL0     H58545   6.360  10.139   0.390  1.6133 -0.2984 -0.4703
  434MOL0     H58546   6.516   9.986   0.165  1.0458 -2.0632  0.8328
  434MOL0     H58547   6.417   9.882   0.275 -0.8575  0.1454 -1.4269
  434MOL0     H58548   6.642   9.919   0.371 -0.4942  0.0679  1.5764
  434MOL0     H58549   6.549  10.019   0.466 -0.7212 -0.3382  1.3616
  434MOL0     H58550   6.764  10.315   0.238  0.3095  0.9934  0.6520
  434MOL0     H58551   6.998  10.367   0.225 -0.8726  0.5134  0.1239
  434MOL0     H58552   7.424   9.954   0.600 -3.4202  1.0115  0.5167
  434MOL0     H58553   7.645  10.010   0.689  0.8746  1.4951 -0.8213
  434MOL0     H58554   7.852  10.055   0.774 -1.0840 -0.5629 -1.0807
  434MOL0     H58555   7.889  10.104   0.609 -1.3831 -0.3196 -0.4359
  434MOL0     H58556   8.033  10.291   0.702 -0.4407  1.8068  3.1902
  434MOL0     H58557   7.981  10.266   0.857  0.8747 -1.5827  0.5585
  434MOL0     H58558   8.064  10.022   0.827  0.2163  0.9283  1.1288
  434MOL0     H58559   8.142  10.096   0.675 -5.8235 -1.0850 -2.6277
  434MOL0     H58560   8.166  10.178   0.975 -0.2957 -2.3737  0.7566
  434MOL0     H58561   8.243  10.259   0.835  2.6486 -1.1719  0.7265
  434MOL0     H58562   8.301   9.997   0.953 -1.4780  1.6425  0.1530
  434MOL0     H58563   8.408  10.146   0.946 -1.2160  3.9507 -2.7629
  434MOL0     H58564   8.350   9.997   0.693  0.7929 -0.7063  0.3999
  434MOL0     H58565   8.462  10.110   0.717  0.4723 -1.8749 -1.1113
  434MOL0     H58566   8.447   9.828   0.809  0.5514 -0.8408  0.5035
  434MOL0     H58567   8.555   9.933   0.908  2.8247 -0.3694 -1.3098
  434MOL0     H58568   8.682   9.807   0.724 -1.1821 -2.3147 -1.8568
  434MOL0     H58569   8.552   9.858   0.617 -1.8774  0.7207  2.4213
  434MOL0     H58570   7.611  10.415   0.560  1.2376 -0.6583  0.0215
  434MOL0     H58571   7.380  10.371   0.489 -0.2251 -1.6531 -1.4852
  434MOL0     H58572   7.076   9.986   0.416 -2.5452  0.0549  2.1964
  434MOL0     H58573   6.859   9.914   0.366 -1.3552  1.1496  0.7294
  434MOL0     H58574   5.342   9.420   1.050 -2.5135  1.2721 -1.8151
  434MOL0     H58575   5.331   9.364   1.311 -2.7092 -1.5391  3.7500
  434MOL0     H58576   5.170   8.937   1.537 -0.5461  1.4391 -1.0510
  434MOL0     H58577   5.159   8.815   1.764  2.2188 -0.9282 -0.0524
  434MOL0     H58578   5.081   8.745   1.974 -0.8874  0.5417 -0.6779
  434MOL0     H58579   4.973   8.867   2.012  0.7640 -0.9025 -2.5277
  434MOL0     H58580   5.026   8.742   2.209  0.5660 -0.5682  0.0408
  434MOL0     H58581   5.112   8.905   2.231  4.8421  0.7962  0.1627
  434MOL0     H58582   5.322   8.815   2.155  0.3234 -0.8670 -2.2069
  434MOL0     H58583   5.244   8.657   2.131 -2.7043 -0.7507  0.0558
  434MOL0     H58584   5.256   8.793   2.410  2.3335  0.5586  0.0421
  434MOL0     H58585   5.183   8.640   2.374  1.1244  0.3099 -0.0482
  434MOL0     H58586   5.585   8.564   2.478 -1.0753  1.3652  3.1445
  434MOL0     H58587   5.138   9.197   1.965  0.0603 -2.0773 -0.6023
  434MOL0     H58588   5.246   9.380   1.711  0.2215  0.4192 -0.7799
  434MOL0     H58589   5.075   9.419   1.694 -1.8206 -0.0493  0.8077
  434MOL0     H58590   5.132   9.406   1.856  0.9556 -0.2993 -0.8068
  435MOL0     O58591   9.495   6.341   7.635 -0.4433  0.1659  0.4766
  435MOL0     C58592   9.527   6.305   7.527 -0.2201 -0.1153  0.7955
  435MOL0     O58593   9.634   6.352   7.449 -0.7664 -0.3750  0.1449
  435MOL0     C58594   9.712   6.445   7.510 -1.1229  0.1678  0.2373
  435MOL0     C58595   9.823   6.407   7.591 -0.0002  0.1494 -0.5626
  435MOL0     C58596   9.900   6.514   7.636  0.6295 -0.5746 -0.2208
  435MOL0     C58597   9.879   6.646   7.589  0.5204  0.6050  0.4204
  435MOL0     O58598   9.927   6.764   7.626 -0.0758 -1.1870 -0.2194
  435MOL0     C58599  10.053   6.773   7.684 -0.4086  0.5165 -1.0438
  435MOL0     C58600  10.161   6.747   7.580  0.0186  0.0468 -0.4835
  435MOL0     C58601  10.159   6.877   7.499  0.4051 -0.2324 -0.0721
  435MOL0     C58602  10.196   6.851   7.354 -0.1624 -0.9531  1.2043
  435MOL0     C58603  10.221   6.977   7.270 -0.7419  0.7211 -0.0674
  435MOL0     C58604  10.347   7.055   7.319  0.3873 -0.0481  0.7331
  435MOL0     C58605  10.391   7.151   7.211 -0.7444 -0.1115 -0.1964
  435MOL0     C58606  10.491   7.095   7.107 -0.4561 -0.3184  0.1694
  435MOL0     N58607  10.513   7.192   6.996  0.5680  0.7321 -0.3027
  435MOL0     C58608  10.626   7.263   6.986  0.5540 -0.5306 -0.4365
  435MOL0     C58609  10.656   7.274   6.854 -0.0388 -0.9971  0.0453
  435MOL0     C58610  10.771   7.353   6.792  0.5629 -0.6315 -0.1768
  435MOL0     C58611  10.899   7.295   6.844 -0.5561  0.1466  0.0538
  435MOL0     C58612  11.010   7.346   6.761  0.2523  0.1827  1.1294
  435MOL0     C58613  11.154   7.280   6.759 -0.5258  0.0126 -0.2480
  435MOL0     O58614  11.213   7.265   6.895  0.7757  0.8844 -0.1569
  435MOL0     C58615  11.347   7.231   6.902 -0.5271 -0.0550  0.7171
  435MOL0     C58616  11.406   7.243   7.036  0.2763  1.1934  0.2434
  435MOL0     C58617  11.544   7.220   7.046  0.2755 -0.3800 -0.0211
  435MOL0     C58618  11.625   7.188   6.933  0.3043  0.2365  0.1896
  435MOL0     C58619  11.761   7.126   6.952  0.4668  0.2037 -0.3864
  435MOL0     O58620  11.798   7.049   6.839 -0.3486  0.6065  0.1471
  435MOL0     C58621  11.888   6.948   6.863  0.3416 -0.2070 -0.7637
  435MOL0     C58622  11.836   6.814   6.871 -0.4807 -1.2879 -0.5947
  435MOL0     C58623  11.914   6.716   6.929  0.8678  0.4266  0.3088
  435MOL0     C58624  12.050   6.745   6.960  0.3462  0.4295 -1.2240
  435MOL0     O58625  12.133   6.647   7.013 -0.0058 -0.3444  0.3743
  435MOL0     C58626  12.114   6.506   6.971 -0.2476 -0.4972 -0.5034
  435MOL0     C58627  12.235   6.468   6.900  0.3595 -0.3792  0.8111
  435MOL0     C58628  12.248   6.327   6.864 -0.1656  0.2166 -0.8787
  435MOL0     C58629  12.181   6.282   6.733  0.5598 -0.5015  0.9440
  435MOL0     C58630  12.158   6.132   6.718  0.5894  0.3088 -0.1525
  435MOL0     C58631  12.084   6.101   6.587  0.5719 -0.7257  0.6203
  435MOL0     C58632  12.036   5.957   6.587 -0.2749  0.5991 -0.5621
  435MOL0     C58633  11.981   5.917   6.446  0.0466 -0.1008 -0.0713
  435MOL0    Cl58634  11.833   6.004   6.432  0.0253  0.3814  0.6144
  435MOL0     C58635  12.102   6.873   6.943  0.4397 -0.6900  0.1796
  435MOL0     C58636  12.017   6.971   6.886  0.2934 -1.2675  0.3656
  435MOL0     O58637  11.813   7.126   7.056 -0.7423 -0.4677 -0.5550
  435MOL0     C58638  11.556   7.172   6.803  0.5567 -0.7377 -0.7440
  435MOL0     C58639  11.420   7.195   6.785 -1.1369 -0.5591  0.4949
  435MOL0     N58640  10.548   7.232   6.785  0.2817 -0.0493 -0.2097
  435MOL0     N58641  10.460   7.181   6.872 -0.5579 -0.2158  0.0659
  435MOL0     C58642   9.777   6.676   7.496  0.2114 -0.0479 -0.2735
  435MOL0     C58643   9.688   6.574   7.463 -0.3120  0.1447  0.0218
  435MOL0     C58644   9.430   6.237   7.449  0.1227  0.8291 -0.0578
  435MOL0     C58645   9.383   6.290   7.332 -0.8161  0.1265  0.3398
  435MOL0     C58646   9.274   6.240   7.253 -0.6196 -0.5835 -0.5032
  435MOL0     C58647   9.214   6.127   7.290 -0.1481  0.7973 -0.0804
  435MOL0     O58648   9.118   6.075   7.203 -0.1082 -0.7851  0.0030
  435MOL0     C58649   9.176   5.996   7.105  0.3598  0.0296 -0.2843
  435MOL0     C58650   9.079   5.971   6.995 -0.6353  0.0198  0.4921
  435MOL0     C58651   9.146   5.923   6.861  1.4300 -0.9162  0.2744
  435MOL0     C58652   9.194   5.773   6.871  0.1071 -0.9558  0.7137
  435MOL0     C58653   9.306   5.753   6.960 -1.1355  0.5544 -0.1712
  435MOL0     C58654   9.389   5.701   7.035  0.1895  0.3995  0.2671
  435MOL0     C58655   9.254   6.063   7.410 -0.0409 -0.7823  0.3084
  435MOL0     C58656   9.354   6.115   7.492 -0.5160 -0.5549 -0.3896
  435MOL0     C58657   9.385   6.045   7.624 -0.5052 -0.0138 -0.6050
  435MOL0     H58658   9.836   6.310   7.639 -1.6955  0.2914  0.2696
  435MOL0     H58659   9.989   6.506   7.697  2.9070  0.1344 -3.1821
  435MOL0     H58660  10.087   6.870   7.721  1.3803 -0.1597 -0.7742
  435MOL0     H58661  10.061   6.704   7.769  0.3657  3.0791  1.0915
  435MOL0     H58662  10.150   6.646   7.540  0.9214 -2.2544  4.3370
  435MOL0     H58663  10.263   6.740   7.621  0.9103 -2.7323 -2.7666
  435MOL0     H58664  10.215   6.962   7.538  1.5967 -0.9148 -0.2395
  435MOL0     H58665  10.058   6.917   7.495 -0.0541 -1.3690 -0.2467
  435MOL0     H58666  10.291   6.797   7.349  2.1568  2.8414 -0.2975
  435MOL0     H58667  10.109   6.806   7.305 -0.6923  4.5285 -4.1652
  435MOL0     H58668  10.228   6.956   7.163  0.5225  2.8786 -0.4779
  435MOL0     H58669  10.140   7.047   7.292 -2.2717 -1.1034  0.2969
  435MOL0     H58670  10.326   7.114   7.409  1.8722  0.2307  0.9179
  435MOL0     H58671  10.423   6.983   7.348  0.3774  0.4905  2.1647
  435MOL0     H58672  10.430   7.239   7.263 -4.5880  1.9223 -0.4108
  435MOL0     H58673  10.305   7.182   7.151 -1.3812  1.3844  1.4215
  435MOL0     H58674  10.588   7.083   7.156 -1.4642  0.6119  2.5455
  435MOL0     H58675  10.450   7.000   7.072 -3.6977 -0.0092  2.7015
  435MOL0     H58676  10.689   7.295   7.068 -1.1767 -1.7898  1.4707
  435MOL0     H58677  10.771   7.354   6.682 -1.8959 -0.8572 -0.2210
  435MOL0     H58678  10.763   7.459   6.817 -3.1443 -1.0640  0.9405
  435MOL0     H58679  10.913   7.319   6.950 -3.5870 -1.6975  0.9666
  435MOL0     H58680  10.894   7.186   6.837 -0.7754  0.1454  0.2301
  435MOL0     H58681  11.028   7.445   6.806 -1.6689  0.8240  0.5589
  435MOL0     H58682  10.975   7.344   6.658  2.6026 -0.6966  0.2672
  435MOL0     H58683  11.226   7.325   6.691 -2.3573  2.3089 -0.8081
  435MOL0     H58684  11.134   7.179   6.721  1.9594  0.6605 -3.7886
  435MOL0     H58685  11.334   7.278   7.109 -2.0886 -0.6005 -1.0877
  435MOL0     H58686  11.594   7.224   7.142  2.3916  2.9649 -1.0970
  435MOL0     H58687  11.737   6.779   6.844 -0.3364 -1.6491 -0.6629
  435MOL0     H58688  11.883   6.614   6.947  0.1275  0.7199  0.7386
  435MOL0     H58689  12.114   6.446   7.062 -2.5371  2.1616  1.4115
  435MOL0     H58690  12.022   6.474   6.920  0.4245  0.7630 -2.6778
  435MOL0     H58691  12.251   6.532   6.813 -0.8283  0.6640  1.3212
  435MOL0     H58692  12.307   6.494   6.979  1.4302 -1.8831  0.3733
  435MOL0     H58693  12.351   6.293   6.848 -0.0814 -1.1220  2.0259
  435MOL0     H58694  12.214   6.265   6.947  2.8489 -1.9420 -1.1067
  435MOL0     H58695  12.248   6.306   6.650  1.0510 -0.4129  1.3589
  435MOL0     H58696  12.090   6.340   6.715  1.4836  1.1198  1.2889
  435MOL0     H58697  12.091   6.098   6.798 -0.0574  1.0444 -0.3539
  435MOL0     H58698  12.251   6.076   6.722  0.7509  0.4333 -1.6486
  435MOL0     H58699  12.006   6.177   6.582  1.4973  0.1914 -0.5654
  435MOL0     H58700  12.138   6.118   6.493  0.9190 -0.3994  0.8772
  435MOL0     H58701  11.956   5.938   6.658  2.4735 -0.3643  2.5541
  435MOL0     H58702  12.122   5.896   6.616 -1.7306  0.1242  3.4083
  435MOL0     H58703  12.048   5.948   6.366  2.2791  1.2411  2.1621
  435MOL0     H58704  11.971   5.808   6.441  0.6409 -0.1000 -1.9546
  435MOL0     H58705  12.203   6.905   6.964  1.1892 -2.6435 -0.2433
  435MOL0     H58706  12.052   7.072   6.870  0.6160 -1.5764 -1.0828
  435MOL0     H58707  11.611   7.138   6.717  4.1808 -0.4894  1.2615
  435MOL0     H58708  11.388   7.173   6.684  0.9193  0.2793 -0.4068
  435MOL0     H58709   9.765   6.779   7.466  1.8544  1.0469  2.4128
  435MOL0     H58710   9.607   6.596   7.394 -2.0356 -2.1198  1.1976
  435MOL0     H58711   9.432   6.373   7.283 -0.0028 -1.1745 -1.1079
  435MOL0     H58712   9.235   6.300   7.172 -1.9187  0.8075  1.0671
  435MOL0     H58713   9.211   5.902   7.150 -0.0082  0.5402  1.1205
  435MOL0     H58714   9.264   6.039   7.058  0.9390  0.5066  1.1789
  435MOL0     H58715   9.015   6.059   6.982 -0.8713 -0.2436 -0.1874
  435MOL0     H58716   9.020   5.885   7.030  0.2594 -0.7486  0.1570
  435MOL0     H58717   9.223   5.991   6.822 -2.0299  1.6941 -2.6891
  435MOL0     H58718   9.068   5.940   6.786  0.0832  2.8605  2.3038
  435MOL0     H58719   9.114   5.704   6.899 -1.4185 -1.0846 -3.3438
  435MOL0     H58720   9.232   5.747   6.772 -0.3832 -1.1835  0.5846
  435MOL0     H58721   9.465   5.652   7.093 -0.1916  2.2399  2.4979
  435MOL0     H58722   9.191   5.982   7.447  0.0584 -1.2707 -0.5418
  435MOL0     H58723   9.298   6.049   7.691  0.4386 -0.4158  0.6861
  435MOL0     H58724   9.412   5.942   7.597 -1.1426  0.4107 -3.0782
  435MOL0     H58725   9.472   6.089   7.673 -1.3560 -1.0776  2.0990
  436MOL0     O58726   2.350   0.616  10.982 -0.4227  0.6585 -0.0773
  436MOL0     C58727   2.380   0.725  10.933  0.4396 -0.5339  1.0072
  436MOL0     O58728   2.280   0.823  10.903 -1.0863  0.1481 -0.0920
  436MOL0     C58729   2.150   0.775  10.922  0.1569 -0.1131  0.2039
  436MOL0     C58730   2.091   0.699  10.820  0.5572  0.1880  0.5978
  436MOL0     C58731   1.967   0.639  10.832 -0.0738 -0.1746  0.7489
  436MOL0     C58732   1.894   0.654  10.953 -0.4780 -1.1532 -1.0185
  436MOL0     O58733   1.777   0.593  10.997  0.4741 -1.0194  0.9046
  436MOL0     C58734   1.723   0.494  10.909  0.4823  0.4776 -0.4512
  436MOL0     C58735   1.612   0.574  10.828 -0.1198  0.4120  0.6706
  436MOL0     C58736   1.660   0.668  10.716  0.0227 -0.0578  0.9195
  436MOL0     C58737   1.561   0.720  10.615  0.0357 -0.3860  0.8963
  436MOL0     C58738   1.624   0.797  10.492  0.1524  0.5303 -0.3233
  436MOL0     C58739   1.520   0.840  10.385  0.4625 -0.2418 -0.5181
  436MOL0     C58740   1.587   0.887  10.260 -0.5996 -0.1764  0.1758
  436MOL0     C58741   1.493   0.973  10.178 -0.4381 -0.0899 -0.0754
  436MOL0     N58742   1.502   1.115  10.228  0.2311 -0.3104  0.8713
  436MOL0     C58743   1.439   1.181  10.329  0.1945 -0.1837  1.1913
  436MOL0     C58744   1.472   1.312  10.312  0.3893  0.9899  0.1789
  436MOL0     C58745   1.452   1.432  10.394  0.4185  0.9898  0.3095
  436MOL0     C58746   1.555   1.451  10.498 -0.4078 -0.0929 -0.6095
  436MOL0     C58747   1.537   1.343  10.606 -0.6084  0.5722  0.1900
  436MOL0     C58748   1.578   1.384  10.734  0.3939  0.6467  0.7835
  436MOL0     O58749   1.581   1.278  10.837 -0.2696 -0.0427  0.6150
  436MOL0     C58750   1.470   1.259  10.914 -0.5609 -0.9688 -0.7030
  436MOL0     C58751   1.341   1.284  10.872 -1.0062 -0.4226  0.3598
  436MOL0     C58752   1.233   1.257  10.956  0.4118  0.5250 -1.3683
  436MOL0     C58753   1.259   1.179  11.067  0.4799  0.0030 -0.9760
  436MOL0     C58754   1.152   1.132  11.162 -0.9302  0.4103  0.0086
  436MOL0     O58755   1.187   1.033  11.242  0.1089  0.2060 -0.6195
  436MOL0     C58756   1.086   0.971  11.304 -0.1142 -0.2331 -0.2668
  436MOL0     C58757   0.982   0.907  11.242 -0.2588  0.6220 -0.5026
  436MOL0     C58758   0.879   0.844  11.326 -0.3048 -0.7920  0.6467
  436MOL0     C58759   0.884   0.832  11.458  0.1251 -0.3300 -0.5003
  436MOL0     O58760   0.779   0.784  11.536 -0.7688 -0.0999 -0.3048
  436MOL0     C58761   0.646   0.751  11.480 -0.2555 -0.7126 -0.4325
  436MOL0     C58762   0.536   0.742  11.587 -1.2004 -0.2107 -0.6248
  436MOL0     C58763   0.538   0.601  11.644  0.2232 -0.1949  0.4558
  436MOL0     C58764   0.399   0.582  11.706  0.8781 -0.6334 -0.5455
  436MOL0     C58765   0.350   0.691  11.801  0.5514  1.3048 -0.1350
  436MOL0     C58766   0.212   0.637  11.845  0.0189  0.3001  0.3068
  436MOL0     C58767   0.136   0.729  11.937  0.5714 -0.1609 -0.0592
  436MOL0     C58768   0.178   0.699  12.087  0.6474  0.2724  0.2367
  436MOL0    Cl58769   0.100   0.836  12.184  0.2860  0.3957  0.0385
  436MOL0     C58770   0.986   0.901  11.526 -1.0142  0.3118  0.4174
  436MOL0     C58771   1.087   0.971  11.450 -0.4497  0.7227 -0.2723
  436MOL0     O58772   1.042   1.185  11.161 -0.1762  0.0407  0.4260
  436MOL0     C58773   1.386   1.137  11.100 -0.0157 -0.8845  0.0969
  436MOL0     C58774   1.485   1.180  11.024  0.7055 -0.7144 -0.4520
  436MOL0     N58775   1.571   1.320  10.222 -0.6593 -0.3315  0.2605
  436MOL0     N58776   1.586   1.205  10.168 -0.4073  0.1781  0.5781
  436MOL0     C58777   1.952   0.736  11.055  0.2471  0.3010  0.1798
  436MOL0     C58778   2.085   0.786  11.040 -0.1126 -0.0811  1.4792
  436MOL0     C58779   2.515   0.782  10.936 -0.5843  0.2752  0.0838
  436MOL0     C58780   2.534   0.913  10.961 -0.4539 -0.1466 -0.8438
  436MOL0     C58781   2.666   0.958  10.990  0.1635  0.4842 -0.2540
  436MOL0     C58782   2.780   0.879  10.973 -0.6008 -0.6273  0.7238
  436MOL0     O58783   2.902   0.934  10.995 -0.3846  0.5919 -0.5872
  436MOL0     C58784   3.002   0.856  11.078 -0.0606 -0.6575  0.2205
  436MOL0     C58785   3.048   0.960  11.183  0.0357  0.4820  0.6394
  436MOL0     C58786   3.136   0.900  11.286  0.0152  0.3646  0.4592
  436MOL0     C58787   3.268   0.859  11.226  0.1811 -0.3849 -0.8094
  436MOL0     C58788   3.269   0.727  11.180  1.3133  0.4949  0.2695
  436MOL0     C58789   3.282   0.612  11.144 -0.2403 -0.3236  0.7823
  436MOL0     C58790   2.755   0.745  10.941  0.3921 -0.4160 -0.2947
  436MOL0     C58791   2.628   0.704  10.914  0.3083  0.2121  0.3013
  436MOL0     C58792   2.621   0.566  10.860 -0.5771  0.4298 -0.1039
  436MOL0     H58793   2.153   0.678  10.733  1.4421 -1.2140  1.5297
  436MOL0     H58794   1.936   0.559  10.765  0.8229  0.7788 -0.8661
  436MOL0     H58795   1.807   0.442  10.862  1.4573  0.3933  1.3146
  436MOL0     H58796   1.665   0.418  10.963 -1.4221  1.5238 -0.9022
  436MOL0     H58797   1.544   0.626  10.896 -0.8821 -0.5707  0.6844
  436MOL0     H58798   1.557   0.504  10.765 -0.4406 -0.3727  1.7851
  436MOL0     H58799   1.727   0.606  10.655 -0.6224 -1.2074  1.3423
  436MOL0     H58800   1.721   0.753  10.749  1.8463  0.9091 -3.9979
  436MOL0     H58801   1.503   0.634  10.578  0.8404 -1.2573  1.5953
  436MOL0     H58802   1.500   0.805  10.647  0.2093  1.4326 -2.9749
  436MOL0     H58803   1.666   0.894  10.522 -2.2600  1.4091  0.4960
  436MOL0     H58804   1.704   0.733  10.455  1.2551  2.3419 -1.2020
  436MOL0     H58805   1.454   0.759  10.352 -0.1332  1.5326 -4.2154
  436MOL0     H58806   1.451   0.913  10.430  0.1430 -1.1196  0.4664
  436MOL0     H58807   1.612   0.807  10.189 -0.1193  1.1628 -1.2186
  436MOL0     H58808   1.683   0.935  10.283 -0.2187 -0.7260 -0.2194
  436MOL0     H58809   1.514   0.953  10.073  1.4272  0.0842  0.2189
  436MOL0     H58810   1.394   0.929  10.193 -1.1695  0.1260 -3.4855
  436MOL0     H58811   1.376   1.135  10.404 -1.8925  2.4983  1.2456
  436MOL0     H58812   1.468   1.518  10.327  0.5450  0.0474 -0.9011
  436MOL0     H58813   1.354   1.444  10.440  0.1513 -0.9229  0.3061
  436MOL0     H58814   1.659   1.452  10.464 -0.2596  1.1073 -0.1885
  436MOL0     H58815   1.549   1.549  10.548  3.3025 -0.4010  0.8115
  436MOL0     H58816   1.596   1.255  10.580 -0.9224 -0.1725  1.8421
  436MOL0     H58817   1.431   1.317  10.621 -0.1997 -2.1013 -0.9554
  436MOL0     H58818   1.524   1.475  10.761  1.2138  2.2284 -2.4427
  436MOL0     H58819   1.681   1.420  10.723  1.2022 -1.5506  0.6366
  436MOL0     H58820   1.327   1.333  10.777 -1.0436 -1.2907 -0.0898
  436MOL0     H58821   1.129   1.287  10.948 -1.3275 -2.2177  4.6388
  436MOL0     H58822   0.975   0.910  11.133  1.4360 -0.0844 -0.6612
  436MOL0     H58823   0.802   0.796  11.267  1.5927 -5.2300  1.3439
  436MOL0     H58824   0.609   0.817  11.401 -0.2217 -0.9701 -0.6627
  436MOL0     H58825   0.652   0.651  11.436  2.8292 -0.8995  0.2420
  436MOL0     H58826   0.557   0.806  11.674  0.5599 -2.0966  0.4382
  436MOL0     H58827   0.445   0.776  11.537 -0.9315 -1.7907 -2.2878
  436MOL0     H58828   0.540   0.526  11.565 -1.6157 -1.0709  1.1891
  436MOL0     H58829   0.613   0.579  11.721 -1.5340 -2.4514  1.6495
  436MOL0     H58830   0.417   0.491  11.763  3.5141 -0.4714 -1.0021
  436MOL0     H58831   0.319   0.563  11.633  0.4242 -0.6773 -0.0430
  436MOL0     H58832   0.339   0.780  11.738 -1.3366  0.7025 -0.7227
  436MOL0     H58833   0.408   0.718  11.890 -0.8060  2.5182  0.4157
  436MOL0     H58834   0.157   0.631  11.751 -0.2202  0.3273  0.4429
  436MOL0     H58835   0.209   0.540  11.895 -2.7207  0.0226 -0.2333
  436MOL0     H58836   0.028   0.719  11.920  0.4287  2.6975 -1.4107
  436MOL0     H58837   0.170   0.829  11.910  1.8844 -0.2354  1.2077
  436MOL0     H58838   0.131   0.601  12.103  2.5344 -0.5198  1.3288
  436MOL0     H58839   0.283   0.672  12.099 -0.1241 -2.6086  1.3750
  436MOL0     H58840   0.992   0.898  11.634  1.6157 -2.1848  0.3255
  436MOL0     H58841   1.178   1.015  11.487 -0.3257  1.0818 -1.0025
  436MOL0     H58842   1.420   1.088  11.191 -0.0273  1.2601  1.3351
  436MOL0     H58843   1.587   1.156  11.051  0.6949  0.7682  1.1100
  436MOL0     H58844   1.922   0.731  11.158  1.5286 -3.1837  0.5224
  436MOL0     H58845   2.144   0.839  11.114  2.5808 -1.2373  0.2901
  436MOL0     H58846   2.450   0.981  10.968  0.4539  0.8363  1.2779
  436MOL0     H58847   2.672   1.064  11.014  1.3501  0.0024  1.8262
  436MOL0     H58848   3.083   0.826  11.010  2.5355 -2.0736  3.6775
  436MOL0     H58849   2.958   0.769  11.127  1.4357 -0.3661  2.2044
  436MOL0     H58850   2.961   1.013  11.223  0.5420 -0.5687  3.3522
  436MOL0     H58851   3.095   1.047  11.135  0.5092 -0.2245 -0.2140
  436MOL0     H58852   3.090   0.806  11.316  1.9185 -1.3744 -1.6175
  436MOL0     H58853   3.148   0.975  11.364  0.7453  3.6064 -2.4819
  436MOL0     H58854   3.297   0.934  11.151  2.4186  2.7422  2.8410
  436MOL0     H58855   3.350   0.857  11.299 -0.3534  0.1566 -0.1935
  436MOL0     H58856   3.289   0.512  11.105  1.7637  0.7324 -1.8730
  436MOL0     H58857   2.839   0.677  10.940  1.7967  1.1497  2.0761
  436MOL0     H58858   2.533   0.563  10.794  0.2509  1.2948 -1.2834
  436MOL0     H58859   2.698   0.545  10.785  1.8174  2.5032  1.6259
  436MOL0     H58860   2.626   0.493  10.942  0.8073  0.0044 -0.5449
  437MOL0     O58861   1.616   6.924   9.002 -0.2676  0.1663  0.0705
  437MOL0     C58862   1.561   6.822   8.965 -0.4244 -1.4792 -0.4071
  437MOL0     O58863   1.573   6.771   8.837  0.0089 -0.3492 -0.4207
  437MOL0     C58864   1.648   6.844   8.750 -0.7458  0.4393 -0.4900
  437MOL0     C58865   1.751   6.786   8.674 -0.3115  0.2561  0.1324
  437MOL0     C58866   1.809   6.859   8.568 -0.5834 -0.0646 -0.2202
  437MOL0     C58867   1.777   6.995   8.548  0.2119  0.2193  0.3388
  437MOL0     O58868   1.837   7.091   8.468  0.5664 -0.5073  0.3478
  437MOL0     C58869   1.945   7.065   8.371  1.4183 -0.2257 -0.8533
  437MOL0     C58870   1.884   7.046   8.240  0.3496  0.5051  0.6474
  437MOL0     C58871   1.808   7.160   8.180 -0.1560  0.1450 -0.1605
  437MOL0     C58872   1.757   7.132   8.038  0.5906  0.0608 -0.0974
  437MOL0     C58873   1.867   7.155   7.927  0.2223  0.0583  0.4634
  437MOL0     C58874   1.887   7.303   7.899  0.1290 -0.3366  0.2124
  437MOL0     C58875   1.986   7.330   7.788 -0.1444 -0.6459  0.6223
  437MOL0     C58876   2.035   7.472   7.809  0.2042 -0.2581  0.4547
  437MOL0     N58877   2.120   7.515   7.694  0.3121 -0.4003  0.1593
  437MOL0     C58878   2.088   7.541   7.564  0.1719 -0.6228  0.0793
  437MOL0     C58879   2.209   7.565   7.503 -0.9811 -0.0147  0.5392
  437MOL0     C58880   2.228   7.588   7.357  0.4288 -0.3921  0.3941
  437MOL0     C58881   2.293   7.730   7.322  0.4622  0.2689 -0.2044
  437MOL0     C58882   2.357   7.748   7.182  0.0795 -0.0999  0.7771
  437MOL0     C58883   2.255   7.773   7.063 -0.4012  0.2334 -0.7494
  437MOL0     O58884   2.252   7.916   7.060 -0.1235  0.4106 -0.2492
  437MOL0     C58885   2.277   7.983   6.944  0.4793 -0.0796  0.5258
  437MOL0     C58886   2.368   7.942   6.844 -0.3671 -0.5545  0.1404
  437MOL0     C58887   2.365   8.007   6.720 -0.5212  0.2308 -0.0405
  437MOL0     C58888   2.284   8.114   6.698 -0.4321  1.1102  0.6835
  437MOL0     C58889   2.311   8.193   6.575  0.0663  0.6754 -0.6862
  437MOL0     O58890   2.405   8.150   6.492 -0.0042 -0.0931  0.6808
  437MOL0     C58891   2.416   8.212   6.379 -0.8111 -0.6346  0.4380
  437MOL0     C58892   2.313   8.241   6.283 -1.0776 -0.2251  0.2883
  437MOL0     C58893   2.342   8.286   6.156  0.2317 -0.1366  0.2630
  437MOL0     C58894   2.474   8.299   6.127 -0.2493  0.3285  0.1367
  437MOL0     O58895   2.508   8.369   6.012 -0.1756 -0.5400  0.3947
  437MOL0     C58896   2.470   8.299   5.892 -0.1029  0.0723 -0.1060
  437MOL0     C58897   2.559   8.170   5.885  0.8504 -0.1744  0.0770
  437MOL0     C58898   2.557   8.104   5.741  0.3020  0.7201 -0.6090
  437MOL0     C58899   2.634   7.964   5.745  0.0379  0.0185  0.4462
  437MOL0     C58900   2.780   7.976   5.797 -0.1432 -0.2132 -0.0100
  437MOL0     C58901   2.875   8.083   5.726  0.3960 -0.2525  0.3996
  437MOL0     C58902   2.901   8.066   5.576 -0.1652  0.1851 -0.6413
  437MOL0     C58903   2.975   7.938   5.543 -0.3817  0.1567  0.1629
  437MOL0    Cl58904   3.136   7.944   5.637 -0.0592 -0.2155 -0.2258
  437MOL0     C58905   2.579   8.273   6.215 -0.1338  0.3245 -0.0155
  437MOL0     C58906   2.548   8.238   6.343 -0.5355 -0.3034 -0.8122
  437MOL0     O58907   2.235   8.291   6.565 -0.5239  0.2029  0.2731
  437MOL0     C58908   2.197   8.149   6.796  1.0169  0.6162  0.3382
  437MOL0     C58909   2.188   8.087   6.919 -0.1533 -0.2913 -0.5677
  437MOL0     N58910   2.310   7.543   7.591 -0.1916  0.1226  0.1565
  437MOL0     N58911   2.257   7.513   7.703 -0.4401 -0.4839  0.4275
  437MOL0     C58912   1.682   7.052   8.630  0.5487 -0.2830 -1.4046
  437MOL0     C58913   1.614   6.979   8.735  0.2985 -0.3134  0.3040
  437MOL0     C58914   1.476   6.746   9.055 -0.4563  0.2338  0.3140
  437MOL0     C58915   1.487   6.603   9.058 -0.0822 -0.2899  0.1285
  437MOL0     C58916   1.388   6.527   9.127 -0.0631 -0.4550 -0.6747
  437MOL0     C58917   1.279   6.592   9.193  0.3829 -0.4818 -0.1579
  437MOL0     O58918   1.201   6.517   9.280 -0.0834  0.1022  0.2548
  437MOL0     C58919   1.092   6.560   9.357 -0.2307  0.1880 -0.3006
  437MOL0     C58920   1.133   6.647   9.471 -0.6053 -0.5668 -0.3513
  437MOL0     C58921   1.075   6.598   9.603  0.8110  0.8008 -0.6670
  437MOL0     C58922   1.121   6.689   9.715 -0.5689 -0.5618 -0.4218
  437MOL0     C58923   1.094   6.636   9.848 -0.3194  1.1200  0.4857
  437MOL0     C58924   1.061   6.610   9.960 -0.1875  1.0211  0.3449
  437MOL0     C58925   1.284   6.738   9.196 -0.5374  0.4253  0.0439
  437MOL0     C58926   1.384   6.810   9.136  0.2227  0.1202 -0.0012
  437MOL0     C58927   1.359   6.952   9.145  0.3447 -0.1385 -0.0985
  437MOL0     H58928   1.777   6.685   8.703 -0.1701  0.4655  0.7342
  437MOL0     H58929   1.882   6.808   8.506 -0.9704 -2.3941  1.1418
  437MOL0     H58930   2.004   7.157   8.373  0.8593  0.2138 -2.9170
  437MOL0     H58931   2.002   6.977   8.404 -2.1834 -2.3056  0.3242
  437MOL0     H58932   1.805   6.971   8.252 -0.7157  1.0542 -2.0896
  437MOL0     H58933   1.968   7.016   8.176 -0.1505 -1.2809  0.7700
  437MOL0     H58934   1.866   7.252   8.195 -1.4034  0.5728  2.8790
  437MOL0     H58935   1.722   7.183   8.243 -0.6065 -3.2163  0.6628
  437MOL0     H58936   1.723   7.028   8.029  4.0013 -0.9884 -4.0895
  437MOL0     H58937   1.673   7.194   8.005  1.0156  0.3279 -0.6936
  437MOL0     H58938   1.956   7.093   7.943 -0.0301 -1.2867 -2.6861
  437MOL0     H58939   1.829   7.108   7.836 -0.1917 -0.7788  1.0575
  437MOL0     H58940   1.793   7.344   7.863  1.4450  2.0561 -0.7766
  437MOL0     H58941   1.919   7.361   7.987 -0.6070  2.0128 -0.9818
  437MOL0     H58942   1.950   7.316   7.686  5.3413 -2.2151 -1.4710
  437MOL0     H58943   2.069   7.258   7.791 -0.4103 -0.9587  0.5190
  437MOL0     H58944   1.953   7.545   7.817  0.1615  0.1194 -2.5311
  437MOL0     H58945   2.102   7.469   7.895  2.7239 -1.2305 -1.4324
  437MOL0     H58946   1.988   7.529   7.521  0.0508  0.8399 -0.1014
  437MOL0     H58947   2.266   7.506   7.296 -0.3180 -1.2858  1.1196
  437MOL0     H58948   2.123   7.606   7.335 -0.5330 -3.2449  2.1443
  437MOL0     H58949   2.223   7.812   7.341  0.0568  0.8151 -3.3821
  437MOL0     H58950   2.374   7.752   7.391 -1.6476 -2.4734  3.4682
  437MOL0     H58951   2.412   7.656   7.160 -0.3676 -0.3850  0.8570
  437MOL0     H58952   2.425   7.833   7.172 -1.6169  1.0139 -4.2805
  437MOL0     H58953   2.153   7.736   7.077 -0.0521 -0.1163  1.2153
  437MOL0     H58954   2.292   7.732   6.968  4.3853 -0.3237  1.0495
  437MOL0     H58955   2.439   7.863   6.867 -0.5017 -0.9660 -0.8266
  437MOL0     H58956   2.440   7.975   6.648  0.1719  2.0563 -0.1809
  437MOL0     H58957   2.211   8.225   6.315 -0.6041  0.8796  2.5924
  437MOL0     H58958   2.262   8.321   6.090  0.3354  2.2024  1.2819
  437MOL0     H58959   2.363   8.276   5.889  0.2031 -1.6079  0.4808
  437MOL0     H58960   2.488   8.358   5.802  0.5699  0.1591  0.0800
  437MOL0     H58961   2.660   8.193   5.918  0.7323 -0.9779  1.0458
  437MOL0     H58962   2.513   8.108   5.963  2.5844 -0.9788  0.5041
  437MOL0     H58963   2.452   8.089   5.717  0.9383 -1.1016 -2.6809
  437MOL0     H58964   2.610   8.174   5.675  3.6370  0.3839  1.4490
  437MOL0     H58965   2.628   7.924   5.644 -2.2708  0.1803  0.4666
  437MOL0     H58966   2.580   7.902   5.817 -2.8294  1.0417 -0.6796
  437MOL0     H58967   2.831   7.883   5.768 -2.0798 -1.0837 -0.7636
  437MOL0     H58968   2.794   7.995   5.904  1.1727 -1.7196  0.1271
  437MOL0     H58969   2.839   8.185   5.742 -1.3673 -0.8654  0.5032
  437MOL0     H58970   2.966   8.082   5.788  0.2581  0.8088  0.6434
  437MOL0     H58971   2.976   8.145   5.566 -1.2157  1.2821 -0.0553
  437MOL0     H58972   2.824   8.099   5.505  0.8216 -1.2844 -2.4953
  437MOL0     H58973   2.919   7.846   5.561  3.0114 -1.8524  1.3980
  437MOL0     H58974   3.005   7.947   5.438 -1.7791  0.7282 -0.2033
  437MOL0     H58975   2.681   8.286   6.183 -0.0871 -1.3466 -0.6557
  437MOL0     H58976   2.629   8.225   6.414 -0.1842  1.2177 -0.9121
  437MOL0     H58977   2.142   8.239   6.773  1.1816  0.0578 -2.6424
  437MOL0     H58978   2.134   8.128   7.004  3.1250  0.0549  1.5419
  437MOL0     H58979   1.674   7.160   8.617 -0.7141 -0.3856 -1.5616
  437MOL0     H58980   1.531   7.019   8.792  0.5591  0.2439  0.3035
  437MOL0     H58981   1.562   6.549   9.002 -0.6989 -0.1853 -0.8219
  437MOL0     H58982   1.408   6.421   9.139  1.0105 -0.2738 -0.7307
  437MOL0     H58983   1.031   6.480   9.399 -1.4535  1.2841  0.0528
  437MOL0     H58984   1.021   6.612   9.293 -0.0144  1.0449  0.1461
  437MOL0     H58985   1.096   6.749   9.457 -2.5357 -0.7096  2.7492
  437MOL0     H58986   1.242   6.642   9.483 -0.3051 -1.0219 -2.7485
  437MOL0     H58987   1.106   6.494   9.615  0.0712  0.6586  0.0897
  437MOL0     H58988   0.966   6.593   9.600  0.8524 -0.6854 -0.2323
  437MOL0     H58989   1.231   6.686   9.719 -0.4677 -5.5960 -0.7373
  437MOL0     H58990   1.088   6.793   9.706 -1.0310 -0.4689  1.7635
  437MOL0     H58991   1.031   6.565  10.053  1.9805  1.5682  1.3564
  437MOL0     H58992   1.206   6.792   9.248 -0.1992  2.0448 -1.0581
  437MOL0     H58993   1.398   6.986   9.241  0.1267 -0.2628  0.0346
  437MOL0     H58994   1.403   7.016   9.067 -0.6639  0.3719 -0.2660
  437MOL0     H58995   1.250   6.964   9.139  0.2475  0.5184  2.0710
  438MOL0     O58996  10.669   4.407   4.177  0.1756  0.0106  0.3696
  438MOL0     C58997  10.724   4.486   4.102  0.3884  0.7010  0.1148
  438MOL0     O58998  10.679   4.603   4.060  0.4308  0.5213 -0.0638
  438MOL0     C58999  10.573   4.666   4.128  0.1506  0.4711  0.7596
  438MOL0     C59000  10.584   4.803   4.162 -0.4270  0.8666 -1.7554
  438MOL0     C59001  10.491   4.862   4.241  0.4699  0.6058 -0.8991
  438MOL0     C59002  10.382   4.800   4.289 -0.8682 -0.4849  0.5211
  438MOL0     O59003  10.294   4.874   4.358 -0.5228 -0.0307  0.2110
  438MOL0     C59004  10.179   4.822   4.433 -0.2532  0.4741  0.1808
  438MOL0     C59005  10.057   4.787   4.348  0.0343 -0.2571 -0.7121
  438MOL0     C59006   9.931   4.805   4.433  0.1653  0.4734 -0.8429
  438MOL0     C59007   9.814   4.739   4.373 -0.4673  0.6649  1.2601
  438MOL0     C59008   9.690   4.771   4.444  1.0851 -1.0047 -0.0311
  438MOL0     C59009   9.652   4.658   4.547  0.1910 -0.6058 -0.4024
  438MOL0     C59010   9.504   4.667   4.598 -0.8774 -0.1369 -0.1240
  438MOL0     C59011   9.461   4.790   4.684 -0.8181  0.0093  0.4723
  438MOL0     N59012   9.465   4.771   4.825 -0.5793  0.2272 -0.5775
  438MOL0     C59013   9.572   4.803   4.913  0.1160  0.8874 -0.3788
  438MOL0     C59014   9.523   4.802   5.039  0.1818 -0.0758 -0.4488
  438MOL0     C59015   9.601   4.834   5.166 -0.3449 -0.6747 -0.7361
  438MOL0     C59016   9.731   4.761   5.198 -0.2070 -0.2196  1.4524
  438MOL0     C59017   9.762   4.763   5.350 -0.1457 -0.5706  0.5592
  438MOL0     C59018   9.909   4.715   5.371 -0.2289 -0.9153  0.2069
  438MOL0     O59019   9.955   4.616   5.276 -0.2890 -0.9940 -0.1411
  438MOL0     C59020   9.966   4.481   5.303 -0.1885 -1.5848  0.1798
  438MOL0     C59021  10.025   4.424   5.198  0.4569 -0.3436  0.0490
  438MOL0     C59022  10.049   4.289   5.200 -0.3385  0.5506 -1.3047
  438MOL0     C59023  10.022   4.217   5.311  0.2908  0.3648 -1.5753
  438MOL0     C59024  10.057   4.078   5.319  0.3162 -0.3001 -0.4210
  438MOL0     O59025  10.124   4.023   5.207  0.2923  0.0859  0.0848
  438MOL0     C59026  10.154   3.892   5.183  0.1114  0.0501 -0.1261
  438MOL0     C59027  10.244   3.865   5.085 -0.0190  0.2855 -0.6492
  438MOL0     C59028  10.285   3.740   5.058  0.0744  0.4871  1.1591
  438MOL0     C59029  10.249   3.622   5.127 -0.6618 -0.2365  0.2496
  438MOL0     O59030  10.306   3.505   5.092  0.1606 -0.1749  1.1678
  438MOL0     C59031  10.261   3.394   5.172  0.0991  1.1995 -1.0213
  438MOL0     C59032  10.347   3.279   5.125 -0.4587  0.0732 -0.5518
  438MOL0     C59033  10.504   3.292   5.158 -0.3059  0.6204 -0.6656
  438MOL0     C59034  10.591   3.370   5.062 -0.5291 -0.4277  0.7028
  438MOL0     C59035  10.588   3.291   4.928  0.6452  0.1885  0.3306
  438MOL0     C59036  10.676   3.363   4.819  0.7106 -0.2687  0.6353
  438MOL0     C59037  10.827   3.373   4.856 -0.2008  0.7142 -0.2322
  438MOL0     C59038  10.871   3.517   4.867  0.8488  0.9844  0.2017
  438MOL0    Cl59039  11.048   3.524   4.822  0.3545  0.1028 -0.3561
  438MOL0     C59040  10.153   3.648   5.228  0.0384 -0.6101  0.6310
  438MOL0     C59041  10.107   3.778   5.256  0.1512 -1.0913 -0.1985
  438MOL0     O59042  10.030   4.018   5.424  0.2472  0.5204 -0.0563
  438MOL0     C59043   9.966   4.282   5.423 -0.0822  0.0221 -0.5791
  438MOL0     C59044   9.930   4.421   5.419 -0.3176  0.2238 -0.8338
  438MOL0     N59045   9.392   4.770   5.022 -0.2146  0.3023  0.9507
  438MOL0     N59046   9.361   4.742   4.901  0.8175 -0.4365 -0.2006
  438MOL0     C59047  10.362   4.669   4.247  0.6353 -0.2244 -0.1826
  438MOL0     C59048  10.449   4.602   4.170 -0.6000 -0.4003  0.7627
  438MOL0     C59049  10.850   4.451   4.031 -0.1602 -0.8559  1.3289
  438MOL0     C59050  10.939   4.556   4.005 -0.3459  1.1085 -0.6984
  438MOL0     C59051  11.057   4.525   3.928  0.1843 -0.4301  0.0435
  438MOL0     C59052  11.067   4.405   3.855  0.9815  1.2458 -0.4646
  438MOL0     O59053  11.179   4.386   3.775 -0.3154  0.1215  0.9264
  438MOL0     C59054  11.157   4.318   3.653  0.2867  0.6757 -0.2399
  438MOL0     C59055  11.272   4.324   3.550 -0.0485  0.9215  0.6351
  438MOL0     C59056  11.277   4.454   3.463 -0.3837  0.5102 -0.4221
  438MOL0     C59057  11.361   4.445   3.338  0.3209 -0.1771 -0.0748
  438MOL0     C59058  11.280   4.410   3.222  0.4380 -0.8188  0.4204
  438MOL0     C59059  11.226   4.362   3.125 -0.8017  1.4350  0.1294
  438MOL0     C59060  10.973   4.300   3.883 -0.4912 -0.1935 -0.1693
  438MOL0     C59061  10.873   4.323   3.974  0.5614 -0.8143 -0.8653
  438MOL0     C59062  10.767   4.209   3.985  0.1907 -0.0145  0.9268
  438MOL0     H59063  10.670   4.858   4.125  1.2483 -1.4130 -1.4611
  438MOL0     H59064  10.495   4.966   4.271 -0.4405  0.8536 -1.5702
  438MOL0     H59065  10.204   4.732   4.490  0.1906  2.2979  3.1021
  438MOL0     H59066  10.149   4.898   4.506  2.5682 -0.5305  2.5898
  438MOL0     H59067  10.056   4.692   4.295  1.0400 -0.1822 -0.8797
  438MOL0     H59068  10.065   4.858   4.266  2.2413 -1.1043 -1.3006
  438MOL0     H59069   9.900   4.909   4.452 -0.8684  0.3820 -1.9000
  438MOL0     H59070   9.960   4.769   4.532  1.2930  1.8462 -0.6380
  438MOL0     H59071   9.795   4.783   4.274  0.6377 -2.2526 -0.3865
  438MOL0     H59072   9.823   4.633   4.348 -1.5425  0.7585  0.3465
  438MOL0     H59073   9.696   4.865   4.500 -2.2988 -1.5860  1.5859
  438MOL0     H59074   9.605   4.785   4.377 -1.8816  1.4958  3.8117
  438MOL0     H59075   9.657   4.564   4.491 -0.3278  0.1984 -1.8791
  438MOL0     H59076   9.718   4.647   4.633 -2.1218 -1.2115  1.3947
  438MOL0     H59077   9.484   4.581   4.663 -1.4984 -0.5278 -0.8116
  438MOL0     H59078   9.442   4.664   4.508 -1.3073  2.4594  0.0165
  438MOL0     H59079   9.537   4.868   4.669 -0.2079 -0.1764  2.2868
  438MOL0     H59080   9.356   4.818   4.667 -1.6319 -2.7338  0.4676
  438MOL0     H59081   9.674   4.827   4.883  0.3363 -2.2525 -2.6893
  438MOL0     H59082   9.613   4.943   5.167 -0.5294 -0.6526 -0.9827
  438MOL0     H59083   9.537   4.809   5.252  0.9347 -0.4757  0.3117
  438MOL0     H59084   9.725   4.663   5.151  0.3600  0.6344 -0.5381
  438MOL0     H59085   9.817   4.806   5.146  0.0065 -1.3541  0.7994
  438MOL0     H59086   9.704   4.682   5.396  0.8098 -1.2128  0.6575
  438MOL0     H59087   9.754   4.868   5.381  2.9145  0.5118 -1.8399
  438MOL0     H59088   9.934   4.690   5.474 -0.3468  1.1794  0.7759
  438MOL0     H59089   9.973   4.800   5.349  0.0257  0.3369  4.8227
  438MOL0     H59090  10.047   4.485   5.111  1.4852  2.6659  2.2649
  438MOL0     H59091  10.087   4.251   5.106  1.1426  0.5945 -0.7543
  438MOL0     H59092  10.277   3.948   5.022  0.9293 -0.7474 -1.5573
  438MOL0     H59093  10.352   3.734   4.972  1.0812 -1.2534  2.0089
  438MOL0     H59094  10.285   3.427   5.273  0.8697 -0.2383 -0.7174
  438MOL0     H59095  10.154   3.371   5.167  0.2125  0.3190  0.2047
  438MOL0     H59096  10.311   3.187   5.173 -1.9285  1.3708  0.9778
  438MOL0     H59097  10.328   3.271   5.018  0.9004  1.2964 -0.9179
  438MOL0     H59098  10.508   3.333   5.260  0.9531 -2.7288  0.7660
  438MOL0     H59099  10.545   3.191   5.147 -0.5790  0.6895 -2.4881
  438MOL0     H59100  10.695   3.386   5.093 -0.4788  0.1468  0.2665
  438MOL0     H59101  10.548   3.469   5.045 -0.3704 -0.4368  0.2104
  438MOL0     H59102  10.485   3.296   4.891  0.9243  0.1602 -0.4834
  438MOL0     H59103  10.617   3.186   4.934 -3.2176 -1.0843 -0.6357
  438MOL0     H59104  10.667   3.301   4.729 -0.1023  0.3307  0.2875
  438MOL0     H59105  10.631   3.461   4.802  1.4734 -0.1699 -1.0619
  438MOL0     H59106  10.879   3.328   4.771 -0.4439 -0.1182  0.0424
  438MOL0     H59107  10.853   3.322   4.950  1.8673 -0.7036 -1.4910
  438MOL0     H59108  10.824   3.575   4.787 -0.1073 -2.9279 -2.3397
  438MOL0     H59109  10.854   3.562   4.965  1.3660  1.9120 -0.1239
  438MOL0     H59110  10.110   3.568   5.287 -1.3758  0.0340  0.5165
  438MOL0     H59111  10.027   3.805   5.325  0.8345  3.1523 -0.7419
  438MOL0     H59112   9.936   4.220   5.507 -2.2169 -1.0433 -2.0218
  438MOL0     H59113   9.882   4.468   5.504  1.3668 -0.9327  0.8165
  438MOL0     H59114  10.275   4.621   4.291  2.3621  0.0340  4.0434
  438MOL0     H59115  10.419   4.502   4.139 -0.1706 -0.9329  1.9828
  438MOL0     H59116  10.917   4.654   4.045 -2.0363  1.1756 -1.6574
  438MOL0     H59117  11.131   4.604   3.927  1.4283 -1.3318  3.9052
  438MOL0     H59118  11.066   4.360   3.609 -0.8733 -0.6638  0.7869
  438MOL0     H59119  11.139   4.213   3.677  1.8210  0.9485  2.5755
  438MOL0     H59120  11.264   4.239   3.482 -0.9410  2.3091 -1.1027
  438MOL0     H59121  11.361   4.312   3.612  0.2882  0.9657  0.1705
  438MOL0     H59122  11.315   4.538   3.521 -3.1834  1.9067 -0.4455
  438MOL0     H59123  11.171   4.474   3.447 -1.1817 -1.5192  1.7556
  438MOL0     H59124  11.397   4.545   3.312 -2.0263  0.4827 -1.0761
  438MOL0     H59125  11.447   4.379   3.351 -0.4522 -1.7764 -2.4756
  438MOL0     H59126  11.178   4.336   3.033 -3.3117  2.9941  0.9181
  438MOL0     H59127  10.981   4.201   3.840 -3.2334  0.1065 -1.5356
  438MOL0     H59128  10.667   4.248   3.963  0.8846  0.8912 -0.7702
  438MOL0     H59129  10.787   4.118   3.929  0.8871 -0.7519  2.3135
  438MOL0     H59130  10.788   4.165   4.083 -1.9468 -5.3431 -0.6365
  439MOL0     O59131   8.587   8.838   7.856 -0.1963 -1.3107 -0.3266
  439MOL0     C59132   8.635   8.924   7.934 -0.1677  0.6359  0.3112
  439MOL0     O59133   8.757   8.978   7.921  0.1412  0.0247 -0.2596
  439MOL0     C59134   8.842   8.955   7.819  0.2042 -0.5591 -0.1970
  439MOL0     C59135   8.980   8.955   7.845  0.6768  0.4991  0.0985
  439MOL0     C59136   9.073   8.941   7.740 -0.2134 -0.0352 -0.0908
  439MOL0     C59137   9.030   8.936   7.607 -0.3017  0.2032  0.3902
  439MOL0     O59138   9.116   8.911   7.503 -0.0354 -0.1129 -0.7053
  439MOL0     C59139   9.082   8.938   7.366  1.1875 -0.4217 -0.2148
  439MOL0     C59140   9.213   8.917   7.288  0.3980 -0.3603  0.1203
  439MOL0     C59141   9.337   8.987   7.339 -0.2051 -0.6115 -0.7869
  439MOL0     C59142   9.461   8.973   7.239  0.8734 -0.5303  0.2045
  439MOL0     C59143   9.575   9.068   7.291 -0.4816 -0.3274  0.6264
  439MOL0     C59144   9.675   9.061   7.171 -0.5955 -0.0412  0.5166
  439MOL0     C59145   9.798   9.153   7.183 -0.1184  0.2140 -0.5035
  439MOL0     C59146   9.871   9.154   7.312 -0.2594  0.2892  0.3580
  439MOL0     N59147   9.993   9.228   7.303 -0.0088  0.3377  0.6741
  439MOL0     C59148   9.995   9.361   7.310 -0.7466  0.3826 -0.0446
  439MOL0     C59149  10.109   9.401   7.260  0.5464 -0.6530 -0.2844
  439MOL0     C59150  10.162   9.542   7.240 -0.0982 -0.1983 -0.0464
  439MOL0     C59151  10.096   9.622   7.131 -0.3993  0.3989 -0.3754
  439MOL0     C59152  10.102   9.773   7.158  0.7924 -0.2720 -0.0358
  439MOL0     C59153  10.242   9.850   7.171  0.5809 -0.9850  0.2797
  439MOL0     O59154  10.306   9.835   7.039  0.8335 -0.4318 -0.3551
  439MOL0     C59155  10.435   9.873   7.027 -0.1619 -0.4534 -0.0123
  439MOL0     C59156  10.493   9.986   7.085  0.0435  0.3001  0.9425
  439MOL0     C59157  10.628  10.014   7.077  0.2561 -0.3471  0.2166
  439MOL0     C59158  10.712   9.932   6.991  0.8340  0.2767 -0.0044
  439MOL0     C59159  10.854   9.959   6.968 -0.6065  0.0597  0.0987
  439MOL0     O59160  10.909   9.894   6.867 -0.0627 -0.0076  0.1429
  439MOL0     C59161  11.048   9.907   6.844 -0.4126 -0.4405 -1.0945
  439MOL0     C59162  11.088   9.983   6.733  0.1438 -0.4413 -0.5186
  439MOL0     C59163  11.227  10.008   6.713  0.5371  0.0596 -0.3547
  439MOL0     C59164  11.319   9.975   6.811  0.7285  0.4347  0.6800
  439MOL0     O59165  11.446  10.020   6.811 -0.1622 -0.3526  0.0267
  439MOL0     C59166  11.509  10.045   6.689 -0.1878  0.4351  0.0501
  439MOL0     C59167  11.648   9.990   6.706 -0.2590  0.5380 -0.2781
  439MOL0     C59168  11.739  10.077   6.799  0.7230 -0.2137  0.1616
  439MOL0     C59169  11.879  10.021   6.813 -0.3819  0.0082 -0.0955
  439MOL0     C59170  11.965  10.089   6.924 -0.1949 -0.8150  0.5362
  439MOL0     C59171  11.947  10.020   7.055  0.9258  0.4247 -0.6313
  439MOL0     C59172  12.026  10.076   7.170  0.4127 -0.0910 -0.2655
  439MOL0     C59173  11.998  10.005   7.299  0.1091 -0.0702  0.4652
  439MOL0    Cl59174  11.812   9.991   7.333 -0.9448  0.4666 -0.0739
  439MOL0     C59175  11.281   9.915   6.927  0.1911  1.4789  0.6010
  439MOL0     C59176  11.147   9.884   6.944  0.0190  0.5846  0.1340
  439MOL0     O59177  10.910  10.011   7.060 -0.9504 -0.5536 -0.0396
  439MOL0     C59178  10.647   9.822   6.922  0.6797  0.3543  1.0804
  439MOL0     C59179  10.513   9.795   6.943 -0.0260  1.0176 -0.3840
  439MOL0     N59180  10.168   9.283   7.215 -1.2853 -0.5063 -0.4222
  439MOL0     N59181  10.105   9.180   7.253 -0.0730 -0.3296  0.8265
  439MOL0     C59182   8.895   8.928   7.580  0.1355  0.5293  0.3370
  439MOL0     C59183   8.796   8.944   7.680 -0.3449  0.3341 -0.5213
  439MOL0     C59184   8.573   8.957   8.068  1.0335  0.1491  0.6042
  439MOL0     C59185   8.663   9.013   8.162  0.3729 -0.3811  0.6017
  439MOL0     C59186   8.628   9.054   8.292 -0.0249 -0.1891 -0.2798
  439MOL0     C59187   8.496   9.037   8.339 -0.1388  0.3149  1.0684
  439MOL0     O59188   8.435   9.086   8.447  0.1094 -0.2867 -1.6109
  439MOL0     C59189   8.524   9.083   8.565 -0.3911 -1.9934  0.0782
  439MOL0     C59190   8.556   8.945   8.624 -0.3013  0.1226  0.4696
  439MOL0     C59191   8.421   8.864   8.649  0.6779 -0.1099 -0.4313
  439MOL0     C59192   8.466   8.727   8.720  0.1696 -0.1087 -0.0595
  439MOL0     C59193   8.358   8.676   8.801  0.7141  0.1182  0.5598
  439MOL0     C59194   8.278   8.619   8.871  1.4299  0.0962 -0.2852
  439MOL0     C59195   8.406   8.994   8.241  0.5938 -0.1040  0.8271
  439MOL0     C59196   8.437   8.963   8.105  0.1271 -0.4192 -0.0429
  439MOL0     C59197   8.333   8.930   8.012  1.5120 -0.7299  1.0139
  439MOL0     H59198   9.023   8.968   7.944  0.8598  2.6231 -0.2186
  439MOL0     H59199   9.177   8.939   7.771  0.5079 -1.0827 -2.3386
  439MOL0     H59200   9.008   8.860   7.345  0.2203  0.4111  0.0282
  439MOL0     H59201   9.043   9.038   7.344  4.9923  0.9727 -1.6391
  439MOL0     H59202   9.207   8.971   7.194  4.1982 -2.6792 -1.6766
  439MOL0     H59203   9.230   8.809   7.278  0.1722 -0.7091  2.6283
  439MOL0     H59204   9.362   8.946   7.437 -2.1483  0.6644  0.3087
  439MOL0     H59205   9.324   9.095   7.348 -0.0977 -0.5834 -0.9666
  439MOL0     H59206   9.490   8.867   7.246  3.1362  0.1154  1.5404
  439MOL0     H59207   9.440   9.005   7.137 -0.5690  3.1289  1.4848
  439MOL0     H59208   9.531   9.167   7.310 -2.4594 -0.8306 -0.9430
  439MOL0     H59209   9.610   9.023   7.383 -3.8453  0.5964  2.5389
  439MOL0     H59210   9.700   8.955   7.155 -3.7890 -1.4082  3.2558
  439MOL0     H59211   9.628   9.101   7.080  1.2043  2.8301  0.7251
  439MOL0     H59212   9.757   9.255   7.177 -5.1136 -1.2664  2.2373
  439MOL0     H59213   9.862   9.128   7.098  1.6269  0.0447  0.8336
  439MOL0     H59214   9.800   9.197   7.382  1.4142  1.5055  1.3939
  439MOL0     H59215   9.889   9.049   7.340 -3.3911 -1.4404 -3.2048
  439MOL0     H59216   9.921   9.436   7.338  0.8787  2.6191 -1.3888
  439MOL0     H59217  10.142   9.583   7.339 -1.8781  3.1206 -1.6259
  439MOL0     H59218  10.271   9.537   7.227 -0.3031 -2.2405 -1.3839
  439MOL0     H59219  10.145   9.595   7.037  2.2992  1.1936  0.6977
  439MOL0     H59220   9.989   9.600   7.129 -0.6004  1.3772 -0.7227
  439MOL0     H59221  10.051   9.775   7.255 -0.5504  0.0491 -0.7168
  439MOL0     H59222  10.039   9.830   7.089 -1.9740 -2.6186  0.3451
  439MOL0     H59223  10.305   9.809   7.251  0.3251 -1.1346  0.4050
  439MOL0     H59224  10.219   9.954   7.198 -0.7858 -0.4322 -2.6397
  439MOL0     H59225  10.443  10.045   7.161  0.6027 -1.6762  2.9912
  439MOL0     H59226  10.667  10.099   7.132  1.3506 -0.5733 -0.1705
  439MOL0     H59227  11.016  10.026   6.665 -1.6202  0.5275  1.8264
  439MOL0     H59228  11.253  10.081   6.637  1.0563  2.0049  1.5721
  439MOL0     H59229  11.460  10.011   6.597 -0.9865 -0.9634  0.9646
  439MOL0     H59230  11.510  10.154   6.677  1.9111  0.4170 -0.2983
  439MOL0     H59231  11.647   9.889   6.748  1.1987  0.0343 -1.3720
  439MOL0     H59232  11.697   9.989   6.608  0.0878 -4.2547 -0.2654
  439MOL0     H59233  11.748  10.179   6.762 -0.6582  0.0977  0.6131
  439MOL0     H59234  11.686  10.081   6.895 -0.6075  0.1713 -0.5569
  439MOL0     H59235  11.924  10.035   6.714 -2.0312 -2.4485 -1.2889
  439MOL0     H59236  11.877   9.912   6.828 -0.4431 -0.6117 -3.6868
  439MOL0     H59237  11.946  10.197   6.923  4.3140  0.2110 -1.8310
  439MOL0     H59238  12.070  10.075   6.895  0.1708  3.6247 -1.0504
  439MOL0     H59239  11.839  10.025   7.075  0.8593 -2.3468  0.1518
  439MOL0     H59240  11.960   9.914   7.032 -4.3541 -0.6373 -0.0206
  439MOL0     H59241  11.996  10.180   7.184 -0.0931 -0.3823  0.9357
  439MOL0     H59242  12.127  10.061   7.130  0.0401  0.9629 -1.6765
  439MOL0     H59243  12.041   9.904   7.294  1.6831  0.6188 -1.1915
  439MOL0     H59244  12.051  10.070   7.370 -0.7263  0.9502  0.1663
  439MOL0     H59245  11.353   9.907   7.007 -2.2857 -2.0511  2.7652
  439MOL0     H59246  11.113   9.835   7.035  4.4687  0.1362  1.7999
  439MOL0     H59247  10.705   9.765   6.851 -1.1995 -0.7809  0.3840
  439MOL0     H59248  10.467   9.705   6.904  0.0327  1.6843 -2.0599
  439MOL0     H59249   8.855   8.924   7.479  1.5318  0.4476 -0.2309
  439MOL0     H59250   8.693   8.960   7.649  0.2477  1.4781 -2.0142
  439MOL0     H59251   8.768   9.027   8.138 -0.2114  2.0683 -0.9598
  439MOL0     H59252   8.696   9.112   8.352 -0.5367 -2.5915  2.8580
  439MOL0     H59253   8.480   9.145   8.643  0.0515  1.5888 -2.2728
  439MOL0     H59254   8.617   9.140   8.550 -0.9675 -0.5746  1.5989
  439MOL0     H59255   8.612   8.967   8.715 -1.4280  2.9235  0.5858
  439MOL0     H59256   8.606   8.895   8.541 -0.7717  2.6966 -1.4821
  439MOL0     H59257   8.370   8.844   8.554  0.1415  3.5298 -1.0745
  439MOL0     H59258   8.354   8.926   8.710  0.0840  1.3675 -2.4629
  439MOL0     H59259   8.504   8.655   8.647 -1.3167 -3.3380  2.1141
  439MOL0     H59260   8.554   8.740   8.785  0.8720 -1.1611 -0.7708
  439MOL0     H59261   8.202   8.568   8.927  3.1525 -0.5411  1.5611
  439MOL0     H59262   8.303   8.996   8.273 -0.7585 -0.5135 -3.0118
  439MOL0     H59263   8.331   9.012   7.939  1.8921 -1.0181  0.6709
  439MOL0     H59264   8.363   8.844   7.952  0.6324 -0.7022  0.5157
  439MOL0     H59265   8.236   8.914   8.060  0.5144  2.2444  0.2648
  440MOL0     O59266   3.361   7.233   2.631  0.0324  0.3942 -0.2854
  440MOL0     C59267   3.251   7.183   2.621  1.2353 -0.6038 -0.0406
  440MOL0     O59268   3.180   7.157   2.503 -0.6972 -0.1077  0.1561
  440MOL0     C59269   3.248   7.174   2.388  0.1824  0.6124  0.0681
  440MOL0     C59270   3.369   7.103   2.362  0.2150 -0.2454 -0.4097
  440MOL0     C59271   3.443   7.138   2.241  0.4022 -0.6161 -0.4925
  440MOL0     C59272   3.398   7.245   2.157  0.5529  0.2706  0.3253
  440MOL0     O59273   3.464   7.296   2.045 -0.7342 -0.8020  0.0522
  440MOL0     C59274   3.598   7.243   2.002 -0.3016  0.1052 -0.2014
  440MOL0     C59275   3.635   7.299   1.862 -0.1859  0.2930 -0.2917
  440MOL0     C59276   3.526   7.389   1.789  0.0742  0.2202 -0.0674
  440MOL0     C59277   3.546   7.533   1.833 -0.0216 -0.6038  1.1209
  440MOL0     C59278   3.451   7.636   1.766 -0.0362  0.3599  0.3881
  440MOL0     C59279   3.318   7.648   1.838 -0.5437 -0.2606 -0.2395
  440MOL0     C59280   3.235   7.766   1.789 -0.2108 -0.4482 -0.2231
  440MOL0     C59281   3.126   7.798   1.900  0.6090 -0.4105  0.4157
  440MOL0     N59282   3.024   7.895   1.840 -0.8315 -0.6292 -0.0969
  440MOL0     C59283   3.052   8.029   1.820 -0.9849  0.3617 -0.6681
  440MOL0     C59284   2.950   8.092   1.751 -0.0097  0.6586  0.1848
  440MOL0     C59285   2.941   8.240   1.715 -1.0431  0.0292  0.3644
  440MOL0     C59286   2.793   8.268   1.663 -0.4260  0.5519 -0.0990
  440MOL0     C59287   2.767   8.415   1.613  0.1784 -0.5188 -0.2317
  440MOL0     C59288   2.842   8.466   1.499 -0.0618  0.2276  0.4338
  440MOL0     O59289   2.976   8.519   1.532 -0.2927  1.4227 -0.4877
  440MOL0     C59290   2.992   8.654   1.550  0.8436 -0.4922  0.5918
  440MOL0     C59291   2.877   8.730   1.590  0.1340 -0.0167 -0.0901
  440MOL0     C59292   2.895   8.871   1.594 -0.2959 -0.7829  0.9951
  440MOL0     C59293   3.020   8.930   1.556 -0.1802 -0.9165  0.1637
  440MOL0     C59294   3.039   9.077   1.550  0.1337  0.0771 -0.0717
  440MOL0     O59295   3.166   9.121   1.541 -0.3163  0.2518  0.1888
  440MOL0     C59296   3.191   9.254   1.573  0.7501  1.1849  0.1789
  440MOL0     C59297   3.231   9.341   1.473  0.1979  0.3993  0.3655
  440MOL0     C59298   3.246   9.477   1.502  0.1461  0.8352  0.1716
  440MOL0     C59299   3.222   9.527   1.638 -0.2309 -0.6835  0.0280
  440MOL0     O59300   3.226   9.664   1.651  0.1817  0.2810 -0.5522
  440MOL0     C59301   3.223   9.708   1.789  0.4389 -0.1154  0.1182
  440MOL0     C59302   3.211   9.861   1.789  0.0670  0.4133 -0.6472
  440MOL0     C59303   3.188   9.910   1.935 -1.0864  0.6981  1.0580
  440MOL0     C59304   3.163  10.057   1.921  0.6363  0.6825 -0.3720
  440MOL0     C59305   3.126  10.102   2.062 -0.0464 -0.0965  0.4303
  440MOL0     C59306   3.134  10.263   2.053  0.1306 -1.0265  0.2109
  440MOL0     C59307   2.996  10.322   2.011  0.3961 -0.1359  1.1133
  440MOL0     C59308   2.902  10.343   2.130  0.2753 -0.1006  1.1265
  440MOL0    Cl59309   2.955  10.459   2.259  0.0159 -0.0820 -0.2400
  440MOL0     C59310   3.190   9.433   1.741 -0.3059  0.3325  0.0464
  440MOL0     C59311   3.171   9.292   1.703  0.7139  0.6529  0.2848
  440MOL0     O59312   2.936   9.147   1.577  0.2940  0.1373 -0.4837
  440MOL0     C59313   3.128   8.855   1.516 -0.0345  0.9005 -0.2070
  440MOL0     C59314   3.109   8.713   1.516 -0.0962 -0.1363  0.2440
  440MOL0     N59315   2.850   7.990   1.747 -0.1475 -0.0748  0.4271
  440MOL0     N59316   2.903   7.869   1.786  0.2625 -0.2260 -0.3529
  440MOL0     C59317   3.273   7.303   2.179 -0.6232  0.4001  0.1429
  440MOL0     C59318   3.196   7.252   2.287 -0.6758 -0.2737 -0.0782
  440MOL0     C59319   3.178   7.151   2.745 -0.8551  0.4198  1.0098
  440MOL0     C59320   3.063   7.223   2.774  0.4933 -1.1901 -0.4831
  440MOL0     C59321   2.972   7.183   2.875  0.1190 -0.4807  0.7538
  440MOL0     C59322   3.009   7.077   2.952 -0.3395  0.2001 -0.3048
  440MOL0     O59323   2.919   7.019   3.039 -0.5418  0.5612  0.5902
  440MOL0     C59324   2.870   6.886   2.998 -0.0147  0.0789 -0.8435
  440MOL0     C59325   2.750   6.907   2.913  0.4549 -0.1061  0.9557
  440MOL0     C59326   2.662   6.784   2.885  0.2559 -0.6807 -0.4114
  440MOL0     C59327   2.523   6.823   2.815 -0.0181 -0.0988  0.6924
  440MOL0     C59328   2.418   6.734   2.854 -0.8205  0.3404  0.5436
  440MOL0     C59329   2.316   6.675   2.886  0.4732  0.3042  0.2675
  440MOL0     C59330   3.128   7.004   2.926  0.7584  0.0596 -0.3410
  440MOL0     C59331   3.213   7.037   2.816  0.2957  0.2191 -0.1347
  440MOL0     C59332   3.333   6.954   2.766  0.2422  0.0535 -0.6456
  440MOL0     H59333   3.405   7.038   2.441 -1.0130  1.8728  2.0051
  440MOL0     H59334   3.538   7.088   2.226  1.4820  0.6462  1.6238
  440MOL0     H59335   3.666   7.283   2.078 -1.0494  0.6781  0.1818
  440MOL0     H59336   3.593   7.134   2.009 -3.0891 -0.0920 -2.8786
  440MOL0     H59337   3.632   7.211   1.797 -1.2156 -0.1838  0.3774
  440MOL0     H59338   3.736   7.340   1.858 -0.8949  2.1563 -0.4255
  440MOL0     H59339   3.426   7.351   1.810 -0.0112  0.9939  0.9625
  440MOL0     H59340   3.547   7.369   1.683 -1.7918  0.1852 -0.4648
  440MOL0     H59341   3.542   7.547   1.942  2.5987 -0.3552  1.2492
  440MOL0     H59342   3.646   7.568   1.808 -1.1714  1.8342 -0.4117
  440MOL0     H59343   3.499   7.734   1.766 -0.1266  0.4120  1.1638
  440MOL0     H59344   3.445   7.612   1.660  1.5393  1.6069 -0.0131
  440MOL0     H59345   3.260   7.557   1.821 -0.5027  0.1308 -2.8579
  440MOL0     H59346   3.333   7.654   1.947  3.7532  2.2031 -0.7191
  440MOL0     H59347   3.192   7.746   1.691  0.1184 -1.5561 -0.1565
  440MOL0     H59348   3.294   7.858   1.784 -1.2442  0.2983  0.5918
  440MOL0     H59349   3.076   7.707   1.935  0.8084 -0.3520  0.8574
  440MOL0     H59350   3.173   7.840   1.989  1.2821  0.5632 -0.3772
  440MOL0     H59351   3.145   8.076   1.848 -0.7356  0.2589 -1.3077
  440MOL0     H59352   2.961   8.280   1.814 -0.3629 -0.4874  0.4415
  440MOL0     H59353   3.010   8.275   1.638  0.8367 -0.8146  1.6124
  440MOL0     H59354   2.767   8.198   1.583  2.4646 -1.4769  0.5826
  440MOL0     H59355   2.713   8.246   1.734 -0.5848  1.0897 -0.1055
  440MOL0     H59356   2.786   8.477   1.701  0.8241  1.2814 -1.5722
  440MOL0     H59357   2.660   8.414   1.590 -0.6170 -2.5929  2.9362
  440MOL0     H59358   2.782   8.539   1.444  1.0941  0.3689 -0.7099
  440MOL0     H59359   2.855   8.382   1.430  1.6557 -0.7154  1.8289
  440MOL0     H59360   2.784   8.688   1.627 -1.4920  3.6849  0.5321
  440MOL0     H59361   2.808   8.925   1.630 -0.5273 -0.2534 -0.3046
  440MOL0     H59362   3.245   9.300   1.374  5.6565  0.2984  0.8686
  440MOL0     H59363   3.280   9.537   1.419  1.0230 -3.3373 -2.8247
  440MOL0     H59364   3.142   9.666   1.850  1.4174  0.0359  1.5933
  440MOL0     H59365   3.314   9.670   1.836 -0.3178 -1.3026  0.6747
  440MOL0     H59366   3.292   9.907   1.732  1.4326  1.1810  1.7791
  440MOL0     H59367   3.119   9.888   1.736 -0.0551 -2.0564 -1.8467
  440MOL0     H59368   3.101   9.870   1.987 -1.1572 -1.3072 -0.4637
  440MOL0     H59369   3.273   9.882   1.997 -1.9786  0.9099  2.4057
  440MOL0     H59370   3.075  10.067   1.858 -1.6568 -2.6031  1.9534
  440MOL0     H59371   3.244  10.109   1.869 -0.1579  0.0653 -2.2705
  440MOL0     H59372   3.191  10.068   2.143  0.2467  2.2493  1.2555
  440MOL0     H59373   3.029  10.066   2.097 -0.5313  0.8884  0.1309
  440MOL0     H59374   3.157  10.311   2.148 -1.1869 -0.6646  0.3718
  440MOL0     H59375   3.217  10.296   1.989  0.1262  2.1322  1.6323
  440MOL0     H59376   2.948  10.246   1.949 -0.2528  0.5271  0.7720
  440MOL0     H59377   3.001  10.422   1.967 -1.8019  0.1343  1.3394
  440MOL0     H59378   2.796  10.357   2.109 -0.6687 -2.3226  3.7950
  440MOL0     H59379   2.925  10.246   2.176  1.9397 -1.1175 -1.5894
  440MOL0     H59380   3.174   9.461   1.845 -0.0134  0.7139 -0.0120
  440MOL0     H59381   3.124   9.227   1.775 -0.6340  1.8699  0.5523
  440MOL0     H59382   3.223   8.895   1.483  1.5129 -1.6892  0.8619
  440MOL0     H59383   3.179   8.647   1.465 -2.6659 -3.0210  0.1194
  440MOL0     H59384   3.240   7.373   2.104  2.3042  1.8103  0.0602
  440MOL0     H59385   3.095   7.290   2.296  0.1830  2.1004  0.0873
  440MOL0     H59386   3.035   7.308   2.713  0.3986  0.6420  1.9248
  440MOL0     H59387   2.882   7.241   2.894  2.8306  3.4241  3.0914
  440MOL0     H59388   2.833   6.823   3.079  1.9714 -0.5296 -0.3334
  440MOL0     H59389   2.954   6.824   2.962 -2.3369 -3.5284 -0.5577
  440MOL0     H59390   2.782   6.939   2.813  1.8525 -0.9519  1.0936
  440MOL0     H59391   2.686   6.983   2.958  1.2331  0.9178  0.3846
  440MOL0     H59392   2.642   6.758   2.990 -0.2576  1.8688  0.1888
  440MOL0     H59393   2.713   6.711   2.822 -0.7414 -0.1731 -1.8691
  440MOL0     H59394   2.490   6.925   2.838 -0.8068 -0.6045  1.9111
  440MOL0     H59395   2.533   6.817   2.707 -1.3859  0.4199  0.5225
  440MOL0     H59396   2.230   6.622   2.922 -0.2723  0.8002 -0.7360
  440MOL0     H59397   3.171   6.921   2.981  5.2336 -0.8179 -4.4166
  440MOL0     H59398   3.389   6.918   2.853  0.3243 -0.9113 -1.0891
  440MOL0     H59399   3.306   6.867   2.706  0.9410  1.1984 -2.7217
  440MOL0     H59400   3.405   7.005   2.702  0.1783  2.3411  0.9678
  441MOL0     O59401   3.976  10.726   5.872 -0.3306 -0.1156 -0.1961
  441MOL0     C59402   3.934  10.671   5.974 -0.1654 -0.1185 -1.0963
  441MOL0     O59403   4.010  10.648   6.084  0.4172  0.8615 -0.2813
  441MOL0     C59404   4.146  10.663   6.051  0.7003  0.3920  0.6404
  441MOL0     C59405   4.213  10.551   6.021  0.0222 -0.7898  0.1566
  441MOL0     C59406   4.354  10.562   5.995 -0.2535  0.2346 -0.3358
  441MOL0     C59407   4.426  10.687   5.994 -0.2790  0.7385 -0.0847
  441MOL0     O59408   4.562  10.693   5.959  0.0737  0.2093  0.0741
  441MOL0     C59409   4.628  10.822   5.941 -0.1251  0.2390  0.0364
  441MOL0     C59410   4.765  10.790   5.873  0.8019 -0.5615 -0.2265
  441MOL0     C59411   4.847  10.677   5.944  0.9057  0.3182  0.6883
  441MOL0     C59412   4.984  10.661   5.883 -0.2307  0.1948 -0.1785
  441MOL0     C59413   5.059  10.554   5.955 -0.0042  0.9506 -0.4447
  441MOL0     C59414   5.158  10.498   5.864  0.2508 -0.3968  0.8755
  441MOL0     C59415   5.211  10.363   5.901  0.2993 -0.2661  0.5652
  441MOL0     C59416   5.320  10.388   6.020  0.1183 -0.7320  0.4617
  441MOL0     N59417   5.395  10.264   6.040 -0.6744 -0.0772 -0.7285
  441MOL0     C59418   5.329  10.148   6.092 -0.7796 -1.0770 -0.6929
  441MOL0     C59419   5.435  10.067   6.122  0.0783 -0.0134  0.1182
  441MOL0     C59420   5.411   9.936   6.185 -0.0979  0.9179 -0.1779
  441MOL0     C59421   5.328   9.838   6.095 -0.1119  0.4300 -0.2440
  441MOL0     C59422   5.276   9.714   6.188 -0.1081 -0.0587  0.2864
  441MOL0     C59423   5.199   9.607   6.126 -0.0577 -0.4226  0.4837
  441MOL0     O59424   5.088   9.644   6.053 -0.2084 -0.3119  0.5592
  441MOL0     C59425   4.973   9.691   6.108 -0.3791 -0.4107  0.2011
  441MOL0     C59426   4.878   9.735   6.013 -0.8216  0.6077  0.4118
  441MOL0     C59427   4.758   9.775   6.057  0.3806  1.0576 -0.7522
  441MOL0     C59428   4.715   9.774   6.192 -0.5105  0.2945 -0.2567
  441MOL0     C59429   4.584   9.816   6.227 -0.2653 -0.5380 -0.0484
  441MOL0     O59430   4.559   9.834   6.364 -0.5208  1.0091  0.7099
  441MOL0     C59431   4.432   9.849   6.413 -0.9137 -0.3857  0.5902
  441MOL0     C59432   4.301   9.850   6.361 -0.3497  0.0807  0.0523
  441MOL0     C59433   4.184   9.876   6.433  0.1343 -0.2256 -0.6814
  441MOL0     C59434   4.192   9.888   6.574  0.1857 -0.7584 -0.2671
  441MOL0     O59435   4.076   9.920   6.646  0.0735 -0.1866  0.6688
  441MOL0     C59436   3.942   9.949   6.603 -0.1947 -0.4202  0.9858
  441MOL0     C59437   3.847   9.986   6.717  0.3185  0.3525  0.7630
  441MOL0     C59438   3.775   9.862   6.759  1.0252  0.1000 -0.2447
  441MOL0     C59439   3.722   9.887   6.906  0.2711  0.1080 -0.0945
  441MOL0     C59440   3.653   9.766   6.966  0.7937  1.2949 -0.5935
  441MOL0     C59441   3.596   9.798   7.104  0.1729  0.4113 -0.4649
  441MOL0     C59442   3.547   9.666   7.165 -0.2407 -0.0221  1.4384
  441MOL0     C59443   3.498   9.698   7.302  0.3653  0.5491  0.4777
  441MOL0    Cl59444   3.448   9.537   7.376  0.0485 -0.3371  0.0083
  441MOL0     C59445   4.320   9.892   6.623 -0.6485 -0.4351 -0.2941
  441MOL0     C59446   4.441   9.860   6.550  0.2482  0.0904  1.1421
  441MOL0     O59447   4.501   9.824   6.137 -0.7837 -0.1821 -0.6945
  441MOL0     C59448   4.812   9.738   6.289 -0.5649 -0.1660 -0.4257
  441MOL0     C59449   4.932   9.685   6.243 -0.3453 -0.3610  0.4815
  441MOL0     N59450   5.551  10.128   6.081 -0.0410  0.1613 -0.3669
  441MOL0     N59451   5.532  10.245   6.051  0.3554 -0.5511 -0.4112
  441MOL0     C59452   4.352  10.798   6.038  0.0902  0.4358  0.2984
  441MOL0     C59453   4.211  10.781   6.072 -0.6888 -0.5731  0.0660
  441MOL0     C59454   3.788  10.652   5.973  0.2736 -0.0911 -1.0257
  441MOL0     C59455   3.714  10.683   5.859  0.0038 -0.0097  0.2009
  441MOL0     C59456   3.570  10.674   5.848  0.9184  0.2630  0.4823
  441MOL0     C59457   3.502  10.622   5.964 -0.3679 -0.1215 -0.9918
  441MOL0     O59458   3.360  10.629   5.950  0.1001 -0.7333  0.0753
  441MOL0     C59459   3.293  10.675   6.065  0.0577 -0.0425 -0.0049
  441MOL0     C59460   3.311  10.822   6.102  0.0660  0.7248 -0.1719
  441MOL0     C59461   3.273  10.852   6.248 -0.9601 -0.9429 -0.7880
  441MOL0     C59462   3.338  10.983   6.301 -0.1988  0.3979  0.2590
  441MOL0     C59463   3.481  10.962   6.308  0.3786  0.2727 -0.9281
  441MOL0     C59464   3.592  10.945   6.310 -0.6801 -0.0133  1.4877
  441MOL0     C59465   3.577  10.591   6.079  0.8923 -0.2681 -0.6564
  441MOL0     C59466   3.715  10.603   6.089 -1.2401  0.5257  0.3619
  441MOL0     C59467   3.783  10.588   6.225  0.1833 -0.8032  0.3506
  441MOL0     H59468   4.160  10.457   6.013 -3.2027  0.7697  1.5218
  441MOL0     H59469   4.401  10.467   5.970 -0.3727  0.0475  0.1295
  441MOL0     H59470   4.568  10.889   5.879  1.1295  1.3831  0.0025
  441MOL0     H59471   4.652  10.861   6.040  0.2206 -3.0730  1.3840
  441MOL0     H59472   4.816  10.886   5.881 -0.3575  0.1167 -0.8632
  441MOL0     H59473   4.745  10.773   5.767 -0.6754 -2.8778  0.3578
  441MOL0     H59474   4.791  10.587   5.918  1.5454 -0.0821  0.6605
  441MOL0     H59475   4.843  10.693   6.052  1.3812 -0.5718  0.8503
  441MOL0     H59476   4.973  10.634   5.778 -1.7074 -1.1942  0.2885
  441MOL0     H59477   5.033  10.759   5.882  1.2339 -0.4388  2.1291
  441MOL0     H59478   5.113  10.597   6.041  0.2675 -0.6218  0.2029
  441MOL0     H59479   4.997  10.477   6.002  0.5951  0.7849  0.0938
  441MOL0     H59480   5.113  10.491   5.765  2.0042  1.5003 -0.1351
  441MOL0     H59481   5.241  10.570   5.861  1.9398 -2.2573  0.3847
  441MOL0     H59482   5.252  10.320   5.810  0.5633  2.7172 -0.8693
  441MOL0     H59483   5.132  10.294   5.931 -0.7702 -0.1270 -1.7335
  441MOL0     H59484   5.395  10.462   5.990  0.9306 -1.6119  0.2710
  441MOL0     H59485   5.289  10.413   6.121  2.7390  0.4368  1.0431
  441MOL0     H59486   5.222  10.133   6.101 -0.8665 -0.0222  0.2660
  441MOL0     H59487   5.512   9.895   6.195  0.4569  1.9355 -1.3520
  441MOL0     H59488   5.372   9.938   6.287 -1.8232 -1.6273 -0.6965
  441MOL0     H59489   5.240   9.879   6.045 -0.7885 -0.3348  0.2940
  441MOL0     H59490   5.400   9.812   6.017 -0.0043 -0.6325  0.1942
  441MOL0     H59491   5.221   9.754   6.274  0.4280  2.4755 -0.4608
  441MOL0     H59492   5.368   9.670   6.227 -0.7247 -1.0499  0.6522
  441MOL0     H59493   5.160   9.537   6.201 -0.4662  1.5124  2.1770
  441MOL0     H59494   5.268   9.541   6.072 -1.2104 -3.0543  2.0513
  441MOL0     H59495   4.909   9.728   5.910  1.8500  0.8557  1.1160
  441MOL0     H59496   4.687   9.794   5.977  1.1487 -1.6696 -2.2191
  441MOL0     H59497   4.296   9.838   6.253  2.5273 -2.2503  0.0602
  441MOL0     H59498   4.086   9.873   6.389 -1.0230 -0.8399  1.7395
  441MOL0     H59499   3.925  10.006   6.512  1.8424 -2.8053 -1.0394
  441MOL0     H59500   3.920   9.849   6.563 -0.4115 -0.8925  2.2421
  441MOL0     H59501   3.899  10.038   6.798 -0.5443  1.4401  0.6394
  441MOL0     H59502   3.775  10.059   6.681  0.9897  1.9783  2.5442
  441MOL0     H59503   3.696   9.834   6.687 -0.2749 -0.9155  1.5072
  441MOL0     H59504   3.843   9.777   6.771  2.1085  1.0320  0.2587
  441MOL0     H59505   3.661   9.976   6.918 -3.4589 -1.8598 -2.4876
  441MOL0     H59506   3.804   9.906   6.975 -0.8851  0.7392  1.1334
  441MOL0     H59507   3.727   9.689   6.992 -1.4070 -1.1650 -1.1567
  441MOL0     H59508   3.570   9.728   6.906 -0.9319  0.5537  2.0635
  441MOL0     H59509   3.676   9.845   7.164  2.7238  0.2843 -3.5145
  441MOL0     H59510   3.517   9.874   7.105  0.7295  1.0152 -0.9494
  441MOL0     H59511   3.615   9.583   7.186 -2.0618 -1.3877  2.2050
  441MOL0     H59512   3.471   9.622   7.100 -1.9479  1.0859  2.5955
  441MOL0     H59513   3.591   9.726   7.351 -0.0020  0.4324  1.2740
  441MOL0     H59514   3.424   9.779   7.304  1.1773  1.3152  2.4934
  441MOL0     H59515   4.324   9.913   6.730 -1.7096  2.4046 -0.7540
  441MOL0     H59516   4.533   9.847   6.606 -0.4416 -1.1392  2.0405
  441MOL0     H59517   4.802   9.739   6.397 -0.8164  1.8733 -0.4304
  441MOL0     H59518   5.005   9.658   6.319  1.7746 -0.5620 -1.5059
  441MOL0     H59519   4.400  10.895   6.046  0.2546  0.2601  1.7212
  441MOL0     H59520   4.161  10.870   6.109  1.3493  0.4345  0.5470
  441MOL0     H59521   3.768  10.719   5.772 -0.1957  2.6753  1.0789
  441MOL0     H59522   3.513  10.709   5.763  0.3902  0.4785  0.9127
  441MOL0     H59523   3.322  10.607   6.145  1.6760 -1.7606 -1.9577
  441MOL0     H59524   3.185  10.657   6.066 -0.0423  0.1341  3.5262
  441MOL0     H59525   3.244  10.879   6.037  1.6380  4.4464  1.2180
  441MOL0     H59526   3.414  10.849   6.080 -0.8176  2.6070 -2.4339
  441MOL0     H59527   3.303  10.770   6.313  0.8195  2.1213  2.6056
  441MOL0     H59528   3.165  10.866   6.255 -1.0449 -1.0759 -1.6745
  441MOL0     H59529   3.321  11.071   6.237  1.5958 -0.4682 -1.5165
  441MOL0     H59530   3.309  11.008   6.403  1.7856  0.4105  0.8657
  441MOL0     H59531   3.697  10.928   6.291 -1.2776 -2.8689  0.1995
  441MOL0     H59532   3.534  10.548   6.169  4.1105 -3.9970 -0.6528
  441MOL0     H59533   3.867  10.517   6.225  1.6373  0.8242  0.7695
  441MOL0     H59534   3.827  10.686   6.247 -3.4813  0.5708  2.4373
  441MOL0     H59535   3.709  10.571   6.304  0.4174 -1.3023  0.4684
  442MOL0     O59536   7.219   0.734   3.689  0.9553  0.0499 -0.3738
  442MOL0     C59537   7.098   0.772   3.701  1.0877 -0.0462  0.1967
  442MOL0     O59538   7.034   0.779   3.822  0.1728  0.0646  1.0787
  442MOL0     C59539   7.124   0.780   3.920  0.5788  0.6675 -0.7232
  442MOL0     C59540   7.146   0.660   3.987  0.2071  0.8289 -0.8659
  442MOL0     C59541   7.249   0.646   4.086 -0.1432 -0.7810  0.9956
  442MOL0     C59542   7.327   0.761   4.110 -0.2175  0.4027 -1.4012
  442MOL0     O59543   7.437   0.774   4.197  0.0841 -0.2022 -0.4106
  442MOL0     C59544   7.465   0.660   4.278  0.5699  0.4776 -0.9228
  442MOL0     C59545   7.553   0.568   4.203  0.2024 -0.2096  0.3469
  442MOL0     C59546   7.699   0.615   4.207 -0.3391 -0.7980  0.2629
  442MOL0     C59547   7.797   0.499   4.176 -0.5964 -0.2803 -0.7413
  442MOL0     C59548   7.942   0.544   4.184 -0.0069  1.1975  1.5388
  442MOL0     C59549   7.999   0.553   4.323 -0.4046 -0.0266  0.4608
  442MOL0     C59550   7.998   0.419   4.398  0.1163  0.3909  0.3438
  442MOL0     C59551   8.090   0.310   4.342  0.2849 -0.3890  0.2560
  442MOL0     N59552   8.214   0.364   4.299 -0.6965  0.1112 -0.4418
  442MOL0     C59553   8.307   0.449   4.368  0.8385  0.5112  0.1492
  442MOL0     C59554   8.403   0.480   4.272  0.3249  0.2051 -0.8593
  442MOL0     C59555   8.502   0.587   4.273  0.0113 -0.2300  0.2968
  442MOL0     C59556   8.440   0.718   4.216  0.0098  0.1388  0.0991
  442MOL0     C59557   8.550   0.820   4.181 -1.1078 -0.5785 -0.4898
  442MOL0     C59558   8.668   0.818   4.285 -0.2575  0.2620  0.2639
  442MOL0     O59559   8.617   0.847   4.419  1.3803 -0.8490 -0.2631
  442MOL0     C59560   8.700   0.913   4.503  0.1624 -0.7768  0.5502
  442MOL0     C59561   8.801   0.849   4.575  0.4445 -0.5187 -0.5454
  442MOL0     C59562   8.873   0.924   4.662  1.1637 -0.5077 -0.1669
  442MOL0     C59563   8.830   1.053   4.703 -0.2655 -0.1760  0.1739
  442MOL0     C59564   8.899   1.120   4.819  0.2936 -0.0962 -0.2302
  442MOL0     O59565   8.996   1.057   4.888  0.2335  0.5377 -0.1303
  442MOL0     C59566   9.059   1.108   4.996 -0.0019  0.4794 -0.0746
  442MOL0     C59567   9.002   1.163   5.109 -0.9164  0.0991 -0.4808
  442MOL0     C59568   9.085   1.214   5.218  0.3139  0.4259  0.3110
  442MOL0     C59569   9.217   1.180   5.223 -0.3622  1.0308  0.1717
  442MOL0     O59570   9.291   1.220   5.327  0.0518 -0.0324 -0.8184
  442MOL0     C59571   9.436   1.226   5.326  0.8390  0.8449  0.1364
  442MOL0     C59572   9.485   1.247   5.471 -0.1920  0.2739 -0.2539
  442MOL0     C59573   9.641   1.263   5.447 -0.2272 -0.4244  0.0758
  442MOL0     C59574   9.710   1.308   5.578  0.3802  0.9612 -0.5505
  442MOL0     C59575   9.679   1.448   5.618 -0.2020 -0.2462 -0.4350
  442MOL0     C59576   9.781   1.490   5.732  0.9380  0.4691  0.1632
  442MOL0     C59577   9.765   1.407   5.866  1.2542 -0.8114  0.7097
  442MOL0     C59578   9.855   1.480   5.963  0.3607 -0.7918  0.5001
  442MOL0    Cl59579  10.020   1.481   5.921  0.1709  0.3963  0.2745
  442MOL0     C59580   9.271   1.111   5.113 -0.1085 -0.6855  0.6887
  442MOL0     C59581   9.193   1.081   5.003  0.0818  0.2244  0.2683
  442MOL0     O59582   8.852   1.235   4.839  0.2393  0.4753  1.2328
  442MOL0     C59583   8.711   1.106   4.635 -0.4403  1.0010 -0.8609
  442MOL0     C59584   8.656   1.034   4.531 -0.5698 -1.2427  0.2481
  442MOL0     N59585   8.367   0.420   4.155 -0.5353 -0.8537  0.3392
  442MOL0     N59586   8.253   0.357   4.167  0.1540 -0.2776 -0.1466
  442MOL0     C59587   7.293   0.880   4.058  0.2437  0.2700  0.6165
  442MOL0     C59588   7.194   0.889   3.972 -0.0177  0.4412 -0.5642
  442MOL0     C59589   7.026   0.832   3.578 -0.3933  0.0100 -0.5621
  442MOL0     C59590   6.946   0.944   3.598 -1.1377 -0.0287  0.7929
  442MOL0     C59591   6.883   1.010   3.494 -1.0377  0.1767  0.7649
  442MOL0     C59592   6.904   0.969   3.362 -0.7244 -1.2963  0.9355
  442MOL0     O59593   6.851   1.045   3.255 -0.5088  0.1490 -0.6479
  442MOL0     C59594   6.751   0.989   3.178 -0.0292  0.2449 -0.7149
  442MOL0     C59595   6.665   1.080   3.089 -0.0276 -0.6415  0.2593
  442MOL0     C59596   6.567   1.014   2.983 -1.0754  0.6324  0.0653
  442MOL0     C59597   6.494   1.114   2.896 -0.7692 -0.5047 -0.5111
  442MOL0     C59598   6.582   1.196   2.820 -0.4755 -0.5287  0.6981
  442MOL0     C59599   6.652   1.271   2.757 -0.6858  0.0484  0.9033
  442MOL0     C59600   6.997   0.872   3.338 -0.1336  0.0822  0.1719
  442MOL0     C59601   7.050   0.796   3.438  0.4970  0.0599 -0.2700
  442MOL0     C59602   7.151   0.689   3.403  0.2182  0.4844  0.5149
  442MOL0     H59603   7.075   0.582   3.960  0.7270 -0.0647  0.2170
  442MOL0     H59604   7.267   0.548   4.128 -0.4253 -0.2806  2.3090
  442MOL0     H59605   7.511   0.693   4.372 -1.6321 -1.3885  0.9520
  442MOL0     H59606   7.382   0.595   4.309  2.2837 -2.4202 -2.0680
  442MOL0     H59607   7.504   0.555   4.107  0.8816 -0.0110 -0.0393
  442MOL0     H59608   7.556   0.478   4.265  1.7039  0.0409  0.6863
  442MOL0     H59609   7.715   0.670   4.300 -1.0205  2.4203 -1.3829
  442MOL0     H59610   7.715   0.693   4.133 -2.3109 -1.4707 -0.9744
  442MOL0     H59611   7.783   0.410   4.238 -0.5872  1.3397  1.7692
  442MOL0     H59612   7.791   0.472   4.071 -1.5968  1.2250 -1.1105
  442MOL0     H59613   8.011   0.486   4.121 -2.4740 -3.2580  2.4455
  442MOL0     H59614   7.941   0.646   4.144 -0.5057  0.3564 -0.7732
  442MOL0     H59615   8.101   0.590   4.329 -0.9892  1.4922  1.3990
  442MOL0     H59616   7.938   0.631   4.369 -2.4284 -1.3960  0.2677
  442MOL0     H59617   7.901   0.376   4.423  0.5890 -0.6584  0.4296
  442MOL0     H59618   8.040   0.448   4.495 -1.9831 -1.3661  1.8760
  442MOL0     H59619   8.102   0.248   4.432 -0.4490  0.2603  0.8176
  442MOL0     H59620   8.047   0.264   4.252  0.9433  0.4616 -0.5075
  442MOL0     H59621   8.303   0.483   4.472 -2.3804  2.6983 -0.5302
  442MOL0     H59622   8.540   0.610   4.373 -0.5237 -1.7805  0.8852
  442MOL0     H59623   8.580   0.540   4.212 -0.8749  0.2303 -1.2614
  442MOL0     H59624   8.383   0.694   4.126 -3.1766 -2.2341  2.5156
  442MOL0     H59625   8.363   0.749   4.287 -0.4070 -1.9114  0.6052
  442MOL0     H59626   8.519   0.924   4.186 -0.2984 -0.3683  1.7191
  442MOL0     H59627   8.601   0.801   4.086 -3.0154 -0.8216 -1.5003
  442MOL0     H59628   8.753   0.881   4.257  0.8157 -1.6344 -0.9643
  442MOL0     H59629   8.714   0.718   4.288  1.5018  1.0455  1.2876
  442MOL0     H59630   8.829   0.749   4.544  1.4777  0.5002 -3.2776
  442MOL0     H59631   8.960   0.880   4.709 -0.0244 -1.1496  1.5299
  442MOL0     H59632   8.898   1.195   5.113 -0.7576  0.5408  2.5217
  442MOL0     H59633   9.042   1.269   5.301 -1.7839 -2.1476  1.0298
  442MOL0     H59634   9.463   1.124   5.297 -1.2288  0.4174 -0.4537
  442MOL0     H59635   9.466   1.305   5.257  0.7196  2.6982  2.0948
  442MOL0     H59636   9.435   1.338   5.505  0.2836  0.6196 -0.4699
  442MOL0     H59637   9.469   1.159   5.535  2.1221  0.6790  0.9934
  442MOL0     H59638   9.694   1.175   5.410  2.3910  0.5210  1.3460
  442MOL0     H59639   9.646   1.344   5.374 -4.8023  0.8411  0.8230
  442MOL0     H59640   9.817   1.295   5.559  0.4526 -0.4464  0.6879
  442MOL0     H59641   9.680   1.238   5.656 -0.6563  0.6503 -1.1989
  442MOL0     H59642   9.573   1.444   5.645 -0.1436 -0.0560 -0.1786
  442MOL0     H59643   9.687   1.511   5.528 -0.2232 -2.6530 -2.2146
  442MOL0     H59644   9.883   1.475   5.694  0.1234 -0.9014 -1.6525
  442MOL0     H59645   9.772   1.598   5.745  0.6787  0.4539  0.1137
  442MOL0     H59646   9.792   1.302   5.847  3.7520 -0.2032  0.4988
  442MOL0     H59647   9.662   1.414   5.900  0.9723  2.2118 -0.4801
  442MOL0     H59648   9.827   1.585   5.975 -0.2278 -1.0250  1.2671
  442MOL0     H59649   9.840   1.450   6.067  0.2322  0.3069  0.8105
  442MOL0     H59650   9.376   1.084   5.103  0.5801  2.0812 -0.8833
  442MOL0     H59651   9.238   1.017   4.928 -1.1340 -2.3936  1.6037
  442MOL0     H59652   8.669   1.203   4.656 -0.5638  0.4968  1.4555
  442MOL0     H59653   8.569   1.066   4.474  2.3869  2.7445 -2.6487
  442MOL0     H59654   7.338   0.974   4.090 -0.7796  1.4813 -1.3289
  442MOL0     H59655   7.163   0.987   3.936 -4.7998 -1.0563 -1.2867
  442MOL0     H59656   6.932   0.981   3.699  0.3056  0.2918  0.9021
  442MOL0     H59657   6.823   1.098   3.517 -1.3393  0.1618  0.0485
  442MOL0     H59658   6.693   0.942   3.257  2.2848 -0.2240  0.7967
  442MOL0     H59659   6.793   0.907   3.119  3.1120  2.1134 -1.3057
  442MOL0     H59660   6.727   1.160   3.046 -0.7008 -1.0549 -1.5776
  442MOL0     H59661   6.600   1.117   3.169  0.6199 -0.9659  0.9472
  442MOL0     H59662   6.500   0.949   3.041 -1.5373  1.2792  0.2631
  442MOL0     H59663   6.627   0.945   2.923 -1.3403 -0.0874  0.6002
  442MOL0     H59664   6.444   1.073   2.807 -0.5683  1.4286 -1.5634
  442MOL0     H59665   6.418   1.158   2.961 -0.1480  0.2925 -0.3190
  442MOL0     H59666   6.714   1.349   2.718 -0.3184 -1.2149 -1.2020
  442MOL0     H59667   7.040   0.849   3.241 -0.2061  1.0072 -0.0909
  442MOL0     H59668   7.157   0.674   3.295 -1.6096 -1.8680  0.6571
  442MOL0     H59669   7.249   0.718   3.441 -0.5554  1.0751  2.1459
  442MOL0     H59670   7.133   0.592   3.450 -0.2996  1.2306  1.9029
  443MOL0     O59671  10.946   9.887   9.340 -0.1311 -0.1517  0.1096
  443MOL0     C59672  10.841   9.827   9.343 -0.4011 -0.1285 -0.7834
  443MOL0     O59673  10.752   9.820   9.447  0.1207 -0.3187 -0.2808
  443MOL0     C59674  10.786   9.890   9.562 -0.4544  0.4338  0.1753
  443MOL0     C59675  10.776  10.029   9.580 -0.3787  1.1134  0.5510
  443MOL0     C59676  10.819  10.100   9.696  0.1918  0.1926 -0.1708
  443MOL0     C59677  10.878  10.025   9.801  0.3679 -0.2822  0.4997
  443MOL0     O59678  10.921  10.075   9.921  0.2027 -0.0776 -0.7898
  443MOL0     C59679  11.022  10.179   9.916  0.2051  1.3888 -0.4732
  443MOL0     C59680  11.066  10.213  10.056 -0.2024 -0.3607  1.1556
  443MOL0     C59681  11.150  10.342  10.059 -0.0825  0.8089  0.2347
  443MOL0     C59682  11.293  10.317  10.002  0.3478 -0.4481  0.6739
  443MOL0     C59683  11.371  10.444  10.049 -0.1980 -0.5457 -0.1150
  443MOL0     C59684  11.489  10.472   9.947  1.3682 -0.0509 -0.0512
  443MOL0     C59685  11.569  10.599   9.992  0.4625 -0.6355  0.4686
  443MOL0     C59686  11.580  10.706   9.879 -0.5064  0.9042 -0.7906
  443MOL0     N59687  11.665  10.650   9.768  0.7504  0.1302 -0.5889
  443MOL0     C59688  11.799  10.647   9.771 -0.2924  0.0252  0.8598
  443MOL0     C59689  11.834  10.605   9.652 -0.2805  0.9807  1.2055
  443MOL0     C59690  11.964  10.561   9.604  0.1535 -0.2515  0.2464
  443MOL0     C59691  11.974  10.555   9.443  0.5839 -0.0244 -0.3355
  443MOL0     C59692  12.119  10.523   9.393 -0.7026  0.9600  0.4974
  443MOL0     C59693  12.148  10.380   9.414 -0.4258 -0.6631 -0.2025
  443MOL0     O59694  12.267  10.345   9.344  0.1966 -0.2189  0.6709
  443MOL0     C59695  12.363  10.273   9.403 -0.2727 -0.1584 -0.7098
  443MOL0     C59696  12.491  10.315   9.375 -0.0547  0.1834  0.0258
  443MOL0     C59697  12.607  10.255   9.441 -0.3484  0.8650  1.1111
  443MOL0     C59698  12.585  10.138   9.511  1.2235 -0.0445 -0.2246
  443MOL0     C59699  12.699  10.056   9.558  0.9203  0.2988  0.7320
  443MOL0     O59700  12.818  10.102   9.548 -0.5526 -0.3618 -0.0365
  443MOL0     C59701  12.935  10.033   9.577  0.2320 -0.1884  0.7909
  443MOL0     C59702  13.037  10.019   9.482  0.3329  0.5595  0.1255
  443MOL0     C59703  13.150   9.950   9.503  0.3608 -0.0151 -0.5251
  443MOL0     C59704  13.160   9.871   9.616  1.2729 -1.3380  0.0252
  443MOL0     O59705  13.266   9.785   9.626  0.4373  0.7536 -0.3845
  443MOL0     C59706  13.233   9.651   9.654  0.1466 -0.4374  0.6989
  443MOL0     C59707  13.351   9.559   9.654  0.2200 -0.6561 -0.6300
  443MOL0     C59708  13.443   9.568   9.535  0.2973 -0.4340  0.5294
  443MOL0     C59709  13.397   9.489   9.407  0.8166  0.8129  0.0983
  443MOL0     C59710  13.333   9.590   9.312  0.7867  0.0322 -0.3342
  443MOL0     C59711  13.265   9.527   9.193  0.1115  0.7939  0.5117
  443MOL0     C59712  13.244   9.624   9.081  0.1744  0.0148 -0.0120
  443MOL0     C59713  13.365   9.651   9.004  0.1013  0.3859 -0.1853
  443MOL0    Cl59714  13.353   9.805   8.927  0.0365  0.2323  0.3117
  443MOL0     C59715  13.067   9.884   9.720 -1.0446 -0.7642 -0.6072
  443MOL0     C59716  12.952   9.970   9.697 -0.3013 -0.0519 -1.0592
  443MOL0     O59717  12.672   9.943   9.606 -0.0244  0.1372 -0.2077
  443MOL0     C59718  12.452  10.091   9.535 -1.0845 -0.6820 -0.6855
  443MOL0     C59719  12.343  10.158   9.484 -0.2452  0.6711 -1.0896
  443MOL0     N59720  11.716  10.576   9.577 -0.8338 -0.4760 -0.6373
  443MOL0     N59721  11.617  10.623   9.650  0.3164 -0.4696 -0.4536
  443MOL0     C59722  10.872   9.879   9.794 -0.2922 -0.4959  0.0285
  443MOL0     C59723  10.830   9.814   9.673 -0.5367 -0.1616 -0.4311
  443MOL0     C59724  10.782   9.770   9.213 -0.3774  0.7079 -0.2023
  443MOL0     C59725  10.701   9.664   9.215  0.2783  0.0896  0.3420
  443MOL0     C59726  10.654   9.598   9.099 -0.3113  0.7355 -0.2980
  443MOL0     C59727  10.710   9.636   8.980 -0.6112  1.2825 -0.1106
  443MOL0     O59728  10.668   9.559   8.875 -0.1115  0.6602  0.6976
  443MOL0     C59729  10.713   9.594   8.751 -0.0799  1.0273  0.1889
  443MOL0     C59730  10.857   9.545   8.714  0.7445 -0.3009  0.4243
  443MOL0     C59731  10.938   9.454   8.802 -0.5541  0.8400 -0.1323
  443MOL0     C59732  11.088   9.462   8.789  0.2719  0.7378 -1.0360
  443MOL0     C59733  11.126   9.390   8.669 -0.3908 -0.1494  0.2382
  443MOL0     C59734  11.152   9.342   8.560 -0.4508  0.9468 -0.2368
  443MOL0     C59735  10.811   9.737   8.969  0.1881 -0.7159  1.0310
  443MOL0     C59736  10.845   9.807   9.083  0.0740 -1.1696  0.0712
  443MOL0     C59737  10.950   9.916   9.065 -0.2930 -0.8948 -0.6686
  443MOL0     H59738  10.731  10.075   9.492 -0.3020 -0.2705 -0.2447
  443MOL0     H59739  10.823  10.208   9.711  0.2636  0.3315 -1.1073
  443MOL0     H59740  11.105  10.147   9.853 -0.2084 -0.0113 -0.3365
  443MOL0     H59741  10.983  10.267   9.864 -1.0645 -0.3585 -2.6571
  443MOL0     H59742  11.130  10.132  10.094  0.8770  1.2424  2.9446
  443MOL0     H59743  10.983  10.218  10.126 -0.4553 -0.6598  0.8807
  443MOL0     H59744  11.148  10.373  10.164  0.0629  1.7485 -0.0314
  443MOL0     H59745  11.098  10.422  10.005 -0.6389  0.1539 -0.2179
  443MOL0     H59746  11.352  10.230  10.032  0.9398 -0.9408 -1.7391
  443MOL0     H59747  11.281  10.316   9.893 -5.3160 -1.2378  0.9860
  443MOL0     H59748  11.294  10.522  10.055  2.1903  1.8597  1.3470
  443MOL0     H59749  11.413  10.422  10.147  0.7370  1.4755 -0.0163
  443MOL0     H59750  11.549  10.384   9.922 -1.2352 -2.0571  0.3111
  443MOL0     H59751  11.454  10.492   9.845  1.6926  3.0241  0.3386
  443MOL0     H59752  11.666  10.561  10.025  0.8909 -0.0886 -0.1485
  443MOL0     H59753  11.499  10.634  10.068 -1.5389 -1.8731 -0.7028
  443MOL0     H59754  11.483  10.729   9.833  0.3006  2.7828 -1.6106
  443MOL0     H59755  11.621  10.802   9.911 -1.1438  0.2769  2.2156
  443MOL0     H59756  11.871  10.667   9.849  2.5245 -1.7243 -1.1091
  443MOL0     H59757  12.042  10.622   9.650  1.2161 -0.6162 -1.0225
  443MOL0     H59758  11.979  10.462   9.647 -1.4287 -2.4273 -3.6903
  443MOL0     H59759  11.918  10.474   9.395  1.8765 -1.1287 -0.0290
  443MOL0     H59760  11.923  10.645   9.409 -1.2914 -0.6301  0.7364
  443MOL0     H59761  12.197  10.566   9.456  0.5334  1.2328 -1.1470
  443MOL0     H59762  12.130  10.550   9.287 -2.5523  0.3351  0.1098
  443MOL0     H59763  12.070  10.322   9.364 -2.1034  0.9547  0.4169
  443MOL0     H59764  12.170  10.354   9.518 -0.1345 -2.1041 -0.6063
  443MOL0     H59765  12.500  10.411   9.326  0.6225  1.2290  2.0589
  443MOL0     H59766  12.699  10.309   9.419  1.8663 -2.3934  1.6725
  443MOL0     H59767  13.019  10.067   9.386 -0.4905  1.7619  0.8516
  443MOL0     H59768  13.225   9.950   9.426 -1.8802  2.0372 -2.8978
  443MOL0     H59769  13.180   9.635   9.748 -2.6873 -0.6151 -0.8142
  443MOL0     H59770  13.162   9.604   9.585  0.5079 -1.9491  1.3040
  443MOL0     H59771  13.414   9.590   9.738  0.0164  1.4256 -1.1803
  443MOL0     H59772  13.327   9.453   9.659 -0.7990 -0.4215 -0.3863
  443MOL0     H59773  13.455   9.675   9.521  4.1730 -1.0581 -3.5698
  443MOL0     H59774  13.535   9.515   9.563  1.4819  1.6873  0.8229
  443MOL0     H59775  13.317   9.419   9.433  1.8654 -0.6789 -0.5970
  443MOL0     H59776  13.479   9.431   9.364 -0.9741 -1.1245 -0.9032
  443MOL0     H59777  13.411   9.658   9.278  1.8449  0.3551  2.4566
  443MOL0     H59778  13.253   9.646   9.359  0.1725  0.7404 -2.1440
  443MOL0     H59779  13.305   9.436   9.147 -0.1349  0.9341  0.0098
  443MOL0     H59780  13.164   9.507   9.231  0.2884  2.4049  1.9887
  443MOL0     H59781  13.205   9.710   9.136 -0.8280 -0.0458 -0.5862
  443MOL0     H59782  13.163   9.597   9.013 -0.7392 -0.8569  1.3711
  443MOL0     H59783  13.450   9.645   9.071 -1.2975  0.0966  1.6495
  443MOL0     H59784  13.377   9.566   8.936 -3.3730 -1.0500  0.7304
  443MOL0     H59785  13.076   9.833   9.816 -2.5495 -0.6172 -0.3489
  443MOL0     H59786  12.877   9.990   9.772  2.5493  0.3404  1.9048
  443MOL0     H59787  12.434   9.992   9.577 -0.3751 -1.1700 -1.4840
  443MOL0     H59788  12.247  10.115   9.510  0.2982 -0.0819 -0.2877
  443MOL0     H59789  10.915   9.824   9.877 -0.8602 -2.3193 -0.8427
  443MOL0     H59790  10.846   9.707   9.663 -0.6622 -0.2064 -0.1739
  443MOL0     H59791  10.657   9.629   9.307 -2.0798 -1.1529 -1.1645
  443MOL0     H59792  10.590   9.511   9.096  0.0224  0.4821 -0.1256
  443MOL0     H59793  10.718   9.702   8.733 -0.7436  0.5453 -3.7801
  443MOL0     H59794  10.633   9.560   8.685  1.3935 -4.8590  0.8309
  443MOL0     H59795  10.918   9.636   8.705 -1.2202  1.0310 -0.0828
  443MOL0     H59796  10.862   9.502   8.614  0.6176 -0.7770  0.6204
  443MOL0     H59797  10.908   9.350   8.791 -0.4878  0.6652  1.2073
  443MOL0     H59798  10.905   9.473   8.905 -3.2875  0.5810 -0.8666
  443MOL0     H59799  11.106   9.570   8.783  1.4543  1.0353  3.6549
  443MOL0     H59800  11.134   9.429   8.883  0.1575  2.4937 -0.3341
  443MOL0     H59801  11.175   9.286   8.472  1.7776 -0.1973  0.9920
  443MOL0     H59802  10.867   9.759   8.879  0.8850 -3.4069  0.7086
  443MOL0     H59803  10.932  10.010   9.117 -2.7147 -0.9510 -1.2659
  443MOL0     H59804  11.047   9.881   9.102 -0.7258 -0.8744  0.5462
  443MOL0     H59805  10.957   9.945   8.960  2.0122 -0.7853 -0.5357
  444MOL0     O59806   6.891  11.054   6.915 -0.0978  0.0572  0.3338
  444MOL0     C59807   6.954  11.102   7.007  0.3595 -0.1163  1.4449
  444MOL0     O59808   7.080  11.144   6.994  0.0577  0.2275 -0.3925
  444MOL0     C59809   7.160  11.116   6.883  0.5822  0.1520 -0.9293
  444MOL0     C59810   7.185  10.984   6.849 -0.5536 -0.4164 -0.7158
  444MOL0     C59811   7.266  10.955   6.735 -0.6166 -0.2419  0.3399
  444MOL0     C59812   7.323  11.065   6.664 -0.0245  0.4798 -0.4909
  444MOL0     O59813   7.398  11.057   6.550 -0.0982 -0.1628 -0.3760
  444MOL0     C59814   7.493  10.955   6.534  0.3448 -0.6714  0.1424
  444MOL0     C59815   7.566  10.983   6.399  0.6000 -0.2772 -0.1107
  444MOL0     C59816   7.686  10.898   6.400 -0.3888 -0.0323 -0.0491
  444MOL0     C59817   7.763  10.917   6.268  0.0976  0.6699 -0.0477
  444MOL0     C59818   7.869  10.813   6.248  0.0603 -1.1473 -0.4371
  444MOL0     C59819   7.995  10.850   6.176 -0.0113  0.2429 -0.1081
  444MOL0     C59820   8.089  10.730   6.181 -0.0985 -0.3751 -0.5034
  444MOL0     C59821   8.214  10.769   6.098  0.8821 -1.2205 -0.2042
  444MOL0     N59822   8.300  10.650   6.103 -0.4710 -0.0829  0.0967
  444MOL0     C59823   8.272  10.530   6.042  0.0559  0.6196 -0.7939
  444MOL0     C59824   8.387  10.463   6.057 -0.2422 -0.7606  0.3310
  444MOL0     C59825   8.406  10.326   5.983 -0.1648 -0.0329 -0.6248
  444MOL0     C59826   8.543  10.311   5.912  0.5858 -0.1418  0.3549
  444MOL0     C59827   8.545  10.196   5.814  0.0991  0.4276  0.4306
  444MOL0     C59828   8.590  10.064   5.887 -0.7427 -0.9929 -0.4024
  444MOL0     O59829   8.733  10.051   5.917  0.1140  0.1863  0.2412
  444MOL0     C59830   8.770   9.917   5.933  0.0865  0.6455 -0.0429
  444MOL0     C59831   8.682   9.818   5.976  0.3749  0.2460  0.4217
  444MOL0     C59832   8.722   9.684   5.980 -0.9129  0.2166 -0.0704
  444MOL0     C59833   8.855   9.638   5.959  0.2699 -0.1304 -1.0408
  444MOL0     C59834   8.884   9.498   5.950 -0.4216  0.5558  0.2819
  444MOL0     O59835   8.783   9.410   5.954 -0.5378 -0.0960 -0.5997
  444MOL0     C59836   8.807   9.284   5.993 -0.3776  0.7005 -0.6130
  444MOL0     C59837   8.857   9.191   5.900  0.4730  0.0683  0.8061
  444MOL0     C59838   8.860   9.055   5.910 -0.0187  0.4217  0.2623
  444MOL0     C59839   8.827   9.001   6.043 -0.2779 -0.3118 -0.9317
  444MOL0     O59840   8.831   8.863   6.058  0.1817 -0.5079  0.5432
  444MOL0     C59841   8.849   8.817   6.190 -1.2581  1.0071 -0.3034
  444MOL0     C59842   8.920   8.680   6.200  0.1606  0.5465 -0.8100
  444MOL0     C59843   8.929   8.653   6.352 -0.5066 -0.1092 -0.1883
  444MOL0     C59844   9.022   8.527   6.369 -1.0608 -0.6653  0.2994
  444MOL0     C59845   9.073   8.500   6.508  0.6732  0.3759  0.3759
  444MOL0     C59846   9.213   8.427   6.504 -0.2137 -0.4006  0.0744
  444MOL0     C59847   9.205   8.273   6.480 -0.1516  0.3783  0.1867
  444MOL0     C59848   9.328   8.193   6.515 -0.1713  0.4654 -0.8577
  444MOL0    Cl59849   9.461   8.243   6.415 -0.0694  0.2403 -0.1296
  444MOL0     C59850   8.778   9.092   6.138 -0.1593  0.2522 -0.4655
  444MOL0     C59851   8.761   9.229   6.119  0.8079  0.1022 -0.1321
  444MOL0     O59852   9.002   9.467   5.961 -0.2072 -0.0885 -0.2092
  444MOL0     C59853   8.946   9.743   5.922 -0.7472 -0.6601  0.3765
  444MOL0     C59854   8.906   9.878   5.902 -0.2334 -0.6850  0.4689
  444MOL0     N59855   8.473  10.531   6.137  0.0412 -0.9300 -0.1273
  444MOL0     N59856   8.417  10.645   6.175  0.5913 -0.0544 -0.0173
  444MOL0     C59857   7.296  11.197   6.706  0.0451 -0.7485  0.7105
  444MOL0     C59858   7.211  11.224   6.809  0.1623 -0.0538 -0.7576
  444MOL0     C59859   6.886  11.102   7.146 -0.0399 -1.0735  1.0923
  444MOL0     C59860   6.745  11.100   7.153 -0.0875  0.0227 -0.3306
  444MOL0     C59861   6.683  11.122   7.273 -0.6384  1.5778  0.8928
  444MOL0     C59862   6.750  11.140   7.390  0.2018  0.3286 -0.4940
  444MOL0     O59863   6.695  11.143   7.515  0.4421 -0.3738  0.3675
  444MOL0     C59864   6.560  11.204   7.514 -1.0657 -0.4267 -0.1158
  444MOL0     C59865   6.465  11.089   7.542  0.2096  1.1836 -0.3142
  444MOL0     C59866   6.470  11.063   7.697  0.3177  0.6698  0.7020
  444MOL0     C59867   6.357  10.964   7.739  0.8781  0.0979  0.1290
  444MOL0     C59868   6.328  10.849   7.651 -0.7077 -0.1863  0.1662
  444MOL0     C59869   6.317  10.756   7.577  1.0758  0.4738  0.1178
  444MOL0     C59870   6.891  11.145   7.380 -0.8085  0.4175 -0.4880
  444MOL0     C59871   6.959  11.124   7.265  0.5598 -0.0152 -0.5720
  444MOL0     C59872   7.103  11.137   7.275 -0.3862 -0.2200 -0.4197
  444MOL0     H59873   7.146  10.898   6.903 -0.0311 -0.3747 -0.2552
  444MOL0     H59874   7.299  10.855   6.707 -2.5031 -1.4191  2.0024
  444MOL0     H59875   7.559  10.941   6.621  0.0843 -1.2556  0.2509
  444MOL0     H59876   7.438  10.861   6.521  0.7071 -0.9329  0.4574
  444MOL0     H59877   7.589  11.089   6.386  3.4295 -0.5950  1.4624
  444MOL0     H59878   7.486  10.970   6.326 -0.3757 -0.3697  0.9571
  444MOL0     H59879   7.665  10.792   6.418 -0.8658 -0.1373 -1.1614
  444MOL0     H59880   7.748  10.946   6.477 -0.5638  1.2545 -0.6926
  444MOL0     H59881   7.687  10.895   6.192  2.3131 -3.2224 -1.4460
  444MOL0     H59882   7.804  11.019   6.260  0.9493  0.7919  4.0428
  444MOL0     H59883   7.909  10.778   6.344  0.7004 -0.6744 -0.5295
  444MOL0     H59884   7.818  10.721   6.219  0.7017 -2.6103  2.6252
  444MOL0     H59885   7.977  10.878   6.072  0.6263  2.1975  0.2824
  444MOL0     H59886   8.046  10.918   6.244  0.9848 -0.7942  0.2174
  444MOL0     H59887   8.039  10.640   6.144 -1.3990  0.9370 -2.1441
  444MOL0     H59888   8.120  10.722   6.285 -2.4217  2.2874  0.5046
  444MOL0     H59889   8.179  10.791   5.997  0.6563  0.8414  0.2765
  444MOL0     H59890   8.283  10.841   6.141  1.1030 -0.6834 -1.4278
  444MOL0     H59891   8.188  10.500   5.980 -1.0777  1.1675  0.4387
  444MOL0     H59892   8.393  10.250   6.060  3.2431 -0.7553 -0.6143
  444MOL0     H59893   8.334  10.300   5.905  0.2873  0.9592 -1.3954
  444MOL0     H59894   8.535  10.404   5.855 -2.0052 -1.1553 -1.1268
  444MOL0     H59895   8.628  10.313   5.980  1.1724  1.0276 -0.3778
  444MOL0     H59896   8.615  10.210   5.731 -1.0806 -2.0114 -1.1294
  444MOL0     H59897   8.444  10.184   5.773  1.0343 -0.0207 -1.8955
  444MOL0     H59898   8.568   9.975   5.828  0.4643 -0.2512 -2.0424
  444MOL0     H59899   8.528  10.050   5.976 -0.3683 -0.5584 -0.0655
  444MOL0     H59900   8.580   9.842   6.002 -0.5922 -1.9488 -1.0434
  444MOL0     H59901   8.649   9.608   6.006  1.6233 -1.8351  1.5981
  444MOL0     H59902   8.879   9.240   5.806  1.6241  1.7878  1.9099
  444MOL0     H59903   8.904   8.980   5.844  1.4613  1.3429  0.1525
  444MOL0     H59904   8.906   8.893   6.245 -2.5717  0.2302  2.2977
  444MOL0     H59905   8.754   8.809   6.243 -0.6205  2.0796  1.0871
  444MOL0     H59906   8.853   8.599   6.170 -1.6432  1.1169  1.3748
  444MOL0     H59907   9.017   8.681   6.149  0.0214  1.1466 -1.0701
  444MOL0     H59908   8.964   8.742   6.406  0.9809 -0.3307 -0.7176
  444MOL0     H59909   8.827   8.631   6.383 -0.0198 -0.1811  1.4783
  444MOL0     H59910   9.112   8.536   6.308 -0.2104  4.5739  1.8407
  444MOL0     H59911   8.970   8.436   6.335 -1.9392  0.9774 -3.2394
  444MOL0     H59912   9.005   8.439   6.568  1.1176 -0.1328  0.3767
  444MOL0     H59913   9.093   8.591   6.564  4.5212  0.2970 -0.5878
  444MOL0     H59914   9.279   8.478   6.433 -2.1857  3.7749  0.9364
  444MOL0     H59915   9.257   8.440   6.604  2.0043  2.3720 -1.1019
  444MOL0     H59916   9.174   8.250   6.378 -1.0636  1.1359  0.2743
  444MOL0     H59917   9.122   8.237   6.542  0.6847  0.8646  1.6339
  444MOL0     H59918   9.367   8.202   6.617  1.2017  0.1225 -1.3424
  444MOL0     H59919   9.311   8.085   6.506 -4.2448  0.9499 -1.0338
  444MOL0     H59920   8.745   9.061   6.237 -3.5499  1.3991 -1.0807
  444MOL0     H59921   8.713   9.289   6.196 -1.6991 -1.6621 -0.2208
  444MOL0     H59922   9.046   9.714   5.892 -0.9684 -0.7404 -0.2966
  444MOL0     H59923   8.964   9.954   5.851 -3.2273  0.8683 -0.8946
  444MOL0     H59924   7.347  11.280   6.659  0.2717  2.3102  5.6374
  444MOL0     H59925   7.191  11.324   6.846 -1.7172 -1.1880  1.5224
  444MOL0     H59926   6.683  11.073   7.068 -0.3380 -1.9620  0.4400
  444MOL0     H59927   6.576  11.106   7.275 -0.4810  0.2424 -0.0033
  444MOL0     H59928   6.534  11.244   7.415 -2.4964  0.3076  0.5290
  444MOL0     H59929   6.552  11.289   7.583 -0.0082 -2.6407  2.9397
  444MOL0     H59930   6.498  10.999   7.489  1.6292  1.9594 -0.8078
  444MOL0     H59931   6.361  11.114   7.520 -0.2454 -2.6561 -3.8772
  444MOL0     H59932   6.454  11.155   7.753  0.1854  1.2249 -0.2295
  444MOL0     H59933   6.567  11.017   7.721  0.9097 -0.6006 -3.3416
  444MOL0     H59934   6.384  10.910   7.831 -2.3998  0.2268  1.2903
  444MOL0     H59935   6.267  11.025   7.750  0.2143 -1.0263  1.2962
  444MOL0     H59936   6.321  10.673   7.509 -1.5268 -0.0301  0.4492
  444MOL0     H59937   6.930  11.158   7.480 -3.9286 -2.2010  1.2681
  444MOL0     H59938   7.145  11.217   7.213  0.0408 -0.6098 -0.6422
  444MOL0     H59939   7.133  11.155   7.378 -2.7591  1.6494  0.0375
  444MOL0     H59940   7.146  11.047   7.230  4.4077  2.6712 -2.4721
  445MOL0     O59941   2.486   8.676   9.951  0.5464  0.0174  0.7820
  445MOL0     C59942   2.553   8.682   9.847 -0.1663  0.3143 -1.0698
  445MOL0     O59943   2.621   8.579   9.786 -0.2281 -0.6890  0.2221
  445MOL0     C59944   2.630   8.457   9.842 -0.5483 -0.1864 -0.6572
  445MOL0     C59945   2.635   8.344   9.767  0.4512 -0.2235 -0.5244
  445MOL0     C59946   2.628   8.223   9.832 -0.1734  0.5922 -0.1680
  445MOL0     C59947   2.636   8.204   9.971  0.1560  0.0843 -0.1136
  445MOL0     O59948   2.644   8.075  10.027  0.5710 -0.1764  0.4997
  445MOL0     C59949   2.625   8.065  10.166  0.5846  0.4516 -0.6494
  445MOL0     C59950   2.584   7.935  10.227 -0.7330 -0.1835  0.4689
  445MOL0     C59951   2.451   7.889  10.178  0.6716  0.5790  0.6795
  445MOL0     C59952   2.440   7.858  10.022 -0.4907 -0.3644 -0.3837
  445MOL0     C59953   2.328   7.761   9.972  0.4399  0.1210 -0.2251
  445MOL0     C59954   2.377   7.707   9.833  0.4081  0.8179 -0.4393
  445MOL0     C59955   2.327   7.560   9.813  0.2926  0.7604 -0.1053
  445MOL0     C59956   2.348   7.527   9.667  0.1703 -0.2761  0.0467
  445MOL0     N59957   2.294   7.388   9.663 -0.0688 -0.4467 -0.2739
  445MOL0     C59958   2.158   7.357   9.670 -0.6684 -0.5436 -0.0530
  445MOL0     C59959   2.146   7.230   9.721 -0.8913 -0.3699  0.7676
  445MOL0     C59960   2.013   7.158   9.745  0.0442 -0.4955 -0.4455
  445MOL0     C59961   1.998   7.095   9.601 -0.4738  0.7905  0.2989
  445MOL0     C59962   1.873   7.010   9.597  0.5917  0.4414  0.4788
  445MOL0     C59963   1.875   6.885   9.693  1.0946 -0.1225  0.4836
  445MOL0     O59964   1.766   6.806   9.657  0.1923  0.3416 -0.6099
  445MOL0     C59965   1.635   6.854   9.677 -0.8873 -0.1511 -0.2963
  445MOL0     C59966   1.538   6.806   9.588 -0.2377 -0.6897 -0.9036
  445MOL0     C59967   1.410   6.869   9.584 -0.4801 -0.0164 -0.4318
  445MOL0     C59968   1.378   6.971   9.675  0.3121 -0.2328 -0.3287
  445MOL0     C59969   1.241   7.036   9.662 -0.7124 -0.3958  0.6324
  445MOL0     O59970   1.184   7.016   9.537 -0.0955 -0.5813 -0.2988
  445MOL0     C59971   1.080   7.098   9.491 -0.6262  0.7837 -0.1418
  445MOL0     C59972   1.012   7.050   9.381  0.1194  0.3844 -1.5140
  445MOL0     C59973   0.911   7.129   9.324 -0.6717 -0.6176  0.5280
  445MOL0     C59974   0.887   7.259   9.374  0.8374 -0.6870  0.0886
  445MOL0     O59975   0.794   7.346   9.312 -0.6848 -0.1126 -0.7327
  445MOL0     C59976   0.668   7.290   9.292 -0.0646 -0.3238  0.0752
  445MOL0     C59977   0.561   7.389   9.285 -0.1694 -0.3099 -0.0005
  445MOL0     C59978   0.539   7.478   9.418 -0.0247  0.1853 -0.3575
  445MOL0     C59979   0.403   7.468   9.485  0.2128 -0.3601 -0.7397
  445MOL0     C59980   0.283   7.492   9.396 -0.1556  0.2562 -0.0898
  445MOL0     C59981   0.147   7.513   9.477  0.4611  0.3705 -0.2037
  445MOL0     C59982   0.041   7.556   9.385 -0.8097  1.1511 -0.0780
  445MOL0     C59983  -0.094   7.576   9.444  0.5111  0.8235  0.3884
  445MOL0    Cl59984  -0.232   7.642   9.348 -0.7097 -0.2942  0.1110
  445MOL0     C59985   0.956   7.302   9.487 -0.2129 -0.8188  0.9058
  445MOL0     C59986   1.060   7.230   9.538  0.8269 -0.3590 -0.3164
  445MOL0     O59987   1.184   7.084   9.760  1.0364 -0.9698  0.5557
  445MOL0     C59988   1.474   7.018   9.772 -0.4391  0.2333  0.9185
  445MOL0     C59989   1.599   6.963   9.768 -0.0658  0.5524  0.1116
  445MOL0     N59990   2.274   7.187   9.745  0.0947 -0.1995  1.0106
  445MOL0     N59991   2.364   7.283   9.716 -0.5428  0.0130  0.6732
  445MOL0     C59992   2.668   8.322  10.037  0.5064  0.0456 -0.6538
  445MOL0     C59993   2.657   8.445   9.978 -0.3663  0.0746 -0.1887
  445MOL0     C59994   2.574   8.814   9.786 -0.5404  0.8179  0.4756
  445MOL0     C59995   2.630   8.809   9.657  0.2187 -0.5789  0.1825
  445MOL0     C59996   2.641   8.924   9.574 -0.8101  0.0298  0.8675
  445MOL0     C59997   2.599   9.046   9.623  0.0435 -0.4616  0.9220
  445MOL0     O59998   2.599   9.167   9.546 -0.6525  0.9215  0.3082
  445MOL0     C59999   2.699   9.182   9.441  0.1524 -0.1740  0.6019
  445MOL0     C60000   2.833   9.188   9.497 -0.7072  1.3370 -0.2648
  445MOL0     C60001   2.936   9.151   9.399  0.6473 -0.6682  1.0546
  445MOL0     C60002   3.083   9.181   9.448  1.5734 -0.2802 -0.0051
  445MOL0     C60003   3.186   9.171   9.350 -0.2048  0.2276 -0.5482
  445MOL0     C60004   3.279   9.171   9.272  0.9306  0.2762 -0.5343
  445MOL0     C60005   2.551   9.052   9.755  0.2570 -0.6520 -1.0907
  445MOL0     C60006   2.547   8.940   9.838  0.2814  0.3639 -0.1891
  445MOL0     C60007   2.503   8.968   9.979  0.5209  0.4116 -0.3846
  445MOL0     H60008   2.620   8.343   9.659 -1.5787 -3.4717 -0.3387
  445MOL0     H60009   2.622   8.132   9.773 -2.9469  0.6648 -0.1412
  445MOL0     H60010   2.721   8.091  10.211  2.2050 -2.0350 -2.3779
  445MOL0     H60011   2.551   8.138  10.199 -0.2380 -1.5295  2.3372
  445MOL0     H60012   2.572   7.942  10.335 -4.3246  0.2602  0.1610
  445MOL0     H60013   2.657   7.857  10.201 -0.8584  0.1234 -0.8974
  445MOL0     H60014   2.374   7.960  10.209 -1.0548 -1.5080  1.3584
  445MOL0     H60015   2.430   7.800  10.237  1.2819  0.5180  0.8191
  445MOL0     H60016   2.450   7.950   9.963 -0.4157  0.7459  1.3073
  445MOL0     H60017   2.531   7.799  10.006  1.1231  1.8241  0.3018
  445MOL0     H60018   2.301   7.684  10.045 -1.3451  1.0548  0.1506
  445MOL0     H60019   2.233   7.815   9.961  2.0268  2.7362 -2.2607
  445MOL0     H60020   2.334   7.777   9.762  0.1302  2.7120  1.4776
  445MOL0     H60021   2.485   7.699   9.820  0.4620 -0.2259  0.4481
  445MOL0     H60022   2.221   7.549   9.836  0.6599 -1.7317  0.6828
  445MOL0     H60023   2.375   7.499   9.890  0.8025  1.0869 -0.1574
  445MOL0     H60024   2.297   7.598   9.602 -0.0200 -0.0868  0.3939
  445MOL0     H60025   2.452   7.543   9.641  0.5260  2.4892  2.5290
  445MOL0     H60026   2.073   7.413   9.630  1.0369  0.0900 -3.1340
  445MOL0     H60027   2.020   7.082   9.824 -2.2509  1.2176  1.5403
  445MOL0     H60028   1.940   7.233   9.777  1.9167  1.4153 -0.3609
  445MOL0     H60029   1.987   7.174   9.526  1.0088 -0.2049 -1.0428
  445MOL0     H60030   2.082   7.033   9.568  0.4000  1.8459  0.4806
  445MOL0     H60031   1.859   6.967   9.498 -2.8899 -1.0226  1.4486
  445MOL0     H60032   1.780   7.067   9.610 -1.9424 -2.8137 -1.6895
  445MOL0     H60033   1.874   6.903   9.800  1.6298 -2.7543  0.9923
  445MOL0     H60034   1.972   6.835   9.681  0.2134 -1.9252  0.5505
  445MOL0     H60035   1.557   6.735   9.508  3.2607  1.1757 -1.9123
  445MOL0     H60036   1.344   6.828   9.509 -1.1278  0.0333  0.0969
  445MOL0     H60037   1.041   6.953   9.343  0.8044  1.8294 -5.1254
  445MOL0     H60038   0.860   7.094   9.235  0.9694 -0.5124 -0.4700
  445MOL0     H60039   0.676   7.243   9.194  0.9312  0.1628 -0.0862
  445MOL0     H60040   0.640   7.211   9.363  2.7430 -2.4277 -0.9448
  445MOL0     H60041   0.598   7.457   9.208  1.5854  2.3714  2.9844
  445MOL0     H60042   0.469   7.334   9.264 -1.7579  1.8388  1.0007
  445MOL0     H60043   0.613   7.452   9.494 -2.2898 -1.2010  1.5489
  445MOL0     H60044   0.553   7.582   9.388  0.4128  0.2949  0.2047
  445MOL0     H60045   0.399   7.527   9.577  0.1719 -1.4249 -0.0373
  445MOL0     H60046   0.393   7.367   9.527  0.3360 -1.7024 -3.7221
  445MOL0     H60047   0.271   7.407   9.328  2.1542  2.0740 -3.0004
  445MOL0     H60048   0.293   7.581   9.333 -2.9800  0.8599  0.1675
  445MOL0     H60049   0.115   7.416   9.515 -1.1063  0.3061 -1.5742
  445MOL0     H60050   0.158   7.564   9.574  2.0800  0.4655 -0.4026
  445MOL0     H60051   0.021   7.480   9.309 -2.2700  0.2091  1.1821
  445MOL0     H60052   0.083   7.636   9.323  1.1090 -0.2541 -0.6961
  445MOL0     H60053  -0.124   7.474   9.473  1.1192  0.0187 -1.6274
  445MOL0     H60054  -0.089   7.642   9.531  2.3881  2.2051 -0.6851
  445MOL0     H60055   0.938   7.399   9.530 -2.9308  0.5031 -2.6364
  445MOL0     H60056   1.108   7.271   9.627  0.0797 -1.2850  0.5470
  445MOL0     H60057   1.462   7.099   9.843 -2.5001  0.1689  0.7041
  445MOL0     H60058   1.678   6.999   9.834  0.2990 -2.3168  1.3669
  445MOL0     H60059   2.709   8.331  10.137 -0.5959 -0.2273 -0.1593
  445MOL0     H60060   2.680   8.532  10.039 -1.1827 -2.0410  3.4154
  445MOL0     H60061   2.646   8.716   9.604  1.5457  0.5265 -1.4599
  445MOL0     H60062   2.657   8.917   9.467  0.0348  0.9734  0.9113
  445MOL0     H60063   2.678   9.269   9.378  1.2635 -0.7414 -0.6195
  445MOL0     H60064   2.695   9.090   9.382  2.8413  1.1808 -1.9655
  445MOL0     H60065   2.856   9.117   9.577  1.5629 -0.1584 -2.1134
  445MOL0     H60066   2.848   9.290   9.534 -0.4267  0.9336  0.7907
  445MOL0     H60067   2.916   9.204   9.305 -1.9855 -1.5960  1.0138
  445MOL0     H60068   2.922   9.047   9.369  1.0090 -0.3439 -0.2992
  445MOL0     H60069   3.090   9.284   9.482 -1.2808  0.2218 -0.6261
  445MOL0     H60070   3.091   9.105   9.526 -1.0398 -1.2793 -0.5705
  445MOL0     H60071   3.378   9.175   9.230  1.5713  0.2770  0.9082
  445MOL0     H60072   2.528   9.153   9.787  0.4147 -0.8362 -0.3708
  445MOL0     H60073   2.565   8.907  10.046 -0.3709 -0.5410 -0.4083
  445MOL0     H60074   2.509   9.073  10.011  1.0452 -0.4452  2.7018
  445MOL0     H60075   2.399   8.939   9.993  0.1332  1.6601 -0.5401
  446MOL0     O60076   0.236   5.236   9.782  0.3111 -0.4669  0.4572
  446MOL0     C60077   0.278   5.351   9.793 -0.3010  0.5225 -0.2161
  446MOL0     O60078   0.417   5.384   9.803 -0.6264 -0.0202 -0.5627
  446MOL0     C60079   0.505   5.289   9.748 -0.1546  0.0389 -0.1383
  446MOL0     C60080   0.566   5.188   9.828 -0.9391 -0.5608 -1.0370
  446MOL0     C60081   0.659   5.099   9.768 -0.0497 -0.9679  0.5715
  446MOL0     C60082   0.702   5.118   9.634 -0.5497 -0.5447 -1.2003
  446MOL0     O60083   0.806   5.045   9.580 -0.5097 -0.2270 -0.5399
  446MOL0     C60084   0.921   5.036   9.661  0.1026  0.4219 -0.3020
  446MOL0     C60085   1.010   4.919   9.605 -0.0250 -1.5083 -0.0296
  446MOL0     C60086   1.132   4.888   9.702  0.7564 -0.5074 -0.0527
  446MOL0     C60087   1.093   4.766   9.793  0.4234 -0.1763  0.2345
  446MOL0     C60088   1.214   4.748   9.891 -0.0853 -0.1648 -0.2944
  446MOL0     C60089   1.220   4.597   9.927 -0.2357  0.0585 -0.6594
  446MOL0     C60090   1.348   4.577  10.009  0.8038  0.4121  0.4941
  446MOL0     C60091   1.380   4.435  10.044 -0.3578 -0.2440  0.0802
  446MOL0     N60092   1.528   4.416  10.043 -0.3929  0.4816  0.1919
  446MOL0     C60093   1.614   4.444  10.152 -0.4816 -0.3737 -0.3753
  446MOL0     C60094   1.735   4.409  10.102  0.7442  0.3152  0.9002
  446MOL0     C60095   1.872   4.431  10.170 -0.4865  0.6189 -0.6203
  446MOL0     C60096   1.993   4.363  10.099  0.3880 -0.8085  0.7341
  446MOL0     C60097   2.122   4.356  10.171 -0.6885  0.0334 -0.8935
  446MOL0     C60098   2.209   4.477  10.127  0.1783  0.0476 -0.1191
  446MOL0     O60099   2.145   4.599  10.168  0.4186 -0.4586  0.7150
  446MOL0     C60100   2.140   4.712  10.080 -0.5625  0.5417 -0.2290
  446MOL0     C60101   2.037   4.812  10.106  0.0991  0.3261  0.5191
  446MOL0     C60102   2.033   4.931  10.029  0.0273 -0.2819 -0.5710
  446MOL0     C60103   2.126   4.950   9.926 -0.0087  0.8114  1.2195
  446MOL0     C60104   2.120   5.082   9.845  0.7422  0.1646  0.2229
  446MOL0     O60105   2.004   5.142   9.857  0.5167  0.7361  0.2389
  446MOL0     C60106   1.984   5.276   9.848  0.6824  0.0547 -0.5870
  446MOL0     C60107   1.857   5.317   9.892  0.5193  0.0499 -0.2075
  446MOL0     C60108   1.833   5.460   9.907  0.0977  0.2199  0.2656
  446MOL0     C60109   1.919   5.558   9.868 -0.3490 -0.1708  0.0554
  446MOL0     O60110   1.869   5.684   9.869 -0.6873  0.4027 -0.3611
  446MOL0     C60111   1.959   5.785   9.834 -0.1953 -0.6909  0.0519
  446MOL0     C60112   1.883   5.904   9.842 -0.1461  0.4354  0.2711
  446MOL0     C60113   1.760   5.894   9.747 -0.6741 -1.4674 -0.9152
  446MOL0     C60114   1.700   6.029   9.700 -0.9082  1.5004 -0.0103
  446MOL0     C60115   1.615   6.088   9.808 -0.3241  0.0867 -0.2047
  446MOL0     C60116   1.571   6.229   9.770 -0.0706  0.8760  0.2506
  446MOL0     C60117   1.471   6.271   9.883 -0.1280  0.5431  0.0060
  446MOL0     C60118   1.331   6.220   9.846 -0.5063  0.7390  0.4419
  446MOL0    Cl60119   1.284   6.274   9.685  0.1822 -0.2341  0.3681
  446MOL0     C60120   2.043   5.515   9.816 -0.3864 -0.2584 -0.3452
  446MOL0     C60121   2.067   5.380   9.804 -0.3364  0.4970 -1.0386
  446MOL0     O60122   2.218   5.115   9.785  0.6720 -0.3985  0.1543
  446MOL0     C60123   2.223   4.857   9.897  0.3583  0.2301  0.0709
  446MOL0     C60124   2.228   4.735   9.979 -0.2638  0.0180  0.4147
  446MOL0     N60125   1.719   4.368   9.970 -1.0150  0.3866 -0.3450
  446MOL0     N60126   1.599   4.385   9.934  0.0751 -0.3616  0.6199
  446MOL0     C60127   0.642   5.216   9.564  0.8244  0.0106 -0.3956
  446MOL0     C60128   0.551   5.307   9.619  0.0353 -0.1378 -0.0424
  446MOL0     C60129   0.187   5.464   9.770  0.8087 -0.8956 -1.1413
  446MOL0     C60130   0.229   5.562   9.679  1.0969 -0.0761  0.2032
  446MOL0     C60131   0.155   5.679   9.644  0.8109  0.4913  0.2880
  446MOL0     C60132   0.046   5.704   9.718 -0.3228  0.4725 -0.2377
  446MOL0     O60133  -0.026   5.817   9.696  0.6782 -0.1085  0.1340
  446MOL0     C60134   0.015   5.938   9.760  0.1286  0.0998 -0.7944
  446MOL0     C60135  -0.106   6.021   9.786 -0.0091 -0.0815  0.0489
  446MOL0     C60136  -0.087   6.109   9.910 -0.0802  0.8295  0.5465
  446MOL0     C60137  -0.201   6.213   9.923  0.1416 -0.7621 -0.0086
  446MOL0     C60138  -0.327   6.149   9.982 -0.2176 -1.1463 -0.4034
  446MOL0     C60139  -0.431   6.118  10.041 -0.2697 -0.0311  0.1850
  446MOL0     C60140   0.001   5.608   9.809 -0.0090  1.2238  0.1912
  446MOL0     C60141   0.068   5.486   9.840 -0.6783 -1.0493 -0.8049
  446MOL0     C60142   0.008   5.400   9.946 -0.8175  0.5039  0.9838
  446MOL0     H60143   0.531   5.179   9.931  0.8038  4.4734  0.2921
  446MOL0     H60144   0.694   5.020   9.834 -1.5869  0.7066  3.5877
  446MOL0     H60145   0.982   5.126   9.659  1.6590 -0.5955 -2.3260
  446MOL0     H60146   0.890   4.993   9.757 -1.4653  0.6508 -0.6712
  446MOL0     H60147   1.041   4.936   9.501  0.5097 -1.8723  0.0649
  446MOL0     H60148   0.943   4.833   9.589 -3.6979  1.2236 -0.7446
  446MOL0     H60149   1.154   4.965   9.777 -0.1368 -4.2625  4.5627
  446MOL0     H60150   1.222   4.875   9.641  1.2007 -0.9557  0.6717
  446MOL0     H60151   1.002   4.787   9.851  0.9760 -0.2493  1.1485
  446MOL0     H60152   1.067   4.683   9.728 -1.6410  0.8294 -0.3249
  446MOL0     H60153   1.306   4.782   9.843  0.6462  0.3730  1.4477
  446MOL0     H60154   1.206   4.804   9.984  2.8290 -2.6166  1.5919
  446MOL0     H60155   1.127   4.570   9.978 -1.5073  1.8843 -1.8550
  446MOL0     H60156   1.232   4.539   9.835  0.9436  1.6435 -1.5632
  446MOL0     H60157   1.331   4.638  10.098  0.5084  1.9367 -0.5739
  446MOL0     H60158   1.432   4.628   9.960 -0.9206  1.4154 -1.5432
  446MOL0     H60159   1.347   4.413  10.146 -0.6807 -1.5196 -0.2793
  446MOL0     H60160   1.340   4.365   9.970 -2.6843 -0.0534  1.0965
  446MOL0     H60161   1.600   4.476  10.254  0.3173  0.0465 -0.3878
  446MOL0     H60162   1.899   4.537  10.176  1.4596  0.4145 -3.5207
  446MOL0     H60163   1.863   4.400  10.274 -1.5867 -1.0930 -1.1779
  446MOL0     H60164   1.981   4.254  10.091 -0.5203 -0.8055  1.8220
  446MOL0     H60165   2.003   4.410  10.001 -2.0614 -0.3474  0.6309
  446MOL0     H60166   2.176   4.267  10.138  0.4122 -0.0806  1.0571
  446MOL0     H60167   2.104   4.360  10.279  0.4950 -1.6129 -0.6055
  446MOL0     H60168   2.233   4.467  10.021  1.4777 -3.4841  0.3754
  446MOL0     H60169   2.310   4.471  10.170  0.2760  0.7706 -0.2326
  446MOL0     H60170   1.972   4.807  10.193 -0.7705  0.0591 -0.1250
  446MOL0     H60171   1.961   5.006  10.058 -1.0531 -1.1150 -1.0203
  446MOL0     H60172   1.787   5.240   9.922  2.1933 -1.9228 -1.1786
  446MOL0     H60173   1.733   5.486   9.939  0.1566  1.6967 -0.6303
  446MOL0     H60174   2.052   5.794   9.892 -1.5341  1.7640  2.0198
  446MOL0     H60175   1.990   5.780   9.730  0.5937  0.4306  0.2081
  446MOL0     H60176   1.851   5.925   9.944  0.1552  2.5433 -0.0260
  446MOL0     H60177   1.953   5.979   9.805  2.8123 -2.3310 -0.1751
  446MOL0     H60178   1.781   5.825   9.665 -3.6484 -1.4771 -1.7825
  446MOL0     H60179   1.685   5.840   9.806 -1.1080  1.1909  1.1297
  446MOL0     H60180   1.644   5.994   9.613  0.3381  0.4703 -0.4427
  446MOL0     H60181   1.776   6.103   9.674 -1.9499  2.1683 -1.2560
  446MOL0     H60182   1.667   6.099   9.904 -1.6936  0.4159  0.5289
  446MOL0     H60183   1.527   6.025   9.820  0.6427 -1.5653 -1.4207
  446MOL0     H60184   1.659   6.293   9.776  1.7971 -1.6297  1.6470
  446MOL0     H60185   1.529   6.215   9.669 -2.8562 -3.1119  1.6798
  446MOL0     H60186   1.467   6.381   9.884 -0.1005  0.6387 -2.6451
  446MOL0     H60187   1.510   6.233   9.978  1.4100 -0.7458 -1.0852
  446MOL0     H60188   1.325   6.111   9.849 -4.0638  0.7731 -1.1932
  446MOL0     H60189   1.262   6.254   9.924  1.9951  3.2907  1.7610
  446MOL0     H60190   2.117   5.586   9.779 -0.5018 -0.1150 -0.3042
  446MOL0     H60191   2.160   5.347   9.758 -0.2219 -1.4567  0.4807
  446MOL0     H60192   2.287   4.887   9.815 -1.3384  0.9883 -1.0325
  446MOL0     H60193   2.300   4.654   9.972 -0.6695 -0.4949  1.8969
  446MOL0     H60194   0.676   5.234   9.462  0.3821 -3.0290 -1.1969
  446MOL0     H60195   0.513   5.386   9.555 -0.1218  0.2078  0.4780
  446MOL0     H60196   0.322   5.534   9.629  2.0055  0.8795  1.2875
  446MOL0     H60197   0.192   5.753   9.574 -0.4747  1.8088  0.9584
  446MOL0     H60198   0.087   5.998   9.704 -0.5014  1.8835  0.2059
  446MOL0     H60199   0.044   5.917   9.864 -1.9102 -0.4551 -0.2964
  446MOL0     H60200  -0.195   5.957   9.789 -0.4518  0.5432  0.2881
  446MOL0     H60201  -0.116   6.092   9.704 -3.3765 -0.1930  0.2329
  446MOL0     H60202   0.005   6.167   9.903  0.5302  0.2963  3.0600
  446MOL0     H60203  -0.089   6.052  10.004  2.1969 -0.6201 -0.1998
  446MOL0     H60204  -0.176   6.300   9.985  1.3189  1.2504 -3.0506
  446MOL0     H60205  -0.225   6.244   9.821  1.1449  3.1530  0.7805
  446MOL0     H60206  -0.524   6.089  10.087 -1.5036  1.6886 -1.1006
  446MOL0     H60207  -0.085   5.633   9.871 -0.6487 -0.2599 -0.0687
  446MOL0     H60208  -0.085   5.371   9.896  0.1562  1.6633 -1.6761
  446MOL0     H60209   0.080   5.328   9.986 -0.1808  1.4901  1.6484
  446MOL0     H60210  -0.020   5.453  10.038  1.5085 -1.5862  3.0444
  447MOL0     O60211   6.776   9.769   1.945 -1.4758 -0.3089  0.1756
  447MOL0     C60212   6.665   9.727   1.942  0.6005 -0.8241 -0.4597
  447MOL0     O60213   6.591   9.713   1.827  0.2349  0.6891  0.4225
  447MOL0     C60214   6.636   9.788   1.726  0.4733  0.0276 -0.5600
  447MOL0     C60215   6.734   9.754   1.637 -0.1323 -0.3046  0.6050
  447MOL0     C60216   6.773   9.834   1.525  0.4797  0.1129  0.0275
  447MOL0     C60217   6.702   9.961   1.505  0.7993  0.2856  0.0371
  447MOL0     O60218   6.728  10.043   1.398  0.1799  0.0983 -0.7606
  447MOL0     C60219   6.753   9.996   1.261 -0.5837  0.0878  0.5639
  447MOL0     C60220   6.659  10.047   1.152 -0.5857 -0.4869  0.1650
  447MOL0     C60221   6.672  10.203   1.143 -1.1267 -0.3054 -0.8907
  447MOL0     C60222   6.779  10.234   1.036  0.8336  0.7799  0.1057
  447MOL0     C60223   6.818  10.385   1.042 -0.1668 -0.2075  0.2026
  447MOL0     C60224   6.702  10.471   1.000  1.1973 -0.2294  0.3635
  447MOL0     C60225   6.741  10.614   0.956 -0.4907 -0.3500  0.0542
  447MOL0     C60226   6.835  10.623   0.833  0.9377 -0.9748  0.3879
  447MOL0     N60227   6.837  10.762   0.783 -0.6758 -0.0405 -0.0313
  447MOL0     C60228   6.893  10.871   0.851  0.2236  0.6826 -0.7027
  447MOL0     C60229   6.884  10.974   0.772 -0.7319 -1.0632  0.5545
  447MOL0     C60230   6.941  11.107   0.799 -0.3477 -0.2333  0.2833
  447MOL0     C60231   6.826  11.208   0.805  0.2689 -0.1734 -0.4113
  447MOL0     C60232   6.877  11.350   0.781 -0.2292 -0.0140  0.6948
  447MOL0     C60233   6.882  11.377   0.629 -0.6628  0.3246 -0.5932
  447MOL0     O60234   6.764  11.373   0.555 -0.1441  0.5482 -0.5734
  447MOL0     C60235   6.667  11.458   0.600 -0.9773 -0.7286 -0.9872
  447MOL0     C60236   6.537  11.409   0.632  0.1792 -0.5514 -1.1257
  447MOL0     C60237   6.439  11.503   0.665  0.4018  1.1741 -1.3811
  447MOL0     C60238   6.457  11.645   0.658  0.0035  0.6382 -0.2049
  447MOL0     C60239   6.359  11.739   0.695 -0.6343  0.2629 -0.3523
  447MOL0     O60240   6.369  11.866   0.664  0.5138 -0.7464 -0.0716
  447MOL0     C60241   6.305  11.950   0.747  0.2142  0.2545  0.1967
  447MOL0     C60242   6.165  11.968   0.750 -0.0178 -0.1831  0.0815
  447MOL0     C60243   6.100  12.061   0.832 -0.2136  0.6834  0.1390
  447MOL0     C60244   6.184  12.122   0.935 -0.5855  0.0257  1.0277
  447MOL0     O60245   6.128  12.210   1.016 -0.2755  0.2122 -0.5668
  447MOL0     C60246   6.049  12.135   1.117  0.2725 -0.8779  0.0655
  447MOL0     C60247   5.955  12.239   1.188 -0.3122  0.2336 -0.9704
  447MOL0     C60248   5.837  12.175   1.262  0.0649  0.6428  0.3452
  447MOL0     C60249   5.738  12.275   1.315  0.3246 -0.6746 -0.5251
  447MOL0     C60250   5.636  12.213   1.406  0.0428  0.2223  0.6749
  447MOL0     C60251   5.537  12.119   1.339 -0.9530  0.0848 -0.6717
  447MOL0     C60252   5.437  12.074   1.444 -0.1943  0.0213  0.6157
  447MOL0     C60253   5.465  11.940   1.503 -0.9931  0.2048  0.2833
  447MOL0    Cl60254   5.314  11.927   1.606  0.3139 -0.2991  0.4168
  447MOL0     C60255   6.320  12.104   0.932 -0.6617 -0.3644  0.1400
  447MOL0     C60256   6.383  12.014   0.846  0.9148  0.0003 -1.1167
  447MOL0     O60257   6.273  11.692   0.775  0.5396  0.1456  0.0586
  447MOL0     C60258   6.589  11.683   0.620 -0.0181 -0.2015 -0.1697
  447MOL0     C60259   6.692  11.597   0.587  0.3044  0.0634  0.2203
  447MOL0     N60260   6.821  10.936   0.655  0.5982  0.2083  0.7753
  447MOL0     N60261   6.798  10.809   0.660  0.3101  0.7864  0.5578
  447MOL0     C60262   6.613   9.995   1.606 -0.4355 -0.0010  0.4354
  447MOL0     C60263   6.581   9.921   1.715  0.8920  1.3240 -0.6117
  447MOL0     C60264   6.609   9.656   2.064  0.1159 -0.0609 -0.6489
  447MOL0     C60265   6.519   9.549   2.042 -0.3615 -0.4255  1.2136
  447MOL0     C60266   6.463   9.475   2.148 -0.0125 -0.9778 -0.1047
  447MOL0     C60267   6.492   9.509   2.278  0.2562 -0.7467 -1.3760
  447MOL0     O60268   6.429   9.450   2.383  0.0418  0.2387  0.0153
  447MOL0     C60269   6.470   9.458   2.523  0.0094 -0.2648  0.5918
  447MOL0     C60270   6.597   9.381   2.547 -1.2255  0.0470  0.6111
  447MOL0     C60271   6.584   9.229   2.507 -0.9939  0.3897 -0.4583
  447MOL0     C60272   6.719   9.151   2.496 -0.0571  0.0451  0.5132
  447MOL0     C60273   6.717   8.999   2.494 -0.2631 -0.8611  0.0284
  447MOL0     C60274   6.720   8.879   2.505  0.1957 -0.0757  0.7300
  447MOL0     C60275   6.580   9.621   2.303 -0.1230 -0.4712  0.0495
  447MOL0     C60276   6.654   9.691   2.194  0.0391  0.5882  1.5241
  447MOL0     C60277   6.732   9.819   2.230 -0.8496  1.0552 -0.3666
  447MOL0     H60278   6.772   9.653   1.651 -2.7973 -1.2336  1.7759
  447MOL0     H60279   6.848   9.798   1.455  0.5166 -0.9417  0.5821
  447MOL0     H60280   6.853  10.035   1.238 -2.0998  3.5121 -0.8868
  447MOL0     H60281   6.758   9.888   1.247  1.1288  0.2523 -0.5435
  447MOL0     H60282   6.555  10.031   1.179 -1.0432  1.5268 -0.2282
  447MOL0     H60283   6.700  10.014   1.057  2.0603  0.8498  0.7206
  447MOL0     H60284   6.705  10.244   1.238 -2.6607 -0.1837 -0.3728
  447MOL0     H60285   6.579  10.259   1.133 -2.0043 -1.2547  1.2543
  447MOL0     H60286   6.873  10.183   1.060 -0.6055 -1.2205  1.9065
  447MOL0     H60287   6.734  10.210   0.939 -1.2909  0.3373  1.1220
  447MOL0     H60288   6.858  10.429   1.134  4.1684 -0.2659 -1.4124
  447MOL0     H60289   6.898  10.384   0.968 -0.3892 -3.5132 -0.1492
  447MOL0     H60290   6.634  10.432   0.924 -2.1339  1.4213  2.2777
  447MOL0     H60291   6.646  10.470   1.094 -1.3930 -2.9056 -1.0498
  447MOL0     H60292   6.799  10.657   1.038 -0.0518 -0.0452 -0.4097
  447MOL0     H60293   6.654  10.676   0.936 -0.8754 -1.9200 -4.4292
  447MOL0     H60294   6.936  10.588   0.858  0.7349 -0.5646  1.9146
  447MOL0     H60295   6.787  10.566   0.753 -0.1268  1.7850 -1.0851
  447MOL0     H60296   6.938  10.850   0.948 -3.7106  0.2466  1.2377
  447MOL0     H60297   6.997  11.089   0.891 -0.0228  0.6276  0.2683
  447MOL0     H60298   7.016  11.126   0.722  1.5659  0.3504  2.1594
  447MOL0     H60299   6.752  11.186   0.727  0.8390 -3.6341 -0.1163
  447MOL0     H60300   6.774  11.190   0.899 -1.4012 -2.1677 -1.6427
  447MOL0     H60301   6.973  11.364   0.831  1.2377  1.9675 -2.3733
  447MOL0     H60302   6.810  11.422   0.828  1.5777  1.9055  0.4931
  447MOL0     H60303   6.945  11.301   0.581  1.4214  2.2594 -1.1167
  447MOL0     H60304   6.939  11.469   0.617  1.3059 -0.7063  0.3557
  447MOL0     H60305   6.500  11.308   0.647 -0.3318 -0.0135  1.8771
  447MOL0     H60306   6.341  11.464   0.688  1.6990 -0.4173  2.1105
  447MOL0     H60307   6.115  11.902   0.679  3.5287 -1.2513 -1.6200
  447MOL0     H60308   5.997  12.094   0.821  0.1044  1.5062 -0.5049
  447MOL0     H60309   5.992  12.051   1.078 -0.9534 -0.6768  1.3701
  447MOL0     H60310   6.113  12.096   1.197  2.3017 -0.9649 -1.5023
  447MOL0     H60311   6.011  12.290   1.267  1.0560  0.9265 -2.3325
  447MOL0     H60312   5.912  12.304   1.112 -1.1118  1.7198  0.6963
  447MOL0     H60313   5.779  12.125   1.184 -1.1961  3.1304 -0.3960
  447MOL0     H60314   5.876  12.114   1.344  2.8637  0.5389 -0.9409
  447MOL0     H60315   5.687  12.336   1.240 -1.1549  1.9490  2.3863
  447MOL0     H60316   5.797  12.348   1.372  0.8321 -0.4704 -1.2939
  447MOL0     H60317   5.582  12.291   1.460 -2.3649 -0.1077 -1.1195
  447MOL0     H60318   5.691  12.148   1.475 -0.5328  0.9975  1.8961
  447MOL0     H60319   5.483  12.166   1.257 -2.5504 -1.2290 -0.4382
  447MOL0     H60320   5.596  12.033   1.306 -1.1987 -2.1021  3.7612
  447MOL0     H60321   5.344  12.049   1.392 -1.0447  0.8009  1.7163
  447MOL0     H60322   5.407  12.153   1.513 -0.7185 -2.1557  3.0192
  447MOL0     H60323   5.458  11.868   1.421 -0.5730  2.0232 -1.4225
  447MOL0     H60324   5.549  11.930   1.573  0.8993  1.1117 -1.7629
  447MOL0     H60325   6.363  12.156   1.017  1.1340 -2.9327  0.9172
  447MOL0     H60326   6.490  12.016   0.867  0.3788  1.0674  2.0921
  447MOL0     H60327   6.603  11.790   0.608  0.5315 -0.2297  0.1644
  447MOL0     H60328   6.785  11.639   0.553  0.3499  0.9540  1.3943
  447MOL0     H60329   6.567  10.093   1.603 -2.3024 -0.8590 -0.7689
  447MOL0     H60330   6.499   9.948   1.780  0.2922 -2.9552  0.7466
  447MOL0     H60331   6.499   9.515   1.941  1.9282 -0.8452  0.8542
  447MOL0     H60332   6.389   9.397   2.136 -0.2132 -0.3876 -4.3240
  447MOL0     H60333   6.387   9.420   2.583 -0.5857  0.3870  0.1942
  447MOL0     H60334   6.493   9.564   2.540  2.4444 -1.0588  2.8863
  447MOL0     H60335   6.617   9.383   2.654  1.6815  0.9721  0.1513
  447MOL0     H60336   6.674   9.436   2.491 -2.7673  0.6580 -1.0230
  447MOL0     H60337   6.535   9.227   2.410  1.8624 -0.6313 -2.0061
  447MOL0     H60338   6.518   9.184   2.582 -0.8453 -0.8967 -1.0756
  447MOL0     H60339   6.768   9.197   2.409  1.1132  1.7701  2.0157
  447MOL0     H60340   6.781   9.177   2.582  1.5522  1.9149 -1.1183
  447MOL0     H60341   6.724   8.773   2.518  2.4353 -0.0262  0.8400
  447MOL0     H60342   6.582   9.686   2.390 -2.7047  0.8419 -0.7579
  447MOL0     H60343   6.698   9.917   2.198  1.2681  2.3717  1.1663
  447MOL0     H60344   6.727   9.827   2.339  3.3814 -0.0226  0.0975
  447MOL0     H60345   6.839   9.822   2.210 -0.7046  0.1943  0.2034
  448MOL0     O60346   6.326  10.603   0.091 -0.0450 -0.0269  0.3555
  448MOL0     C60347   6.391  10.525   0.028 -0.3483  0.1658 -0.5336
  448MOL0     O60348   6.350  10.435  -0.072  0.0708 -0.2525  0.8671
  448MOL0     C60349   6.228  10.438  -0.137  1.0747  0.1337 -0.3548
  448MOL0     C60350   6.106  10.463  -0.066  0.6903 -0.1999 -0.1250
  448MOL0     C60351   5.982  10.465  -0.121 -0.2659  0.2664  0.7365
  448MOL0     C60352   5.971  10.456  -0.263 -0.0882 -0.1952  0.6089
  448MOL0     O60353   5.862  10.464  -0.343 -0.2044 -0.5693 -0.7004
  448MOL0     C60354   5.742  10.494  -0.270  0.1061 -0.0085 -0.5223
  448MOL0     C60355   5.639  10.523  -0.372  0.2301  0.6294  0.0246
  448MOL0     C60356   5.656  10.657  -0.440 -0.0963 -0.5513 -0.0708
  448MOL0     C60357   5.570  10.679  -0.569  0.0954 -0.6438 -0.0207
  448MOL0     C60358   5.587  10.824  -0.605 -0.3312  0.0595 -0.4208
  448MOL0     C60359   5.519  10.861  -0.748  0.3777  0.4339 -0.5124
  448MOL0     C60360   5.531  11.010  -0.777 -0.1421  0.0152 -0.7059
  448MOL0     C60361   5.500  11.038  -0.922  0.4299  0.8749  0.2430
  448MOL0     N60362   5.596  10.999  -1.023 -0.6750  0.3372 -0.0153
  448MOL0     C60363   5.722  11.037  -1.019  0.4421  0.3895 -0.1217
  448MOL0     C60364   5.781  10.973  -1.120 -0.2045  0.4067  0.6590
  448MOL0     C60365   5.921  10.993  -1.156 -0.1616  0.0440 -0.0925
  448MOL0     C60366   5.956  11.141  -1.198 -0.0631 -0.0342 -0.7211
  448MOL0     C60367   5.927  11.157  -1.340  0.0968 -0.4265  0.9742
  448MOL0     C60368   5.940  11.295  -1.395  0.3714 -0.3087 -0.1835
  448MOL0     O60369   6.074  11.348  -1.395 -0.5565 -0.4745 -0.2140
  448MOL0     C60370   6.098  11.455  -1.476  0.1968 -0.8115  0.1339
  448MOL0     C60371   6.223  11.470  -1.542 -0.2931  0.1761 -0.5681
  448MOL0     C60372   6.270  11.576  -1.625 -0.0567  0.8612  0.5589
  448MOL0     C60373   6.170  11.672  -1.647 -0.6849 -0.2497 -0.7935
  448MOL0     C60374   6.215  11.781  -1.741  0.9229  0.2194  0.1562
  448MOL0     O60375   6.339  11.774  -1.794  1.1634  0.0427  1.0321
  448MOL0     C60376   6.377  11.870  -1.879  0.0718 -1.2465  0.5173
  448MOL0     C60377   6.413  11.840  -2.018  0.7054  0.0226  0.2033
  448MOL0     C60378   6.472  11.930  -2.096 -0.6831 -0.4423  0.3685
  448MOL0     C60379   6.493  12.062  -2.051  1.0867  0.4670 -0.4136
  448MOL0     O60380   6.547  12.144  -2.144 -0.2534 -0.5663 -0.6131
  448MOL0     C60381   6.531  12.281  -2.152 -0.1168 -0.4788  0.5529
  448MOL0     C60382   6.567  12.343  -2.292 -0.4956  0.2405  0.2318
  448MOL0     C60383   6.485  12.284  -2.408  0.3603  0.2086 -0.0762
  448MOL0     C60384   6.358  12.366  -2.454 -0.0831  0.0808  0.9463
  448MOL0     C60385   6.289  12.296  -2.574 -0.1209  0.0134 -0.2345
  448MOL0     C60386   6.165  12.380  -2.620  0.0060  0.4665  0.0009
  448MOL0     C60387   6.089  12.309  -2.736  0.4401 -0.0505 -0.4355
  448MOL0     C60388   5.999  12.409  -2.812 -0.0424 -0.2377  0.6215
  448MOL0    Cl60389   5.908  12.506  -2.701  0.1483  0.8558  0.0607
  448MOL0     C60390   6.440  12.092  -1.924 -0.6289  0.1437  0.5933
  448MOL0     C60391   6.407  12.001  -1.830  0.5343 -0.6483 -0.9164
  448MOL0     O60392   6.142  11.876  -1.740  0.6189 -0.6299  0.2947
  448MOL0     C60393   6.048  11.675  -1.574  0.7206 -0.6308  0.6570
  448MOL0     C60394   6.013  11.564  -1.491  0.6724  0.2252  0.2607
  448MOL0     N60395   5.684  10.914  -1.199  0.1810 -0.5630  0.0930
  448MOL0     N60396   5.572  10.923  -1.131 -0.7695  0.1725 -0.4373
  448MOL0     C60397   6.085  10.435  -0.334 -0.2639  0.0143 -0.3698
  448MOL0     C60398   6.213  10.428  -0.278 -0.1564  0.0916 -0.2831
  448MOL0     C60399   6.540  10.523   0.045  0.2618 -0.8314  0.2712
  448MOL0     C60400   6.623  10.463  -0.054 -0.6050 -0.7547 -0.7611
  448MOL0     C60401   6.763  10.466  -0.049 -0.5329 -0.0144 -1.0524
  448MOL0     C60402   6.827  10.536   0.058 -0.9034  0.1559 -0.4546
  448MOL0     O60403   6.967  10.529   0.050 -0.9036 -0.2688  0.1471
  448MOL0     C60404   7.055  10.623   0.123 -0.8197  1.1170  0.5588
  448MOL0     C60405   7.093  10.734   0.036  0.4300 -0.2318  0.4301
  448MOL0     C60406   7.216  10.801   0.066 -0.1787 -0.2529 -0.4085
  448MOL0     C60407   7.228  10.925  -0.016  0.6762  0.1380  0.0350
  448MOL0     C60408   7.363  10.970  -0.008  0.4758 -1.0301  0.9773
  448MOL0     C60409   7.481  10.997   0.017 -0.1405  0.5431 -0.0045
  448MOL0     C60410   6.749  10.600   0.149  0.4539 -0.4829  0.0813
  448MOL0     C60411   6.609  10.594   0.145 -0.3516 -0.1246 -0.9037
  448MOL0     C60412   6.550  10.666   0.262 -0.4388 -0.0096 -0.2928
  448MOL0     H60413   6.118  10.474   0.041 -0.8655  1.3364 -0.0672
  448MOL0     H60414   5.897  10.480  -0.056 -0.1399  1.8833  0.5674
  448MOL0     H60415   5.711  10.413  -0.203  0.8905  0.3668  0.3255
  448MOL0     H60416   5.761  10.585  -0.212 -0.2821 -0.9589  1.1963
  448MOL0     H60417   5.536  10.507  -0.337 -0.7249  1.8518 -2.0380
  448MOL0     H60418   5.649  10.445  -0.447  3.3327 -1.0219  1.9466
  448MOL0     H60419   5.756  10.680  -0.478 -0.3699 -1.1098 -1.1665
  448MOL0     H60420   5.629  10.732  -0.365  0.9573  2.3772 -2.4386
  448MOL0     H60421   5.617  10.606  -0.636  2.3376 -1.0002  1.8164
  448MOL0     H60422   5.465  10.655  -0.551 -0.3126 -1.1351 -2.5961
  448MOL0     H60423   5.553  10.888  -0.524  0.8196  3.2743 -2.3005
  448MOL0     H60424   5.692  10.847  -0.622 -0.3885  0.8509  0.2520
  448MOL0     H60425   5.579  10.812  -0.826  1.1702  2.2139 -1.0633
  448MOL0     H60426   5.420  10.815  -0.758  0.7190 -0.3757 -0.2899
  448MOL0     H60427   5.625  11.056  -0.743 -1.4548  1.0482  1.7957
  448MOL0     H60428   5.452  11.062  -0.723 -0.5880 -0.1638 -1.1804
  448MOL0     H60429   5.417  10.973  -0.951 -0.8534  1.5158  2.2277
  448MOL0     H60430   5.474  11.144  -0.934 -1.7270  0.3976  0.2849
  448MOL0     H60431   5.780  11.095  -0.948  1.0111  0.8517 -0.9383
  448MOL0     H60432   5.979  10.979  -1.065 -0.4455  0.6423  0.1820
  448MOL0     H60433   5.963  10.922  -1.229  0.8584  0.7465 -0.2074
  448MOL0     H60434   5.894  11.205  -1.135 -1.8087 -0.3834 -2.0145
  448MOL0     H60435   6.064  11.154  -1.185 -0.2445  0.0078  1.0096
  448MOL0     H60436   5.826  11.121  -1.361  0.7299 -1.0108 -1.3298
  448MOL0     H60437   5.999  11.106  -1.404  0.4690 -0.4223  1.3866
  448MOL0     H60438   5.875  11.363  -1.338  1.8277  0.1125  1.0367
  448MOL0     H60439   5.910  11.300  -1.500  0.7710 -0.3749 -0.3012
  448MOL0     H60440   6.288  11.386  -1.520 -0.8404  0.3417  1.9839
  448MOL0     H60441   6.370  11.580  -1.668  0.1609 -2.8286  0.4097
  448MOL0     H60442   6.416  11.734  -2.042  4.0486  0.0907 -0.2137
  448MOL0     H60443   6.506  11.897  -2.193  0.1057  1.3698 -0.0151
  448MOL0     H60444   6.424  12.301  -2.142  0.1016  0.5978  0.9278
  448MOL0     H60445   6.586  12.337  -2.075 -3.5687  2.9429  0.8325
  448MOL0     H60446   6.551  12.451  -2.288  0.4873  0.3558  1.6767
  448MOL0     H60447   6.673  12.332  -2.313 -0.3702  3.6390 -1.6373
  448MOL0     H60448   6.546  12.287  -2.499 -0.9823  4.5486 -1.0421
  448MOL0     H60449   6.455  12.181  -2.385  0.1992  0.3749  0.4829
  448MOL0     H60450   6.394  12.465  -2.483 -3.6089  1.5852  1.1856
  448MOL0     H60451   6.277  12.383  -2.382  1.0938  1.5557  1.9697
  448MOL0     H60452   6.254  12.199  -2.536 -0.4989  1.1129  2.4486
  448MOL0     H60453   6.360  12.285  -2.657  0.8823  0.2139  0.5797
  448MOL0     H60454   6.108  12.406  -2.531 -1.3128  2.1735 -1.2675
  448MOL0     H60455   6.203  12.476  -2.657  1.7961 -0.5969 -1.0648
  448MOL0     H60456   6.020  12.236  -2.694  0.7254  0.9811  1.9976
  448MOL0     H60457   6.158  12.256  -2.802  1.8211  1.8464 -0.6224
  448MOL0     H60458   6.069  12.476  -2.864  1.4984 -0.8412  1.8470
  448MOL0     H60459   5.942  12.354  -2.888  0.5839 -1.0732  0.7508
  448MOL0     H60460   6.463  12.191  -1.885  2.7262 -0.6014  0.7919
  448MOL0     H60461   6.398  12.029  -1.726 -0.4118  0.8102 -1.3511
  448MOL0     H60462   5.989  11.765  -1.589  1.4709 -0.5293 -2.2159
  448MOL0     H60463   5.932  11.570  -1.419  1.8499  0.5536  1.6054
  448MOL0     H60464   6.083  10.436  -0.443  0.5684 -0.8859 -0.4092
  448MOL0     H60465   6.299  10.422  -0.343  0.2583  2.9753 -0.1421
  448MOL0     H60466   6.572  10.418  -0.138 -2.3257 -0.9717  0.3590
  448MOL0     H60467   6.829  10.420  -0.122  2.7697  4.3134 -1.1563
  448MOL0     H60468   7.146  10.564   0.137  0.5349  1.7157 -4.1787
  448MOL0     H60469   7.010  10.656   0.217  1.3949 -0.3802  2.2500
  448MOL0     H60470   7.009  10.805   0.033  0.9136  0.5735  3.0416
  448MOL0     H60471   7.104  10.687  -0.062  1.3376 -2.4669  1.5329
  448MOL0     H60472   7.299  10.733   0.045  0.7953  1.9452 -4.7800
  448MOL0     H60473   7.214  10.827   0.172  0.2159 -3.3601  0.4647
  448MOL0     H60474   7.201  10.899  -0.119 -1.0195  1.1645  0.1713
  448MOL0     H60475   7.158  10.994   0.032  1.7561  0.0677  1.7717
  448MOL0     H60476   7.578  11.014   0.059  0.1799 -0.5572 -0.2573
  448MOL0     H60477   6.799  10.659   0.226  1.4242  2.8709 -2.8234
  448MOL0     H60478   6.467  10.612   0.308 -0.5486  1.9400  2.0316
  448MOL0     H60479   6.623  10.672   0.344 -1.1227 -0.7646  0.3904
  448MOL0     H60480   6.497  10.760   0.242 -2.5487  0.0014  4.0205
  449MOL0     O60481   6.286   6.141   1.274 -0.0260  0.3155 -0.0156
  449MOL0     C60482   6.253   6.026   1.298  0.6645  0.6865 -1.0660
  449MOL0     O60483   6.139   5.970   1.362  0.0718 -0.0337 -0.6303
  449MOL0     C60484   6.042   6.063   1.387 -0.8440  0.0733  0.3617
  449MOL0     C60485   5.969   6.112   1.283 -0.7707  0.6117 -0.5466
  449MOL0     C60486   5.861   6.198   1.315 -0.4365  0.5324 -0.3486
  449MOL0     C60487   5.833   6.251   1.448 -0.4791  0.5713  1.1234
  449MOL0     O60488   5.726   6.342   1.461 -0.3638 -0.8697  0.2528
  449MOL0     C60489   5.680   6.393   1.591 -0.0418  0.0774  0.1390
  449MOL0     C60490   5.773   6.508   1.632  0.0747 -0.0710  0.2783
  449MOL0     C60491   5.748   6.542   1.778  0.6491 -0.7283  0.1603
  449MOL0     C60492   5.837   6.656   1.824 -0.0651  0.2827 -0.4945
  449MOL0     C60493   5.797   6.711   1.954  0.8704  0.6325 -0.2178
  449MOL0     C60494   5.901   6.800   2.027 -1.0958  0.4426 -0.9023
  449MOL0     C60495   5.947   6.926   1.961 -0.7174 -1.6946 -0.2578
  449MOL0     C60496   5.830   7.031   1.923 -1.2822  0.1833 -0.2498
  449MOL0     N60497   5.898   7.156   1.869 -0.1467 -0.3449 -0.2212
  449MOL0     C60498   5.965   7.166   1.759  0.7890  0.3730  0.1742
  449MOL0     C60499   6.040   7.281   1.764  0.6301  0.1770  0.6976
  449MOL0     C60500   6.113   7.350   1.659 -0.4598  0.3214 -0.2450
  449MOL0     C60501   6.032   7.466   1.600 -0.3652 -0.0659  0.4597
  449MOL0     C60502   6.112   7.555   1.500  0.5949  0.1088 -0.2554
  449MOL0     C60503   6.171   7.671   1.577  1.1407  1.3225  0.3508
  449MOL0     O60504   6.073   7.761   1.616  0.4921  0.2091 -0.6382
  449MOL0     C60505   6.069   7.858   1.525 -1.1175 -0.2641  0.5569
  449MOL0     C60506   5.965   7.853   1.433 -0.1789  0.0001 -0.9753
  449MOL0     C60507   5.954   7.963   1.349  0.1886  0.4537 -0.0108
  449MOL0     C60508   6.042   8.076   1.341 -0.5493  0.3816  0.1661
  449MOL0     C60509   6.033   8.178   1.236 -0.0614 -0.1101  0.1378
  449MOL0     O60510   6.134   8.261   1.229 -0.2723 -0.7766  0.3703
  449MOL0     C60511   6.114   8.379   1.182  0.0786 -0.8139  1.1252
  449MOL0     C60512   6.225   8.434   1.116  0.2581 -0.0034 -0.1749
  449MOL0     C60513   6.223   8.564   1.071 -0.7133  0.5953 -0.4423
  449MOL0     C60514   6.110   8.650   1.077  0.7313  0.3176  0.0132
  449MOL0     O60515   6.112   8.773   1.026 -0.8558  0.1560  0.6473
  449MOL0     C60516   6.042   8.883   1.096  0.9387  0.1881 -0.2203
  449MOL0     C60517   6.053   9.009   1.009  0.0324 -0.1780  0.3445
  449MOL0     C60518   6.193   9.070   1.003 -0.5885  0.7372 -0.9418
  449MOL0     C60519   6.189   9.215   0.972 -0.0026  0.4285 -0.6946
  449MOL0     C60520   6.331   9.266   0.935 -0.7302 -0.5136  0.1330
  449MOL0     C60521   6.328   9.423   0.936 -0.8182 -0.1513  0.0754
  449MOL0     C60522   6.447   9.478   0.854  0.4377  0.0180  0.0837
  449MOL0     C60523   6.487   9.618   0.897 -0.4958 -0.6240  0.2653
  449MOL0    Cl60524   6.523   9.719   0.759 -0.2525 -0.3812 -0.0344
  449MOL0     C60525   5.997   8.591   1.141 -0.8339 -0.3522 -0.0367
  449MOL0     C60526   5.999   8.462   1.196 -0.0576  0.4327 -0.0530
  449MOL0     O60527   5.930   8.189   1.173  0.3960 -0.5175 -0.2669
  449MOL0     C60528   6.154   8.072   1.435 -0.4098 -0.1120 -0.0941
  449MOL0     C60529   6.160   7.967   1.533 -0.9450 -0.1673  0.1385
  449MOL0     N60530   6.026   7.329   1.889 -0.3932  0.9543 -0.2661
  449MOL0     N60531   5.931   7.266   1.949 -0.9660 -0.0540  0.2856
  449MOL0     C60532   5.919   6.199   1.546  0.0064 -1.0503 -0.4753
  449MOL0     C60533   6.019   6.105   1.518 -0.5100  0.1336 -0.0081
  449MOL0     C60534   6.355   5.926   1.260  0.5641 -1.3622  0.0487
  449MOL0     C60535   6.491   5.964   1.281  0.1689  0.1992 -0.3440
  449MOL0     C60536   6.596   5.875   1.255 -0.3495  0.1460 -0.5584
  449MOL0     C60537   6.565   5.757   1.185  0.4417  0.3323 -0.7529
  449MOL0     O60538   6.655   5.655   1.152  0.0906 -0.6833 -0.3764
  449MOL0     C60539   6.720   5.584   1.253 -0.0460 -0.4201 -0.7897
  449MOL0     C60540   6.656   5.446   1.259  0.4168 -0.0539  0.1233
  449MOL0     C60541   6.697   5.350   1.146  0.3051 -0.5864  0.4887
  449MOL0     C60542   6.690   5.203   1.201  0.5353  0.3710 -0.4459
  449MOL0     C60543   6.553   5.154   1.219 -0.4691 -0.3779 -1.8147
  449MOL0     C60544   6.439   5.111   1.234 -0.3771 -0.1496 -0.8881
  449MOL0     C60545   6.431   5.726   1.153  0.8400  0.3627 -0.0840
  449MOL0     C60546   6.322   5.807   1.189  0.0193 -0.1737 -0.7065
  449MOL0     C60547   6.181   5.775   1.145 -0.0844 -1.2627 -0.4071
  449MOL0     H60548   5.995   6.074   1.185 -0.2088  0.6277 -0.4060
  449MOL0     H60549   5.811   6.246   1.233  0.6789  3.1862  0.4261
  449MOL0     H60550   5.579   6.435   1.586 -0.0069  0.1428 -0.0310
  449MOL0     H60551   5.674   6.305   1.656  4.0019  0.9204  1.9537
  449MOL0     H60552   5.755   6.596   1.570 -0.0266  1.4767  2.3981
  449MOL0     H60553   5.878   6.477   1.628 -0.0316 -0.4318 -3.0949
  449MOL0     H60554   5.760   6.449   1.835  0.8639 -1.5669 -1.2118
  449MOL0     H60555   5.645   6.573   1.795  0.4277 -0.9461 -0.7544
  449MOL0     H60556   5.932   6.603   1.838 -1.1789 -1.3558  1.4831
  449MOL0     H60557   5.850   6.742   1.758 -1.2836 -0.2886 -1.5191
  449MOL0     H60558   5.704   6.765   1.932  1.1982  1.3170  0.0212
  449MOL0     H60559   5.758   6.631   2.018 -1.5261  0.5419 -1.6655
  449MOL0     H60560   5.845   6.830   2.117 -3.9996  1.4022 -2.8715
  449MOL0     H60561   5.979   6.725   2.045 -0.7699  0.7523 -1.0241
  449MOL0     H60562   5.999   6.891   1.871 -0.4861 -1.8750 -0.0536
  449MOL0     H60563   6.015   6.981   2.027  0.2748 -2.2089 -0.8292
  449MOL0     H60564   5.764   6.983   1.851 -4.0756  0.4945  1.9104
  449MOL0     H60565   5.776   7.046   2.017 -3.1319 -0.6100 -1.1341
  449MOL0     H60566   5.964   7.093   1.679  0.2833 -0.4516  0.9166
  449MOL0     H60567   6.205   7.387   1.707 -0.5600 -0.0760  0.2652
  449MOL0     H60568   6.146   7.286   1.577  2.2245 -1.4781  2.0313
  449MOL0     H60569   5.942   7.428   1.552  0.1710  1.7333 -2.1847
  449MOL0     H60570   5.995   7.525   1.684  0.0012 -1.2587  1.4889
  449MOL0     H60571   6.048   7.613   1.433  2.4941  1.0640 -1.3264
  449MOL0     H60572   6.187   7.504   1.440 -0.0443 -1.5394  0.3039
  449MOL0     H60573   6.250   7.725   1.524 -0.5758  3.4805 -0.1609
  449MOL0     H60574   6.212   7.633   1.671 -1.1859 -2.5306  0.0412
  449MOL0     H60575   5.887   7.778   1.431  1.7800 -2.1559 -0.2458
  449MOL0     H60576   5.877   7.977   1.275  0.8306  0.3586 -0.7083
  449MOL0     H60577   6.312   8.369   1.109  0.9474  0.9394 -0.5519
  449MOL0     H60578   6.313   8.600   1.021 -2.2885  0.9798 -3.1705
  449MOL0     H60579   5.935   8.862   1.089  0.9570 -0.1191  0.3813
  449MOL0     H60580   6.075   8.890   1.200  1.4676  2.4640 -0.4983
  449MOL0     H60581   6.012   8.997   0.908  0.4332  0.2412  0.1301
  449MOL0     H60582   5.991   9.082   1.062 -0.0485  0.5232 -0.6898
  449MOL0     H60583   6.250   9.059   1.095 -1.4863 -1.4046 -0.5982
  449MOL0     H60584   6.236   9.017   0.917  0.1166 -1.8507  0.8951
  449MOL0     H60585   6.150   9.279   1.051 -1.0510  0.5366 -1.2729
  449MOL0     H60586   6.135   9.229   0.878  1.7811 -2.4975 -2.3002
  449MOL0     H60587   6.361   9.233   0.835  1.0197 -0.9738  0.7821
  449MOL0     H60588   6.410   9.243   1.007  3.2595  3.2768 -2.5096
  449MOL0     H60589   6.240   9.453   0.879 -1.1893 -1.6541 -0.1997
  449MOL0     H60590   6.317   9.456   1.040 -1.7627  1.1524 -0.4128
  449MOL0     H60591   6.417   9.489   0.749 -0.8155  2.1749  0.6113
  449MOL0     H60592   6.540   9.421   0.851  0.0234 -0.8912  2.4359
  449MOL0     H60593   6.395   9.658   0.942 -0.1539  0.4358  0.0651
  449MOL0     H60594   6.580   9.616   0.954 -1.1009 -1.6374  1.2389
  449MOL0     H60595   5.914   8.655   1.169  0.5662  1.4863  0.1809
  449MOL0     H60596   5.920   8.417   1.255  1.0301 -0.6891  0.6184
  449MOL0     H60597   6.226   8.154   1.439 -0.3573 -0.1439 -0.4102
  449MOL0     H60598   6.225   7.981   1.619 -0.9591  0.4856  0.0478
  449MOL0     H60599   5.919   6.236   1.648  0.3997  2.1774 -1.5401
  449MOL0     H60600   6.091   6.069   1.590 -0.6423 -0.5504 -0.2169
  449MOL0     H60601   6.518   6.051   1.340 -0.9348  0.2127  0.1596
  449MOL0     H60602   6.697   5.900   1.285 -1.5867  1.9693  2.5424
  449MOL0     H60603   6.703   5.623   1.354  0.0720  2.6241 -1.8397
  449MOL0     H60604   6.827   5.577   1.235 -0.1704  0.3885 -1.9642
  449MOL0     H60605   6.549   5.469   1.272  0.7866  2.8084 -1.0456
  449MOL0     H60606   6.688   5.402   1.353 -1.6446 -0.3714  0.7349
  449MOL0     H60607   6.798   5.371   1.112 -1.3189  0.4869 -4.3966
  449MOL0     H60608   6.626   5.355   1.063 -0.6385 -0.4088  1.2844
  449MOL0     H60609   6.739   5.133   1.133  1.7530 -2.6016  3.1990
  449MOL0     H60610   6.749   5.196   1.293  0.8981 -0.3345 -0.7272
  449MOL0     H60611   6.338   5.085   1.258 -0.1664  1.0228  1.5834
  449MOL0     H60612   6.409   5.645   1.084 -0.1877  2.9649 -3.0388
  449MOL0     H60613   6.143   5.861   1.089 -0.3080 -2.1652 -1.6898
  449MOL0     H60614   6.181   5.687   1.080  3.3253 -1.2018 -0.6478
  449MOL0     H60615   6.120   5.751   1.234  0.5658 -1.7167 -0.0752
  450MOL0     O60616  10.135   7.468   0.080 -0.1867 -0.0082  0.0874
  450MOL0     C60617  10.187   7.398   0.166 -0.4955 -0.4233 -0.9413
  450MOL0     O60618  10.137   7.290   0.219 -0.8419 -0.6948  0.0952
  450MOL0     C60619   9.999   7.266   0.226  0.1700  0.1914  0.3853
  450MOL0     C60620   9.905   7.289   0.126  0.7195 -0.3743 -0.9207
  450MOL0     C60621   9.775   7.245   0.145  0.9636 -0.0088 -0.9140
  450MOL0     C60622   9.735   7.193   0.270  0.8871  0.0215  0.8393
  450MOL0     O60623   9.610   7.146   0.309 -0.6830  0.5936  0.0670
  450MOL0     C60624   9.518   7.113   0.206 -0.5639 -0.2448 -0.0209
  450MOL0     C60625   9.384   7.054   0.270  0.0397  0.4214 -0.1434
  450MOL0     C60626   9.287   7.169   0.301  0.0833  0.0314 -0.5982
  450MOL0     C60627   9.294   7.215   0.443 -0.0406  0.8798  0.3306
  450MOL0     C60628   9.221   7.346   0.484  0.1226 -0.2647  0.9160
  450MOL0     C60629   9.301   7.474   0.455 -0.0570 -0.2580 -0.4503
  450MOL0     C60630   9.435   7.504   0.535  0.6240 -0.6942 -0.9762
  450MOL0     C60631   9.472   7.650   0.533 -0.2282  1.4878 -0.1948
  450MOL0     N60632   9.521   7.670   0.397  0.9251 -0.2419 -0.4220
  450MOL0     C60633   9.629   7.613   0.341 -0.4721 -0.7326 -0.4597
  450MOL0     C60634   9.648   7.678   0.221  0.0658  1.5464  0.0804
  450MOL0     C60635   9.759   7.671   0.121  0.4205 -0.7846  0.1236
  450MOL0     C60636   9.874   7.765   0.159  0.6184  0.2367  0.2867
  450MOL0     C60637   9.819   7.909   0.181  0.2040 -0.0792  0.3185
  450MOL0     C60638   9.928   8.003   0.236 -0.2217  0.3728 -0.5966
  450MOL0     O60639   9.862   8.124   0.270 -1.1055  0.2618 -0.1100
  450MOL0     C60640   9.924   8.247   0.276 -0.1568  0.0212  0.1161
  450MOL0     C60641   9.838   8.354   0.277  0.2231 -0.0557  0.3951
  450MOL0     C60642   9.899   8.481   0.275 -0.3468 -0.0545 -0.1475
  450MOL0     C60643  10.033   8.504   0.264 -0.0089  0.2572 -0.0392
  450MOL0     C60644  10.103   8.641   0.251 -0.0423  0.4439 -1.1646
  450MOL0     O60645  10.241   8.648   0.252  0.2093  0.1696 -0.1741
  450MOL0     C60646  10.311   8.769   0.278  0.0793  0.9899  0.7055
  450MOL0     C60647  10.278   8.892   0.217  0.0194  0.2631  1.0937
  450MOL0     C60648  10.358   8.998   0.251  0.2200  0.0317  1.1425
  450MOL0     C60649  10.444   9.002   0.365 -0.1964  0.3689  0.8626
  450MOL0     O60650  10.493   9.107   0.434 -0.3748 -0.4122  0.4123
  450MOL0     C60651  10.440   9.239   0.404 -0.2494  0.7465  0.6053
  450MOL0     C60652  10.527   9.344   0.472  0.6301 -0.5946  0.4544
  450MOL0     C60653  10.482   9.488   0.455 -0.0444  0.1561  0.2335
  450MOL0     C60654  10.598   9.577   0.466  0.5207 -0.0709 -0.2576
  450MOL0     C60655  10.670   9.582   0.607  0.1517  0.7071 -0.4319
  450MOL0     C60656  10.768   9.692   0.609  0.6359  0.2220 -0.7027
  450MOL0     C60657  10.872   9.655   0.723  0.6851  0.1731  0.2422
  450MOL0     C60658  10.965   9.768   0.731  0.3767  0.0910  0.1363
  450MOL0    Cl60659  10.880   9.913   0.798  0.2544  0.0026  0.1217
  450MOL0     C60660  10.474   8.881   0.417 -0.4490  0.2435 -0.3203
  450MOL0     C60661  10.420   8.762   0.366 -0.1793  0.8591  0.0973
  450MOL0     O60662  10.026   8.735   0.275 -0.0088  0.1400  0.1125
  450MOL0     C60663  10.118   8.394   0.280  1.0008  0.1163  0.3193
  450MOL0     C60664  10.061   8.264   0.289  0.1391  0.0481 -0.0696
  450MOL0     N60665   9.537   7.757   0.209  0.7385  0.2732  0.0914
  450MOL0     N60666   9.458   7.746   0.304  1.3052 -0.0446 -0.8249
  450MOL0     C60667   9.825   7.186   0.375 -0.0008 -0.6348  0.0764
  450MOL0     C60668   9.964   7.208   0.347  0.2313  0.3027 -0.6451
  450MOL0     C60669  10.332   7.418   0.193 -0.2974 -0.1696 -0.0734
  450MOL0     C60670  10.392   7.320   0.282 -0.4588 -0.7003 -0.4024
  450MOL0     C60671  10.529   7.327   0.304 -0.3022  0.2113  0.3323
  450MOL0     C60672  10.604   7.435   0.247  0.4013 -1.2951 -0.1406
  450MOL0     O60673  10.737   7.447   0.274  0.4670 -0.3259  0.7578
  450MOL0     C60674  10.822   7.386   0.164 -0.7894 -0.0650 -0.4987
  450MOL0     C60675  10.898   7.512   0.100  0.3779 -0.3878 -1.1253
  450MOL0     C60676  10.940   7.619   0.197 -0.4856 -0.9853 -0.6071
  450MOL0     C60677  10.976   7.757   0.131 -0.4888  0.4430  0.2051
  450MOL0     C60678  11.110   7.754   0.071 -0.4631 -0.5844 -0.7546
  450MOL0     C60679  11.223   7.740   0.021  0.0432 -0.4247 -0.2392
  450MOL0     C60680  10.546   7.537   0.180  0.1887 -0.2895 -0.3746
  450MOL0     C60681  10.410   7.535   0.158 -0.3052 -0.6741  0.0999
  450MOL0     C60682  10.352   7.667   0.086 -0.2868  0.3664  0.6048
  450MOL0     H60683   9.935   7.340   0.035  0.0423  0.5523 -0.6459
  450MOL0     H60684   9.696   7.248   0.071 -1.7742 -3.5331  1.5505
  450MOL0     H60685   9.498   7.194   0.135 -0.8920 -0.2355  0.0770
  450MOL0     H60686   9.567   7.031   0.153  1.4259  1.2241 -0.5759
  450MOL0     H60687   9.393   6.988   0.357  1.1885  0.7946  0.0365
  450MOL0     H60688   9.339   7.004   0.184  0.1623  0.4589 -0.2290
  450MOL0     H60689   9.181   7.147   0.282  0.3165 -1.6363 -0.0502
  450MOL0     H60690   9.310   7.263   0.249  1.8167  1.0247  1.7907
  450MOL0     H60691   9.233   7.141   0.495  1.9638  0.3188  2.0190
  450MOL0     H60692   9.396   7.218   0.483  0.7976  0.2382 -1.6493
  450MOL0     H60693   9.133   7.355   0.419  0.6912  0.1988  0.1884
  450MOL0     H60694   9.189   7.340   0.589  2.4437  1.1922  1.7882
  450MOL0     H60695   9.322   7.476   0.348 -1.5911 -0.8158 -0.7763
  450MOL0     H60696   9.227   7.551   0.476  0.1734 -0.2548  0.3957
  450MOL0     H60697   9.521   7.442   0.508 -1.2788 -4.0332  0.0731
  450MOL0     H60698   9.422   7.484   0.642  2.3528  0.5386 -0.4936
  450MOL0     H60699   9.383   7.712   0.545 -0.8936  0.4561  0.3009
  450MOL0     H60700   9.540   7.669   0.617 -1.7038  0.1217  1.3832
  450MOL0     H60701   9.679   7.528   0.388 -1.8883  0.5664  3.8602
  450MOL0     H60702   9.810   7.575   0.116  3.9079  0.7367  2.3921
  450MOL0     H60703   9.719   7.698   0.023 -0.5380 -1.5488  0.2917
  450MOL0     H60704   9.928   7.723   0.244 -0.3082 -1.8955 -0.1250
  450MOL0     H60705   9.949   7.746   0.081 -2.0820  0.5895 -2.6134
  450MOL0     H60706   9.750   7.910   0.265  0.3324 -1.0206  0.4483
  450MOL0     H60707   9.775   7.943   0.087 -0.0254 -0.6832  0.2030
  450MOL0     H60708   9.991   8.037   0.154  0.1392 -2.1559 -1.4572
  450MOL0     H60709   9.992   7.961   0.314 -1.7479 -2.5862 -0.7842
  450MOL0     H60710   9.733   8.332   0.294  0.0921  2.1519  3.2126
  450MOL0     H60711   9.837   8.570   0.284  0.8831  0.6071  2.8287
  450MOL0     H60712  10.203   8.904   0.139  0.9752 -0.7225 -0.0213
  450MOL0     H60713  10.340   9.089   0.194  1.1740 -0.4234  0.0707
  450MOL0     H60714  10.438   9.249   0.295 -1.1473 -1.6708  0.3327
  450MOL0     H60715  10.335   9.257   0.430 -2.7044 -1.8752 -5.5107
  450MOL0     H60716  10.531   9.326   0.579  0.9800  1.6952  0.8693
  450MOL0     H60717  10.625   9.336   0.422  1.5212 -0.1616  2.0604
  450MOL0     H60718  10.430   9.499   0.359  0.4022  0.4976  0.0293
  450MOL0     H60719  10.408   9.509   0.533  0.3316 -0.9985  0.9232
  450MOL0     H60720  10.555   9.676   0.446  1.1004  0.2018 -0.1717
  450MOL0     H60721  10.658   9.547   0.379 -0.1547  0.4010 -0.8986
  450MOL0     H60722  10.724   9.487   0.611 -2.5020 -1.0867 -3.1752
  450MOL0     H60723  10.600   9.580   0.692 -0.9767 -0.8743 -1.3582
  450MOL0     H60724  10.838   9.704   0.526  1.0787 -2.4759 -0.7888
  450MOL0     H60725  10.725   9.792   0.625  1.2661  0.2282  1.1301
  450MOL0     H60726  10.934   9.570   0.693  1.4225  0.3898  1.1058
  450MOL0     H60727  10.819   9.633   0.817 -1.9812  0.3322 -1.1258
  450MOL0     H60728  11.049   9.739   0.795 -1.3003 -1.7523  1.5954
  450MOL0     H60729  11.001   9.791   0.630  1.1573 -0.5109  0.2695
  450MOL0     H60730  10.557   8.881   0.486 -0.9371  0.3483  0.2768
  450MOL0     H60731  10.442   8.669   0.418  0.4774  1.4511  0.9004
  450MOL0     H60732  10.226   8.403   0.280  1.0499 -0.3352 -0.4569
  450MOL0     H60733  10.132   8.184   0.307  0.0203  0.1805  1.0325
  450MOL0     H60734   9.785   7.156   0.471 -1.7685 -1.6568 -0.9349
  450MOL0     H60735  10.035   7.193   0.428  0.0937  1.8845 -0.1985
  450MOL0     H60736  10.344   7.228   0.315  0.9723 -2.1816 -2.2181
  450MOL0     H60737  10.565   7.250   0.371 -0.1235 -2.1876 -2.3823
  450MOL0     H60738  10.765   7.327   0.093 -0.6548  0.0208 -0.6792
  450MOL0     H60739  10.895   7.314   0.203  0.0272 -0.0614 -1.9696
  450MOL0     H60740  10.830   7.554   0.025 -0.9819 -1.6765 -0.6576
  450MOL0     H60741  10.991   7.482   0.051  0.3793 -1.8378 -0.2826
  450MOL0     H60742  11.015   7.582   0.268  0.3249  0.8696 -0.4389
  450MOL0     H60743  10.855   7.651   0.258  0.7071  0.0865  0.5571
  450MOL0     H60744  10.903   7.773   0.051  1.0436 -0.9337 -1.5545
  450MOL0     H60745  10.974   7.836   0.207  3.0961  0.8500  0.0392
  450MOL0     H60746  11.322   7.733  -0.019 -0.0058 -2.7848 -0.0934
  450MOL0     H60747  10.604   7.622   0.144 -1.0542 -0.2754 -2.5116
  450MOL0     H60748  10.263   7.694   0.144 -0.5716  1.8279 -0.4553
  450MOL0     H60749  10.419   7.753   0.095 -1.9578  1.7920 -0.0762
  450MOL0     H60750  10.337   7.656  -0.021  1.0024  1.8413  0.2409
  451MOL0     O60751   3.512   5.675   1.625 -0.5843  0.9130 -0.9324
  451MOL0     C60752   3.442   5.601   1.692 -0.9451 -0.2181 -0.0563
  451MOL0     O60753   3.410   5.608   1.824 -0.0611 -0.6878 -0.4470
  451MOL0     C60754   3.483   5.690   1.907  0.2099  0.0063  0.4206
  451MOL0     C60755   3.561   5.642   2.010 -0.5121  0.3158 -0.2259
  451MOL0     C60756   3.641   5.730   2.091 -0.0701 -0.6398  0.5416
  451MOL0     C60757   3.611   5.869   2.085 -0.3034  0.1220  0.0249
  451MOL0     O60758   3.673   5.955   2.170  0.1576 -0.2526  0.0200
  451MOL0     C60759   3.803   5.920   2.213 -1.0137 -0.4278  0.8852
  451MOL0     C60760   3.885   6.029   2.286  0.7013  1.0302  1.1384
  451MOL0     C60761   3.796   6.134   2.364  0.7711 -0.3580  0.4007
  451MOL0     C60762   3.877   6.237   2.444 -0.1239 -0.2584 -0.3066
  451MOL0     C60763   3.945   6.341   2.361 -0.2275  0.0941 -0.1504
  451MOL0     C60764   4.034   6.443   2.448  0.9199  0.2577  0.5694
  451MOL0     C60765   4.141   6.519   2.374  0.3276 -0.1616  0.0370
  451MOL0     C60766   4.259   6.435   2.333 -0.3682  0.3854 -0.0564
  451MOL0     N60767   4.391   6.507   2.355 -0.4472  0.0607  0.3633
  451MOL0     C60768   4.439   6.543   2.478  0.1589  0.4786 -0.1625
  451MOL0     C60769   4.565   6.588   2.460  1.1896  0.9942  0.0040
  451MOL0     C60770   4.652   6.646   2.574 -1.0586  0.1129 -0.1122
  451MOL0     C60771   4.779   6.723   2.529  0.2063 -0.6498 -0.5329
  451MOL0     C60772   4.885   6.636   2.464  0.2242  0.5005  0.9592
  451MOL0     C60773   4.995   6.736   2.431  0.0915  0.0071  0.4584
  451MOL0     O60774   5.061   6.781   2.549  0.4971 -0.6441 -0.1557
  451MOL0     C60775   5.147   6.693   2.604  0.2535 -0.6513 -0.0366
  451MOL0     C60776   5.178   6.725   2.734 -0.5564  0.2559  0.2478
  451MOL0     C60777   5.278   6.665   2.808 -0.3583  0.3291 -1.0096
  451MOL0     C60778   5.349   6.563   2.753  0.2415 -0.7103  0.5034
  451MOL0     C60779   5.445   6.492   2.830 -1.0023 -0.5194 -0.0564
  451MOL0     O60780   5.544   6.432   2.758  0.4209 -0.4033 -0.4993
  451MOL0     C60781   5.632   6.349   2.818 -0.7288 -0.2027  0.0184
  451MOL0     C60782   5.591   6.252   2.919 -0.7828  0.4513  0.9779
  451MOL0     C60783   5.680   6.168   2.978 -0.0452  0.3590 -0.7048
  451MOL0     C60784   5.814   6.155   2.933 -0.6135 -0.2498  0.1096
  451MOL0     O60785   5.887   6.047   2.979 -0.2899 -0.0059 -0.4807
  451MOL0     C60786   5.945   5.956   2.888  1.2012  0.8720 -0.8287
  451MOL0     C60787   6.023   5.847   2.966 -0.4446  0.4192  0.4878
  451MOL0     C60788   6.179   5.868   2.949  0.4323  0.3798 -0.1902
  451MOL0     C60789   6.251   5.745   3.031 -0.4146  0.2207 -0.7561
  451MOL0     C60790   6.391   5.783   3.098 -0.0877  0.7403  0.8243
  451MOL0     C60791   6.496   5.830   2.996 -0.0177  0.3221 -1.4932
  451MOL0     C60792   6.554   5.721   2.913  0.8208 -0.1858  1.0739
  451MOL0     C60793   6.644   5.628   2.994  0.7344  0.5224  0.2063
  451MOL0    Cl60794   6.658   5.466   2.911  0.5309 -0.8835 -0.6575
  451MOL0     C60795   5.858   6.246   2.837 -0.0839  0.5258 -0.1157
  451MOL0     C60796   5.773   6.347   2.790  0.3451  0.9934  0.2817
  451MOL0     O60797   5.443   6.493   2.953 -0.3339 -0.1007 -0.1489
  451MOL0     C60798   5.322   6.527   2.616 -0.5982 -0.3838 -0.7178
  451MOL0     C60799   5.214   6.584   2.551 -0.2085 -0.3834  0.1494
  451MOL0     N60800   4.589   6.570   2.325  0.2251  0.6039 -0.0160
  451MOL0     N60801   4.490   6.521   2.267  0.5309  0.1132  0.7805
  451MOL0     C60802   3.516   5.912   1.995 -1.9412  0.0408  0.2827
  451MOL0     C60803   3.465   5.829   1.899  0.2642 -0.6093  0.3179
  451MOL0     C60804   3.370   5.488   1.626 -0.5273 -0.4885  0.4126
  451MOL0     C60805   3.244   5.452   1.677  0.7201 -0.0665 -0.2310
  451MOL0     C60806   3.167   5.358   1.617  0.3970  0.3378  0.3818
  451MOL0     C60807   3.210   5.292   1.496  0.4762  0.0410 -0.0095
  451MOL0     O60808   3.142   5.192   1.442 -0.2973 -0.2494 -0.5390
  451MOL0     C60809   3.015   5.150   1.502  0.1310  0.1370 -0.5503
  451MOL0     C60810   2.987   5.010   1.440  0.0127 -0.0243 -0.1971
  451MOL0     C60811   2.926   5.020   1.297 -0.5616  0.3344 -0.1097
  451MOL0     C60812   2.903   4.885   1.244 -0.0171 -0.1695  0.4149
  451MOL0     C60813   2.899   4.905   1.101 -0.2291 -0.7569  0.2582
  451MOL0     C60814   2.890   4.917   0.974  0.0415  0.6625 -0.1112
  451MOL0     C60815   3.337   5.313   1.443  0.8544 -0.1919  0.0681
  451MOL0     C60816   3.413   5.419   1.515 -0.0760  0.3584  0.2214
  451MOL0     C60817   3.549   5.440   1.461 -0.6054  0.4568  0.1359
  451MOL0     H60818   3.576   5.535   2.013  3.2249  0.7242  1.6213
  451MOL0     H60819   3.717   5.687   2.155  1.6585  2.0065  0.4651
  451MOL0     H60820   3.793   5.854   2.300  2.0546  0.4804  2.0556
  451MOL0     H60821   3.862   5.869   2.136  4.0546  0.1969  3.9020
  451MOL0     H60822   3.945   6.074   2.206 -1.1142 -0.2935 -1.0902
  451MOL0     H60823   3.947   5.981   2.363  0.1596 -1.7968 -0.0476
  451MOL0     H60824   3.737   6.086   2.443  1.7886  0.9815  2.0274
  451MOL0     H60825   3.721   6.179   2.298  0.3392  1.8561  2.2853
  451MOL0     H60826   3.821   6.290   2.521  0.3000  0.0307 -0.1947
  451MOL0     H60827   3.949   6.178   2.502 -2.4004 -2.1967  0.7260
  451MOL0     H60828   4.005   6.289   2.286  0.1574 -1.4959  1.1954
  451MOL0     H60829   3.866   6.397   2.311  1.3778  1.1805 -1.6008
  451MOL0     H60830   3.971   6.514   2.501  0.8704  0.4973  0.1993
  451MOL0     H60831   4.089   6.383   2.521  0.3461 -0.2471  0.5931
  451MOL0     H60832   4.179   6.588   2.450 -0.2515  1.4357 -1.0887
  451MOL0     H60833   4.100   6.580   2.293  0.3313 -0.7039 -0.3827
  451MOL0     H60834   4.265   6.350   2.401  1.1415  0.7713  0.3211
  451MOL0     H60835   4.247   6.398   2.231  1.2102  2.2372 -0.9851
  451MOL0     H60836   4.391   6.531   2.575 -2.5409  0.4022 -1.4148
  451MOL0     H60837   4.582   6.718   2.617 -1.6447  0.6074 -1.8107
  451MOL0     H60838   4.689   6.570   2.643  2.0799  1.1372 -0.5129
  451MOL0     H60839   4.749   6.800   2.456  1.4472 -0.0563 -0.4460
  451MOL0     H60840   4.830   6.775   2.610 -1.6662  0.4526 -0.0138
  451MOL0     H60841   4.847   6.586   2.374 -3.0041  1.9243  1.3934
  451MOL0     H60842   4.920   6.564   2.538  2.5188 -0.1258 -0.6420
  451MOL0     H60843   4.941   6.822   2.390 -2.2023 -0.2096  2.7006
  451MOL0     H60844   5.066   6.697   2.358  0.9385 -2.6348  2.5191
  451MOL0     H60845   5.135   6.814   2.779 -0.9010 -0.6592  1.8086
  451MOL0     H60846   5.293   6.692   2.912 -3.6805 -2.1432  0.3250
  451MOL0     H60847   5.490   6.250   2.960 -2.3896  0.0225 -2.5659
  451MOL0     H60848   5.639   6.101   3.053 -3.2550 -1.4826 -3.7339
  451MOL0     H60849   5.869   5.919   2.818  1.0285  1.3167 -0.8786
  451MOL0     H60850   6.013   6.008   2.820  1.9045  1.1428  0.0625
  451MOL0     H60851   6.003   5.853   3.073 -1.4072 -0.2232  0.3491
  451MOL0     H60852   6.001   5.744   2.938  0.0596  0.7581 -1.2717
  451MOL0     H60853   6.215   5.871   2.846 -0.8223  3.0969 -0.6090
  451MOL0     H60854   6.208   5.966   2.986  1.5446  0.2802 -0.7482
  451MOL0     H60855   6.267   5.665   2.958  0.3868 -0.6684  0.3592
  451MOL0     H60856   6.194   5.701   3.113 -0.1133  3.2898  1.2819
  451MOL0     H60857   6.421   5.692   3.149 -1.3179 -0.1032  0.1016
  451MOL0     H60858   6.381   5.861   3.174  0.5031 -2.5875  4.5918
  451MOL0     H60859   6.449   5.899   2.926 -2.2403 -2.3485 -2.8298
  451MOL0     H60860   6.580   5.881   3.045  2.8029 -3.7367 -1.6298
  451MOL0     H60861   6.587   5.757   2.816 -1.0050 -0.3994  0.3396
  451MOL0     H60862   6.468   5.662   2.879  2.7241 -2.2260 -0.4582
  451MOL0     H60863   6.742   5.674   3.008 -1.1906  5.3477 -0.2575
  451MOL0     H60864   6.591   5.611   3.089 -2.6351  0.8242 -1.4716
  451MOL0     H60865   5.959   6.241   2.796 -0.6419  0.7465 -1.5797
  451MOL0     H60866   5.813   6.403   2.705  1.8156 -1.0165 -0.4166
  451MOL0     H60867   5.385   6.459   2.560 -0.3611  2.3469 -4.1396
  451MOL0     H60868   5.185   6.532   2.460 -1.1089 -2.4717  1.5586
  451MOL0     H60869   3.492   6.018   1.990 -1.2695  0.1444 -1.4041
  451MOL0     H60870   3.392   5.862   1.826 -0.3279  0.6044  1.4277
  451MOL0     H60871   3.194   5.493   1.764 -3.9313 -2.6017 -1.3791
  451MOL0     H60872   3.066   5.328   1.643  1.0885 -2.2661  0.3810
  451MOL0     H60873   2.941   5.229   1.484  1.4256  1.1468 -1.6512
  451MOL0     H60874   3.018   5.131   1.610 -0.4447 -1.4067 -0.7846
  451MOL0     H60875   2.909   4.959   1.497  0.8695 -0.3587  0.7019
  451MOL0     H60876   3.079   4.951   1.438 -0.1837 -0.6246  3.0382
  451MOL0     H60877   2.994   5.068   1.226 -2.1409  0.3100 -1.7065
  451MOL0     H60878   2.833   5.075   1.312 -0.8853 -0.0493 -0.6870
  451MOL0     H60879   2.980   4.811   1.266  1.3444  0.5015 -1.7970
  451MOL0     H60880   2.811   4.839   1.283  0.1524 -0.8265  0.0587
  451MOL0     H60881   2.878   4.930   0.868 -2.3434 -3.7043 -0.6259
  451MOL0     H60882   3.372   5.257   1.357  5.4742  1.8070  0.3501
  451MOL0     H60883   3.541   5.519   1.386 -2.7980  0.6670  0.5352
  451MOL0     H60884   3.617   5.481   1.537 -2.1125 -0.8690  2.3037
  451MOL0     H60885   3.595   5.344   1.437 -1.5752 -1.3153  4.5515
  452MOL0     O60886   0.355   8.367   4.093  0.2296 -0.0336  0.1596
  452MOL0     C60887   0.316   8.481   4.084  0.4280 -1.0038 -0.3347
  452MOL0     O60888   0.383   8.578   4.014  0.4688 -0.3768  0.0776
  452MOL0     C60889   0.495   8.553   3.935 -0.5013 -0.4072  0.2057
  452MOL0     C60890   0.512   8.438   3.852  0.1558  0.1271 -0.1874
  452MOL0     C60891   0.615   8.440   3.761 -0.8302  0.0054  0.4307
  452MOL0     C60892   0.731   8.518   3.773  0.5713  0.5094 -0.1028
  452MOL0     O60893   0.817   8.509   3.675 -0.0601 -0.5230 -0.2965
  452MOL0     C60894   0.927   8.608   3.680 -0.2926  0.7744  0.4200
  452MOL0     C60895   1.042   8.572   3.586  0.6131  0.0248 -0.3771
  452MOL0     C60896   1.006   8.601   3.435 -0.0789  0.1510 -0.3617
  452MOL0     C60897   1.122   8.599   3.342 -0.7320 -0.5974  0.1362
  452MOL0     C60898   1.071   8.575   3.192  1.1037 -0.4855 -0.2394
  452MOL0     C60899   1.179   8.574   3.091 -0.5417 -0.1466  0.4551
  452MOL0     C60900   1.122   8.506   2.966  0.2781  0.3212  0.2585
  452MOL0     C60901   1.177   8.365   2.929 -0.2789  0.4591 -0.9598
  452MOL0     N60902   1.169   8.278   3.048  0.0137 -0.2553  0.1139
  452MOL0     C60903   1.062   8.229   3.123  0.0195  0.5610 -0.1094
  452MOL0     C60904   1.112   8.133   3.209  0.0551  0.3347 -0.9438
  452MOL0     C60905   1.033   8.041   3.302  0.4158 -0.0428  0.0799
  452MOL0     C60906   1.117   7.947   3.387  0.2639 -0.3658 -0.2630
  452MOL0     C60907   1.029   7.864   3.480 -0.5587 -0.0395 -0.4292
  452MOL0     C60908   1.113   7.759   3.548  0.7943  0.5258 -0.0854
  452MOL0     O60909   1.035   7.635   3.580  0.4036 -0.5755 -0.1590
  452MOL0     C60910   0.979   7.624   3.708 -0.0758  0.0728  0.5891
  452MOL0     C60911   0.901   7.711   3.786 -0.1338 -0.4351  0.6526
  452MOL0     C60912   0.847   7.673   3.907 -0.9842 -0.6027 -0.5331
  452MOL0     C60913   0.876   7.545   3.962 -0.2235 -0.3885  0.2181
  452MOL0     C60914   0.846   7.506   4.109 -0.1814 -1.0036  0.9025
  452MOL0     O60915   0.870   7.374   4.156  0.5498  0.6864  0.0956
  452MOL0     C60916   0.847   7.371   4.291 -0.7181 -0.6138 -0.2835
  452MOL0     C60917   0.737   7.311   4.342  0.0023 -0.1089 -0.0549
  452MOL0     C60918   0.700   7.329   4.481 -0.4645  0.0305 -1.2271
  452MOL0     C60919   0.794   7.385   4.571 -0.7495  0.6655 -1.1311
  452MOL0     O60920   0.789   7.375   4.707  0.3912 -0.2543 -0.9106
  452MOL0     C60921   0.679   7.316   4.771  0.5733 -0.4739 -0.7510
  452MOL0     C60922   0.725   7.297   4.919 -0.3887 -0.0451  0.5724
  452MOL0     C60923   0.635   7.202   4.992 -0.9929  0.0024  0.4923
  452MOL0     C60924   0.688   7.191   5.142  0.5700 -0.0207  0.5173
  452MOL0     C60925   0.601   7.129   5.237 -0.0693  0.1726 -0.5751
  452MOL0     C60926   0.465   7.198   5.263 -0.5724 -0.0334  0.0745
  452MOL0     C60927   0.404   7.130   5.389  0.7352  0.3720 -0.2770
  452MOL0     C60928   0.270   7.172   5.441  0.6359  0.2792 -0.1170
  452MOL0    Cl60929   0.141   7.185   5.315  0.2050  0.1504  0.1702
  452MOL0     C60930   0.909   7.442   4.507 -0.3566 -0.1636 -0.7707
  452MOL0     C60931   0.939   7.433   4.375  0.3523  1.0960 -0.3347
  452MOL0     O60932   0.803   7.598   4.186  0.0665 -0.7794  0.4864
  452MOL0     C60933   0.955   7.462   3.879 -0.1648 -0.2960  0.2007
  452MOL0     C60934   0.992   7.498   3.759  0.6122  0.0420  0.8481
  452MOL0     N60935   1.246   8.123   3.183 -0.4371  0.3245 -0.1453
  452MOL0     N60936   1.278   8.207   3.089 -0.3004  0.1201  0.3195
  452MOL0     C60937   0.722   8.615   3.872  0.3382 -1.4269  1.0039
  452MOL0     C60938   0.599   8.641   3.942 -0.5024  0.6185 -0.0503
  452MOL0     C60939   0.214   8.530   4.174  0.3802  0.7863  0.1121
  452MOL0     C60940   0.102   8.455   4.187  0.5693 -0.7961  0.1422
  452MOL0     C60941   0.003   8.482   4.280  0.2721 -0.3925 -0.3302
  452MOL0     C60942   0.010   8.598   4.358 -0.9599 -0.9291  0.9347
  452MOL0     O60943  -0.089   8.629   4.454  0.2697  0.1866  0.1097
  452MOL0     C60944  -0.222   8.643   4.411 -0.9076  0.2965  0.7334
  452MOL0     C60945  -0.303   8.739   4.498 -0.2453  0.2455  0.4020
  452MOL0     C60946  -0.364   8.684   4.626  0.3017 -0.0536 -0.0894
  452MOL0     C60947  -0.487   8.598   4.593 -1.3085 -0.1333  0.3092
  452MOL0     C60948  -0.547   8.551   4.711  0.8999  0.0762 -0.0538
  452MOL0     C60949  -0.582   8.498   4.812  0.7141  0.5552 -0.4777
  452MOL0     C60950   0.131   8.667   4.357 -0.5617 -0.1402 -0.4235
  452MOL0     C60951   0.229   8.640   4.262 -0.3314  0.2226  0.2693
  452MOL0     C60952   0.349   8.736   4.255  0.4926  0.7202 -0.1466
  452MOL0     H60953   0.435   8.363   3.838 -0.1736  0.4638 -0.2051
  452MOL0     H60954   0.608   8.371   3.678  2.1194 -0.3070  0.3377
  452MOL0     H60955   0.870   8.694   3.644 -3.1443 -2.3179 -3.3955
  452MOL0     H60956   0.968   8.615   3.781  2.1934 -1.5564 -0.2869
  452MOL0     H60957   1.070   8.467   3.594 -0.4067 -0.3706 -1.6636
  452MOL0     H60958   1.129   8.633   3.610  0.7154 -0.1117 -0.4005
  452MOL0     H60959   0.960   8.700   3.431 -0.0865  0.1152 -2.7610
  452MOL0     H60960   0.934   8.528   3.397  0.0823 -0.4953  0.5440
  452MOL0     H60961   1.178   8.692   3.349  3.3953 -2.8718  0.3499
  452MOL0     H60962   1.192   8.516   3.358 -0.6387 -0.5369  0.0338
  452MOL0     H60963   1.021   8.479   3.178 -0.2553  0.3321 -1.3777
  452MOL0     H60964   0.987   8.640   3.165  2.5923  2.1499  1.0190
  452MOL0     H60965   1.208   8.676   3.065  2.8744 -1.2241 -0.4795
  452MOL0     H60966   1.267   8.518   3.127 -1.7687 -1.3427  1.7078
  452MOL0     H60967   1.174   8.562   2.888  0.4186  1.8337  1.3847
  452MOL0     H60968   1.015   8.510   2.944  0.1541  0.3261  0.8326
  452MOL0     H60969   1.120   8.334   2.841 -1.6358 -0.4111  0.1952
  452MOL0     H60970   1.280   8.373   2.892 -0.1753 -1.0443 -1.0673
  452MOL0     H60971   0.955   8.248   3.115  0.0001  1.4639  1.8272
  452MOL0     H60972   0.964   8.106   3.356  1.9135  2.3358 -0.7308
  452MOL0     H60973   0.979   7.975   3.233  2.4617 -1.9571  0.1788
  452MOL0     H60974   1.184   7.892   3.321  1.1361  0.3047  0.0360
  452MOL0     H60975   1.188   8.000   3.452  0.3195 -1.5245  0.6639
  452MOL0     H60976   0.964   7.797   3.422  1.8735 -4.1113  1.1005
  452MOL0     H60977   0.989   7.932   3.556  1.3397 -0.3672  0.9244
  452MOL0     H60978   1.161   7.806   3.634  0.9025 -2.0580  1.3741
  452MOL0     H60979   1.193   7.731   3.479  1.2705 -0.0884  0.6940
  452MOL0     H60980   0.889   7.811   3.745 -3.7415 -1.7835 -2.0719
  452MOL0     H60981   0.777   7.738   3.959 -0.5654  0.0680 -0.7987
  452MOL0     H60982   0.674   7.270   4.264 -0.9052  0.6544  0.2608
  452MOL0     H60983   0.607   7.295   4.527  0.2541  0.7743  0.9258
  452MOL0     H60984   0.595   7.385   4.778 -0.3815 -1.6732 -0.1496
  452MOL0     H60985   0.664   7.214   4.734 -0.9498 -1.5232  2.3561
  452MOL0     H60986   0.828   7.264   4.931 -0.0128  1.7886  3.0867
  452MOL0     H60987   0.725   7.393   4.970 -0.1790  0.4339 -0.3096
  452MOL0     H60988   0.532   7.237   5.005 -1.8300 -2.9907  3.0588
  452MOL0     H60989   0.625   7.109   4.936 -1.7884  1.2452 -1.5574
  452MOL0     H60990   0.714   7.292   5.174  0.6833  0.3787 -0.7878
  452MOL0     H60991   0.787   7.145   5.129  0.9410 -0.4887  4.0658
  452MOL0     H60992   0.668   7.135   5.323 -0.3183  1.7110 -0.4631
  452MOL0     H60993   0.583   7.023   5.216 -1.6910  0.3662 -0.3199
  452MOL0     H60994   0.478   7.304   5.289 -1.6725 -0.0526  0.8010
  452MOL0     H60995   0.393   7.194   5.182  2.0032  3.6768 -2.7761
  452MOL0     H60996   0.468   7.150   5.475 -1.9343 -3.3637  2.9234
  452MOL0     H60997   0.396   7.022   5.374 -0.8138  0.5417 -0.8146
  452MOL0     H60998   0.234   7.103   5.518  0.8797 -2.0903 -2.0116
  452MOL0     H60999   0.280   7.270   5.489  4.3073 -1.0998  2.3213
  452MOL0     H61000   0.980   7.491   4.573  0.6043 -3.8289  1.2122
  452MOL0     H61001   1.024   7.483   4.330  1.1559 -1.0569 -1.3194
  452MOL0     H61002   0.999   7.370   3.917  4.1757  1.7893  0.8029
  452MOL0     H61003   1.050   7.434   3.694 -1.9265 -0.9953 -0.5660
  452MOL0     H61004   0.806   8.681   3.889  0.0656 -1.5349  3.0546
  452MOL0     H61005   0.577   8.726   4.005  0.2988 -0.4246  1.7206
  452MOL0     H61006   0.100   8.361   4.132  0.7095 -1.8689  1.9060
  452MOL0     H61007  -0.071   8.403   4.288  1.8912 -1.8080  1.4864
  452MOL0     H61008  -0.272   8.545   4.417 -2.5291  1.0626  0.3843
  452MOL0     H61009  -0.215   8.666   4.305  0.4495 -0.2579  0.6821
  452MOL0     H61010  -0.386   8.783   4.442 -0.2898 -0.7003 -0.3040
  452MOL0     H61011  -0.240   8.820   4.536 -0.9294  1.7746 -1.5271
  452MOL0     H61012  -0.401   8.765   4.689 -0.3512 -0.9582  0.7053
  452MOL0     H61013  -0.293   8.632   4.690 -1.0632 -2.3719 -0.3539
  452MOL0     H61014  -0.555   8.656   4.529  1.2667  0.6305 -1.9615
  452MOL0     H61015  -0.458   8.518   4.524 -0.5517  1.9297 -1.9216
  452MOL0     H61016  -0.615   8.452   4.903 -0.8311  2.5992  0.0707
  452MOL0     H61017   0.141   8.760   4.412 -1.6493 -0.4689  0.3618
  452MOL0     H61018   0.436   8.674   4.276  1.1341  1.0596 -1.6480
  452MOL0     H61019   0.360   8.799   4.166  2.5249  0.8354  0.1432
  452MOL0     H61020   0.351   8.811   4.334  1.3792  1.1625 -0.5681
  453MOL0     O61021   3.090  10.543  11.053  0.5149  0.6434 -0.0161
  453MOL0     C61022   3.017  10.633  11.013  0.0719  0.9045 -0.6656
  453MOL0     O61023   3.000  10.669  10.884  0.6096 -0.2846  0.1508
  453MOL0     C61024   3.018  10.592  10.774  0.4325  0.2912 -0.9659
  453MOL0     C61025   2.940  10.477  10.775 -0.1520 -0.0300  0.0051
  453MOL0     C61026   2.922  10.407  10.653  0.9708  0.0454 -0.8232
  453MOL0     C61027   2.988  10.455  10.539 -0.0351  0.9182  0.0817
  453MOL0     O61028   2.980  10.363  10.441 -0.6876  0.2742 -0.7784
  453MOL0     C61029   2.921  10.405  10.317 -0.7120 -0.1762  0.0279
  453MOL0     C61030   2.865  10.295  10.224 -0.6480  0.3421 -0.9323
  453MOL0     C61031   2.787  10.176  10.301  0.4720  0.3452  0.0784
  453MOL0     C61032   2.659  10.214  10.377  0.0760 -0.1426 -0.3467
  453MOL0     C61033   2.547  10.264  10.280  0.0545 -0.0772 -0.3452
  453MOL0     C61034   2.435  10.342  10.359 -0.5245 -0.0139 -0.2847
  453MOL0     C61035   2.342  10.410  10.257 -0.5924  0.9594  0.0621
  453MOL0     C61036   2.219  10.444  10.334  0.0305 -1.0897 -0.3864
  453MOL0     N61037   2.118  10.512  10.252  0.3268  0.6463  1.2507
  453MOL0     C61038   2.135  10.618  10.153  0.3118  0.6158 -0.3009
  453MOL0     C61039   2.010  10.631  10.110  1.2242  0.8359  0.5707
  453MOL0     C61040   1.983  10.713   9.984  0.0017  0.2961 -0.1945
  453MOL0     C61041   2.050  10.647   9.862 -0.0744  0.0217  0.1732
  453MOL0     C61042   1.987  10.696   9.724 -0.3376 -0.3818 -1.8013
  453MOL0     C61043   2.018  10.831   9.692 -1.0269  0.0608 -0.0388
  453MOL0     O61044   2.158  10.857   9.688  0.2322  0.6939 -0.7700
  453MOL0     C61045   2.198  10.982   9.636 -0.4825  0.0491 -0.9721
  453MOL0     C61046   2.132  11.106   9.647 -0.0098  0.5359 -0.4966
  453MOL0     C61047   2.195  11.233   9.628 -0.5717  0.0946 -0.7644
  453MOL0     C61048   2.326  11.233   9.579 -0.1707 -0.0911  0.7067
  453MOL0     C61049   2.391  11.370   9.538  0.7599  0.0966 -0.0161
  453MOL0     O61050   2.511  11.369   9.467 -0.2077  0.2373  0.1322
  453MOL0     C61051   2.588  11.481   9.438  0.2201  0.4414 -0.7258
  453MOL0     C61052   2.604  11.592   9.519 -0.2722 -0.4046 -0.6922
  453MOL0     C61053   2.682  11.704   9.481 -0.3622  0.4147  0.1999
  453MOL0     C61054   2.770  11.695   9.369  0.0353 -0.1203  0.1581
  453MOL0     O61055   2.856  11.799   9.345 -0.0171 -0.3650  0.7352
  453MOL0     C61056   2.823  11.864   9.218  0.3684  0.8519 -0.5121
  453MOL0     C61057   2.849  12.009   9.223 -0.3629 -0.0134 -0.4888
  453MOL0     C61058   2.802  12.097   9.345 -0.0305 -0.6266 -0.5737
  453MOL0     C61059   2.858  12.250   9.332 -0.0721 -0.3391 -0.6621
  453MOL0     C61060   2.800  12.329   9.461  0.7681  0.4387  0.3054
  453MOL0     C61061   2.710  12.448   9.427  0.1299  0.2696  0.7983
  453MOL0     C61062   2.794  12.566   9.379  0.2963  0.2016  0.9526
  453MOL0     C61063   2.730  12.705   9.383 -1.0594  0.2713 -1.0400
  453MOL0    Cl61064   2.571  12.706   9.331  0.1348 -0.1511 -0.3845
  453MOL0     C61065   2.770  11.578   9.300  0.1358 -0.1561  0.3918
  453MOL0     C61066   2.681  11.470   9.329  0.6554  0.1088 -0.7414
  453MOL0     O61067   2.326  11.467   9.570 -0.5064  0.2066 -0.3027
  453MOL0     C61068   2.382  11.110   9.542  0.1965 -0.2062 -0.4275
  453MOL0     C61069   2.322  10.986   9.569 -0.4159  0.0914 -0.0935
  453MOL0     N61070   1.925  10.542  10.171  0.4050  0.4148  0.4373
  453MOL0     N61071   1.987  10.477  10.266 -0.3930  1.6929 -0.3405
  453MOL0     C61072   3.071  10.563  10.541  1.1284 -0.4712 -0.2577
  453MOL0     C61073   3.085  10.631  10.664  0.5148  0.7240 -0.8156
  453MOL0     C61074   2.955  10.721  11.113 -0.8092 -0.9149 -0.9590
  453MOL0     C61075   2.897  10.837  11.056 -0.4313  0.5046  0.6430
  453MOL0     C61076   2.825  10.918  11.141 -0.4535  0.0591 -0.7442
  453MOL0     C61077   2.822  10.898  11.277  0.2919 -0.0293 -0.5311
  453MOL0     O61078   2.760  10.984  11.369  0.2416 -0.0411  0.2792
  453MOL0     C61079   2.619  10.986  11.368  0.0747 -0.2826  0.0250
  453MOL0     C61080   2.577  11.091  11.470 -0.3051  0.8954  0.2020
  453MOL0     C61081   2.599  11.068  11.621 -1.4188  0.3225  0.6066
  453MOL0     C61082   2.480  10.996  11.691  0.7602  0.6469 -0.0557
  453MOL0     C61083   2.473  10.858  11.656 -0.0686 -0.0505  0.9481
  453MOL0     C61084   2.468  10.740  11.617  0.1172  1.2539 -0.6386
  453MOL0     C61085   2.890  10.784  11.328  0.3473 -0.0337 -0.3933
  453MOL0     C61086   2.953  10.689  11.246  0.1597  0.7882 -0.6139
  453MOL0     C61087   3.013  10.576  11.322  0.3960  0.6055  0.4451
  453MOL0     H61088   2.885  10.447  10.864 -1.1851 -0.8183 -0.8718
  453MOL0     H61089   2.849  10.328  10.649 -1.7623  2.0493  2.9570
  453MOL0     H61090   2.833  10.461  10.350 -1.1843  0.2449 -1.8264
  453MOL0     H61091   2.983  10.474  10.259  0.8902 -1.1003  0.5847
  453MOL0     H61092   2.958  10.261  10.176 -0.2437  1.1881 -0.7819
  453MOL0     H61093   2.816  10.344  10.140  1.2637 -1.9761 -3.5903
  453MOL0     H61094   2.855  10.125  10.371  2.5198  3.3900  0.5267
  453MOL0     H61095   2.754  10.101  10.228 -0.7959  1.5190 -0.5931
  453MOL0     H61096   2.619  10.123  10.424 -2.9490 -1.6450 -5.0761
  453MOL0     H61097   2.672  10.294  10.450 -0.3992 -1.3711  1.1514
  453MOL0     H61098   2.597  10.348  10.231 -3.8391  2.9370  0.3915
  453MOL0     H61099   2.522  10.185  10.209  3.5615 -2.6094  0.9290
  453MOL0     H61100   2.373  10.265  10.407  1.6105 -1.5210  0.2095
  453MOL0     H61101   2.475  10.413  10.432 -0.5963 -0.8157  0.5557
  453MOL0     H61102   2.325  10.333  10.182 -0.5381 -0.5410  1.5248
  453MOL0     H61103   2.388  10.499  10.213 -4.2668  2.8063 -0.3762
  453MOL0     H61104   2.170  10.353  10.372 -0.1758 -1.4223 -1.4188
  453MOL0     H61105   2.247  10.505  10.420 -0.0106 -2.4098  0.6045
  453MOL0     H61106   2.218  10.680  10.121  0.6002  1.4469  1.9528
  453MOL0     H61107   1.876  10.707   9.963  0.0270  0.3459 -0.3438
  453MOL0     H61108   2.007  10.817  10.008 -0.7160  0.8573 -1.7974
  453MOL0     H61109   2.158  10.658   9.870 -0.0406 -0.3401  0.2389
  453MOL0     H61110   2.031  10.539   9.859 -1.7321  0.2825 -2.4559
  453MOL0     H61111   1.878  10.694   9.728 -0.3381  1.0162 -0.3535
  453MOL0     H61112   2.020  10.627   9.645 -1.6261 -1.2641 -1.6018
  453MOL0     H61113   1.973  10.896   9.768  0.7522  1.1544  0.1347
  453MOL0     H61114   1.980  10.851   9.592  0.1032 -0.2138 -0.5445
  453MOL0     H61115   2.030  11.094   9.682  0.4497 -5.2532 -0.2160
  453MOL0     H61116   2.134  11.319   9.654 -1.5978 -1.3544  2.0268
  453MOL0     H61117   2.547  11.610   9.609 -0.0062  0.2675 -0.6519
  453MOL0     H61118   2.685  11.799   9.532 -1.3707  0.3249  0.4438
  453MOL0     H61119   2.868  11.825   9.126 -0.8405 -3.3683  0.4579
  453MOL0     H61120   2.714  11.866   9.210  0.2459  2.1238  0.9354
  453MOL0     H61121   2.958  12.018   9.220 -0.3342 -0.7393 -2.8385
  453MOL0     H61122   2.813  12.057   9.132 -2.3468  3.1406  1.7245
  453MOL0     H61123   2.694  12.104   9.328  0.2874  0.3067 -2.4040
  453MOL0     H61124   2.817  12.054   9.445  3.2876 -0.2302 -0.8060
  453MOL0     H61125   2.840  12.306   9.240 -0.6822  0.1548 -0.2557
  453MOL0     H61126   2.967  12.241   9.341 -0.1232 -0.5988 -0.2826
  453MOL0     H61127   2.885  12.368   9.518  2.6658 -4.2941  1.1657
  453MOL0     H61128   2.733  12.263   9.518  1.6200  1.4980  2.6771
  453MOL0     H61129   2.636  12.419   9.352  0.7393  0.7925 -0.0288
  453MOL0     H61130   2.660  12.487   9.516  2.8960  2.3396  1.5921
  453MOL0     H61131   2.816  12.543   9.275  2.0257 -0.4699  1.4227
  453MOL0     H61132   2.886  12.572   9.438  1.0203  0.4523 -0.1707
  453MOL0     H61133   2.734  12.751   9.482  0.2347 -3.4888  0.8500
  453MOL0     H61134   2.788  12.777   9.324 -1.0583  0.1973 -1.1294
  453MOL0     H61135   2.806  11.567   9.199 -0.3314  0.9287  0.0871
  453MOL0     H61136   2.684  11.385   9.262  0.6277  0.2148 -0.8793
  453MOL0     H61137   2.478  11.126   9.494 -0.5683  1.8958 -1.3644
  453MOL0     H61138   2.376  10.896   9.544  0.9345  1.1670 -1.2815
  453MOL0     H61139   3.123  10.590  10.449  0.6945  2.0665  0.1682
  453MOL0     H61140   3.150  10.717  10.678  2.3657 -0.5194 -1.2737
  453MOL0     H61141   2.889  10.857  10.950  2.3510  0.8876  0.4458
  453MOL0     H61142   2.779  11.004  11.093  0.1246  1.8836  1.7529
  453MOL0     H61143   2.570  10.897  11.408 -0.7418 -0.0054 -0.3454
  453MOL0     H61144   2.577  11.003  11.268  2.4231 -2.0400 -1.3710
  453MOL0     H61145   2.477  11.133  11.455 -0.4011  1.0887  1.3150
  453MOL0     H61146   2.651  11.168  11.448 -0.0882  0.6781  0.1613
  453MOL0     H61147   2.611  11.162  11.676 -0.8879  1.2589 -1.0123
  453MOL0     H61148   2.691  11.010  11.632 -0.2580  1.9846  0.1050
  453MOL0     H61149   2.504  11.010  11.797 -0.0264 -1.5287  0.4523
  453MOL0     H61150   2.384  11.044  11.669  1.1110  1.1196 -0.5866
  453MOL0     H61151   2.492  10.641  11.585  3.3735  1.4014  0.9439
  453MOL0     H61152   2.883  10.757  11.433 -0.8583  1.8697  0.0566
  453MOL0     H61153   2.978  10.477  11.294  1.8639 -1.1046  3.9699
  453MOL0     H61154   3.118  10.580  11.292 -0.4432  0.4620 -2.8774
  453MOL0     H61155   3.000  10.571  11.431 -1.7543  0.5047  0.2223
  454MOL0     O61156  11.439   7.524   5.001  0.1351 -0.4488 -0.2115
  454MOL0     C61157  11.464   7.615   4.919 -0.5428 -0.2176 -0.6837
  454MOL0     O61158  11.376   7.704   4.874  0.5529  0.5049  0.5345
  454MOL0     C61159  11.296   7.759   4.965 -1.0543 -0.4290 -0.6458
  454MOL0     C61160  11.173   7.790   4.921  0.9895 -0.3435 -0.4021
  454MOL0     C61161  11.086   7.864   5.000  1.1855  0.2505 -1.1756
  454MOL0     C61162  11.137   7.928   5.117 -0.4039 -0.3278 -0.3482
  454MOL0     O61163  11.060   7.989   5.215 -0.2531 -0.1717  0.6234
  454MOL0     C61164  10.915   7.975   5.190 -0.4201 -0.2718  0.6010
  454MOL0     C61165  10.859   8.026   5.322  0.2383  0.2468  0.1620
  454MOL0     C61166  10.711   7.992   5.319  0.5600  0.0683 -0.7363
  454MOL0     C61167  10.651   7.963   5.454 -0.4669  0.2842  0.8174
  454MOL0     C61168  10.516   7.898   5.442 -0.8113 -0.2967  0.3688
  454MOL0     C61169  10.440   7.867   5.564 -0.8775 -1.0374  0.0418
  454MOL0     C61170  10.493   7.737   5.632 -0.3537  0.1287  0.7885
  454MOL0     C61171  10.496   7.754   5.774 -0.4876 -0.8945 -1.2640
  454MOL0     N61172  10.363   7.757   5.841 -0.8404  0.2335  0.1508
  454MOL0     C61173  10.337   7.679   5.952  0.6779 -0.3260 -1.3970
  454MOL0     C61174  10.203   7.700   5.957  0.5569  0.4539 -0.6860
  454MOL0     C61175  10.127   7.619   6.056  0.0233  0.1522 -0.1788
  454MOL0     C61176  10.161   7.643   6.200  0.0691  0.0013 -0.2381
  454MOL0     C61177  10.112   7.772   6.265  0.4239  0.9522  0.8357
  454MOL0     C61178  10.182   7.904   6.226  0.4986 -0.3735  0.4701
  454MOL0     O61179  10.320   7.874   6.234 -0.6363  0.0934  0.4138
  454MOL0     C61180  10.418   7.968   6.219  1.0488  0.2861 -0.1968
  454MOL0     C61181  10.384   8.104   6.223  0.4657 -1.2948 -0.0992
  454MOL0     C61182  10.490   8.202   6.220 -0.6615 -0.0461 -0.9051
  454MOL0     C61183  10.620   8.154   6.201 -0.7127 -0.4680  0.4680
  454MOL0     C61184  10.726   8.262   6.190 -0.2262 -0.9863  0.4610
  454MOL0     O61185  10.842   8.227   6.136  0.1867 -0.3885  0.4895
  454MOL0     C61186  10.937   8.324   6.121  0.3138  0.4621  0.8030
  454MOL0     C61187  10.972   8.403   6.225  0.3788 -0.0151  0.2133
  454MOL0     C61188  11.068   8.496   6.207 -0.4263 -0.0578 -0.6361
  454MOL0     C61189  11.129   8.516   6.086  0.0230 -0.1422 -1.1024
  454MOL0     O61190  11.208   8.636   6.068  0.1146 -0.0400 -0.0424
  454MOL0     C61191  11.271   8.640   5.937 -0.4150  0.0109  0.9131
  454MOL0     C61192  11.376   8.756   5.950 -0.8428  0.3735  0.2148
  454MOL0     C61193  11.498   8.710   6.040  0.1990  0.9274 -0.3012
  454MOL0     C61194  11.611   8.811   6.043  0.4444 -0.3148  0.0837
  454MOL0     C61195  11.700   8.818   6.167 -1.1672  0.4489  0.5821
  454MOL0     C61196  11.809   8.932   6.162 -0.4765  0.6404  0.1521
  454MOL0     C61197  11.759   9.075   6.134 -0.5634  0.2257 -0.5554
  454MOL0     C61198  11.890   9.162   6.105 -0.7864 -0.0235 -0.1423
  454MOL0    Cl61199  11.943   9.164   5.935  0.1923 -0.3966  0.4514
  454MOL0     C61200  11.099   8.426   5.988 -0.3406  0.2065 -0.1872
  454MOL0     C61201  11.002   8.324   5.995  0.4096 -0.2478 -0.0937
  454MOL0     O61202  10.699   8.374   6.226  0.5890  0.7930  1.2945
  454MOL0     C61203  10.651   8.024   6.182 -0.1727 -0.4385  0.2160
  454MOL0     C61204  10.553   7.928   6.211  1.0818 -0.3493  0.3099
  454MOL0     N61205  10.150   7.786   5.860  0.0465  0.6509  0.0512
  454MOL0     N61206  10.252   7.819   5.795  0.6601 -0.1574 -0.3850
  454MOL0     C61207  11.266   7.908   5.152  0.8563 -0.5361  0.7399
  454MOL0     C61208  11.346   7.816   5.074 -0.4931 -0.1267 -0.0265
  454MOL0     C61209  11.604   7.609   4.852  0.5112  0.7027 -0.0709
  454MOL0     C61210  11.723   7.602   4.917  0.1103 -0.4899 -0.1044
  454MOL0     C61211  11.850   7.607   4.858  0.6415  0.9908  0.2307
  454MOL0     C61212  11.851   7.593   4.721  0.4334 -0.0725  0.3782
  454MOL0     O61213  11.960   7.582   4.637  1.0774 -0.9807  0.1145
  454MOL0     C61214  12.085   7.651   4.666  0.1793 -0.1877  0.5004
  454MOL0     C61215  12.051   7.801   4.617  0.6670 -0.8087 -0.8279
  454MOL0     C61216  12.169   7.884   4.621  0.3871 -0.4484  0.7445
  454MOL0     C61217  12.149   8.036   4.640  0.4209  0.0137  0.0514
  454MOL0     C61218  12.279   8.099   4.666 -1.2110 -0.5006 -0.4059
  454MOL0     C61219  12.386   8.152   4.676 -0.2694 -1.0678  0.0987
  454MOL0     C61220  11.730   7.580   4.648 -1.1080  0.8645  0.3160
  454MOL0     C61221  11.614   7.584   4.714 -1.0518 -0.4467  0.9137
  454MOL0     C61222  11.492   7.584   4.629 -0.7654 -0.9391 -1.1756
  454MOL0     H61223  11.139   7.769   4.821 -0.7112  0.5149 -0.0404
  454MOL0     H61224  10.984   7.879   4.965  0.7950  1.4221  0.3643
  454MOL0     H61225  10.878   8.046   5.115 -1.8359 -1.8857 -0.3143
  454MOL0     H61226  10.892   7.872   5.163 -0.6831 -0.3125  0.9731
  454MOL0     H61227  10.889   8.128   5.348 -2.2236  0.4075  2.8750
  454MOL0     H61228  10.898   7.964   5.403 -0.1835 -0.6366 -0.3022
  454MOL0     H61229  10.682   7.905   5.260 -1.9144  0.5513 -0.3691
  454MOL0     H61230  10.670   8.081   5.271  1.8468  2.5413  2.3808
  454MOL0     H61231  10.725   7.897   5.500  2.1934  1.9733 -0.7388
  454MOL0     H61232  10.652   8.056   5.510  0.4514  0.0176  1.2658
  454MOL0     H61233  10.462   7.980   5.394 -0.4951  1.0277  2.1450
  454MOL0     H61234  10.517   7.807   5.382 -1.6739 -1.5153  2.1240
  454MOL0     H61235  10.448   7.946   5.640 -0.3808 -2.9707  2.1059
  454MOL0     H61236  10.331   7.862   5.554 -0.8635 -1.8619  0.2745
  454MOL0     H61237  10.599   7.724   5.608 -1.2010  0.9662 -4.7946
  454MOL0     H61238  10.439   7.647   5.602  0.6673 -0.7540  1.5180
  454MOL0     H61239  10.544   7.665   5.815 -1.2207 -0.9321 -0.4486
  454MOL0     H61240  10.558   7.843   5.790 -0.3648 -0.6599 -2.8623
  454MOL0     H61241  10.388   7.605   6.013 -3.4052 -3.1041 -0.9129
  454MOL0     H61242  10.020   7.621   6.034 -0.0643 -1.3853  0.0091
  454MOL0     H61243  10.150   7.514   6.039 -1.6170 -0.2578  0.0162
  454MOL0     H61244  10.145   7.556   6.264  1.0878 -1.1333 -1.4795
  454MOL0     H61245  10.267   7.644   6.225 -0.4743  0.5869  2.3716
  454MOL0     H61246  10.114   7.766   6.375 -2.0886 -1.6801  0.8373
  454MOL0     H61247  10.006   7.781   6.241 -0.3985  5.3917  4.6760
  454MOL0     H61248  10.143   7.980   6.295  1.1183 -0.6461  1.1290
  454MOL0     H61249  10.149   7.931   6.125  0.3211 -2.1998  0.0055
  454MOL0     H61250  10.286   8.149   6.231  1.9038  3.2647 -3.6690
  454MOL0     H61251  10.461   8.306   6.230 -0.5116 -0.0379 -0.5579
  454MOL0     H61252  10.920   8.394   6.320 -1.9816  0.3833 -0.9620
  454MOL0     H61253  11.094   8.554   6.295  1.0167 -0.5987 -0.6710
  454MOL0     H61254  11.324   8.546   5.919 -0.8273 -0.2964  1.2732
  454MOL0     H61255  11.204   8.663   5.854  0.3251 -1.3437 -0.0794
  454MOL0     H61256  11.424   8.782   5.855 -0.6248 -3.1296 -0.7743
  454MOL0     H61257  11.330   8.837   6.007  0.6211 -0.3212  2.5278
  454MOL0     H61258  11.467   8.704   6.144  0.8881 -6.2296  0.0327
  454MOL0     H61259  11.527   8.607   6.013  0.4662  0.2462  2.3292
  454MOL0     H61260  11.560   8.908   6.041 -2.0424 -1.2093  4.9509
  454MOL0     H61261  11.668   8.817   5.950  2.7457  1.1167  1.4889
  454MOL0     H61262  11.750   8.721   6.170  0.8845  1.3997 -0.8572
  454MOL0     H61263  11.637   8.851   6.250 -0.8865  1.0761  0.5498
  454MOL0     H61264  11.874   8.938   6.250 -1.0887  1.9524  0.5307
  454MOL0     H61265  11.877   8.924   6.077 -0.5668 -1.4265  0.2188
  454MOL0     H61266  11.722   9.119   6.228  1.1210 -1.4177  0.9717
  454MOL0     H61267  11.682   9.085   6.058  0.6116  0.6169 -1.7310
  454MOL0     H61268  11.886   9.262   6.150  0.6156 -0.9054  2.1633
  454MOL0     H61269  11.973   9.117   6.160 -0.3656  2.8534  1.8124
  454MOL0     H61270  11.148   8.442   5.893 -3.2978  0.5579 -1.7543
  454MOL0     H61271  10.971   8.262   5.912 -2.4254  0.4575  0.2986
  454MOL0     H61272  10.745   7.979   6.154 -0.6271 -2.3480  1.5301
  454MOL0     H61273  10.563   7.820   6.204 -6.2688 -1.4282 -2.8163
  454MOL0     H61274  11.300   7.950   5.246  1.9797 -0.2888  0.2383
  454MOL0     H61275  11.453   7.823   5.086  0.0034 -1.0835 -3.0530
  454MOL0     H61276  11.730   7.588   5.025  0.2706  0.4177  0.0141
  454MOL0     H61277  11.938   7.600   4.920  2.8257 -1.3674 -2.7909
  454MOL0     H61278  12.158   7.619   4.592 -1.7934  0.9939 -2.1413
  454MOL0     H61279  12.115   7.643   4.771  0.1352  1.1498  0.6375
  454MOL0     H61280  11.971   7.840   4.681  1.2209 -1.8371  0.5404
  454MOL0     H61281  12.011   7.812   4.516  0.9823  1.2933 -0.7771
  454MOL0     H61282  12.209   7.858   4.523 -0.7659  0.3404  0.0375
  454MOL0     H61283  12.245   7.851   4.693 -0.3902 -1.5036  1.1089
  454MOL0     H61284  12.108   8.067   4.543 -0.3513 -0.2182  0.2880
  454MOL0     H61285  12.068   8.051   4.712 -3.3385 -1.5856 -3.4184
  454MOL0     H61286  12.484   8.190   4.696  0.8188 -3.8439  0.4920
  454MOL0     H61287  11.724   7.571   4.540  0.1708  0.9692  0.2293
  454MOL0     H61288  11.425   7.510   4.673 -1.5288  0.3279 -0.1258
  454MOL0     H61289  11.453   7.686   4.636 -0.6912 -1.0187  1.5470
  454MOL0     H61290  11.507   7.544   4.528 -0.8527 -0.2157 -1.4800
  455MOL0     O61291   8.784   7.479   1.515 -0.0818 -0.2903 -0.2318
  455MOL0     C61292   8.890   7.501   1.455  0.2599 -0.2181 -0.6010
  455MOL0     O61293   8.974   7.405   1.396  0.9419 -0.2462  0.0526
  455MOL0     C61294   8.920   7.283   1.344 -0.7441 -0.0587  0.1012
  455MOL0     C61295   8.791   7.240   1.359 -0.7067 -0.6421  0.0535
  455MOL0     C61296   8.754   7.116   1.306  0.8784 -0.2156 -0.7217
  455MOL0     C61297   8.841   7.030   1.229  0.3805  0.4917  0.3986
  455MOL0     O61298   8.801   6.906   1.186  0.8679  0.6004 -0.3962
  455MOL0     C61299   8.900   6.813   1.137 -0.1387  0.1805 -0.4601
  455MOL0     C61300   9.002   6.761   1.239  0.8226 -0.0934  0.6147
  455MOL0     C61301   8.939   6.717   1.376  0.3814 -0.2151  0.5429
  455MOL0     C61302   9.040   6.683   1.487  0.2303  0.1766  0.8363
  455MOL0     C61303   9.062   6.812   1.577 -0.7515 -0.0713  0.4820
  455MOL0     C61304   9.206   6.837   1.634 -1.4452  0.5845  0.5283
  455MOL0     C61305   9.205   6.968   1.725  0.3375  0.3635  0.8868
  455MOL0     C61306   9.331   7.025   1.778  0.3932 -0.6594  0.0717
  455MOL0     N61307   9.389   7.137   1.706  0.3567 -0.6327  0.1237
  455MOL0     C61308   9.337   7.262   1.688 -0.3840 -0.4746  0.5641
  455MOL0     C61309   9.384   7.320   1.574 -0.0320  0.7701 -0.3207
  455MOL0     C61310   9.355   7.464   1.526 -0.4647  0.4107  0.0421
  455MOL0     C61311   9.479   7.544   1.516 -0.5949  0.1644  0.2757
  455MOL0     C61312   9.456   7.700   1.482 -0.2002  1.1493  0.7357
  455MOL0     C61313   9.388   7.763   1.593  0.4637 -0.8473  1.0165
  455MOL0     O61314   9.407   7.905   1.614 -0.1993  0.2757  0.4136
  455MOL0     C61315   9.538   7.940   1.648 -0.3373 -0.3818 -1.2020
  455MOL0     C61316   9.626   7.854   1.709 -0.3611 -0.9589  0.4446
  455MOL0     C61317   9.746   7.890   1.763 -0.1220 -0.7565 -0.6356
  455MOL0     C61318   9.784   8.031   1.772 -0.4524  0.3328 -0.1211
  455MOL0     C61319   9.916   8.074   1.832  0.8352 -0.9335  0.2128
  455MOL0     O61320   9.977   8.180   1.775  0.3991 -0.2443  0.0151
  455MOL0     C61321  10.105   8.225   1.802 -0.9556  0.9345 -0.2780
  455MOL0     C61322  10.127   8.365   1.799 -0.4707  0.0694  0.3690
  455MOL0     C61323  10.259   8.406   1.829 -0.2678  0.1315 -0.9348
  455MOL0     C61324  10.371   8.321   1.858 -0.2454 -0.2374 -0.8040
  455MOL0     O61325  10.494   8.379   1.876 -0.5246 -0.3833  0.3134
  455MOL0     C61326  10.595   8.314   1.952  0.7322  0.0684 -0.1957
  455MOL0     C61327  10.732   8.380   1.922  0.4561  0.1419  0.1408
  455MOL0     C61328  10.855   8.308   1.986  0.2675 -0.6216  0.5411
  455MOL0     C61329  10.971   8.380   1.921  0.4588  1.5852  0.4186
  455MOL0     C61330  11.101   8.320   1.977 -0.9124 -2.2526  0.3270
  455MOL0     C61331  11.230   8.389   1.915  0.4642 -0.5868 -0.6875
  455MOL0     C61332  11.370   8.327   1.939  0.5785  1.0334  0.0966
  455MOL0     C61333  11.479   8.415   1.871 -0.1680  0.2270  0.2075
  455MOL0    Cl61334  11.475   8.387   1.691  0.4803  0.1421  0.1038
  455MOL0     C61335  10.338   8.185   1.873 -0.9345 -0.3828 -0.2058
  455MOL0     C61336  10.213   8.129   1.841 -0.6219 -0.4291 -0.3038
  455MOL0     O61337   9.970   8.001   1.917  1.2951  0.6929  0.1961
  455MOL0     C61338   9.696   8.126   1.717 -0.5204  0.4803  0.7119
  455MOL0     C61339   9.576   8.075   1.659  0.7143  0.2436  0.0342
  455MOL0     N61340   9.458   7.218   1.518  0.0047 -1.4874  0.2265
  455MOL0     N61341   9.466   7.116   1.603  0.0798  0.2855  0.5880
  455MOL0     C61342   8.967   7.090   1.213  0.2710  0.9825  0.8239
  455MOL0     C61343   9.011   7.213   1.267 -0.0951  0.1227 -0.1970
  455MOL0     C61344   8.936   7.640   1.448  0.0104 -0.5206  0.3922
  455MOL0     C61345   9.020   7.683   1.350  0.0640 -0.3839  0.1656
  455MOL0     C61346   9.075   7.812   1.348  0.2289 -0.9942 -0.5419
  455MOL0     C61347   9.050   7.903   1.440  0.0333  0.8646 -0.1999
  455MOL0     O61348   9.089   8.030   1.436  0.9381  0.3172 -0.6661
  455MOL0     C61349   9.209   8.067   1.354  0.8360  0.1008  0.7207
  455MOL0     C61350   9.273   8.200   1.409  0.8669  0.3344  0.1287
  455MOL0     C61351   9.365   8.255   1.314  0.9435 -0.2119 -0.1521
  455MOL0     C61352   9.505   8.177   1.301  0.4583 -0.2462 -0.0801
  455MOL0     C61353   9.503   8.078   1.187  0.2013 -0.1309  0.3767
  455MOL0     C61354   9.514   8.011   1.082  0.1404  0.8077  0.1320
  455MOL0     C61355   8.970   7.861   1.546  0.4706  0.2053 -1.2245
  455MOL0     C61356   8.912   7.733   1.558  0.1617 -0.1372  0.1472
  455MOL0     C61357   8.821   7.703   1.677 -0.6128 -0.6021 -0.5747
  455MOL0     H61358   8.709   7.303   1.395 -0.5611  0.0301 -0.7688
  455MOL0     H61359   8.651   7.093   1.334  0.5369  1.8511 -0.1147
  455MOL0     H61360   8.845   6.733   1.088 -0.4510  0.1855 -0.1237
  455MOL0     H61361   8.957   6.849   1.051  4.0670 -0.8713  1.5941
  455MOL0     H61362   9.075   6.837   1.271  0.8286  0.5348 -0.8390
  455MOL0     H61363   9.054   6.684   1.182  1.3266  2.0171 -1.9590
  455MOL0     H61364   8.888   6.626   1.346 -3.8569  1.9860  0.3101
  455MOL0     H61365   8.873   6.797   1.413  2.2636  2.7840 -2.0098
  455MOL0     H61366   8.992   6.611   1.553  1.1937  1.1968  2.7577
  455MOL0     H61367   9.127   6.635   1.442  0.2474 -0.4559  1.5175
  455MOL0     H61368   9.036   6.906   1.527  2.9527  0.6179 -0.4029
  455MOL0     H61369   8.991   6.800   1.660  0.9280 -1.4951  1.7822
  455MOL0     H61370   9.250   6.759   1.697  0.4163  0.7309 -0.5169
  455MOL0     H61371   9.277   6.856   1.553 -1.5527  2.0993  0.7725
  455MOL0     H61372   9.143   6.936   1.809  0.0119 -1.4250  0.0315
  455MOL0     H61373   9.147   7.052   1.685  1.4581  0.2863 -1.0685
  455MOL0     H61374   9.307   7.052   1.881  0.9042  0.6086 -0.1202
  455MOL0     H61375   9.414   6.954   1.785  1.6832  0.5874 -1.5372
  455MOL0     H61376   9.257   7.311   1.743 -2.5815 -2.9804 -0.1380
  455MOL0     H61377   9.318   7.459   1.423  0.6454  1.4379 -0.4237
  455MOL0     H61378   9.283   7.516   1.589  0.9146  1.6620  0.6455
  455MOL0     H61379   9.535   7.546   1.611  0.5083  1.9097 -0.3528
  455MOL0     H61380   9.544   7.505   1.437  1.8375  1.5658  1.4656
  455MOL0     H61381   9.385   7.719   1.401  0.5865  3.1666  0.4639
  455MOL0     H61382   9.553   7.747   1.464 -0.6265  2.0521  0.7646
  455MOL0     H61383   9.403   7.711   1.688  0.2421  0.6111  1.8858
  455MOL0     H61384   9.284   7.736   1.575 -0.0580  0.7572  1.4267
  455MOL0     H61385   9.610   7.750   1.682 -1.4087 -1.4289  2.6486
  455MOL0     H61386   9.810   7.814   1.806 -1.1688 -0.8734  0.7806
  455MOL0     H61387  10.041   8.425   1.770 -3.0125 -2.2804  2.4888
  455MOL0     H61388  10.283   8.511   1.815 -0.0344  0.2587  0.2521
  455MOL0     H61389  10.569   8.332   2.057 -0.4324 -1.1604 -0.2554
  455MOL0     H61390  10.592   8.209   1.921  0.4184  0.3810 -1.2489
  455MOL0     H61391  10.749   8.377   1.814 -3.8679  2.2832 -0.8514
  455MOL0     H61392  10.725   8.485   1.950  0.9254 -0.7180  4.2381
  455MOL0     H61393  10.853   8.319   2.095 -2.4310  1.5726  0.3979
  455MOL0     H61394  10.858   8.202   1.961  0.8147 -0.7948  1.3007
  455MOL0     H61395  10.968   8.487   1.945  1.1876  1.4736  1.0593
  455MOL0     H61396  10.968   8.358   1.814 -3.7412 -3.4418  1.1713
  455MOL0     H61397  11.106   8.215   1.945  1.1415 -3.0196  2.8422
  455MOL0     H61398  11.117   8.337   2.084  0.4970  0.6289 -0.2515
  455MOL0     H61399  11.216   8.414   1.810  0.5554 -0.9014 -0.7773
  455MOL0     H61400  11.235   8.484   1.969  1.1681 -1.5816  1.0766
  455MOL0     H61401  11.374   8.234   1.882  1.5184  2.9066 -3.1698
  455MOL0     H61402  11.400   8.322   2.044  0.5324  2.3079  0.1897
  455MOL0     H61403  11.473   8.521   1.900  0.0852 -0.0487  1.3234
  455MOL0     H61404  11.575   8.394   1.918 -0.0288  0.7204  0.1554
  455MOL0     H61405  10.421   8.121   1.903 -0.2069  0.9498  0.7428
  455MOL0     H61406  10.194   8.023   1.852 -0.5950 -0.1501  3.8459
  455MOL0     H61407   9.717   8.232   1.712 -1.7061  0.7358  0.7958
  455MOL0     H61408   9.507   8.147   1.616  1.6283  1.2752  0.2268
  455MOL0     H61409   9.050   7.039   1.163  1.4125  4.4496 -1.2228
  455MOL0     H61410   9.112   7.244   1.241 -0.6589  2.0137 -0.2450
  455MOL0     H61411   9.051   7.619   1.268  0.7099  2.2272 -1.7496
  455MOL0     H61412   9.141   7.839   1.266  2.9938 -1.5859  1.3638
  455MOL0     H61413   9.179   8.074   1.249  3.2259 -1.4951 -0.1697
  455MOL0     H61414   9.270   7.976   1.351 -0.8809 -1.0693 -0.6507
  455MOL0     H61415   9.328   8.167   1.497  2.2452 -1.2062 -1.2482
  455MOL0     H61416   9.197   8.272   1.440  0.1615  0.0045 -0.7835
  455MOL0     H61417   9.381   8.359   1.345  1.4797 -0.6036  0.9385
  455MOL0     H61418   9.310   8.254   1.219  0.2828  0.2499  0.2162
  455MOL0     H61419   9.586   8.247   1.281 -1.8338  1.2932 -6.4882
  455MOL0     H61420   9.518   8.108   1.384 -4.7048 -1.0689  0.4258
  455MOL0     H61421   9.530   7.939   1.005 -2.8290 -2.3027  2.1609
  455MOL0     H61422   8.964   7.931   1.629 -3.0701 -2.4361  1.0246
  455MOL0     H61423   8.717   7.687   1.649 -0.7883  1.7353 -1.5312
  455MOL0     H61424   8.869   7.618   1.725  5.7132  3.1859  1.0515
  455MOL0     H61425   8.818   7.781   1.753  1.3454 -0.5503 -0.4926
  456MOL0     O61426  10.907   5.552  10.348  0.1247 -0.1101 -0.1843
  456MOL0     C61427  11.023   5.514  10.360 -0.2821 -0.5101  0.3388
  456MOL0     O61428  11.061   5.391  10.375 -0.5420 -0.1338 -0.1995
  456MOL0     C61429  10.962   5.294  10.379  0.4529  0.8361 -0.4598
  456MOL0     C61430  10.947   5.202  10.281 -0.3519 -1.0087 -0.2392
  456MOL0     C61431  10.879   5.084  10.299  0.4933  0.1505 -0.4753
  456MOL0     C61432  10.795   5.063  10.417 -0.0250 -0.3035  0.4385
  456MOL0     O61433  10.705   4.966  10.444  0.5339  0.3932 -0.3951
  456MOL0     C61434  10.650   4.894  10.332  0.3464  0.0595  0.7888
  456MOL0     C61435  10.726   4.761  10.314 -0.2705 -0.4520 -0.2800
  456MOL0     C61436  10.686   4.645  10.404  0.1941 -0.1169 -0.2916
  456MOL0     C61437  10.653   4.667  10.557  0.1651 -0.4349 -0.1561
  456MOL0     C61438  10.637   4.530  10.628  0.1376  1.5033  0.4704
  456MOL0     C61439  10.598   4.548  10.774  0.1821  0.1661 -0.3354
  456MOL0     C61440  10.571   4.414  10.834  0.1450  1.2111  0.5395
  456MOL0     C61441  10.549   4.429  10.977 -0.6447 -0.5912  0.3245
  456MOL0     N61442  10.553   4.305  11.055  0.6168 -0.4361 -0.4130
  456MOL0     C61443  10.667   4.227  11.074  0.2917  0.3418  1.1947
  456MOL0     C61444  10.624   4.104  11.112  0.3885  0.7467  0.2326
  456MOL0     C61445  10.701   3.974  11.114  0.5685  0.3367  0.3686
  456MOL0     C61446  10.797   3.974  11.231  0.1742 -0.0317 -0.5676
  456MOL0     C61447  10.861   3.830  11.242 -0.5700 -0.0143  0.3362
  456MOL0     C61448  10.917   3.778  11.376  0.4559  1.4988 -1.1084
  456MOL0     O61449  10.824   3.788  11.479  0.7352 -0.3530 -0.6345
  456MOL0     C61450  10.849   3.738  11.607  0.3226 -0.0335  0.5314
  456MOL0     C61451  10.970   3.685  11.648 -1.0294 -0.6169  0.0423
  456MOL0     C61452  10.987   3.642  11.784 -0.2136  0.2075 -0.0068
  456MOL0     C61453  10.888   3.656  11.881 -0.5485 -0.1486  0.1070
  456MOL0     C61454  10.909   3.610  12.025  0.3207 -0.6344 -0.2367
  456MOL0     O61455  11.016   3.533  12.056 -0.3670 -0.8481 -1.1407
  456MOL0     C61456  11.046   3.515  12.193  0.2780 -0.5051  0.6329
  456MOL0     C61457  11.159   3.572  12.250 -0.0093 -0.4173 -0.6075
  456MOL0     C61458  11.189   3.555  12.386  0.3732 -1.1718 -0.2981
  456MOL0     C61459  11.116   3.473  12.464 -0.6819  0.4087 -0.6527
  456MOL0     O61460  11.131   3.443  12.596  0.1004 -0.2333 -0.0241
  456MOL0     C61461  11.237   3.493  12.676  0.1279  0.7780 -0.4711
  456MOL0     C61462  11.231   3.433  12.815 -0.0286 -0.3410  1.0272
  456MOL0     C61463  11.353   3.476  12.898  0.5402 -0.1261 -0.1419
  456MOL0     C61464  11.330   3.419  13.037  0.5982 -0.4311 -0.0495
  456MOL0     C61465  11.420   3.480  13.140 -1.6414  0.3539 -0.7909
  456MOL0     C61466  11.540   3.384  13.174 -0.2778  1.4688  0.3414
  456MOL0     C61467  11.612   3.416  13.302 -0.5837 -0.8149  0.2118
  456MOL0     C61468  11.746   3.335  13.316  0.0971 -1.0835 -0.8353
  456MOL0    Cl61469  11.736   3.156  13.317 -0.4486 -0.0032  0.3176
  456MOL0     C61470  11.007   3.408  12.407 -0.0931  0.7256 -0.2677
  456MOL0     C61471  10.971   3.421  12.266 -1.0792 -0.6110 -0.4694
  456MOL0     O61472  10.828   3.650  12.107  0.4927  0.3407 -0.4017
  456MOL0     C61473  10.762   3.710  11.833 -0.1011  0.0961  0.4400
  456MOL0     C61474  10.741   3.743  11.703  0.8419  0.0178  0.6504
  456MOL0     N61475  10.486   4.114  11.115 -0.4275  0.0080  0.0019
  456MOL0     N61476  10.445   4.232  11.079 -0.5263  0.3317  0.0504
  456MOL0     C61477  10.802   5.173  10.523  0.0743 -0.0960 -0.2829
  456MOL0     C61478  10.890   5.281  10.493  0.4221 -0.2375  0.0799
  456MOL0     C61479  11.144   5.606  10.325  0.2545 -0.1120  0.2815
  456MOL0     C61480  11.274   5.549  10.311  0.0488  0.7254 -0.7070
  456MOL0     C61481  11.387   5.620  10.283 -0.2448  0.7337  0.3811
  456MOL0     C61482  11.372   5.760  10.281  0.1140  0.0841 -0.3231
  456MOL0     O61483  11.472   5.845  10.253 -0.7864  0.6693 -0.0161
  456MOL0     C61484  11.605   5.797  10.209 -0.6541 -0.4850 -0.2253
  456MOL0     C61485  11.719   5.903  10.181 -1.2071 -0.0101 -0.4553
  456MOL0     C61486  11.789   5.948  10.310 -0.2046  0.3622 -0.6507
  456MOL0     C61487  11.916   6.026  10.273 -0.8980  0.2074 -0.4327
  456MOL0     C61488  11.883   6.159  10.218 -0.4907  0.3752  0.6262
  456MOL0     C61489  11.869   6.254  10.157  0.3829 -0.9172  0.1739
  456MOL0     C61490  11.249   5.810  10.292  0.0544 -0.4938  0.6404
  456MOL0     C61491  11.133   5.742  10.301  0.0659  0.3007  0.7498
  456MOL0     C61492  11.007   5.823  10.294  0.1375 -0.2164 -0.3819
  456MOL0     H61493  10.994   5.218  10.185 -1.2981 -2.7087 -1.0358
  456MOL0     H61494  10.896   5.003  10.229  0.9271 -0.0165 -0.1786
  456MOL0     H61495  10.543   4.879  10.347  0.1545  0.4149 -0.1810
  456MOL0     H61496  10.657   4.951  10.240 -0.2748  0.2618  0.8639
  456MOL0     H61497  10.830   4.781  10.344 -0.8385  0.6061  1.0531
  456MOL0     H61498  10.729   4.726  10.210 -0.7732  0.9684 -0.7919
  456MOL0     H61499  10.760   4.565  10.396 -0.7733 -0.9539 -1.1237
  456MOL0     H61500  10.596   4.598  10.364 -0.8435 -0.9282  2.6930
  456MOL0     H61501  10.716   4.728  10.622 -0.5593 -1.0970  1.2205
  456MOL0     H61502  10.558   4.721  10.554  1.7492  2.9645  3.3081
  456MOL0     H61503  10.574   4.458  10.577  3.0731  0.1805 -1.5957
  456MOL0     H61504  10.731   4.475  10.616 -1.2052 -0.4681 -1.9745
  456MOL0     H61505  10.690   4.591  10.816 -1.6587  1.9285  2.2426
  456MOL0     H61506  10.511   4.613  10.784  0.6871  0.8380 -0.2309
  456MOL0     H61507  10.662   4.356  10.820 -0.6844 -0.1362  0.5460
  456MOL0     H61508  10.488   4.366  10.781  3.1947 -1.5932 -2.0861
  456MOL0     H61509  10.614   4.512  11.007 -3.0510  0.9199  1.7037
  456MOL0     H61510  10.447   4.468  10.981  0.5049  2.8408  0.0711
  456MOL0     H61511  10.762   4.273  11.050  1.5661 -1.4361  2.5822
  456MOL0     H61512  10.636   3.886  11.117 -1.7353  1.9744  0.8919
  456MOL0     H61513  10.744   3.968  11.013 -2.0321  2.1766 -0.9709
  456MOL0     H61514  10.874   4.050  11.214 -0.1641  0.2719 -0.7663
  456MOL0     H61515  10.745   3.991  11.326  1.5835 -0.6227  0.3531
  456MOL0     H61516  10.939   3.819  11.166 -2.0097 -3.1993 -0.8884
  456MOL0     H61517  10.796   3.756  11.192  0.8604 -2.4981  1.9692
  456MOL0     H61518  11.011   3.827  11.402  0.3705  1.8925 -1.5402
  456MOL0     H61519  10.931   3.670  11.365  0.9564  1.6288 -1.8598
  456MOL0     H61520  11.060   3.656  11.595 -0.5221  1.3996 -0.2726
  456MOL0     H61521  11.082   3.598  11.813 -0.1416  0.4214  0.0828
  456MOL0     H61522  11.206   3.661  12.210 -0.3672  0.1296  0.1634
  456MOL0     H61523  11.259   3.619  12.438 -1.0719  3.5888 -3.4794
  456MOL0     H61524  11.328   3.468  12.621 -1.2838 -1.6767 -1.8358
  456MOL0     H61525  11.241   3.602  12.685  2.6058  0.6147  1.7787
  456MOL0     H61526  11.142   3.473  12.864  0.4929  2.6480 -0.2697
  456MOL0     H61527  11.231   3.324  12.802  1.4158 -0.0005 -3.4851
  456MOL0     H61528  11.452   3.449  12.860  1.8443  1.5038  1.8812
  456MOL0     H61529  11.358   3.585  12.901 -1.3551 -0.0217  0.2389
  456MOL0     H61530  11.331   3.309  13.037 -2.1862 -0.5190  0.6257
  456MOL0     H61531  11.228   3.448  13.063  0.3016 -0.9877 -0.5477
  456MOL0     H61532  11.366   3.514  13.229 -0.1331  2.8524 -0.7433
  456MOL0     H61533  11.461   3.576  13.107 -3.0507  1.7103  1.1297
  456MOL0     H61534  11.503   3.281  13.170 -4.3160  2.6685  1.8661
  456MOL0     H61535  11.622   3.388  13.101 -1.3085  0.7041 -0.9024
  456MOL0     H61536  11.547   3.389  13.386 -1.9527 -2.7085 -1.3477
  456MOL0     H61537  11.633   3.523  13.302  2.1091 -1.2212 -2.0768
  456MOL0     H61538  11.810   3.362  13.232 -1.9259  0.4915 -1.9722
  456MOL0     H61539  11.799   3.370  13.405  2.0495 -1.8924 -1.6329
  456MOL0     H61540  10.945   3.344  12.470 -1.5967  0.6049 -1.7858
  456MOL0     H61541  10.883   3.372  12.227  0.6117 -4.1626 -0.2319
  456MOL0     H61542  10.675   3.707  11.897 -3.7436 -1.1858 -4.0095
  456MOL0     H61543  10.639   3.773  11.681 -0.8041 -2.9268  3.4578
  456MOL0     H61544  10.736   5.164  10.608  1.8272 -2.3665  0.9295
  456MOL0     H61545  10.899   5.366  10.559 -1.5078  3.0617 -3.5007
  456MOL0     H61546  11.303   5.450  10.347 -0.0910 -0.4685 -3.6192
  456MOL0     H61547  11.489   5.582  10.287 -0.1243  1.1233  3.3441
  456MOL0     H61548  11.585   5.748  10.114  0.2225 -0.2315 -0.5462
  456MOL0     H61549  11.644   5.724  10.280  0.7917 -1.7256 -2.2027
  456MOL0     H61550  11.691   5.980  10.108 -2.1784  2.6218  2.4832
  456MOL0     H61551  11.806   5.853  10.137  0.1106  2.2268 -0.5025
  456MOL0     H61552  11.816   5.850  10.350  0.5848  1.1933  0.9518
  456MOL0     H61553  11.716   6.000  10.372  1.1797 -2.4207  3.7830
  456MOL0     H61554  11.976   6.037  10.364 -1.9715 -0.9023  0.4426
  456MOL0     H61555  11.982   5.972  10.204  0.5070  1.1495  0.1213
  456MOL0     H61556  11.857   6.348  10.107 -3.5169 -0.3919  1.7636
  456MOL0     H61557  11.234   5.917  10.282  0.9256 -0.4552 -0.2887
  456MOL0     H61558  11.005   5.880  10.388 -0.7612  0.8790 -1.0470
  456MOL0     H61559  11.015   5.891  10.209 -1.2626 -0.2413 -0.5424
  456MOL0     H61560  10.915   5.770  10.269  0.8286 -0.8813 -1.6143
  457MOL0     O61561   9.318   8.291   2.730 -0.5819 -0.0139 -0.7115
  457MOL0     C61562   9.370   8.272   2.616  0.2544 -1.5070 -0.5078
  457MOL0     O61563   9.356   8.154   2.540 -1.0299 -0.4824  0.2698
  457MOL0     C61564   9.339   8.037   2.611 -0.0666 -0.5304  1.0623
  457MOL0     C61565   9.275   7.930   2.543  0.8061 -0.5073  0.1102
  457MOL0     C61566   9.262   7.810   2.612 -0.8014 -0.2779  0.1858
  457MOL0     C61567   9.302   7.789   2.745 -0.3087 -0.3935 -0.5275
  457MOL0     O61568   9.277   7.662   2.786 -0.1139 -0.4191 -0.5273
  457MOL0     C61569   9.301   7.618   2.917 -0.0646 -0.3881  0.9871
  457MOL0     C61570   9.269   7.474   2.930  0.9429 -0.4809 -0.1378
  457MOL0     C61571   9.118   7.456   2.947 -0.4429  0.5436  0.0984
  457MOL0     C61572   9.017   7.540   2.872  0.1424  0.7292 -0.7524
  457MOL0     C61573   8.877   7.481   2.868 -0.9175  0.7357 -0.2453
  457MOL0     C61574   8.787   7.558   2.772  0.8852 -0.4532  0.4495
  457MOL0     C61575   8.647   7.490   2.779  0.9382 -0.4266  0.0532
  457MOL0     C61576   8.543   7.563   2.691 -0.8614  0.0980  0.4378
  457MOL0     N61577   8.559   7.541   2.547  0.5023 -0.6929 -0.6040
  457MOL0     C61578   8.639   7.612   2.470  0.3422 -0.0480  0.0453
  457MOL0     C61579   8.641   7.541   2.351  0.1391 -0.4426 -0.4788
  457MOL0     C61580   8.710   7.580   2.222 -0.2565  0.0609  0.2123
  457MOL0     C61581   8.783   7.718   2.225  0.1365 -0.8168  0.3017
  457MOL0     C61582   8.850   7.743   2.091 -0.3640 -0.0364 -0.4651
  457MOL0     C61583   8.979   7.831   2.108  0.3907  0.8266  0.8144
  457MOL0     O61584   8.936   7.964   2.153  0.0905 -0.0991  0.3892
  457MOL0     C61585   8.844   8.027   2.076  0.3550 -0.3187 -0.7743
  457MOL0     C61586   8.744   8.104   2.144 -0.4954  0.4508  0.8027
  457MOL0     C61587   8.651   8.173   2.074  0.4194  1.0491  0.0742
  457MOL0     C61588   8.647   8.160   1.935 -0.3624  0.3074  0.3256
  457MOL0     C61589   8.539   8.219   1.856  0.1481  0.9471  1.1906
  457MOL0     O61590   8.512   8.175   1.729 -0.1837 -0.9922 -0.1579
  457MOL0     C61591   8.400   8.224   1.675  0.2632 -0.0301  0.8884
  457MOL0     C61592   8.371   8.362   1.644 -0.4930 -0.1949 -0.4558
  457MOL0     C61593   8.254   8.391   1.568 -0.1616  0.3768 -0.5330
  457MOL0     C61594   8.160   8.295   1.540  0.0372 -0.4332  0.6688
  457MOL0     O61595   8.045   8.325   1.475 -0.2859 -1.0365  0.1245
  457MOL0     C61596   7.959   8.421   1.535  0.5967 -0.2632  0.3907
  457MOL0     C61597   7.918   8.368   1.670 -0.5211 -0.0645  0.5959
  457MOL0     C61598   7.859   8.229   1.666 -0.5939  0.2272  0.0171
  457MOL0     C61599   7.812   8.180   1.808  0.9532  0.1970  0.5244
  457MOL0     C61600   7.681   8.249   1.861 -0.1931  0.1496 -0.0689
  457MOL0     C61601   7.549   8.208   1.791 -0.4936 -0.1944 -0.0782
  457MOL0     C61602   7.425   8.243   1.859  0.1581  0.0856  0.4769
  457MOL0     C61603   7.412   8.395   1.908  0.0047 -0.3454  0.1193
  457MOL0    Cl61604   7.369   8.508   1.775 -0.3197  0.2859  0.3144
  457MOL0     C61605   8.185   8.160   1.563 -0.6042  0.6025  0.2916
  457MOL0     C61606   8.309   8.122   1.623  0.4221 -0.0759  0.2323
  457MOL0     O61607   8.476   8.305   1.918 -0.0335 -0.7292 -0.3041
  457MOL0     C61608   8.743   8.085   1.863  0.7056  0.0405 -0.1638
  457MOL0     C61609   8.853   8.027   1.936  0.1343 -0.5328 -0.2035
  457MOL0     N61610   8.546   7.437   2.357 -0.5992  0.0236  0.1211
  457MOL0     N61611   8.501   7.437   2.476 -0.6104  0.1492  0.6502
  457MOL0     C61612   9.379   7.896   2.808 -0.1234 -0.4466 -1.0276
  457MOL0     C61613   9.402   8.018   2.736 -0.3114  0.5173  0.6550
  457MOL0     C61614   9.402   8.377   2.520 -0.1946 -0.1338  0.7687
  457MOL0     C61615   9.502   8.359   2.421 -0.7601  0.8510  0.2485
  457MOL0     C61616   9.543   8.464   2.338 -0.0120 -0.2012  0.4930
  457MOL0     C61617   9.495   8.591   2.353  0.0272 -0.2206  1.6599
  457MOL0     O61618   9.522   8.686   2.253  0.5819 -0.5789 -0.2124
  457MOL0     C61619   9.559   8.815   2.294 -0.2744  0.5494 -0.1811
  457MOL0     C61620   9.710   8.822   2.274  0.5049 -0.0844  0.5277
  457MOL0     C61621   9.780   8.960   2.294 -0.4788  0.1472 -0.2789
  457MOL0     C61622   9.918   8.969   2.232  0.5630 -0.6154 -0.7382
  457MOL0     C61623   9.978   9.096   2.276 -0.1651 -0.4139  0.6433
  457MOL0     C61624  10.032   9.208   2.280  0.8998  0.0011  0.5704
  457MOL0     C61625   9.387   8.605   2.449  0.3001 -0.2800 -0.8641
  457MOL0     C61626   9.341   8.509   2.534 -0.1757 -0.2879 -0.4619
  457MOL0     C61627   9.243   8.551   2.634 -0.1487  0.0593  0.0851
  457MOL0     H61628   9.252   7.938   2.438 -1.6873  2.7322  0.7649
  457MOL0     H61629   9.224   7.727   2.554 -0.6017  1.3961 -2.5377
  457MOL0     H61630   9.408   7.625   2.940  0.2548 -0.6633 -0.3769
  457MOL0     H61631   9.248   7.669   2.999  2.2027 -0.5361  2.6357
  457MOL0     H61632   9.313   7.431   3.020  1.7615  0.2390 -0.1750
  457MOL0     H61633   9.302   7.422   2.839 -0.6274 -3.6886  0.9743
  457MOL0     H61634   9.100   7.471   3.054 -2.7033  1.5788 -0.3545
  457MOL0     H61635   9.099   7.349   2.933  3.1424 -0.1499 -0.2168
  457MOL0     H61636   9.005   7.635   2.926 -0.0531 -0.1312  0.7727
  457MOL0     H61637   9.039   7.560   2.767 -0.7811  0.6020 -0.9817
  457MOL0     H61638   8.897   7.375   2.847  1.9148  1.3292 -0.8815
  457MOL0     H61639   8.833   7.489   2.968 -2.1326  0.0278 -0.6952
  457MOL0     H61640   8.775   7.662   2.805  1.0755  0.4735 -2.2113
  457MOL0     H61641   8.829   7.571   2.672 -1.5136  3.5930 -0.2628
  457MOL0     H61642   8.608   7.468   2.879  1.7356  1.0574  0.7180
  457MOL0     H61643   8.658   7.394   2.727  1.7638  0.4689 -1.4590
  457MOL0     H61644   8.451   7.517   2.728  0.6913 -3.9879 -0.2461
  457MOL0     H61645   8.535   7.670   2.712 -0.8205  0.2012 -0.0698
  457MOL0     H61646   8.702   7.697   2.492  0.0864  0.6442 -1.8095
  457MOL0     H61647   8.771   7.495   2.189  0.5011  0.7496 -0.1756
  457MOL0     H61648   8.635   7.595   2.144 -1.3764  1.2785  1.4824
  457MOL0     H61649   8.703   7.791   2.242 -2.3244 -3.0378 -0.9516
  457MOL0     H61650   8.850   7.720   2.311  1.1045  2.2874 -0.4212
  457MOL0     H61651   8.777   7.777   2.017  0.0999 -2.1580 -2.0066
  457MOL0     H61652   8.886   7.644   2.060 -0.5874 -0.6310  1.0909
  457MOL0     H61653   9.049   7.837   2.025  1.1753  0.9097  1.4718
  457MOL0     H61654   9.039   7.793   2.191 -1.0452 -1.0256  1.0893
  457MOL0     H61655   8.745   8.109   2.252  0.7169  2.6525  0.7432
  457MOL0     H61656   8.569   8.221   2.127  0.3537  0.1822  0.7772
  457MOL0     H61657   8.441   8.444   1.660  0.0263 -0.4262 -1.4167
  457MOL0     H61658   8.245   8.491   1.527 -0.0777 -1.0589 -4.4873
  457MOL0     H61659   7.997   8.524   1.541 -3.1270  1.2970  0.0906
  457MOL0     H61660   7.868   8.432   1.476  0.0151  3.3264  1.6868
  457MOL0     H61661   7.997   8.382   1.745  0.6945  1.3934 -0.9010
  457MOL0     H61662   7.844   8.441   1.702  0.8758  3.3405 -3.1847
  457MOL0     H61663   7.777   8.231   1.594 -0.4296 -1.5963 -0.2587
  457MOL0     H61664   7.932   8.153   1.634 -1.1124  0.7042 -2.5612
  457MOL0     H61665   7.889   8.211   1.879  1.5447  0.8641 -0.3876
  457MOL0     H61666   7.782   8.075   1.814  3.5169 -0.6291  0.3845
  457MOL0     H61667   7.687   8.358   1.874 -1.5262 -0.0787  3.3275
  457MOL0     H61668   7.683   8.223   1.967 -0.9226  3.3036  0.8144
  457MOL0     H61669   7.551   8.263   1.697 -0.2888 -0.6996 -0.3678
  457MOL0     H61670   7.557   8.103   1.762  1.0832  0.4284 -2.1308
  457MOL0     H61671   7.401   8.176   1.942  0.8673 -3.3852 -1.9122
  457MOL0     H61672   7.342   8.229   1.789  0.2118  0.2747  0.3761
  457MOL0     H61673   7.337   8.404   1.987  0.8905  1.3359  0.7976
  457MOL0     H61674   7.504   8.430   1.953  1.1035 -2.7157 -0.1547
  457MOL0     H61675   8.128   8.075   1.526  2.3713 -1.3324 -0.1274
  457MOL0     H61676   8.344   8.020   1.637  0.3322  0.3202  5.3034
  457MOL0     H61677   8.733   8.077   1.755 -0.3705 -0.1581 -0.0588
  457MOL0     H61678   8.943   7.984   1.895  1.0107 -0.0783  1.1626
  457MOL0     H61679   9.438   7.876   2.897 -1.2701 -0.8678 -0.3378
  457MOL0     H61680   9.464   8.094   2.783  4.3518 -1.2897 -1.9382
  457MOL0     H61681   9.545   8.260   2.416 -2.3411  0.1498 -0.0004
  457MOL0     H61682   9.617   8.454   2.260 -0.4502  0.8123 -0.0790
  457MOL0     H61683   9.539   8.832   2.401  1.3863  0.0345  0.2367
  457MOL0     H61684   9.505   8.893   2.240  2.2421  3.4282  1.1887
  457MOL0     H61685   9.739   8.794   2.173 -3.0838  2.3330 -1.4014
  457MOL0     H61686   9.757   8.757   2.348  0.2205 -1.2301 -0.2738
  457MOL0     H61687   9.792   8.967   2.402 -5.5277 -2.1310  0.7598
  457MOL0     H61688   9.716   9.046   2.272  0.8602  1.5082  0.9381
  457MOL0     H61689   9.970   8.878   2.264  1.0195 -1.1855 -2.9196
  457MOL0     H61690   9.911   8.963   2.123  0.5730 -1.6344 -0.6881
  457MOL0     H61691  10.083   9.303   2.283  0.4735  0.3308 -1.3791
  457MOL0     H61692   9.347   8.705   2.439  2.1228  0.3272 -3.0006
  457MOL0     H61693   9.272   8.535   2.738 -4.5752 -0.7955  1.4036
  457MOL0     H61694   9.217   8.657   2.629  1.8439  0.7013  1.8473
  457MOL0     H61695   9.156   8.486   2.621  1.8149 -2.7772  0.0996
  458MOL0     O61696   5.341   0.283   7.855 -0.9561 -0.0865  1.1726
  458MOL0     C61697   5.428   0.351   7.804  0.4522 -0.5858  0.3073
  458MOL0     O61698   5.426   0.386   7.668  0.7717 -0.0756 -0.2521
  458MOL0     C61699   5.321   0.345   7.592  0.0863 -0.7498 -0.0478
  458MOL0     C61700   5.197   0.405   7.591  0.5610 -1.7704  0.2945
  458MOL0     C61701   5.100   0.374   7.496 -0.0743 -0.1324  0.2732
  458MOL0     C61702   5.124   0.266   7.402 -0.3165 -0.0088  0.3152
  458MOL0     O61703   5.038   0.221   7.307  0.1754 -0.7911  0.1698
  458MOL0     C61704   4.895   0.238   7.344  1.0811 -0.3490 -0.1077
  458MOL0     C61705   4.858   0.148   7.459 -0.2275 -0.4771  0.5288
  458MOL0     C61706   4.885  -0.001   7.424 -0.2203 -0.1276  0.5646
  458MOL0     C61707   4.760  -0.087   7.432  1.0345  0.9944 -0.2843
  458MOL0     C61708   4.706  -0.119   7.574  0.1798  0.7156 -0.6439
  458MOL0     C61709   4.583  -0.202   7.583 -0.1251 -0.5322  0.2029
  458MOL0     C61710   4.571  -0.242   7.732  0.5797 -0.3654  0.3526
  458MOL0     C61711   4.427  -0.290   7.749  0.9856 -0.3981 -0.0179
  458MOL0     N61712   4.385  -0.296   7.891 -0.1321  0.0468  0.5010
  458MOL0     C61713   4.361  -0.181   7.958 -0.2040 -0.3936 -0.0783
  458MOL0     C61714   4.304  -0.221   8.075  1.0643  0.4179  0.2482
  458MOL0     C61715   4.262  -0.140   8.187 -0.3784 -0.1309  0.0618
  458MOL0     C61716   4.376  -0.075   8.266  0.7402  1.4908  0.2384
  458MOL0     C61717   4.410   0.063   8.227  1.1267  0.2561 -0.3724
  458MOL0     C61718   4.521   0.117   8.305 -0.3377  0.1316  0.1314
  458MOL0     O61719   4.560   0.250   8.262  1.7463 -0.4919 -0.1858
  458MOL0     C61720   4.559   0.354   8.347 -1.0949  0.0913  0.0558
  458MOL0     C61721   4.643   0.460   8.320 -0.5242 -0.3496 -0.2299
  458MOL0     C61722   4.655   0.576   8.410  0.3907 -0.5000 -0.2262
  458MOL0     C61723   4.585   0.581   8.525  0.9117  0.0366 -0.5022
  458MOL0     C61724   4.608   0.682   8.629  0.2122 -0.2378  0.1397
  458MOL0     O61725   4.512   0.692   8.729  0.0952 -0.1776  0.3809
  458MOL0     C61726   4.509   0.777   8.836 -0.5295  1.1143  0.1739
  458MOL0     C61727   4.392   0.836   8.884  0.8155 -0.0372  0.7432
  458MOL0     C61728   4.399   0.908   9.007  0.2039  0.1913  0.4849
  458MOL0     C61729   4.507   0.896   9.102  0.6223 -0.8566  0.9153
  458MOL0     O61730   4.490   0.959   9.230 -0.3472 -0.9426  0.5755
  458MOL0     C61731   4.584   0.936   9.335 -0.3259  0.3546  1.0645
  458MOL0     C61732   4.545   1.007   9.460 -0.6515 -0.8361  0.5573
  458MOL0     C61733   4.408   0.956   9.514  0.1303  0.5002 -0.0137
  458MOL0     C61734   4.414   0.811   9.554  0.1411  0.5239  0.3014
  458MOL0     C61735   4.288   0.778   9.652 -1.2716 -0.3390 -0.5486
  458MOL0     C61736   4.278   0.621   9.669  0.2235 -0.0431 -0.3875
  458MOL0     C61737   4.153   0.592   9.765  0.5052  0.1844 -0.1310
  458MOL0     C61738   4.114   0.437   9.784  0.4898 -0.2381 -0.0514
  458MOL0    Cl61739   4.269   0.361   9.847  0.7037  0.0925  0.1350
  458MOL0     C61740   4.618   0.810   9.062 -0.4130 -0.2092  0.5780
  458MOL0     C61741   4.618   0.754   8.929  0.1449 -0.1259  0.7557
  458MOL0     O61742   4.707   0.763   8.613 -0.2564 -0.0906  0.1107
  458MOL0     C61743   4.491   0.477   8.538 -1.1632 -0.4970  0.2748
  458MOL0     C61744   4.472   0.365   8.455  0.6717  0.3617 -0.5189
  458MOL0     N61745   4.306  -0.363   8.082 -0.0433 -0.3150 -0.2308
  458MOL0     N61746   4.353  -0.403   7.969 -0.2230 -0.2351 -0.6217
  458MOL0     C61747   5.248   0.199   7.411 -0.2528  0.1286  0.5887
  458MOL0     C61748   5.347   0.234   7.509  1.3749  0.3757  0.7813
  458MOL0     C61749   5.531   0.420   7.898 -0.7531  0.9493 -0.3515
  458MOL0     C61750   5.611   0.521   7.842  0.7887  0.1391  0.0077
  458MOL0     C61751   5.695   0.596   7.934  0.5147 -0.1796  0.2875
  458MOL0     C61752   5.693   0.573   8.066 -0.4423 -0.4206 -0.1708
  458MOL0     O61753   5.759   0.650   8.158 -0.8068 -0.3752 -0.3393
  458MOL0     C61754   5.900   0.632   8.158  0.2983 -0.7130 -0.3972
  458MOL0     C61755   5.980   0.757   8.224 -0.1578  0.1822  0.8279
  458MOL0     C61756   5.939   0.888   8.146  0.5541  0.0371 -0.4207
  458MOL0     C61757   6.048   1.006   8.145  0.2706  0.5284 -0.2550
  458MOL0     C61758   6.095   1.046   8.284  0.0098 -0.5044  0.2934
  458MOL0     C61759   6.148   1.081   8.386  0.8163 -0.1428 -0.9499
  458MOL0     C61760   5.623   0.476   8.110 -0.4545  0.7663 -0.3794
  458MOL0     C61761   5.544   0.387   8.038 -0.0886 -0.2905  0.4559
  458MOL0     C61762   5.480   0.264   8.105 -0.3676  0.4556 -0.3049
  458MOL0     H61763   5.188   0.483   7.667  3.5237  0.3154 -1.2782
  458MOL0     H61764   5.009   0.434   7.495  0.0477  0.1184  1.7518
  458MOL0     H61765   4.868   0.343   7.358 -1.1946 -1.0927  1.6050
  458MOL0     H61766   4.829   0.216   7.259  0.1822 -3.0355  1.1745
  458MOL0     H61767   4.750   0.156   7.475  0.1872  0.8191  3.3439
  458MOL0     H61768   4.920   0.185   7.542  1.5133  1.3435 -1.4582
  458MOL0     H61769   4.963  -0.021   7.498  2.5005  3.5265 -0.9709
  458MOL0     H61770   4.932  -0.024   7.328  1.6310  0.4643  1.3006
  458MOL0     H61771   4.685  -0.052   7.362 -1.1597 -2.6553 -0.0112
  458MOL0     H61772   4.793  -0.185   7.397 -0.8679 -0.2132  1.1151
  458MOL0     H61773   4.786  -0.167   7.631 -0.8305  1.2304  1.2939
  458MOL0     H61774   4.687  -0.019   7.614  1.7565  0.5378  0.6587
  458MOL0     H61775   4.499  -0.137   7.556  0.0407 -1.1202 -1.9210
  458MOL0     H61776   4.587  -0.295   7.526  0.4049  0.0368 -0.7149
  458MOL0     H61777   4.603  -0.162   7.799  4.4723  2.0630 -3.8178
  458MOL0     H61778   4.628  -0.333   7.752  1.7298 -0.4788 -2.8267
  458MOL0     H61779   4.354  -0.236   7.687  1.0435 -0.4029 -0.0910
  458MOL0     H61780   4.434  -0.396   7.723 -0.3948 -0.1489 -1.6324
  458MOL0     H61781   4.375  -0.076   7.934 -0.1141  0.3382  2.8223
  458MOL0     H61782   4.199  -0.056   8.156  0.9138  0.7890 -0.1613
  458MOL0     H61783   4.204  -0.207   8.252 -1.8049  0.8978 -0.0858
  458MOL0     H61784   4.346  -0.096   8.370  0.9558 -3.9187 -0.4869
  458MOL0     H61785   4.465  -0.138   8.256 -1.2762 -1.2391 -2.6175
  458MOL0     H61786   4.324   0.126   8.251 -0.1805 -2.2613  2.1297
  458MOL0     H61787   4.422   0.067   8.118  0.0425  0.7106 -0.4897
  458MOL0     H61788   4.615   0.063   8.289 -0.9962 -1.6288  1.7809
  458MOL0     H61789   4.497   0.113   8.412  3.4570  2.0510  1.2490
  458MOL0     H61790   4.692   0.483   8.226  1.9409  0.2118  1.1156
  458MOL0     H61791   4.725   0.652   8.378  0.5283 -1.3586 -2.1049
  458MOL0     H61792   4.295   0.854   8.840 -0.4230  1.5799  3.8677
  458MOL0     H61793   4.318   0.977   9.029  1.8492  2.1122  0.8555
  458MOL0     H61794   4.592   0.827   9.344  3.1864  0.1801 -1.8715
  458MOL0     H61795   4.688   0.958   9.309  0.0925 -1.0255  1.4970
  458MOL0     H61796   4.614   0.997   9.545 -0.5488  0.5437  0.6595
  458MOL0     H61797   4.539   1.113   9.433  0.2136 -0.6655  0.9972
  458MOL0     H61798   4.377   1.012   9.603  1.5411 -1.3714  1.7593
  458MOL0     H61799   4.340   0.994   9.437  2.6151  1.9038 -1.6437
  458MOL0     H61800   4.509   0.787   9.602 -1.3918 -0.7194  2.9447
  458MOL0     H61801   4.404   0.750   9.464  0.1813 -2.7937  2.3900
  458MOL0     H61802   4.196   0.819   9.608 -0.2167  3.3740  0.3992
  458MOL0     H61803   4.298   0.828   9.748 -0.7040 -1.8786  0.2305
  458MOL0     H61804   4.250   0.590   9.568 -1.4339 -3.0176  0.8560
  458MOL0     H61805   4.371   0.572   9.699 -0.3180 -2.2029 -1.9147
  458MOL0     H61806   4.070   0.648   9.720  0.6404  0.2077 -0.3519
  458MOL0     H61807   4.188   0.643   9.855  3.4878  1.5514 -1.8880
  458MOL0     H61808   4.031   0.424   9.854 -0.3540 -0.9856 -1.1572
  458MOL0     H61809   4.078   0.390   9.692  3.0317 -0.0244 -1.2473
  458MOL0     H61810   4.709   0.781   9.114  0.7699  2.1578 -0.0190
  458MOL0     H61811   4.699   0.684   8.912  0.1580 -0.4906  2.1846
  458MOL0     H61812   4.437   0.489   8.631 -3.1866 -0.7693 -0.8055
  458MOL0     H61813   4.397   0.288   8.466  2.5773 -1.8101 -1.8722
  458MOL0     H61814   5.265   0.108   7.354  3.3305  0.0999  1.4546
  458MOL0     H61815   5.442   0.182   7.505  1.0593 -0.2622  1.3011
  458MOL0     H61816   5.629   0.530   7.736  1.9033  0.7252  0.2356
  458MOL0     H61817   5.759   0.677   7.903  1.9572 -1.0361  0.9251
  458MOL0     H61818   5.923   0.624   8.051  1.7145 -1.0380 -0.0885
  458MOL0     H61819   5.926   0.536   8.205 -0.8491 -2.7388 -3.5217
  458MOL0     H61820   6.083   0.723   8.206 -0.3786  0.6541 -1.7007
  458MOL0     H61821   5.966   0.771   8.331 -2.2330  0.8334  0.5143
  458MOL0     H61822   5.840   0.912   8.187  0.4516 -2.7879  1.2661
  458MOL0     H61823   5.910   0.865   8.043 -2.1533  0.8728  0.0638
  458MOL0     H61824   6.125   0.978   8.074 -3.0786 -5.0434 -2.3731
  458MOL0     H61825   5.998   1.093   8.101 -1.8290 -2.0082 -3.3148
  458MOL0     H61826   6.182   1.113   8.482 -0.0903 -2.2358  0.1384
  458MOL0     H61827   5.640   0.447   8.213 -4.0597 -3.3335 -0.6476
  458MOL0     H61828   5.522   0.239   8.203  0.1876 -3.2984 -1.3419
  458MOL0     H61829   5.372   0.277   8.118 -0.5893 -0.8088 -0.6777
  458MOL0     H61830   5.502   0.175   8.046  0.7086  1.4798 -1.4925
  459MOL0     O61831   9.356  10.827   3.271  0.2873 -0.4989 -0.3310
  459MOL0     C61832   9.280  10.735   3.250 -0.7194  0.5657 -0.5660
  459MOL0     O61833   9.266  10.679   3.122 -0.0964  0.0959 -0.7285
  459MOL0     C61834   9.365  10.679   3.034 -1.2405  0.0775 -0.4788
  459MOL0     C61835   9.477  10.610   3.064 -0.0589  0.5498  0.5738
  459MOL0     C61836   9.591  10.610   2.979 -0.4681 -0.8955 -0.0968
  459MOL0     C61837   9.584  10.684   2.861  0.1608 -0.7531  0.7324
  459MOL0     O61838   9.686  10.691   2.770 -0.0612  0.0591 -0.0824
  459MOL0     C61839   9.813  10.731   2.821 -0.5468  0.3686 -0.5557
  459MOL0     C61840   9.921  10.621   2.796  0.6423  1.2246  0.5748
  459MOL0     C61841  10.054  10.655   2.872  0.6755 -0.3556  0.2199
  459MOL0     C61842  10.092  10.558   2.986  0.4543 -0.6328 -0.8558
  459MOL0     C61843  10.244  10.578   3.005 -0.6770  0.4478 -0.4200
  459MOL0     C61844  10.291  10.513   3.131 -0.2977 -0.1728  0.1728
  459MOL0     C61845  10.445  10.550   3.142  0.3469  0.5481 -0.5473
  459MOL0     C61846  10.510  10.466   3.254  0.1772  0.9863  0.5649
  459MOL0     N61847  10.651  10.443   3.208  0.2932  0.1815 -1.0748
  459MOL0     C61848  10.754  10.530   3.206  0.5568  0.1932 -1.3853
  459MOL0     C61849  10.853  10.468   3.138  0.1657  0.0656 -0.6172
  459MOL0     C61850  10.988  10.521   3.099 -0.1431 -0.3275 -0.5561
  459MOL0     C61851  11.097  10.532   3.211 -0.3213 -0.2601  0.1013
  459MOL0     C61852  11.111  10.411   3.298  0.2638 -0.6494 -0.1263
  459MOL0     C61853  11.005  10.388   3.415  0.5894  0.4638 -0.6729
  459MOL0     O61854  11.068  10.325   3.530 -1.0802 -0.5103 -0.3939
  459MOL0     C61855  11.057  10.193   3.540  0.0396  0.6443  1.2756
  459MOL0     C61856  11.009  10.102   3.446 -0.6053 -0.4151  0.9865
  459MOL0     C61857  11.016   9.966   3.474 -0.0914 -0.4820 -0.7734
  459MOL0     C61858  11.045   9.924   3.606 -0.2138 -0.0842 -0.0508
  459MOL0     C61859  11.031   9.774   3.633  0.2731 -0.0114 -0.3578
  459MOL0     O61860  11.054   9.737   3.768  0.9404 -0.0957 -0.4463
  459MOL0     C61861  11.023   9.613   3.819  0.3140  0.6273  1.2171
  459MOL0     C61862  11.065   9.595   3.950 -0.4534  0.2750 -0.7910
  459MOL0     C61863  11.043   9.475   4.029  0.3932 -0.1071  0.3054
  459MOL0     C61864  10.996   9.366   3.947 -0.3865  0.4055 -0.1132
  459MOL0     O61865  10.969   9.237   4.000  0.5096  0.3691  0.5904
  459MOL0     C61866  10.995   9.204   4.139  0.8323  0.2187  0.5236
  459MOL0     C61867  11.014   9.056   4.147 -0.1120  0.3989 -0.3129
  459MOL0     C61868  11.161   9.012   4.103 -0.7689 -0.5030 -0.1204
  459MOL0     C61869  11.252   9.018   4.228 -0.2431 -0.0266 -0.5003
  459MOL0     C61870  11.397   9.016   4.185 -0.9657 -0.8524  0.4577
  459MOL0     C61871  11.485   9.019   4.307 -0.0411  0.1346  0.0647
  459MOL0     C61872  11.634   9.018   4.272 -0.6218 -0.6751  0.1470
  459MOL0     C61873  11.678   9.149   4.192 -0.6719  0.8257 -0.6728
  459MOL0    Cl61874  11.813   9.111   4.081 -0.0350 -0.0580  0.3199
  459MOL0     C61875  10.971   9.377   3.812 -0.2037 -0.8081  0.4895
  459MOL0     C61876  10.983   9.500   3.746 -0.1920 -0.0920  0.2755
  459MOL0     O61877  11.030   9.698   3.534  0.7508  0.1515 -0.3808
  459MOL0     C61878  11.068  10.011   3.714 -0.3318 -0.5866 -0.3415
  459MOL0     C61879  11.076  10.143   3.670  0.2485  0.0534  0.1293
  459MOL0     N61880  10.812  10.339   3.104  1.1513  0.0827 -0.2437
  459MOL0     N61881  10.686  10.340   3.135 -0.8829  0.1429 -1.1698
  459MOL0     C61882   9.471  10.755   2.827  0.6357  0.1468  0.6783
  459MOL0     C61883   9.358  10.754   2.914  0.0742 -0.6029 -0.5060
  459MOL0     C61884   9.199  10.673   3.365 -0.5899 -0.6260 -0.3070
  459MOL0     C61885   9.138  10.548   3.340  0.0946  0.2555  0.6988
  459MOL0     C61886   9.083  10.476   3.445 -0.7968  0.0152 -0.2171
  459MOL0     C61887   9.101  10.521   3.580 -0.8353  0.5508  0.8699
  459MOL0     O61888   9.046  10.442   3.674 -0.0468  0.4643 -0.5852
  459MOL0     C61889   8.908  10.470   3.688 -0.7207 -0.4199 -1.3948
  459MOL0     C61890   8.881  10.592   3.791  0.0966  0.0575  0.2947
  459MOL0     C61891   8.731  10.594   3.831  0.1709  0.1862 -0.3454
  459MOL0     C61892   8.649  10.631   3.709 -0.1036 -0.9190 -0.4059
  459MOL0     C61893   8.523  10.701   3.726 -0.0149  0.4318  0.4005
  459MOL0     C61894   8.416  10.747   3.752 -0.2403 -0.8628 -0.0626
  459MOL0     C61895   9.157  10.643   3.608 -0.3819 -0.5223 -0.0584
  459MOL0     C61896   9.203  10.722   3.503 -0.0369 -0.0744  0.4373
  459MOL0     C61897   9.255  10.862   3.544  0.0557 -0.2696 -0.5737
  459MOL0     H61898   9.480  10.559   3.160  2.3460  3.3508  2.1746
  459MOL0     H61899   9.679  10.551   3.005 -0.7178 -0.6298  1.4327
  459MOL0     H61900   9.852  10.820   2.771  2.5318 -0.9368 -0.6953
  459MOL0     H61901   9.813  10.736   2.930 -1.5894 -0.1709 -0.5195
  459MOL0     H61902   9.924  10.614   2.687 -3.3005 -4.7500  0.3577
  459MOL0     H61903   9.887  10.527   2.840 -0.2664  2.3932  2.5230
  459MOL0     H61904  10.051  10.753   2.919  1.2534 -0.4162  0.3969
  459MOL0     H61905  10.133  10.652   2.796  1.8366 -2.0139  1.4117
  459MOL0     H61906  10.038  10.581   3.078 -1.1420  0.7066 -2.0566
  459MOL0     H61907  10.079  10.452   2.962 -1.1954 -0.5188 -0.5752
  459MOL0     H61908  10.301  10.529   2.926 -0.4090 -0.2283  0.1860
  459MOL0     H61909  10.268  10.684   3.015 -0.3843  0.2595  1.0973
  459MOL0     H61910  10.243  10.560   3.218 -2.1682 -3.7352  1.2849
  459MOL0     H61911  10.272  10.406   3.136 -0.0410 -0.1889  0.9898
  459MOL0     H61912  10.460  10.656   3.164 -0.8982  0.4695  0.8008
  459MOL0     H61913  10.496  10.523   3.049  1.2430  2.2216 -0.5765
  459MOL0     H61914  10.509  10.530   3.343  0.5964 -0.0886  1.3646
  459MOL0     H61915  10.464  10.369   3.276  0.4937  1.3040  2.8449
  459MOL0     H61916  10.745  10.633   3.237 -0.6661 -0.2710 -0.1209
  459MOL0     H61917  11.037  10.456   3.025  2.2539 -0.2304  0.8536
  459MOL0     H61918  10.974  10.619   3.052  0.4755 -0.1059 -0.2925
  459MOL0     H61919  11.192  10.541   3.157 -1.0798  2.8281 -0.9455
  459MOL0     H61920  11.087  10.618   3.279 -1.9331  0.0253 -0.4499
  459MOL0     H61921  11.208  10.428   3.345 -0.0576 -0.8089  0.5961
  459MOL0     H61922  11.106  10.323   3.234 -0.2792 -1.7415  1.3641
  459MOL0     H61923  10.915  10.335   3.385 -0.4797  1.7425  0.1371
  459MOL0     H61924  10.957  10.484   3.437  2.6483  1.5015 -0.4303
  459MOL0     H61925  10.986  10.129   3.344  1.0121 -0.3010  0.6202
  459MOL0     H61926  11.002   9.891   3.397 -2.0972  0.6968 -1.6510
  459MOL0     H61927  11.101   9.678   4.010 -1.4450 -0.6860  1.2355
  459MOL0     H61928  11.067   9.463   4.135  1.1266  0.4491  0.2106
  459MOL0     H61929  11.087   9.254   4.168  0.6367 -0.0482  1.6543
  459MOL0     H61930  10.910   9.244   4.195 -0.0465 -2.0626  0.9611
  459MOL0     H61931  11.013   9.033   4.254  2.1225 -1.6112 -0.6322
  459MOL0     H61932  10.943   9.002   4.084  2.2323 -1.9638 -1.0996
  459MOL0     H61933  11.166   8.911   4.061  2.4029 -0.5785  0.1598
  459MOL0     H61934  11.210   9.078   4.031 -1.4788 -1.3121 -1.3819
  459MOL0     H61935  11.232   8.941   4.303  1.0424  1.7591  1.8393
  459MOL0     H61936  11.240   9.114   4.280  0.8454 -1.6785  3.1582
  459MOL0     H61937  11.413   9.102   4.118  0.8735 -4.1676 -3.8456
  459MOL0     H61938  11.427   8.930   4.126  0.2941  0.9524 -1.6959
  459MOL0     H61939  11.463   9.110   4.364 -2.8173 -0.2352 -0.2677
  459MOL0     H61940  11.463   8.936   4.373  0.1717  0.9725  1.2157
  459MOL0     H61941  11.646   8.926   4.214  0.5246 -2.0099  2.3802
  459MOL0     H61942  11.694   9.008   4.363 -3.1255 -3.1317  1.6875
  459MOL0     H61943  11.594   9.199   4.143  1.5246  1.4284 -4.1388
  459MOL0     H61944  11.700   9.217   4.275 -1.4702  0.3291 -0.0394
  459MOL0     H61945  10.947   9.293   3.748  2.0398 -3.0663  2.4152
  459MOL0     H61946  10.971   9.502   3.638  0.8198  0.1711  0.1578
  459MOL0     H61947  11.082   9.966   3.812  1.0944  0.7530  0.0975
  459MOL0     H61948  11.102  10.217   3.744 -1.8633  0.7466  0.2553
  459MOL0     H61949   9.464  10.811   2.734  0.7072 -0.9829 -0.0148
  459MOL0     H61950   9.261  10.780   2.874 -0.2934 -2.5383 -1.0075
  459MOL0     H61951   9.135  10.512   3.238 -1.4128 -0.1818  0.8603
  459MOL0     H61952   9.036  10.382   3.419 -0.7136 -1.0570  3.0546
  459MOL0     H61953   8.870  10.380   3.737 -0.1745  0.1691  0.1807
  459MOL0     H61954   8.852  10.489   3.595 -0.2525 -0.9546 -1.7935
  459MOL0     H61955   8.906  10.690   3.749 -1.9287  0.2143 -0.6460
  459MOL0     H61956   8.950  10.588   3.877  1.7522  2.8336 -0.7634
  459MOL0     H61957   8.716  10.669   3.910  1.4608  0.4216 -0.2979
  459MOL0     H61958   8.690  10.498   3.863  0.4663  0.6388  1.5384
  459MOL0     H61959   8.707  10.698   3.646 -0.7992  1.6712  1.5326
  459MOL0     H61960   8.635  10.535   3.657 -1.1898 -2.4691  2.4942
  459MOL0     H61961   8.325  10.789   3.791 -0.7125  0.5411 -2.4690
  459MOL0     H61962   9.168  10.670   3.713 -2.1801  2.5834 -0.5247
  459MOL0     H61963   9.255  10.940   3.468  0.9864  0.7305  0.4100
  459MOL0     H61964   9.197  10.901   3.628  0.3089  0.2339 -0.6251
  459MOL0     H61965   9.358  10.851   3.580 -0.2981 -1.9870  0.0025
  460MOL0     O61966   7.253   1.879   9.157  0.0998 -0.1409 -0.3884
  460MOL0     C61967   7.213   1.767   9.165  0.1217 -0.6587 -0.9412
  460MOL0     O61968   7.095   1.722   9.116 -0.8010 -0.1587  0.4009
  460MOL0     C61969   7.031   1.807   9.033  0.3147 -0.3980  0.8876
  460MOL0     C61970   7.031   1.764   8.895 -0.0178 -0.5579 -0.6032
  460MOL0     C61971   6.975   1.845   8.794  0.1824 -0.0456  0.6486
  460MOL0     C61972   6.922   1.968   8.826  0.7974 -0.9389 -0.1908
  460MOL0     O61973   6.856   2.031   8.729  0.1138  0.1511 -0.6639
  460MOL0     C61974   6.718   1.979   8.709 -1.2410  0.3076 -0.4769
  460MOL0     C61975   6.611   2.085   8.669 -0.8162 -0.7763  0.4188
  460MOL0     C61976   6.609   2.188   8.788 -0.7496 -0.4771  0.6397
  460MOL0     C61977   6.503   2.289   8.759  0.8902 -0.3338  0.7269
  460MOL0     C61978   6.510   2.410   8.842 -0.4825  0.5144 -1.3736
  460MOL0     C61979   6.428   2.520   8.779 -0.6572  0.4210  0.1800
  460MOL0     C61980   6.418   2.659   8.852 -0.0205 -0.7329  0.1848
  460MOL0     C61981   6.328   2.769   8.787 -0.1952  1.1933  0.7840
  460MOL0     N61982   6.350   2.895   8.840 -0.0816  0.7878  0.9845
  460MOL0     C61983   6.282   2.959   8.946 -0.2323  0.6784  0.4091
  460MOL0     C61984   6.313   3.088   8.935  0.4657  0.4224  0.3699
  460MOL0     C61985   6.286   3.189   9.045  0.4856  0.2557  0.3110
  460MOL0     C61986   6.414   3.269   9.100  0.7872  0.3204  0.4761
  460MOL0     C61987   6.524   3.180   9.159  0.0537 -0.1747  0.4472
  460MOL0     C61988   6.656   3.157   9.080 -0.6867 -0.1664  0.2890
  460MOL0     O61989   6.766   3.112   9.171 -0.2110 -1.2486 -0.5105
  460MOL0     C61990   6.750   2.992   9.241  0.1332 -0.3409  0.4328
  460MOL0     C61991   6.823   2.971   9.359 -0.7911 -0.6377 -0.1898
  460MOL0     C61992   6.798   2.856   9.443  0.4079  0.7314  0.0471
  460MOL0     C61993   6.703   2.758   9.400  0.2796  0.1015 -0.0418
  460MOL0     C61994   6.665   2.644   9.476 -0.1481 -0.2161  0.2292
  460MOL0     O61995   6.689   2.641   9.612 -0.3955 -0.3016  0.8847
  460MOL0     C61996   6.632   2.536   9.682  0.6991  0.2356  0.4462
  460MOL0     C61997   6.502   2.524   9.711  0.6321  0.0981 -0.2257
  460MOL0     C61998   6.468   2.421   9.797  0.8157  1.4413 -0.0676
  460MOL0     C61999   6.561   2.327   9.852 -0.1531 -0.0234 -0.1530
  460MOL0     O62000   6.503   2.246   9.942 -0.1603 -0.4055 -0.6912
  460MOL0     C62001   6.566   2.237  10.076  0.0164 -1.2404  0.0598
  460MOL0     C62002   6.452   2.202  10.176 -0.2433 -1.5167 -0.4322
  460MOL0     C62003   6.502   2.197  10.316 -0.7201 -0.4597  0.2924
  460MOL0     C62004   6.397   2.157  10.431 -0.6690 -0.7273  0.6706
  460MOL0     C62005   6.338   2.007  10.435 -0.7663 -0.0368  0.8752
  460MOL0     C62006   6.272   1.981  10.566 -0.4065 -0.9760  0.9440
  460MOL0     C62007   6.197   1.843  10.552 -0.0181 -0.5768  0.1004
  460MOL0     C62008   6.183   1.785  10.692  0.0031 -0.0682  0.2072
  460MOL0    Cl62009   6.082   1.895  10.787 -0.0769  0.0537  0.6613
  460MOL0     C62010   6.699   2.336   9.821  0.8940 -0.1811  0.5598
  460MOL0     C62011   6.727   2.444   9.733 -0.0544  0.2284  0.4818
  460MOL0     O62012   6.615   2.549   9.417  0.0225  0.0682 -0.4047
  460MOL0     C62013   6.646   2.791   9.275  0.6356  0.2909 -0.8245
  460MOL0     C62014   6.661   2.899   9.201 -0.4636  0.3095  0.2042
  460MOL0     N62015   6.388   3.110   8.823  0.3122 -0.1492  0.3675
  460MOL0     N62016   6.413   2.995   8.770  0.2340 -0.2881  0.3156
  460MOL0     C62017   6.934   2.017   8.957  0.3351  0.0923 -0.5075
  460MOL0     C62018   6.987   1.933   9.061 -0.1409 -0.4879  0.6142
  460MOL0     C62019   7.280   1.684   9.275  0.9022 -0.0546 -0.6000
  460MOL0     C62020   7.209   1.575   9.330  0.7652  1.1104 -0.3269
  460MOL0     C62021   7.264   1.492   9.420  0.5504  0.7083 -0.1628
  460MOL0     C62022   7.397   1.507   9.451  0.1560  0.9235 -0.9564
  460MOL0     O62023   7.445   1.408   9.528 -0.2646  0.4650 -0.4030
  460MOL0     C62024   7.527   1.312   9.461 -0.2646 -0.1767  0.7280
  460MOL0     C62025   7.639   1.261   9.553 -0.1557  0.8681 -0.3598
  460MOL0     C62026   7.742   1.365   9.567 -0.2864  0.8420  0.5722
  460MOL0     C62027   7.873   1.289   9.615 -0.7664 -0.1886 -0.2170
  460MOL0     C62028   7.867   1.226   9.747  0.6725 -0.6039  1.1322
  460MOL0     C62029   7.861   1.191   9.862  0.2228  0.4586  0.2400
  460MOL0     C62030   7.475   1.615   9.401  0.9811 -0.1391  0.2945
  460MOL0     C62031   7.414   1.711   9.320 -0.4538  0.6464  0.1622
  460MOL0     C62032   7.495   1.831   9.269 -0.3758 -0.1612  0.6593
  460MOL0     H62033   7.077   1.667   8.881 -2.0939 -1.8618  1.1040
  460MOL0     H62034   6.967   1.802   8.695 -1.1089 -0.2900  0.8406
  460MOL0     H62035   6.708   1.919   8.618 -2.1108 -1.5902  0.8062
  460MOL0     H62036   6.676   1.918   8.789 -1.6295 -1.0004 -1.6269
  460MOL0     H62037   6.511   2.044   8.653 -1.3357 -0.1262  1.8144
  460MOL0     H62038   6.644   2.144   8.583  1.2100  2.5350  3.2280
  460MOL0     H62039   6.710   2.230   8.788  0.0856 -1.2621 -6.5796
  460MOL0     H62040   6.586   2.137   8.882  0.1524 -0.2747  0.9806
  460MOL0     H62041   6.517   2.322   8.656  2.1026 -1.7673  0.4028
  460MOL0     H62042   6.403   2.245   8.761  0.1245  1.1687 -1.2234
  460MOL0     H62043   6.470   2.391   8.942 -0.7227  0.1560 -1.5356
  460MOL0     H62044   6.611   2.448   8.855  0.2996 -1.8305 -0.1160
  460MOL0     H62045   6.487   2.553   8.694 -1.5267  1.5456 -0.0026
  460MOL0     H62046   6.328   2.482   8.757 -1.1308  1.2112  0.9193
  460MOL0     H62047   6.515   2.704   8.873 -1.4500  1.2641  3.1011
  460MOL0     H62048   6.371   2.636   8.948  1.2093  0.8813  1.2178
  460MOL0     H62049   6.350   2.769   8.680 -2.7500 -0.8572  0.1624
  460MOL0     H62050   6.225   2.731   8.795  1.7129 -5.5874 -0.1610
  460MOL0     H62051   6.230   2.916   9.031  2.3582 -1.6091  0.9795
  460MOL0     H62052   6.218   3.260   8.997  2.5693  0.2422 -2.9316
  460MOL0     H62053   6.240   3.131   9.126  0.5115  0.6448  0.6031
  460MOL0     H62054   6.449   3.328   9.015 -1.8112  2.0935  0.4873
  460MOL0     H62055   6.379   3.343   9.173 -2.4253  2.4387 -2.8137
  460MOL0     H62056   6.479   3.086   9.193 -0.9402 -0.7618 -2.2856
  460MOL0     H62057   6.565   3.241   9.240  0.3052 -0.8083  0.8044
  460MOL0     H62058   6.685   3.247   9.025  1.1758 -1.0467 -0.2395
  460MOL0     H62059   6.636   3.081   9.005 -0.4364  1.7929 -1.8852
  460MOL0     H62060   6.903   3.041   9.378  0.0248 -0.9859 -2.0643
  460MOL0     H62061   6.837   2.842   9.544 -4.5175  1.6765  2.3524
  460MOL0     H62062   6.428   2.589   9.665  0.7471 -0.1987 -0.8262
  460MOL0     H62063   6.372   2.413   9.847  0.9678  2.6911  0.4472
  460MOL0     H62064   6.638   2.155  10.065  0.6817 -0.4824 -1.5882
  460MOL0     H62065   6.620   2.327  10.106 -0.3936 -1.7049  2.3862
  460MOL0     H62066   6.373   2.278  10.172 -0.5457 -1.8947 -2.2985
  460MOL0     H62067   6.426   2.098  10.154  0.8218 -2.6646  3.0682
  460MOL0     H62068   6.593   2.137  10.308  0.4177  1.2907 -0.6736
  460MOL0     H62069   6.533   2.300  10.337  4.3074 -1.8617  1.1108
  460MOL0     H62070   6.316   2.230  10.421 -0.4069 -0.8194 -3.4188
  460MOL0     H62071   6.444   2.177  10.528 -0.6524 -1.8285  0.9113
  460MOL0     H62072   6.421   1.941  10.406 -1.5199 -0.3510 -0.6647
  460MOL0     H62073   6.259   2.016  10.360 -0.2235  0.8737  0.3922
  460MOL0     H62074   6.350   1.986  10.642  1.7120  0.7770 -1.1903
  460MOL0     H62075   6.202   2.062  10.589  2.2366  0.9032  2.9765
  460MOL0     H62076   6.256   1.771  10.494  2.5192  0.6498  0.9782
  460MOL0     H62077   6.096   1.863  10.516  0.8776  1.8331 -1.3775
  460MOL0     H62078   6.150   1.680  10.688 -1.6486  0.4668 -3.0106
  460MOL0     H62079   6.282   1.790  10.738 -0.7445 -0.9325  2.0203
  460MOL0     H62080   6.777   2.274   9.863  5.3061  3.3876 -1.5942
  460MOL0     H62081   6.829   2.456   9.699  0.0507  1.5926  1.2188
  460MOL0     H62082   6.593   2.706   9.231  0.2512  0.5754 -0.9132
  460MOL0     H62083   6.606   2.909   9.108  1.1034  0.0257 -0.8063
  460MOL0     H62084   6.893   2.113   8.988 -1.4774 -0.9954  0.6080
  460MOL0     H62085   6.990   1.966   9.164  3.1797 -0.3462  0.5838
  460MOL0     H62086   7.105   1.564   9.302 -0.1605  2.3270  2.2743
  460MOL0     H62087   7.208   1.416   9.474  0.2161  2.1540  1.6165
  460MOL0     H62088   7.569   1.355   9.370  1.2536 -0.3112  1.3293
  460MOL0     H62089   7.463   1.229   9.431 -0.0692  0.2174 -0.8740
  460MOL0     H62090   7.671   1.162   9.519 -0.1651 -0.1597  2.4027
  460MOL0     H62091   7.600   1.224   9.648 -1.3042 -0.1040 -1.1793
  460MOL0     H62092   7.703   1.434   9.642  2.5214  1.2318  1.8247
  460MOL0     H62093   7.752   1.406   9.466  1.1058 -2.8281 -0.9552
  460MOL0     H62094   7.904   1.214   9.541  0.2335 -1.2198  1.1771
  460MOL0     H62095   7.956   1.359   9.627  0.6919 -1.8529 -0.1139
  460MOL0     H62096   7.857   1.164   9.965  0.4653  2.2562  0.7539
  460MOL0     H62097   7.580   1.615   9.427  0.1022 -3.9352  5.3812
  460MOL0     H62098   7.595   1.816   9.311 -0.2416 -1.8699 -0.1791
  460MOL0     H62099   7.496   1.823   9.160 -2.0614 -2.6615  0.7268
  460MOL0     H62100   7.472   1.935   9.296  0.4947  0.7249 -1.7760
  461MOL0     O62101   0.865   2.279   6.828  0.6332 -0.1625 -0.5643
  461MOL0     C62102   0.979   2.308   6.784 -0.0906  1.1652  0.1088
  461MOL0     O62103   1.038   2.432   6.789  0.0259 -0.4427 -0.4410
  461MOL0     C62104   0.993   2.495   6.900  1.0614  0.0534  0.0062
  461MOL0     C62105   0.902   2.599   6.886  0.6888 -0.6892 -0.6126
  461MOL0     C62106   0.859   2.673   6.990 -0.2873  0.0742 -0.8631
  461MOL0     C62107   0.890   2.627   7.120 -0.8232 -0.6541 -0.3157
  461MOL0     O62108   0.826   2.692   7.230 -0.0747  0.0870 -0.1368
  461MOL0     C62109   0.878   2.663   7.359  0.2151 -0.7789 -0.2054
  461MOL0     C62110   0.816   2.763   7.464  0.0140 -0.3425  0.3463
  461MOL0     C62111   0.824   2.907   7.416  0.5202  0.2109  0.0385
  461MOL0     C62112   0.964   2.979   7.396 -0.9422  0.1776 -0.0193
  461MOL0     C62113   0.951   3.127   7.401 -0.4372 -1.1846  0.6380
  461MOL0     C62114   1.083   3.206   7.374 -0.3583 -0.2318  0.0035
  461MOL0     C62115   1.053   3.359   7.349 -0.8005  0.2795 -0.2416
  461MOL0     C62116   1.056   3.385   7.203  0.5571 -0.2590  1.3485
  461MOL0     N62117   1.011   3.515   7.175  0.0555  0.6473 -0.7221
  461MOL0     C62118   0.879   3.563   7.171 -0.3953 -0.2273  0.0605
  461MOL0     C62119   0.891   3.696   7.162 -0.0837 -0.4693  0.4454
  461MOL0     C62120   0.768   3.771   7.142 -0.0672  0.1590  0.0577
  461MOL0     C62121   0.708   3.774   6.997 -0.4380 -0.0315 -0.1429
  461MOL0     C62122   0.569   3.833   6.997  1.4303  0.2210  0.7006
  461MOL0     C62123   0.494   3.797   6.857 -0.3026 -0.0638 -0.1822
  461MOL0     O62124   0.515   3.665   6.802  1.0206 -0.3823  0.1231
  461MOL0     C62125   0.489   3.647   6.666  0.4707 -0.2298  0.4342
  461MOL0     C62126   0.520   3.523   6.615 -0.0965 -0.0443  0.0325
  461MOL0     C62127   0.510   3.496   6.479  0.4157  0.5281 -0.4242
  461MOL0     C62128   0.467   3.594   6.386  0.1264  0.0911 -1.7418
  461MOL0     C62129   0.437   3.571   6.242 -0.2119  0.1777  0.7940
  461MOL0     O62130   0.429   3.681   6.157  0.1915  0.0290 -0.5594
  461MOL0     C62131   0.378   3.658   6.035 -0.5037 -0.2875 -0.0395
  461MOL0     C62132   0.247   3.613   6.017  0.1459  0.2941 -1.2568
  461MOL0     C62133   0.194   3.594   5.891  0.4154  0.9714  0.8777
  461MOL0     C62134   0.270   3.615   5.779 -0.0582 -0.0067 -0.2882
  461MOL0     O62135   0.220   3.564   5.657 -0.6182  0.0714 -0.9084
  461MOL0     C62136   0.316   3.523   5.553 -1.1275  0.0865 -0.3154
  461MOL0     C62137   0.233   3.436   5.452  0.0486  0.1121  0.0610
  461MOL0     C62138   0.254   3.475   5.306  0.0444  0.0469 -0.0132
  461MOL0     C62139   0.398   3.460   5.250  0.0775 -0.0779  0.9055
  461MOL0     C62140   0.393   3.455   5.094  0.7707 -0.3397  0.0633
  461MOL0     C62141   0.520   3.410   5.017 -0.1596  0.2464 -0.5173
  461MOL0     C62142   0.651   3.470   5.082  0.6394 -1.0764  0.9332
  461MOL0     C62143   0.774   3.436   5.001  0.4199 -0.4867  0.6766
  461MOL0    Cl62144   0.905   3.477   5.107  0.2610 -0.6276  0.0119
  461MOL0     C62145   0.401   3.654   5.794  0.2270 -0.2109  0.4202
  461MOL0     C62146   0.453   3.685   5.922  0.2398  0.2528 -0.5893
  461MOL0     O62147   0.454   3.461   6.203 -0.8381  0.7449  0.1484
  461MOL0     C62148   0.421   3.713   6.438 -0.7471 -0.1219 -0.0171
  461MOL0     C62149   0.421   3.736   6.580 -0.0905 -0.6568  0.1806
  461MOL0     N62150   1.019   3.733   7.192  0.7178 -0.0404  0.5051
  461MOL0     N62151   1.086   3.626   7.180  0.2949  0.0056  0.3829
  461MOL0     C62152   0.977   2.520   7.136  0.9263  0.8823  0.2296
  461MOL0     C62153   1.025   2.448   7.022 -0.5519  0.5949 -0.1530
  461MOL0     C62154   1.056   2.197   6.700  0.6074  0.0242 -0.4372
  461MOL0     C62155   0.981   2.086   6.661 -0.3508 -0.7408 -1.0538
  461MOL0     C62156   1.037   1.985   6.590  0.2997  0.4321  0.2269
  461MOL0     C62157   1.171   1.984   6.564  0.6858 -0.1415 -0.0379
  461MOL0     O62158   1.216   1.874   6.495 -0.4220  0.3684  0.9879
  461MOL0     C62159   1.349   1.882   6.433  1.0131  0.8509  0.4915
  461MOL0     C62160   1.366   1.735   6.392  0.6145  0.0163  0.5145
  461MOL0     C62161   1.354   1.739   6.235 -0.5055  0.4343  0.7242
  461MOL0     C62162   1.316   1.610   6.160 -0.8602  0.1280  0.2791
  461MOL0     C62163   1.191   1.545   6.208 -0.3486 -0.1486 -0.0820
  461MOL0     C62164   1.082   1.520   6.248  0.0690 -0.4639 -0.0840
  461MOL0     C62165   1.243   2.100   6.585  0.9023 -1.0506  0.2776
  461MOL0     C62166   1.184   2.206   6.654 -0.0287 -0.4667 -0.1214
  461MOL0     C62167   1.280   2.319   6.684  0.7821 -0.0373  0.1011
  461MOL0     H62168   0.892   2.623   6.780  1.5473 -0.3098 -0.6155
  461MOL0     H62169   0.781   2.742   6.961 -0.8953 -0.7473 -1.2275
  461MOL0     H62170   0.852   2.558   7.376 -2.0652 -0.1048  0.9407
  461MOL0     H62171   0.985   2.684   7.355  0.3101 -1.1952  0.1293
  461MOL0     H62172   0.852   2.740   7.565 -0.7434 -3.7851 -0.0342
  461MOL0     H62173   0.711   2.733   7.469 -1.1138  2.3621 -3.4236
  461MOL0     H62174   0.788   2.961   7.504  0.4430  0.9104 -0.4204
  461MOL0     H62175   0.759   2.930   7.331 -2.2469  3.5513  2.7852
  461MOL0     H62176   1.018   2.959   7.489  0.5907  4.6519  0.3171
  461MOL0     H62177   1.015   2.924   7.316  0.3424 -2.1773  2.2805
  461MOL0     H62178   0.871   3.152   7.331  0.6516 -1.6523 -0.8154
  461MOL0     H62179   0.904   3.155   7.496 -1.9783  1.9602 -0.9097
  461MOL0     H62180   1.144   3.212   7.465  1.7379 -1.3813 -1.2470
  461MOL0     H62181   1.138   3.166   7.289 -0.2911 -0.3662  0.1096
  461MOL0     H62182   1.132   3.415   7.399  1.4285 -2.0772 -0.9516
  461MOL0     H62183   0.954   3.378   7.394 -0.6799 -3.3549  1.9365
  461MOL0     H62184   1.155   3.368   7.160  0.7072 -0.2813  1.6999
  461MOL0     H62185   0.988   3.308   7.164  0.8451 -0.0062  0.3299
  461MOL0     H62186   0.784   3.516   7.191 -0.0013 -1.6268 -1.1562
  461MOL0     H62187   0.694   3.724   7.207  0.3824 -0.6663 -0.0212
  461MOL0     H62188   0.782   3.875   7.174 -0.6663 -0.2865  1.9107
  461MOL0     H62189   0.786   3.813   6.932  0.4742 -1.9860 -0.3066
  461MOL0     H62190   0.705   3.665   6.981  0.2531 -0.4199  2.0967
  461MOL0     H62191   0.575   3.941   7.010 -1.2569  0.2044  3.0416
  461MOL0     H62192   0.513   3.801   7.085 -1.2434  0.6519 -0.7666
  461MOL0     H62193   0.524   3.873   6.783 -3.7931  1.6291 -0.0577
  461MOL0     H62194   0.389   3.822   6.874 -0.4592 -1.0633  0.3430
  461MOL0     H62195   0.560   3.452   6.687 -3.2858 -2.7314 -0.5951
  461MOL0     H62196   0.527   3.398   6.435  0.0274  1.3694 -2.5888
  461MOL0     H62197   0.192   3.584   6.106  0.3492  0.5386 -1.0497
  461MOL0     H62198   0.101   3.539   5.884  0.6019  0.8149 -0.7407
  461MOL0     H62199   0.372   3.603   5.504  3.2639 -1.0561  2.2943
  461MOL0     H62200   0.397   3.462   5.594 -1.8363 -1.9324 -1.7487
  461MOL0     H62201   0.252   3.330   5.467  1.2531  0.4092  0.7872
  461MOL0     H62202   0.126   3.444   5.475 -0.0898  1.1092 -0.8345
  461MOL0     H62203   0.189   3.411   5.246 -0.7765 -0.7012  1.6193
  461MOL0     H62204   0.232   3.579   5.281 -0.0994  0.0128 -0.0274
  461MOL0     H62205   0.435   3.360   5.278  0.9082 -0.8451 -2.4048
  461MOL0     H62206   0.459   3.541   5.291 -0.2252 -1.2541  3.9703
  461MOL0     H62207   0.360   3.554   5.062  0.8730  0.1682  1.4477
  461MOL0     H62208   0.311   3.389   5.064  0.1612 -0.7640  2.4580
  461MOL0     H62209   0.524   3.301   5.026  1.0147  0.4172  1.7698
  461MOL0     H62210   0.506   3.449   4.916 -2.0032  1.2343  0.0554
  461MOL0     H62211   0.661   3.420   5.179  1.6069 -1.8651  0.4418
  461MOL0     H62212   0.647   3.578   5.099  4.0925 -0.5396 -0.8283
  461MOL0     H62213   0.779   3.330   4.977  1.7433  0.1907 -2.5403
  461MOL0     H62214   0.769   3.495   4.910  4.3618 -1.3330 -0.2793
  461MOL0     H62215   0.467   3.647   5.707 -1.1135 -1.8329 -0.5163
  461MOL0     H62216   0.558   3.707   5.941 -0.6254  3.0359  1.5244
  461MOL0     H62217   0.375   3.786   6.372 -3.7042 -0.6691  1.2976
  461MOL0     H62218   0.372   3.820   6.627 -1.2789 -0.2952 -1.5879
  461MOL0     H62219   1.011   2.480   7.231  2.0542  1.2845  0.0199
  461MOL0     H62220   1.091   2.365   7.047 -0.6950  0.5973  0.2542
  461MOL0     H62221   0.883   2.068   6.703 -0.1125  0.0387 -0.1185
  461MOL0     H62222   0.975   1.898   6.573 -0.4632  0.7251  1.3974
  461MOL0     H62223   1.426   1.893   6.510  0.6014 -1.1230  1.2254
  461MOL0     H62224   1.354   1.954   6.350 -0.5042 -0.1329 -0.4924
  461MOL0     H62225   1.280   1.683   6.435  1.4937  0.0312  2.3883
  461MOL0     H62226   1.459   1.693   6.431 -1.1354  0.3380  5.7965
  461MOL0     H62227   1.448   1.776   6.192  0.2730 -2.1174  0.0744
  461MOL0     H62228   1.296   1.826   6.200  0.0930  0.6641  0.2844
  461MOL0     H62229   1.310   1.622   6.051  0.5599 -1.0170  0.0403
  461MOL0     H62230   1.400   1.539   6.156 -1.4184 -0.6363  1.4733
  461MOL0     H62231   0.984   1.482   6.269  0.1586 -3.1908 -3.6634
  461MOL0     H62232   1.343   2.121   6.550  0.6122  1.3903  0.7051
  461MOL0     H62233   1.375   2.308   6.632 -0.6297 -1.9015 -2.2957
  461MOL0     H62234   1.228   2.404   6.640  1.9140  0.7568  0.2518
  461MOL0     H62235   1.293   2.332   6.792 -0.6742  1.8717  0.0972
  462MOL0     O62236  10.649  10.698   4.907  0.0719 -0.8533  1.2410
  462MOL0     C62237  10.549  10.662   4.964  0.8422 -0.4433 -0.1944
  462MOL0     O62238  10.476  10.750   5.042  0.3510 -0.4046  0.0167
  462MOL0     C62239  10.535  10.872   5.076 -0.6361  0.0711 -0.1678
  462MOL0     C62240  10.582  10.891   5.214  0.5446  0.4356  0.5410
  462MOL0     C62241  10.668  10.995   5.250  0.2293 -0.0222  0.3804
  462MOL0     C62242  10.677  11.105   5.158  0.3560  0.4974 -0.2181
  462MOL0     O62243  10.744  11.204   5.203  0.5266  0.1057  0.2457
  462MOL0     C62244  10.820  11.277   5.101  0.5324 -0.7969 -0.1739
  462MOL0     C62245  10.884  11.392   5.166 -0.2069 -0.1825 -0.1581
  462MOL0     C62246  10.800  11.522   5.183  0.2254 -0.0571 -1.2791
  462MOL0     C62247  10.749  11.559   5.321  0.3395  0.3876 -0.1968
  462MOL0     C62248  10.690  11.706   5.307 -0.3747  0.1766 -0.3894
  462MOL0     C62249  10.605  11.753   5.431 -0.6879 -0.4521  0.3650
  462MOL0     C62250  10.672  11.765   5.568  0.1198  0.2252  0.4545
  462MOL0     C62251  10.575  11.790   5.689 -0.0572  0.3817 -0.1170
  462MOL0     N62252  10.479  11.688   5.716  0.1421 -0.4050 -0.7681
  462MOL0     C62253  10.488  11.587   5.803 -0.0862 -0.3454  0.4098
  462MOL0     C62254  10.357  11.542   5.808 -0.4997 -0.1428 -0.1134
  462MOL0     C62255  10.313  11.421   5.895 -0.6088  0.1925  0.6271
  462MOL0     C62256  10.296  11.458   6.038 -0.6672 -0.2432  0.4166
  462MOL0     C62257  10.234  11.346   6.128  0.0117 -0.3049  0.5480
  462MOL0     C62258  10.331  11.217   6.144  0.2612  0.5324 -0.0074
  462MOL0     O62259  10.315  11.142   6.021 -0.0942 -0.1390  0.8344
  462MOL0     C62260  10.200  11.075   6.013 -0.5515 -0.5656 -0.5368
  462MOL0     C62261  10.118  11.104   5.898 -0.1251 -0.2381  0.2660
  462MOL0     C62262   9.990  11.034   5.891  0.5569 -0.4057 -0.2094
  462MOL0     C62263   9.945  10.945   5.991  0.1107 -0.3111 -0.1398
  462MOL0     C62264   9.805  10.890   5.994  0.2806 -0.9993 -0.0270
  462MOL0     O62265   9.728  10.903   5.878 -0.4522 -0.2112  0.4240
  462MOL0     C62266   9.599  10.863   5.882  0.3905 -0.1799 -0.7907
  462MOL0     C62267   9.499  10.960   5.890  0.0262  1.0589  0.1061
  462MOL0     C62268   9.362  10.919   5.892  0.3919  0.5055 -0.3210
  462MOL0     C62269   9.326  10.777   5.872 -1.0049 -0.8030  0.1043
  462MOL0     O62270   9.203  10.721   5.868  0.8556 -0.5809 -0.5661
  462MOL0     C62271   9.086  10.804   5.866  0.5200  0.4168 -1.1917
  462MOL0     C62272   8.955  10.720   5.903  1.2444 -0.7596  0.1897
  462MOL0     C62273   8.825  10.812   5.897  0.8695  0.3359  0.2035
  462MOL0     C62274   8.690  10.740   5.926 -0.7190  0.2904  0.7651
  462MOL0     C62275   8.568  10.834   5.912  0.8915  0.3228 -0.0678
  462MOL0     C62276   8.577  10.947   6.007  0.2914  0.4404  0.2270
  462MOL0     C62277   8.472  11.056   5.987  0.1389 -0.3078  0.5798
  462MOL0     C62278   8.470  11.173   6.091  0.0838  0.3870  0.0808
  462MOL0    Cl62279   8.631  11.216   6.138 -0.8090  0.6019 -0.1840
  462MOL0     C62280   9.429  10.685   5.876 -0.0078  0.4475  0.6633
  462MOL0     C62281   9.559  10.727   5.880 -1.2725 -1.0046  0.4077
  462MOL0     O62282   9.761  10.841   6.091  0.2160  0.0779  0.0382
  462MOL0     C62283  10.031  10.917   6.100 -0.2194 -0.1260 -0.2616
  462MOL0     C62284  10.156  10.981   6.111 -0.7288 -0.1515  0.7668
  462MOL0     N62285  10.278  11.613   5.726 -0.7951 -0.5219 -0.0713
  462MOL0     N62286  10.359  11.686   5.656  0.5785  0.5728 -0.6395
  462MOL0     C62287  10.619  11.091   5.028 -0.1395 -0.2916 -0.3199
  462MOL0     C62288  10.561  10.975   4.986 -0.3107 -0.3013 -0.4134
  462MOL0     C62289  10.518  10.524   4.943  0.9194 -0.1360  0.7466
  462MOL0     C62290  10.598  10.430   4.878 -0.9965 -0.1772 -0.4224
  462MOL0     C62291  10.578  10.299   4.883 -0.3651  0.4774  0.5082
  462MOL0     C62292  10.466  10.247   4.940 -0.7389  0.3201 -1.3622
  462MOL0     O62293  10.436  10.119   4.910 -0.6770 -0.3489  0.3832
  462MOL0     C62294  10.339  10.053   4.998 -0.4368 -0.3662 -0.2548
  462MOL0     C62295  10.389   9.914   5.036 -0.9308  0.0281  0.5684
  462MOL0     C62296  10.379   9.816   4.922  0.3996 -0.0268  0.3581
  462MOL0     C62297  10.418   9.669   4.963 -0.6119  0.8967  0.1464
  462MOL0     C62298  10.337   9.611   5.071 -0.6968 -0.3047  0.8997
  462MOL0     C62299  10.278   9.556   5.166  1.0932 -0.6094  1.5753
  462MOL0     C62300  10.375  10.334   4.997 -0.1669  0.7610 -0.7294
  462MOL0     C62301  10.400  10.471   4.998 -0.6342  0.0898  0.3356
  462MOL0     C62302  10.299  10.546   5.088 -0.2299  0.2504  0.3550
  462MOL0     H62303  10.531  10.818   5.276 -1.0277  0.9251 -0.1345
  462MOL0     H62304  10.711  11.006   5.349 -0.5721 -0.3470  0.7709
  462MOL0     H62305  10.898  11.212   5.061  0.6515 -1.7297  1.4864
  462MOL0     H62306  10.764  11.323   5.019  0.2254 -0.9949 -0.0793
  462MOL0     H62307  10.974  11.418   5.110 -0.0528  0.2069  0.2576
  462MOL0     H62308  10.911  11.365   5.269 -0.9338  3.2491  1.0565
  462MOL0     H62309  10.712  11.520   5.119  2.0706  2.5351 -4.1430
  462MOL0     H62310  10.866  11.605   5.156  2.4033 -0.9825  0.7274
  462MOL0     H62311  10.668  11.487   5.340 -0.2126  1.1870  0.5726
  462MOL0     H62312  10.825  11.550   5.400 -1.3798  2.3293  1.8016
  462MOL0     H62313  10.774  11.777   5.306 -0.1172 -0.0257 -3.9144
  462MOL0     H62314  10.634  11.711   5.214 -0.8749  1.3454 -0.0439
  462MOL0     H62315  10.544  11.839   5.402 -5.0307 -2.1848  3.2438
  462MOL0     H62316  10.518  11.686   5.429  0.1463 -1.5709 -1.9557
  462MOL0     H62317  10.761  11.828   5.574  2.6730 -2.4828 -4.1688
  462MOL0     H62318  10.717  11.668   5.586 -1.2066 -0.5419 -0.1840
  462MOL0     H62319  10.629  11.810   5.782 -0.1236  2.2533 -0.4411
  462MOL0     H62320  10.514  11.877   5.662 -0.6268  0.0341  0.0388
  462MOL0     H62321  10.569  11.545   5.862  0.3247  2.1572  1.7544
  462MOL0     H62322  10.227  11.374   5.847  2.2147 -3.2906 -1.5223
  462MOL0     H62323  10.388  11.341   5.887 -0.4605  0.3991 -0.1291
  462MOL0     H62324  10.386  11.496   6.087 -0.7417  0.9702 -0.3480
  462MOL0     H62325  10.231  11.544   6.059  1.8157  1.2027  2.7427
  462MOL0     H62326  10.136  11.309   6.098  1.3708 -3.4159 -0.4286
  462MOL0     H62327  10.221  11.388   6.229 -0.4757 -1.3640  0.9356
  462MOL0     H62328  10.326  11.153   6.232  0.7646 -1.2129 -1.2049
  462MOL0     H62329  10.432  11.258   6.128  0.7612 -1.5225 -2.8636
  462MOL0     H62330  10.153  11.165   5.816  0.0526 -3.1965 -2.0243
  462MOL0     H62331   9.923  11.039   5.807 -0.3865 -0.9206  0.4885
  462MOL0     H62332   9.528  11.064   5.884  0.0628  1.0595  0.2619
  462MOL0     H62333   9.279  10.986   5.910  0.7051  0.3504  2.0362
  462MOL0     H62334   9.110  10.868   5.951  1.6999 -0.6097 -0.7287
  462MOL0     H62335   9.062  10.857   5.774 -0.2676  0.3818 -1.0165
  462MOL0     H62336   8.938  10.637   5.835  1.6152 -1.6557  1.1692
  462MOL0     H62337   8.963  10.678   6.004 -0.2869 -2.4110 -0.3304
  462MOL0     H62338   8.837  10.892   5.971 -0.7042  1.4519 -0.7013
  462MOL0     H62339   8.816  10.853   5.797  0.2125 -0.0841  0.0882
  462MOL0     H62340   8.696  10.686   6.021 -1.4933 -2.4957 -0.6704
  462MOL0     H62341   8.694  10.663   5.849  2.0044 -0.5267  1.5885
  462MOL0     H62342   8.475  10.781   5.933  1.7005 -1.5217 -0.9139
  462MOL0     H62343   8.558  10.870   5.809 -2.3307 -1.5904 -0.5520
  462MOL0     H62344   8.560  10.909   6.108 -0.4283 -0.3806 -0.1898
  462MOL0     H62345   8.673  10.999   6.010 -1.0504  3.1175  2.8470
  462MOL0     H62346   8.375  11.011   5.964  1.0688 -1.4311 -1.4640
  462MOL0     H62347   8.499  11.101   5.891  2.3687  2.3963  2.2990
  462MOL0     H62348   8.419  11.252   6.035  1.1803 -0.0155 -1.5628
  462MOL0     H62349   8.411  11.150   6.180  2.4522  2.0473  2.2313
  462MOL0     H62350   9.409  10.579   5.863 -0.8343  0.8307 -1.6219
  462MOL0     H62351   9.637  10.651   5.875 -0.7228 -0.4777  0.8855
  462MOL0     H62352   9.993  10.851   6.177 -0.1945 -1.4537 -1.3534
  462MOL0     H62353  10.214  10.966   6.202 -1.2966 -1.7545  0.8964
  462MOL0     H62354  10.629  11.181   4.968  4.3827 -0.3718 -0.0686
  462MOL0     H62355  10.518  10.977   4.886  0.5988  2.9883 -0.8502
  462MOL0     H62356  10.697  10.463   4.848 -0.5163 -1.4984 -0.3329
  462MOL0     H62357  10.658  10.240   4.842  0.2282  1.2969  0.4571
  462MOL0     H62358  10.242  10.034   4.952 -0.3249 -2.9983  0.4495
  462MOL0     H62359  10.319  10.100   5.095  1.9412 -1.4306  0.8355
  462MOL0     H62360  10.342   9.865   5.122  2.3981 -1.9815  1.4582
  462MOL0     H62361  10.494   9.931   5.063 -0.8981  2.6616 -0.8837
  462MOL0     H62362  10.443   9.854   4.842 -0.6722 -3.0468 -2.1488
  462MOL0     H62363  10.271   9.814   4.901  0.3546 -1.0292  0.6321
  462MOL0     H62364  10.422   9.605   4.874  0.0368  3.1037 -1.5026
  462MOL0     H62365  10.524   9.661   4.990 -1.1807 -2.0129  1.9643
  462MOL0     H62366  10.243   9.518   5.259  1.0343 -2.0291  0.9915
  462MOL0     H62367  10.290  10.302   5.057  1.1833  3.2582  2.8827
  462MOL0     H62368  10.261  10.627   5.024  0.0869 -0.0865 -0.2708
  462MOL0     H62369  10.212  10.487   5.117  1.8501 -2.2039  2.0161
  462MOL0     H62370  10.346  10.588   5.178 -1.9270  0.8291  1.0007
  463MOL0     O62371   1.205   5.561   1.376  0.2321  0.6231 -0.2827
  463MOL0     C62372   1.199   5.461   1.308 -0.8454  0.3461  0.5397
  463MOL0     O62373   1.292   5.366   1.301 -0.9331 -0.1567 -0.3712
  463MOL0     C62374   1.386   5.332   1.395 -0.1029  0.5693  0.2014
  463MOL0     C62375   1.438   5.206   1.374  0.1967 -0.3581 -0.5335
  463MOL0     C62376   1.523   5.147   1.462  0.3920  0.1828  0.2029
  463MOL0     C62377   1.573   5.217   1.576 -0.0465 -0.0280  1.1699
  463MOL0     O62378   1.667   5.163   1.666 -0.0209 -0.0347  0.0021
  463MOL0     C62379   1.730   5.252   1.760  0.5425  0.2395 -0.2457
  463MOL0     C62380   1.705   5.221   1.904  0.0194 -0.1151  0.9564
  463MOL0     C62381   1.788   5.096   1.939  0.4480  0.1854 -0.4278
  463MOL0     C62382   1.779   5.074   2.091  0.1907  0.0542 -0.0688
  463MOL0     C62383   1.846   4.944   2.144 -0.1054 -0.2358  0.6431
  463MOL0     C62384   2.000   4.957   2.122  0.1507 -0.8554  0.4007
  463MOL0     C62385   2.085   4.860   2.196  0.2757  0.5744 -0.6700
  463MOL0     C62386   2.065   4.864   2.352 -1.1372  0.3242 -0.2554
  463MOL0     N62387   1.971   4.769   2.409  0.3213  0.2106  0.6669
  463MOL0     C62388   1.961   4.635   2.383  0.0434 -0.0790  0.2493
  463MOL0     C62389   1.881   4.578   2.481 -0.3081  0.2219 -0.0445
  463MOL0     C62390   1.824   4.445   2.491  1.1965  0.0024 -0.1643
  463MOL0     C62391   1.663   4.435   2.501 -0.1391  0.0658  0.2578
  463MOL0     C62392   1.608   4.293   2.479 -0.7144  0.1055  0.5561
  463MOL0     C62393   1.655   4.180   2.573 -0.3396 -0.7356  0.5256
  463MOL0     O62394   1.795   4.156   2.545 -0.0303 -0.3559  0.5648
  463MOL0     C62395   1.872   4.073   2.620  0.5487  0.6072 -0.1569
  463MOL0     C62396   1.820   3.995   2.724  0.5031 -0.2869  0.2380
  463MOL0     C62397   1.889   3.895   2.789 -0.1476  1.0156 -0.7378
  463MOL0     C62398   2.016   3.865   2.752 -0.6027 -1.0586  0.6650
  463MOL0     C62399   2.097   3.768   2.825 -0.7871  0.5725  0.9656
  463MOL0     O62400   2.239   3.773   2.805  0.3683 -0.9379 -0.3130
  463MOL0     C62401   2.304   3.681   2.874  0.4022  0.0981 -0.5039
  463MOL0     C62402   2.383   3.586   2.812  0.0719 -0.0332 -0.7906
  463MOL0     C62403   2.451   3.486   2.890  0.0989 -0.1233  0.3092
  463MOL0     C62404   2.422   3.480   3.029  0.0544  0.4337 -0.2218
  463MOL0     O62405   2.464   3.376   3.107  0.4432  0.2899 -0.2993
  463MOL0     C62406   2.440   3.245   3.062  0.0372 -0.3105 -0.5949
  463MOL0     C62407   2.304   3.190   3.119 -0.0499  0.8514 -0.7733
  463MOL0     C62408   2.277   3.060   3.057  0.6690  0.5003 -0.0030
  463MOL0     C62409   2.358   2.941   3.112 -0.0457 -0.2628  0.0382
  463MOL0     C62410   2.324   2.825   3.024  0.0478 -0.4547 -0.3803
  463MOL0     C62411   2.404   2.700   3.077 -0.4016 -0.3623 -0.5845
  463MOL0     C62412   2.361   2.573   3.006 -0.1350  0.4667 -1.3548
  463MOL0     C62413   2.230   2.506   3.053  0.8713 -0.1317 -0.7523
  463MOL0    Cl62414   2.239   2.472   3.224  0.0977 -0.2148  0.1334
  463MOL0     C62415   2.361   3.589   3.091  0.6085  0.1339  0.0647
  463MOL0     C62416   2.315   3.689   3.013 -0.7967 -0.7956  0.3634
  463MOL0     O62417   2.030   3.696   2.892  0.6774  0.2744  0.2131
  463MOL0     C62418   2.076   3.934   2.644 -0.1054 -0.7111 -0.0850
  463MOL0     C62419   1.991   4.032   2.570 -0.6495 -0.1289 -0.0816
  463MOL0     N62420   1.855   4.679   2.576  0.1225  0.1806  0.0235
  463MOL0     N62421   1.903   4.792   2.526  0.3974 -0.3814  0.9089
  463MOL0     C62422   1.519   5.349   1.594  0.2899 -0.2018  0.7354
  463MOL0     C62423   1.424   5.411   1.507 -0.4385 -0.4807 -0.4757
  463MOL0     C62424   1.076   5.433   1.226 -0.1466 -1.0554 -0.2993
  463MOL0     C62425   1.039   5.304   1.209 -0.0329  0.3957  0.0400
  463MOL0     C62426   0.932   5.265   1.133 -0.2648 -0.4290  0.5174
  463MOL0     C62427   0.846   5.369   1.089 -0.3086 -0.3452 -0.8530
  463MOL0     O62428   0.725   5.332   1.037 -0.2383 -0.7002 -0.0491
  463MOL0     C62429   0.697   5.398   0.912  0.6888  0.4165  0.0917
  463MOL0     C62430   0.624   5.291   0.835  0.0202 -0.4262  0.1466
  463MOL0     C62431   0.686   5.266   0.696 -0.1305 -0.2690  0.2730
  463MOL0     C62432   0.573   5.204   0.609 -0.6246 -0.3476  0.0318
  463MOL0     C62433   0.633   5.183   0.478  0.0404  0.8200 -0.7985
  463MOL0     C62434   0.701   5.182   0.374 -0.0399  0.0308  0.1036
  463MOL0     C62435   0.878   5.500   1.110 -1.0961 -0.1359 -0.0100
  463MOL0     C62436   0.994   5.537   1.176 -0.1470  0.0148  0.9425
  463MOL0     C62437   1.020   5.681   1.188  0.5356  0.2704 -0.6363
  463MOL0     H62438   1.406   5.148   1.288 -0.5214  0.3132 -0.7284
  463MOL0     H62439   1.542   5.042   1.443 -0.8143 -0.8342  3.7935
  463MOL0     H62440   1.838   5.254   1.745  0.9262  4.7065  1.5647
  463MOL0     H62441   1.714   5.358   1.739 -1.2970  0.2493  0.9445
  463MOL0     H62442   1.601   5.187   1.905  0.0466 -0.4796 -1.6179
  463MOL0     H62443   1.717   5.300   1.979 -2.3014 -0.1684  1.4802
  463MOL0     H62444   1.891   5.124   1.915 -0.1930  1.0611 -2.2887
  463MOL0     H62445   1.761   5.005   1.885 -2.3954  0.6298  0.0896
  463MOL0     H62446   1.814   5.166   2.138  2.3205 -0.9962  0.5239
  463MOL0     H62447   1.672   5.075   2.116  1.0348  2.9219  4.4227
  463MOL0     H62448   1.817   4.946   2.249 -3.0115 -2.8010  0.0230
  463MOL0     H62449   1.812   4.849   2.102  4.4540 -1.7981 -0.1629
  463MOL0     H62450   2.024   4.967   2.015 -1.0060  3.0137  0.3272
  463MOL0     H62451   2.022   5.062   2.143 -1.4873  0.1452 -2.3176
  463MOL0     H62452   2.188   4.889   2.174 -0.0869  1.1000 -1.7003
  463MOL0     H62453   2.067   4.758   2.160 -1.9486  1.2130 -1.4844
  463MOL0     H62454   2.162   4.829   2.388 -1.5317 -0.5194  0.0093
  463MOL0     H62455   2.064   4.965   2.393  1.7017  1.6894 -3.1263
  463MOL0     H62456   2.005   4.575   2.304 -3.2322 -0.4119 -1.4871
  463MOL0     H62457   1.862   4.383   2.409 -1.0928  1.9415 -2.9359
  463MOL0     H62458   1.862   4.413   2.588  1.4232 -0.8687 -0.5217
  463MOL0     H62459   1.626   4.482   2.592 -2.2005  0.2762 -0.6177
  463MOL0     H62460   1.611   4.487   2.420 -0.9440  3.1048  2.5763
  463MOL0     H62461   1.630   4.255   2.378  1.4981 -5.7934  2.8300
  463MOL0     H62462   1.499   4.297   2.473 -0.6673 -0.4818 -1.9049
  463MOL0     H62463   1.603   4.089   2.544 -2.0742  1.2983 -3.3910
  463MOL0     H62464   1.629   4.211   2.675 -3.9015  1.9348 -1.0216
  463MOL0     H62465   1.718   4.008   2.760 -0.2934 -3.8379 -0.3809
  463MOL0     H62466   1.832   3.859   2.874 -0.2868  1.9805 -0.4131
  463MOL0     H62467   2.396   3.588   2.705 -0.9260  0.0962 -0.9193
  463MOL0     H62468   2.500   3.409   2.831  0.5447  0.5986 -0.2825
  463MOL0     H62469   2.442   3.240   2.953  0.4143  0.6551 -0.6385
  463MOL0     H62470   2.515   3.171   3.094 -0.6242 -0.5264  0.5103
  463MOL0     H62471   2.311   3.196   3.228 -3.9876  1.0485 -0.4042
  463MOL0     H62472   2.230   3.267   3.095  1.4771  2.1267 -1.5586
  463MOL0     H62473   2.169   3.045   3.067  0.7271 -0.4114 -0.5875
  463MOL0     H62474   2.294   3.060   2.949  2.6829 -1.2139  0.2449
  463MOL0     H62475   2.331   2.930   3.217 -0.0779  2.8193  0.4647
  463MOL0     H62476   2.465   2.965   3.116 -0.4163  1.7900 -0.9516
  463MOL0     H62477   2.330   2.837   2.915  1.5959  0.6796 -0.1944
  463MOL0     H62478   2.215   2.821   3.032  0.1165 -0.9878  0.3375
  463MOL0     H62479   2.512   2.718   3.074 -0.2033  0.1742  3.6714
  463MOL0     H62480   2.383   2.700   3.185  0.0497  0.8783 -0.4806
  463MOL0     H62481   2.430   2.490   3.024 -1.8776 -0.9134 -0.7329
  463MOL0     H62482   2.360   2.577   2.897 -0.8644 -2.9966 -1.5898
  463MOL0     H62483   2.158   2.579   3.013 -0.3809 -1.3322 -0.7493
  463MOL0     H62484   2.229   2.408   3.005  2.8056  0.9503 -3.1932
  463MOL0     H62485   2.352   3.582   3.199  0.5101 -2.4666 -0.0454
  463MOL0     H62486   2.266   3.766   3.072 -0.4177 -0.6175  0.4470
  463MOL0     H62487   2.179   3.909   2.622 -0.8569 -2.1070 -2.2837
  463MOL0     H62488   2.046   4.078   2.488  1.5270 -2.0164  0.2253
  463MOL0     H62489   1.541   5.406   1.684  1.7816  1.0989 -0.4110
  463MOL0     H62490   1.385   5.508   1.535  0.0882  0.6993 -3.4926
  463MOL0     H62491   1.107   5.230   1.251 -0.0046  0.5068  0.1908
  463MOL0     H62492   0.906   5.162   1.109 -2.3469  0.4719 -1.4210
  463MOL0     H62493   0.779   5.438   0.852  0.3159 -0.1240 -0.7986
  463MOL0     H62494   0.628   5.483   0.917  0.5478  0.3300 -0.3535
  463MOL0     H62495   0.520   5.318   0.815 -0.3665 -1.8167  0.2296
  463MOL0     H62496   0.620   5.194   0.884 -2.9577 -0.2013  0.4960
  463MOL0     H62497   0.768   5.195   0.709 -0.1355 -0.0062  1.9754
  463MOL0     H62498   0.734   5.353   0.650 -1.1819  0.0788 -0.1938
  463MOL0     H62499   0.545   5.107   0.653  1.3132 -2.0061 -2.1542
  463MOL0     H62500   0.484   5.266   0.598  0.3446  1.0435 -0.1377
  463MOL0     H62501   0.758   5.181   0.283 -0.8117 -2.3610 -0.4156
  463MOL0     H62502   0.817   5.575   1.059  0.8763  0.3433 -1.8054
  463MOL0     H62503   1.127   5.698   1.208  0.4521 -1.3728  1.7070
  463MOL0     H62504   0.990   5.735   1.098 -1.4426 -0.4968 -0.4694
  463MOL0     H62505   0.969   5.724   1.275  0.6524 -1.0902  0.1354
  464MOL0     O62506   1.812   9.862   0.163 -0.2664 -0.1571  0.4188
  464MOL0     C62507   1.842   9.886   0.284 -0.3723 -0.1654 -0.4575
  464MOL0     O62508   1.967   9.897   0.325  0.3948  0.2804 -1.2407
  464MOL0     C62509   2.060   9.896   0.232 -0.1466 -0.3200 -0.1976
  464MOL0     C62510   2.104  10.014   0.174 -0.5689 -0.2691  0.3042
  464MOL0     C62511   2.210  10.000   0.083  0.5848 -0.5085  0.4727
  464MOL0     C62512   2.278   9.878   0.056  0.3603 -0.0825 -0.4464
  464MOL0     O62513   2.384   9.886  -0.024 -0.1298 -0.6161  0.1682
  464MOL0     C62514   2.373   9.804  -0.140  0.2175 -0.7849  0.6815
  464MOL0     C62515   2.344   9.904  -0.260 -0.8664 -0.5507  0.4602
  464MOL0     C62516   2.358   9.827  -0.392  0.3461 -0.4587  0.1233
  464MOL0     C62517   2.337   9.934  -0.508  0.9052  1.1460 -1.2258
  464MOL0     C62518   2.323   9.865  -0.647  0.3873 -0.0915  0.5426
  464MOL0     C62519   2.340   9.967  -0.753 -0.1941 -0.3892 -0.2593
  464MOL0     C62520   2.339   9.883  -0.884  0.0235  0.1799  0.4570
  464MOL0     C62521   2.363   9.977  -1.004 -1.2120 -0.2881  0.6704
  464MOL0     N62522   2.245  10.007  -1.089 -0.2475 -0.3562  0.2334
  464MOL0     C62523   2.129  10.052  -1.029 -0.5852  0.0800  0.4974
  464MOL0     C62524   2.052  10.082  -1.140 -0.4414 -0.2832  0.2840
  464MOL0     C62525   1.911  10.135  -1.142 -0.0320  0.8625 -0.0984
  464MOL0     C62526   1.814  10.036  -1.077 -0.9788  0.0104  0.3076
  464MOL0     C62527   1.675  10.107  -1.046  0.4118 -0.3550  0.2323
  464MOL0     C62528   1.565  10.009  -1.072  0.0856 -0.1444 -0.2025
  464MOL0     O62529   1.570   9.899  -0.973  0.6455 -0.7630 -0.1376
  464MOL0     C62530   1.467   9.817  -0.952 -0.3667 -0.1883  0.6800
  464MOL0     C62531   1.393   9.768  -1.054  0.0071 -0.2299 -1.1267
  464MOL0     C62532   1.288   9.676  -1.023  0.3486  0.0409 -0.4459
  464MOL0     C62533   1.240   9.642  -0.895  0.1434 -0.2423 -0.0439
  464MOL0     C62534   1.120   9.556  -0.888 -0.3380  0.1539  0.1524
  464MOL0     O62535   1.091   9.496  -0.769 -0.2940 -0.5501 -0.5293
  464MOL0     C62536   0.978   9.415  -0.746 -0.0075  0.6815  0.6399
  464MOL0     C62537   0.855   9.431  -0.811  0.3426  0.0713  0.0756
  464MOL0     C62538   0.733   9.372  -0.761  0.0018  0.2254 -0.3760
  464MOL0     C62539   0.746   9.273  -0.661 -0.5076 -0.0529 -0.6798
  464MOL0     O62540   0.632   9.211  -0.606 -0.2980  0.6635 -0.2845
  464MOL0     C62541   0.522   9.191  -0.689  0.5913  0.3359  0.2027
  464MOL0     C62542   0.428   9.105  -0.602  0.4562 -0.2817 -0.1842
  464MOL0     C62543   0.489   8.970  -0.575  0.4998 -0.4597  0.2960
  464MOL0     C62544   0.371   8.885  -0.520  0.2838  0.4561 -0.4252
  464MOL0     C62545   0.433   8.776  -0.438  0.4647 -0.3826 -0.2862
  464MOL0     C62546   0.329   8.677  -0.399 -0.4934 -0.3307  0.1790
  464MOL0     C62547   0.359   8.616  -0.268  0.4034 -0.5262  0.5307
  464MOL0     C62548   0.316   8.711  -0.155 -0.4765  0.3450 -0.9135
  464MOL0    Cl62549   0.137   8.752  -0.172  0.0497 -0.5159  0.0736
  464MOL0     C62550   0.867   9.247  -0.598 -0.5997 -0.4715  0.3149
  464MOL0     C62551   0.984   9.323  -0.642  1.0001  1.3007  0.4770
  464MOL0     O62552   1.057   9.547  -0.989 -0.2198 -0.8050  0.6899
  464MOL0     C62553   1.329   9.689  -0.794 -0.7245  1.4828  1.0191
  464MOL0     C62554   1.450   9.765  -0.821  1.7296 -0.4378 -0.6773
  464MOL0     N62555   2.121  10.055  -1.258 -0.3735  0.1921 -0.0669
  464MOL0     N62556   2.235  10.009  -1.222  0.1463 -0.1100  1.1468
  464MOL0     C62557   2.237   9.763   0.128  0.3550 -0.4992 -0.2427
  464MOL0     C62558   2.131   9.776   0.213  0.0427  0.0941  0.1331
  464MOL0     C62559   1.735   9.914   0.386  0.1485 -0.7733 -0.0403
  464MOL0     C62560   1.772   9.980   0.507  0.3538  0.1251 -0.1011
  464MOL0     C62561   1.683  10.037   0.602  0.1822  0.2648  1.1921
  464MOL0     C62562   1.546  10.029   0.578 -0.1684  0.1669 -0.0608
  464MOL0     O62563   1.451  10.094   0.658 -0.4303 -0.4196  0.6024
  464MOL0     C62564   1.355  10.009   0.714  0.1276  1.2175 -0.2192
  464MOL0     C62565   1.280  10.064   0.834  0.3944 -0.1159  1.0800
  464MOL0     C62566   1.194  10.181   0.796 -0.3157  0.0943  0.7685
  464MOL0     C62567   1.094  10.210   0.911  0.0199  0.4440 -0.2838
  464MOL0     C62568   0.985  10.299   0.856  0.5215  0.3326 -0.3300
  464MOL0     C62569   0.902  10.385   0.825 -0.0306 -0.2408  0.5795
  464MOL0     C62570   1.502   9.944   0.469  0.4578 -0.3375 -0.1686
  464MOL0     C62571   1.592   9.895   0.367  0.9653 -0.2564  0.0377
  464MOL0     C62572   1.527   9.822   0.251  1.7478 -0.0855 -0.2195
  464MOL0     H62573   2.068  10.113   0.198  2.3886  0.7992  0.7613
  464MOL0     H62574   2.257  10.085   0.035 -0.5404  0.5622  1.2243
  464MOL0     H62575   2.464   9.746  -0.158 -0.3517 -1.7587  0.8469
  464MOL0     H62576   2.286   9.738  -0.137 -1.7732  1.5133 -1.3294
  464MOL0     H62577   2.415   9.987  -0.247  2.0157 -3.1567  2.7849
  464MOL0     H62578   2.241   9.939  -0.255 -0.0357  1.9086  1.8767
  464MOL0     H62579   2.279   9.753  -0.403 -0.3662  0.3118 -0.0217
  464MOL0     H62580   2.454   9.774  -0.391  0.9512  0.5441 -1.3274
  464MOL0     H62581   2.245   9.993  -0.493 -0.8873 -0.6349 -4.1712
  464MOL0     H62582   2.418  10.007  -0.509 -0.4488  3.0999  3.5735
  464MOL0     H62583   2.396   9.783  -0.649  0.9718  0.3460  2.0369
  464MOL0     H62584   2.227   9.814  -0.656 -0.2852  0.8833  1.8879
  464MOL0     H62585   2.264  10.045  -0.759  0.6167  0.3342 -1.4581
  464MOL0     H62586   2.437  10.017  -0.741  0.3250 -0.6798 -2.6787
  464MOL0     H62587   2.243   9.834  -0.896 -1.1539  2.7761 -1.8672
  464MOL0     H62588   2.417   9.808  -0.873  0.3566  0.5739  0.8484
  464MOL0     H62589   2.404  10.073  -0.970  0.4836 -0.2410 -1.2688
  464MOL0     H62590   2.439   9.927  -1.064 -0.5323  0.2969  1.0351
  464MOL0     H62591   2.112  10.052  -0.921 -0.4222 -1.1139  0.5337
  464MOL0     H62592   1.911  10.227  -1.083 -1.1938  0.0328  1.2670
  464MOL0     H62593   1.882  10.159  -1.245 -1.0520  2.0578  0.4443
  464MOL0     H62594   1.789   9.958  -1.150  1.1880 -0.5435  0.0826
  464MOL0     H62595   1.861  10.006  -0.983  2.6192 -1.6052 -1.7901
  464MOL0     H62596   1.662  10.191  -1.115 -0.4204  2.5595  3.6758
  464MOL0     H62597   1.676  10.146  -0.944  0.6521  1.4851 -0.4445
  464MOL0     H62598   1.568   9.975  -1.176 -2.0605  0.2995 -0.4515
  464MOL0     H62599   1.466  10.054  -1.062 -0.0431 -0.8635  2.3337
  464MOL0     H62600   1.403   9.782  -1.161 -2.7338 -1.9038 -1.7198
  464MOL0     H62601   1.225   9.632  -1.100 -0.5603 -0.0234  0.3156
  464MOL0     H62602   0.846   9.501  -0.894  2.4521  1.1531  0.6791
  464MOL0     H62603   0.639   9.402  -0.804  0.7859  0.2600 -2.1294
  464MOL0     H62604   0.471   9.285  -0.712 -2.0511  0.1677  4.2202
  464MOL0     H62605   0.557   9.142  -0.780  0.5479 -3.4430  2.0166
  464MOL0     H62606   0.415   9.155  -0.506  0.5732 -2.1166  0.8314
  464MOL0     H62607   0.331   9.091  -0.652  0.1564 -1.0656  0.6000
  464MOL0     H62608   0.536   8.917  -0.659 -2.4685 -0.2628 -1.6225
  464MOL0     H62609   0.569   8.973  -0.500  1.3983 -0.4710 -0.6347
  464MOL0     H62610   0.304   8.848  -0.598  0.0466  1.4682 -0.7108
  464MOL0     H62611   0.317   8.947  -0.448  1.9627  2.4303 -0.7765
  464MOL0     H62612   0.480   8.818  -0.349  0.1762 -2.6713  1.0113
  464MOL0     H62613   0.508   8.719  -0.494  0.0075  0.3521 -1.7005
  464MOL0     H62614   0.238   8.738  -0.393 -0.7061 -0.6012 -0.2792
  464MOL0     H62615   0.304   8.606  -0.479 -0.1176 -0.2462 -0.0217
  464MOL0     H62616   0.467   8.598  -0.269  0.1939 -2.0563 -1.4101
  464MOL0     H62617   0.300   8.524  -0.262 -0.3970 -0.4372 -3.2495
  464MOL0     H62618   0.342   8.676  -0.055  1.2465 -0.1111 -1.4894
  464MOL0     H62619   0.375   8.803  -0.153 -0.5271  0.3656 -0.2472
  464MOL0     H62620   0.872   9.181  -0.512  1.9061 -2.0221 -0.9180
  464MOL0     H62621   1.070   9.311  -0.577 -1.3679 -0.0658  3.6067
  464MOL0     H62622   1.323   9.653  -0.691  4.9417  0.2278  1.2497
  464MOL0     H62623   1.517   9.799  -0.743  2.5622  0.5432 -1.7826
  464MOL0     H62624   2.269   9.661   0.113 -0.3545 -0.3783 -3.2233
  464MOL0     H62625   2.104   9.682   0.260 -0.4886 -0.1799 -0.6952
  464MOL0     H62626   1.874  10.018   0.515  0.6878 -0.7036 -0.4078
  464MOL0     H62627   1.721  10.100   0.681  2.3103 -0.4681  0.8111
  464MOL0     H62628   1.398   9.920   0.761 -0.1545  1.8485  1.2910
  464MOL0     H62629   1.284   9.974   0.639 -0.0501 -2.9403  1.6273
  464MOL0     H62630   1.351  10.089   0.913  2.2273 -2.1321  0.1915
  464MOL0     H62631   1.218   9.981   0.870 -2.0445  1.2602  0.2851
  464MOL0     H62632   1.142  10.157   0.703 -0.0574  4.9691 -0.9388
  464MOL0     H62633   1.261  10.266   0.783 -1.5494  1.4241  2.5029
  464MOL0     H62634   1.035  10.130   0.957  0.8510  0.9757  1.8393
  464MOL0     H62635   1.149  10.257   0.993  3.4517  2.5629 -3.4374
  464MOL0     H62636   0.840  10.469   0.801  0.5166 -0.3198 -1.2532
  464MOL0     H62637   1.397   9.928   0.447  0.6326 -0.4535 -0.9204
  464MOL0     H62638   1.545   9.858   0.149 -1.3930 -0.8168 -1.1348
  464MOL0     H62639   1.580   9.727   0.243  4.6597  1.3666  0.6398
  464MOL0     H62640   1.418   9.824   0.267  1.8472  4.7008  1.6044
  465MOL0     O62641   7.615   1.225   7.518 -0.5462 -0.0579  0.2064
  465MOL0     C62642   7.679   1.218   7.622 -0.0142 -0.6542  0.1198
  465MOL0     O62643   7.786   1.131   7.648  0.3364 -0.0430 -0.6429
  465MOL0     C62644   7.866   1.095   7.548 -0.2548 -0.2974 -0.1476
  465MOL0     C62645   7.862   1.122   7.405 -0.5530 -0.1220  0.5211
  465MOL0     C62646   7.957   1.073   7.312  0.0447  0.2983 -0.4496
  465MOL0     C62647   8.052   0.984   7.345  0.1306 -0.0695 -0.5903
  465MOL0     O62648   8.146   0.937   7.263 -0.2066 -0.4171  0.0860
  465MOL0     C62649   8.244   1.032   7.222 -0.8470  0.0999 -0.0672
  465MOL0     C62650   8.340   1.046   7.342  0.3165  0.4539  0.1128
  465MOL0     C62651   8.463   1.118   7.304 -0.1223 -0.0815 -0.1141
  465MOL0     C62652   8.563   1.063   7.196  1.4110  0.1595  0.5184
  465MOL0     C62653   8.671   1.173   7.165  0.3008  0.3799 -0.8004
  465MOL0     C62654   8.722   1.157   7.028 -0.4962 -0.9490  0.5734
  465MOL0     C62655   8.768   1.007   6.981  0.1870  0.0506  0.1109
  465MOL0     C62656   8.871   0.934   7.071 -0.2969 -0.0927  0.5458
  465MOL0     N62657   8.989   1.007   7.072  0.3339  0.2664 -1.2719
  465MOL0     C62658   9.099   0.990   6.980  0.3180 -0.5329  0.0091
  465MOL0     C62659   9.187   1.097   7.005 -0.3930  0.7217  0.0584
  465MOL0     C62660   9.314   1.126   6.925  0.2527 -0.2411 -0.1121
  465MOL0     C62661   9.434   1.178   7.008  1.0947 -0.2534 -0.3480
  465MOL0     C62662   9.568   1.151   6.939 -0.6206  0.1550 -0.4279
  465MOL0     C62663   9.686   1.199   7.030  0.1474  0.1994 -0.5011
  465MOL0     O62664   9.812   1.202   6.955  0.2450  1.1348 -0.5132
  465MOL0     C62665   9.891   1.091   6.981 -0.4188 -0.3073  1.3382
  465MOL0     C62666  10.026   1.122   6.969  0.6486 -0.2145 -1.0544
  465MOL0     C62667  10.127   1.033   6.994 -0.6544 -0.1893 -0.1012
  465MOL0     C62668  10.095   0.901   7.020  1.0552 -0.3133 -0.0441
  465MOL0     C62669  10.202   0.806   7.044 -0.3581  0.7897 -0.5646
  465MOL0     O62670  10.326   0.852   7.028  0.3061 -0.4634 -0.1291
  465MOL0     C62671  10.430   0.808   7.107 -1.0670 -0.4853  0.0932
  465MOL0     C62672  10.432   0.697   7.198 -0.3160  0.3280  0.6370
  465MOL0     C62673  10.557   0.668   7.252  1.1859 -0.9241 -0.6417
  465MOL0     C62674  10.675   0.743   7.229 -0.2424  0.7471 -0.4734
  465MOL0     O62675  10.792   0.731   7.305 -0.1346 -0.5626 -0.4479
  465MOL0     C62676  10.848   0.600   7.332 -0.1995  0.8457 -0.4794
  465MOL0     C62677  10.914   0.597   7.460 -0.5559  0.8045 -0.9963
  465MOL0     C62678  11.028   0.502   7.473  0.3904  0.0026  0.4512
  465MOL0     C62679  11.081   0.500   7.619 -0.3955 -0.1799  0.2904
  465MOL0     C62680  11.225   0.446   7.627  0.4965 -0.8488  0.4450
  465MOL0     C62681  11.339   0.549   7.594  0.2030  0.4133 -0.1572
  465MOL0     C62682  11.357   0.655   7.708  0.2454  0.1890  0.2733
  465MOL0     C62683  11.374   0.800   7.666 -0.2957  0.5860 -0.7868
  465MOL0    Cl62684  11.537   0.802   7.588 -0.4819  0.0893  0.7019
  465MOL0     C62685  10.660   0.852   7.148 -1.1404 -0.4614  0.0607
  465MOL0     C62686  10.544   0.877   7.081 -0.1920  1.0477  0.3984
  465MOL0     O62687  10.167   0.690   7.076  0.0443  0.5289 -0.8738
  465MOL0     C62688   9.956   0.864   7.024  0.9412 -0.5779 -0.9431
  465MOL0     C62689   9.854   0.965   7.009  0.2782  0.2896 -0.7284
  465MOL0     N62690   9.121   1.173   7.103 -0.3915 -0.9964 -1.0499
  465MOL0     N62691   9.011   1.121   7.144  0.7127  0.3425 -0.1209
  465MOL0     C62692   8.048   0.939   7.476 -0.4478  0.4628  0.5941
  465MOL0     C62693   7.964   0.998   7.580  0.8481  0.3225  0.6788
  465MOL0     C62694   7.615   1.288   7.731 -0.3231 -0.4418 -0.3360
  465MOL0     C62695   7.550   1.220   7.838 -0.8366 -0.2733 -0.1548
  465MOL0     C62696   7.500   1.292   7.946 -0.0916  0.2756 -0.0783
  465MOL0     C62697   7.499   1.430   7.946 -0.7610 -0.6564  0.3066
  465MOL0     O62698   7.450   1.493   8.058 -0.5608  0.5128 -0.6183
  465MOL0     C62699   7.487   1.625   8.085 -0.4509 -0.0366 -0.2332
  465MOL0     C62700   7.388   1.741   8.056 -0.6329 -0.4208  0.4050
  465MOL0     C62701   7.241   1.718   8.097  0.0111  0.2633  0.2357
  465MOL0     C62702   7.147   1.826   8.052  0.2800  0.4008  1.2189
  465MOL0     C62703   7.013   1.812   8.116 -0.1254 -0.1427 -0.6777
  465MOL0     C62704   6.903   1.821   8.167  0.1872 -0.2243 -0.6784
  465MOL0     C62705   7.560   1.502   7.840  0.1049  1.3770  0.3191
  465MOL0     C62706   7.624   1.427   7.733 -0.8446 -0.1023 -0.0769
  465MOL0     C62707   7.719   1.502   7.642  0.2045 -0.0300 -0.4149
  465MOL0     H62708   7.775   1.178   7.372 -0.9385 -1.9253 -1.7207
  465MOL0     H62709   7.959   1.091   7.205 -0.5034 -1.1253 -0.7143
  465MOL0     H62710   8.299   0.994   7.136  1.7567 -0.5306  1.7650
  465MOL0     H62711   8.190   1.125   7.202  1.5335  1.7305  0.6684
  465MOL0     H62712   8.381   0.948   7.370  1.3051  0.2869 -1.7408
  465MOL0     H62713   8.286   1.101   7.419 -0.8589  0.7569 -0.8903
  465MOL0     H62714   8.520   1.136   7.396 -0.9375 -0.8237  0.5544
  465MOL0     H62715   8.439   1.218   7.267  2.2192  1.1108  1.3413
  465MOL0     H62716   8.621   0.978   7.233 -2.0133 -1.2501  3.1945
  465MOL0     H62717   8.508   1.042   7.104  0.2201 -0.5297  1.3569
  465MOL0     H62718   8.618   1.268   7.177 -1.2324 -0.7074  1.7715
  465MOL0     H62719   8.758   1.161   7.231  0.5844  1.4161 -0.9567
  465MOL0     H62720   8.644   1.188   6.960 -0.2594  1.4254  1.3059
  465MOL0     H62721   8.793   1.239   7.016  0.8434 -1.9792  1.1281
  465MOL0     H62722   8.801   1.017   6.877  0.7377  1.4391  0.3854
  465MOL0     H62723   8.686   0.935   6.971  1.2264 -0.9619 -1.6222
  465MOL0     H62724   8.836   0.931   7.175 -2.8668  1.5059 -0.1972
  465MOL0     H62725   8.876   0.831   7.035  0.2866 -0.4291  1.5421
  465MOL0     H62726   9.113   0.916   6.902 -2.5282 -0.3627 -0.7810
  465MOL0     H62727   9.341   1.031   6.878  0.8078  0.1367 -0.5759
  465MOL0     H62728   9.304   1.204   6.848 -0.3619 -0.6064 -0.4086
  465MOL0     H62729   9.428   1.283   7.037  0.8536 -0.0351 -1.1429
  465MOL0     H62730   9.431   1.130   7.106 -1.2325  1.8936  0.7643
  465MOL0     H62731   9.569   1.217   6.852 -3.4394  2.6973  1.2646
  465MOL0     H62732   9.584   1.048   6.907 -3.2638 -0.4160 -0.1801
  465MOL0     H62733   9.698   1.148   7.126 -1.3535  0.0635 -0.3608
  465MOL0     H62734   9.666   1.302   7.063  2.6865  1.5118 -2.6778
  465MOL0     H62735  10.051   1.226   6.949  0.4050  0.0854  0.1312
  465MOL0     H62736  10.232   1.060   6.988 -0.5311 -0.4476  0.8319
  465MOL0     H62737  10.348   0.637   7.232  0.0851  0.2050  1.4195
  465MOL0     H62738  10.556   0.584   7.320  2.9128 -2.8825 -2.8580
  465MOL0     H62739  10.770   0.524   7.333 -0.8024  1.3735 -2.6679
  465MOL0     H62740  10.918   0.573   7.252 -1.7877  0.3487 -1.7675
  465MOL0     H62741  10.932   0.694   7.505  0.0056  0.3702 -0.2591
  465MOL0     H62742  10.846   0.548   7.530 -0.9622  0.2236 -1.7776
  465MOL0     H62743  10.981   0.407   7.445 -0.3444 -0.0654  1.8358
  465MOL0     H62744  11.102   0.528   7.398 -1.0921  2.0543 -0.3734
  465MOL0     H62745  11.013   0.446   7.687 -2.9741 -0.1579 -2.0936
  465MOL0     H62746  11.079   0.603   7.656 -0.1975  0.1671 -0.6433
  465MOL0     H62747  11.245   0.361   7.561 -2.8185 -0.3161 -1.4761
  465MOL0     H62748  11.234   0.419   7.732  0.4716 -1.1430  0.3713
  465MOL0     H62749  11.429   0.488   7.579  1.7923  1.3414  4.1046
  465MOL0     H62750  11.313   0.613   7.510 -2.8567  2.5078  2.1228
  465MOL0     H62751  11.444   0.621   7.766 -1.2494  1.4159  3.4835
  465MOL0     H62752  11.274   0.652   7.780  0.4804 -2.1097  0.5209
  465MOL0     H62753  11.287   0.836   7.611 -1.3258  3.1711  2.2437
  465MOL0     H62754  11.377   0.858   7.759 -1.7424 -1.3452  0.5693
  465MOL0     H62755  10.758   0.899   7.149 -0.2376 -2.2807 -0.1673
  465MOL0     H62756  10.555   0.962   7.015  0.4779  0.1290 -0.6934
  465MOL0     H62757   9.921   0.763   7.044 -3.0933  0.5789 -1.3465
  465MOL0     H62758   9.749   0.943   7.026  0.5703 -2.5716 -1.9872
  465MOL0     H62759   8.122   0.863   7.500  1.8207  0.6477 -4.4704
  465MOL0     H62760   7.969   0.952   7.678  1.6654  0.2930  0.6342
  465MOL0     H62761   7.547   1.112   7.830  0.4098 -0.2823 -0.6839
  465MOL0     H62762   7.461   1.237   8.031  0.3655 -1.9270 -1.1952
  465MOL0     H62763   7.589   1.652   8.058  1.1823 -0.0149  4.9160
  465MOL0     H62764   7.497   1.619   8.194 -0.4630 -0.3274 -0.2468
  465MOL0     H62765   7.398   1.758   7.949  0.5815  1.2866  0.7511
  465MOL0     H62766   7.445   1.824   8.100  3.9700 -2.3531 -1.3377
  465MOL0     H62767   7.238   1.696   8.205 -1.1409 -0.2573  0.1123
  465MOL0     H62768   7.208   1.626   8.050 -0.4442 -0.5153  1.9752
  465MOL0     H62769   7.170   1.931   8.074 -1.6263  0.5756  2.6084
  465MOL0     H62770   7.147   1.816   7.943 -1.7386 -1.4805  1.3184
  465MOL0     H62771   6.804   1.842   8.203 -0.6288 -1.2141 -2.2308
  465MOL0     H62772   7.558   1.610   7.829 -1.2227  1.2976 -0.5068
  465MOL0     H62773   7.739   1.603   7.679  1.0933  0.7618 -2.8646
  465MOL0     H62774   7.813   1.446   7.631  1.5377  2.2786 -1.5124
  465MOL0     H62775   7.667   1.514   7.547 -0.6780 -1.3790 -0.1307
  466MOL0     O62776   7.146  10.485   0.729 -0.6012  0.2161  0.3762
  466MOL0     C62777   7.091  10.470   0.622  0.4435  0.7137 -0.4714
  466MOL0     O62778   7.102  10.552   0.515 -0.5315 -0.4620 -0.2563
  466MOL0     C62779   7.194  10.655   0.506  0.4362  0.1011 -0.3027
  466MOL0     C62780   7.288  10.663   0.405 -1.3398  0.8402  0.7483
  466MOL0     C62781   7.399  10.755   0.405  0.6578 -0.5603 -0.1074
  466MOL0     C62782   7.397  10.854   0.505 -0.9013  0.0265 -0.0692
  466MOL0     O62783   7.494  10.957   0.521 -0.0590  0.6250 -0.9317
  466MOL0     C62784   7.612  10.953   0.435  0.2375  0.7595  0.1232
  466MOL0     C62785   7.697  11.077   0.449  0.2372 -1.2314  0.4978
  466MOL0     C62786   7.762  11.078   0.589 -0.5849  0.5822  0.1621
  466MOL0     C62787   7.847  11.209   0.612  0.1497  0.3679  0.2524
  466MOL0     C62788   7.956  11.178   0.717  1.1535  0.1009 -0.6699
  466MOL0     C62789   8.053  11.295   0.741  0.6280  0.7069 -0.9548
  466MOL0     C62790   8.141  11.332   0.619  0.7819  0.2464 -0.0305
  466MOL0     C62791   8.251  11.440   0.644 -0.0203  0.6914  0.6187
  466MOL0     N62792   8.352  11.446   0.535 -0.3567 -0.5484 -0.2348
  466MOL0     C62793   8.484  11.444   0.568 -0.2396 -0.0456  0.8105
  466MOL0     C62794   8.540  11.475   0.450 -0.6440  0.0811  0.7634
  466MOL0     C62795   8.687  11.481   0.429  0.9585 -0.1600  0.7358
  466MOL0     C62796   8.735  11.613   0.387  0.9645 -0.1073  0.7833
  466MOL0     C62797   8.773  11.705   0.501  1.3518  0.8036 -0.7876
  466MOL0     C62798   8.900  11.785   0.470 -0.1654 -0.4334  0.2265
  466MOL0     O62799   8.892  11.866   0.344 -0.0417  0.5717  0.0778
  466MOL0     C62800   8.986  11.966   0.315  0.6161  0.2825 -0.3845
  466MOL0     C62801   9.109  11.982   0.375  0.6669 -0.6722  0.3205
  466MOL0     C62802   9.190  12.103   0.351  0.4054 -0.3237 -0.2900
  466MOL0     C62803   9.144  12.194   0.253 -0.7103 -0.0979  0.9037
  466MOL0     C62804   9.234  12.302   0.207 -0.1635  0.7260 -0.1908
  466MOL0     O62805   9.177  12.388   0.122  0.2137  0.2591  0.2044
  466MOL0     C62806   9.227  12.509   0.099 -0.6726  0.5628  0.2952
  466MOL0     C62807   9.202  12.559  -0.025  0.4155 -0.6706  0.9850
  466MOL0     C62808   9.243  12.692  -0.064 -0.1150 -0.5288  0.1871
  466MOL0     C62809   9.311  12.769   0.030 -0.3748 -0.4197  0.6783
  466MOL0     O62810   9.361  12.896  -0.007 -0.4649  0.2225 -0.0406
  466MOL0     C62811   9.505  12.917   0.004  0.2510 -0.2047 -0.4116
  466MOL0     C62812   9.546  13.040  -0.075  0.0939 -0.6172  0.4812
  466MOL0     C62813   9.689  13.033  -0.136  0.4812  0.5592 -0.4536
  466MOL0     C62814   9.714  13.166  -0.224 -1.6600 -0.5472 -0.3433
  466MOL0     C62815   9.860  13.168  -0.288 -0.7514 -0.2922 -0.6640
  466MOL0     C62816   9.866  13.052  -0.392 -0.0958 -0.1296 -0.2745
  466MOL0     C62817  10.022  13.019  -0.433 -0.1774 -0.4924  1.3340
  466MOL0     C62818  10.101  13.149  -0.462  0.3480 -0.2127  0.0712
  466MOL0    Cl62819  10.262  13.086  -0.520 -0.1744  0.2261 -0.2273
  466MOL0     C62820   9.348  12.717   0.156  0.3430  0.1615 -0.5519
  466MOL0     C62821   9.298  12.587   0.187  0.1077  0.3811 -0.0114
  466MOL0     O62822   9.352  12.295   0.245  0.6253  0.0666  0.6237
  466MOL0     C62823   9.022  12.169   0.187  0.9933  1.0738 -0.3878
  466MOL0     C62824   8.948  12.058   0.225  0.3176 -0.0744  0.3934
  466MOL0     N62825   8.451  11.488   0.347 -0.0144 -0.0129 -0.4279
  466MOL0     N62826   8.332  11.452   0.398 -0.2231 -0.9187  0.0872
  466MOL0     C62827   7.292  10.857   0.592 -0.3659 -0.5477 -0.3612
  466MOL0     C62828   7.201  10.757   0.600  0.1955 -0.8947  0.4859
  466MOL0     C62829   6.978  10.369   0.637  0.4913 -0.4981 -0.8595
  466MOL0     C62830   6.856  10.399   0.574 -1.6992 -0.2352  0.4068
  466MOL0     C62831   6.741  10.323   0.589  0.7752  0.5561 -0.6487
  466MOL0     C62832   6.752  10.202   0.666 -0.0407  0.7925 -0.6173
  466MOL0     O62833   6.644  10.117   0.680 -0.5661  0.0942  0.0441
  466MOL0     C62834   6.520  10.183   0.708 -0.2230  0.1629 -0.4145
  466MOL0     C62835   6.426  10.082   0.781 -1.2730 -0.3425  0.7542
  466MOL0     C62836   6.281  10.108   0.820 -0.2181 -0.4324 -0.0443
  466MOL0     C62837   6.258  10.184   0.952 -0.2528 -0.2444 -0.1704
  466MOL0     C62838   6.315  10.318   0.954 -0.0836 -0.1255  0.4945
  466MOL0     C62839   6.373  10.425   0.960  0.4734  0.1745 -0.9040
  466MOL0     C62840   6.875  10.159   0.715 -0.3518  0.0594 -0.8133
  466MOL0     C62841   6.989  10.242   0.706  0.1864  0.0651  0.5622
  466MOL0     C62842   7.104  10.200   0.796 -0.3342  0.8597 -0.6324
  466MOL0     H62843   7.295  10.586   0.328  1.0312  2.7078 -1.1037
  466MOL0     H62844   7.471  10.760   0.324 -1.6889  0.9906 -2.2640
  466MOL0     H62845   7.671  10.868   0.468 -1.0544 -0.4186 -0.5034
  466MOL0     H62846   7.587  10.930   0.331  3.7278  1.6891 -1.0407
  466MOL0     H62847   7.632  11.164   0.452  1.5933 -0.2279  1.7009
  466MOL0     H62848   7.765  11.085   0.363 -0.5430 -2.2083 -0.2402
  466MOL0     H62849   7.835  10.997   0.581 -0.1705  0.9877 -0.2743
  466MOL0     H62850   7.684  11.055   0.661  0.9547  3.7016  3.0545
  466MOL0     H62851   7.898  11.235   0.519 -1.2006 -0.7162 -0.8378
  466MOL0     H62852   7.786  11.295   0.643  0.1200  1.4827 -2.6187
  466MOL0     H62853   7.904  11.150   0.808 -0.7734 -0.2071 -1.8098
  466MOL0     H62854   8.005  11.083   0.693  0.6800  0.7321 -5.1340
  466MOL0     H62855   7.997  11.384   0.771  1.6783  1.4482 -1.1670
  466MOL0     H62856   8.127  11.272   0.819  1.1498 -0.7866 -1.8468
  466MOL0     H62857   8.080  11.372   0.538 -0.3997 -0.4405  0.4963
  466MOL0     H62858   8.201  11.244   0.595  1.7148  1.0218 -0.6278
  466MOL0     H62859   8.198  11.536   0.649 -3.5501 -0.9003 -2.2028
  466MOL0     H62860   8.299  11.426   0.742 -2.1038  1.3720  1.8015
  466MOL0     H62861   8.537  11.419   0.660  1.7744 -3.0442 -0.9654
  466MOL0     H62862   8.740  11.469   0.524  2.5991 -0.5833 -0.1879
  466MOL0     H62863   8.723  11.408   0.356 -3.3300 -0.9424 -0.8384
  466MOL0     H62864   8.821  11.601   0.319 -0.9249 -1.5954 -1.5205
  466MOL0     H62865   8.665  11.674   0.330  1.9695  0.0948 -0.2875
  466MOL0     H62866   8.784  11.651   0.596  3.7802 -1.8686 -2.4209
  466MOL0     H62867   8.700  11.787   0.510  2.6024  1.9853 -1.0427
  466MOL0     H62868   8.974  11.707   0.453 -1.6387 -1.9740  0.6411
  466MOL0     H62869   8.925  11.848   0.556  0.0621  0.7693 -0.6945
  466MOL0     H62870   9.141  11.927   0.463  0.5725  0.0928  0.8462
  466MOL0     H62871   9.281  12.131   0.404 -1.3104  0.0763  2.6329
  466MOL0     H62872   9.145  12.502  -0.098 -1.6033  3.1676 -0.7308
  466MOL0     H62873   9.231  12.732  -0.165  0.4850 -0.5540  0.1041
  466MOL0     H62874   9.536  12.940   0.106 -0.2854 -0.4232 -0.1960
  466MOL0     H62875   9.563  12.828  -0.023  1.2880  0.8045 -1.6567
  466MOL0     H62876   9.474  13.053  -0.157 -0.9215 -0.5898  1.3596
  466MOL0     H62877   9.561  13.124  -0.007 -1.0889 -0.8966  1.1205
  466MOL0     H62878   9.754  13.037  -0.048 -0.6216  4.4101  0.3662
  466MOL0     H62879   9.690  12.937  -0.189 -0.1641 -1.3292  2.6679
  466MOL0     H62880   9.698  13.252  -0.159 -0.7580 -1.8503  1.6871
  466MOL0     H62881   9.647  13.175  -0.310 -0.1727  2.2648 -1.3423
  466MOL0     H62882   9.942  13.154  -0.217  0.1093  1.6777 -1.2169
  466MOL0     H62883   9.880  13.269  -0.325  1.6285 -0.5457 -0.2161
  466MOL0     H62884   9.814  12.962  -0.358 -3.3576  1.4547 -0.7798
  466MOL0     H62885   9.824  13.083  -0.487 -0.5062 -0.7077 -0.2882
  466MOL0     H62886  10.018  12.962  -0.526  0.1415 -0.1568  1.1133
  466MOL0     H62887  10.071  12.954  -0.360  2.4845  0.2140  0.2658
  466MOL0     H62888  10.060  13.202  -0.548 -0.1532  1.1754  1.1372
  466MOL0     H62889  10.104  13.205  -0.368 -0.6939 -0.8300  0.4935
  466MOL0     H62890   9.402  12.767   0.235 -2.1794  2.4434 -0.1597
  466MOL0     H62891   9.323  12.556   0.288  1.5204 -0.5787 -0.6318
  466MOL0     H62892   8.976  12.227   0.108 -0.4062 -0.5078 -0.7853
  466MOL0     H62893   8.851  12.045   0.178  0.5525 -1.4895  0.2461
  466MOL0     H62894   7.296  10.934   0.669  0.8750 -2.1296  1.2270
  466MOL0     H62895   7.131  10.759   0.682 -0.7728 -0.8795 -0.3145
  466MOL0     H62896   6.858  10.487   0.510  4.2516  1.8832  2.7864
  466MOL0     H62897   6.648  10.351   0.540 -0.4096  0.3382  1.3256
  466MOL0     H62898   6.468  10.215   0.618 -1.0230 -0.0578 -0.0355
  466MOL0     H62899   6.534  10.268   0.775  0.3426 -0.6522  0.5319
  466MOL0     H62900   6.476  10.035   0.866 -2.8352 -0.9967  1.3475
  466MOL0     H62901   6.420  10.005   0.703  0.1743  2.1958 -2.0797
  466MOL0     H62902   6.222  10.016   0.823 -2.9237  1.1373 -1.1887
  466MOL0     H62903   6.232  10.156   0.735 -0.1418  0.4402  0.3966
  466MOL0     H62904   6.149  10.198   0.957 -0.1989 -0.1377  0.7935
  466MOL0     H62905   6.279  10.124   1.040  1.1329  1.1718  0.5017
  466MOL0     H62906   6.432  10.511   0.983  0.1138 -0.1197  1.2865
  466MOL0     H62907   6.874  10.071   0.780 -1.1530 -0.1134 -1.0509
  466MOL0     H62908   7.110  10.267   0.883  2.8468 -0.2092  0.1138
  466MOL0     H62909   7.084  10.096   0.820  1.7006  0.3136 -1.0825
  466MOL0     H62910   7.204  10.208   0.752  0.0853 -1.8645 -0.3321
  467MOL0     O62911   3.483   8.778   9.736 -0.1438  0.2157  1.5223
  467MOL0     C62912   3.533   8.795   9.622  0.2129 -0.0633  0.3317
  467MOL0     O62913   3.512   8.903   9.547  0.2485  0.2139  0.1363
  467MOL0     C62914   3.439   9.010   9.606  0.1903  0.3330  0.1682
  467MOL0     C62915   3.314   8.984   9.669  0.6555  0.1476  0.5866
  467MOL0     C62916   3.253   9.078   9.751  0.4148 -0.0613 -0.9678
  467MOL0     C62917   3.296   9.211   9.754  0.7077 -0.4887 -0.2812
  467MOL0     O62918   3.249   9.323   9.832 -0.4046 -0.4941 -0.1941
  467MOL0     C62919   3.113   9.313   9.870  0.6808  0.4144 -0.1267
  467MOL0     C62920   3.055   9.455   9.889 -0.3122 -0.0997  0.1591
  467MOL0     C62921   2.894   9.452   9.892 -0.3308  1.2401 -0.5016
  467MOL0     C62922   2.815   9.353   9.977  0.2531  0.4089 -0.2510
  467MOL0     C62923   2.836   9.393  10.126  0.3633  1.0185 -0.2708
  467MOL0     C62924   2.702   9.354  10.201 -0.5502 -0.2000  0.1289
  467MOL0     C62925   2.707   9.410  10.349  0.3166 -0.0444  0.6602
  467MOL0     C62926   2.845   9.382  10.423  0.2614  0.7119  0.5470
  467MOL0     N62927   2.872   9.237  10.439 -1.0699 -0.3852  0.5280
  467MOL0     C62928   3.002   9.193  10.452  0.4586  0.5816  0.2634
  467MOL0     C62929   2.993   9.055  10.471  0.5503 -0.4337  1.0255
  467MOL0     C62930   3.104   8.963  10.502 -0.3723 -0.7128 -0.1228
  467MOL0     C62931   3.171   9.009  10.631 -0.0542  0.7318 -0.5519
  467MOL0     C62932   3.268   8.898  10.688 -0.0394  0.0224 -0.2111
  467MOL0     C62933   3.309   8.921  10.830  0.9601 -0.3361 -0.0177
  467MOL0     O62934   3.403   8.822  10.873  0.4327 -0.2625  0.5231
  467MOL0     C62935   3.366   8.692  10.901  0.0124 -1.2177 -0.2419
  467MOL0     C62936   3.372   8.585  10.805 -0.1359 -0.6109  0.5804
  467MOL0     C62937   3.368   8.454  10.856 -0.3401 -0.1265  0.4340
  467MOL0     C62938   3.334   8.418  10.991  0.0153 -0.5852  0.2540
  467MOL0     C62939   3.298   8.283  11.036 -0.7506 -0.5379  0.5419
  467MOL0     O62940   3.276   8.256  11.165  0.2048 -0.2954  0.1617
  467MOL0     C62941   3.238   8.126  11.177  0.3880 -0.5669 -0.3197
  467MOL0     C62942   3.320   8.018  11.154 -0.4348  0.2591 -0.1670
  467MOL0     C62943   3.265   7.892  11.168  0.7825  1.1487  0.6932
  467MOL0     C62944   3.134   7.863  11.191  0.1067 -0.0042 -0.2778
  467MOL0     O62945   3.084   7.732  11.184  0.3069 -0.1770 -0.6317
  467MOL0     C62946   3.172   7.619  11.196  0.0546 -0.3682  0.1089
  467MOL0     C62947   3.081   7.505  11.158  0.6369 -0.6279  0.4104
  467MOL0     C62948   2.994   7.448  11.265  0.1030 -0.7524 -0.0706
  467MOL0     C62949   3.070   7.343  11.341 -0.5715  0.1868 -0.3829
  467MOL0     C62950   2.967   7.288  11.440 -0.0172  0.4351 -0.1692
  467MOL0     C62951   3.033   7.201  11.537 -0.2207 -0.3582 -1.0100
  467MOL0     C62952   3.033   7.060  11.494  0.1494 -0.2032  0.0533
  467MOL0     C62953   3.097   6.967  11.591 -0.0753 -0.2196  0.0470
  467MOL0    Cl62954   2.966   6.896  11.695  0.0050  0.0899  0.4930
  467MOL0     C62955   3.054   7.969  11.240  0.3432 -0.0400 -0.2761
  467MOL0     C62956   3.107   8.103  11.220  1.2424  0.4634 -0.0114
  467MOL0     O62957   3.291   8.200  10.944 -0.8139  0.4401  0.2808
  467MOL0     C62958   3.335   8.526  11.082  0.2015 -0.3929  0.0782
  467MOL0     C62959   3.344   8.662  11.036  0.6039 -0.6423  0.7965
  467MOL0     N62960   2.858   9.024  10.470  0.5347 -0.4096 -0.4544
  467MOL0     N62961   2.788   9.131  10.450  0.1085 -0.2309 -0.6420
  467MOL0     C62962   3.409   9.235   9.680 -1.0858 -0.0818  0.7854
  467MOL0     C62963   3.483   9.140   9.607 -0.0663 -0.0653  0.8105
  467MOL0     C62964   3.568   8.662   9.549  0.2393  0.3502  0.1633
  467MOL0     C62965   3.514   8.645   9.417  0.8902 -0.6334 -0.7045
  467MOL0     C62966   3.522   8.522   9.354  0.6185  0.0472 -0.4226
  467MOL0     C62967   3.594   8.417   9.409  0.3209  0.3674  0.2890
  467MOL0     O62968   3.566   8.296   9.346  0.8369 -0.0242 -0.2227
  467MOL0     C62969   3.599   8.178   9.406  0.0214  0.1734  0.1230
  467MOL0     C62970   3.600   8.053   9.314 -0.6085 -0.0955  0.6983
  467MOL0     C62971   3.465   8.023   9.244  0.3637 -0.4310 -0.1633
  467MOL0     C62972   3.351   8.057   9.344  0.6258 -0.2911  0.5095
  467MOL0     C62973   3.365   7.966   9.464  0.9759 -0.7432  0.1593
  467MOL0     C62974   3.402   7.909   9.566 -0.3475 -0.3107 -0.6893
  467MOL0     C62975   3.654   8.432   9.533  0.0611 -0.5978  0.5953
  467MOL0     C62976   3.641   8.557   9.603 -0.1767 -1.1118 -0.2998
  467MOL0     C62977   3.708   8.577   9.737 -0.1932  0.2768  0.0204
  467MOL0     H62978   3.280   8.881   9.664  0.0559  0.1576  3.2643
  467MOL0     H62979   3.169   9.038   9.806 -1.7709  3.1911 -1.6806
  467MOL0     H62980   3.059   9.286   9.779 -3.0129 -0.2708  2.0412
  467MOL0     H62981   3.097   9.256   9.962  1.4802  4.5930  2.9092
  467MOL0     H62982   3.099   9.519   9.812 -0.2705  0.1637  0.4021
  467MOL0     H62983   3.093   9.494   9.984 -0.5063  0.5169 -0.0164
  467MOL0     H62984   2.860   9.418   9.794 -0.8190  0.3276 -0.0262
  467MOL0     H62985   2.853   9.551   9.911 -2.6972  0.0619  1.0929
  467MOL0     H62986   2.709   9.355   9.949  0.1450  0.1489  0.1227
  467MOL0     H62987   2.855   9.253   9.958  1.8927  0.8998  0.4887
  467MOL0     H62988   2.915   9.327  10.163  0.8936 -0.1214 -3.1234
  467MOL0     H62989   2.853   9.500  10.138 -0.0329  1.0181  0.3200
  467MOL0     H62990   2.614   9.390  10.148  1.3194  2.1116 -1.5941
  467MOL0     H62991   2.692   9.246  10.218 -2.2539  0.2341  2.4626
  467MOL0     H62992   2.629   9.366  10.413  1.1247  0.0138  1.7013
  467MOL0     H62993   2.684   9.517  10.350  0.6833  0.1229 -2.1384
  467MOL0     H62994   2.931   9.417  10.365  0.5298 -2.6436 -1.3707
  467MOL0     H62995   2.841   9.433  10.519  0.9853 -1.2111  1.6678
  467MOL0     H62996   3.095   9.242  10.427  0.0455 -0.4455 -3.9982
  467MOL0     H62997   3.047   8.870  10.514 -0.8916 -0.2657  1.1264
  467MOL0     H62998   3.178   8.959  10.422  2.3128  0.8123  2.0937
  467MOL0     H62999   3.237   9.094  10.608  1.7605 -0.8710 -1.6121
  467MOL0     H63000   3.097   9.032  10.708 -0.6612 -1.1319 -0.5237
  467MOL0     H63001   3.358   8.900  10.625 -0.0292 -2.4891 -0.3727
  467MOL0     H63002   3.221   8.800  10.679 -0.7701  0.4682 -1.4314
  467MOL0     H63003   3.216   8.930  10.886  0.3262 -1.3633 -0.8734
  467MOL0     H63004   3.359   9.018  10.837 -0.5442  0.3613  2.1336
  467MOL0     H63005   3.395   8.609  10.702  0.7368  0.3864  0.9880
  467MOL0     H63006   3.387   8.377  10.783 -0.7183  1.3965 -1.3460
  467MOL0     H63007   3.418   8.039  11.111  0.6625 -1.3864  1.3419
  467MOL0     H63008   3.322   7.805  11.139 -3.2047 -1.7789  0.8483
  467MOL0     H63009   3.257   7.608  11.129 -0.3816 -3.0640 -0.1227
  467MOL0     H63010   3.207   7.610  11.300 -0.7884 -2.1014  0.2871
  467MOL0     H63011   3.031   7.529  11.064  4.1372  0.6431 -1.3199
  467MOL0     H63012   3.146   7.422  11.129 -0.2931 -1.2435  0.0278
  467MOL0     H63013   2.982   7.535  11.330 -2.9306 -0.8949 -0.2888
  467MOL0     H63014   2.905   7.410  11.215  1.0261 -1.6454 -1.0915
  467MOL0     H63015   3.147   7.395  11.399 -0.8622  1.2768 -0.9530
  467MOL0     H63016   3.117   7.265  11.280 -1.2775  1.7504 -3.0928
  467MOL0     H63017   2.885   7.240  11.386 -0.6728  4.0149 -2.8117
  467MOL0     H63018   2.915   7.372  11.487 -0.9090  0.3414 -0.9353
  467MOL0     H63019   3.132   7.241  11.562  0.3702 -0.5274 -2.9261
  467MOL0     H63020   2.971   7.197  11.628 -1.0774 -0.5384 -1.5886
  467MOL0     H63021   3.091   7.048  11.402  1.5769 -3.3599  1.2201
  467MOL0     H63022   2.933   7.020  11.473  0.4232 -0.7556 -0.2186
  467MOL0     H63023   3.145   6.882  11.542  0.7633  0.2294  0.0802
  467MOL0     H63024   3.178   7.020  11.641  0.7274 -2.3912  1.1913
  467MOL0     H63025   2.952   7.955  11.274 -0.6151 -1.4495 -3.3936
  467MOL0     H63026   3.046   8.190  11.239 -0.5753 -1.1882  2.2725
  467MOL0     H63027   3.325   8.516  11.189  0.2495 -0.0119  0.1210
  467MOL0     H63028   3.336   8.750  11.101 -2.3144 -0.9589  1.0213
  467MOL0     H63029   3.454   9.334   9.687  0.9555 -0.9607  0.8144
  467MOL0     H63030   3.580   9.168   9.566  0.2018  0.0358  1.5097
  467MOL0     H63031   3.468   8.731   9.369 -0.7850 -0.6795  0.6893
  467MOL0     H63032   3.470   8.499   9.261 -2.1103 -0.9684  1.2327
  467MOL0     H63033   3.532   8.179   9.493 -1.4531  2.2653 -0.9519
  467MOL0     H63034   3.705   8.175   9.436  0.8000 -0.6706 -2.4670
  467MOL0     H63035   3.616   7.961   9.370  0.3374 -0.8255 -0.7155
  467MOL0     H63036   3.676   8.056   9.236 -1.5453 -0.0736 -0.2451
  467MOL0     H63037   3.467   7.915   9.228 -0.4452 -0.5616  0.5450
  467MOL0     H63038   3.450   8.069   9.146  0.4028 -0.7679 -0.3275
  467MOL0     H63039   3.348   8.165   9.359 -0.3015 -0.3598  0.8485
  467MOL0     H63040   3.251   8.033   9.307  0.1031  3.0223 -0.6221
  467MOL0     H63041   3.432   7.872   9.662  0.9945 -0.9821 -1.3328
  467MOL0     H63042   3.723   8.356   9.567  0.7878  1.3119  3.7849
  467MOL0     H63043   3.813   8.547   9.734 -1.0645 -3.0276 -1.5245
  467MOL0     H63044   3.706   8.680   9.776 -0.5506  0.3000 -0.0556
  467MOL0     H63045   3.657   8.508   9.804 -0.3202  0.4243  0.0757
  468MOL0     O63046   6.665   6.656   5.106  0.7215 -0.1769  0.1145
  468MOL0     C63047   6.571   6.736   5.120 -0.1149 -0.3400  1.0313
  468MOL0     O63048   6.502   6.752   5.233 -0.9345  0.4053 -0.6359
  468MOL0     C63049   6.530   6.677   5.339 -0.1973  0.7847 -1.3874
  468MOL0     C63050   6.593   6.739   5.445  0.4218  0.7804  1.5266
  468MOL0     C63051   6.604   6.668   5.569  0.0072  0.7701  0.2393
  468MOL0     C63052   6.556   6.537   5.580 -1.4476 -0.5136  0.2911
  468MOL0     O63053   6.566   6.471   5.699  0.0249 -0.1513  0.3533
  468MOL0     C63054   6.503   6.351   5.733  0.2235  0.4849  0.6053
  468MOL0     C63055   6.355   6.358   5.766  0.7508  0.1048 -0.8506
  468MOL0     C63056   6.275   6.235   5.720 -0.5722  0.1608 -0.7868
  468MOL0     C63057   6.131   6.268   5.735 -0.0791  0.4781 -0.4743
  468MOL0     C63058   6.058   6.327   5.615 -0.5785  0.1453 -0.4892
  468MOL0     C63059   5.908   6.358   5.660  0.9905  0.5372  0.5253
  468MOL0     C63060   5.898   6.478   5.756 -0.0845 -0.5947  0.4646
  468MOL0     C63061   5.761   6.497   5.832 -0.7093  0.4094  0.5282
  468MOL0     N63062   5.761   6.638   5.891  0.3897  0.0592  0.4253
  468MOL0     C63063   5.818   6.682   6.009 -0.5833  0.6014  0.4009
  468MOL0     C63064   5.793   6.820   6.007 -0.3600 -0.2721  0.0322
  468MOL0     C63065   5.845   6.919   6.118 -0.1376  0.0181  0.3438
  468MOL0     C63066   5.960   7.008   6.062  0.3673  0.1596  0.2591
  468MOL0     C63067   6.017   7.118   6.160  0.7602  0.2255  1.1325
  468MOL0     C63068   6.144   7.065   6.228  0.8272 -0.0932 -0.5220
  468MOL0     O63069   6.113   6.951   6.309  1.2995 -0.0681 -0.4929
  468MOL0     C63070   6.055   6.964   6.434 -0.4173 -0.0485  0.0543
  468MOL0     C63071   5.979   6.852   6.478  0.0121 -0.1351  0.0024
  468MOL0     C63072   5.941   6.838   6.607  0.0968 -0.1187  0.5573
  468MOL0     C63073   5.959   6.939   6.700  0.3504 -0.3145  0.5213
  468MOL0     C63074   5.898   6.936   6.832  0.3450  0.5574  0.2135
  468MOL0     O63075   5.881   6.812   6.880 -0.1397  0.1307 -0.0611
  468MOL0     C63076   5.832   6.788   7.015  0.1414 -0.0087  0.5729
  468MOL0     C63077   5.860   6.673   7.075  0.0901  0.0712  0.2067
  468MOL0     C63078   5.815   6.644   7.204 -0.0493 -0.8042 -0.6595
  468MOL0     C63079   5.738   6.734   7.271  0.2608 -1.1675  0.3265
  468MOL0     O63080   5.708   6.712   7.402 -0.4367  0.4209  0.0954
  468MOL0     C63081   5.616   6.602   7.435 -1.0039  0.4933 -0.3307
  468MOL0     C63082   5.507   6.639   7.540 -0.0428 -0.1031  0.9350
  468MOL0     C63083   5.439   6.772   7.493 -0.1724  0.6582 -0.2752
  468MOL0     C63084   5.361   6.763   7.356  0.3620 -1.0116  0.2245
  468MOL0     C63085   5.303   6.907   7.327 -0.2707 -0.0581 -0.6191
  468MOL0     C63086   5.210   6.968   7.435 -0.9555 -0.1262 -0.0327
  468MOL0     C63087   5.190   7.113   7.393  0.6372  0.4296  0.3521
  468MOL0     C63088   5.115   7.196   7.497 -0.1390 -0.2445 -0.0971
  468MOL0    Cl63089   5.060   7.351   7.436 -0.2331 -0.1519  0.5272
  468MOL0     C63090   5.695   6.847   7.205  0.2715 -0.0336  0.2108
  468MOL0     C63091   5.743   6.863   7.083 -0.1346  0.7781 -0.0667
  468MOL0     O63092   5.868   7.039   6.889 -0.0825 -0.3344 -0.5605
  468MOL0     C63093   6.029   7.051   6.655 -0.1992 -1.0397  0.9016
  468MOL0     C63094   6.077   7.070   6.523  0.1428  0.1175  0.1609
  468MOL0     N63095   5.721   6.855   5.895  0.7012 -0.0674  0.1810
  468MOL0     N63096   5.701   6.747   5.833  0.2837  0.5763  1.1795
  468MOL0     C63097   6.502   6.463   5.473 -0.4897 -0.5983 -0.7441
  468MOL0     C63098   6.493   6.534   5.352 -1.3687 -0.4702  0.8310
  468MOL0     C63099   6.522   6.821   5.004 -0.3894  0.0235 -0.0789
  468MOL0     C63100   6.590   6.802   4.876 -0.0074  0.7800 -0.6778
  468MOL0     C63101   6.568   6.884   4.766 -0.7176 -0.5886 -1.0975
  468MOL0     C63102   6.463   6.974   4.765 -0.4656  0.9777 -0.4380
  468MOL0     O63103   6.447   7.043   4.650 -0.7888 -0.7135  0.4261
  468MOL0     C63104   6.357   7.153   4.625  0.2774  0.8238  1.0522
  468MOL0     C63105   6.427   7.277   4.689 -0.0054 -0.4447  0.6437
  468MOL0     C63106   6.347   7.397   4.689  0.3615 -1.0150 -0.5682
  468MOL0     C63107   6.234   7.397   4.795  0.0412 -0.5724 -0.3498
  468MOL0     C63108   6.129   7.492   4.750 -0.2873  0.1075 -0.0038
  468MOL0     C63109   6.042   7.575   4.751  0.0223 -0.4817  0.9442
  468MOL0     C63110   6.390   6.993   4.879  0.7743  0.2627  0.3577
  468MOL0     C63111   6.419   6.916   4.998  0.0413 -0.7809  0.9605
  468MOL0     C63112   6.318   6.943   5.111  0.1544 -0.6410 -0.2008
  468MOL0     H63113   6.622   6.843   5.452  1.6524  0.3643  3.4266
  468MOL0     H63114   6.654   6.723   5.648  0.4162 -1.3620  1.5446
  468MOL0     H63115   6.517   6.265   5.666  0.4556 -0.2099  1.5244
  468MOL0     H63116   6.551   6.324   5.828  0.3281 -1.7960 -0.0329
  468MOL0     H63117   6.297   6.438   5.718 -1.8875 -0.3506  1.3229
  468MOL0     H63118   6.356   6.379   5.873  1.5292  2.5201 -1.2570
  468MOL0     H63119   6.302   6.151   5.785  0.2036  0.8835 -0.1398
  468MOL0     H63120   6.302   6.211   5.617 -1.3686  6.0333 -2.7253
  468MOL0     H63121   6.078   6.173   5.747 -0.0437  0.1371 -2.5979
  468MOL0     H63122   6.118   6.318   5.831  5.5641 -0.6457  1.2134
  468MOL0     H63123   6.106   6.423   5.590  1.9551 -0.8095  0.3256
  468MOL0     H63124   6.065   6.265   5.525  0.7717 -2.5339  1.3528
  468MOL0     H63125   5.847   6.383   5.573 -1.6449  0.6754  2.2853
  468MOL0     H63126   5.874   6.263   5.702  1.7096  0.7614  1.6779
  468MOL0     H63127   5.907   6.569   5.695 -2.2637  1.3374  2.7804
  468MOL0     H63128   5.977   6.463   5.831 -0.4507  0.1667  1.0264
  468MOL0     H63129   5.673   6.491   5.768  0.3990  2.1092 -1.3032
  468MOL0     H63130   5.767   6.421   5.909 -1.4029 -1.8492 -1.5191
  468MOL0     H63131   5.880   6.628   6.080 -1.9654  0.4804  1.5709
  468MOL0     H63132   5.771   6.987   6.160  0.4561  2.4959 -2.3475
  468MOL0     H63133   5.888   6.856   6.197 -0.0551  0.3596  0.5721
  468MOL0     H63134   6.042   6.952   6.016 -2.2255 -2.1592 -1.8746
  468MOL0     H63135   5.913   7.078   5.992  1.1088  0.3615 -0.0516
  468MOL0     H63136   5.944   7.146   6.236  1.7773  1.5448  1.6523
  468MOL0     H63137   6.047   7.202   6.097 -1.8097 -0.3405 -1.0179
  468MOL0     H63138   6.185   7.148   6.286  1.1985  0.6202 -1.7687
  468MOL0     H63139   6.221   7.041   6.154  0.6558  1.9245 -1.4181
  468MOL0     H63140   5.950   6.772   6.411  1.3729 -1.1023  0.5189
  468MOL0     H63141   5.885   6.751   6.637  0.8161 -0.5218  0.7640
  468MOL0     H63142   5.939   6.617   7.026  0.1608  1.2347 -1.0871
  468MOL0     H63143   5.846   6.558   7.262 -0.0251  0.9423  2.0966
  468MOL0     H63144   5.562   6.574   7.344  0.4845 -2.2089 -0.4999
  468MOL0     H63145   5.668   6.511   7.467 -3.5708 -1.9288 -2.4863
  468MOL0     H63146   5.443   6.551   7.549  2.6697 -2.1660  1.4248
  468MOL0     H63147   5.556   6.649   7.638  1.3845 -2.1894  0.5005
  468MOL0     H63148   5.374   6.796   7.578 -0.0941 -0.4769  0.1250
  468MOL0     H63149   5.507   6.857   7.486 -0.6436  1.3595  2.4592
  468MOL0     H63150   5.289   6.681   7.360  0.3019 -1.0394 -1.0088
  468MOL0     H63151   5.420   6.732   7.269  0.6141 -1.2224  0.4672
  468MOL0     H63152   5.252   6.903   7.230  2.6642 -0.8637 -2.2244
  468MOL0     H63153   5.393   6.967   7.313  1.6392 -2.4190  0.8433
  468MOL0     H63154   5.116   6.914   7.425 -1.1745  0.2872 -0.1993
  468MOL0     H63155   5.249   6.962   7.537 -0.8165  0.4284 -0.0479
  468MOL0     H63156   5.133   7.118   7.300  1.5268  1.7559 -0.1414
  468MOL0     H63157   5.291   7.152   7.376  2.1454 -2.2044  2.5046
  468MOL0     H63158   5.023   7.144   7.527  0.4864 -1.2256  0.1569
  468MOL0     H63159   5.185   7.200   7.581  1.1956 -1.8006 -1.0731
  468MOL0     H63160   5.632   6.925   7.247  1.0313  0.6796  0.0641
  468MOL0     H63161   5.720   6.955   7.031 -0.6606 -1.0580 -3.3421
  468MOL0     H63162   6.046   7.139   6.715  0.3962 -0.5228 -0.0075
  468MOL0     H63163   6.144   7.150   6.491  1.2111 -0.4010  1.0126
  468MOL0     H63164   6.450   6.368   5.488 -3.4204  0.6067 -2.3943
  468MOL0     H63165   6.457   6.485   5.262 -3.1825  0.1170  1.1922
  468MOL0     H63166   6.653   6.713   4.866  0.9230  1.2535  0.6632
  468MOL0     H63167   6.620   6.864   4.673 -1.7234  0.5271 -1.9302
  468MOL0     H63168   6.257   7.137   4.667 -0.3568  0.7514 -0.4216
  468MOL0     H63169   6.337   7.163   4.518 -4.5290 -2.9212  1.1999
  468MOL0     H63170   6.522   7.288   4.635 -0.6520 -2.6154 -1.0497
  468MOL0     H63171   6.465   7.246   4.787  2.2313  0.4585  0.1322
  468MOL0     H63172   6.305   7.407   4.588 -1.0586  2.8394  0.2537
  468MOL0     H63173   6.398   7.493   4.698  0.0052 -0.8817  0.0945
  468MOL0     H63174   6.195   7.295   4.804 -0.6946 -0.3853 -1.2275
  468MOL0     H63175   6.272   7.425   4.893  2.1256  2.5852 -1.8691
  468MOL0     H63176   5.956   7.638   4.762 -0.6428 -1.3820  1.0333
  468MOL0     H63177   6.301   7.055   4.867  2.5331  2.7086 -1.0737
  468MOL0     H63178   6.236   7.014   5.096 -2.2407 -2.5974  2.4731
  468MOL0     H63179   6.274   6.856   5.161 -1.9696  1.1059  1.1575
  468MOL0     H63180   6.383   6.993   5.183  1.8203  0.4908 -2.3842
  469MOL0     O63181   5.475   5.643   5.008 -0.2049  0.0943  0.2999
  469MOL0     C63182   5.468   5.764   5.037  0.6155  0.1507 -0.0078
  469MOL0     O63183   5.496   5.866   4.946  0.6374  0.8903 -0.2871
  469MOL0     C63184   5.492   5.821   4.816  0.5682  0.2946  0.2398
  469MOL0     C63185   5.385   5.848   4.728  0.3996 -0.2623 -0.0727
  469MOL0     C63186   5.389   5.802   4.600 -0.1680 -1.2958  0.5388
  469MOL0     C63187   5.491   5.721   4.553  0.1188  0.0728 -1.1553
  469MOL0     O63188   5.477   5.679   4.420 -0.2141 -0.4490  0.2404
  469MOL0     C63189   5.601   5.632   4.348  0.9777  0.2517 -1.1202
  469MOL0     C63190   5.545   5.587   4.207 -0.2667  0.4219  0.8022
  469MOL0     C63191   5.649   5.603   4.095 -0.6964  1.2575  0.1652
  469MOL0     C63192   5.583   5.540   3.976  0.7675 -0.1790  1.0904
  469MOL0     C63193   5.600   5.391   3.970 -0.1008  0.3683  0.3389
  469MOL0     C63194   5.575   5.358   3.822 -0.5194  0.1644  0.1647
  469MOL0     C63195   5.606   5.210   3.771  0.1764 -0.4321 -0.9186
  469MOL0     C63196   5.660   5.124   3.874 -1.6386  0.2025 -0.2951
  469MOL0     N63197   5.665   4.979   3.855  0.6349 -0.6986  0.0039
  469MOL0     C63198   5.777   4.899   3.882 -0.0643  0.4968  0.0391
  469MOL0     C63199   5.733   4.779   3.841  0.3269  0.5907 -0.2478
  469MOL0     C63200   5.816   4.648   3.845  0.2170 -0.4038  0.0847
  469MOL0     C63201   5.778   4.586   3.978 -0.8111  0.1198  0.2687
  469MOL0     C63202   5.875   4.470   4.006  0.4491  0.4545  0.2896
  469MOL0     C63203   5.815   4.330   3.979 -0.2850 -0.5857  0.1309
  469MOL0     O63204   5.819   4.247   4.103 -0.7054 -0.8146 -0.2385
  469MOL0     C63205   5.707   4.240   4.181  0.0058  0.3813 -0.7402
  469MOL0     C63206   5.714   4.180   4.309  0.5599 -0.2191  0.4138
  469MOL0     C63207   5.609   4.190   4.397 -0.0135  0.1147  0.1981
  469MOL0     C63208   5.488   4.264   4.375 -0.3894  0.7833 -0.2184
  469MOL0     C63209   5.386   4.278   4.481 -0.6503  0.8025 -0.5511
  469MOL0     O63210   5.414   4.244   4.614  0.1451 -0.5642 -0.3439
  469MOL0     C63211   5.308   4.249   4.707 -1.2370 -0.2334 -0.8145
  469MOL0     C63212   5.230   4.130   4.710 -0.3758  0.1372  0.0686
  469MOL0     C63213   5.117   4.124   4.790 -0.4055  0.3215  0.1848
  469MOL0     C63214   5.076   4.234   4.870  0.6414 -0.4057 -0.0747
  469MOL0     O63215   4.969   4.232   4.955 -1.0212 -0.5291 -0.6397
  469MOL0     C63216   4.943   4.334   5.056  0.4161  1.0435  0.2142
  469MOL0     C63217   4.844   4.273   5.151 -0.6375 -0.0540 -0.1907
  469MOL0     C63218   4.802   4.390   5.249 -0.5156 -0.4725 -0.3008
  469MOL0     C63219   4.680   4.336   5.327  0.2687 -0.0119  0.4074
  469MOL0     C63220   4.650   4.427   5.448 -0.3663  0.5080 -0.3884
  469MOL0     C63221   4.624   4.571   5.408 -0.7091 -0.0160 -0.1975
  469MOL0     C63222   4.549   4.649   5.512  0.1084 -0.5351  0.5858
  469MOL0     C63223   4.563   4.801   5.491  0.1733 -0.3509 -0.2818
  469MOL0    Cl63224   4.511   4.834   5.322  0.7924 -0.2833 -0.0679
  469MOL0     C63225   5.160   4.350   4.876  0.1267  0.3410  0.2669
  469MOL0     C63226   5.275   4.361   4.797 -0.1984 -0.0955 -0.2820
  469MOL0     O63227   5.282   4.327   4.445  0.1206 -0.1960  0.9050
  469MOL0     C63228   5.481   4.321   4.244  0.0287 -0.1898 -0.1568
  469MOL0     C63229   5.582   4.301   4.150 -0.4784  0.2679  0.6975
  469MOL0     N63230   5.608   4.794   3.780  0.0890  0.1641  0.2580
  469MOL0     N63231   5.564   4.912   3.796  0.8017  0.4406  0.4850
  469MOL0     C63232   5.599   5.693   4.635  0.4771 -0.1272 -0.5994
  469MOL0     C63233   5.605   5.752   4.769 -0.0486  0.1898 -0.5711
  469MOL0     C63234   5.456   5.811   5.170  0.1893 -0.3726 -0.7434
  469MOL0     C63235   5.559   5.879   5.233  0.3258  0.5698  0.0202
  469MOL0     C63236   5.552   5.926   5.369  0.3553 -0.2220  0.8148
  469MOL0     C63237   5.431   5.923   5.434  1.0861 -0.2349 -0.2363
  469MOL0     O63238   5.417   5.990   5.557  0.0902  0.0951  0.2603
  469MOL0     C63239   5.289   6.009   5.606 -0.9556 -0.3230  0.5419
  469MOL0     C63240   5.228   6.112   5.517  0.4256 -0.0908  0.4034
  469MOL0     C63241   5.308   6.243   5.509 -0.4120 -0.8392  0.0095
  469MOL0     C63242   5.311   6.315   5.647 -0.6067  0.2205  0.8835
  469MOL0     C63243   5.381   6.441   5.617  0.4759  0.7348 -0.7424
  469MOL0     C63244   5.425   6.557   5.599 -0.6384  0.1114  0.9705
  469MOL0     C63245   5.319   5.848   5.373  0.0386 -0.0438  0.2805
  469MOL0     C63246   5.337   5.786   5.246 -0.8471  0.4767 -0.0567
  469MOL0     C63247   5.233   5.689   5.197 -0.3104 -0.5319 -0.5806
  469MOL0     H63248   5.289   5.885   4.762 -0.0450 -1.4470  0.0071
  469MOL0     H63249   5.307   5.815   4.531  3.0834  0.6282 -3.3901
  469MOL0     H63250   5.669   5.717   4.330  2.2932 -0.7992 -1.2733
  469MOL0     H63251   5.650   5.547   4.396  0.0515  1.4657  2.3028
  469MOL0     H63252   5.445   5.627   4.185 -0.5549  0.1442  1.5837
  469MOL0     H63253   5.526   5.480   4.204 -0.4682  0.4791 -0.8618
  469MOL0     H63254   5.745   5.558   4.122 -1.2117  0.1764  0.2330
  469MOL0     H63255   5.673   5.707   4.069  1.0662  1.0968  1.0328
  469MOL0     H63256   5.474   5.548   3.974  0.7282 -0.7727  0.4429
  469MOL0     H63257   5.622   5.589   3.887 -0.1304 -2.9394 -0.9481
  469MOL0     H63258   5.699   5.356   4.002 -0.7146 -0.0601  1.8609
  469MOL0     H63259   5.526   5.345   4.036  0.4040  1.0457  1.4003
  469MOL0     H63260   5.469   5.379   3.804 -0.6734 -1.7124 -1.4662
  469MOL0     H63261   5.646   5.415   3.762 -0.1816  0.6928  1.0513
  469MOL0     H63262   5.672   5.227   3.685  0.6255 -2.1621 -0.9398
  469MOL0     H63263   5.511   5.172   3.734 -3.0438  2.8938  2.9625
  469MOL0     H63264   5.766   5.146   3.892 -0.5120 -1.0601 -4.1975
  469MOL0     H63265   5.603   5.133   3.967 -1.1207 -3.5506  0.5640
  469MOL0     H63266   5.875   4.915   3.926 -0.3551  0.3680  0.7430
  469MOL0     H63267   5.790   4.579   3.764 -1.1928  1.4406 -1.0968
  469MOL0     H63268   5.925   4.649   3.832  0.1210 -2.1112 -1.2247
  469MOL0     H63269   5.791   4.645   4.069  3.2367 -2.4197  1.6203
  469MOL0     H63270   5.672   4.560   3.984 -0.3389 -1.6118  2.9948
  469MOL0     H63271   5.903   4.471   4.112 -2.2570 -1.6385  1.1238
  469MOL0     H63272   5.963   4.470   3.941 -0.2161 -0.9125 -0.6387
  469MOL0     H63273   5.863   4.278   3.895 -0.8526 -1.3345  0.2620
  469MOL0     H63274   5.715   4.339   3.935 -0.7898  1.1894  1.5530
  469MOL0     H63275   5.795   4.113   4.336 -0.3347 -3.8470 -4.4475
  469MOL0     H63276   5.617   4.136   4.490 -0.6923  0.6680  0.5942
  469MOL0     H63277   5.260   4.049   4.645 -1.3821 -0.6593  0.5808
  469MOL0     H63278   5.053   4.037   4.793 -0.0704  0.0888  0.5862
  469MOL0     H63279   5.034   4.357   5.113  3.0697 -1.2008 -2.7637
  469MOL0     H63280   4.912   4.424   5.002  1.2735 -1.5585 -5.1934
  469MOL0     H63281   4.769   4.229   5.085 -2.4426  0.7653  1.2017
  469MOL0     H63282   4.872   4.178   5.198 -0.0236 -0.9859 -2.2941
  469MOL0     H63283   4.878   4.411   5.324 -1.6365 -1.1756  1.0679
  469MOL0     H63284   4.781   4.483   5.195 -2.9594  0.1084  1.4894
  469MOL0     H63285   4.686   4.232   5.359 -1.6750  0.0983  1.2895
  469MOL0     H63286   4.600   4.344   5.253  1.8916 -0.5476 -1.4666
  469MOL0     H63287   4.737   4.416   5.513  1.5527 -0.5342 -2.9575
  469MOL0     H63288   4.556   4.391   5.491  0.3932  0.1596  1.0206
  469MOL0     H63289   4.720   4.621   5.390 -0.3578 -0.6258 -0.0821
  469MOL0     H63290   4.573   4.557   5.313  0.6957 -4.6470 -0.5239
  469MOL0     H63291   4.590   4.625   5.611  0.0861  0.1906  0.7755
  469MOL0     H63292   4.442   4.631   5.500 -0.0973  0.3394  1.0406
  469MOL0     H63293   4.486   4.842   5.556 -1.6935  0.6989 -2.9673
  469MOL0     H63294   4.665   4.832   5.512  0.9918 -2.0037 -1.5369
  469MOL0     H63295   5.132   4.431   4.942  2.9879  1.0935  0.7011
  469MOL0     H63296   5.329   4.455   4.799  0.4366 -0.4353 -0.8823
  469MOL0     H63297   5.408   4.392   4.208 -0.9923  0.2365  2.5393
  469MOL0     H63298   5.565   4.345   4.052  1.4332 -0.7068 -0.1383
  469MOL0     H63299   5.686   5.640   4.597  0.9172  1.0843 -1.3427
  469MOL0     H63300   5.682   5.722   4.840 -0.4409  1.0145  0.2252
  469MOL0     H63301   5.653   5.885   5.179  1.6130 -2.8489  1.6005
  469MOL0     H63302   5.643   5.973   5.403 -0.3316  0.1092  2.2789
  469MOL0     H63303   5.310   6.051   5.705  0.4418  0.5856 -0.1066
  469MOL0     H63304   5.224   5.921   5.606 -0.9293 -0.3545 -0.4122
  469MOL0     H63305   5.127   6.132   5.554 -0.7531 -0.2760 -2.4820
  469MOL0     H63306   5.209   6.070   5.418 -1.3720 -0.3164  0.8092
  469MOL0     H63307   5.264   6.304   5.429  1.2290 -0.9066 -0.9712
  469MOL0     H63308   5.408   6.214   5.478  0.8992  2.4279  0.8243
  469MOL0     H63309   5.212   6.321   5.692 -1.7271  2.0089 -1.6042
  469MOL0     H63310   5.359   6.252   5.722 -1.7458  0.5429  1.9171
  469MOL0     H63311   5.455   6.655   5.570  2.7517  0.1057  3.7712
  469MOL0     H63312   5.220   5.831   5.413 -2.2543  1.1573 -4.2479
  469MOL0     H63313   5.179   5.749   5.123 -1.7483 -0.4176  0.5164
  469MOL0     H63314   5.276   5.596   5.160  1.8848  0.0404  0.3441
  469MOL0     H63315   5.167   5.662   5.279 -0.6864 -0.7577 -0.9512
  470MOL0     O63316   8.257  11.250  11.298 -0.8648 -0.5990  0.4321
  470MOL0     C63317   8.358  11.193  11.259 -0.3436 -0.1330 -0.6239
  470MOL0     O63318   8.374  11.129  11.143 -0.2983 -0.1754 -0.0590
  470MOL0     C63319   8.274  11.106  11.051  0.9365  0.3601 -0.1476
  470MOL0     C63320   8.171  11.196  11.021  0.1662 -0.1781  0.6068
  470MOL0     C63321   8.055  11.166  10.938 -0.0800  0.3406 -0.4760
  470MOL0     C63322   8.056  11.037  10.872  0.1580  0.2513 -0.3827
  470MOL0     O63323   7.963  10.996  10.785 -0.1827  0.2865  0.6705
  470MOL0     C63324   7.833  11.060  10.794  0.4792 -0.6767 -0.1236
  470MOL0     C63325   7.733  10.979  10.710  0.5510  0.2749  0.7888
  470MOL0     C63326   7.758  10.829  10.718  0.9239  1.0431  0.7142
  470MOL0     C63327   7.634  10.753  10.677  0.2329  0.1274 -0.4678
  470MOL0     C63328   7.582  10.775  10.538 -0.0122 -0.1667  0.8852
  470MOL0     C63329   7.498  10.663  10.477  1.1057 -0.4080 -0.4391
  470MOL0     C63330   7.415  10.725  10.358 -1.2571  1.2362  0.2195
  470MOL0     C63331   7.323  10.622  10.294  0.0394 -0.3053  0.0996
  470MOL0     N63332   7.388  10.517  10.208 -0.4429 -0.5708 -0.0818
  470MOL0     C63333   7.464  10.560  10.096  0.0843 -0.4948  0.0926
  470MOL0     C63334   7.548  10.453  10.068  0.9590  1.2501 -0.7934
  470MOL0     C63335   7.658  10.447   9.978 -0.2847 -0.6301  0.8993
  470MOL0     C63336   7.747  10.567  10.000 -0.2976  0.8715 -0.4117
  470MOL0     C63337   7.880  10.554   9.936 -0.3369  0.0458  0.1018
  470MOL0     C63338   7.967  10.670   9.993 -0.2291  0.4557  0.2164
  470MOL0     O63339   8.097  10.674   9.919  0.5283  0.2339 -0.0522
  470MOL0     C63340   8.194  10.735   9.981  0.2374  0.7799 -0.6738
  470MOL0     C63341   8.175  10.835  10.079  0.8875 -0.5846 -0.6482
  470MOL0     C63342   8.279  10.908  10.131  0.3232 -0.2971 -0.4014
  470MOL0     C63343   8.413  10.881  10.091  0.4613 -0.4120 -0.3611
  470MOL0     C63344   8.514  10.981  10.122 -0.8644 -0.9880 -0.5962
  470MOL0     O63345   8.493  11.081  10.216  0.1308  0.0876 -0.1750
  470MOL0     C63346   8.601  11.147  10.263  0.1319 -0.5317 -0.4629
  470MOL0     C63347   8.591  11.285  10.262  0.5856 -0.0307  0.9799
  470MOL0     C63348   8.703  11.365  10.304  0.1906 -0.1851  0.1477
  470MOL0     C63349   8.821  11.310  10.351 -1.0983  0.1096  0.4517
  470MOL0     O63350   8.924  11.392  10.398 -0.7700 -0.5384 -0.0005
  470MOL0     C63351   9.035  11.333  10.481  0.5710 -0.1805 -0.3975
  470MOL0     C63352   9.091  11.434  10.582 -0.3326 -1.0724  0.3075
  470MOL0     C63353   8.973  11.505  10.666 -0.6448  0.5824  0.9114
  470MOL0     C63354   9.032  11.583  10.790  0.5469 -0.0309  0.7835
  470MOL0     C63355   8.931  11.669  10.871  0.4584 -0.6484 -0.1550
  470MOL0     C63356   8.878  11.782  10.772  0.6532 -0.1582 -0.4553
  470MOL0     C63357   8.772  11.868  10.845 -0.0127 -0.6960  0.7325
  470MOL0     C63358   8.839  11.975  10.933  0.8582  0.3474  0.1847
  470MOL0    Cl63359   8.940  12.096  10.846  0.3048 -0.4061 -0.0456
  470MOL0     C63360   8.825  11.165  10.364 -0.2531 -0.6946 -0.0618
  470MOL0     C63361   8.720  11.089  10.335 -0.9153  0.4969 -0.3742
  470MOL0     O63362   8.623  10.968  10.069 -0.8215  0.3777  0.0232
  470MOL0     C63363   8.429  10.781   9.994 -0.2114 -0.6232 -0.4979
  470MOL0     C63364   8.321  10.710   9.945  0.3465  0.5124 -0.2649
  470MOL0     N63365   7.504  10.350  10.151  0.6169  0.4094  0.0925
  470MOL0     N63366   7.412  10.391  10.241 -0.3818  0.8562 -0.5815
  470MOL0     C63367   8.168  10.953  10.900 -0.1787 -1.0666  0.7289
  470MOL0     C63368   8.276  10.992  10.975  0.2835  0.7001 -0.0886
  470MOL0     C63369   8.472  11.186  11.365  0.2659  0.1310 -0.3927
  470MOL0     C63370   8.483  11.281  11.467 -0.0834  0.8541  0.7967
  470MOL0     C63371   8.589  11.298  11.546 -0.6586  0.0763  1.9493
  470MOL0     C63372   8.697  11.211  11.537  1.0567  0.6701  0.4960
  470MOL0     O63373   8.797  11.230  11.629  0.3510 -0.8139 -0.0200
  470MOL0     C63374   8.891  11.126  11.632 -0.7439  0.1938 -0.1957
  470MOL0     C63375   9.005  11.155  11.530  0.0248 -1.3415  0.0883
  470MOL0     C63376   9.112  11.257  11.581  0.3062 -0.3545  0.2753
  470MOL0     C63377   9.200  11.317  11.468 -0.0264 -0.4015 -0.5088
  470MOL0     C63378   9.230  11.218  11.367 -0.0716  0.4166  0.6223
  470MOL0     C63379   9.243  11.131  11.281 -0.0065  0.1818 -0.5560
  470MOL0     C63380   8.692  11.117  11.431 -0.5692 -0.8911 -0.7425
  470MOL0     C63381   8.590  11.113  11.336  0.5788 -0.5718 -0.8713
  470MOL0     C63382   8.602  11.006  11.227 -0.3447  1.0091  1.3068
  470MOL0     H63383   8.191  11.298  11.052  1.7562  0.0918 -1.1121
  470MOL0     H63384   7.980  11.245  10.928 -0.7539  0.2615  2.6579
  470MOL0     H63385   7.813  11.059  10.901  2.5471 -1.8207  0.3128
  470MOL0     H63386   7.834  11.164  10.761 -2.2641 -0.5717 -0.1210
  470MOL0     H63387   7.744  11.005  10.604  0.0900  0.1328  0.7060
  470MOL0     H63388   7.627  10.999  10.728  0.5010 -0.9132  1.9328
  470MOL0     H63389   7.773  10.811  10.825 -1.5694  1.3420  1.1553
  470MOL0     H63390   7.838  10.787  10.656  0.3892  1.2477 -0.1233
  470MOL0     H63391   7.660  10.649  10.699  0.6982  0.3610  0.1336
  470MOL0     H63392   7.548  10.772  10.743 -0.0617  0.8616 -1.0610
  470MOL0     H63393   7.516  10.862  10.540 -0.7108 -0.6511 -0.0949
  470MOL0     H63394   7.673  10.792  10.479  0.8825 -1.3752  1.8659
  470MOL0     H63395   7.557  10.584  10.428 -1.0856  0.0246 -4.1833
  470MOL0     H63396   7.437  10.632  10.562 -0.3608  1.6671 -0.6567
  470MOL0     H63397   7.482  10.770  10.284 -1.7924 -0.3911 -1.3084
  470MOL0     H63398   7.342  10.806  10.374 -1.0434  1.6293 -0.7200
  470MOL0     H63399   7.286  10.571  10.384 -1.2489  0.6335  0.1274
  470MOL0     H63400   7.257  10.689  10.240  1.1215  0.3540 -0.4362
  470MOL0     H63401   7.473  10.654  10.041 -2.8423 -1.1934 -1.8025
  470MOL0     H63402   7.708  10.350   9.981 -0.6912 -0.9715 -1.2606
  470MOL0     H63403   7.606  10.457   9.882  0.3698  0.1691  0.6130
  470MOL0     H63404   7.702  10.666   9.989 -0.7709  0.8952  1.5347
  470MOL0     H63405   7.777  10.562  10.105 -1.8060  3.0900  0.1992
  470MOL0     H63406   7.862  10.566   9.829  1.0632  0.0200 -0.1569
  470MOL0     H63407   7.942  10.468   9.962  1.1175  1.1705  0.5295
  470MOL0     H63408   7.981  10.634  10.095  0.0168 -1.4948 -0.4700
  470MOL0     H63409   7.911  10.764   9.984  1.6041  1.3993 -2.9539
  470MOL0     H63410   8.079  10.885  10.092  0.2591 -1.8318 -0.2750
  470MOL0     H63411   8.268  11.006  10.177  2.0431 -0.6243  0.7861
  470MOL0     H63412   8.491  11.321  10.238 -0.3262 -0.1713  4.1575
  470MOL0     H63413   8.698  11.472  10.293  0.6324  0.3733  4.0974
  470MOL0     H63414   8.995  11.246  10.534 -0.3359  0.4428 -0.0150
  470MOL0     H63415   9.108  11.301  10.407  0.9814 -0.5086  0.1373
  470MOL0     H63416   9.154  11.393  10.662 -2.6928 -0.2311  2.7764
  470MOL0     H63417   9.151  11.504  10.523 -2.2259  0.1922 -0.1893
  470MOL0     H63418   8.915  11.560  10.592 -0.3339 -2.8404 -2.1170
  470MOL0     H63419   8.908  11.426  10.705 -0.6101 -0.3166 -0.7523
  470MOL0     H63420   9.107  11.658  10.763 -1.6574  3.7915  4.0821
  470MOL0     H63421   9.070  11.505  10.857 -3.9485 -2.5962  0.7199
  470MOL0     H63422   8.973  11.704  10.966 -1.4899  3.3811 -0.5794
  470MOL0     H63423   8.848  11.613  10.914 -0.5293  0.2198 -0.8666
  470MOL0     H63424   8.962  11.849  10.750  1.0993  0.2591  2.1631
  470MOL0     H63425   8.843  11.748  10.674  2.3523  0.2858 -1.2681
  470MOL0     H63426   8.719  11.806  10.917 -0.5663  0.0925  1.0162
  470MOL0     H63427   8.701  11.916  10.777  1.0195  1.8747  1.3669
  470MOL0     H63428   8.757  12.028  10.982 -1.2027 -0.6860 -1.9361
  470MOL0     H63429   8.894  11.919  11.009 -1.9735 -1.1913  1.2553
  470MOL0     H63430   8.915  11.108  10.383 -0.9621 -2.2259 -1.1283
  470MOL0     H63431   8.738  10.983  10.352 -0.5727  0.8652  1.9236
  470MOL0     H63432   8.528  10.756   9.957  0.4721 -1.0049  1.4999
  470MOL0     H63433   8.361  10.640   9.872 -3.7542 -1.0211 -1.2955
  470MOL0     H63434   8.174  10.855  10.854  1.2555 -0.4629 -0.4559
  470MOL0     H63435   8.358  10.921  10.983 -1.2114 -1.6035 -3.2081
  470MOL0     H63436   8.393  11.337  11.491  0.4025  2.8409 -1.6663
  470MOL0     H63437   8.585  11.368  11.629 -2.0599  0.3100  1.7153
  470MOL0     H63438   8.838  11.031  11.620  0.3419 -0.6004  1.0589
  470MOL0     H63439   8.926  11.106  11.733  0.3168 -2.2442 -0.9526
  470MOL0     H63440   8.975  11.172  11.427 -1.6551  0.0487  0.7670
  470MOL0     H63441   9.066  11.064  11.531 -1.1789 -2.2142 -1.3478
  470MOL0     H63442   9.173  11.204  11.654  2.5382  1.8260  0.1190
  470MOL0     H63443   9.056  11.332  11.639 -1.9037 -1.0510 -0.8379
  470MOL0     H63444   9.154  11.400  11.415 -0.7606 -0.0357  0.6474
  470MOL0     H63445   9.295  11.356  11.506  0.5573 -0.7215 -1.5997
  470MOL0     H63446   9.274  11.057  11.210  0.7889 -1.4424  1.3875
  470MOL0     H63447   8.777  11.050  11.433 -0.6143 -0.9358  0.1259
  470MOL0     H63448   8.520  10.934  11.235  1.2028 -0.7517  2.3208
  470MOL0     H63449   8.595  11.058  11.131  1.2005 -2.3022 -0.7674
  470MOL0     H63450   8.696  10.950  11.226  0.3743  2.1568  1.9251
  471MOL0     O63451  10.757   4.395   5.502 -0.1748 -0.4748 -0.2232
  471MOL0     C63452  10.668   4.316   5.525 -0.0448  0.1616  0.1067
  471MOL0     O63453  10.595   4.307   5.639  0.4536 -0.0904  0.2331
  471MOL0     C63454  10.622   4.393   5.741 -0.7044 -0.6207  0.1146
  471MOL0     C63455  10.743   4.376   5.805  0.2298  0.3864 -0.5507
  471MOL0     C63456  10.772   4.454   5.911  0.1499  0.6345  0.4620
  471MOL0     C63457  10.689   4.561   5.946 -0.0299 -1.3290 -0.3507
  471MOL0     O63458  10.733   4.649   6.044  0.1486  0.2714 -0.4253
  471MOL0     C63459  10.640   4.738   6.103  0.1043 -0.9805 -0.1389
  471MOL0     C63460  10.686   4.804   6.231  0.7723  0.5321 -0.4611
  471MOL0     C63461  10.832   4.858   6.234 -0.1756 -0.2743  0.2712
  471MOL0     C63462  10.855   4.922   6.367  0.5011  0.1983 -0.1475
  471MOL0     C63463  10.991   5.004   6.357  0.1455 -0.5610  0.7287
  471MOL0     C63464  11.010   5.090   6.490 -0.1495 -0.6453 -0.3439
  471MOL0     C63465  11.154   5.123   6.519 -0.6151  0.9248  0.1541
  471MOL0     C63466  11.163   5.199   6.652  1.1184 -0.0895 -0.2994
  471MOL0     N63467  11.295   5.261   6.674 -0.6770 -0.2133  1.1871
  471MOL0     C63468  11.345   5.376   6.615 -0.1970 -0.5412 -0.3562
  471MOL0     C63469  11.471   5.374   6.652  0.4409  0.4420 -0.6974
  471MOL0     C63470  11.591   5.457   6.605 -0.1152  0.2793 -0.0528
  471MOL0     C63471  11.559   5.600   6.591 -0.2679  0.0586  0.8177
  471MOL0     C63472  11.692   5.677   6.566  0.3343 -0.1083 -1.3416
  471MOL0     C63473  11.760   5.713   6.699  0.7903 -0.2353 -0.5580
  471MOL0     O63474  11.676   5.797   6.782 -0.2192  0.1748  0.4191
  471MOL0     C63475  11.736   5.830   6.909  0.9992  0.7004  0.0905
  471MOL0     C63476  11.733   5.733   7.015 -0.0499 -0.8000  0.5962
  471MOL0     C63477  11.793   5.770   7.138 -0.5581 -0.3007 -0.7519
  471MOL0     C63478  11.870   5.878   7.153 -0.0879 -0.1589  0.1582
  471MOL0     C63479  11.953   5.900   7.272  0.7244 -0.4444  0.6277
  471MOL0     O63480  11.928   5.817   7.368  0.2374 -0.4618  0.9258
  471MOL0     C63481  12.001   5.811   7.477 -0.4733 -0.2864 -0.5681
  471MOL0     C63482  12.009   5.912   7.572 -0.4556 -0.3777 -0.3798
  471MOL0     C63483  12.061   5.889   7.700 -0.1593 -0.8895 -0.1563
  471MOL0     C63484  12.116   5.774   7.729  0.1735 -0.2009 -0.3788
  471MOL0     O63485  12.155   5.726   7.853  0.8023 -0.8447  0.0924
  471MOL0     C63486  12.142   5.822   7.961 -0.5347 -0.2023 -0.1688
  471MOL0     C63487  12.160   5.755   8.103 -0.0096 -0.0584 -0.6307
  471MOL0     C63488  12.128   5.856   8.207 -0.2252  1.2480  0.6393
  471MOL0     C63489  12.101   5.784   8.338 -0.5710 -0.6378 -0.5071
  471MOL0     C63490  12.033   5.877   8.441  0.2196  1.1139 -0.8124
  471MOL0     C63491  12.037   5.821   8.589  0.1661  0.7078  0.0513
  471MOL0     C63492  11.936   5.698   8.613  0.2089 -0.2578 -0.3749
  471MOL0     C63493  11.844   5.715   8.737  0.0519 -0.0033 -0.7718
  471MOL0    Cl63494  11.957   5.734   8.881 -0.3728  0.5926  0.0099
  471MOL0     C63495  12.126   5.662   7.636  0.7724 -0.8771 -0.1382
  471MOL0     C63496  12.075   5.689   7.509  0.7948 -1.3280  1.0845
  471MOL0     O63497  12.040   5.986   7.271 -0.1422  0.5988 -0.5634
  471MOL0     C63498  11.866   5.981   7.044  0.6060 -0.6338 -0.9862
  471MOL0     C63499  11.802   5.951   6.921  0.4114  0.1935 -0.3121
  471MOL0     N63500  11.507   5.259   6.736 -0.1264  0.3660  0.3928
  471MOL0     N63501  11.396   5.194   6.734  0.1722  0.6897  0.2017
  471MOL0     C63502  10.572   4.584   5.879  0.1164 -0.7838  0.4731
  471MOL0     C63503  10.540   4.497   5.777  0.5136 -0.5133 -1.0767
  471MOL0     C63504  10.630   4.228   5.418 -0.1518  0.6275 -0.1461
  471MOL0     C63505  10.515   4.146   5.434  0.2241  0.0943 -0.6152
  471MOL0     C63506  10.478   4.049   5.340 -0.1595  0.3183 -0.2497
  471MOL0     C63507  10.559   4.018   5.233 -0.5326 -0.1363 -0.5139
  471MOL0     O63508  10.535   3.900   5.164 -0.3641 -0.3364 -0.4644
  471MOL0     C63509  10.636   3.828   5.097 -0.8732 -0.1366 -0.3430
  471MOL0     C63510  10.749   3.768   5.189 -0.4744  0.0704 -0.0466
  471MOL0     C63511  10.685   3.668   5.294  1.3562 -0.2362 -0.3209
  471MOL0     C63512  10.782   3.633   5.410 -0.1533  0.7532  0.2522
  471MOL0     C63513  10.902   3.547   5.365  0.6891 -0.6804 -0.3868
  471MOL0     C63514  10.985   3.463   5.338 -0.5868 -0.3047 -0.0596
  471MOL0     C63515  10.671   4.103   5.215  0.6841 -0.4668 -0.0936
  471MOL0     C63516  10.700   4.212   5.300  0.9855 -0.8819  0.1794
  471MOL0     C63517  10.812   4.301   5.250  0.1611  0.1759  1.1031
  471MOL0     H63518  10.811   4.300   5.768 -0.9105  0.6103 -3.4485
  471MOL0     H63519  10.871   4.438   5.953  2.5049  5.1892 -2.5401
  471MOL0     H63520  10.609   4.817   6.033 -0.6555  0.7031  1.9694
  471MOL0     H63521  10.555   4.677   6.135 -0.6800  1.2564  2.4072
  471MOL0     H63522  10.664   4.735   6.314  1.8475  2.1514  1.2503
  471MOL0     H63523  10.630   4.898   6.237  2.5296  2.0087 -4.2876
  471MOL0     H63524  10.842   4.942   6.164 -2.5226  0.6759  0.9666
  471MOL0     H63525  10.907   4.779   6.230 -0.7203 -0.8256  0.8034
  471MOL0     H63526  10.775   4.995   6.387 -0.5413 -0.6220 -1.1677
  471MOL0     H63527  10.876   4.848   6.445 -1.2060  1.3133  1.4682
  471MOL0     H63528  11.081   4.943   6.347  0.7911  0.5252 -0.2898
  471MOL0     H63529  10.992   5.077   6.276  0.5798  0.7429  1.8658
  471MOL0     H63530  10.941   5.174   6.489  2.2177  1.4280 -0.5639
  471MOL0     H63531  10.987   5.034   6.581 -0.1839  2.3572  1.6007
  471MOL0     H63532  11.193   5.189   6.442 -2.9263  4.5850  1.8644
  471MOL0     H63533  11.210   5.029   6.519 -0.3558  1.0589  1.3437
  471MOL0     H63534  11.097   5.287   6.652  0.7818 -0.3303 -1.6719
  471MOL0     H63535  11.127   5.125   6.724  2.2379 -2.1446 -1.7572
  471MOL0     H63536  11.283   5.446   6.559 -3.2802 -3.2223 -0.5337
  471MOL0     H63537  11.676   5.448   6.673  0.3905  2.4823 -0.3415
  471MOL0     H63538  11.624   5.414   6.509 -0.7111 -2.8274  1.0159
  471MOL0     H63539  11.496   5.626   6.506  0.0695  3.6349  1.5171
  471MOL0     H63540  11.513   5.643   6.680  0.9890  0.8639  1.1023
  471MOL0     H63541  11.663   5.777   6.532  0.5838  1.3654  2.2879
  471MOL0     H63542  11.751   5.627   6.489  2.0130  1.0753 -0.8746
  471MOL0     H63543  11.858   5.756   6.675  0.7058  0.3299  0.0705
  471MOL0     H63544  11.797   5.619   6.739 -0.0157 -0.0535  0.6445
  471MOL0     H63545  11.670   5.645   7.001  0.1347 -0.7589 -0.6436
  471MOL0     H63546  11.789   5.699   7.220 -1.9980 -0.6547 -1.1078
  471MOL0     H63547  11.946   5.999   7.554 -1.7645 -1.3517 -0.6620
  471MOL0     H63548  12.039   5.974   7.763 -2.6591 -1.0793 -0.6638
  471MOL0     H63549  12.204   5.911   7.956 -1.5046  0.4176 -2.3856
  471MOL0     H63550  12.035   5.844   7.963 -0.2801  1.2177 -0.9664
  471MOL0     H63551  12.080   5.681   8.110 -0.2530  0.2375 -0.2429
  471MOL0     H63552  12.253   5.701   8.119 -0.4964 -0.3053  1.5767
  471MOL0     H63553  12.224   5.905   8.230 -0.3723  1.0571  1.7164
  471MOL0     H63554  12.047   5.926   8.185 -2.1175  0.5923  4.5918
  471MOL0     H63555  12.193   5.738   8.375  0.2500  2.6768  2.1185
  471MOL0     H63556  12.021   5.710   8.327 -2.7029  1.8870 -4.3405
  471MOL0     H63557  11.926   5.885   8.418  0.7796  2.3587 -3.4699
  471MOL0     H63558  12.082   5.974   8.453  3.8744 -0.8804  3.1309
  471MOL0     H63559  12.141   5.799   8.615 -0.4754 -1.9982  0.5897
  471MOL0     H63560  12.010   5.901   8.658  2.1764  3.7930 -2.4430
  471MOL0     H63561  11.992   5.605   8.624  0.5127 -0.3930 -2.5142
  471MOL0     H63562  11.871   5.684   8.526 -0.2210  1.8383 -0.4298
  471MOL0     H63563  11.786   5.808   8.731 -0.4808 -0.3568 -1.1497
  471MOL0     H63564  11.783   5.625   8.746  0.1567  0.0812  1.4618
  471MOL0     H63565  12.173   5.573   7.676  1.3989  0.3703  2.0821
  471MOL0     H63566  12.085   5.613   7.433 -2.6607  1.4882 -2.6347
  471MOL0     H63567  11.909   6.080   7.056 -1.8216  0.4831 -0.9327
  471MOL0     H63568  11.803   6.027   6.843  2.5461 -1.1884 -1.7350
  471MOL0     H63569  10.510   4.667   5.911 -0.2284 -0.5828 -0.6719
  471MOL0     H63570  10.441   4.496   5.733 -1.1511 -0.9893  2.3078
  471MOL0     H63571  10.466   4.158   5.530 -0.3161 -0.7478 -0.7777
  471MOL0     H63572  10.392   3.987   5.363 -0.1530  1.6804  4.5775
  471MOL0     H63573  10.689   3.889   5.023  3.9002 -2.1407  1.0151
  471MOL0     H63574  10.585   3.745   5.047 -0.5978 -0.7214  0.3389
  471MOL0     H63575  10.792   3.848   5.251 -0.4634 -0.0064  0.0454
  471MOL0     H63576  10.825   3.719   5.128 -0.0224 -0.0035  0.5708
  471MOL0     H63577  10.663   3.573   5.243  1.9339 -0.4805 -0.1207
  471MOL0     H63578  10.598   3.726   5.326  2.5027  1.5231 -0.2668
  471MOL0     H63579  10.835   3.719   5.454  1.9214  0.1630 -0.9550
  471MOL0     H63580  10.722   3.576   5.481 -1.1480  0.5185 -0.7504
  471MOL0     H63581  11.055   3.384   5.316 -1.3269 -0.5927 -1.4652
  471MOL0     H63582  10.741   4.084   5.134 -0.9705 -0.9895 -1.4561
  471MOL0     H63583  10.796   4.409   5.259 -1.7530  0.2087 -1.4162
  471MOL0     H63584  10.893   4.267   5.316  1.5179 -2.7238 -1.8009
  471MOL0     H63585  10.835   4.269   5.148 -2.5137 -4.6488  1.7189
  472MOL0     O63586   2.694   1.695   4.329 -0.4603  0.1715 -0.0286
  472MOL0     C63587   2.765   1.693   4.231 -0.7586 -0.9154  0.4464
  472MOL0     O63588   2.796   1.579   4.164 -0.2801  0.0520  0.2390
  472MOL0     C63589   2.702   1.481   4.159  1.0211 -0.3076  0.5602
  472MOL0     C63590   2.567   1.496   4.119 -0.5591 -0.4123  0.1884
  472MOL0     C63591   2.490   1.377   4.132 -0.9233  0.3063 -0.3330
  472MOL0     C63592   2.543   1.253   4.165 -0.6046  0.0525  0.1852
  472MOL0     O63593   2.448   1.154   4.176 -1.0000 -0.2300  0.3266
  472MOL0     C63594   2.488   1.025   4.141 -0.3108  1.0852 -0.0885
  472MOL0     C63595   2.377   0.920   4.109 -0.5698 -0.1418  0.6168
  472MOL0     C63596   2.296   0.861   4.228  0.5889 -0.5839 -0.2069
  472MOL0     C63597   2.214   0.742   4.186 -0.0394  0.1096 -0.2648
  472MOL0     C63598   2.089   0.698   4.274  0.4000  0.0391  0.1475
  472MOL0     C63599   2.142   0.587   4.371 -0.4079  0.0903  0.4265
  472MOL0     C63600   2.019   0.568   4.467 -1.2633 -0.8668  0.6807
  472MOL0     C63601   2.072   0.481   4.580  0.5911  0.3600 -0.0943
  472MOL0     N63602   2.057   0.337   4.557 -0.7544  0.0463  0.0815
  472MOL0     C63603   2.168   0.264   4.502  0.4572  0.5113 -1.0494
  472MOL0     C63604   2.125   0.137   4.521  0.8283  0.2685 -0.4875
  472MOL0     C63605   2.205   0.011   4.478  0.6192  0.1184  0.9156
  472MOL0     C63606   2.145  -0.043   4.346 -0.7357 -0.0029 -0.0996
  472MOL0     C63607   2.229  -0.162   4.300  1.0646  0.1023  0.0305
  472MOL0     C63608   2.165  -0.232   4.180  0.2100  0.3483 -0.4458
  472MOL0     O63609   2.075  -0.334   4.233  0.5341 -0.2713  0.4420
  472MOL0     C63610   1.986  -0.394   4.139 -0.3371 -1.4184 -0.5658
  472MOL0     C63611   1.972  -0.372   3.991  0.4273 -2.1477 -1.0968
  472MOL0     C63612   1.867  -0.434   3.918  0.7025  0.4185  0.6248
  472MOL0     C63613   1.784  -0.532   3.976 -0.5492 -0.7835  0.4370
  472MOL0     C63614   1.685  -0.592   3.899  0.3672  0.1282  0.3053
  472MOL0     O63615   1.568  -0.636   3.961  0.0838  0.3484 -0.0688
  472MOL0     C63616   1.458  -0.699   3.908 -0.1545 -0.4853  0.2348
  472MOL0     C63617   1.463  -0.824   3.849  0.2067 -0.4734 -0.2039
  472MOL0     C63618   1.352  -0.891   3.832  0.1335  0.7110 -0.4126
  472MOL0     C63619   1.220  -0.831   3.849 -0.0719 -0.2732  0.6321
  472MOL0     O63620   1.107  -0.903   3.820  0.3262  1.2339 -0.0749
  472MOL0     C63621   0.971  -0.842   3.805  0.3880  1.0298 -1.4465
  472MOL0     C63622   0.880  -0.958   3.755  0.1560 -0.4813  0.1435
  472MOL0     C63623   0.746  -0.897   3.706  0.3617 -0.3376 -0.3347
  472MOL0     C63624   0.678  -0.970   3.589 -0.2391 -0.7359  0.5493
  472MOL0     C63625   0.765  -0.971   3.468  0.0175  0.6205  0.7397
  472MOL0     C63626   0.681  -1.016   3.342  0.5905 -0.6035  0.0853
  472MOL0     C63627   0.773  -1.097   3.246 -0.2184 -0.4476  0.3391
  472MOL0     C63628   0.843  -1.225   3.300 -0.4013 -0.3846 -0.6071
  472MOL0    Cl63629   0.732  -1.329   3.393  0.1895  0.2227  0.5269
  472MOL0     C63630   1.214  -0.699   3.900 -0.6567  0.2272  0.3408
  472MOL0     C63631   1.334  -0.630   3.926 -0.0503  0.2462  0.3516
  472MOL0     O63632   1.709  -0.597   3.779  0.3731 -0.6005 -0.8243
  472MOL0     C63633   1.807  -0.561   4.108 -0.9933 -0.1129 -0.7023
  472MOL0     C63634   1.903  -0.495   4.185  0.4600  0.5239  0.5562
  472MOL0     N63635   1.997   0.138   4.589 -1.0797  0.5272 -0.1930
  472MOL0     N63636   1.959   0.260   4.602 -0.3860  0.2838 -0.1138
  472MOL0     C63637   2.688   1.242   4.192  0.1831  1.1285 -0.7972
  472MOL0     C63638   2.751   1.362   4.198 -0.3810  0.5341 -0.3976
  472MOL0     C63639   2.822   1.833   4.202 -0.1732  0.1304  0.7207
  472MOL0     C63640   2.743   1.950   4.230 -1.1912 -0.9343 -1.0294
  472MOL0     C63641   2.792   2.069   4.176  0.0661 -0.7967  0.7664
  472MOL0     C63642   2.916   2.088   4.114 -0.3002 -0.2791 -1.2475
  472MOL0     O63643   2.946   2.213   4.068  0.4786 -0.1582  0.2966
  472MOL0     C63644   2.980   2.296   4.176  0.3122 -1.0003 -0.1148
  472MOL0     C63645   3.092   2.384   4.114 -0.4489  0.0226  0.1993
  472MOL0     C63646   3.219   2.300   4.075 -0.3226  0.5948  0.5207
  472MOL0     C63647   3.312   2.401   3.994 -0.4604 -0.6935  0.5034
  472MOL0     C63648   3.445   2.342   3.975 -0.2586  0.4212  0.5681
  472MOL0     C63649   3.559   2.306   3.957  0.2322  0.7102 -0.1402
  472MOL0     C63650   2.990   1.977   4.088 -0.3658  0.3100 -0.6942
  472MOL0     C63651   2.944   1.849   4.126  0.3281  0.2823  0.6600
  472MOL0     C63652   3.027   1.735   4.071  0.6031 -0.4120  0.4670
  472MOL0     H63653   2.540   1.583   4.060  2.5648 -1.3469 -2.9834
  472MOL0     H63654   2.383   1.378   4.111 -0.8932 -0.9884 -0.5832
  472MOL0     H63655   2.547   1.050   4.053  3.7781  1.7793  2.5876
  472MOL0     H63656   2.563   0.980   4.206  1.4446 -1.1833 -3.4521
  472MOL0     H63657   2.431   0.838   4.061  0.2374  0.0466  1.1932
  472MOL0     H63658   2.314   0.961   4.029  1.0760 -0.3816 -0.8770
  472MOL0     H63659   2.221   0.935   4.258  0.9593 -0.0847 -0.5093
  472MOL0     H63660   2.361   0.839   4.313  0.3694  0.7620  0.3315
  472MOL0     H63661   2.165   0.773   4.093  3.5876  0.5559 -2.1792
  472MOL0     H63662   2.271   0.651   4.166 -1.6965 -0.7645 -1.2907
  472MOL0     H63663   2.058   0.788   4.327 -3.9524  0.3399 -2.4621
  472MOL0     H63664   2.016   0.656   4.205  3.0020 -2.7075 -1.1874
  472MOL0     H63665   2.184   0.503   4.315  4.1247  1.5066  1.2670
  472MOL0     H63666   2.222   0.628   4.434  1.7847 -1.1481 -1.3783
  472MOL0     H63667   1.932   0.518   4.424 -1.6425  0.4852 -0.1698
  472MOL0     H63668   1.980   0.662   4.506  1.0021  0.3518  0.1819
  472MOL0     H63669   2.178   0.500   4.600  1.0090  1.8682 -3.1400
  472MOL0     H63670   2.013   0.483   4.672  0.3066 -2.4012 -0.1470
  472MOL0     H63671   2.260   0.297   4.456  2.3310 -3.0927 -0.2970
  472MOL0     H63672   2.312   0.028   4.465  0.3860  0.9858 -0.0461
  472MOL0     H63673   2.196  -0.071   4.548  1.3294 -1.7638 -1.0767
  472MOL0     H63674   2.040  -0.072   4.354 -1.3495  1.5601 -1.8988
  472MOL0     H63675   2.152   0.034   4.269  2.3643 -1.1231 -1.0951
  472MOL0     H63676   2.249  -0.227   4.386  0.4765  0.0007  0.0925
  472MOL0     H63677   2.323  -0.115   4.270  0.8217  0.1188 -0.7323
  472MOL0     H63678   2.245  -0.280   4.122 -0.5853  2.3257 -3.4458
  472MOL0     H63679   2.119  -0.165   4.106 -1.2555  0.9408  0.9567
  472MOL0     H63680   2.031  -0.300   3.935  0.2299  0.6696  1.9900
  472MOL0     H63681   1.871  -0.420   3.811  1.2182 -1.4058  0.3562
  472MOL0     H63682   1.556  -0.881   3.851  1.9004  2.0156  3.4046
  472MOL0     H63683   1.351  -0.993   3.797  0.4415  1.3901 -2.5212
  472MOL0     H63684   0.945  -0.804   3.904  3.3509  0.7868 -0.4589
  472MOL0     H63685   0.968  -0.763   3.729 -0.1359  3.6702  1.1424
  472MOL0     H63686   0.937  -1.019   3.684 -0.6299 -1.6081  0.4379
  472MOL0     H63687   0.846  -1.023   3.837 -0.3547  1.0154  1.1458
  472MOL0     H63688   0.678  -0.886   3.791 -0.8552 -1.4259 -1.1269
  472MOL0     H63689   0.769  -0.795   3.675  1.6358 -1.0353 -1.8310
  472MOL0     H63690   0.585  -0.923   3.557  2.5730  5.1341 -0.2504
  472MOL0     H63691   0.658  -1.076   3.609  2.8639 -1.5093  0.0257
  472MOL0     H63692   0.847  -1.039   3.492 -0.7123 -0.0517  1.3738
  472MOL0     H63693   0.804  -0.871   3.447  1.2794 -0.4777 -2.9162
  472MOL0     H63694   0.597  -1.076   3.378  0.7139 -1.0967 -0.4451
  472MOL0     H63695   0.640  -0.926   3.294  1.5096  1.0245  2.1860
  472MOL0     H63696   0.844  -1.027   3.199  1.9929 -1.9783  1.2384
  472MOL0     H63697   0.705  -1.124   3.165 -0.9828  2.1205  0.0324
  472MOL0     H63698   0.891  -1.268   3.212  0.6233  0.1132 -0.3050
  472MOL0     H63699   0.925  -1.213   3.372 -0.0761  1.1682 -1.1853
  472MOL0     H63700   1.115  -0.659   3.921 -0.3619  1.3640 -0.3461
  472MOL0     H63701   1.333  -0.545   3.994  1.1739 -0.1327  0.8588
  472MOL0     H63702   1.759  -0.647   4.152 -4.0130  2.3743  1.2963
  472MOL0     H63703   1.916  -0.541   4.282 -3.1453  0.8536  1.3331
  472MOL0     H63704   2.741   1.155   4.230 -0.6093  0.7903 -0.4331
  472MOL0     H63705   2.852   1.371   4.236 -1.1450  1.5937  1.4806
  472MOL0     H63706   2.655   1.946   4.294  0.4948 -2.1456  1.3871
  472MOL0     H63707   2.739   2.162   4.189 -1.4229 -1.0284 -2.7626
  472MOL0     H63708   3.022   2.233   4.255 -0.7473 -0.1458  1.1712
  472MOL0     H63709   2.893   2.343   4.222  2.1269 -0.1715  2.7330
  472MOL0     H63710   3.117   2.464   4.185  2.7972  1.8357 -2.6656
  472MOL0     H63711   3.046   2.435   4.029 -0.1908 -0.1338 -0.0337
  472MOL0     H63712   3.192   2.220   4.006 -0.2363  2.4303 -1.7962
  472MOL0     H63713   3.274   2.254   4.157 -1.1744  1.1146  1.3997
  472MOL0     H63714   3.274   2.421   3.894  0.0433 -2.9674 -0.1904
  472MOL0     H63715   3.312   2.500   4.042 -0.0879 -0.5496  0.2116
  472MOL0     H63716   3.663   2.279   3.953 -0.0650 -0.8297  1.4737
  472MOL0     H63717   3.091   1.987   4.052  0.0932  0.5527  0.6141
  472MOL0     H63718   2.972   1.671   4.003  3.1866  0.0397 -2.2387
  472MOL0     H63719   3.115   1.757   4.010 -0.7585 -0.4738 -1.5868
  472MOL0     H63720   3.061   1.662   4.145 -2.7045 -1.3850  1.1871
  473MOL0     O63721   4.822   7.030   9.980 -0.1488 -0.0417 -0.1075
  473MOL0     C63722   4.944   7.004   9.958  0.3274 -0.2698 -0.4788
  473MOL0     O63723   5.049   7.072  10.014  0.0478 -0.1661 -0.4753
  473MOL0     C63724   5.005   7.176  10.087 -0.6371  0.2709  0.6148
  473MOL0     C63725   4.931   7.160  10.208  0.2565  0.3395  0.3364
  473MOL0     C63726   4.881   7.265  10.273 -0.2012 -0.0759 -0.3615
  473MOL0     C63727   4.917   7.394  10.239  0.7491 -0.1542 -0.8765
  473MOL0     O63728   4.888   7.493  10.333  0.7129 -0.6511  0.5404
  473MOL0     C63729   4.924   7.630  10.310  0.4395 -0.0611  0.4124
  473MOL0     C63730   4.841   7.713  10.401  0.1713 -0.8440  1.0498
  473MOL0     C63731   4.853   7.856  10.357 -0.3302 -0.3653  0.6057
  473MOL0     C63732   4.784   7.956  10.451 -0.1754 -0.0042 -0.1277
  473MOL0     C63733   4.823   8.103  10.441 -0.1842  0.4745  0.6195
  473MOL0     C63734   4.823   8.160  10.297 -0.4530 -0.7426  0.8226
  473MOL0     C63735   4.697   8.141  10.202  1.1096 -0.7380 -0.0607
  473MOL0     C63736   4.564   8.155  10.259  0.6126  0.2409  0.2956
  473MOL0     N63737   4.539   8.304  10.290  1.0128  0.4925 -0.6114
  473MOL0     C63738   4.560   8.358  10.416  1.1626  0.4896  0.4846
  473MOL0     C63739   4.482   8.472  10.420 -0.2503 -1.4346  0.0029
  473MOL0     C63740   4.485   8.582  10.524 -0.0016  0.3468 -0.1203
  473MOL0     C63741   4.602   8.673  10.520 -0.7250  0.2089  0.0407
  473MOL0     C63742   4.745   8.618  10.535  0.6635 -0.4237  0.5397
  473MOL0     C63743   4.778   8.570  10.673  0.0998 -0.0469  1.2846
  473MOL0     O63744   4.728   8.436  10.696  0.1321  0.5754 -0.9314
  473MOL0     C63745   4.733   8.383  10.825 -0.4610 -0.8226 -0.3387
  473MOL0     C63746   4.807   8.427  10.943 -0.0016 -0.4688  0.1620
  473MOL0     C63747   4.832   8.334  11.047 -0.2745 -0.1291  0.2716
  473MOL0     C63748   4.774   8.205  11.046  0.6443 -0.4079  0.9144
  473MOL0     C63749   4.825   8.101  11.140  0.5560  0.4824 -0.2159
  473MOL0     O63750   4.758   7.979  11.131  0.1507  0.4955  0.1134
  473MOL0     C63751   4.804   7.884  11.219  0.2059  0.5129 -0.6742
  473MOL0     C63752   4.926   7.807  11.187  0.6568 -0.2684  1.5008
  473MOL0     C63753   4.951   7.701  11.271 -0.0590  0.2239  0.3445
  473MOL0     C63754   4.873   7.671  11.382 -0.2360 -0.4079 -0.1478
  473MOL0     O63755   4.926   7.570  11.462 -0.6654  0.1175  0.7223
  473MOL0     C63756   4.837   7.507  11.554  0.9962  0.3004  0.5825
  473MOL0     C63757   4.911   7.387  11.577  0.0871 -0.3042  0.0315
  473MOL0     C63758   4.831   7.282  11.654  0.0988  0.1094  1.6234
  473MOL0     C63759   4.911   7.167  11.680 -1.0309  2.0905  0.4762
  473MOL0     C63760   4.825   7.066  11.763  0.3026 -0.9401  0.0693
  473MOL0     C63761   4.920   6.963  11.823 -0.2944 -0.0318 -0.5720
  473MOL0     C63762   4.975   6.867  11.721  0.3183  0.6039  0.0819
  473MOL0     C63763   5.073   6.766  11.801 -0.4337 -0.1089 -0.6986
  473MOL0    Cl63764   5.247   6.845  11.811  0.0988 -0.4058  0.0652
  473MOL0     C63765   4.763   7.751  11.409 -0.1566 -0.3419  0.1367
  473MOL0     C63766   4.728   7.848  11.325  0.5018  0.1589 -0.5583
  473MOL0     O63767   4.900   8.133  11.231 -0.2035  0.4063  0.5162
  473MOL0     C63768   4.690   8.175  10.939  0.0061 -0.1494  0.0233
  473MOL0     C63769   4.660   8.268  10.838  0.1265  0.9239  0.2611
  473MOL0     N63770   4.404   8.477  10.315 -0.2458  0.1498  0.6492
  473MOL0     N63771   4.425   8.370  10.242 -0.6367 -0.2807  0.3075
  473MOL0     C63772   4.985   7.420  10.127 -1.0058  0.1188  0.2804
  473MOL0     C63773   5.021   7.307  10.047  0.5694 -0.7837  0.2258
  473MOL0     C63774   4.980   6.875   9.885 -0.1556  1.1348  0.4580
  473MOL0     C63775   5.111   6.879   9.835  0.2415  0.5122 -0.0906
  473MOL0     C63776   5.163   6.765   9.785  0.4552 -0.7675 -1.2462
  473MOL0     C63777   5.091   6.645   9.774  0.6572  0.6732  0.2191
  473MOL0     O63778   5.140   6.538   9.706 -0.1616 -1.0130 -0.0915
  473MOL0     C63779   5.139   6.410   9.763  0.3016 -0.1797 -0.2673
  473MOL0     C63780   5.274   6.358   9.805  0.7358  0.4488  1.2723
  473MOL0     C63781   5.291   6.326   9.963  0.5529  0.6972  0.7999
  473MOL0     C63782   5.179   6.241  10.026  0.4353 -0.6504 -0.0190
  473MOL0     C63783   5.136   6.137   9.941  0.2353 -1.4018  0.2025
  473MOL0     C63784   5.092   6.043   9.880  0.2710 -0.4128  1.1942
  473MOL0     C63785   4.963   6.642   9.827  0.1123  0.6149  0.4766
  473MOL0     C63786   4.905   6.757   9.883  0.9377 -0.5699 -0.8536
  473MOL0     C63787   4.759   6.744   9.944 -1.4688  0.3877 -0.1652
  473MOL0     H63788   4.904   7.062  10.244  3.4709 -0.5304  0.6545
  473MOL0     H63789   4.821   7.244  10.361 -0.4986 -1.9199 -0.9516
  473MOL0     H63790   5.031   7.649  10.328  0.7840 -0.5895 -0.9857
  473MOL0     H63791   4.900   7.647  10.205  0.6392 -0.9076  0.2279
  473MOL0     H63792   4.889   7.703  10.499  3.0938 -0.3916 -0.2091
  473MOL0     H63793   4.736   7.683  10.403  0.4827 -2.4936 -1.6956
  473MOL0     H63794   4.802   7.870  10.261 -0.4173 -0.1416  0.6826
  473MOL0     H63795   4.959   7.879  10.359 -0.3999 -0.0626  1.5030
  473MOL0     H63796   4.675   7.942  10.453 -0.3025  0.7514 -0.9207
  473MOL0     H63797   4.811   7.926  10.552  1.3396  0.4859 -0.3722
  473MOL0     H63798   4.749   8.155  10.502 -0.5536  1.4250 -0.6071
  473MOL0     H63799   4.917   8.128  10.491  0.7076 -1.0266 -0.2323
  473MOL0     H63800   4.840   8.267  10.307 -3.7048  0.3956 -3.2553
  473MOL0     H63801   4.916   8.135  10.245  0.1103  0.1724  1.3579
  473MOL0     H63802   4.704   8.040  10.160  0.0126 -0.9634  0.2489
  473MOL0     H63803   4.688   8.204  10.113 -0.3149 -1.3025 -0.3380
  473MOL0     H63804   4.484   8.111  10.199  0.2262  0.6978  0.4695
  473MOL0     H63805   4.565   8.101  10.354  1.3260 -2.3420 -1.0664
  473MOL0     H63806   4.624   8.319  10.495 -1.6098  0.7430  3.0544
  473MOL0     H63807   4.403   8.654  10.516  0.5726  1.2990  1.9075
  473MOL0     H63808   4.475   8.543  10.626 -1.5980 -2.7821 -1.3351
  473MOL0     H63809   4.609   8.710  10.417  4.4387 -1.4157 -0.4577
  473MOL0     H63810   4.588   8.753  10.593 -2.5112 -0.1550  0.1360
  473MOL0     H63811   4.807   8.707  10.521 -0.7421  0.2614 -1.7851
  473MOL0     H63812   4.770   8.545  10.457 -0.3477 -0.5464  0.3216
  473MOL0     H63813   4.728   8.638  10.742 -1.1591  0.9988 -0.5747
  473MOL0     H63814   4.887   8.582  10.674  0.1189  0.3140 -0.6373
  473MOL0     H63815   4.866   8.517  10.931  1.7758 -1.5877  0.0967
  473MOL0     H63816   4.906   8.362  11.121  1.2196  0.1925 -1.2759
  473MOL0     H63817   4.990   7.838  11.104 -1.4879 -2.6515 -1.2397
  473MOL0     H63818   5.034   7.642  11.232 -0.8632  0.0118 -1.1166
  473MOL0     H63819   4.838   7.561  11.649  2.4719 -1.3946  1.6281
  473MOL0     H63820   4.738   7.482  11.515  2.1296 -1.1134 -1.6429
  473MOL0     H63821   4.942   7.335  11.486  2.2771 -2.1560  1.7076
  473MOL0     H63822   5.010   7.409  11.619 -0.5107 -1.5066  2.1711
  473MOL0     H63823   4.779   7.320  11.743  1.1629  1.4443  1.7157
  473MOL0     H63824   4.750   7.254  11.587  2.3118 -0.5800 -0.9444
  473MOL0     H63825   4.999   7.192  11.740 -1.6241  0.9014  1.9165
  473MOL0     H63826   4.947   7.115  11.591  1.8816 -0.5262  2.9075
  473MOL0     H63827   4.743   7.014  11.712 -0.1826 -2.0385  1.8778
  473MOL0     H63828   4.766   7.110  11.844 -1.0890 -0.2917 -1.2596
  473MOL0     H63829   4.995   7.014  11.884  2.4850 -2.1285 -2.0254
  473MOL0     H63830   4.859   6.905  11.893 -4.0262  0.5504 -3.0440
  473MOL0     H63831   5.034   6.925  11.650 -2.2141  3.5435  0.1591
  473MOL0     H63832   4.889   6.810  11.683 -1.5000  1.9585  1.9229
  473MOL0     H63833   5.048   6.766  11.907 -0.5079  0.2023 -0.7142
  473MOL0     H63834   5.053   6.667  11.760 -0.2687 -0.8336  0.9247
  473MOL0     H63835   4.700   7.736  11.496 -3.1830 -0.3245 -1.8995
  473MOL0     H63836   4.645   7.912  11.353  1.5884  0.1927  3.1003
  473MOL0     H63837   4.659   8.072  10.928  2.5434 -1.2807  2.2742
  473MOL0     H63838   4.606   8.235  10.749  4.5283 -1.6477 -1.8143
  473MOL0     H63839   5.033   7.515  10.107  0.9471 -0.8198  0.3718
  473MOL0     H63840   5.079   7.317   9.956 -0.8932 -2.2669 -0.9398
  473MOL0     H63841   5.164   6.973   9.841  0.9831  0.0394  1.2576
  473MOL0     H63842   5.260   6.772   9.736  0.0375  4.2621 -1.8235
  473MOL0     H63843   5.081   6.339   9.703 -0.5863 -2.3337  2.9040
  473MOL0     H63844   5.076   6.415   9.853 -0.8259 -0.7796 -1.0008
  473MOL0     H63845   5.358   6.425   9.788 -0.6418  2.3582  1.5975
  473MOL0     H63846   5.295   6.267   9.747  0.5119  0.5240  1.0689
  473MOL0     H63847   5.322   6.417  10.015  1.4111  1.3735 -0.8082
  473MOL0     H63848   5.386   6.275   9.982  0.2950  0.1777  0.6988
  473MOL0     H63849   5.232   6.201  10.113 -0.8669  0.4271  1.3172
  473MOL0     H63850   5.085   6.286  10.058 -0.7923 -0.2980 -3.6842
  473MOL0     H63851   5.053   5.964   9.819 -0.9993  1.0337  0.0333
  473MOL0     H63852   4.901   6.554   9.819  2.0924 -1.1878  3.3936
  473MOL0     H63853   4.736   6.641   9.975  0.7619 -1.2018 -3.2356
  473MOL0     H63854   4.753   6.800  10.038  0.9678 -2.9469  2.1968
  473MOL0     H63855   4.682   6.782   9.875 -0.9962 -1.3512 -1.7196
  474MOL0     O63856   0.590   9.425   1.260  0.2929 -0.0299 -0.5970
  474MOL0     C63857   0.579   9.534   1.318 -0.1391  1.2137  0.2700
  474MOL0     O63858   0.596   9.539   1.454 -0.0647  0.3597 -0.0231
  474MOL0     C63859   0.644   9.425   1.522 -0.3763 -1.0078  0.6456
  474MOL0     C63860   0.556   9.337   1.576  0.3529  0.2798  0.8063
  474MOL0     C63861   0.609   9.229   1.657 -0.0182 -0.5429  0.7513
  474MOL0     C63862   0.744   9.214   1.681 -0.1350  0.0177  1.3106
  474MOL0     O63863   0.808   9.103   1.731  0.7699 -0.8588 -0.1387
  474MOL0     C63864   0.741   8.971   1.745 -0.5126 -0.0284  1.0490
  474MOL0     C63865   0.844   8.855   1.754  0.1661 -0.0493  0.2851
  474MOL0     C63866   0.919   8.823   1.628 -0.6747 -0.5486  0.3174
  474MOL0     C63867   0.951   8.674   1.619  0.7375 -1.1394  0.3837
  474MOL0     C63868   0.976   8.630   1.475  1.0775 -0.0552 -0.1947
  474MOL0     C63869   0.975   8.474   1.474 -0.1740  0.1925 -0.3267
  474MOL0     C63870   1.033   8.436   1.336  0.3692  0.0379 -0.8971
  474MOL0     C63871   1.039   8.276   1.320 -0.9614  0.1474 -0.1133
  474MOL0     N63872   0.895   8.232   1.306 -0.8537  0.2880  0.3074
  474MOL0     C63873   0.805   8.264   1.201  0.6506  0.1936  0.2492
  474MOL0     C63874   0.683   8.232   1.251  0.4826  0.5088 -0.7626
  474MOL0     C63875   0.561   8.226   1.160 -0.0445 -0.7669 -0.7175
  474MOL0     C63876   0.587   8.137   1.049 -0.0631  0.6311  1.3969
  474MOL0     C63877   0.585   7.994   1.095 -0.5940 -0.0632  0.0279
  474MOL0     C63878   0.652   7.905   0.990 -0.1525 -0.4716  0.9719
  474MOL0     O63879   0.794   7.915   1.018 -0.3863 -0.2328  0.4506
  474MOL0     C63880   0.844   7.813   1.096  0.3430  0.4718  0.1818
  474MOL0     C63881   0.855   7.682   1.045  0.2356  0.1438 -0.8000
  474MOL0     C63882   0.891   7.577   1.131  0.5995 -0.4900 -0.8162
  474MOL0     C63883   0.927   7.607   1.267  0.4864 -0.1513  0.7614
  474MOL0     C63884   0.968   7.487   1.350 -0.6091 -0.0378  0.0063
  474MOL0     O63885   1.019   7.519   1.471  0.0916 -0.8533 -1.3866
  474MOL0     C63886   1.006   7.429   1.568 -0.0544  0.7805  0.2257
  474MOL0     C63887   1.056   7.298   1.551  0.3214 -0.0534  0.6022
  474MOL0     C63888   1.023   7.206   1.652 -0.6392 -0.3895  0.0064
  474MOL0     C63889   0.936   7.233   1.763  0.3611  0.4888 -0.4254
  474MOL0     O63890   0.919   7.139   1.865 -0.6066 -0.5953  0.0374
  474MOL0     C63891   0.895   7.193   1.997  0.0311  0.3676  0.4510
  474MOL0     C63892   0.795   7.096   2.075 -0.2525  0.1403 -1.2692
  474MOL0     C63893   0.644   7.139   2.036 -0.4166  0.4335 -0.3808
  474MOL0     C63894   0.606   7.252   2.128  0.6216  0.5676  0.1638
  474MOL0     C63895   0.571   7.205   2.267 -0.5579  0.3272  0.5748
  474MOL0     C63896   0.428   7.191   2.302  0.4182 -0.6607  0.3693
  474MOL0     C63897   0.401   7.172   2.452  0.3048 -0.5674  0.2018
  474MOL0     C63898   0.298   7.074   2.465 -0.2665  0.5067  0.3161
  474MOL0    Cl63899   0.143   7.119   2.387  0.0670  0.0438  0.1180
  474MOL0     C63900   0.876   7.358   1.763  0.3165 -0.1909  0.2811
  474MOL0     C63901   0.915   7.459   1.668 -0.1979 -0.2526 -0.7319
  474MOL0     O63902   0.947   7.375   1.312 -0.2125 -0.1919  1.4208
  474MOL0     C63903   0.919   7.733   1.314  0.3979 -0.4776  0.9298
  474MOL0     C63904   0.870   7.836   1.230 -0.5277  0.0856 -0.6202
  474MOL0     N63905   0.707   8.179   1.381 -0.4772 -0.4521 -0.2437
  474MOL0     N63906   0.828   8.176   1.412  0.2231  1.1642  1.2144
  474MOL0     C63907   0.833   9.304   1.626  0.7024 -0.2894 -0.4250
  474MOL0     C63908   0.781   9.411   1.551  0.6808  0.1906 -0.4956
  474MOL0     C63909   0.520   9.656   1.242 -0.2018 -0.9937  0.6084
  474MOL0     C63910   0.447   9.750   1.321  0.1603  1.0110 -0.6354
  474MOL0     C63911   0.394   9.864   1.269  0.4703 -0.2151  0.0868
  474MOL0     C63912   0.392   9.879   1.132 -0.5188 -1.4494  0.2193
  474MOL0     O63913   0.326   9.994   1.095  0.6784  0.2480  0.3115
  474MOL0     C63914   0.307  10.014   0.953  0.7394 -0.0440 -0.6524
  474MOL0     C63915   0.189   9.934   0.894  0.5576  1.3286  0.3840
  474MOL0     C63916   0.176   9.948   0.740  0.4699 -0.4457 -0.3995
  474MOL0     C63917   0.307   9.977   0.665  0.1227  0.8397 -0.5887
  474MOL0     C63918   0.399   9.858   0.653  0.4822 -0.9079  0.2247
  474MOL0     C63919   0.479   9.771   0.674  0.3438  0.2933  0.0118
  474MOL0     C63920   0.471   9.795   1.049  0.2637 -0.7315 -1.2460
  474MOL0     C63921   0.544   9.688   1.102 -0.4232  0.2421 -0.3974
  474MOL0     C63922   0.633   9.615   1.015 -0.0245  0.9953 -0.4404
  474MOL0     H63923   0.449   9.349   1.563  0.1765 -1.6658  0.2257
  474MOL0     H63924   0.527   9.169   1.696 -1.6988  0.9186 -0.4217
  474MOL0     H63925   0.676   8.978   1.833 -0.4163 -2.3410  1.3737
  474MOL0     H63926   0.670   8.950   1.665  0.2676 -0.0698  0.3542
  474MOL0     H63927   0.787   8.766   1.782  0.8453 -0.9371 -1.0288
  474MOL0     H63928   0.912   8.872   1.838 -0.4331 -0.9877  0.9789
  474MOL0     H63929   1.016   8.875   1.629 -0.5215 -0.7990  2.3618
  474MOL0     H63930   0.858   8.860   1.545 -0.0761  4.4336  1.7286
  474MOL0     H63931   1.040   8.648   1.676  2.4689 -2.3003 -2.6315
  474MOL0     H63932   0.863   8.615   1.649  0.1874 -0.7211 -0.3761
  474MOL0     H63933   0.896   8.660   1.407 -0.1718 -1.9795  0.3456
  474MOL0     H63934   1.067   8.678   1.437  1.0337  1.9347  2.0285
  474MOL0     H63935   1.050   8.456   1.551  1.3704  6.4063  0.1867
  474MOL0     H63936   0.876   8.430   1.489  0.6527 -1.7547 -0.2631
  474MOL0     H63937   1.135   8.475   1.326  1.0833 -1.7999 -1.1282
  474MOL0     H63938   0.968   8.480   1.260  1.3350 -2.7491 -3.5281
  474MOL0     H63939   1.104   8.257   1.233  2.0882 -0.1764  2.0553
  474MOL0     H63940   1.085   8.218   1.400 -1.6292 -0.0795  0.1106
  474MOL0     H63941   0.819   8.320   1.110  1.2586  0.0478  0.2460
  474MOL0     H63942   0.480   8.196   1.227  1.6165  2.8379  3.4019
  474MOL0     H63943   0.542   8.330   1.133  0.3908 -1.1878 -2.8015
  474MOL0     H63944   0.512   8.161   0.974  0.9411  0.7519  0.3984
  474MOL0     H63945   0.684   8.164   1.006 -0.5419 -2.5018 -2.1568
  474MOL0     H63946   0.486   7.951   1.112  0.3656 -2.1885  0.6427
  474MOL0     H63947   0.636   7.989   1.192 -1.2877 -1.1837  0.3513
  474MOL0     H63948   0.625   7.937   0.889 -3.7079  1.4415  2.3662
  474MOL0     H63949   0.602   7.808   0.991 -1.0755 -0.0347 -0.5048
  474MOL0     H63950   0.831   7.667   0.940 -0.6647  0.3267 -0.6354
  474MOL0     H63951   0.911   7.480   1.085  0.6212  0.2348 -2.4170
  474MOL0     H63952   1.112   7.266   1.464 -2.0016  1.3960 -1.5448
  474MOL0     H63953   1.073   7.110   1.641 -1.4454 -0.9740  1.2478
  474MOL0     H63954   0.990   7.187   2.051  0.3462 -2.2473 -0.2707
  474MOL0     H63955   0.863   7.298   1.993 -2.3990 -0.3264 -0.4472
  474MOL0     H63956   0.811   6.994   2.040  3.1396  0.3940 -0.8523
  474MOL0     H63957   0.813   7.103   2.183 -3.2603 -0.5980 -0.6403
  474MOL0     H63958   0.640   7.178   1.934 -0.6430  1.8894  0.1617
  474MOL0     H63959   0.581   7.051   2.052  0.5741 -0.7846 -2.7297
  474MOL0     H63960   0.518   7.292   2.078  0.5800  0.3500  0.0656
  474MOL0     H63961   0.669   7.342   2.131 -3.2338  3.5285 -0.4870
  474MOL0     H63962   0.601   7.290   2.330 -3.3252 -0.0829  2.6265
  474MOL0     H63963   0.632   7.120   2.299 -1.3477  0.7241  3.4096
  474MOL0     H63964   0.363   7.274   2.273 -1.8839 -2.4358  0.1468
  474MOL0     H63965   0.387   7.105   2.249 -2.0311 -0.7362  2.1779
  474MOL0     H63966   0.368   7.262   2.505  1.7714 -1.2619  2.4327
  474MOL0     H63967   0.492   7.130   2.497  1.4923 -0.8989 -2.3091
  474MOL0     H63968   0.332   6.983   2.414 -0.5482 -0.7856  2.3257
  474MOL0     H63969   0.270   7.035   2.563 -1.4702 -0.6763 -0.4496
  474MOL0     H63970   0.799   7.386   1.834  2.8820 -0.3574  3.3845
  474MOL0     H63971   0.872   7.558   1.670 -3.7077 -1.6093 -1.8835
  474MOL0     H63972   0.949   7.769   1.411  0.5741 -0.3833  0.8402
  474MOL0     H63973   0.880   7.940   1.260  2.1601  0.6384 -3.0357
  474MOL0     H63974   0.941   9.294   1.636  1.5434  5.2021 -1.0562
  474MOL0     H63975   0.844   9.497   1.528  1.8807 -0.7485 -0.8763
  474MOL0     H63976   0.434   9.721   1.424  4.8588 -2.6378 -0.7120
  474MOL0     H63977   0.349   9.937   1.336 -0.4869 -1.1601  0.4971
  474MOL0     H63978   0.397   9.986   0.898  1.3658  2.0116 -0.7357
  474MOL0     H63979   0.288  10.121   0.938 -1.1750 -0.3564 -0.8219
  474MOL0     H63980   0.091   9.960   0.935  0.4152  0.3570  0.6872
  474MOL0     H63981   0.217   9.828   0.906  0.3978  1.3864  1.3528
  474MOL0     H63982   0.103  10.028   0.724 -0.8203 -1.8863 -2.1020
  474MOL0     H63983   0.130   9.858   0.699  1.6795 -2.1205  1.7205
  474MOL0     H63984   0.291  10.008   0.562 -3.9212  0.6900 -0.1723
  474MOL0     H63985   0.380  10.046   0.709  2.8275 -1.6966 -0.7746
  474MOL0     H63986   0.526   9.679   0.704 -2.9108 -1.1755  1.0965
  474MOL0     H63987   0.485   9.816   0.943 -1.0967  0.5350 -1.2034
  474MOL0     H63988   0.699   9.680   0.957  1.1663 -1.7978 -2.4309
  474MOL0     H63989   0.696   9.549   1.076  0.0149  1.3660 -0.0781
  474MOL0     H63990   0.593   9.549   0.938 -1.4544  1.0950  0.1892
  475MOL0     O63991   8.141   2.961   8.813  0.4081  0.0775 -0.4714
  475MOL0     C63992   8.106   2.986   8.695 -0.6992  0.2511  0.5146
  475MOL0     O63993   8.185   2.961   8.585 -0.3074  0.9793  0.7042
  475MOL0     C63994   8.321   2.930   8.589  0.0822  0.6584  0.0071
  475MOL0     C63995   8.409   3.033   8.616  0.6187  0.7284  0.0390
  475MOL0     C63996   8.548   3.020   8.617 -0.1800 -0.4112  0.5162
  475MOL0     C63997   8.602   2.901   8.577  0.2617  0.4461  0.3392
  475MOL0     O63998   8.736   2.868   8.560  0.6969 -0.5432  0.1943
  475MOL0     C63999   8.845   2.955   8.595  0.4730  0.7416  0.0477
  475MOL0     C64000   8.977   2.886   8.552 -0.4458  0.2178  0.2864
  475MOL0     C64001   9.088   2.992   8.525  0.1524 -0.0347  0.1701
  475MOL0     C64002   9.082   3.034   8.383 -0.3016 -0.6633  0.3120
  475MOL0     C64003   9.211   3.112   8.364  0.0593 -0.5534  0.3167
  475MOL0     C64004   9.229   3.159   8.220 -0.8536 -0.0521  0.4896
  475MOL0     C64005   9.366   3.224   8.198 -0.5478 -0.6181 -0.8428
  475MOL0     C64006   9.402   3.260   8.063  0.5459 -0.2176  0.5313
  475MOL0     N64007   9.415   3.136   7.989 -0.5057  0.6981 -0.3670
  475MOL0     C64008   9.541   3.066   7.984 -0.2341  0.1596 -0.6189
  475MOL0     C64009   9.535   2.966   7.902 -0.3482 -1.2506 -0.1408
  475MOL0     C64010   9.642   2.875   7.863 -0.5998 -0.4294 -0.2227
  475MOL0     C64011   9.704   2.896   7.716  0.1586  0.0596  0.4186
  475MOL0     C64012   9.834   2.977   7.731  0.5781 -0.1107  0.3142
  475MOL0     C64013   9.890   2.990   7.594 -0.5530 -0.5765  0.4442
  475MOL0     O64014   9.901   2.872   7.519  0.7102  0.2213  0.2603
  475MOL0     C64015   9.945   2.870   7.385  0.1144 -0.3690 -1.0246
  475MOL0     C64016   9.951   2.984   7.303 -0.7168 -0.3923 -1.0669
  475MOL0     C64017  10.016   2.973   7.182 -0.4419  0.4329  0.5059
  475MOL0     C64018  10.068   2.852   7.129  0.9991 -0.0377  0.1861
  475MOL0     C64019  10.115   2.829   6.995  0.2331 -0.2434 -0.7569
  475MOL0     O64020  10.171   2.719   6.959 -0.1361  0.0219  0.0490
  475MOL0     C64021  10.197   2.699   6.829 -0.4132 -0.4036 -0.4236
  475MOL0     C64022  10.324   2.741   6.782  0.4671  0.1593  1.3950
  475MOL0     C64023  10.358   2.725   6.646  0.3277  0.6932 -0.3229
  475MOL0     C64024  10.277   2.657   6.560  0.4841  0.2220  0.8968
  475MOL0     O64025  10.313   2.613   6.436 -0.2081 -0.2918 -0.6655
  475MOL0     C64026  10.427   2.669   6.379 -0.3249 -0.4167 -0.0833
  475MOL0     C64027  10.447   2.616   6.235  0.7781 -0.0247  1.1053
  475MOL0     C64028  10.597   2.651   6.199 -0.4283  0.2271  0.8294
  475MOL0     C64029  10.638   2.583   6.069 -0.9124  0.4039  0.2027
  475MOL0     C64030  10.788   2.593   6.030  0.0673  0.8113 -0.3095
  475MOL0     C64031  10.824   2.740   6.023  0.2000  0.3223  0.0088
  475MOL0     C64032  10.948   2.741   5.928 -0.1110  0.0004  0.0121
  475MOL0     C64033  11.003   2.884   5.942 -0.4044  1.0702 -0.2892
  475MOL0    Cl64034  11.156   2.910   5.856 -0.4824  0.5091 -0.4621
  475MOL0     C64035  10.154   2.610   6.605  0.4493  1.2979 -0.9182
  475MOL0     C64036  10.108   2.629   6.742 -0.8210  0.7897 -0.4003
  475MOL0     O64037  10.089   2.925   6.923  0.1669  0.0228  0.1096
  475MOL0     C64038  10.072   2.750   7.220  0.6294 -0.6549  0.4040
  475MOL0     C64039  10.022   2.766   7.352 -0.1146  0.6550  1.0158
  475MOL0     N64040   9.398   2.959   7.865  0.4386  0.1057  0.8705
  475MOL0     N64041   9.331   3.062   7.913  0.2837  0.5032 -0.5541
  475MOL0     C64042   8.519   2.796   8.547 -0.0207 -0.0706  0.4964
  475MOL0     C64043   8.375   2.805   8.558  0.4402  0.0494 -0.3098
  475MOL0     C64044   7.964   3.024   8.673 -0.1556 -0.1305  0.0850
  475MOL0     C64045   7.908   2.998   8.541  0.4277 -0.2610 -0.6903
  475MOL0     C64046   7.771   3.036   8.511  0.0571 -0.1191 -0.4141
  475MOL0     C64047   7.697   3.104   8.607 -0.8026  0.3072 -0.2226
  475MOL0     O64048   7.566   3.103   8.572  0.4510  0.1926 -0.1334
  475MOL0     C64049   7.474   3.180   8.643 -0.7499 -1.0571 -0.0512
  475MOL0     C64050   7.493   3.331   8.609  0.2103  0.6586 -0.4226
  475MOL0     C64051   7.540   3.364   8.467  0.3611  0.1299 -0.4898
  475MOL0     C64052   7.443   3.323   8.353 -0.6175 -0.6168 -0.3168
  475MOL0     C64053   7.297   3.356   8.366 -0.4554 -0.5496  0.1778
  475MOL0     C64054   7.192   3.402   8.362  0.7595  0.8845 -0.2112
  475MOL0     C64055   7.760   3.142   8.731 -0.8120 -0.5613  0.2120
  475MOL0     C64056   7.886   3.091   8.768 -1.3771  0.7575  0.3531
  475MOL0     C64057   7.958   3.127   8.903  0.3746 -0.4018  0.9025
  475MOL0     H64058   8.361   3.126   8.642 -0.5642 -0.4783  2.4531
  475MOL0     H64059   8.618   3.095   8.651 -0.4146 -0.8199  1.9955
  475MOL0     H64060   8.837   3.047   8.535  3.6009 -0.3475 -2.3421
  475MOL0     H64061   8.844   2.978   8.702 -2.9101 -0.6325  0.4227
  475MOL0     H64062   8.960   2.831   8.459 -0.1319  4.4593 -2.5684
  475MOL0     H64063   9.008   2.825   8.637  0.0988  1.3595  0.9379
  475MOL0     H64064   9.187   2.951   8.550 -0.1904 -0.4067  0.9589
  475MOL0     H64065   9.072   3.071   8.598  1.1368  1.8108 -1.5308
  475MOL0     H64066   9.090   2.952   8.311  0.8761 -0.7028  0.4656
  475MOL0     H64067   8.993   3.095   8.363 -1.6387 -2.7538 -0.3637
  475MOL0     H64068   9.209   3.205   8.421 -4.5520  0.5243 -1.1215
  475MOL0     H64069   9.298   3.051   8.389  2.3433  2.4315  0.1026
  475MOL0     H64070   9.228   3.072   8.153 -0.4613 -1.4999  2.2798
  475MOL0     H64071   9.148   3.225   8.191  0.7632  1.7640 -0.1094
  475MOL0     H64072   9.447   3.168   8.246 -2.1850 -1.8832  0.5600
  475MOL0     H64073   9.365   3.314   8.260  2.6400 -0.8114 -0.3059
  475MOL0     H64074   9.326   3.316   8.006 -0.9015 -0.6682  1.9354
  475MOL0     H64075   9.497   3.313   8.060  0.7743 -0.6577 -0.6109
  475MOL0     H64076   9.632   3.102   8.032  0.2809 -0.5278 -1.0652
  475MOL0     H64077   9.721   2.891   7.937  2.6216 -1.5578 -3.2019
  475MOL0     H64078   9.609   2.771   7.876  0.4017 -1.0667 -2.4332
  475MOL0     H64079   9.721   2.804   7.660 -3.7670 -0.9259  0.5724
  475MOL0     H64080   9.638   2.959   7.656  2.4998  2.0971 -0.1652
  475MOL0     H64081   9.900   2.922   7.799  0.2829  1.3150  1.8174
  475MOL0     H64082   9.819   3.073   7.782 -1.0934 -0.9225  1.4336
  475MOL0     H64083   9.988   3.036   7.611  0.1062 -2.0599  0.8218
  475MOL0     H64084   9.839   3.068   7.538 -0.7948 -0.8550  0.2734
  475MOL0     H64085   9.897   3.070   7.341 -0.5597 -0.5982 -0.3751
  475MOL0     H64086  10.024   3.056   7.113  4.6643  1.5615  2.0692
  475MOL0     H64087  10.408   2.772   6.845  0.4103 -2.4073  2.8766
  475MOL0     H64088  10.451   2.768   6.610 -0.1767  0.7095 -1.6447
  475MOL0     H64089  10.419   2.777   6.369  1.0211 -0.2447  0.5197
  475MOL0     H64090  10.511   2.643   6.444  0.2745  1.3006 -0.1203
  475MOL0     H64091  10.447   2.507   6.236 -1.9962 -0.0900  2.1507
  475MOL0     H64092  10.375   2.665   6.169  0.0192 -0.3384  1.6861
  475MOL0     H64093  10.607   2.759   6.187  0.0233 -0.0840 -2.5701
  475MOL0     H64094  10.671   2.621   6.273  0.5822  2.7602  0.9384
  475MOL0     H64095  10.568   2.615   5.992 -0.5109  1.3341  0.2070
  475MOL0     H64096  10.633   2.476   6.091  1.5621  0.2658  0.4301
  475MOL0     H64097  10.794   2.536   5.937 -2.2946 -3.1029  1.6750
  475MOL0     H64098  10.854   2.536   6.096 -0.6115 -2.6879 -2.4144
  475MOL0     H64099  10.736   2.794   5.986 -0.6881 -0.2174  1.2659
  475MOL0     H64100  10.846   2.768   6.126  1.6275  1.6957 -0.6226
  475MOL0     H64101  10.912   2.712   5.829 -1.4956  7.7416 -2.4013
  475MOL0     H64102  11.023   2.667   5.958 -1.4533 -1.6816 -0.6418
  475MOL0     H64103  10.936   2.957   5.896 -3.0912  0.7871  2.8502
  475MOL0     H64104  11.016   2.924   6.042  3.3943  4.5062 -1.8981
  475MOL0     H64105  10.095   2.551   6.536 -1.7012 -0.7734  2.3730
  475MOL0     H64106  10.014   2.590   6.781 -0.9250  2.7413  1.4469
  475MOL0     H64107  10.116   2.658   7.183 -0.5108 -0.5679 -1.2407
  475MOL0     H64108  10.035   2.680   7.418 -2.8367 -1.7046 -1.2610
  475MOL0     H64109   8.552   2.696   8.521 -1.4819 -0.0488 -1.7473
  475MOL0     H64110   8.320   2.712   8.556  0.1955  0.1573  1.0690
  475MOL0     H64111   7.958   2.931   8.472 -1.6358  0.0375 -2.5685
  475MOL0     H64112   7.730   3.007   8.415 -0.6400  1.9701 -0.7970
  475MOL0     H64113   7.491   3.164   8.750  2.8274 -2.7418 -0.7303
  475MOL0     H64114   7.370   3.158   8.617 -2.6773 -0.7154  5.8829
  475MOL0     H64115   7.561   3.377   8.681  0.5330  1.9437 -1.5264
  475MOL0     H64116   7.393   3.375   8.614  0.0538  0.3795 -1.0074
  475MOL0     H64117   7.643   3.330   8.458  1.7489  3.4786  1.3078
  475MOL0     H64118   7.560   3.471   8.466 -0.7788  0.3890  0.5967
  475MOL0     H64119   7.482   3.357   8.257  1.8101 -3.0618 -0.3263
  475MOL0     H64120   7.450   3.214   8.355  1.0043 -0.7095  5.3522
  475MOL0     H64121   7.091   3.434   8.346 -0.5642 -1.8617  1.8474
  475MOL0     H64122   7.712   3.221   8.787  0.1674  0.9947 -1.0378
  475MOL0     H64123   8.056   3.173   8.893  0.9861 -2.0000 -1.5799
  475MOL0     H64124   7.900   3.202   8.957 -2.4870 -2.1602  0.4918
  475MOL0     H64125   7.956   3.037   8.965  0.7190 -1.1387 -0.1271
  476MOL0     O64126  10.313  11.187   4.440  0.4582  0.3111 -0.8622
  476MOL0     C64127  10.372  11.116   4.519 -0.2840  0.5538 -0.5019
  476MOL0     O64128  10.480  11.156   4.598  0.5456 -1.0034 -0.3515
  476MOL0     C64129  10.490  11.294   4.613  0.4240 -0.6259  0.2162
  476MOL0     C64130  10.615  11.352   4.589  0.1746  1.0417 -0.0913
  476MOL0     C64131  10.640  11.486   4.620 -0.6754 -0.3338  1.3110
  476MOL0     C64132  10.529  11.566   4.646  0.1542 -0.2108  0.8031
  476MOL0     O64133  10.545  11.701   4.672  0.3188  0.8209  0.6484
  476MOL0     C64134  10.529  11.787   4.564 -0.1119 -0.6593  0.2099
  476MOL0     C64135  10.590  11.926   4.614  0.2332 -0.4204 -0.6061
  476MOL0     C64136  10.589  12.005   4.488 -0.4367 -0.1878  0.2334
  476MOL0     C64137  10.655  12.139   4.529  0.8833  0.6122  0.2121
  476MOL0     C64138  10.652  12.232   4.407  0.1352 -0.2695 -0.6269
  476MOL0     C64139  10.715  12.364   4.459  0.5750 -0.1636  0.1965
  476MOL0     C64140  10.760  12.439   4.340 -0.1190  0.3959  0.1224
  476MOL0     C64141  10.820  12.571   4.381 -0.9824 -0.0815  0.1193
  476MOL0     N64142  10.966  12.552   4.402 -0.5874 -0.0718  0.1309
  476MOL0     C64143  11.024  12.501   4.520  0.6377 -0.1996  0.1596
  476MOL0     C64144  11.154  12.467   4.482  0.3529 -0.3831  0.7817
  476MOL0     C64145  11.257  12.408   4.576  0.0073  0.1067 -0.6047
  476MOL0     C64146  11.348  12.516   4.640 -0.3237 -0.3194 -0.3421
  476MOL0     C64147  11.483  12.516   4.567  0.8937 -0.5019 -0.2339
  476MOL0     C64148  11.469  12.562   4.426  0.1311  0.0068 -0.2301
  476MOL0     O64149  11.585  12.624   4.392 -0.2904 -0.2333  0.4524
  476MOL0     C64150  11.573  12.754   4.342  0.0236 -0.0040 -0.7103
  476MOL0     C64151  11.682  12.828   4.371  0.0928  0.1802 -0.2003
  476MOL0     C64152  11.699  12.956   4.321  0.5933  0.3923 -0.4858
  476MOL0     C64153  11.594  13.019   4.251 -0.0749  0.1615 -0.6205
  476MOL0     C64154  11.609  13.160   4.206 -0.8188 -0.3418  0.0673
  476MOL0     O64155  11.701  13.236   4.269  0.2509  0.2716  0.4596
  476MOL0     C64156  11.714  13.365   4.241  0.0966 -0.3340  0.7520
  476MOL0     C64157  11.811  13.408   4.150  0.7901 -0.0162 -0.1550
  476MOL0     C64158  11.822  13.539   4.114  0.0336 -0.0999 -0.7847
  476MOL0     C64159  11.726  13.629   4.161  1.1081  1.5745 -0.7425
  476MOL0     O64160  11.735  13.765   4.124 -0.2553 -0.0123 -0.1723
  476MOL0     C64161  11.628  13.821   4.045  0.5126 -0.0469 -0.3671
  476MOL0     C64162  11.624  13.784   3.891  0.3839 -0.4217  0.1943
  476MOL0     C64163  11.657  13.647   3.850 -0.4505 -0.3763  0.8349
  476MOL0     C64164  11.616  13.614   3.705 -0.1305 -0.6543  0.2770
  476MOL0     C64165  11.679  13.486   3.640 -0.4176 -0.2681 -0.5231
  476MOL0     C64166  11.604  13.366   3.688  0.0277  0.2428 -0.8450
  476MOL0     C64167  11.666  13.232   3.658 -0.1614  0.0879 -0.7891
  476MOL0     C64168  11.765  13.176   3.770 -0.4333 -0.3375 -0.6058
  476MOL0    Cl64169  11.922  13.265   3.782 -0.3104 -0.1897 -0.4534
  476MOL0     C64170  11.610  13.584   4.232  0.6311  0.0047  0.5079
  476MOL0     C64171  11.614  13.454   4.280  0.5711  0.3537  0.0130
  476MOL0     O64172  11.535  13.201   4.117 -0.2133  0.3335 -0.3361
  476MOL0     C64173  11.479  12.943   4.213  0.2045 -0.8725 -0.7271
  476MOL0     C64174  11.477  12.808   4.257 -0.0933 -0.0982  0.3152
  476MOL0     N64175  11.170  12.502   4.347 -0.2368 -0.2017 -0.0810
  476MOL0     N64176  11.053  12.540   4.300 -0.9242  0.1168 -0.2812
  476MOL0     C64177  10.398  11.516   4.665 -0.1998 -0.0311  0.3624
  476MOL0     C64178  10.380  11.376   4.659  0.1140 -0.8015  1.7495
  476MOL0     C64179  10.329  10.978   4.538  0.2523 -0.6421  0.8859
  476MOL0     C64180  10.304  10.943   4.668 -0.1721 -0.5772  0.0304
  476MOL0     C64181  10.243  10.816   4.699  0.2841 -0.4385 -0.9462
  476MOL0     C64182  10.221  10.724   4.595 -0.7829  0.4849  0.0598
  476MOL0     O64183  10.169  10.597   4.626  0.6894 -0.3787  0.8708
  476MOL0     C64184  10.196  10.536   4.754 -0.1763  0.7717 -0.2328
  476MOL0     C64185  10.143  10.395   4.737 -0.2383  0.4648  0.4058
  476MOL0     C64186  10.212  10.326   4.610 -0.1774  0.5906 -0.1153
  476MOL0     C64187  10.119  10.224   4.539  0.2292 -0.1626  0.0079
  476MOL0     C64188  10.032  10.133   4.627  0.7104 -0.5144  0.4808
  476MOL0     C64189   9.965  10.051   4.687  0.4712 -0.0222  0.0153
  476MOL0     C64190  10.266  10.759   4.460 -0.1607  0.5085 -0.5123
  476MOL0     C64191  10.307  10.891   4.432  0.2546 -0.0880 -0.1854
  476MOL0     C64192  10.354  10.917   4.285  0.6012  0.5390 -1.0254
  476MOL0     H64193  10.698  11.290   4.555 -0.4984  0.9513 -1.6069
  476MOL0     H64194  10.740  11.530   4.623 -1.4466  1.9403 -1.6523
  476MOL0     H64195  10.587  11.753   4.478 -0.4232 -1.6649  0.3824
  476MOL0     H64196  10.424  11.804   4.539 -0.3798 -4.9136 -2.6463
  476MOL0     H64197  10.685  11.910   4.666  0.1675  0.3055 -0.2470
  476MOL0     H64198  10.518  11.985   4.671  0.6921 -1.0385  0.6652
  476MOL0     H64199  10.487  12.024   4.455 -0.6072  0.4063  1.0679
  476MOL0     H64200  10.653  11.957   4.414 -0.4179 -3.8744  2.3569
  476MOL0     H64201  10.594  12.193   4.602  2.1543 -0.3392  2.0614
  476MOL0     H64202  10.758  12.123   4.561  0.9207 -2.4144 -1.0619
  476MOL0     H64203  10.716  12.190   4.329 -0.1220  0.3148 -1.1656
  476MOL0     H64204  10.552  12.247   4.363 -1.9827  0.2499  3.7971
  476MOL0     H64205  10.642  12.423   4.516  0.4555  0.0916 -0.2158
  476MOL0     H64206  10.807  12.342   4.514  0.4245  0.4945  0.7247
  476MOL0     H64207  10.673  12.452   4.274 -0.4377 -4.8263 -0.8962
  476MOL0     H64208  10.831  12.378   4.284 -1.3465  0.8973 -2.0941
  476MOL0     H64209  10.794  12.638   4.298 -3.5147 -1.2543 -0.1160
  476MOL0     H64210  10.776  12.599   4.476  1.8031 -0.9183  1.7696
  476MOL0     H64211  10.985  12.502   4.621 -0.0057 -2.5128 -0.0194
  476MOL0     H64212  11.206  12.355   4.656  1.0254  1.5729  1.1029
  476MOL0     H64213  11.320  12.344   4.514 -0.3777  2.0059 -3.1487
  476MOL0     H64214  11.292  12.609   4.641  1.0036  0.5351  2.0093
  476MOL0     H64215  11.363  12.493   4.747 -0.3871 -0.3205 -0.3334
  476MOL0     H64216  11.521  12.413   4.565 -1.3825 -1.3973 -2.2650
  476MOL0     H64217  11.558  12.568   4.627  0.1287 -1.9545  2.1661
  476MOL0     H64218  11.380  12.627   4.427 -0.8370 -1.2354 -1.5481
  476MOL0     H64219  11.444  12.473   4.368 -3.4237  0.1112  0.8349
  476MOL0     H64220  11.755  12.785   4.439 -0.7970 -0.5402  0.3168
  476MOL0     H64221  11.787  13.018   4.338 -0.4072  1.7996 -0.2014
  476MOL0     H64222  11.885  13.332   4.125 -0.7549 -2.4044  2.0013
  476MOL0     H64223  11.894  13.564   4.037 -1.2392 -1.0866 -2.3468
  476MOL0     H64224  11.533  13.781   4.082  0.8687 -1.3703 -0.8365
  476MOL0     H64225  11.633  13.930   4.053  2.8617 -0.0836 -0.6697
  476MOL0     H64226  11.528  13.823   3.857 -0.6343 -1.5461  1.6489
  476MOL0     H64227  11.695  13.850   3.840  1.4878  0.6709  2.9121
  476MOL0     H64228  11.766  13.634   3.847 -0.2554  1.2384 -1.4648
  476MOL0     H64229  11.607  13.576   3.917 -1.7091 -0.4790 -0.1738
  476MOL0     H64230  11.645  13.703   3.648 -1.1227  0.0967  0.9172
  476MOL0     H64231  11.508  13.614   3.691  0.0214  2.7289 -2.2395
  476MOL0     H64232  11.787  13.486   3.658 -0.6564 -1.1814  1.0875
  476MOL0     H64233  11.674  13.481   3.531 -1.5074 -0.4425 -0.4740
  476MOL0     H64234  11.580  13.364   3.795 -1.8658  0.4405 -1.2350
  476MOL0     H64235  11.508  13.383   3.639 -1.3998  0.4194  1.8472
  476MOL0     H64236  11.706  13.238   3.557 -0.6447 -3.2690 -1.2974
  476MOL0     H64237  11.580  13.164   3.656  0.3317 -0.6380  0.7644
  476MOL0     H64238  11.714  13.173   3.867  1.3045 -3.0782  0.3498
  476MOL0     H64239  11.787  13.070   3.758 -0.9499 -0.2814 -2.4112
  476MOL0     H64240  11.526  13.650   4.251 -0.5422 -1.2226 -0.2567
  476MOL0     H64241  11.522  13.408   4.315 -0.2733 -1.4362 -3.9745
  476MOL0     H64242  11.394  12.974   4.155 -0.5418  2.8239  1.9368
  476MOL0     H64243  11.387  12.751   4.234 -0.3047  0.2766  0.1982
  476MOL0     H64244  10.334  11.596   4.701  1.0203  1.9344 -1.5961
  476MOL0     H64245  10.284  11.331   4.682 -0.7783  0.0144 -0.0935
  476MOL0     H64246  10.320  11.016   4.747  0.8073 -1.6581  0.8769
  476MOL0     H64247  10.197  10.804   4.796 -1.3999 -0.8882 -1.7632
  476MOL0     H64248  10.143  10.579   4.840  1.4063  0.2362  1.0741
  476MOL0     H64249  10.304  10.538   4.769 -0.4041 -1.7733  3.0080
  476MOL0     H64250  10.039  10.415   4.710 -0.5560  2.4814  2.7914
  476MOL0     H64251  10.155  10.330   4.823  0.0547  0.1695  0.1452
  476MOL0     H64252  10.296  10.270   4.652 -0.9330 -0.9175 -0.5368
  476MOL0     H64253  10.255  10.398   4.540 -0.8463  1.5932  0.4766
  476MOL0     H64254  10.053  10.281   4.473  1.2821  0.2476 -0.7196
  476MOL0     H64255  10.176  10.158   4.474  5.9467  1.7018  2.4862
  476MOL0     H64256   9.916   9.965   4.728 -0.1217  0.8530  1.2301
  476MOL0     H64257  10.243  10.686   4.384  0.2664 -2.3900  1.9457
  476MOL0     H64258  10.411  10.827   4.256 -1.0877 -0.5809 -1.0157
  476MOL0     H64259  10.262  10.912   4.226  1.2621 -0.0135 -2.0529
  476MOL0     H64260  10.406  11.012   4.271  0.4785  0.4672 -2.0181
  477MOL0     O64261   6.516   9.244   5.540 -0.0372 -0.7806 -0.2144
  477MOL0     C64262   6.514   9.172   5.637 -0.1334  0.7787 -0.5618
  477MOL0     O64263   6.544   9.037   5.644  0.2758 -0.4154  0.4840
  477MOL0     C64264   6.565   8.971   5.521 -0.0208  0.0173  0.7078
  477MOL0     C64265   6.475   8.868   5.482 -0.7465  0.1525  0.2481
  477MOL0     C64266   6.497   8.804   5.355  0.0250 -0.2850 -0.3384
  477MOL0     C64267   6.610   8.825   5.281 -0.1158 -0.0735 -0.7690
  477MOL0     O64268   6.632   8.767   5.162 -0.0655  0.2122  0.0759
  477MOL0     C64269   6.762   8.768   5.101  0.1885 -0.1150 -0.1571
  477MOL0     C64270   6.868   8.669   5.152  0.6484  1.2979 -0.4255
  477MOL0     C64271   6.819   8.523   5.175  0.2426  0.2094 -0.6435
  477MOL0     C64272   6.759   8.453   5.057 -0.0375 -0.2171 -0.7491
  477MOL0     C64273   6.737   8.304   5.091 -0.1509 -0.1821  0.3494
  477MOL0     C64274   6.834   8.208   5.015 -0.3614 -0.1123  0.2464
  477MOL0     C64275   6.909   8.109   5.107  0.7370  0.5302 -0.3093
  477MOL0     C64276   7.035   8.171   5.171 -0.0330 -0.2643  0.1233
  477MOL0     N64277   7.109   8.077   5.250 -0.6348 -0.0846 -0.0640
  477MOL0     C64278   7.092   8.043   5.380 -0.2905 -0.4134  0.3531
  477MOL0     C64279   7.178   7.936   5.408  0.6705 -0.2597  0.4247
  477MOL0     C64280   7.173   7.838   5.531  0.2772 -0.2610  0.6619
  477MOL0     C64281   7.314   7.829   5.594 -0.6268  0.5243  1.4881
  477MOL0     C64282   7.324   7.715   5.698 -0.6898  0.6102 -0.5974
  477MOL0     C64283   7.465   7.727   5.757 -0.7198  0.3243  0.6362
  477MOL0     O64284   7.501   7.613   5.837 -0.3897  0.1570  0.0245
  477MOL0     C64285   7.603   7.620   5.927  1.0046  0.4957  0.9736
  477MOL0     C64286   7.709   7.710   5.922 -1.1002  0.1857 -0.4281
  477MOL0     C64287   7.828   7.695   5.996  0.5718  0.1584  0.6558
  477MOL0     C64288   7.836   7.598   6.095 -0.8304 -0.5283 -0.3163
  477MOL0     C64289   7.951   7.576   6.187  0.4110 -0.9336 -0.4280
  477MOL0     O64290   8.035   7.684   6.207  0.8878  0.2553 -1.0458
  477MOL0     C64291   8.159   7.648   6.263  0.3686  0.2397  0.1961
  477MOL0     C64292   8.241   7.546   6.205  0.5496 -0.4772 -0.1668
  477MOL0     C64293   8.372   7.518   6.255 -0.2743 -0.5024  0.1328
  477MOL0     C64294   8.409   7.579   6.385 -0.4711 -0.0535  1.1229
  477MOL0     O64295   8.526   7.553   6.453 -0.1507  0.8957 -0.2813
  477MOL0     C64296   8.593   7.423   6.447 -0.4479 -0.4293  0.6307
  477MOL0     C64297   8.730   7.449   6.500  0.7993  0.1287  0.3285
  477MOL0     C64298   8.831   7.341   6.468 -0.4611 -0.4053 -0.2492
  477MOL0     C64299   8.811   7.204   6.543 -0.1256 -0.2355  0.2496
  477MOL0     C64300   8.750   7.108   6.439 -0.2760  0.8694  0.7126
  477MOL0     C64301   8.703   6.971   6.497  0.3305  0.7751 -0.4934
  477MOL0     C64302   8.611   6.892   6.402  0.9657 -0.5217 -0.3281
  477MOL0     C64303   8.578   6.751   6.449 -0.0356  1.3100  0.3265
  477MOL0    Cl64304   8.465   6.750   6.597  0.5490 -0.0599 -0.2049
  477MOL0     C64305   8.322   7.677   6.440  0.7727  0.8113  0.1334
  477MOL0     C64306   8.196   7.711   6.382  0.0658  0.3467  1.0263
  477MOL0     O64307   7.962   7.461   6.228 -0.2051  0.4267 -0.3069
  477MOL0     C64308   7.729   7.507   6.104 -0.9272  0.6639  0.4193
  477MOL0     C64309   7.615   7.516   6.026  0.6198 -0.2655 -0.7526
  477MOL0     N64310   7.244   7.914   5.297 -1.1226 -0.6207  0.3558
  477MOL0     N64311   7.206   7.995   5.202  0.5757 -0.1040 -1.1283
  477MOL0     C64312   6.702   8.923   5.328 -0.0682 -0.2034 -0.5208
  477MOL0     C64313   6.677   8.999   5.442 -0.3870 -0.7555  0.7932
  477MOL0     C64314   6.503   9.231   5.769 -0.0056 -0.4580 -0.6280
  477MOL0     C64315   6.476   9.146   5.880  0.4785  0.9088 -0.3649
  477MOL0     C64316   6.456   9.191   6.009  0.3494  1.1368 -0.3940
  477MOL0     C64317   6.450   9.333   6.030  0.4209  0.1311  0.3384
  477MOL0     O64318   6.419   9.395   6.153 -0.1959  1.1827  0.1260
  477MOL0     C64319   6.296   9.451   6.168 -0.1388  0.9566  0.5558
  477MOL0     C64320   6.226   9.431   6.305  0.0421 -0.2863 -1.3145
  477MOL0     C64321   6.321   9.465   6.423 -0.2154  0.8539 -0.1065
  477MOL0     C64322   6.368   9.345   6.509 -0.2535  0.0814  0.1614
  477MOL0     C64323   6.426   9.229   6.433 -0.4725 -1.4913 -0.2976
  477MOL0     C64324   6.460   9.140   6.361 -0.3299 -0.0692  0.5214
  477MOL0     C64325   6.498   9.421   5.929  0.3820  1.2452 -0.2984
  477MOL0     C64326   6.530   9.367   5.804 -0.9048  0.0602  0.5666
  477MOL0     C64327   6.587   9.472   5.703 -0.9497  0.1923  1.2139
  477MOL0     H64328   6.386   8.853   5.542  0.0681  2.2110  2.0910
  477MOL0     H64329   6.415   8.740   5.324 -0.8475 -0.5123  2.2121
  477MOL0     H64330   6.742   8.733   5.000  0.6238 -1.1846  0.1084
  477MOL0     H64331   6.816   8.863   5.106  0.9528 -0.5421 -0.1089
  477MOL0     H64332   6.911   8.702   5.247 -0.0208  0.0565  0.3369
  477MOL0     H64333   6.950   8.669   5.079  3.3248 -1.4823  2.3030
  477MOL0     H64334   6.748   8.526   5.258 -0.8021  0.1514 -1.5251
  477MOL0     H64335   6.896   8.456   5.216 -1.3299  0.3555  2.9037
  477MOL0     H64336   6.661   8.500   5.048 -0.0776  0.0288  0.7526
  477MOL0     H64337   6.820   8.467   4.968 -0.9995 -0.7499 -1.5118
  477MOL0     H64338   6.745   8.292   5.199  0.9281  2.8178  0.6936
  477MOL0     H64339   6.630   8.293   5.070 -0.2806 -0.4424  1.1278
  477MOL0     H64340   6.774   8.146   4.948  2.5554 -1.1534 -1.5884
  477MOL0     H64341   6.909   8.246   4.946  0.0715 -2.0647 -0.4328
  477MOL0     H64342   6.934   8.017   5.054 -0.5715 -0.0450  0.0167
  477MOL0     H64343   6.845   8.076   5.190  1.8254 -1.5780 -0.2544
  477MOL0     H64344   7.102   8.203   5.091  0.0768 -2.1568 -0.5988
  477MOL0     H64345   7.010   8.259   5.231  1.1770  0.7772 -0.8583
  477MOL0     H64346   7.020   8.089   5.447 -1.8781 -0.5404 -1.2046
  477MOL0     H64347   7.093   7.862   5.601  0.5079 -0.6495  1.0647
  477MOL0     H64348   7.155   7.738   5.490  1.4513  0.7219 -2.5347
  477MOL0     H64349   7.381   7.792   5.515 -1.6875 -0.3451  0.9821
  477MOL0     H64350   7.354   7.922   5.634 -1.0059 -0.1481  3.5142
  477MOL0     H64351   7.316   7.618   5.648  4.1942 -0.4899  0.3171
  477MOL0     H64352   7.241   7.715   5.769  0.3093 -0.6800  0.6181
  477MOL0     H64353   7.468   7.812   5.825  0.4282  1.9947 -1.3797
  477MOL0     H64354   7.529   7.750   5.671 -1.3659  2.6892  0.7090
  477MOL0     H64355   7.706   7.795   5.855  0.4801  0.2471 -0.4687
  477MOL0     H64356   7.910   7.764   5.982  0.0137  0.4777 -1.5487
  477MOL0     H64357   8.202   7.525   6.106  2.5444 -0.9368 -0.9011
  477MOL0     H64358   8.455   7.474   6.202  1.1047  2.4508 -0.3732
  477MOL0     H64359   8.543   7.337   6.491 -1.1321  0.2372  1.1791
  477MOL0     H64360   8.618   7.406   6.341  0.5609 -0.5743  0.8819
  477MOL0     H64361   8.774   7.539   6.456 -0.4672  0.7513  0.2920
  477MOL0     H64362   8.707   7.456   6.607  1.7096 -1.8847  0.7028
  477MOL0     H64363   8.849   7.330   6.360 -0.7596 -0.2427 -0.3154
  477MOL0     H64364   8.923   7.379   6.513 -2.1568  0.9609  2.3219
  477MOL0     H64365   8.749   7.212   6.632 -0.8574  0.5338 -0.3153
  477MOL0     H64366   8.900   7.145   6.566 -1.0834 -1.5237  0.7201
  477MOL0     H64367   8.825   7.088   6.362  0.6993 -0.2435  1.8935
  477MOL0     H64368   8.662   7.152   6.391  0.2098 -1.0351 -2.1438
  477MOL0     H64369   8.788   6.904   6.512  2.2324  3.1505 -0.0373
  477MOL0     H64370   8.653   6.989   6.593 -1.8655  3.9199 -2.0641
  477MOL0     H64371   8.654   6.879   6.302 -1.4584 -2.5780 -1.2321
  477MOL0     H64372   8.519   6.950   6.394  2.6157  2.5693  1.2031
  477MOL0     H64373   8.524   6.705   6.366 -1.6029  4.1503 -0.3764
  477MOL0     H64374   8.664   6.690   6.475  1.2022  3.0390  0.4857
  477MOL0     H64375   8.338   7.723   6.537 -0.3578 -2.2138  1.9006
  477MOL0     H64376   8.131   7.782   6.432 -0.9727  1.3270 -1.5478
  477MOL0     H64377   7.736   7.422   6.171  3.0388  0.5457  0.0890
  477MOL0     H64378   7.535   7.442   6.035  1.3693 -0.9683  0.3377
  477MOL0     H64379   6.796   8.962   5.289  0.0757  2.7641  2.3714
  477MOL0     H64380   6.740   9.078   5.481 -2.3635  2.3733 -1.7816
  477MOL0     H64381   6.459   9.042   5.857  2.4012  1.0116 -2.5168
  477MOL0     H64382   6.415   9.121   6.080  3.1284  1.6698  1.9432
  477MOL0     H64383   6.225   9.398   6.105  1.1146 -3.2019  2.3289
  477MOL0     H64384   6.314   9.558   6.155  0.5268  0.7873  0.0563
  477MOL0     H64385   6.190   9.328   6.309 -2.1875  0.4854  0.7189
  477MOL0     H64386   6.140   9.498   6.316 -0.2870 -0.5159 -2.3004
  477MOL0     H64387   6.281   9.544   6.486 -0.7163  1.1794 -0.8283
  477MOL0     H64388   6.418   9.502   6.388  0.7823  0.1321  1.7304
  477MOL0     H64389   6.431   9.377   6.593 -0.0628 -3.1701  1.4213
  477MOL0     H64390   6.279   9.312   6.565 -0.7119 -1.9910 -1.6351
  477MOL0     H64391   6.490   9.064   6.291 -0.8355  0.4930 -0.3232
  477MOL0     H64392   6.506   9.520   5.972 -1.3440 -0.4674  4.6332
  477MOL0     H64393   6.517   9.526   5.640  2.3507  0.8204 -2.2961
  477MOL0     H64394   6.645   9.550   5.753 -1.1881  1.8938 -1.0190
  477MOL0     H64395   6.658   9.428   5.632 -0.9369  1.7656  0.1971
  478MOL0     O64396   7.607   9.430   5.601 -0.0572  0.3839  0.5612
  478MOL0     C64397   7.632   9.412   5.482  0.0167  0.0918  0.5825
  478MOL0     O64398   7.547   9.444   5.374 -1.2110  0.3479 -0.7631
  478MOL0     C64399   7.466   9.554   5.388  1.0959 -0.4947 -0.4265
  478MOL0     C64400   7.334   9.547   5.357 -0.0289 -0.2159 -0.1268
  478MOL0     C64401   7.241   9.656   5.382 -0.1596 -0.1485  0.3339
  478MOL0     C64402   7.287   9.773   5.428  0.5687  0.0346  0.0824
  478MOL0     O64403   7.200   9.880   5.459 -0.0996 -0.6402 -0.0981
  478MOL0     C64404   7.123   9.934   5.355  0.1003  0.3486  0.2595
  478MOL0     C64405   7.067  10.068   5.382  0.0775 -0.2291 -0.5146
  478MOL0     C64406   6.951  10.108   5.286 -0.0373 -0.2635 -0.0388
  478MOL0     C64407   6.933  10.264   5.291  0.3331  0.8384 -0.1742
  478MOL0     C64408   6.839  10.306   5.189 -0.8566 -0.2022  0.4377
  478MOL0     C64409   6.851  10.457   5.164  0.1260  0.4930  0.0317
  478MOL0     C64410   6.926  10.494   5.034  0.2152  0.0855  0.3975
  478MOL0     C64411   7.068  10.427   5.023  0.7149 -0.1649  0.2193
  478MOL0     N64412   7.156  10.478   4.908  0.0687 -0.5723  0.6981
  478MOL0     C64413   7.150  10.449   4.778 -0.7185  0.1400  0.6740
  478MOL0     C64414   7.248  10.523   4.716 -0.6452 -0.4130 -0.8226
  478MOL0     C64415   7.265  10.540   4.574 -0.6444 -0.3849  0.6296
  478MOL0     C64416   7.404  10.523   4.522 -0.3270 -0.9504  0.3331
  478MOL0     C64417   7.447  10.377   4.522 -0.3746 -0.1171  0.6165
  478MOL0     C64418   7.564  10.358   4.424  0.9184  0.5503 -0.1946
  478MOL0     O64419   7.598  10.219   4.419  0.1533  0.3794  0.1293
  478MOL0     C64420   7.667  10.162   4.519 -0.0013  0.7586 -0.2906
  478MOL0     C64421   7.725  10.229   4.625  0.0084 -1.0663  0.0905
  478MOL0     C64422   7.793  10.152   4.712 -0.0335  0.0718 -0.7243
  478MOL0     C64423   7.797  10.013   4.705 -0.7644 -0.0697 -0.8182
  478MOL0     C64424   7.857   9.940   4.817  0.4371 -0.1646 -0.0898
  478MOL0     O64425   7.924  10.009   4.911  0.2732  0.4294  0.3815
  478MOL0     C64426   7.921   9.962   5.037 -0.4405 -0.5520  0.2274
  478MOL0     C64427   8.028   9.959   5.115 -0.0629 -1.2264 -0.5145
  478MOL0     C64428   8.030   9.933   5.255 -0.2409  0.3756  0.3107
  478MOL0     C64429   7.904   9.901   5.313 -0.3552 -0.8308  0.1001
  478MOL0     O64430   7.894   9.881   5.446  0.0518  0.0098  0.6089
  478MOL0     C64431   8.007   9.911   5.528  0.7041 -0.6439  0.5643
  478MOL0     C64432   7.973   9.867   5.667 -0.4697 -0.5123 -0.2877
  478MOL0     C64433   7.831   9.892   5.730  0.0990 -1.0536  0.8710
  478MOL0     C64434   7.827   9.826   5.867  0.6726 -0.0366  0.3097
  478MOL0     C64435   7.695   9.861   5.928  0.5665 -1.2290  0.6190
  478MOL0     C64436   7.703   9.868   6.084  0.4075  0.3721  0.4326
  478MOL0     C64437   7.553   9.857   6.136  0.2845  0.8820  0.6267
  478MOL0     C64438   7.546   9.893   6.289 -0.6087  0.8891  0.0489
  478MOL0    Cl64439   7.611   9.754   6.396  0.0165 -0.0843  0.1361
  478MOL0     C64440   7.786   9.896   5.238 -0.3398  0.7936  0.8504
  478MOL0     C64441   7.799   9.931   5.097 -0.3351  0.0145 -0.0312
  478MOL0     O64442   7.837   9.821   4.820 -0.7863  0.3079 -0.3925
  478MOL0     C64443   7.738   9.944   4.600 -0.7402  0.3697 -1.6569
  478MOL0     C64444   7.677  10.022   4.500  0.3704 -0.3544  0.2882
  478MOL0     N64445   7.314  10.595   4.817  0.3879  0.2743  0.2706
  478MOL0     N64446   7.262  10.566   4.931  0.6429 -0.1692  0.0282
  478MOL0     C64447   7.427   9.787   5.459 -0.0794  0.0311 -0.5781
  478MOL0     C64448   7.515   9.676   5.444 -0.0732 -0.6943  0.6553
  478MOL0     C64449   7.755   9.333   5.452 -0.2176 -0.0300 -0.5893
  478MOL0     C64450   7.741   9.234   5.355  0.1743 -0.4152 -0.9467
  478MOL0     C64451   7.847   9.163   5.300 -0.6450  0.3683  0.3859
  478MOL0     C64452   7.971   9.170   5.349  0.0728 -0.4878 -0.0501
  478MOL0     O64453   8.073   9.091   5.304  0.2878 -0.2718 -0.0156
  478MOL0     C64454   8.085   9.083   5.155  0.0913  0.4639 -0.1681
  478MOL0     C64455   8.233   9.079   5.112  0.7890 -0.7168  0.1855
  478MOL0     C64456   8.307   8.960   5.164 -0.4777  0.2031  0.6500
  478MOL0     C64457   8.454   8.971   5.170 -0.1782 -0.3278 -0.0189
  478MOL0     C64458   8.523   9.000   5.038  0.4015  0.5832  0.9078
  478MOL0     C64459   8.582   9.021   4.935 -0.2170 -0.0764 -0.2614
  478MOL0     C64460   7.985   9.266   5.454  0.1315  0.2801  0.0726
  478MOL0     C64461   7.883   9.352   5.510  0.3549 -0.0106  0.5094
  478MOL0     C64462   7.932   9.459   5.607  0.4546  0.6003  0.5853
  478MOL0     H64463   7.285   9.464   5.307 -2.1726  1.2434 -0.5527
  478MOL0     H64464   7.136   9.630   5.375 -0.6996  1.1528  2.6690
  478MOL0     H64465   7.186   9.948   5.267  3.5632  0.9414  2.6558
  478MOL0     H64466   7.047   9.859   5.329 -0.4185  0.7359  0.6321
  478MOL0     H64467   7.146  10.143   5.390 -0.9715  0.9053 -0.5693
  478MOL0     H64468   7.009  10.061   5.475  1.2476 -2.9145  0.0966
  478MOL0     H64469   6.853  10.064   5.306 -0.8358  1.7905  0.8785
  478MOL0     H64470   6.984  10.066   5.191  1.6862 -1.2765  0.9638
  478MOL0     H64471   6.890  10.286   5.389  1.2600 -0.4958  0.5522
  478MOL0     H64472   7.027  10.320   5.284 -0.4549  2.4799  1.5170
  478MOL0     H64473   6.861  10.252   5.096  3.6271 -0.9623  1.6884
  478MOL0     H64474   6.741  10.273   5.223 -0.6792 -4.0418 -2.1344
  478MOL0     H64475   6.746  10.483   5.150 -0.3177 -1.2486 -0.1523
  478MOL0     H64476   6.890  10.502   5.256  1.0608 -0.3332  0.0612
  478MOL0     H64477   6.930  10.603   5.044  0.9174  0.2354 -1.1409
  478MOL0     H64478   6.869  10.470   4.944 -0.9726  2.2064  0.5212
  478MOL0     H64479   7.132  10.428   5.111 -0.5825 -3.3329  1.3300
  478MOL0     H64480   7.044  10.325   4.992  0.2476  0.8190 -3.0400
  478MOL0     H64481   7.093  10.375   4.724 -0.7469  1.2032 -0.7929
  478MOL0     H64482   7.213  10.470   4.507  4.4606 -3.2390 -0.8982
  478MOL0     H64483   7.237  10.640   4.541  1.7536  0.2879  0.4705
  478MOL0     H64484   7.413  10.559   4.419  1.1534  1.0453  1.0873
  478MOL0     H64485   7.484  10.574   4.576 -0.5854 -0.9651  0.7307
  478MOL0     H64486   7.359  10.314   4.509 -1.0692  1.2625 -2.0555
  478MOL0     H64487   7.472  10.344   4.624 -1.5002  0.3546  1.0615
  478MOL0     H64488   7.646  10.427   4.442  1.6652  0.2378 -2.1461
  478MOL0     H64489   7.523  10.388   4.326  1.2383  1.9000  0.0682
  478MOL0     H64490   7.717  10.337   4.630  0.8340 -1.0511  2.4962
  478MOL0     H64491   7.836  10.206   4.796 -1.6422 -0.4107  0.4566
  478MOL0     H64492   8.125   9.995   5.084 -0.1982  0.0482  0.4487
  478MOL0     H64493   8.125   9.941   5.306 -1.1817  1.4617  1.9545
  478MOL0     H64494   8.096   9.857   5.497  3.6959  4.1948 -0.3496
  478MOL0     H64495   8.029  10.018   5.517 -1.1392 -0.4949 -3.8485
  478MOL0     H64496   7.990   9.759   5.661 -1.8750 -0.7060 -1.3258
  478MOL0     H64497   8.055   9.912   5.725  1.4870 -2.2218 -1.5678
  478MOL0     H64498   7.802   9.998   5.726  0.6338 -0.9370 -0.4765
  478MOL0     H64499   7.765   9.838   5.662 -0.8898  1.5552 -0.4045
  478MOL0     H64500   7.910   9.866   5.926  0.5426 -0.1001  0.5388
  478MOL0     H64501   7.844   9.719   5.853 -2.6359 -0.4573 -1.5896
  478MOL0     H64502   7.621   9.789   5.893 -2.7987  1.3437  1.8307
  478MOL0     H64503   7.670   9.962   5.894  0.8070 -0.3165  3.0008
  478MOL0     H64504   7.741   9.768   6.105 -0.9493  0.2420  2.5845
  478MOL0     H64505   7.754   9.958   6.121 -1.3425  0.6754  2.2814
  478MOL0     H64506   7.506   9.759   6.122 -2.3486  1.8064  2.1756
  478MOL0     H64507   7.483   9.921   6.080 -3.3835 -1.9985  1.5082
  478MOL0     H64508   7.604   9.985   6.304  0.7787 -0.3092  2.7842
  478MOL0     H64509   7.440   9.905   6.312 -0.5589  3.9512 -0.7846
  478MOL0     H64510   7.689   9.882   5.284 -1.2665  1.5274 -0.7861
  478MOL0     H64511   7.707   9.931   5.040  0.3438 -1.6291 -1.1872
  478MOL0     H64512   7.729   9.835   4.595  0.6678  0.2282 -1.5335
  478MOL0     H64513   7.627   9.979   4.414 -1.6617  0.8469  0.7990
  478MOL0     H64514   7.477   9.880   5.482  0.9261 -0.4143 -0.9083
  478MOL0     H64515   7.620   9.683   5.469  0.1675 -0.1897 -0.4236
  478MOL0     H64516   7.644   9.227   5.306 -2.4191  1.2347  3.4178
  478MOL0     H64517   7.828   9.099   5.214 -4.0956  2.2617 -0.4217
  478MOL0     H64518   8.032   9.165   5.105  0.9337 -0.7586 -3.3484
  478MOL0     H64519   8.039   8.991   5.117 -0.1051  1.0526 -1.4289
  478MOL0     H64520   8.259   9.181   5.140  0.5212 -0.3449 -0.9050
  478MOL0     H64521   8.236   9.067   5.003 -0.7746  0.4774 -0.0211
  478MOL0     H64522   8.290   8.888   5.083  0.1656  1.8479 -1.0189
  478MOL0     H64523   8.269   8.918   5.258 -1.2529  1.3719  0.8686
  478MOL0     H64524   8.481   9.044   5.247 -0.7769 -0.5644  0.4283
  478MOL0     H64525   8.504   8.882   5.211 -1.3776 -1.0515 -0.0775
  478MOL0     H64526   8.641   9.050   4.851  0.3321  3.2092  1.1164
  478MOL0     H64527   8.087   9.267   5.490  0.4436 -1.0156 -0.7266
  478MOL0     H64528   7.953   9.556   5.562  3.2037 -1.0434 -2.0024
  478MOL0     H64529   7.850   9.485   5.676  0.8895  1.7105  0.7066
  478MOL0     H64530   8.014   9.427   5.672  0.7351 -2.5530 -1.1396
  479MOL0     O64531   7.494   6.285   3.653 -0.3455 -0.5958  0.3668
  479MOL0     C64532   7.601   6.224   3.649 -0.3029 -0.4869  0.3650
  479MOL0     O64533   7.715   6.257   3.582 -0.3234  0.2297  0.1361
  479MOL0     C64534   7.732   6.379   3.513  0.4080  0.2020 -0.5800
  479MOL0     C64535   7.652   6.425   3.410  0.5128  0.0082  0.6502
  479MOL0     C64536   7.678   6.544   3.351  0.1932 -0.6699 -0.1063
  479MOL0     C64537   7.781   6.626   3.398 -0.5434 -0.3495 -0.3348
  479MOL0     O64538   7.807   6.745   3.334  0.1359 -0.2287  0.4858
  479MOL0     C64539   7.873   6.849   3.395 -0.3864  0.4045 -0.2452
  479MOL0     C64540   7.885   6.968   3.307  0.6359 -0.6672 -0.1153
  479MOL0     C64541   7.741   7.019   3.272 -0.0005 -0.0321 -0.3152
  479MOL0     C64542   7.751   7.146   3.194 -0.6710 -0.0286 -0.4212
  479MOL0     C64543   7.613   7.206   3.167  0.1389 -0.1586  0.0812
  479MOL0     C64544   7.545   7.117   3.073  0.5569  0.5129  0.7016
  479MOL0     C64545   7.406   7.184   3.044 -0.3568  0.6643 -0.3528
  479MOL0     C64546   7.304   7.084   2.984 -0.5092  0.0148 -1.1153
  479MOL0     N64547   7.292   7.094   2.840  0.5012  0.6724  0.3487
  479MOL0     C64548   7.343   7.001   2.752 -0.1109 -0.7068 -0.3669
  479MOL0     C64549   7.290   7.039   2.631 -0.0757 -0.4120  0.2834
  479MOL0     C64550   7.322   6.971   2.510 -0.2779 -0.5188  0.9256
  479MOL0     C64551   7.406   7.055   2.414 -0.4504  0.6718  0.3987
  479MOL0     C64552   7.312   7.129   2.315 -0.1069  0.4640  0.5714
  479MOL0     C64553   7.402   7.214   2.221 -0.5062 -0.9162  0.3373
  479MOL0     O64554   7.472   7.306   2.303 -0.4054 -1.6393  0.0053
  479MOL0     C64555   7.518   7.423   2.249 -0.0931  0.4964 -0.3202
  479MOL0     C64556   7.547   7.455   2.119 -0.1761 -0.4502  0.0918
  479MOL0     C64557   7.594   7.583   2.068 -0.4855 -0.4259 -0.2132
  479MOL0     C64558   7.627   7.678   2.165  0.2619  0.2782 -0.1613
  479MOL0     C64559   7.693   7.808   2.129 -0.4661  0.3282  0.6561
  479MOL0     O64560   7.690   7.895   2.238 -0.7434 -0.3310  0.1183
  479MOL0     C64561   7.758   8.018   2.227  0.2812 -0.0589 -0.4743
  479MOL0     C64562   7.699   8.145   2.268 -0.1908 -0.2935 -0.1860
  479MOL0     C64563   7.761   8.266   2.243 -0.0697 -0.0443 -0.5131
  479MOL0     C64564   7.899   8.268   2.211 -0.1039  0.4405  0.6155
  479MOL0     O64565   7.972   8.388   2.221 -0.9711  0.7353  0.8711
  479MOL0     C64566   8.023   8.426   2.086 -0.4204  0.4064 -0.4422
  479MOL0     C64567   8.175   8.419   2.088  0.5722  0.5700 -0.1542
  479MOL0     C64568   8.241   8.544   2.126  0.4891 -0.3318 -0.4934
  479MOL0     C64569   8.220   8.671   2.040 -0.9401  0.4572 -0.6214
  479MOL0     C64570   8.264   8.641   1.886  0.1134 -0.3625 -0.1866
  479MOL0     C64571   8.279   8.780   1.820  0.2582  0.7085  0.2147
  479MOL0     C64572   8.319   8.762   1.677 -0.6501  0.3299  0.0134
  479MOL0     C64573   8.468   8.765   1.661 -0.0040  0.8332 -0.6143
  479MOL0    Cl64574   8.524   8.702   1.500 -0.2377  0.3422 -0.2776
  479MOL0     C64575   7.961   8.147   2.174  0.3559 -0.1162 -0.3163
  479MOL0     C64576   7.888   8.024   2.177  0.2071 -0.0060 -0.2808
  479MOL0     O64577   7.717   7.836   2.013 -0.6464 -0.4073  0.3096
  479MOL0     C64578   7.600   7.649   2.300  0.4633  0.0345  0.3077
  479MOL0     C64579   7.550   7.523   2.341  0.5068 -0.0366  1.1863
  479MOL0     N64580   7.207   7.151   2.655 -0.4696  0.1046 -0.1526
  479MOL0     N64581   7.216   7.189   2.773  0.5779  0.9000 -0.1336
  479MOL0     C64582   7.866   6.580   3.500 -0.0986 -0.5860 -0.6179
  479MOL0     C64583   7.841   6.455   3.556 -0.4468  0.1611  0.3377
  479MOL0     C64584   7.601   6.109   3.734 -0.1243 -0.5297 -0.3800
  479MOL0     C64585   7.554   6.127   3.866 -0.2047  0.1461  0.5914
  479MOL0     C64586   7.548   6.009   3.947  0.4468 -0.7961  0.3086
  479MOL0     C64587   7.599   5.888   3.904 -0.0743 -0.6992  0.2380
  479MOL0     O64588   7.607   5.770   3.975  0.0181 -0.1909 -0.2617
  479MOL0     C64589   7.581   5.762   4.116 -0.3687 -0.3024  0.2944
  479MOL0     C64590   7.589   5.620   4.151  0.6321  0.0185 -0.3279
  479MOL0     C64591   7.487   5.525   4.087  0.7261 -0.8816  0.1828
  479MOL0     C64592   7.523   5.378   4.107 -0.9868 -0.7111 -0.0242
  479MOL0     C64593   7.413   5.284   4.071 -0.2116  0.2878  0.7797
  479MOL0     C64594   7.322   5.214   4.035 -0.5280  0.6739  0.1293
  479MOL0     C64595   7.662   5.880   3.780  0.1075  0.2697 -0.6503
  479MOL0     C64596   7.654   5.985   3.684  0.1810  0.0745 -0.6815
  479MOL0     C64597   7.695   5.971   3.543  0.0851 -0.1180  0.0400
  479MOL0     H64598   7.564   6.374   3.374  1.0343 -1.0356  0.8292
  479MOL0     H64599   7.605   6.564   3.274 -0.2090 -1.2486  0.1159
  479MOL0     H64600   7.826   6.882   3.488  0.9556 -2.5764  1.6172
  479MOL0     H64601   7.973   6.816   3.424 -1.2418  0.9185  3.8360
  479MOL0     H64602   7.916   6.945   3.205 -1.0876 -0.6999 -0.6543
  479MOL0     H64603   7.954   7.041   3.349  1.6261 -0.0060 -2.7109
  479MOL0     H64604   7.674   7.041   3.356 -0.3633 -0.3926 -0.5043
  479MOL0     H64605   7.681   6.938   3.230 -2.6183  1.3442  0.5532
  479MOL0     H64606   7.822   7.220   3.233  1.1422 -1.6922 -0.4361
  479MOL0     H64607   7.794   7.114   3.099  1.0994  0.1761  0.2755
  479MOL0     H64608   7.556   7.215   3.260 -0.6476  1.1209 -0.5046
  479MOL0     H64609   7.629   7.305   3.124  3.5120 -0.3431  0.6091
  479MOL0     H64610   7.604   7.110   2.980 -1.7073 -0.2245 -0.7573
  479MOL0     H64611   7.523   7.014   3.101 -2.6477  0.3545 -1.8569
  479MOL0     H64612   7.414   7.276   2.985 -2.7537  0.8821 -0.4359
  479MOL0     H64613   7.365   7.214   3.141 -3.0336 -0.5791 -0.9948
  479MOL0     H64614   7.333   6.983   3.016  0.9893  0.0717 -2.2171
  479MOL0     H64615   7.206   7.110   3.027 -0.0069 -3.1183  2.4856
  479MOL0     H64616   7.404   6.920   2.791  1.1609  1.1491  1.7839
  479MOL0     H64617   7.383   6.883   2.535  0.0331 -0.7680 -0.6052
  479MOL0     H64618   7.230   6.943   2.458 -0.8717  1.0670  1.0646
  479MOL0     H64619   7.454   7.128   2.479  2.3506  1.3951 -2.2437
  479MOL0     H64620   7.476   6.996   2.354 -0.1923  0.0470  1.2868
  479MOL0     H64621   7.252   7.203   2.368  0.2006  1.2481 -0.1580
  479MOL0     H64622   7.251   7.059   2.257  0.4525  2.4996 -2.7579
  479MOL0     H64623   7.349   7.272   2.145  2.0234  0.3511 -0.5575
  479MOL0     H64624   7.461   7.144   2.162  1.0210  1.2953 -0.9092
  479MOL0     H64625   7.527   7.383   2.040  0.4024  1.7398 -2.1758
  479MOL0     H64626   7.611   7.605   1.964 -0.0361  3.1260  0.4652
  479MOL0     H64627   7.609   8.136   2.328 -0.4336  2.0507 -0.1162
  479MOL0     H64628   7.714   8.352   2.290 -1.1224 -1.3693  0.9779
  479MOL0     H64629   7.980   8.355   2.014  0.1695 -0.6423  0.2108
  479MOL0     H64630   7.990   8.524   2.049 -0.5329  0.2384 -0.7993
  479MOL0     H64631   8.206   8.347   2.164 -0.9281  0.7535  0.6645
  479MOL0     H64632   8.203   8.408   1.983 -2.0773  3.7278 -1.3779
  479MOL0     H64633   8.226   8.563   2.233  0.2015 -1.3305 -0.3451
  479MOL0     H64634   8.345   8.514   2.114  0.6079 -1.0469  1.7816
  479MOL0     H64635   8.284   8.744   2.091 -0.3986 -1.9349  2.4495
  479MOL0     H64636   8.113   8.692   2.048 -1.1792 -0.3957 -1.4372
  479MOL0     H64637   8.193   8.581   1.829 -1.1007  2.1620 -1.4681
  479MOL0     H64638   8.364   8.598   1.884 -0.1543 -0.9842 -0.3074
  479MOL0     H64639   8.187   8.839   1.824  0.9605  2.0269 -1.6407
  479MOL0     H64640   8.356   8.844   1.862  1.6726  1.1333 -2.7666
  479MOL0     H64641   8.280   8.853   1.631 -0.3801  0.9562  1.0071
  479MOL0     H64642   8.264   8.681   1.627  0.6129  0.4341 -1.6483
  479MOL0     H64643   8.506   8.868   1.660 -1.7734  1.5490  0.5141
  479MOL0     H64644   8.508   8.710   1.747 -0.2533  1.8581  0.1854
  479MOL0     H64645   8.065   8.140   2.143 -0.5891 -3.0008 -3.5478
  479MOL0     H64646   7.945   7.934   2.158  2.5344  0.6927  2.6294
  479MOL0     H64647   7.621   7.726   2.372  3.2020 -0.7767  0.4785
  479MOL0     H64648   7.522   7.516   2.446 -0.2415  0.1933  1.0137
  479MOL0     H64649   7.956   6.631   3.534 -0.9767  1.0971 -0.7499
  479MOL0     H64650   7.918   6.421   3.626 -0.3609  2.2929  1.3507
  479MOL0     H64651   7.524   6.222   3.907 -0.7738  1.1819 -2.0032
  479MOL0     H64652   7.515   6.001   4.050  0.8216 -1.7242  0.3626
  479MOL0     H64653   7.485   5.811   4.136  1.5630  3.0934  2.1268
  479MOL0     H64654   7.646   5.819   4.182 -0.8658  1.3827 -0.5986
  479MOL0     H64655   7.577   5.609   4.259 -1.1908 -0.3216 -0.5293
  479MOL0     H64656   7.691   5.585   4.134  2.0670  2.7477  1.8094
  479MOL0     H64657   7.482   5.535   3.978  3.2270  0.2092  0.1081
  479MOL0     H64658   7.386   5.553   4.116  0.6856 -0.2244 -0.5582
  479MOL0     H64659   7.611   5.346   4.049 -0.8985 -3.7880  1.5996
  479MOL0     H64660   7.537   5.374   4.215 -0.7788  3.0651  0.2298
  479MOL0     H64661   7.244   5.149   3.999  1.6304 -1.7089 -0.4997
  479MOL0     H64662   7.697   5.787   3.738 -0.7833 -0.4652  0.1804
  479MOL0     H64663   7.666   5.874   3.500 -1.8374 -0.7017  2.4164
  479MOL0     H64664   7.644   6.043   3.478  1.2321  0.4142 -0.3045
  479MOL0     H64665   7.804   5.980   3.545 -0.0269  1.8209  2.9950
  480MOL0     O64666   9.135   5.148   8.637 -0.2189 -0.1426  0.7598
  480MOL0     C64667   9.108   5.028   8.662 -0.4744  0.0498  0.3894
  480MOL0     O64668   9.084   4.977   8.785 -0.2251 -1.2234  0.9303
  480MOL0     C64669   9.087   5.073   8.887  0.7087  1.1375 -0.4250
  480MOL0     C64670   9.205   5.134   8.933 -1.3860  0.6936  0.1590
  480MOL0     C64671   9.207   5.248   9.020  0.2946 -0.4311 -0.3162
  480MOL0     C64672   9.087   5.284   9.081 -0.4742 -0.0896  0.6557
  480MOL0     O64673   9.090   5.382   9.183 -0.4735 -0.5666 -0.4968
  480MOL0     C64674   8.975   5.402   9.273  0.0854 -0.3432 -0.3907
  480MOL0     C64675   9.017   5.518   9.382 -0.4745  0.8042  1.3555
  480MOL0     C64676   8.964   5.658   9.343 -0.6911  0.2131 -0.5105
  480MOL0     C64677   9.029   5.764   9.419  0.7870 -0.1831  0.6058
  480MOL0     C64678   8.935   5.901   9.428 -0.2922  1.2745 -0.0656
  480MOL0     C64679   8.816   5.888   9.525  0.5012  0.1313  0.6995
  480MOL0     C64680   8.842   5.874   9.680  0.9196  1.2175  0.0223
  480MOL0     C64681   8.898   5.991   9.748  0.0883 -0.5811  0.0785
  480MOL0     N64682   8.868   5.987   9.894 -0.1150  0.5858 -0.2731
  480MOL0     C64683   8.748   6.025   9.961 -0.7021 -0.1509 -1.0237
  480MOL0     C64684   8.755   5.960  10.078  0.5154  0.1707 -0.1908
  480MOL0     C64685   8.657   5.968  10.192 -0.0543 -0.1456 -0.8776
  480MOL0     C64686   8.675   5.860  10.315  0.1624  0.3582  0.5747
  480MOL0     C64687   8.766   5.933  10.411  0.6330  0.6087  0.8703
  480MOL0     C64688   8.812   5.851  10.530  0.3554  0.6062 -0.2042
  480MOL0     O64689   8.716   5.830  10.636  0.1411  0.3113  0.4498
  480MOL0     C64690   8.768   5.800  10.763  1.0642  0.0169  0.6395
  480MOL0     C64691   8.689   5.827  10.871 -0.0297 -0.0237 -1.1335
  480MOL0     C64692   8.735   5.797  10.998  0.7357  0.0200 -0.4462
  480MOL0     C64693   8.859   5.761  11.025 -0.7922  1.1059 -0.1796
  480MOL0     C64694   8.901   5.748  11.169  0.0538 -0.0782  0.6347
  480MOL0     O64695   9.022   5.683  11.196  0.6627  0.2222 -0.7882
  480MOL0     C64696   9.047   5.662  11.329 -0.3609  0.0979 -1.1975
  480MOL0     C64697   9.030   5.538  11.391 -0.4497  0.0935  0.3348
  480MOL0     C64698   9.062   5.520  11.525 -0.3525 -0.0092 -0.3403
  480MOL0     C64699   9.130   5.620  11.594 -0.2715  0.2131  0.5445
  480MOL0     O64700   9.162   5.600  11.725 -0.4077  0.4171  0.0046
  480MOL0     C64701   9.300   5.605  11.753  0.8378 -0.4039 -0.0852
  480MOL0     C64702   9.315   5.573  11.901  0.0154 -0.1578 -0.0153
  480MOL0     C64703   9.455   5.580  11.949  0.3622  0.0871  0.1559
  480MOL0     C64704   9.481   5.501  12.076 -0.4578 -0.3260 -0.2040
  480MOL0     C64705   9.523   5.358  12.033 -0.0705 -0.9470 -0.6230
  480MOL0     C64706   9.582   5.271  12.144  0.5801 -0.7085 -0.3154
  480MOL0     C64707   9.592   5.124  12.104 -1.1857 -0.1599 -0.8031
  480MOL0     C64708   9.698   5.100  11.995  0.1081  0.1018  0.8143
  480MOL0    Cl64709   9.870   5.115  12.049 -0.1365  0.1182 -0.1696
  480MOL0     C64710   9.163   5.740  11.533  0.8200 -0.0435  0.8039
  480MOL0     C64711   9.124   5.756  11.399 -1.2094 -0.3567  0.4042
  480MOL0     O64712   8.829   5.801  11.259 -0.3887 -0.3762 -0.0288
  480MOL0     C64713   8.944   5.728  10.918  0.4958 -0.1924 -0.9271
  480MOL0     C64714   8.892   5.741  10.790 -0.3528  0.3168  0.3116
  480MOL0     N64715   8.870   5.885  10.075  0.6269 -0.9837 -0.3621
  480MOL0     N64716   8.940   5.906   9.972 -0.7852 -0.1717 -0.2522
  480MOL0     C64717   8.969   5.211   9.045  0.8063 -0.5595  1.8272
  480MOL0     C64718   8.967   5.118   8.946 -0.1305  0.8666 -0.1025
  480MOL0     C64719   9.108   4.929   8.543  0.2786  0.5194 -1.0375
  480MOL0     C64720   9.110   4.981   8.415 -0.9016  0.3291  0.0107
  480MOL0     C64721   9.124   4.897   8.304  0.5157  0.0021  0.6785
  480MOL0     C64722   9.104   4.758   8.321 -0.2256 -0.3583 -0.4203
  480MOL0     O64723   9.102   4.681   8.202 -0.3233 -0.9071 -1.4301
  480MOL0     C64724   9.216   4.602   8.184 -0.0372  0.8097 -0.2854
  480MOL0     C64725   9.219   4.544   8.048  0.2014  0.1512 -0.4822
  480MOL0     C64726   9.363   4.500   8.008 -0.1446  0.9471 -0.1573
  480MOL0     C64727   9.385   4.483   7.857 -0.5264 -0.4106 -0.0386
  480MOL0     C64728   9.313   4.364   7.811 -0.3613  0.5677 -0.3904
  480MOL0     C64729   9.254   4.262   7.775  0.0917 -0.0104 -1.1681
  480MOL0     C64730   9.099   4.707   8.451  0.2147 -0.2366  0.4193
  480MOL0     C64731   9.099   4.786   8.566  1.1092 -0.4549 -1.0699
  480MOL0     C64732   9.100   4.716   8.698  0.3510  0.1321  1.0545
  480MOL0     H64733   9.294   5.107   8.877 -2.2095  0.8272 -1.2761
  480MOL0     H64734   9.289   5.311   9.053 -0.6154  0.1622  0.8453
  480MOL0     H64735   8.880   5.419   9.221 -1.5235 -1.4320  1.9691
  480MOL0     H64736   8.948   5.311   9.328 -0.2229  0.2107  0.3913
  480MOL0     H64737   9.125   5.523   9.371 -0.3370 -2.2444  0.1466
  480MOL0     H64738   8.988   5.488   9.483 -0.6316  1.4521  1.5034
  480MOL0     H64739   8.855   5.671   9.345 -0.4839  2.7914 -1.4369
  480MOL0     H64740   8.983   5.677   9.237 -1.7526 -0.4795 -0.8410
  480MOL0     H64741   9.049   5.732   9.521  0.7100  0.3207  0.7843
  480MOL0     H64742   9.131   5.780   9.382  0.1721 -1.8707 -2.1766
  480MOL0     H64743   8.997   5.979   9.472  1.4087 -1.3741  2.6418
  480MOL0     H64744   8.908   5.921   9.324  0.3422 -1.2299 -0.7824
  480MOL0     H64745   8.745   5.968   9.503 -0.3941 -0.8409 -0.0383
  480MOL0     H64746   8.761   5.799   9.494  1.1014 -0.7814  2.1657
  480MOL0     H64747   8.897   5.781   9.700  0.9881 -0.1348 -5.1309
  480MOL0     H64748   8.748   5.858   9.734  1.3020  0.8630  0.5953
  480MOL0     H64749   9.007   6.000   9.741  0.1582  4.0529  2.5423
  480MOL0     H64750   8.845   6.076   9.703 -0.8847  0.4546  2.9578
  480MOL0     H64751   8.666   6.092   9.936 -1.1572 -0.1403  0.4032
  480MOL0     H64752   8.657   6.069  10.234 -3.2897 -0.3296 -0.1681
  480MOL0     H64753   8.556   5.941  10.159 -1.5671  2.5503  1.1226
  480MOL0     H64754   8.578   5.852  10.365 -0.7139 -0.0642 -1.1266
  480MOL0     H64755   8.716   5.764  10.286 -0.0318  0.4486 -0.0025
  480MOL0     H64756   8.708   6.021  10.443 -0.1175  2.0679 -3.7553
  480MOL0     H64757   8.858   5.976  10.372  1.1971  1.3911  2.9214
  480MOL0     H64758   8.892   5.921  10.559 -0.5456  1.2967  0.7016
  480MOL0     H64759   8.842   5.756  10.484 -2.8840  0.2275 -1.8224
  480MOL0     H64760   8.588   5.867  10.860  0.8755  3.0885  0.6657
  480MOL0     H64761   8.677   5.833  11.083  1.6754  2.5667 -0.7839
  480MOL0     H64762   8.972   5.462  11.339 -1.9565  1.4588 -0.0479
  480MOL0     H64763   9.018   5.435  11.575  0.2136 -1.0900 -1.6335
  480MOL0     H64764   9.353   5.540  11.683  1.1442 -1.4082  1.0343
  480MOL0     H64765   9.339   5.707  11.743  1.1014 -0.6856 -2.3663
  480MOL0     H64766   9.251   5.639  11.960 -2.3148 -0.6254 -1.8841
  480MOL0     H64767   9.271   5.474  11.919  1.8366 -0.8374  1.0397
  480MOL0     H64768   9.531   5.561  11.873 -1.7358 -2.2496 -1.5009
  480MOL0     H64769   9.460   5.687  11.973 -0.5799  0.8740 -2.7764
  480MOL0     H64770   9.392   5.510  12.139  0.1808  0.5830  0.5972
  480MOL0     H64771   9.557   5.547  12.140 -0.2697 -3.1710  1.8388
  480MOL0     H64772   9.594   5.371  11.951 -2.1829  0.8424 -2.3035
  480MOL0     H64773   9.427   5.316  12.002 -1.0020  0.8334 -0.3017
  480MOL0     H64774   9.680   5.316  12.159 -0.7935  3.6907 -2.7112
  480MOL0     H64775   9.527   5.281  12.238  0.7874  1.2195 -0.3496
  480MOL0     H64776   9.492   5.093  12.075 -1.0895  0.2929 -1.6570
  480MOL0     H64777   9.618   5.071  12.196 -0.4769  0.2116 -0.7810
  480MOL0     H64778   9.695   5.007  11.939  0.7616 -1.0510  2.6158
  480MOL0     H64779   9.684   5.184  11.927  2.7220  2.2263  2.6704
  480MOL0     H64780   9.175   5.826  11.599 -2.3607 -0.2453  1.7919
  480MOL0     H64781   9.138   5.851  11.350  1.6088 -1.5658 -1.3856
  480MOL0     H64782   9.039   5.675  10.921 -0.6765 -2.5615 -2.4449
  480MOL0     H64783   8.960   5.706  10.712  1.4966 -0.2066  2.0811
  480MOL0     H64784   8.872   5.219   9.093  0.2112 -0.6419  0.6730
  480MOL0     H64785   8.879   5.067   8.909 -0.5519  0.9838  0.7255
  480MOL0     H64786   9.115   5.088   8.398 -0.1563 -0.0451 -2.5944
  480MOL0     H64787   9.145   4.941   8.207  0.8974 -0.5038  0.5295
  480MOL0     H64788   9.201   4.522   8.257  1.2261  0.0276 -0.8508
  480MOL0     H64789   9.312   4.651   8.199  0.0535  0.1056  1.7348
  480MOL0     H64790   9.187   4.628   7.985 -2.0367  0.6727  1.2194
  480MOL0     H64791   9.147   4.463   8.036 -0.9572  0.6873  2.0758
  480MOL0     H64792   9.393   4.405   8.053 -3.5101 -0.7389 -1.2133
  480MOL0     H64793   9.434   4.573   8.050 -0.3956 -1.3554  5.0993
  480MOL0     H64794   9.349   4.570   7.802  0.2619 -2.7054 -4.6413
  480MOL0     H64795   9.492   4.467   7.844 -0.4212  1.8088 -2.6391
  480MOL0     H64796   9.192   4.185   7.734 -1.9426  0.3263  1.0770
  480MOL0     H64797   9.097   4.599   8.456  3.7351 -0.5357 -1.5187
  480MOL0     H64798   9.098   4.607   8.705 -2.7672  0.1512  2.1964
  480MOL0     H64799   9.193   4.748   8.747  3.4139 -0.1678 -3.8862
  480MOL0     H64800   9.016   4.736   8.765  0.7724  1.1362  1.3045
  481MOL0     O64801   7.798   7.064  10.844  0.0561 -0.7945 -0.4003
  481MOL0     C64802   7.696   7.105  10.897 -1.0478 -0.4301 -0.3654
  481MOL0     O64803   7.672   7.098  11.034 -0.0852 -0.1008  0.7237
  481MOL0     C64804   7.774   7.080  11.122 -0.2443 -0.0825 -0.0195
  481MOL0     C64805   7.808   7.181  11.219 -0.5373  0.2667  1.0083
  481MOL0     C64806   7.908   7.161  11.315 -0.2877 -0.1727 -0.5910
  481MOL0     C64807   7.982   7.046  11.318  0.0133  0.8189  0.1759
  481MOL0     O64808   8.074   7.003  11.409  0.0804  0.7570 -0.1790
  481MOL0     C64809   8.099   7.100  11.511 -0.4195  0.0083 -0.2094
  481MOL0     C64810   8.220   7.057  11.599 -0.2998 -0.2536  0.3698
  481MOL0     C64811   8.327   6.988  11.513 -0.5365 -0.1647 -0.3805
  481MOL0     C64812   8.446   6.945  11.604 -0.5051  0.2087  0.6284
  481MOL0     C64813   8.583   6.913  11.529  0.0059 -0.1415 -0.8375
  481MOL0     C64814   8.719   6.920  11.612 -0.7739 -0.3211 -0.1524
  481MOL0     C64815   8.830   6.935  11.511  0.7951 -0.5687 -0.2629
  481MOL0     C64816   8.962   6.932  11.593  0.4470 -0.2762  0.4548
  481MOL0     N64817   9.079   6.967  11.500  1.0270 -0.8234  0.7096
  481MOL0     C64818   9.143   6.881  11.413  0.3783  0.1762 -0.8040
  481MOL0     C64819   9.245   6.954  11.360 -0.0141  0.0610 -0.4107
  481MOL0     C64820   9.341   6.927  11.256  0.5512  0.0682 -0.1606
  481MOL0     C64821   9.461   6.880  11.345  1.2659  0.5952  0.1497
  481MOL0     C64822   9.589   6.884  11.256  0.8217 -0.2065  0.0173
  481MOL0     C64823   9.710   6.842  11.332 -0.5945  0.4593  0.1923
  481MOL0     O64824   9.743   6.945  11.424  0.0319  0.2424  0.5238
  481MOL0     C64825   9.877   6.940  11.470  0.1071 -0.2429 -0.2928
  481MOL0     C64826   9.902   6.911  11.605 -0.0145 -0.0221 -0.4534
  481MOL0     C64827  10.032   6.878  11.651  0.0175 -0.8273  0.4093
  481MOL0     C64828  10.142   6.880  11.566 -0.0011  0.1882  0.1064
  481MOL0     C64829  10.273   6.855  11.614 -1.3280  0.5052 -0.3017
  481MOL0     O64830  10.290   6.835  11.745  0.0956 -0.3030  0.3898
  481MOL0     C64831  10.412   6.795  11.789  0.7209 -1.0486  0.3653
  481MOL0     C64832  10.490   6.694  11.733 -0.5167  0.1344 -0.0321
  481MOL0     C64833  10.616   6.657  11.792  0.6921 -1.3214 -0.7147
  481MOL0     C64834  10.663   6.725  11.915  0.6302  0.2933 -0.0530
  481MOL0     O64835  10.771   6.681  11.978  0.3110 -0.5570 -0.5444
  481MOL0     C64836  10.866   6.607  11.902 -0.3803 -0.0090  0.0810
  481MOL0     C64837  10.991   6.571  11.988 -0.8461 -0.1577 -0.7795
  481MOL0     C64838  11.075   6.477  11.912  0.0802 -0.6316 -0.8636
  481MOL0     C64839  11.169   6.548  11.819 -0.0628  0.3135  0.0601
  481MOL0     C64840  11.307   6.480  11.818 -0.4173 -0.7011 -0.4136
  481MOL0     C64841  11.307   6.332  11.763 -0.1930 -0.5499  0.3521
  481MOL0     C64842  11.446   6.260  11.749  0.2001 -0.4260  0.3312
  481MOL0     C64843  11.508   6.289  11.612 -0.6721  0.0852  1.0629
  481MOL0    Cl64844  11.652   6.185  11.600  0.1228 -0.1531 -0.2253
  481MOL0     C64845  10.581   6.834  11.962 -0.4369 -1.1416  0.6646
  481MOL0     C64846  10.464   6.870  11.895 -1.0003  0.1221  0.5555
  481MOL0     O64847  10.369   6.876  11.536 -0.0538 -0.3217  0.2032
  481MOL0     C64848  10.116   6.927  11.434 -0.2125 -0.3458  0.0814
  481MOL0     C64849   9.990   6.950  11.389 -0.2273  0.2705 -0.2602
  481MOL0     N64850   9.240   7.077  11.413 -1.0363  0.1187 -0.4919
  481MOL0     N64851   9.149   7.090  11.501  0.9531  0.1225 -0.5207
  481MOL0     C64852   7.953   6.944  11.217 -0.4863 -1.3773 -0.3937
  481MOL0     C64853   7.852   6.962  11.122  1.3960 -0.5311  0.0258
  481MOL0     C64854   7.599   7.174  10.807  0.2196 -0.0443  0.3047
  481MOL0     C64855   7.632   7.193  10.669 -0.3070  0.3714  0.2579
  481MOL0     C64856   7.556   7.274  10.590  0.9206  0.0418 -0.2292
  481MOL0     C64857   7.439   7.334  10.643  0.4625  0.3385  0.5648
  481MOL0     O64858   7.352   7.412  10.570 -0.0831 -0.0957 -0.1821
  481MOL0     C64859   7.274   7.358  10.464  0.1457 -0.0958  0.1061
  481MOL0     C64860   7.233   7.209  10.470 -0.4155 -0.2802 -0.9416
  481MOL0     C64861   7.152   7.156  10.342 -0.7897 -0.1926  0.6919
  481MOL0     C64862   7.242   7.081  10.242 -0.3597  0.0284 -0.0702
  481MOL0     C64863   7.168   7.007  10.142 -1.3513  1.0805  0.5777
  481MOL0     C64864   7.108   6.938  10.061  1.1679  0.0602 -0.3519
  481MOL0     C64865   7.397   7.312  10.770 -0.5817  0.2074  0.3905
  481MOL0     C64866   7.476   7.237  10.853  0.7947  0.0499  0.6910
  481MOL0     C64867   7.424   7.233  10.991 -0.2894  0.3782 -0.4086
  481MOL0     H64868   7.747   7.271  11.219 -1.7076 -0.5059  0.6181
  481MOL0     H64869   7.927   7.244  11.383  1.4754  1.2795 -2.7153
  481MOL0     H64870   8.120   7.197  11.465  0.4721  0.1172  0.4023
  481MOL0     H64871   8.017   7.114  11.581  0.1587 -1.7432  0.8890
  481MOL0     H64872   8.174   6.985  11.667 -1.1639 -1.6900 -1.6384
  481MOL0     H64873   8.250   7.145  11.657  0.8156 -1.0989  1.1197
  481MOL0     H64874   8.369   7.064  11.447 -0.7428  1.3332  1.1666
  481MOL0     H64875   8.295   6.898  11.458  0.4324  0.2936 -1.7462
  481MOL0     H64876   8.463   7.023  11.679 -1.0115  2.4445 -1.4808
  481MOL0     H64877   8.408   6.863  11.666  0.3516  0.0333  0.9254
  481MOL0     H64878   8.569   6.815  11.484 -1.9515  0.1763 -1.0079
  481MOL0     H64879   8.598   6.986  11.449  1.7867  0.3290 -0.1366
  481MOL0     H64880   8.723   6.988  11.698 -1.7204 -3.6020  2.6927
  481MOL0     H64881   8.738   6.818  11.648 -0.6289 -0.8986 -1.7991
  481MOL0     H64882   8.834   7.034  11.465  1.9202 -1.1242 -1.4345
  481MOL0     H64883   8.824   6.860  11.432 -0.5625  1.2327 -1.9646
  481MOL0     H64884   8.960   7.004  11.675  2.1070  0.0593  0.2473
  481MOL0     H64885   8.988   6.835  11.636 -0.5447  0.4885  2.9052
  481MOL0     H64886   9.097   6.783  11.396  0.6627 -0.4074  1.5214
  481MOL0     H64887   9.301   6.857  11.182  0.3574 -0.8309  0.7692
  481MOL0     H64888   9.366   7.018  11.202 -0.6515  0.2176 -0.5113
  481MOL0     H64889   9.478   6.940  11.435 -0.3740  0.7959  0.3581
  481MOL0     H64890   9.441   6.778  11.380 -2.6078  0.3962 -2.0834
  481MOL0     H64891   9.601   6.988  11.227 -0.4056 -0.5647 -1.9279
  481MOL0     H64892   9.583   6.818  11.169 -0.1006 -0.1118 -0.0043
  481MOL0     H64893   9.800   6.831  11.270 -0.0076  5.0168 -0.0533
  481MOL0     H64894   9.705   6.747  11.386 -0.4620 -0.7942 -1.8911
  481MOL0     H64895   9.820   6.906  11.675 -0.3613  0.3885 -0.8270
  481MOL0     H64896  10.038   6.860  11.758 -1.5165 -2.1095  0.3157
  481MOL0     H64897  10.458   6.639  11.645 -4.2191  1.0501  0.5829
  481MOL0     H64898  10.667   6.575  11.742 -0.4427 -2.8922  0.5581
  481MOL0     H64899  10.830   6.511  11.864  1.1980  0.0243 -1.6273
  481MOL0     H64900  10.901   6.673  11.823 -4.1792  0.4636 -1.4368
  481MOL0     H64901  11.041   6.665  12.014  0.7265 -1.7599  2.5472
  481MOL0     H64902  10.952   6.527  12.080  1.7060 -0.6457  0.1538
  481MOL0     H64903  11.130   6.438  11.998 -1.0997  5.8515  3.5282
  481MOL0     H64904  11.016   6.398  11.862  0.2413 -0.7905 -0.8038
  481MOL0     H64905  11.191   6.652  11.846 -0.5454  0.8852 -1.6036
  481MOL0     H64906  11.146   6.540  11.712 -0.8127 -0.4360  0.2687
  481MOL0     H64907  11.348   6.464  11.919 -0.9986 -1.9895 -0.3594
  481MOL0     H64908  11.379   6.537  11.759  0.4122  0.2884  1.4415
  481MOL0     H64909  11.244   6.270  11.827 -0.2623 -0.4990  0.3338
  481MOL0     H64910  11.253   6.323  11.668  2.1739 -2.7760 -0.9161
  481MOL0     H64911  11.433   6.152  11.752 -0.4189 -0.3875 -0.7042
  481MOL0     H64912  11.517   6.287  11.828  0.5084 -1.5007  0.4367
  481MOL0     H64913  11.437   6.263  11.533  0.8450  0.8326 -0.5884
  481MOL0     H64914  11.535   6.393  11.594 -0.5704 -0.2727 -1.1138
  481MOL0     H64915  10.615   6.890  12.048  2.7633 -1.4197 -0.2855
  481MOL0     H64916  10.409   6.954  11.937  1.4357  1.8029  0.5824
  481MOL0     H64917  10.201   6.954  11.372 -0.0015  2.7518  1.5466
  481MOL0     H64918   9.984   6.994  11.290 -3.0843  1.7869  0.4947
  481MOL0     H64919   8.004   6.848  11.225  0.2442 -1.1036 -1.4669
  481MOL0     H64920   7.824   6.886  11.051 -2.8094  0.8483 -0.0692
  481MOL0     H64921   7.715   7.138  10.626  0.0722  1.6898 -0.7546
  481MOL0     H64922   7.587   7.285  10.486  0.5942 -0.9895 -0.4483
  481MOL0     H64923   7.326   7.376  10.370 -3.3410 -0.3104 -2.0518
  481MOL0     H64924   7.184   7.420  10.461 -0.7762 -1.3406  1.0087
  481MOL0     H64925   7.173   7.176  10.555  1.5029 -0.2802  0.4677
  481MOL0     H64926   7.326   7.152  10.464  0.5461  1.3834 -3.4699
  481MOL0     H64927   7.111   7.248  10.300  1.6375  0.5973 -0.1056
  481MOL0     H64928   7.069   7.088  10.361 -1.3437  0.1446 -0.4606
  481MOL0     H64929   7.308   7.156  10.199  1.5308 -1.2731  0.4724
  481MOL0     H64930   7.309   7.008  10.288 -0.7710  0.3527  1.0700
  481MOL0     H64931   7.054   6.873   9.996 -0.8659 -0.7347  1.9614
  481MOL0     H64932   7.303   7.355  10.803 -0.4274  1.8977 -1.1877
  481MOL0     H64933   7.351   7.312  11.011  0.7523  0.8937  1.6096
  481MOL0     H64934   7.361   7.144  11.001  0.9201 -0.4234  0.2231
  481MOL0     H64935   7.505   7.253  11.062  1.5918 -2.0098 -1.7335
  482MOL0     O64936   5.769   0.608   4.000  0.3462  0.8453 -0.0204
  482MOL0     C64937   5.690   0.514   3.970 -0.4870  0.1572  0.3753
  482MOL0     O64938   5.583   0.517   3.882  0.3525 -0.0080  0.0620
  482MOL0     C64939   5.559   0.632   3.812  0.1464  0.2372  0.5659
  482MOL0     C64940   5.529   0.746   3.876 -0.3044 -0.7916 -0.0553
  482MOL0     C64941   5.495   0.862   3.802  0.1562 -0.5066  0.6460
  482MOL0     C64942   5.490   0.864   3.667  0.4779 -0.0223  0.5757
  482MOL0     O64943   5.427   0.977   3.612 -0.5825  0.1331  0.3243
  482MOL0     C64944   5.466   1.011   3.473  0.8171  0.7233  0.1799
  482MOL0     C64945   5.431   1.153   3.435 -0.8103  1.0056 -0.2483
  482MOL0     C64946   5.284   1.201   3.468 -0.2543 -0.6583 -0.4610
  482MOL0     C64947   5.261   1.325   3.374  0.0084 -0.4257 -0.5809
  482MOL0     C64948   5.135   1.412   3.406  0.5973 -0.2733  0.3780
  482MOL0     C64949   5.168   1.559   3.411  0.0367  0.4304  0.0647
  482MOL0     C64950   5.060   1.668   3.426  0.6074 -0.0173 -0.2570
  482MOL0     C64951   4.949   1.649   3.321  0.9793 -0.6454 -0.1304
  482MOL0     N64952   4.836   1.755   3.334  0.1246 -0.5868 -0.0411
  482MOL0     C64953   4.774   1.816   3.226 -0.8917  0.2821 -1.2208
  482MOL0     C64954   4.696   1.911   3.285  0.5191  0.1699 -0.4648
  482MOL0     C64955   4.614   1.994   3.198 -0.3313 -0.0654  0.5616
  482MOL0     C64956   4.653   2.146   3.203  0.3514  0.4159  0.5939
  482MOL0     C64957   4.568   2.243   3.125 -0.1921 -1.4567 -0.3663
  482MOL0     C64958   4.531   2.206   2.981  0.3766 -0.5687  0.0573
  482MOL0     O64959   4.647   2.223   2.897  0.6092 -0.8180 -0.0460
  482MOL0     C64960   4.648   2.224   2.759 -0.4928 -0.6702  0.0546
  482MOL0     C64961   4.532   2.185   2.694  0.4743 -0.8426 -0.3056
  482MOL0     C64962   4.537   2.163   2.555 -0.4276 -0.6787  0.3709
  482MOL0     C64963   4.657   2.190   2.471 -0.2350  0.0475 -0.1574
  482MOL0     C64964   4.658   2.154   2.332 -0.5953  1.3086  0.3065
  482MOL0     O64965   4.776   2.168   2.271 -0.0924  0.5372  0.3337
  482MOL0     C64966   4.798   2.131   2.144 -0.8218 -0.4031 -0.3597
  482MOL0     C64967   4.739   2.022   2.076  1.0307  0.8576  0.0218
  482MOL0     C64968   4.794   1.974   1.950 -0.0400  0.3332  0.1085
  482MOL0     C64969   4.895   2.052   1.892  0.8964 -0.5428 -1.0870
  482MOL0     O64970   4.955   2.018   1.776 -0.2046  0.3102 -0.4057
  482MOL0     C64971   4.876   1.977   1.673 -0.0490  0.1856 -0.2219
  482MOL0     C64972   4.941   1.965   1.538  0.3938  0.9475 -0.0768
  482MOL0     C64973   4.966   2.106   1.490 -0.4114 -0.0753 -0.0815
  482MOL0     C64974   5.063   2.091   1.368  0.2923  0.1427  0.1810
  482MOL0     C64975   5.094   2.228   1.295 -0.2032 -0.1990  0.6912
  482MOL0     C64976   5.221   2.235   1.218  0.3228  0.0506 -0.4746
  482MOL0     C64977   5.215   2.166   1.079  0.0498  0.4938  0.3487
  482MOL0     C64978   5.332   2.180   0.975 -0.4020 -0.4311  0.2778
  482MOL0    Cl64979   5.281   2.097   0.825  0.2774  0.2656  0.0319
  482MOL0     C64980   4.952   2.169   1.950 -0.2726  0.6711 -1.4295
  482MOL0     C64981   4.896   2.208   2.077  0.3149  0.2370  0.6662
  482MOL0     O64982   4.547   2.116   2.284  0.0113  0.4337 -0.6167
  482MOL0     C64983   4.781   2.215   2.543 -0.2485 -0.7379 -0.4933
  482MOL0     C64984   4.778   2.240   2.687  0.5650 -0.7752 -0.5522
  482MOL0     N64985   4.709   1.898   3.426  0.0673 -0.2440 -0.6192
  482MOL0     N64986   4.802   1.821   3.452  0.9969 -0.6065 -0.5601
  482MOL0     C64987   5.507   0.739   3.600 -0.4313  0.1468  0.5942
  482MOL0     C64988   5.553   0.623   3.670 -0.0112 -0.8590 -1.4124
  482MOL0     C64989   5.714   0.387   4.044  0.6942  0.4795  0.5200
  482MOL0     C64990   5.737   0.389   4.184 -0.4172  0.0702 -0.2172
  482MOL0     C64991   5.744   0.268   4.263 -0.0265  0.5946  0.3254
  482MOL0     C64992   5.712   0.145   4.194  0.8704  0.0431 -0.5915
  482MOL0     O64993   5.708   0.024   4.263  0.0272  0.1959 -0.3272
  482MOL0     C64994   5.744   0.013   4.404  0.6268 -0.2781 -0.4243
  482MOL0     C64995   5.770  -0.133   4.431 -0.1063 -0.1476  0.1969
  482MOL0     C64996   5.891  -0.181   4.353  0.5425  0.9658 -0.2158
  482MOL0     C64997   5.881  -0.336   4.321 -0.2013 -0.2505 -0.0197
  482MOL0     C64998   5.766  -0.379   4.238  0.0439  0.0389  0.4456
  482MOL0     C64999   5.673  -0.431   4.175  1.4347 -0.8835 -0.0458
  482MOL0     C65000   5.696   0.146   4.057 -0.9382  0.8306 -0.0982
  482MOL0     C65001   5.705   0.262   3.977  0.1994  0.3090 -0.5797
  482MOL0     C65002   5.701   0.252   3.831  0.4063  0.0076  0.2544
  482MOL0     H65003   5.546   0.747   3.983  3.1730  3.4738 -0.3586
  482MOL0     H65004   5.454   0.949   3.853 -2.3074 -2.3669  2.1023
  482MOL0     H65005   5.572   0.991   3.456  0.5114  1.2608 -2.9417
  482MOL0     H65006   5.407   0.941   3.412 -0.1961  1.7786 -0.0968
  482MOL0     H65007   5.450   1.150   3.327  0.2283  2.6771 -0.1487
  482MOL0     H65008   5.498   1.225   3.484 -1.8559  2.3089 -0.6994
  482MOL0     H65009   5.279   1.239   3.570 -0.5492 -0.5883 -0.5000
  482MOL0     H65010   5.206   1.126   3.449  1.7327 -2.9526  0.0566
  482MOL0     H65011   5.349   1.389   3.383 -1.0066  1.1751 -1.5254
  482MOL0     H65012   5.255   1.295   3.269 -3.1410 -0.5177 -0.4825
  482MOL0     H65013   5.068   1.395   3.322  0.0751 -2.3034  1.1537
  482MOL0     H65014   5.088   1.374   3.498  1.8394  1.4510  1.8083
  482MOL0     H65015   5.245   1.578   3.486  2.5382 -1.4614 -1.8440
  482MOL0     H65016   5.223   1.583   3.319  2.6321 -2.6729  0.6506
  482MOL0     H65017   5.101   1.769   3.419 -0.4565  0.6613  2.0747
  482MOL0     H65018   5.015   1.675   3.525 -0.1366  2.2240 -0.7038
  482MOL0     H65019   4.988   1.649   3.219 -0.5619 -0.3615 -0.7553
  482MOL0     H65020   4.890   1.558   3.334 -1.0434  0.5092 -0.8320
  482MOL0     H65021   4.798   1.788   3.124  2.7049  1.7278 -0.9090
  482MOL0     H65022   4.633   1.961   3.095 -1.3968  2.0246 -0.3619
  482MOL0     H65023   4.509   1.982   3.225  0.0911 -1.1797  1.8077
  482MOL0     H65024   4.669   2.187   3.303  1.8906 -2.0581  1.4595
  482MOL0     H65025   4.747   2.154   3.148 -0.7730 -1.1034 -1.7394
  482MOL0     H65026   4.606   2.345   3.126 -0.7636 -1.1702  2.9576
  482MOL0     H65027   4.478   2.249   3.188  0.2201 -4.1233  0.6108
  482MOL0     H65028   4.457   2.279   2.947  1.5741 -0.8960 -3.6333
  482MOL0     H65029   4.493   2.103   2.985 -1.5622  0.1292  0.9794
  482MOL0     H65030   4.435   2.169   2.741 -0.0983  2.0624 -0.2747
  482MOL0     H65031   4.446   2.132   2.504  0.5086  0.5997 -2.2548
  482MOL0     H65032   4.684   1.944   2.129  3.6677 -1.0435  0.1785
  482MOL0     H65033   4.753   1.877   1.921  3.8113 -2.0057  1.6192
  482MOL0     H65034   4.829   1.881   1.697 -1.6897  0.7389 -1.0333
  482MOL0     H65035   4.790   2.043   1.658  0.2926  1.3609  2.4035
  482MOL0     H65036   5.031   1.905   1.553 -1.8451 -2.0881  2.3507
  482MOL0     H65037   4.876   1.903   1.476  1.4698 -0.0897 -0.2156
  482MOL0     H65038   4.876   2.161   1.461 -0.2378  0.7092  0.8134
  482MOL0     H65039   5.019   2.163   1.567 -1.4625  2.6071 -1.2201
  482MOL0     H65040   5.013   2.026   1.295 -0.5159  1.1806 -0.2209
  482MOL0     H65041   5.161   2.046   1.388  0.6023 -0.4853 -2.3478
  482MOL0     H65042   5.096   2.303   1.374 -4.2260  0.6662  0.1854
  482MOL0     H65043   5.003   2.261   1.244  0.1066  2.1424  1.5493
  482MOL0     H65044   5.237   2.341   1.196 -0.6669 -0.0026 -1.6085
  482MOL0     H65045   5.297   2.177   1.270  1.9694  2.5790  0.1099
  482MOL0     H65046   5.127   2.208   1.031  1.2536  3.2023  0.3272
  482MOL0     H65047   5.196   2.059   1.094 -1.1918  0.7185  0.4444
  482MOL0     H65048   5.354   2.284   0.953 -1.3354 -0.6670 -2.0778
  482MOL0     H65049   5.417   2.127   1.019 -0.7827 -0.1804  1.3579
  482MOL0     H65050   5.035   2.220   1.901  0.9853  0.1872  0.1177
  482MOL0     H65051   4.936   2.295   2.129  0.9539  0.7887 -0.7136
  482MOL0     H65052   4.871   2.217   2.482  2.3285 -3.3813  2.7983
  482MOL0     H65053   4.860   2.260   2.755  1.2922  0.1237 -1.6467
  482MOL0     H65054   5.502   0.725   3.493 -2.3514 -3.3306  0.9743
  482MOL0     H65055   5.577   0.524   3.631  0.9728 -1.7440  1.1855
  482MOL0     H65056   5.763   0.484   4.230  2.4569 -0.6907 -0.0250
  482MOL0     H65057   5.753   0.279   4.370  0.4650  0.5073  0.2936
  482MOL0     H65058   5.661   0.047   4.468  1.1911 -1.7919  1.1846
  482MOL0     H65059   5.833   0.072   4.429  1.3253 -0.8230 -1.5783
  482MOL0     H65060   5.677  -0.187   4.411 -0.4290  0.8010 -0.9325
  482MOL0     H65061   5.794  -0.143   4.537 -0.6567 -0.5827  0.2865
  482MOL0     H65062   5.982  -0.153   4.406 -0.4379  1.0123  1.5372
  482MOL0     H65063   5.888  -0.125   4.259  0.6948 -0.2881 -0.9980
  482MOL0     H65064   5.966  -0.361   4.257  0.6517 -1.1654  1.4095
  482MOL0     H65065   5.879  -0.395   4.413  1.0909 -1.4194 -0.7120
  482MOL0     H65066   5.594  -0.482   4.123  1.1473 -1.1261  0.6078
  482MOL0     H65067   5.692   0.052   4.004  3.6148 -0.2157  0.9844
  482MOL0     H65068   5.741   0.154   3.805  0.9699  0.8848 -2.5051
  482MOL0     H65069   5.601   0.233   3.791 -0.7580  1.4489  2.3026
  482MOL0     H65070   5.752   0.336   3.782  0.3803  0.8439  1.6100
  483MOL0     O65071  10.757   8.428   7.368 -0.1241 -0.0475  0.0521
  483MOL0     C65072  10.843   8.467   7.446  0.1343 -0.3651  0.4221
  483MOL0     O65073  10.853   8.435   7.575  0.0029  0.1992  0.1033
  483MOL0     C65074  10.770   8.347   7.640 -0.3374  0.6389 -0.0703
  483MOL0     C65075  10.811   8.265   7.751 -0.3683 -0.4672  0.0111
  483MOL0     C65076  10.722   8.199   7.834  0.0344  0.4246  0.1897
  483MOL0     C65077  10.588   8.199   7.813  0.2383  0.1537  0.7866
  483MOL0     O65078  10.504   8.146   7.901  0.2423 -0.1180 -0.8686
  483MOL0     C65079  10.445   8.020   7.846 -0.9761 -0.5470 -0.1455
  483MOL0     C65080  10.297   7.996   7.899 -0.5858 -0.9953  0.1590
  483MOL0     C65081  10.289   7.999   8.057 -0.8608 -0.0615  0.2193
  483MOL0     C65082  10.147   8.048   8.115  0.8602 -0.4225 -0.8352
  483MOL0     C65083  10.150   8.036   8.272 -0.2675  1.0703  0.1913
  483MOL0     C65084  10.031   7.956   8.316  0.5906 -0.0427 -0.2257
  483MOL0     C65085  10.007   7.944   8.459 -0.4793  0.0415  0.3402
  483MOL0     C65086   9.898   7.853   8.486  0.3932 -0.2992 -0.7631
  483MOL0     N65087   9.907   7.817   8.625 -0.3728 -0.7226 -0.6421
  483MOL0     C65088   9.866   7.895   8.726 -0.3554  0.5520  0.9683
  483MOL0     C65089   9.875   7.823   8.838  0.2785 -0.2282 -0.3616
  483MOL0     C65090   9.820   7.872   8.976 -0.5695  0.2848  0.7867
  483MOL0     C65091   9.939   7.914   9.063 -0.4216  0.0971 -0.2842
  483MOL0     C65092  10.015   8.028   9.024  0.8806  0.2124 -0.4852
  483MOL0     C65093   9.931   8.143   8.980  0.1519 -0.4009  0.5429
  483MOL0     O65094   9.833   8.194   9.087 -0.3084  0.0150  0.4524
  483MOL0     C65095   9.900   8.252   9.191  0.2053  0.2154 -0.2592
  483MOL0     C65096   9.880   8.197   9.320 -0.0720  0.4521  0.4802
  483MOL0     C65097   9.952   8.227   9.444 -1.7698  0.9815  0.9866
  483MOL0     C65098  10.061   8.319   9.433  0.1942 -0.3116  0.6668
  483MOL0     C65099  10.139   8.371   9.542  0.3416 -0.1399  0.0749
  483MOL0     O65100  10.217   8.480   9.522 -0.6396  0.6676 -0.1836
  483MOL0     C65101  10.238   8.567   9.626 -0.0746  0.1337  0.8558
  483MOL0     C65102  10.219   8.702   9.595 -0.1345 -0.1503 -0.4149
  483MOL0     C65103  10.236   8.805   9.693  0.3464  0.3079  0.4245
  483MOL0     C65104  10.288   8.767   9.819 -1.3435  0.7713 -0.1321
  483MOL0     O65105  10.317   8.868   9.906  0.0850 -0.3322 -0.1471
  483MOL0     C65106  10.365   8.833  10.032  0.6052  0.0900  0.2588
  483MOL0     C65107  10.380   8.962  10.109 -0.1840  0.3428 -0.2643
  483MOL0     C65108  10.262   9.049  10.141 -0.5420  0.5129 -0.4953
  483MOL0     C65109  10.174   8.959  10.221  0.5815 -0.4293  0.5713
  483MOL0     C65110  10.069   9.044  10.301 -0.4020 -0.1672  0.4615
  483MOL0     C65111   9.963   8.965  10.382 -0.7280 -0.3761  0.9489
  483MOL0     C65112  10.018   8.853  10.471  0.4323 -0.8165  0.0381
  483MOL0     C65113  10.089   8.917  10.589 -0.3996 -0.4812  0.0688
  483MOL0    Cl65114  10.088   8.802  10.733 -0.2209  0.2252  0.2693
  483MOL0     C65115  10.329   8.632   9.848  0.8427 -0.7447  0.8825
  483MOL0     C65116  10.302   8.529   9.751 -0.4874  0.2979  0.7350
  483MOL0     O65117  10.109   8.324   9.651 -0.3513  0.6739 -0.8403
  483MOL0     C65118  10.070   8.382   9.309  0.0151  0.1420  0.1047
  483MOL0     C65119   9.995   8.354   9.191 -0.1424 -0.3894 -0.7851
  483MOL0     N65120   9.937   7.709   8.803  0.5035 -0.1712 -0.6905
  483MOL0     N65121   9.975   7.710   8.675  0.5206 -0.4954  0.4550
  483MOL0     C65122  10.537   8.275   7.697  0.3035  0.3887 -0.7498
  483MOL0     C65123  10.630   8.341   7.620  0.1720 -0.8743  0.1243
  483MOL0     C65124  10.953   8.555   7.396 -0.0621 -0.6263  0.6281
  483MOL0     C65125  11.041   8.609   7.495 -0.2531 -0.1479  1.1606
  483MOL0     C65126  11.127   8.713   7.460  0.5968 -0.6053  1.2346
  483MOL0     C65127  11.138   8.767   7.331  0.3488 -0.2144  0.8498
  483MOL0     O65128  11.223   8.872   7.298 -0.2924  0.9552 -0.3528
  483MOL0     C65129  11.312   8.929   7.391 -0.2527  0.0858  0.3081
  483MOL0     C65130  11.397   9.045   7.330 -0.5543  0.6376 -0.4928
  483MOL0     C65131  11.333   9.119   7.215 -0.3312  1.0870 -0.8681
  483MOL0     C65132  11.347   9.045   7.072 -0.5841  0.9961  0.2151
  483MOL0     C65133  11.482   9.061   7.007  0.6640 -0.5893  0.2443
  483MOL0     C65134  11.599   9.084   6.975 -0.7271  0.8005  0.6557
  483MOL0     C65135  11.050   8.717   7.238 -0.4906 -0.1748  0.2026
  483MOL0     C65136  10.962   8.611   7.260 -0.0659  0.1418  0.3408
  483MOL0     C65137  10.880   8.556   7.141 -0.8681 -0.0721  0.0176
  483MOL0     H65138  10.911   8.266   7.795 -0.5716 -0.3940  0.4760
  483MOL0     H65139  10.776   8.145   7.911  0.5326  0.3694 -0.1993
  483MOL0     H65140  10.445   8.024   7.737  0.2283 -3.0286 -0.3145
  483MOL0     H65141  10.503   7.931   7.872  1.6435  1.5198  1.6810
  483MOL0     H65142  10.253   7.905   7.857 -3.0134 -0.9875  2.3939
  483MOL0     H65143  10.231   8.071   7.853  0.7089 -0.5388 -1.0056
  483MOL0     H65144  10.363   8.063   8.107 -1.8500  0.3863  1.1502
  483MOL0     H65145  10.310   7.899   8.095 -1.7445  0.1096  1.1982
  483MOL0     H65146  10.121   8.150   8.083  3.6427  0.0484 -1.8357
  483MOL0     H65147  10.077   7.973   8.078  0.1433 -0.2534  0.1270
  483MOL0     H65148  10.244   7.991   8.305  2.2262  5.0738 -0.7685
  483MOL0     H65149  10.153   8.136   8.317  0.0428  0.3004  1.9468
  483MOL0     H65150   9.940   8.001   8.276 -1.7937 -3.5088  0.8036
  483MOL0     H65151  10.032   7.856   8.272 -1.7120  0.5109 -1.7216
  483MOL0     H65152   9.999   8.044   8.504 -2.4912 -0.3556  0.9721
  483MOL0     H65153  10.096   7.897   8.501 -0.3857 -1.2380 -1.1731
  483MOL0     H65154   9.801   7.903   8.478 -0.0938 -0.1308  3.6299
  483MOL0     H65155   9.906   7.762   8.425 -0.7194 -1.9352  1.3954
  483MOL0     H65156   9.829   7.994   8.701 -1.4219  0.1253  0.7798
  483MOL0     H65157   9.741   7.948   8.975  0.6452  1.6233 -0.5882
  483MOL0     H65158   9.769   7.784   9.016  1.6107 -3.4070 -3.6272
  483MOL0     H65159   9.904   7.922   9.167 -1.2091  2.2382 -0.6642
  483MOL0     H65160  10.017   7.837   9.067  0.9747  1.5128  1.7327
  483MOL0     H65161  10.079   7.994   8.942  1.7515  2.8851 -1.0009
  483MOL0     H65162  10.084   8.063   9.101  0.8055  0.7322 -0.6466
  483MOL0     H65163   9.864   8.126   8.895 -1.3567  3.1148  0.8395
  483MOL0     H65164   9.997   8.221   8.941 -0.7947 -0.2384 -0.8264
  483MOL0     H65165   9.803   8.121   9.332 -0.0064  0.0834 -1.1777
  483MOL0     H65166   9.930   8.176   9.537  1.6447 -2.3803  0.2340
  483MOL0     H65167  10.175   8.709   9.496 -1.5460  0.2945  0.2157
  483MOL0     H65168  10.207   8.904   9.660 -1.8392 -0.8519 -1.4686
  483MOL0     H65169  10.286   8.776  10.083 -1.6293  1.6843 -1.2573
  483MOL0     H65170  10.463   8.784  10.031  0.3158 -0.5533  1.1247
  483MOL0     H65171  10.429   8.947  10.206 -0.4263  2.6417  0.2746
  483MOL0     H65172  10.447   9.024  10.050  2.0972 -1.4396  0.2946
  483MOL0     H65173  10.288   9.129  10.210  1.6092 -1.4784  1.1512
  483MOL0     H65174  10.211   9.084  10.050  0.8221 -1.6619 -2.2117
  483MOL0     H65175  10.225   8.884  10.283  2.5420 -1.1380 -1.6947
  483MOL0     H65176  10.115   8.888  10.161 -0.1571  1.1808 -0.6830
  483MOL0     H65177  10.008   9.104  10.233  1.0244  1.4194  0.4780
  483MOL0     H65178  10.121   9.101  10.379 -1.2554  0.6337  0.4590
  483MOL0     H65179   9.904   9.042  10.433 -0.3944  1.1874 -0.9173
  483MOL0     H65180   9.897   8.910  10.315  0.0242  0.6341 -0.6719
  483MOL0     H65181  10.078   8.780  10.416  1.2111 -2.3612  2.7125
  483MOL0     H65182   9.933   8.798  10.514  1.0170 -0.3823  1.8628
  483MOL0     H65183  10.189   8.951  10.560 -0.5442  0.5405  0.7264
  483MOL0     H65184  10.038   9.006  10.628  2.6914  0.1608  3.1121
  483MOL0     H65185  10.387   8.595   9.932  0.3743 -4.1548 -0.1333
  483MOL0     H65186  10.319   8.423   9.765  0.2385  0.3187  0.1451
  483MOL0     H65187  10.152   8.450   9.289  0.3061 -0.3641 -0.4418
  483MOL0     H65188  10.024   8.403   9.099 -0.1626  0.0320 -0.5681
  483MOL0     H65189  10.431   8.293   7.685  0.0423 -2.3009 -3.6262
  483MOL0     H65190  10.596   8.422   7.555  3.2435  1.6886  1.4850
  483MOL0     H65191  11.045   8.585   7.600 -3.4039 -0.2867  1.3323
  483MOL0     H65192  11.186   8.749   7.545 -0.8787  1.5868  1.4229
  483MOL0     H65193  11.363   8.850   7.447 -0.4150 -2.1742 -2.5063
  483MOL0     H65194  11.251   8.985   7.462 -1.4928 -1.4233  0.4725
  483MOL0     H65195  11.498   9.007   7.310  1.0759  3.6259  1.1857
  483MOL0     H65196  11.411   9.108   7.419 -2.5373  1.6799 -0.8649
  483MOL0     H65197  11.358   9.225   7.212 -0.9472  1.2770  0.2152
  483MOL0     H65198  11.225   9.122   7.227 -0.5853 -2.0101 -1.5794
  483MOL0     H65199  11.328   8.938   7.085 -1.6151  1.2701  1.0801
  483MOL0     H65200  11.279   9.089   6.998  0.0756 -3.1358 -3.2980
  483MOL0     H65201  11.699   9.106   6.944  0.3648  0.3473  3.5684
  483MOL0     H65202  11.044   8.773   7.145  0.8820  0.5690  0.5448
  483MOL0     H65203  10.876   8.447   7.132 -1.8700  0.0298 -1.0578
  483MOL0     H65204  10.778   8.594   7.151 -0.2186  1.4670  0.9450
  483MOL0     H65205  10.940   8.591   7.056  1.3881  1.0753  1.9711
  484MOL0     O65206   4.310   9.948   5.852 -0.9862 -0.3323 -0.7736
  484MOL0     C65207   4.228   9.882   5.916 -0.9891 -0.5832  0.0914
  484MOL0     O65208   4.203   9.750   5.897  0.5913  0.3039  0.4077
  484MOL0     C65209   4.292   9.669   5.827 -0.3843  0.3942 -0.1462
  484MOL0     C65210   4.226   9.549   5.774  0.0912 -0.4778 -0.2415
  484MOL0     C65211   4.300   9.462   5.696  0.7237  0.3219 -0.1193
  484MOL0     C65212   4.441   9.472   5.687 -0.1363 -0.1667  0.5763
  484MOL0     O65213   4.527   9.384   5.628  0.5319  0.0537  0.1593
  484MOL0     C65214   4.469   9.270   5.563 -0.3830  0.2743 -0.1586
  484MOL0     C65215   4.581   9.188   5.504  0.3329  1.2646  1.1125
  484MOL0     C65216   4.534   9.057   5.436 -1.4099 -0.7994  0.0750
  484MOL0     C65217   4.655   8.990   5.372 -0.4550 -0.1000 -0.1167
  484MOL0     C65218   4.620   8.869   5.271  0.0558 -0.1980  0.3081
  484MOL0     C65219   4.540   8.920   5.143 -0.4557  0.0484 -0.7494
  484MOL0     C65220   4.478   8.800   5.061 -0.0077 -0.0969 -0.3754
  484MOL0     C65221   4.472   8.821   4.905 -2.0877 -0.3114 -0.9510
  484MOL0     N65222   4.493   8.696   4.830 -0.7204 -0.0659  0.1246
  484MOL0     C65223   4.436   8.573   4.848  0.6630 -0.3020 -0.4410
  484MOL0     C65224   4.451   8.503   4.738  1.4492  0.1176  0.6324
  484MOL0     C65225   4.417   8.356   4.717  0.5672 -0.1979  0.5837
  484MOL0     C65226   4.536   8.277   4.772  0.1829  0.6580  0.5196
  484MOL0     C65227   4.499   8.134   4.831 -0.4437 -0.3125  0.4320
  484MOL0     C65228   4.627   8.066   4.874 -1.0172 -0.6688 -0.7093
  484MOL0     O65229   4.693   8.007   4.763  0.4693  0.3978  0.4962
  484MOL0     C65230   4.802   7.928   4.787  0.1939 -0.7446 -0.1399
  484MOL0     C65231   4.822   7.811   4.714 -1.5180  0.0594  0.6401
  484MOL0     C65232   4.929   7.730   4.735 -1.2885  0.5720 -0.0775
  484MOL0     C65233   5.021   7.762   4.828 -0.1051  0.2049 -0.3728
  484MOL0     C65234   5.138   7.677   4.849  0.1831 -0.5873 -0.3996
  484MOL0     O65235   5.254   7.749   4.849 -0.0168 -0.5511 -0.6036
  484MOL0     C65236   5.353   7.697   4.925 -0.4768 -0.0193 -0.0418
  484MOL0     C65237   5.452   7.625   4.850 -0.1005  0.5211 -0.5149
  484MOL0     C65238   5.558   7.570   4.916 -0.7208 -0.0034  0.3707
  484MOL0     C65239   5.574   7.568   5.054 -0.5145  0.8774 -0.5218
  484MOL0     O65240   5.677   7.502   5.125  0.0847 -0.2000  0.2840
  484MOL0     C65241   5.739   7.400   5.042 -0.1895 -0.5020  0.0637
  484MOL0     C65242   5.824   7.296   5.112 -1.1291  0.4052  0.6566
  484MOL0     C65243   5.878   7.175   5.027 -0.3197  0.0227 -0.5642
  484MOL0     C65244   5.980   7.096   5.127 -0.4182  0.0653 -0.9721
  484MOL0     C65245   5.908   7.030   5.241  0.7670 -0.6166  0.5511
  484MOL0     C65246   5.926   6.877   5.227 -0.2163  0.1457  0.4379
  484MOL0     C65247   5.859   6.797   5.336 -0.3100 -0.1347  0.0462
  484MOL0     C65248   5.916   6.649   5.334  0.1590 -0.6046  0.2426
  484MOL0    Cl65249   6.087   6.632   5.385  0.4555  0.2662 -0.2339
  484MOL0     C65250   5.480   7.635   5.130  0.5978  0.4888  1.1007
  484MOL0     C65251   5.367   7.702   5.067 -0.3043  0.1385 -0.7531
  484MOL0     O65252   5.125   7.556   4.878  0.9518 -1.4857 -0.8111
  484MOL0     C65253   4.994   7.877   4.908  0.6142 -0.0008 -0.2519
  484MOL0     C65254   4.887   7.957   4.882  0.5966  0.3505 -0.9778
  484MOL0     N65255   4.506   8.591   4.653  1.1619 -0.6415  0.4479
  484MOL0     N65256   4.541   8.706   4.700  0.1378  0.6379 -0.0114
  484MOL0     C65257   4.511   9.576   5.748 -0.4917  0.5241  0.4774
  484MOL0     C65258   4.434   9.678   5.814 -0.8666 -0.4624 -0.8007
  484MOL0     C65259   4.135   9.948   6.016  0.0572 -1.1116  0.3312
  484MOL0     C65260   4.011   9.886   6.023 -0.2386  0.1625 -0.1119
  484MOL0     C65261   3.915   9.923   6.120 -0.0660  0.0283  0.4210
  484MOL0     C65262   3.946  10.035   6.201 -0.3442  0.2628  0.5755
  484MOL0     O65263   3.857  10.106   6.285 -0.5102 -0.2349 -0.6272
  484MOL0     C65264   3.723  10.071   6.290  0.2877 -0.3180  0.7619
  484MOL0     C65265   3.642  10.182   6.358  0.0159  0.2183  0.5525
  484MOL0     C65266   3.508  10.136   6.407 -0.1835 -0.6499  0.6303
  484MOL0     C65267   3.417  10.254   6.442 -0.4728  0.6468  0.4135
  484MOL0     C65268   3.284  10.203   6.479 -0.8720 -0.4591 -0.6788
  484MOL0     C65269   3.170  10.168   6.519 -0.6665  0.0101  0.0631
  484MOL0     C65270   4.077  10.093   6.190 -0.3904 -0.0540 -0.2954
  484MOL0     C65271   4.164  10.058   6.096 -0.3121 -0.3477 -1.0276
  484MOL0     C65272   4.288  10.137   6.076 -0.6942  1.1624  0.3425
  484MOL0     H65273   4.121   9.535   5.798  0.1457  1.6526  1.5725
  484MOL0     H65274   4.237   9.383   5.656  0.7883  0.1503  0.1199
  484MOL0     H65275   4.407   9.215   5.635 -2.3940 -1.7928 -3.2192
  484MOL0     H65276   4.395   9.301   5.488 -0.9267 -0.9268 -0.1484
  484MOL0     H65277   4.669   9.177   5.567 -0.7377  0.5090  2.5063
  484MOL0     H65278   4.612   9.256   5.424  2.0853 -1.4867 -0.7214
  484MOL0     H65279   4.464   9.078   5.355  1.1590  1.4320 -1.7291
  484MOL0     H65280   4.487   8.994   5.513 -0.5998  0.2912  1.5139
  484MOL0     H65281   4.705   9.058   5.303  1.1987 -2.7066 -1.6897
  484MOL0     H65282   4.730   8.968   5.449  3.5614 -0.5185 -3.7999
  484MOL0     H65283   4.704   8.813   5.230 -0.7526  0.0008 -1.7423
  484MOL0     H65284   4.557   8.797   5.325 -3.6604  0.7996 -2.2930
  484MOL0     H65285   4.471   9.003   5.160  0.7048  1.3990 -2.3060
  484MOL0     H65286   4.623   8.950   5.078  0.3763  0.5229  0.4876
  484MOL0     H65287   4.380   8.768   5.098  0.0259  0.5509  0.2748
  484MOL0     H65288   4.546   8.715   5.068  1.0989  0.5529 -2.4156
  484MOL0     H65289   4.379   8.861   4.864 -1.3462  3.0677  0.3300
  484MOL0     H65290   4.556   8.888   4.883 -2.0075  0.7268  2.0283
  484MOL0     H65291   4.393   8.535   4.940  2.1323  2.0485  1.3127
  484MOL0     H65292   4.325   8.332   4.771  0.8092  0.2873  1.2311
  484MOL0     H65293   4.384   8.339   4.614  2.7979 -2.6745  0.1718
  484MOL0     H65294   4.608   8.268   4.691  2.5831  0.2331  2.5681
  484MOL0     H65295   4.597   8.328   4.847  1.2536 -0.1603  0.2271
  484MOL0     H65296   4.443   8.077   4.756  1.1525 -0.8480 -0.4021
  484MOL0     H65297   4.434   8.157   4.916 -0.1371  0.8771  0.3711
  484MOL0     H65298   4.610   7.986   4.947  3.9437 -0.9835  0.4705
  484MOL0     H65299   4.686   8.144   4.923 -3.9381  0.9683  0.4862
  484MOL0     H65300   4.758   7.784   4.631  0.9211  0.7643 -1.5879
  484MOL0     H65301   4.949   7.644   4.672 -2.8085  0.4147 -0.3931
  484MOL0     H65302   5.431   7.601   4.746 -3.4981  0.5188  0.0587
  484MOL0     H65303   5.630   7.526   4.848  0.1504  1.3097  0.4030
  484MOL0     H65304   5.667   7.338   4.988 -0.3545 -0.3050  0.0561
  484MOL0     H65305   5.804   7.443   4.965 -1.0381  0.4282 -0.1632
  484MOL0     H65306   5.910   7.358   5.136 -0.2865 -0.3381 -0.3622
  484MOL0     H65307   5.767   7.267   5.201  0.4844 -0.1785  1.5317
  484MOL0     H65308   5.798   7.109   4.993  0.1452 -0.4276 -0.7829
  484MOL0     H65309   5.934   7.205   4.938  3.6742  0.7727  1.9418
  484MOL0     H65310   6.041   7.175   5.172 -1.0586  0.1182 -0.1776
  484MOL0     H65311   6.042   7.027   5.069 -1.8323 -0.1918 -2.2682
  484MOL0     H65312   5.800   7.035   5.225  0.6107 -2.0402  1.0231
  484MOL0     H65313   5.953   7.067   5.334  0.9272  2.6688 -0.6889
  484MOL0     H65314   5.887   6.845   5.130 -2.7161  0.6763  1.2096
  484MOL0     H65315   6.033   6.853   5.233 -0.3151 -0.3544  0.2622
  484MOL0     H65316   5.751   6.797   5.321 -0.1770 -1.1987 -1.0504
  484MOL0     H65317   5.881   6.835   5.437 -2.9786  0.8486  0.3241
  484MOL0     H65318   5.858   6.596   5.409  0.0558  1.0845  1.4255
  484MOL0     H65319   5.896   6.601   5.238 -2.7239 -0.6284  0.7891
  484MOL0     H65320   5.478   7.631   5.238 -1.9195 -0.3227  1.0654
  484MOL0     H65321   5.288   7.738   5.133  1.0585  1.1582  0.3939
  484MOL0     H65322   5.067   7.907   4.982  1.4549 -0.9821 -0.6607
  484MOL0     H65323   4.883   8.038   4.955  0.5838 -2.6313  2.6166
  484MOL0     H65324   4.620   9.582   5.741 -0.4858  0.4150  0.4756
  484MOL0     H65325   4.482   9.753   5.875 -1.0145 -1.4138  0.5318
  484MOL0     H65326   3.997   9.800   5.958  1.6825 -1.5757  1.6206
  484MOL0     H65327   3.817   9.881   6.134 -0.0725 -0.4685 -0.9951
  484MOL0     H65328   3.707   9.980   6.348  1.2190 -2.9317 -2.7135
  484MOL0     H65329   3.671  10.065   6.193 -2.4294  1.8329  1.9287
  484MOL0     H65330   3.630  10.264   6.286  2.6600 -0.0756 -0.3429
  484MOL0     H65331   3.687  10.230   6.445  1.7822 -2.5246  1.2917
  484MOL0     H65332   3.507  10.079   6.501  0.3440 -1.0625  0.3905
  484MOL0     H65333   3.459  10.087   6.322 -1.5028 -0.9361  1.5130
  484MOL0     H65334   3.457  10.311   6.527 -0.9096  1.3971  0.1202
  484MOL0     H65335   3.413  10.330   6.363 -1.0128  1.6876  1.4118
  484MOL0     H65336   3.068  10.148   6.544 -0.8284 -0.2636 -0.7884
  484MOL0     H65337   4.098  10.182   6.249 -1.4405 -0.5245  0.8331
  484MOL0     H65338   4.284  10.220   6.148  0.5556 -0.2740  2.1454
  484MOL0     H65339   4.377  10.075   6.090 -1.4860  0.3281  1.8774
  484MOL0     H65340   4.286  10.189   5.979 -3.8568  1.2827  0.3658
  485MOL0     O65341  10.113  10.107   9.642 -0.2878 -0.2894  0.4152
  485MOL0     C65342  10.037  10.044   9.711 -0.1600 -0.4326 -0.4287
  485MOL0     O65343   9.901  10.043   9.694 -0.0005 -0.5485  0.5039
  485MOL0     C65344   9.858  10.092   9.573 -0.2263 -1.1435 -0.1466
  485MOL0     C65345   9.839  10.229   9.549  0.0930  0.3182  0.4413
  485MOL0     C65346   9.806  10.279   9.423  0.1608 -0.1291 -0.2835
  485MOL0     C65347   9.778  10.188   9.321 -0.2047 -0.1595 -0.1316
  485MOL0     O65348   9.716  10.205   9.193 -1.3276 -0.1629  0.3663
  485MOL0     C65349   9.656  10.334   9.173  0.3366  0.3133  0.0584
  485MOL0     C65350   9.517  10.320   9.104  0.3434  0.2049  1.1138
  485MOL0     C65351   9.520  10.279   8.961 -0.1363  0.3741  0.4190
  485MOL0     C65352   9.426  10.363   8.883  0.2281  0.4391  0.5955
  485MOL0     C65353   9.427  10.334   8.731  0.0412  0.1631 -0.2377
  485MOL0     C65354   9.426  10.179   8.702  0.8295 -0.0778  0.1532
  485MOL0     C65355   9.377  10.148   8.565 -1.0785 -0.7083 -0.4110
  485MOL0     C65356   9.453  10.193   8.434 -0.0087  0.3203 -0.7176
  485MOL0     N65357   9.368  10.188   8.321 -0.4053 -0.1202 -0.5893
  485MOL0     C65358   9.301  10.084   8.262  0.4853 -0.2545 -0.1944
  485MOL0     C65359   9.210  10.146   8.174 -0.2925 -0.0339  1.3490
  485MOL0     C65360   9.104  10.092   8.087  0.0363  0.4544 -0.3797
  485MOL0     C65361   8.986  10.097   8.168  0.1769 -0.1695  0.8782
  485MOL0     C65362   8.860  10.046   8.091  1.0513 -0.1984 -0.7851
  485MOL0     C65363   8.734  10.077   8.169  0.4295  0.1483  0.2958
  485MOL0     O65364   8.640   9.974   8.134  0.0713 -0.6400  0.0909
  485MOL0     C65365   8.553   9.951   8.229  0.0927 -0.0447  0.3099
  485MOL0     C65366   8.461  10.046   8.290  0.0182  0.2408  0.0809
  485MOL0     C65367   8.366  10.018   8.392 -0.2714  0.0761  0.1366
  485MOL0     C65368   8.364   9.886   8.443 -0.1672  0.1037  0.5864
  485MOL0     C65369   8.264   9.865   8.547  0.0761  0.4964  0.1380
  485MOL0     O65370   8.179   9.965   8.575  0.4685 -0.7136  0.3849
  485MOL0     C65371   8.084   9.951   8.673 -0.2169  0.7743  0.8240
  485MOL0     C65372   7.974   9.863   8.669  0.1344  0.1822  0.6839
  485MOL0     C65373   7.877   9.857   8.772  0.3837 -0.1924  1.0312
  485MOL0     C65374   7.888   9.951   8.873  0.5525 -0.8575 -0.2729
  485MOL0     O65375   7.784   9.966   8.961  0.0873 -0.5846  0.1614
  485MOL0     C65376   7.821   9.913   9.091  0.3990 -0.2197  0.7894
  485MOL0     C65377   7.695   9.906   9.171  0.2770  0.0051 -0.6744
  485MOL0     C65378   7.644  10.052   9.206 -0.1936  1.5927  0.2794
  485MOL0     C65379   7.521  10.040   9.298  0.3128  0.1862 -0.4810
  485MOL0     C65380   7.463  10.179   9.350 -0.2155 -0.4094 -0.4566
  485MOL0     C65381   7.561  10.276   9.419  0.1105  0.1602 -0.2556
  485MOL0     C65382   7.633  10.228   9.545  0.2485  1.1968  0.2042
  485MOL0     C65383   7.751  10.312   9.594  0.1230 -0.2561 -0.8163
  485MOL0    Cl65384   7.696  10.478   9.605  0.5328  0.8595  0.3362
  485MOL0     C65385   7.993  10.048   8.873 -0.6082 -0.7955 -0.1055
  485MOL0     C65386   8.088  10.048   8.772  0.2062 -0.2849  0.9783
  485MOL0     O65387   8.265   9.746   8.593  0.5144 -0.0365 -0.3467
  485MOL0     C65388   8.455   9.792   8.388  0.9937 -0.0117  0.6029
  485MOL0     C65389   8.539   9.827   8.280 -0.2168 -1.0871  0.4493
  485MOL0     N65390   9.226  10.285   8.188  0.1080  0.4578 -0.5556
  485MOL0     N65391   9.323  10.303   8.269  0.5782  0.8791  0.1437
  485MOL0     C65392   9.783  10.049   9.341 -0.2303 -0.7641  0.3843
  485MOL0     C65393   9.824  10.001   9.472 -0.1769  0.2651  0.7535
  485MOL0     C65394  10.085   9.975   9.832 -0.8436 -0.1282  0.9353
  485MOL0     C65395   9.994   9.898   9.907  0.3522 -0.3018 -0.0071
  485MOL0     C65396  10.026   9.844  10.034 -0.4341  0.0223 -1.2010
  485MOL0     C65397  10.151   9.871  10.092 -0.9800  0.8491 -0.6673
  485MOL0     O65398  10.194   9.826  10.221  0.6388  0.0791  0.8297
  485MOL0     C65399  10.157   9.915  10.330 -0.4337 -0.3552  0.5788
  485MOL0     C65400  10.207   9.869  10.477  0.4013 -0.3929  0.4615
  485MOL0     C65401  10.365   9.844  10.480  0.2826  0.7188 -0.8422
  485MOL0     C65402  10.438   9.882  10.611  1.7924  0.2289 -0.7774
  485MOL0     C65403  10.573   9.854  10.615 -0.3527  0.4690  0.0087
  485MOL0     C65404  10.695   9.835  10.610 -0.1943  1.5368 -0.8881
  485MOL0     C65405  10.249   9.940  10.011  0.1437 -0.2977  0.5896
  485MOL0     C65406  10.216   9.991   9.887  0.0410  0.3948 -0.0259
  485MOL0     C65407  10.322  10.090   9.828  0.1527 -0.6822 -0.2192
  485MOL0     H65408   9.864  10.303   9.624  2.3659  1.0435 -0.9179
  485MOL0     H65409   9.809  10.386   9.401  0.0547 -0.1766 -0.5391
  485MOL0     H65410   9.615  10.359   9.271  0.1307  2.3929 -0.5242
  485MOL0     H65411   9.732  10.404   9.140  3.6376 -3.3410 -0.9239
  485MOL0     H65412   9.486  10.424   9.119  2.3672  1.2328 -1.2154
  485MOL0     H65413   9.464  10.248   9.167  2.9275  0.8704  4.3732
  485MOL0     H65414   9.508  10.173   8.938  2.9445  0.3760 -1.8022
  485MOL0     H65415   9.619  10.311   8.924 -0.5042 -2.2773 -3.4109
  485MOL0     H65416   9.322  10.341   8.909 -0.0577 -1.5804 -1.9128
  485MOL0     H65417   9.463  10.466   8.891  3.2701 -0.3822 -1.0468
  485MOL0     H65418   9.339  10.380   8.684  0.0495 -0.0900 -0.5003
  485MOL0     H65419   9.514  10.371   8.676 -0.5462  0.7256 -0.8042
  485MOL0     H65420   9.530  10.147   8.712 -0.1135 -3.3358  0.5183
  485MOL0     H65421   9.371  10.122   8.778 -1.8514  0.5851 -1.1504
  485MOL0     H65422   9.277  10.192   8.558 -0.9189  0.4092  2.7217
  485MOL0     H65423   9.382  10.039   8.557  2.4961 -0.6444 -0.7428
  485MOL0     H65424   9.491  10.295   8.449  1.3869 -0.2009 -0.5930
  485MOL0     H65425   9.541  10.131   8.419 -0.6101 -1.5288  2.4329
  485MOL0     H65426   9.307   9.979   8.290 -0.0351 -0.0394  0.7836
  485MOL0     H65427   9.086  10.169   8.011  1.7208  2.7837  1.4724
  485MOL0     H65428   9.127   9.992   8.049 -0.9080  0.2870 -0.5420
  485MOL0     H65429   9.008  10.045   8.262  0.2972 -0.0741  0.9046
  485MOL0     H65430   8.966  10.200   8.201  0.1379  0.6867 -1.6267
  485MOL0     H65431   8.878   9.939   8.080  2.2390 -0.1280  0.2493
  485MOL0     H65432   8.850  10.094   7.993 -0.4281 -1.2119 -1.1523
  485MOL0     H65433   8.690  10.176   8.154 -0.9578 -0.0487  2.6497
  485MOL0     H65434   8.757  10.072   8.276  1.0391 -0.3948  0.1470
  485MOL0     H65435   8.465  10.148   8.255  0.6489 -0.4886 -2.1346
  485MOL0     H65436   8.301  10.102   8.413  1.7203  1.2719  1.8612
  485MOL0     H65437   7.963   9.799   8.582  4.2263  1.4363 -1.0001
  485MOL0     H65438   7.803   9.777   8.777 -0.2662 -0.3372 -4.4713
  485MOL0     H65439   7.861   9.812   9.077 -2.4754 -1.1951 -1.2946
  485MOL0     H65440   7.903   9.958   9.148  0.0381 -0.1208  1.2440
  485MOL0     H65441   7.616   9.856   9.115 -0.5894  0.5183  0.0686
  485MOL0     H65442   7.719   9.844   9.258  1.8283 -0.0680 -1.1078
  485MOL0     H65443   7.709  10.102   9.280 -2.7150  0.6033  3.3692
  485MOL0     H65444   7.622  10.119   9.122  1.7272  2.6414  0.5384
  485MOL0     H65445   7.556   9.982   9.384 -3.7721  0.5258  1.6305
  485MOL0     H65446   7.433   9.992   9.255 -0.5485  2.1569 -1.0281
  485MOL0     H65447   7.372  10.156   9.406  2.2695 -1.7263  3.3602
  485MOL0     H65448   7.433  10.237   9.262  0.3012 -0.0414 -0.3951
  485MOL0     H65449   7.644  10.301   9.353  1.4919 -2.2395  0.4223
  485MOL0     H65450   7.504  10.367   9.442 -1.5396 -1.0024  0.5088
  485MOL0     H65451   7.652  10.123   9.518 -1.1474  1.0729 -0.4343
  485MOL0     H65452   7.557  10.212   9.622  0.5967 -4.9324 -0.2261
  485MOL0     H65453   7.771  10.276   9.695 -1.6579  2.2325  0.5505
  485MOL0     H65454   7.842  10.307   9.533 -0.7985 -0.8521 -2.2087
  485MOL0     H65455   8.002  10.128   8.946  0.8268  0.9917 -2.1512
  485MOL0     H65456   8.168  10.121   8.781  1.4168 -1.4707  0.2991
  485MOL0     H65457   8.445   9.686   8.407 -4.2187 -0.2161 -1.4661
  485MOL0     H65458   8.607   9.749   8.247  4.8538  0.6893  5.1963
  485MOL0     H65459   9.739   9.985   9.265 -1.7927 -0.7928  1.2631
  485MOL0     H65460   9.836   9.893   9.477  0.7357  0.1844 -1.7816
  485MOL0     H65461   9.894   9.885   9.867 -0.8987  1.1875  2.4222
  485MOL0     H65462   9.969   9.772  10.090 -1.7244  0.8412 -1.4322
  485MOL0     H65463  10.050   9.935  10.344  0.2022  3.8921  0.5724
  485MOL0     H65464  10.179  10.018  10.301  0.2245 -0.1716  1.6789
  485MOL0     H65465  10.162   9.782  10.524 -1.3107 -1.1481 -2.3504
  485MOL0     H65466  10.188   9.959  10.537 -3.2946  0.8653 -2.1994
  485MOL0     H65467  10.402   9.907  10.399 -0.4819  0.2223 -1.5990
  485MOL0     H65468  10.374   9.736  10.465 -2.1878  0.0098  1.8061
  485MOL0     H65469  10.411   9.987  10.630 -3.0224 -1.0150  0.8140
  485MOL0     H65470  10.386   9.836  10.696  0.7748  2.4855 -0.0958
  485MOL0     H65471  10.799   9.810  10.613 -0.8783 -1.8560 -1.3296
  485MOL0     H65472  10.344   9.967  10.056  1.8016 -0.4980 -2.5305
  485MOL0     H65473  10.398  10.109   9.904 -1.9245  3.5966  1.0937
  485MOL0     H65474  10.352  10.042   9.734 -0.9478  1.2246 -1.6243
  485MOL0     H65475  10.269  10.185   9.811 -0.5021 -1.2032 -1.2119
  486MOL0     O65476   8.062  10.132   4.232  0.5894  0.5898  0.2929
  486MOL0     C65477   8.007  10.022   4.234  0.8573 -0.1191 -0.1180
  486MOL0     O65478   7.894   9.987   4.169  0.5371  0.5716 -0.3429
  486MOL0     C65479   7.848  10.079   4.086 -0.0398  0.2748 -0.2233
  486MOL0     C65480   7.897  10.060   3.957  0.5937 -0.8005 -0.4356
  486MOL0     C65481   7.850  10.152   3.853  0.2003 -1.6485 -0.3445
  486MOL0     C65482   7.757  10.250   3.888  0.2268  0.0246 -0.4278
  486MOL0     O65483   7.710  10.343   3.800 -0.7027 -0.0820  0.2556
  486MOL0     C65484   7.801  10.424   3.719  0.0563  0.0474 -0.1657
  486MOL0     C65485   7.749  10.561   3.731 -0.8302  0.0613  0.1992
  486MOL0     C65486   7.860  10.661   3.695  0.3377  0.2349 -0.1165
  486MOL0     C65487   7.887  10.672   3.548 -0.7784 -0.4344  1.0221
  486MOL0     C65488   7.995  10.765   3.507  0.2142  0.0898  0.3426
  486MOL0     C65489   8.031  10.754   3.354 -0.0701 -1.3621  0.2644
  486MOL0     C65490   8.150  10.662   3.342 -0.2212  0.9549  0.1051
  486MOL0     C65491   8.203  10.653   3.197 -0.0399 -0.8324  0.1740
  486MOL0     N65492   8.270  10.782   3.150 -0.3323  0.2449  0.0101
  486MOL0     C65493   8.396  10.818   3.097 -0.0935  0.3776 -0.0225
  486MOL0     C65494   8.392  10.938   3.034  0.0093  0.1583  0.1463
  486MOL0     C65495   8.497  11.009   2.954  0.0432 -0.0089 -0.5897
  486MOL0     C65496   8.467  11.161   2.949 -0.1879 -0.1682 -0.5889
  486MOL0     C65497   8.578  11.254   2.888 -0.5104  0.3474 -0.3436
  486MOL0     C65498   8.592  11.235   2.738 -0.8162  0.2936 -0.5411
  486MOL0     O65499   8.496  11.318   2.671  0.5383 -0.2966 -0.2640
  486MOL0     C65500   8.517  11.363   2.546 -0.8882 -0.1359  0.6424
  486MOL0     C65501   8.587  11.289   2.453  0.1669 -0.7541  0.8069
  486MOL0     C65502   8.597  11.335   2.322  0.8693  0.1165  0.0135
  486MOL0     C65503   8.534  11.450   2.288  0.2123  0.3463  0.4883
  486MOL0     C65504   8.542  11.494   2.151 -0.1536 -0.3174 -0.1060
  486MOL0     O65505   8.669  11.505   2.094  0.3627 -0.6187 -0.3736
  486MOL0     C65506   8.700  11.604   2.001  0.7284  0.6429  0.1317
  486MOL0     C65507   8.816  11.673   2.035 -0.1352  0.4844 -0.9560
  486MOL0     C65508   8.865  11.777   1.951  0.0083  0.1108  0.3384
  486MOL0     C65509   8.779  11.827   1.847 -0.3777  0.8248  0.1319
  486MOL0     O65510   8.813  11.941   1.781 -0.3942 -0.3965 -0.3322
  486MOL0     C65511   8.703  12.001   1.705  0.3508 -0.5866 -0.9974
  486MOL0     C65512   8.747  12.148   1.664  0.4757  0.8954  0.9404
  486MOL0     C65513   8.845  12.162   1.550  0.4444  0.4053  0.1490
  486MOL0     C65514   8.868  12.309   1.521 -0.0714  0.6491  0.0169
  486MOL0     C65515   8.956  12.337   1.395  0.2174  0.1600 -0.9764
  486MOL0     C65516   8.897  12.277   1.263 -0.3790  0.1197 -0.2314
  486MOL0     C65517   8.949  12.349   1.140 -0.6808 -1.2337 -0.3846
  486MOL0     C65518   8.890  12.303   1.015 -0.5070  0.5627  0.4152
  486MOL0    Cl65519   8.715  12.358   0.990  0.2568 -0.3712 -0.5405
  486MOL0     C65520   8.658  11.760   1.824 -0.0206 -0.2291 -1.2871
  486MOL0     C65521   8.619  11.640   1.893 -0.0538  0.1521 -0.6232
  486MOL0     O65522   8.437  11.516   2.102  0.1075  0.2608 -0.7758
  486MOL0     C65523   8.472  11.535   2.383 -0.6922  0.1697 -0.5361
  486MOL0     C65524   8.456  11.487   2.506 -0.7308  0.4900 -0.2988
  486MOL0     N65525   8.264  10.980   3.041 -0.1777 -0.5853  0.3493
  486MOL0     N65526   8.197  10.895   3.114 -0.5425 -0.2419  0.1196
  486MOL0     C65527   7.700  10.245   4.015  0.4285 -0.1980 -0.1510
  486MOL0     C65528   7.738  10.165   4.111  0.0936 -0.2869 -0.1725
  486MOL0     C65529   8.071   9.925   4.323 -0.7759 -0.6634 -0.3421
  486MOL0     C65530   8.038   9.923   4.461 -0.0716 -1.1473 -0.8037
  486MOL0     C65531   8.100   9.836   4.545 -0.1351 -0.5999 -0.1410
  486MOL0     C65532   8.181   9.731   4.494 -1.0315 -0.2002 -0.0389
  486MOL0     O65533   8.230   9.640   4.579  0.5481  0.4804  0.1594
  486MOL0     C65534   8.372   9.624   4.580 -0.3015  0.1630 -0.5408
  486MOL0     C65535   8.427   9.756   4.641 -0.4478 -0.2195 -0.4399
  486MOL0     C65536   8.371   9.803   4.780 -0.9169  0.6827  0.3608
  486MOL0     C65537   8.359   9.956   4.800  0.6328  0.0205  0.6476
  486MOL0     C65538   8.486  10.032   4.777  0.2866  0.4231  0.2681
  486MOL0     C65539   8.586  10.098   4.772 -0.9846 -0.6387  0.1922
  486MOL0     C65540   8.213   9.729   4.356  0.7751  0.0033  0.7990
  486MOL0     C65541   8.152   9.825   4.274  0.6308 -1.0447 -0.6074
  486MOL0     C65542   8.188   9.822   4.124 -0.4675 -0.3078  0.3344
  486MOL0     H65543   7.969   9.981   3.945  1.8654 -0.1614  2.2480
  486MOL0     H65544   7.889  10.156   3.751  1.6499  0.0772  0.2246
  486MOL0     H65545   7.904  10.411   3.754 -1.3199 -1.6452  3.9604
  486MOL0     H65546   7.782  10.387   3.618  1.2291 -1.4920  0.1466
  486MOL0     H65547   7.714  10.581   3.833 -0.4295 -0.8900  0.5359
  486MOL0     H65548   7.671  10.568   3.655 -1.3719  0.3669  0.7730
  486MOL0     H65549   7.951  10.627   3.746 -1.0365 -2.5498  0.6339
  486MOL0     H65550   7.847  10.760   3.740  2.2249 -0.0073  1.1151
  486MOL0     H65551   7.920  10.575   3.511 -0.4254 -0.1051  0.4644
  486MOL0     H65552   7.790  10.689   3.499 -1.1846  0.8366  2.1800
  486MOL0     H65553   7.951  10.865   3.517  0.0705 -0.1094  1.8130
  486MOL0     H65554   8.083  10.751   3.571  0.0050  0.3221  0.6834
  486MOL0     H65555   7.939  10.740   3.296 -1.0115  2.8669  0.4302
  486MOL0     H65556   8.065  10.851   3.318  0.9355 -2.4226 -1.7544
  486MOL0     H65557   8.120  10.564   3.378 -2.2777  0.9347 -1.4831
  486MOL0     H65558   8.229  10.696   3.410 -0.1386  0.7475  0.1108
  486MOL0     H65559   8.264  10.564   3.179  0.2738 -0.6673  0.4117
  486MOL0     H65560   8.112  10.641   3.137  2.3963 -0.5908 -3.9462
  486MOL0     H65561   8.490  10.766   3.112  0.0780  1.0006  1.1464
  486MOL0     H65562   8.597  10.985   2.992 -0.7562 -1.5052  0.7154
  486MOL0     H65563   8.500  10.977   2.849  0.1645  1.4313 -1.0489
  486MOL0     H65564   8.373  11.186   2.899  2.0482  1.9421 -4.0959
  486MOL0     H65565   8.458  11.191   3.054 -0.6304  0.0490 -0.6902
  486MOL0     H65566   8.678  11.240   2.930 -0.9712  1.4223  1.1712
  486MOL0     H65567   8.553  11.357   2.912  0.2975  0.9454 -1.8886
  486MOL0     H65568   8.580  11.128   2.719 -0.0342  0.5205 -2.5339
  486MOL0     H65569   8.692  11.264   2.705 -0.3520 -1.3066 -0.6385
  486MOL0     H65570   8.633  11.196   2.485 -0.9845 -2.2522 -1.5545
  486MOL0     H65571   8.666  11.285   2.256 -0.5529  1.1600 -2.3807
  486MOL0     H65572   8.871  11.647   2.124 -0.0717  0.7660 -0.9123
  486MOL0     H65573   8.960  11.826   1.973  0.9523 -1.6747  0.3783
  486MOL0     H65574   8.664  11.955   1.613 -1.3615  1.3289 -1.3042
  486MOL0     H65575   8.618  12.012   1.773 -0.6553 -2.2026 -1.9251
  486MOL0     H65576   8.664  12.213   1.636  0.4596 -0.7789 -3.7369
  486MOL0     H65577   8.774  12.191   1.761 -0.0370 -1.0911  2.0213
  486MOL0     H65578   8.934  12.102   1.574  1.9575  1.1181 -3.0723
  486MOL0     H65579   8.804  12.116   1.459 -0.1611 -0.5198  0.8681
  486MOL0     H65580   8.918  12.362   1.602  0.1698  0.5251 -0.0500
  486MOL0     H65581   8.770  12.354   1.502 -0.0293  0.2976 -1.1141
  486MOL0     H65582   9.054  12.288   1.394 -0.8634 -2.1677 -1.2452
  486MOL0     H65583   8.962  12.446   1.394 -0.3961  0.3174  2.1603
  486MOL0     H65584   8.921  12.170   1.261  1.9247  0.5749 -0.1288
  486MOL0     H65585   8.789  12.294   1.258 -0.4526 -0.6805 -2.5455
  486MOL0     H65586   9.057  12.337   1.150 -0.7126 -0.1211  2.6297
  486MOL0     H65587   8.944  12.459   1.143  2.4166 -1.0253  0.2275
  486MOL0     H65588   8.954  12.354   0.943  2.1073  2.9830  4.0749
  486MOL0     H65589   8.895  12.195   1.002 -2.7833  0.6227 -1.6900
  486MOL0     H65590   8.594  11.788   1.741 -0.3618  0.7763 -0.7105
  486MOL0     H65591   8.528  11.590   1.860 -0.7298  0.1790  1.0821
  486MOL0     H65592   8.440  11.635   2.356 -2.7834 -0.4337 -0.4584
  486MOL0     H65593   8.412  11.535   2.592  1.3713 -1.2705  1.9251
  486MOL0     H65594   7.628  10.318   4.049  2.5231  1.7976  0.2999
  486MOL0     H65595   7.687  10.154   4.207 -1.5415  3.6586 -0.3930
  486MOL0     H65596   7.968   9.993   4.506  0.5638 -0.0323 -1.4988
  486MOL0     H65597   8.082   9.838   4.652  2.7137  5.4575  0.6726
  486MOL0     H65598   8.416   9.615   4.481  0.7306 -0.6759 -0.0303
  486MOL0     H65599   8.398   9.542   4.648 -0.6902  0.2669 -0.2638
  486MOL0     H65600   8.423   9.840   4.571  0.0599  3.1986  3.2799
  486MOL0     H65601   8.533   9.729   4.650 -0.3749  0.5839  1.6831
  486MOL0     H65602   8.426   9.766   4.867 -0.1502  0.2824 -0.2815
  486MOL0     H65603   8.269   9.768   4.793 -0.2447 -0.2330  4.4315
  486MOL0     H65604   8.290   9.982   4.719 -0.9934  3.0012  2.8265
  486MOL0     H65605   8.320   9.985   4.898  0.9848 -1.4863  1.2649
  486MOL0     H65606   8.675  10.155   4.754 -2.0372  0.6674 -1.2262
  486MOL0     H65607   8.283   9.664   4.304  0.5425 -1.7109  2.4779
  486MOL0     H65608   8.179   9.918   4.071  1.1287  0.2936  1.0992
  486MOL0     H65609   8.287   9.779   4.110 -1.1982 -2.8251  2.2544
  486MOL0     H65610   8.119   9.759   4.067 -0.7030 -0.5564  0.8893
  487MOL0     O65611   9.245   7.467   1.186 -0.7205  1.0369 -0.0248
  487MOL0     C65612   9.284   7.404   1.087  0.2711  1.0052  0.6452
  487MOL0     O65613   9.294   7.458   0.963  0.5000 -0.2020 -0.0013
  487MOL0     C65614   9.286   7.592   0.939 -0.0297 -0.2699  0.6856
  487MOL0     C65615   9.173   7.670   0.981  0.7628 -0.1980  0.2691
  487MOL0     C65616   9.165   7.807   0.963 -0.1567 -0.7227  0.1179
  487MOL0     C65617   9.271   7.880   0.902  0.0802  0.4007 -0.6843
  487MOL0     O65618   9.268   8.017   0.864  0.4921 -0.7807 -0.4949
  487MOL0     C65619   9.176   8.098   0.928  0.1118  0.2696 -0.0932
  487MOL0     C65620   9.221   8.245   0.926  0.6345 -0.7834  0.4674
  487MOL0     C65621   9.118   8.341   0.988 -0.8144  0.2575 -0.3611
  487MOL0     C65622   9.171   8.483   0.994 -0.7373 -0.3410 -0.2167
  487MOL0     C65623   9.304   8.511   1.058  0.6962 -1.0531 -0.3235
  487MOL0     C65624   9.333   8.667   1.077 -0.6731  0.2816 -0.6397
  487MOL0     C65625   9.470   8.698   1.162  0.6221 -0.5606 -0.3447
  487MOL0     C65626   9.592   8.651   1.092 -0.1405  0.1668  0.6138
  487MOL0     N65627   9.696   8.620   1.189  0.8894 -0.6842  0.3287
  487MOL0     C65628   9.746   8.712   1.284 -0.7581 -0.2551  0.0922
  487MOL0     C65629   9.852   8.648   1.344 -0.5023  0.6601  0.0283
  487MOL0     C65630   9.929   8.685   1.469 -1.0609  0.3831 -0.6404
  487MOL0     C65631  10.068   8.623   1.461 -1.5959 -0.1412  0.1592
  487MOL0     C65632  10.165   8.692   1.365  0.2162  0.6380 -0.3600
  487MOL0     C65633  10.302   8.616   1.379  0.4308 -0.4218 -0.8352
  487MOL0     O65634  10.405   8.691   1.303 -0.1530 -0.9108 -0.0976
  487MOL0     C65635  10.405   8.684   1.165 -0.2827 -0.1361  0.3174
  487MOL0     C65636  10.525   8.739   1.112 -0.2153 -0.6066 -0.5016
  487MOL0     C65637  10.564   8.733   0.976  0.3133 -0.3261  0.4673
  487MOL0     C65638  10.480   8.665   0.887  0.8975  0.1893  0.1193
  487MOL0     C65639  10.534   8.640   0.755 -0.8783 -0.3727  0.0077
  487MOL0     O65640  10.466   8.567   0.668  0.5995  0.3971  0.0250
  487MOL0     C65641  10.464   8.429   0.677  0.4399  0.9301  0.5202
  487MOL0     C65642  10.555   8.358   0.742  0.4625 -0.0625  0.8255
  487MOL0     C65643  10.569   8.224   0.718  0.6710  0.2569 -0.1931
  487MOL0     C65644  10.478   8.157   0.632  1.0922 -0.2281  0.3894
  487MOL0     O65645  10.505   8.017   0.629 -0.2898 -0.3886  0.8216
  487MOL0     C65646  10.403   7.940   0.570  0.0681  0.0837 -0.5491
  487MOL0     C65647  10.420   7.787   0.595  0.1877 -0.3932 -0.1825
  487MOL0     C65648  10.336   7.693   0.512  0.3389  0.0967 -0.0333
  487MOL0     C65649  10.190   7.723   0.540 -0.1166  0.2674 -1.3628
  487MOL0     C65650  10.094   7.624   0.494 -0.0729  0.4767  0.7269
  487MOL0     C65651  10.072   7.503   0.581  0.1387  0.2285  0.1238
  487MOL0     C65652   9.985   7.532   0.699 -0.2793  0.1217 -0.7549
  487MOL0     C65653   9.988   7.431   0.818 -0.3056  0.0558  0.4950
  487MOL0    Cl65654   9.888   7.292   0.765 -0.0675  0.8890 -0.5644
  487MOL0     C65655  10.377   8.233   0.566 -0.0233  0.2800 -0.7057
  487MOL0     C65656  10.377   8.367   0.590  0.6430  0.4642  0.2904
  487MOL0     O65657  10.637   8.699   0.722  0.4481 -0.1307  0.2249
  487MOL0     C65658  10.352   8.618   0.937  0.2869 -0.3503 -0.2754
  487MOL0     C65659  10.316   8.629   1.071  0.7552  0.4943  0.2085
  487MOL0     N65660   9.879   8.529   1.269 -0.1387 -0.7693  0.1982
  487MOL0     N65661   9.779   8.508   1.194  0.4379  0.2721  0.4299
  487MOL0     C65662   9.382   7.802   0.865  0.3925 -0.4029  0.6253
  487MOL0     C65663   9.392   7.661   0.890 -0.4406  0.4045 -0.2047
  487MOL0     C65664   9.313   7.256   1.091 -0.3737 -0.6811 -0.0768
  487MOL0     C65665   9.359   7.200   1.207 -0.5752  0.4569 -0.6548
  487MOL0     C65666   9.370   7.062   1.224 -0.4821 -0.0239 -0.4331
  487MOL0     C65667   9.333   6.970   1.125  0.8133 -0.6138 -0.6834
  487MOL0     O65668   9.355   6.834   1.135  0.7259 -0.2147 -0.1338
  487MOL0     C65669   9.404   6.767   1.251  0.2701  0.2180 -0.1534
  487MOL0     C65670   9.367   6.616   1.249 -0.0465  0.6935 -0.1256
  487MOL0     C65671   9.431   6.536   1.370  0.1580  0.4655 -0.5848
  487MOL0     C65672   9.445   6.393   1.334 -0.9431 -0.5241  0.3898
  487MOL0     C65673   9.317   6.330   1.340  0.1488 -0.7476  0.1025
  487MOL0     C65674   9.199   6.287   1.360 -0.9003 -0.1013  0.6377
  487MOL0     C65675   9.285   7.023   0.999  0.9691 -0.1813 -0.6838
  487MOL0     C65676   9.285   7.162   0.976  0.5714  0.9908 -0.6139
  487MOL0     C65677   9.241   7.197   0.836  0.9055  0.1721 -0.3469
  487MOL0     H65678   9.090   7.620   1.030  1.5246  1.6597  3.7590
  487MOL0     H65679   9.071   7.859   0.971  1.6295  4.0327 -4.3535
  487MOL0     H65680   9.078   8.092   0.881 -0.5567  0.4286  1.2493
  487MOL0     H65681   9.159   8.066   1.032 -0.2129  3.0236  0.7649
  487MOL0     H65682   9.246   8.281   0.826 -3.2888 -0.4353 -0.5545
  487MOL0     H65683   9.313   8.259   0.984  0.9391 -0.5479 -0.0692
  487MOL0     H65684   9.088   8.298   1.084 -0.5377 -1.4467 -1.0121
  487MOL0     H65685   9.033   8.351   0.921 -0.0583  0.5147 -1.3062
  487MOL0     H65686   9.166   8.526   0.894 -1.4726  0.2242  0.0459
  487MOL0     H65687   9.090   8.546   1.034  0.1861 -0.1247  1.4246
  487MOL0     H65688   9.312   8.464   1.156 -0.2559 -1.7744 -0.5780
  487MOL0     H65689   9.383   8.460   1.001  2.4229  0.6614  0.4573
  487MOL0     H65690   9.340   8.720   0.982 -0.5456  0.2643 -0.6406
  487MOL0     H65691   9.257   8.716   1.139  2.9611  2.3469  2.6134
  487MOL0     H65692   9.450   8.648   1.257  0.3467  0.1592 -0.0173
  487MOL0     H65693   9.475   8.804   1.190 -1.6664 -0.0524 -1.5542
  487MOL0     H65694   9.571   8.550   1.056 -1.7316 -0.5223  3.1909
  487MOL0     H65695   9.634   8.716   1.015  2.0271 -0.1144  1.4845
  487MOL0     H65696   9.707   8.812   1.304  0.4642 -0.0972  1.8755
  487MOL0     H65697   9.945   8.794   1.470 -1.6293  0.5069  1.5551
  487MOL0     H65698   9.866   8.654   1.553 -1.2311 -0.0165 -0.9144
  487MOL0     H65699  10.110   8.611   1.562 -1.1173  0.8167  0.0913
  487MOL0     H65700  10.062   8.518   1.434  0.1723 -1.1800  3.2742
  487MOL0     H65701  10.179   8.797   1.391 -2.1679  1.5461 -2.3674
  487MOL0     H65702  10.141   8.683   1.258  1.3885  2.1942 -0.7956
  487MOL0     H65703  10.291   8.512   1.348 -0.0236 -0.9088  0.8896
  487MOL0     H65704  10.335   8.610   1.483  0.9042 -1.9940 -1.0602
  487MOL0     H65705  10.603   8.781   1.175 -1.6278  1.7768 -0.2198
  487MOL0     H65706  10.652   8.781   0.935  1.1828 -1.6216  0.7434
  487MOL0     H65707  10.624   8.403   0.812 -0.7608  2.2912  0.5950
  487MOL0     H65708  10.654   8.166   0.754  0.3481  1.3295  2.5029
  487MOL0     H65709  10.307   7.981   0.603  0.0391  1.7727 -2.4744
  487MOL0     H65710  10.403   7.950   0.461  0.2407 -0.8960 -0.6406
  487MOL0     H65711  10.518   7.755   0.559 -0.4803 -0.4092 -2.1090
  487MOL0     H65712  10.395   7.774   0.700  0.9025  2.6745  0.4580
  487MOL0     H65713  10.349   7.707   0.405 -2.6512 -3.0000 -0.9663
  487MOL0     H65714  10.375   7.593   0.534  0.5193  0.5870  2.2176
  487MOL0     H65715  10.156   7.819   0.499 -1.5896  0.9706  1.2213
  487MOL0     H65716  10.167   7.738   0.646 -0.2935 -3.0673 -0.8306
  487MOL0     H65717  10.133   7.582   0.400  1.5123 -1.4900  2.1810
  487MOL0     H65718   9.998   7.674   0.476 -1.6406 -2.2146  0.9613
  487MOL0     H65719  10.007   7.428   0.534 -0.4781  0.5868  0.4119
  487MOL0     H65720  10.164   7.453   0.613 -1.2137 -1.8481  0.9811
  487MOL0     H65721   9.882   7.549   0.666 -1.8145 -3.5537  1.4624
  487MOL0     H65722  10.029   7.619   0.749  0.8601 -1.3684  0.9915
  487MOL0     H65723  10.091   7.400   0.842 -0.3131  0.8300  1.6187
  487MOL0     H65724   9.944   7.482   0.905  0.4842 -0.8937  1.4884
  487MOL0     H65725  10.317   8.199   0.482  1.2296 -3.7443 -0.2026
  487MOL0     H65726  10.309   8.414   0.520 -1.2268 -1.5577  0.6284
  487MOL0     H65727  10.292   8.550   0.879 -0.0031  0.5644 -1.0706
  487MOL0     H65728  10.235   8.566   1.107  3.0480 -2.7225  0.1732
  487MOL0     H65729   9.454   7.848   0.797 -0.3843 -0.9969 -0.6370
  487MOL0     H65730   9.476   7.599   0.860 -1.1155 -1.1772  1.0194
  487MOL0     H65731   9.382   7.269   1.289  1.8113  0.6436 -1.4089
  487MOL0     H65732   9.400   7.023   1.320 -0.8204 -0.1779 -0.3905
  487MOL0     H65733   9.371   6.809   1.347 -1.2136  1.1427 -1.0332
  487MOL0     H65734   9.513   6.775   1.243  0.2237  1.1774  0.1352
  487MOL0     H65735   9.420   6.588   1.157  1.0161  0.6425  0.4934
  487MOL0     H65736   9.258   6.610   1.251 -0.0743 -0.0721 -1.9548
  487MOL0     H65737   9.378   6.550   1.464  1.1776 -2.3223  0.4915
  487MOL0     H65738   9.529   6.579   1.396  0.8648 -1.6382  0.4175
  487MOL0     H65739   9.485   6.382   1.233 -0.9549  1.5967  0.1164
  487MOL0     H65740   9.513   6.349   1.408 -2.6710  0.2308  2.5341
  487MOL0     H65741   9.097   6.257   1.371 -1.6018  2.3349  1.4939
  487MOL0     H65742   9.260   6.959   0.915 -1.6359  0.9698 -0.8601
  487MOL0     H65743   9.167   7.135   0.785  0.3709  1.7770 -1.6341
  487MOL0     H65744   9.186   7.292   0.839 -1.2785 -1.0190 -0.7637
  487MOL0     H65745   9.322   7.213   0.765 -0.8052  0.7242 -2.2741
  488MOL0     O65746   9.574   2.096   1.226 -0.4716  0.5056 -0.2277
  488MOL0     C65747   9.587   2.140   1.343  0.6400 -0.1780  0.6276
  488MOL0     O65748   9.546   2.272   1.371 -1.0558 -0.2381  0.3236
  488MOL0     C65749   9.548   2.364   1.271  0.1764 -0.0442 -1.4610
  488MOL0     C65750   9.444   2.362   1.185  0.1942  0.6499  0.0728
  488MOL0     C65751   9.443   2.454   1.074  0.3377 -0.0172 -0.1768
  488MOL0     C65752   9.542   2.544   1.057 -0.5380  0.6844 -0.5629
  488MOL0     O65753   9.532   2.637   0.961  0.2334  0.3492 -1.0243
  488MOL0     C65754   9.608   2.596   0.849 -0.3634  0.2232 -0.6465
  488MOL0     C65755   9.528   2.633   0.719 -0.2991  0.8048  0.4909
  488MOL0     C65756   9.612   2.593   0.592  0.1108 -1.0414 -0.2380
  488MOL0     C65757   9.667   2.452   0.573  0.0381 -0.3147  0.2714
  488MOL0     C65758   9.548   2.349   0.550  0.1149 -0.4355  0.9243
  488MOL0     C65759   9.581   2.211   0.487 -0.1577  0.9891 -0.9677
  488MOL0     C65760   9.441   2.144   0.445  0.3800  0.0468  1.0232
  488MOL0     C65761   9.451   1.995   0.402  0.9912  1.5380  0.3896
  488MOL0     N65762   9.558   1.963   0.306 -0.3920 -0.0225 -0.4624
  488MOL0     C65763   9.691   1.983   0.320 -0.1149  0.1056 -0.2434
  488MOL0     C65764   9.752   1.930   0.213  0.0212  0.0827  1.2180
  488MOL0     C65765   9.899   1.928   0.186  0.4443  0.5005 -0.6281
  488MOL0     C65766   9.970   2.070   0.196  0.6975 -0.4679 -1.1937
  488MOL0     C65767  10.113   2.066   0.158  0.2330  0.7975  0.3792
  488MOL0     C65768  10.170   2.206   0.167  0.5972 -0.4628 -0.2488
  488MOL0     O65769  10.102   2.294   0.081 -0.1572  0.2772  0.8888
  488MOL0     C65770  10.135   2.322  -0.047 -1.0020  0.0795  0.0789
  488MOL0     C65771  10.046   2.391  -0.133  0.5582 -0.4754 -0.2704
  488MOL0     C65772  10.074   2.418  -0.270 -0.4565 -0.2575  0.8101
  488MOL0     C65773  10.197   2.374  -0.331  0.0986 -0.1475  0.4754
  488MOL0     C65774  10.221   2.405  -0.474  0.1309  0.2855  0.3761
  488MOL0     O65775  10.353   2.389  -0.516 -0.4305  0.4585  0.8055
  488MOL0     C65776  10.394   2.384  -0.646 -0.4857  0.3669  0.7221
  488MOL0     C65777  10.343   2.465  -0.752 -1.4341 -0.6982  0.2531
  488MOL0     C65778  10.419   2.467  -0.874 -0.1179  0.0373  0.1452
  488MOL0     C65779  10.536   2.383  -0.895  0.8975 -0.4650 -0.7911
  488MOL0     O65780  10.611   2.371  -1.013  0.0640  0.5699 -0.1030
  488MOL0     C65781  10.564   2.434  -1.131 -0.6442 -0.4008  0.1071
  488MOL0     C65782  10.650   2.389  -1.254  0.5303  0.0950  0.5138
  488MOL0     C65783  10.794   2.422  -1.240 -0.3700  0.0581  0.0818
  488MOL0     C65784  10.868   2.411  -1.368 -0.6201 -0.0759 -0.6894
  488MOL0     C65785  11.014   2.464  -1.373 -0.3740  0.1929 -1.0344
  488MOL0     C65786  11.122   2.368  -1.319  0.6466  0.7688 -0.4506
  488MOL0     C65787  11.262   2.413  -1.361 -0.0859 -0.1922 -1.0175
  488MOL0     C65788  11.314   2.356  -1.496  0.1797  0.2575  0.6189
  488MOL0    Cl65789  11.338   2.182  -1.475 -0.0083 -0.3102 -0.1912
  488MOL0     C65790  10.570   2.300  -0.780 -0.0222  0.7286 -0.4768
  488MOL0     C65791  10.501   2.303  -0.665 -0.6754 -0.3765 -0.5460
  488MOL0     O65792  10.122   2.421  -0.549  0.3605 -0.2078  0.0037
  488MOL0     C65793  10.287   2.309  -0.251  0.1352 -0.5570 -0.3218
  488MOL0     C65794  10.259   2.290  -0.109 -0.1943  0.1061 -0.1393
  488MOL0     N65795   9.657   1.892   0.120  0.0713  0.9365 -0.0188
  488MOL0     N65796   9.538   1.907   0.179 -0.2014  0.9543 -0.4103
  488MOL0     C65797   9.637   2.555   1.157 -0.6323 -0.6769 -0.7876
  488MOL0     C65798   9.640   2.468   1.266 -0.1073  0.1176 -0.2778
  488MOL0     C65799   9.631   2.043   1.443  0.5809 -0.4515 -0.3614
  488MOL0     C65800   9.642   2.090   1.578 -0.1622  0.3813 -0.4752
  488MOL0     C65801   9.673   2.003   1.681 -0.5097 -0.3667 -0.8978
  488MOL0     C65802   9.691   1.865   1.673 -0.7234 -0.9319 -0.6962
  488MOL0     O65803   9.715   1.786   1.787  0.6920  0.2318  0.5189
  488MOL0     C65804   9.783   1.657   1.778  0.0005 -0.2051  0.1165
  488MOL0     C65805   9.822   1.607   1.915 -1.1348  0.4534 -0.6201
  488MOL0     C65806   9.708   1.617   2.012  0.1579  0.5487  0.2609
  488MOL0     C65807   9.744   1.537   2.127  0.7088  1.4101 -0.8324
  488MOL0     C65808   9.835   1.602   2.211 -0.7047 -1.0433 -1.0053
  488MOL0     C65809   9.921   1.665   2.280  1.2312 -0.3770 -0.5167
  488MOL0     C65810   9.691   1.826   1.541 -0.8626 -0.3572  1.3956
  488MOL0     C65811   9.663   1.903   1.422 -0.2437  0.6185  0.0801
  488MOL0     C65812   9.646   1.835   1.294 -0.4912 -0.3811  0.8919
  488MOL0     H65813   9.372   2.283   1.202  0.7078  0.7773  3.4835
  488MOL0     H65814   9.358   2.451   1.007 -0.5527  4.4334  0.4747
  488MOL0     H65815   9.704   2.648   0.859 -0.2273 -0.3645  1.3698
  488MOL0     H65816   9.627   2.489   0.852 -2.6749 -0.2092  0.0818
  488MOL0     H65817   9.513   2.741   0.713  3.1802  1.6674  3.6199
  488MOL0     H65818   9.426   2.595   0.727 -1.0070  2.5393  0.2817
  488MOL0     H65819   9.706   2.649   0.592 -0.3156 -0.2930 -2.0603
  488MOL0     H65820   9.549   2.614   0.506 -4.3565 -1.1561  2.7114
  488MOL0     H65821   9.748   2.424   0.505  2.6517  0.5641  2.8513
  488MOL0     H65822   9.726   2.422   0.660 -0.1463 -0.7643  0.2482
  488MOL0     H65823   9.493   2.336   0.643  0.6561  1.7569  1.6008
  488MOL0     H65824   9.475   2.397   0.484 -0.3910 -1.3496  0.8096
  488MOL0     H65825   9.648   2.217   0.400  0.5058 -1.2962 -0.6929
  488MOL0     H65826   9.634   2.153   0.563 -1.3000 -0.8147 -1.4901
  488MOL0     H65827   9.409   2.212   0.366  0.2453 -2.3405 -1.1417
  488MOL0     H65828   9.371   2.150   0.529  0.1862 -2.5818  1.1602
  488MOL0     H65829   9.475   1.923   0.481 -2.4979 -2.0899 -1.5118
  488MOL0     H65830   9.361   1.958   0.352  0.7766 -2.5231  3.2832
  488MOL0     H65831   9.738   2.033   0.404 -2.0743 -0.5362  1.3220
  488MOL0     H65832   9.943   1.850   0.250 -3.2503 -1.2393  0.0660
  488MOL0     H65833   9.915   1.899   0.081  2.7434  3.9804 -1.4248
  488MOL0     H65834   9.914   2.134   0.127  0.8435 -0.3164 -1.1708
  488MOL0     H65835   9.963   2.108   0.299 -0.5085  0.1461 -1.4782
  488MOL0     H65836  10.125   2.023   0.059 -0.6515  1.5506 -0.0701
  488MOL0     H65837  10.177   2.006   0.223 -0.4723 -0.8663 -0.4159
  488MOL0     H65838  10.277   2.200   0.145  0.3827 -2.5166 -0.9941
  488MOL0     H65839  10.180   2.239   0.271 -1.0159  0.0820 -0.2327
  488MOL0     H65840   9.954   2.431  -0.092  1.4081  2.1685 -0.7466
  488MOL0     H65841  10.006   2.483  -0.325  0.4551 -1.1109 -1.4325
  488MOL0     H65842  10.256   2.529  -0.744 -1.2869  0.1397 -3.2600
  488MOL0     H65843  10.387   2.530  -0.956  0.2683  0.6051  0.4183
  488MOL0     H65844  10.458   2.411  -1.148  0.1034 -4.2080 -0.4330
  488MOL0     H65845  10.576   2.542  -1.142 -3.0977  0.0690  1.2739
  488MOL0     H65846  10.632   2.281  -1.260 -1.1245  0.2163  2.2950
  488MOL0     H65847  10.618   2.435  -1.348  1.6228  1.1521  0.6419
  488MOL0     H65848  10.793   2.523  -1.198 -1.4587  0.2669 -0.4111
  488MOL0     H65849  10.830   2.344  -1.172 -1.2282 -2.6523 -2.4003
  488MOL0     H65850  10.814   2.463  -1.448  0.1504 -3.1592 -3.4296
  488MOL0     H65851  10.849   2.309  -1.403 -0.8732  0.9342 -3.8064
  488MOL0     H65852  11.015   2.559  -1.319 -1.9232 -0.1487 -0.3529
  488MOL0     H65853  11.051   2.499  -1.470 -2.4105 -0.1169 -1.9649
  488MOL0     H65854  11.115   2.347  -1.211  0.7129  1.1913 -0.3608
  488MOL0     H65855  11.092   2.274  -1.366 -0.0917  0.8079 -0.0771
  488MOL0     H65856  11.338   2.384  -1.288  2.1185 -0.3455 -3.2448
  488MOL0     H65857  11.261   2.520  -1.383  1.9162 -0.4129 -2.5394
  488MOL0     H65858  11.239   2.396  -1.564  0.0212 -0.9862  0.0416
  488MOL0     H65859  11.401   2.410  -1.536 -0.0548  0.3551  0.2391
  488MOL0     H65860  10.663   2.245  -0.786  1.1691  2.8136 -2.4962
  488MOL0     H65861  10.530   2.247  -0.577 -1.6353 -0.3085 -0.1787
  488MOL0     H65862  10.389   2.285  -0.277 -0.0307 -1.6878 -0.0209
  488MOL0     H65863  10.346   2.252  -0.057  1.3786  0.5343 -2.3582
  488MOL0     H65864   9.720   2.625   1.159 -0.9858 -0.2003  2.2092
  488MOL0     H65865   9.712   2.487   1.344 -0.0699 -2.1205  0.3240
  488MOL0     H65866   9.647   2.195   1.604  1.2207 -0.5007  3.4746
  488MOL0     H65867   9.700   2.041   1.779  0.2535 -2.0140 -0.4423
  488MOL0     H65868   9.875   1.661   1.721  0.9227  0.5523  1.5921
  488MOL0     H65869   9.728   1.582   1.720  1.7229  1.0489 -3.4433
  488MOL0     H65870   9.909   1.659   1.955 -2.1443  0.4020  1.8444
  488MOL0     H65871   9.844   1.503   1.889 -0.0471  1.2065 -2.9755
  488MOL0     H65872   9.615   1.575   1.971 -0.5200 -0.5267  2.7389
  488MOL0     H65873   9.687   1.717   2.051 -0.1115 -1.1993  5.2728
  488MOL0     H65874   9.651   1.523   2.183  0.9524 -0.2656 -0.7913
  488MOL0     H65875   9.775   1.437   2.095 -0.3015  0.7636  0.0897
  488MOL0     H65876   9.983   1.722   2.347  1.5092 -1.3576  0.0874
  488MOL0     H65877   9.719   1.723   1.524  3.4614  0.9407 -0.7509
  488MOL0     H65878   9.683   1.898   1.212  0.3132 -2.2808 -0.2671
  488MOL0     H65879   9.709   1.746   1.291 -0.8380 -0.6054 -0.2809
  488MOL0     H65880   9.538   1.813   1.291 -0.2344 -2.2957  3.2246
  489MOL0     O65881   2.208   3.671   6.363 -0.3115  0.2913  0.5089
  489MOL0     C65882   2.171   3.688   6.248 -0.1898  0.9286  0.3341
  489MOL0     O65883   2.191   3.799   6.173  0.3380  1.3337 -0.8041
  489MOL0     C65884   2.294   3.888   6.204  0.8620  0.5029 -0.4536
  489MOL0     C65885   2.327   3.929   6.333 -0.2683 -0.1735 -0.5978
  489MOL0     C65886   2.428   4.028   6.350  0.6677  0.8233  0.4099
  489MOL0     C65887   2.496   4.073   6.239 -0.8921  0.4783 -0.7795
  489MOL0     O65888   2.612   4.155   6.240  0.4389 -0.0179 -0.0593
  489MOL0     C65889   2.618   4.252   6.351  0.2214  0.6984  0.1010
  489MOL0     C65890   2.507   4.359   6.332  1.2552  0.5785 -0.1017
  489MOL0     C65891   2.551   4.479   6.233 -0.0120 -0.0056 -0.1452
  489MOL0     C65892   2.665   4.573   6.287  0.9721  0.6844 -0.8959
  489MOL0     C65893   2.677   4.684   6.179  0.1095 -0.8704  0.4082
  489MOL0     C65894   2.742   4.640   6.050 -0.5180  0.1473 -0.4115
  489MOL0     C65895   2.774   4.765   5.960  0.0725  0.4485  0.0820
  489MOL0     C65896   2.863   4.716   5.841 -0.0836  0.1892 -0.0959
  489MOL0     N65897   2.908   4.829   5.760  0.6017 -0.1217 -0.6218
  489MOL0     C65898   2.854   4.860   5.636 -0.3311 -0.7309 -0.7188
  489MOL0     C65899   2.901   4.982   5.618  0.3668  0.4496  0.9455
  489MOL0     C65900   2.892   5.072   5.499 -0.1459 -0.1718  0.0438
  489MOL0     C65901   2.752   5.064   5.451  0.6652 -0.7995  0.7046
  489MOL0     C65902   2.647   5.134   5.533 -0.1654 -0.2312 -1.6406
  489MOL0     C65903   2.595   5.249   5.446 -0.0183 -0.0100 -0.4177
  489MOL0     O65904   2.700   5.355   5.425  0.6678 -0.2497 -0.3374
  489MOL0     C65905   2.682   5.410   5.299 -0.7796 -0.2723 -0.3295
  489MOL0     C65906   2.613   5.523   5.296  0.7239 -0.1608  0.2299
  489MOL0     C65907   2.587   5.587   5.170 -0.3504  0.1122  0.9700
  489MOL0     C65908   2.624   5.532   5.050  1.0737 -0.2848  1.0582
  489MOL0     C65909   2.587   5.595   4.925 -0.6836 -0.9420 -0.6223
  489MOL0     O65910   2.536   5.720   4.935 -0.1146  0.1753 -0.3661
  489MOL0     C65911   2.519   5.802   4.828  0.7292  0.4140 -0.0463
  489MOL0     C65912   2.492   5.761   4.696  0.5933  1.1237  0.6701
  489MOL0     C65913   2.484   5.842   4.578 -0.2523  0.4214 -0.3891
  489MOL0     C65914   2.513   5.975   4.599  0.6077  0.0678 -0.2366
  489MOL0     O65915   2.533   6.062   4.496 -0.0107  0.0906  0.2039
  489MOL0     C65916   2.456   6.044   4.386  0.6197  0.0321 -0.7278
  489MOL0     C65917   2.493   6.140   4.273 -0.0667 -0.4973  0.2685
  489MOL0     C65918   2.391   6.116   4.149  0.7725 -0.6651 -0.7649
  489MOL0     C65919   2.373   6.245   4.074 -0.4442  0.7108 -0.1682
  489MOL0     C65920   2.267   6.225   3.969  1.0977  0.2933  0.1237
  489MOL0     C65921   2.244   6.355   3.891 -0.3064 -0.5794  0.8757
  489MOL0     C65922   2.107   6.344   3.811 -0.2699 -0.2826  0.3256
  489MOL0     C65923   2.107   6.444   3.702 -0.3069 -0.6621  0.2374
  489MOL0    Cl65924   1.965   6.401   3.613  0.0777  0.5536  0.2110
  489MOL0     C65925   2.524   6.030   4.731 -0.2303 -0.4062  0.0410
  489MOL0     C65926   2.517   5.935   4.839  0.4257 -0.4250 -0.1295
  489MOL0     O65927   2.634   5.550   4.818 -0.2977 -0.1179  0.2898
  489MOL0     C65928   2.704   5.421   5.056 -0.1231  0.5969 -0.9256
  489MOL0     C65929   2.730   5.358   5.178 -0.0199 -0.3356 -0.3537
  489MOL0     N65930   2.975   5.029   5.723 -0.1480  0.4331  0.6038
  489MOL0     N65931   2.979   4.935   5.804 -0.2785  0.6596  0.6490
  489MOL0     C65932   2.462   4.032   6.110 -0.2999 -0.4250  0.9098
  489MOL0     C65933   2.350   3.952   6.093 -0.7327 -0.1680 -0.3671
  489MOL0     C65934   2.085   3.589   6.169  1.0441 -0.3553  0.2916
  489MOL0     C65935   2.074   3.606   6.027  0.1019  0.9833 -0.8687
  489MOL0     C65936   1.994   3.517   5.952  0.3542  0.0560 -0.5580
  489MOL0     C65937   1.931   3.413   6.011  0.6409  0.8496  0.1184
  489MOL0     O65938   1.852   3.334   5.931  0.3003  0.1767  0.4756
  489MOL0     C65939   1.717   3.357   5.955 -0.0895  0.2565  0.4662
  489MOL0     C65940   1.636   3.237   5.903  0.7450  0.4073 -0.2852
  489MOL0     C65941   1.481   3.265   5.913 -0.9477  0.8366  0.6539
  489MOL0     C65942   1.392   3.152   5.870 -0.5852  0.9980  1.9460
  489MOL0     C65943   1.249   3.171   5.880  0.7038 -0.3047  0.4092
  489MOL0     C65944   1.134   3.181   5.909  0.6858  0.2390 -0.0784
  489MOL0     C65945   1.950   3.392   6.149  0.2447 -0.6818  0.1918
  489MOL0     C65946   2.019   3.480   6.222 -0.0175 -0.4512 -0.3605
  489MOL0     C65947   2.027   3.448   6.367 -0.3462  0.0606 -0.2415
  489MOL0     H65948   2.265   3.891   6.414  2.6906 -0.1112  1.8596
  489MOL0     H65949   2.439   4.054   6.455 -1.0115 -1.7528  1.3245
  489MOL0     H65950   2.614   4.198   6.445 -1.1137  2.6431  1.2492
  489MOL0     H65951   2.715   4.303   6.351  0.2102  0.7242 -0.3516
  489MOL0     H65952   2.477   4.395   6.431  0.7502  0.8180 -0.3422
  489MOL0     H65953   2.414   4.308   6.307  1.8703 -0.6160 -0.0438
  489MOL0     H65954   2.466   4.548   6.224 -0.1509 -0.2103 -0.3907
  489MOL0     H65955   2.577   4.427   6.141 -1.4900  0.3155 -0.7845
  489MOL0     H65956   2.658   4.589   6.395 -1.9696 -1.5175 -0.6401
  489MOL0     H65957   2.761   4.523   6.287  0.9169  0.4667 -2.9798
  489MOL0     H65958   2.583   4.739   6.163 -0.3268 -0.7561  2.9139
  489MOL0     H65959   2.734   4.755   6.240 -2.0675 -1.3844  3.2962
  489MOL0     H65960   2.833   4.585   6.073  0.8167  3.5750  3.9670
  489MOL0     H65961   2.678   4.585   5.981 -0.2390  0.8544 -1.2551
  489MOL0     H65962   2.840   4.828   6.020  2.3854  0.2324 -2.0583
  489MOL0     H65963   2.682   4.816   5.931 -2.8138 -1.8379  4.1724
  489MOL0     H65964   2.953   4.671   5.883 -0.8221 -1.8545 -0.5569
  489MOL0     H65965   2.821   4.630   5.788  1.9939 -0.2335 -1.1567
  489MOL0     H65966   2.790   4.794   5.579  1.0298 -0.7287 -2.3448
  489MOL0     H65967   2.905   5.178   5.525 -2.2608 -0.1734  1.3870
  489MOL0     H65968   2.964   5.040   5.423  1.0712 -0.5033  1.3056
  489MOL0     H65969   2.756   5.093   5.345 -0.8281 -2.6041  0.1019
  489MOL0     H65970   2.730   4.957   5.454 -0.0602 -0.6481  1.1083
  489MOL0     H65971   2.678   5.174   5.630 -0.0825 -4.2128  0.1724
  489MOL0     H65972   2.560   5.069   5.550  0.0215  0.3531  2.5309
  489MOL0     H65973   2.504   5.281   5.497 -1.5999 -4.3612 -0.0622
  489MOL0     H65974   2.561   5.207   5.351  0.9262  1.2707 -1.3589
  489MOL0     H65975   2.566   5.561   5.386  1.1525  1.4391 -0.1878
  489MOL0     H65976   2.532   5.680   5.178 -2.4342 -1.1072  1.9016
  489MOL0     H65977   2.473   5.656   4.676 -2.2914  1.6787 -0.0308
  489MOL0     H65978   2.469   5.800   4.478 -0.6446  2.7336 -1.3763
  489MOL0     H65979   2.456   5.951   4.329  0.2063  1.8275 -3.9055
  489MOL0     H65980   2.352   6.070   4.406  0.2838  0.0821 -2.3924
  489MOL0     H65981   2.475   6.233   4.328 -1.9783 -0.0710 -0.9875
  489MOL0     H65982   2.597   6.123   4.246  0.5472 -2.8324  3.5278
  489MOL0     H65983   2.421   6.045   4.072 -0.6265 -0.6985 -1.3140
  489MOL0     H65984   2.296   6.085   4.194  0.7258  0.0277 -0.3750
  489MOL0     H65985   2.470   6.259   4.026  0.3101  0.0191  1.0990
  489MOL0     H65986   2.347   6.320   4.149 -0.3264 -1.2448  1.9192
  489MOL0     H65987   2.169   6.196   4.008  1.5987  2.0681  2.9947
  489MOL0     H65988   2.313   6.148   3.907  1.7480 -2.7008  3.9315
  489MOL0     H65989   2.241   6.436   3.963 -2.7333 -0.4405  0.6831
  489MOL0     H65990   2.331   6.370   3.825  0.1189 -2.4997  0.9210
  489MOL0     H65991   2.026   6.359   3.883 -0.6804 -0.1278 -0.1647
  489MOL0     H65992   2.096   6.241   3.775 -2.9005  0.5838 -1.6788
  489MOL0     H65993   2.093   6.547   3.736  1.9397  0.3769 -1.7100
  489MOL0     H65994   2.196   6.452   3.640 -0.2766  1.4392  0.4791
  489MOL0     H65995   2.530   6.138   4.738 -1.4802 -0.0940 -2.5160
  489MOL0     H65996   2.531   5.966   4.942 -1.3748  1.1884 -0.3282
  489MOL0     H65997   2.739   5.372   4.965  0.7058 -2.1517  0.7471
  489MOL0     H65998   2.791   5.268   5.187 -2.2815 -1.9370 -0.2266
  489MOL0     H65999   2.531   4.065   6.033 -0.8718  1.2913  1.1056
  489MOL0     H66000   2.303   3.918   6.001 -3.7386  0.1276  0.9731
  489MOL0     H66001   2.130   3.688   5.983 -1.1221  3.4833  1.8922
  489MOL0     H66002   1.988   3.546   5.848  1.5830  1.6911 -0.2156
  489MOL0     H66003   1.711   3.451   5.900  4.5688 -0.0074 -0.9418
  489MOL0     H66004   1.696   3.362   6.062  0.8569  1.7187  0.6140
  489MOL0     H66005   1.660   3.152   5.968  1.6535  0.3755 -0.6568
  489MOL0     H66006   1.668   3.220   5.800  0.8248  3.7060 -0.9135
  489MOL0     H66007   1.476   3.348   5.842 -1.5726  0.2377 -0.0197
  489MOL0     H66008   1.454   3.300   6.013  1.9719 -0.8368  2.1460
  489MOL0     H66009   1.406   3.132   5.764  3.5254 -1.8181  2.7732
  489MOL0     H66010   1.435   3.068   5.926  2.8556 -0.4357 -2.2795
  489MOL0     H66011   1.027   3.178   5.913  0.7372 -1.2866  1.6317
  489MOL0     H66012   1.897   3.310   6.197  1.8537 -1.5334  0.5550
  489MOL0     H66013   2.130   3.450   6.405 -1.3652  1.7886  2.8037
  489MOL0     H66014   1.967   3.512   6.432  2.1986  2.2232  0.1462
  489MOL0     H66015   1.988   3.347   6.383 -2.7245  0.7184 -1.3923
  490MOL0     O66016   3.691   2.360   8.912 -0.1797  0.1162 -0.4713
  490MOL0     C66017   3.790   2.379   8.974 -0.1862 -0.7838  0.2292
  490MOL0     O66018   3.854   2.499   8.976 -1.1669 -0.5988  0.0328
  490MOL0     C66019   3.813   2.611   8.903  0.1682 -0.3484  1.1418
  490MOL0     C66020   3.902   2.670   8.809  0.0816  0.0953  1.1743
  490MOL0     C66021   3.852   2.773   8.729 -0.2280 -0.8535 -0.2114
  490MOL0     C66022   3.727   2.838   8.739 -0.3529 -0.2220  0.0627
  490MOL0     O66023   3.672   2.931   8.656  0.0720  0.5676  0.3552
  490MOL0     C66024   3.760   3.043   8.612 -0.1653  0.2582 -0.3181
  490MOL0     C66025   3.855   3.113   8.713 -0.2865 -0.3662 -0.7679
  490MOL0     C66026   3.949   3.217   8.663 -0.7160  0.4405  0.4446
  490MOL0     C66027   4.084   3.213   8.727 -1.4872  0.4719  0.5886
  490MOL0     C66028   4.172   3.085   8.723  1.4689 -0.5921 -0.0063
  490MOL0     C66029   4.193   3.031   8.584  0.6445  0.3625 -0.4576
  490MOL0     C66030   4.262   2.898   8.594  0.5774 -0.4028  0.2977
  490MOL0     C66031   4.318   2.873   8.457 -0.5519 -0.1197 -1.6753
  490MOL0     N66032   4.402   2.753   8.464  0.3903  0.0079 -0.6603
  490MOL0     C66033   4.365   2.628   8.508  0.7454 -0.8030 -0.6484
  490MOL0     C66034   4.479   2.552   8.510 -0.3080 -0.1370  0.6805
  490MOL0     C66035   4.492   2.407   8.546  0.6770 -0.4652  0.1851
  490MOL0     C66036   4.574   2.334   8.448 -0.2383  0.0914  0.7089
  490MOL0     C66037   4.511   2.316   8.305 -0.2906 -0.8564  0.1415
  490MOL0     C66038   4.602   2.370   8.192  0.4389 -0.0997 -0.0409
  490MOL0     O66039   4.543   2.335   8.064 -0.6894  0.4863  0.1062
  490MOL0     C66040   4.636   2.294   7.971 -0.4818  1.0616  0.0300
  490MOL0     C66041   4.730   2.189   7.999  0.8737  0.1818 -0.1096
  490MOL0     C66042   4.813   2.137   7.901 -0.1875  0.3929  0.0680
  490MOL0     C66043   4.835   2.219   7.787 -0.4388 -0.0165  0.1564
  490MOL0     C66044   4.941   2.185   7.693 -0.0060  0.1657 -0.1739
  490MOL0     O66045   4.925   2.229   7.563  0.1128  0.1101  0.8182
  490MOL0     C66046   5.024   2.206   7.468  0.6704  0.0172 -0.4698
  490MOL0     C66047   5.097   2.088   7.454 -0.5753 -0.3983 -0.0103
  490MOL0     C66048   5.195   2.067   7.350  0.0993 -0.7703  0.8929
  490MOL0     C66049   5.232   2.173   7.271  0.3556  0.6028  0.1056
  490MOL0     O66050   5.333   2.148   7.180  0.5769 -0.2173 -0.0256
  490MOL0     C66051   5.349   2.247   7.074 -0.3428  0.4234  0.3623
  490MOL0     C66052   5.451   2.196   6.975  0.1183 -0.3318  1.0762
  490MOL0     C66053   5.379   2.091   6.887  0.3391 -0.2730 -0.7197
  490MOL0     C66054   5.326   2.136   6.760 -0.5670 -0.9144  0.1309
  490MOL0     C66055   5.232   2.044   6.702  0.4417  0.5363  0.0483
  490MOL0     C66056   5.093   2.036   6.757  0.0377 -1.4662  1.1153
  490MOL0     C66057   5.029   1.904   6.720  0.0581  0.6240 -0.5773
  490MOL0     C66058   4.879   1.908   6.761  0.2205  0.2120 -0.5988
  490MOL0    Cl66059   4.810   1.744   6.766  0.0669  0.1599 -0.1256
  490MOL0     C66060   5.155   2.290   7.276  0.1800  0.3827 -0.1643
  490MOL0     C66061   5.048   2.297   7.366 -0.7437 -0.6544  0.9617
  490MOL0     O66062   5.035   2.119   7.748 -0.4251  0.5091  0.4910
  490MOL0     C66063   4.749   2.328   7.763  0.5885 -0.1573  0.3045
  490MOL0     C66064   4.646   2.362   7.854  0.5226 -0.1506  0.9902
  490MOL0     N66065   4.583   2.631   8.455  0.1666 -0.1443 -0.7034
  490MOL0     N66066   4.532   2.749   8.439 -0.4025  0.1691 -0.3916
  490MOL0     C66067   3.638   2.768   8.830  0.6762  0.1005  0.2589
  490MOL0     C66068   3.680   2.667   8.915  0.4481  0.0803  0.4085
  490MOL0     C66069   3.852   2.267   9.044 -0.1510  0.4523 -0.5840
  490MOL0     C66070   3.968   2.297   9.127 -0.0761 -0.9686  0.2991
  490MOL0     C66071   4.022   2.200   9.211  0.1178 -0.9806  0.4436
  490MOL0     C66072   3.971   2.075   9.212  1.1649  0.5268 -0.2511
  490MOL0     O66073   4.026   1.977   9.301  0.4168 -0.1659 -0.5267
  490MOL0     C66074   4.022   1.839   9.267 -0.6071  0.8045 -0.3825
  490MOL0     C66075   4.127   1.757   9.335 -0.2737 -0.7299 -0.9747
  490MOL0     C66076   4.209   1.635   9.277  0.5063 -0.0622 -0.6852
  490MOL0     C66077   4.321   1.668   9.187 -0.4350  0.6040  0.0376
  490MOL0     C66078   4.271   1.715   9.058  0.4354 -0.1366  0.2836
  490MOL0     C66079   4.220   1.767   8.960  0.1881 -0.0303  0.3612
  490MOL0     C66080   3.868   2.046   9.132  0.5241 -0.7710 -0.2873
  490MOL0     C66081   3.804   2.133   9.051 -0.1534 -0.9542 -0.2324
  490MOL0     C66082   3.680   2.087   8.983  0.1225 -0.0373  0.6521
  490MOL0     H66083   4.004   2.633   8.813 -0.1944 -0.5776  2.7128
  490MOL0     H66084   3.924   2.815   8.659  1.2535 -1.2373  1.0314
  490MOL0     H66085   3.826   3.006   8.534  1.5203  1.1934  0.6009
  490MOL0     H66086   3.696   3.121   8.569 -2.2560 -1.0269  0.3008
  490MOL0     H66087   3.891   3.041   8.787  0.5643  0.5766 -0.2281
  490MOL0     H66088   3.787   3.171   8.776  0.6664 -0.4449  0.3664
  490MOL0     H66089   3.905   3.316   8.677  0.0839  1.3683 -2.8078
  490MOL0     H66090   3.945   3.200   8.555  0.5861 -1.7627  0.6674
  490MOL0     H66091   4.145   3.295   8.687  1.4658 -0.4344  2.8936
  490MOL0     H66092   4.075   3.227   8.835 -0.5266  0.7554  0.6405
  490MOL0     H66093   4.272   3.106   8.763  1.2315  0.1677  0.1972
  490MOL0     H66094   4.124   3.008   8.784  0.7328 -0.9006 -0.9591
  490MOL0     H66095   4.097   3.021   8.532  1.1948 -5.5913 -1.0284
  490MOL0     H66096   4.254   3.105   8.531  1.7456  0.6722  1.1900
  490MOL0     H66097   4.191   2.822   8.629 -2.2094  1.7883 -0.2236
  490MOL0     H66098   4.327   2.894   8.682  0.7691  0.4938  0.1980
  490MOL0     H66099   4.240   2.861   8.381  0.0022  0.7869 -2.4043
  490MOL0     H66100   4.389   2.954   8.439  1.3989 -1.8738 -2.2212
  490MOL0     H66101   4.270   2.588   8.541  0.9740 -0.9912 -0.2041
  490MOL0     H66102   4.535   2.402   8.646  0.9140  0.2421  0.1238
  490MOL0     H66103   4.394   2.359   8.538  0.2835  0.3451  0.1070
  490MOL0     H66104   4.673   2.380   8.442 -0.3709  0.7239  2.5504
  490MOL0     H66105   4.595   2.235   8.489  2.3619 -0.5093 -1.7807
  490MOL0     H66106   4.425   2.382   8.305 -0.6025 -1.2555 -0.3630
  490MOL0     H66107   4.470   2.216   8.285  1.7303 -1.9566  1.1095
  490MOL0     H66108   4.701   2.325   8.197 -1.1151 -3.9340  0.4507
  490MOL0     H66109   4.603   2.478   8.205  2.1817 -0.1786  0.6771
  490MOL0     H66110   4.724   2.131   8.091  0.5339 -0.4820 -0.5399
  490MOL0     H66111   4.873   2.053   7.935 -1.4679 -0.6212 -0.1251
  490MOL0     H66112   5.088   2.021   7.539  0.8708 -3.1332 -1.8652
  490MOL0     H66113   5.268   1.987   7.348  1.5076  0.4591  0.8419
  490MOL0     H66114   5.253   2.268   7.026 -0.2903  0.4343  0.2622
  490MOL0     H66115   5.383   2.346   7.107  3.2610  0.3536 -2.4896
  490MOL0     H66116   5.486   2.278   6.912 -2.6951  0.4600  0.4224
  490MOL0     H66117   5.531   2.136   7.020  0.0925 -1.8619 -0.7862
  490MOL0     H66118   5.450   2.009   6.871 -0.0170 -1.1237  1.5939
  490MOL0     H66119   5.305   2.036   6.946  1.0126 -1.4548 -0.9438
  490MOL0     H66120   5.416   2.137   6.698 -1.2424 -2.5379 -0.9375
  490MOL0     H66121   5.288   2.239   6.758  2.1304  0.1689  0.1767
  490MOL0     H66122   5.274   1.943   6.707  0.9487  0.5272 -2.6825
  490MOL0     H66123   5.238   2.061   6.594 -0.1137  3.1753  0.3692
  490MOL0     H66124   5.102   2.063   6.863 -1.7426 -0.8432  1.1384
  490MOL0     H66125   5.032   2.115   6.712  0.5507 -1.6016  0.1564
  490MOL0     H66126   5.079   1.829   6.782 -0.1130  1.8218  1.0775
  490MOL0     H66127   5.018   1.878   6.614  0.4308  0.4079 -0.5653
  490MOL0     H66128   4.865   1.966   6.853 -1.3795  0.1542 -0.7823
  490MOL0     H66129   4.828   1.963   6.682  0.7001 -0.8684 -1.6893
  490MOL0     H66130   5.156   2.373   7.207 -3.8889  0.6929 -0.1146
  490MOL0     H66131   4.988   2.388   7.369 -0.5556 -0.2430 -2.6192
  490MOL0     H66132   4.768   2.382   7.670 -3.1183  1.6207  0.4049
  490MOL0     H66133   4.586   2.452   7.844  1.8457  0.7187  0.6460
  490MOL0     H66134   3.534   2.797   8.840 -0.6587 -2.9742 -2.7053
  490MOL0     H66135   3.608   2.636   8.990 -0.4763 -0.5030 -0.6791
  490MOL0     H66136   4.021   2.392   9.124 -2.1626  0.2290 -1.4223
  490MOL0     H66137   4.096   2.228   9.285 -1.5288  1.3694  1.3379
  490MOL0     H66138   4.018   1.821   9.159 -0.9964 -0.5382 -0.1543
  490MOL0     H66139   3.920   1.820   9.301 -1.6701  1.1801 -3.1026
  490MOL0     H66140   4.080   1.721   9.427  3.1424  0.5914  1.5131
  490MOL0     H66141   4.206   1.828   9.364 -0.5780 -0.1085 -1.6353
  490MOL0     H66142   4.141   1.558   9.240 -0.0371  0.4609 -0.7966
  490MOL0     H66143   4.255   1.585   9.363 -1.6343 -0.3523  0.3439
  490MOL0     H66144   4.366   1.761   9.225 -2.5509  0.2957  3.7295
  490MOL0     H66145   4.391   1.585   9.182  0.6131  1.1367  3.2969
  490MOL0     H66146   4.176   1.819   8.878 -0.4015 -1.6211 -0.3754
  490MOL0     H66147   3.828   1.946   9.139  0.5760 -0.9371 -1.8835
  490MOL0     H66148   3.656   1.985   9.017  0.1305  0.0543  0.9342
  490MOL0     H66149   3.592   2.147   9.007 -0.8766 -1.8197  1.6930
  490MOL0     H66150   3.692   2.067   8.876  0.2072 -1.8402  0.9640
  491MOL0     O66151   4.729   9.972   9.027  0.2933 -0.5729 -0.2577
  491MOL0     C66152   4.839   9.921   8.996  0.3016 -0.0920 -0.0642
  491MOL0     O66153   4.936   9.993   8.919 -0.1183  0.1425 -0.4164
  491MOL0     C66154   4.913  10.131   8.907 -0.4499  0.2350  0.0726
  491MOL0     C66155   4.794  10.197   8.858 -0.1378 -0.7886  0.0576
  491MOL0     C66156   4.777  10.340   8.861  0.3938 -1.3550 -0.1771
  491MOL0     C66157   4.886  10.420   8.888 -0.5074  0.6200 -0.5317
  491MOL0     O66158   4.884  10.554   8.884  0.8870 -0.0084  0.3948
  491MOL0     C66159   4.785  10.604   8.788 -0.9433  1.4248 -0.6254
  491MOL0     C66160   4.851  10.731   8.738  0.8613 -0.1434 -0.5193
  491MOL0     C66161   4.931  10.722   8.599  0.6203  0.0087 -0.7460
  491MOL0     C66162   4.897  10.828   8.503  0.7373 -0.0576  0.3655
  491MOL0     C66163   4.785  10.798   8.395 -0.2269  0.5305 -0.1644
  491MOL0     C66164   4.653  10.773   8.465 -0.7825  0.5794  0.5740
  491MOL0     C66165   4.550  10.713   8.371 -0.4133 -0.0047 -0.0235
  491MOL0     C66166   4.432  10.658   8.443 -0.0545  0.8436 -0.4719
  491MOL0     N66167   4.453  10.522   8.486 -0.5729  0.1927 -0.3469
  491MOL0     C66168   4.404  10.408   8.417 -0.0292  0.0059 -0.4590
  491MOL0     C66169   4.455  10.304   8.489  0.6207 -0.3813 -0.1037
  491MOL0     C66170   4.430  10.147   8.473  0.7052 -1.0555 -0.3270
  491MOL0     C66171   4.557  10.068   8.469 -0.2058 -0.0574 -0.8347
  491MOL0     C66172   4.525   9.920   8.484 -0.8048 -1.0635  0.5950
  491MOL0     C66173   4.634   9.833   8.436  0.7166 -0.6318  0.1534
  491MOL0     O66174   4.715   9.809   8.555  0.4797 -0.4048  0.1299
  491MOL0     C66175   4.792   9.697   8.572 -0.5515 -0.7910  0.7135
  491MOL0     C66176   4.878   9.693   8.679 -0.5745 -0.6062  0.9529
  491MOL0     C66177   4.943   9.581   8.706 -0.4493  0.6234 -0.0756
  491MOL0     C66178   4.950   9.471   8.620 -0.6494 -0.5340 -0.8655
  491MOL0     C66179   5.035   9.353   8.642 -0.6636  0.5405  0.3622
  491MOL0     O66180   5.153   9.373   8.709  0.2248 -0.4022  0.3893
  491MOL0     C66181   5.233   9.262   8.735  0.3113  0.4883  0.6606
  491MOL0     C66182   5.290   9.184   8.634  0.5297 -0.3271  0.5720
  491MOL0     C66183   5.382   9.080   8.667 -1.0471 -0.4396 -0.3228
  491MOL0     C66184   5.427   9.060   8.801 -0.0720  0.4956  0.5091
  491MOL0     O66185   5.522   8.967   8.848  0.1570  0.1345  0.4346
  491MOL0     C66186   5.584   8.875   8.750  0.2048 -0.3646 -0.3045
  491MOL0     C66187   5.711   8.838   8.830 -0.2450 -0.5542  0.4886
  491MOL0     C66188   5.817   8.751   8.756  0.6599 -0.2037  0.0744
  491MOL0     C66189   5.777   8.620   8.690  0.8087 -0.3371  0.0387
  491MOL0     C66190   5.814   8.495   8.774 -0.6562  0.6080  0.9172
  491MOL0     C66191   5.960   8.471   8.764 -0.8860 -0.6050  0.5599
  491MOL0     C66192   5.995   8.332   8.814  0.4250  0.1635 -0.2603
  491MOL0     C66193   6.142   8.309   8.813  0.2682  0.1842  0.3211
  491MOL0    Cl66194   6.193   8.144   8.864  0.1556  0.1225 -0.4987
  491MOL0     C66195   5.363   9.137   8.897  1.0189 -0.8809 -0.9699
  491MOL0     C66196   5.274   9.243   8.867  0.6564  0.7874 -0.6401
  491MOL0     O66197   5.004   9.245   8.583 -0.0015 -0.2993  0.0746
  491MOL0     C66198   4.865   9.471   8.507 -0.8447 -0.0379 -0.7705
  491MOL0     C66199   4.782   9.580   8.489  0.8419 -0.1323  0.6032
  491MOL0     N66200   4.536  10.346   8.592  0.1275 -0.2986  0.3547
  491MOL0     N66201   4.546  10.478   8.583  0.0721  0.2772  0.0078
  491MOL0     C66202   4.995  10.363   8.943  0.3102 -0.1868  0.6381
  491MOL0     C66203   5.016  10.222   8.946 -0.5547 -0.1960 -0.1484
  491MOL0     C66204   4.873   9.782   9.047  0.4790 -0.4391  0.5172
  491MOL0     C66205   4.759   9.690   9.062 -0.4686  0.3933 -0.7567
  491MOL0     C66206   4.790   9.564   9.115 -0.6653  0.4455 -0.3107
  491MOL0     C66207   4.922   9.520   9.141  0.8035  0.6335  0.2897
  491MOL0     O66208   4.939   9.389   9.195 -0.5529  0.3457  0.2641
  491MOL0     C66209   4.831   9.307   9.217 -0.2910  0.1863 -0.3346
  491MOL0     C66210   4.870   9.198   9.317  0.4543  0.4298  1.0154
  491MOL0     C66211   4.995   9.128   9.271  0.1407 -0.6260 -0.9246
  491MOL0     C66212   5.020   9.091   9.131  0.6532  0.3107  0.4125
  491MOL0     C66213   4.916   8.981   9.102 -0.1414  0.7247  0.6309
  491MOL0     C66214   4.831   8.891   9.073  0.0067  0.6032  0.7430
  491MOL0     C66215   5.029   9.614   9.125  0.8336  0.1079  0.5009
  491MOL0     C66216   5.000   9.745   9.076  0.0861  0.9329 -0.2790
  491MOL0     C66217   5.118   9.837   9.067 -0.5510 -0.7251  0.0720
  491MOL0     H66218   4.717  10.132   8.816  0.4227 -1.1935 -0.3589
  491MOL0     H66219   4.677  10.374   8.839 -0.2219 -3.1818 -0.3360
  491MOL0     H66220   4.792  10.540   8.700  2.1754 -0.2748  0.7161
  491MOL0     H66221   4.682  10.625   8.819 -0.2832  2.4644  0.9833
  491MOL0     H66222   4.916  10.758   8.822 -0.4087  4.3316 -0.7023
  491MOL0     H66223   4.778  10.811   8.724  3.8324  2.6500 -1.2736
  491MOL0     H66224   4.910  10.620   8.564  2.2347 -1.1234  1.3160
  491MOL0     H66225   5.039  10.723   8.611  0.8277 -1.7918 -1.9649
  491MOL0     H66226   4.888  10.926   8.551 -0.5721 -0.1486  0.3339
  491MOL0     H66227   4.985  10.839   8.439  1.6979  1.4414  1.8523
  491MOL0     H66228   4.764  10.875   8.320 -0.4126  0.8566  0.2210
  491MOL0     H66229   4.815  10.705   8.346 -0.9646  0.3856 -0.3555
  491MOL0     H66230   4.656  10.700   8.547 -1.1318 -2.2249 -1.7266
  491MOL0     H66231   4.616  10.867   8.506  1.5217  1.3201  1.1087
  491MOL0     H66232   4.601  10.636   8.313  1.1202  0.0614  1.1825
  491MOL0     H66233   4.517  10.798   8.311 -3.8876 -1.1084  0.0803
  491MOL0     H66234   4.418  10.728   8.526  1.0449 -1.2157  1.5708
  491MOL0     H66235   4.341  10.670   8.384 -0.2840  2.3373  0.1270
  491MOL0     H66236   4.331  10.398   8.338 -3.8076 -2.5528  2.9468
  491MOL0     H66237   4.364  10.114   8.554  0.6625 -0.6829 -0.2118
  491MOL0     H66238   4.384  10.133   8.375  0.6794 -0.2055 -0.4460
  491MOL0     H66239   4.595  10.091   8.369 -0.8045  1.5988 -0.7096
  491MOL0     H66240   4.630  10.098   8.546 -0.6660  0.4482 -0.5896
  491MOL0     H66241   4.445   9.897   8.412  0.1028  3.8083 -2.4604
  491MOL0     H66242   4.491   9.893   8.584  0.4682 -2.9704  0.5620
  491MOL0     H66243   4.695   9.879   8.358 -1.6183  1.2812 -0.6826
  491MOL0     H66244   4.592   9.738   8.401  0.6558 -1.2427  1.7997
  491MOL0     H66245   4.884   9.776   8.749 -1.2173  0.1362  0.1408
  491MOL0     H66246   5.006   9.573   8.794 -0.0062 -1.6915 -0.5408
  491MOL0     H66247   5.254   9.215   8.536 -2.6942  2.0251  2.3107
  491MOL0     H66248   5.402   9.028   8.573 -1.3948 -0.1643 -0.5507
  491MOL0     H66249   5.514   8.799   8.713 -1.0197 -0.6952  2.4107
  491MOL0     H66250   5.625   8.930   8.666 -1.5512 -0.5469 -1.3396
  491MOL0     H66251   5.767   8.926   8.863 -0.3552 -0.7236  1.1411
  491MOL0     H66252   5.691   8.772   8.915 -1.3815 -0.6200  0.1912
  491MOL0     H66253   5.869   8.814   8.683  0.6342  0.2865  0.4689
  491MOL0     H66254   5.897   8.726   8.826 -1.4251 -0.1657  2.6633
  491MOL0     H66255   5.836   8.604   8.599 -0.7962 -0.4377 -1.0267
  491MOL0     H66256   5.671   8.613   8.665  0.0868  1.0302  2.4139
  491MOL0     H66257   5.768   8.420   8.709 -0.0866  2.3100 -1.6383
  491MOL0     H66258   5.774   8.480   8.874  0.4533 -0.0542  1.2820
  491MOL0     H66259   5.991   8.477   8.659  0.2840  0.9025  0.9588
  491MOL0     H66260   6.005   8.548   8.827 -4.0796  0.1666  2.1396
  491MOL0     H66261   5.935   8.259   8.758 -0.3735  0.1984  0.5241
  491MOL0     H66262   5.970   8.333   8.921  2.2037  1.8681  0.1870
  491MOL0     H66263   6.189   8.331   8.717 -2.6325 -2.1131 -1.7855
  491MOL0     H66264   6.198   8.371   8.883  0.4195 -2.5087  2.7916
  491MOL0     H66265   5.400   9.127   8.999  1.6764 -0.0233 -1.1206
  491MOL0     H66266   5.244   9.300   8.954  1.4263 -0.0900  0.2226
  491MOL0     H66267   4.873   9.399   8.426  0.6487  2.4563 -3.0119
  491MOL0     H66268   4.717   9.580   8.402  2.1509 -1.1888 -0.4334
  491MOL0     H66269   5.085  10.421   8.959 -0.2837  0.6689  0.9317
  491MOL0     H66270   5.110  10.186   8.986 -2.2186 -2.8263  1.6555
  491MOL0     H66271   4.657   9.727   9.050 -0.6346  0.2012  0.0290
  491MOL0     H66272   4.699   9.508   9.131 -2.9210  2.9784 -3.1258
  491MOL0     H66273   4.803   9.266   9.119 -2.0467  0.3146  0.0822
  491MOL0     H66274   4.747   9.364   9.259 -1.4902  0.1585 -2.5117
  491MOL0     H66275   4.796   9.118   9.325 -0.5316  1.2091  0.0690
  491MOL0     H66276   4.894   9.246   9.412 -2.4518 -1.9970  3.1943
  491MOL0     H66277   5.001   9.037   9.331 -0.5860 -0.6029 -0.8141
  491MOL0     H66278   5.078   9.187   9.310  0.1375  1.6583 -3.9347
  491MOL0     H66279   5.025   9.167   9.052  1.2651 -0.0636  0.0880
  491MOL0     H66280   5.115   9.038   9.135 -0.1294 -1.1883 -0.0868
  491MOL0     H66281   4.760   8.823   9.031  0.3527  1.9152 -2.1798
  491MOL0     H66282   5.128   9.578   9.152  1.1305  0.5498  0.0211
  491MOL0     H66283   5.164   9.832   8.968 -0.2738 -1.8391  0.2474
  491MOL0     H66284   5.093   9.941   9.089 -1.3737 -0.8082 -0.4287
  491MOL0     H66285   5.186   9.810   9.148  0.6675 -1.7702 -1.2533
  492MOL0     O66286   2.657  10.584  10.451  0.6846  0.4877  1.3806
  492MOL0     C66287   2.645  10.707  10.449 -0.6103  0.3125  0.0946
  492MOL0     O66288   2.689  10.790  10.351  0.1837 -0.5033  0.4580
  492MOL0     C66289   2.754  10.740  10.247  0.0853 -0.3062 -0.2798
  492MOL0     C66290   2.886  10.793  10.232  0.0318  0.6873 -1.0348
  492MOL0     C66291   2.959  10.728  10.130 -0.6302  0.5717 -0.8621
  492MOL0     C66292   2.906  10.638  10.037 -0.5735 -0.8918 -0.2732
  492MOL0     O66293   2.992  10.571   9.961 -0.3711 -0.1339 -0.3739
  492MOL0     C66294   2.935  10.501   9.845 -0.7420  0.0763  0.0985
  492MOL0     C66295   3.060  10.457   9.753 -0.3103  0.2260 -0.1487
  492MOL0     C66296   3.038  10.407   9.607 -1.0053 -0.9370 -0.1226
  492MOL0     C66297   3.160  10.449   9.522 -0.2634  0.2785  1.0875
  492MOL0     C66298   3.175  10.364   9.395  0.1831  0.2162 -0.2861
  492MOL0     C66299   3.307  10.385   9.317 -0.5889 -0.3126 -0.1231
  492MOL0     C66300   3.303  10.338   9.169  0.4968  0.1662 -0.4608
  492MOL0     C66301   3.438  10.358   9.093  0.6696 -0.1048  0.4506
  492MOL0     N66302   3.552  10.306   9.165 -0.1201 -0.9907 -0.1655
  492MOL0     C66303   3.579  10.173   9.199  0.8605 -0.0612 -0.1941
  492MOL0     C66304   3.696  10.177   9.264  0.0662 -1.0633 -0.1158
  492MOL0     C66305   3.785  10.079   9.331  0.3595  0.4816 -1.1063
  492MOL0     C66306   3.864   9.985   9.241 -0.4332 -0.1728 -0.0513
  492MOL0     C66307   3.929   9.877   9.344  0.2465 -0.0282  0.3169
  492MOL0     C66308   4.051   9.950   9.414 -0.3991 -0.2657 -0.7019
  492MOL0     O66309   4.109   9.867   9.527  0.6892 -0.2719 -0.1519
  492MOL0     C66310   4.186   9.754   9.485  0.0464 -0.4733 -0.5539
  492MOL0     C66311   4.215   9.669   9.587 -0.0418 -0.1782  1.0692
  492MOL0     C66312   4.266   9.534   9.561 -0.4014  0.2570 -0.3373
  492MOL0     C66313   4.302   9.494   9.429  0.3473 -0.9635 -0.4499
  492MOL0     C66314   4.341   9.356   9.399 -0.4908  0.0579  0.1178
  492MOL0     O66315   4.354   9.327   9.268  0.1141 -0.4443 -1.3378
  492MOL0     C66316   4.374   9.204   9.238  0.4970  0.5175  0.1615
  492MOL0     C66317   4.264   9.136   9.179 -0.6003  0.4734  0.7798
  492MOL0     C66318   4.272   8.998   9.140 -1.4845 -0.1815 -0.2351
  492MOL0     C66319   4.396   8.935   9.153  0.2081  0.2782  0.2211
  492MOL0     O66320   4.418   8.815   9.099 -0.4189 -0.0291  0.4340
  492MOL0     C66321   4.401   8.710   9.190  0.0099 -0.0403  0.1313
  492MOL0     C66322   4.453   8.583   9.117 -0.0996  0.1828  0.3316
  492MOL0     C66323   4.423   8.453   9.194 -0.5575 -0.0050  0.6360
  492MOL0     C66324   4.461   8.339   9.100 -0.1635 -0.0392 -0.6376
  492MOL0     C66325   4.487   8.205   9.166 -0.6040  0.7455 -1.3460
  492MOL0     C66326   4.615   8.205   9.260  0.0393  0.7041 -0.5142
  492MOL0     C66327   4.629   8.060   9.300 -0.3192 -0.3489  0.6601
  492MOL0     C66328   4.756   8.031   9.371  0.5634 -0.6900 -0.9482
  492MOL0    Cl66329   4.770   8.160   9.502 -0.1577  0.6074  0.3079
  492MOL0     C66330   4.504   9.002   9.215  0.8436 -0.3969 -0.8741
  492MOL0     C66331   4.493   9.137   9.248 -0.0893 -0.7144  0.9952
  492MOL0     O66332   4.343   9.268   9.487 -0.2903  0.4874  0.2066
  492MOL0     C66333   4.296   9.598   9.326 -0.7076  0.1944 -0.4481
  492MOL0     C66334   4.238   9.726   9.357 -0.4634  0.5771  0.6566
  492MOL0     N66335   3.742  10.311   9.264  0.1770 -0.1890 -0.4348
  492MOL0     N66336   3.657  10.389   9.212 -0.0482 -0.4257 -0.3570
  492MOL0     C66337   2.766  10.608  10.054  0.3793  0.0853 -0.1653
  492MOL0     C66338   2.689  10.658  10.163  0.4558 -0.4333 -0.1340
  492MOL0     C66339   2.574  10.765  10.569 -0.8940  0.3243  0.1269
  492MOL0     C66340   2.644  10.778  10.687 -0.2620 -0.6184 -0.4112
  492MOL0     C66341   2.583  10.839  10.797  0.9513 -0.4076  0.2789
  492MOL0     C66342   2.448  10.871  10.794 -0.1760 -0.2340 -0.1416
  492MOL0     O66343   2.386  10.921  10.905 -0.7258  0.1437 -0.2891
  492MOL0     C66344   2.272  10.843  10.940  0.5294  0.5390 -0.6705
  492MOL0     C66345   2.315  10.701  10.995  0.0240  0.1266 -0.1413
  492MOL0     C66346   2.443  10.689  11.084  0.0938  0.6459  1.1940
  492MOL0     C66347   2.506  10.544  11.075 -0.0080 -0.4941 -0.3387
  492MOL0     C66348   2.418  10.443  11.120  0.2789 -0.4057  0.4195
  492MOL0     C66349   2.347  10.346  11.145  0.6243  0.3618  0.9389
  492MOL0     C66350   2.379  10.851  10.668  1.1791  0.0048 -0.8210
  492MOL0     C66351   2.443  10.806  10.553 -0.0228 -0.1105 -0.6394
  492MOL0     C66352   2.360  10.784  10.434 -0.4367 -1.1115  0.7598
  492MOL0     H66353   2.931  10.866  10.298  2.1861  1.3346 -3.0470
  492MOL0     H66354   3.066  10.745  10.120 -0.6405  1.1829 -0.0516
  492MOL0     H66355   2.883  10.411   9.878  2.0393 -1.8958 -0.5488
  492MOL0     H66356   2.873  10.571   9.789 -0.9486 -0.8926 -0.9329
  492MOL0     H66357   3.121  10.390   9.815 -4.2271 -0.3353  3.6375
  492MOL0     H66358   3.110  10.553   9.739 -0.4634  0.3432  0.1137
  492MOL0     H66359   2.950  10.446   9.554  0.6222 -0.2425 -2.4725
  492MOL0     H66360   3.039  10.298   9.609 -0.1632 -0.9664 -1.0549
  492MOL0     H66361   3.149  10.556   9.505 -0.1967  0.3370  1.4101
  492MOL0     H66362   3.245  10.429   9.588  0.8621 -2.4493 -0.9826
  492MOL0     H66363   3.178  10.255   9.404 -0.0748  0.1063 -1.4337
  492MOL0     H66364   3.084  10.384   9.338 -2.8633 -0.6906  3.7915
  492MOL0     H66365   3.341  10.488   9.320  1.3311 -0.8913 -0.3938
  492MOL0     H66366   3.381  10.323   9.369  0.0306  2.5674  2.7168
  492MOL0     H66367   3.227  10.398   9.119 -1.5172 -1.2559  0.7573
  492MOL0     H66368   3.279  10.232   9.155  0.6884 -0.4045  2.7729
  492MOL0     H66369   3.422  10.330   8.988  0.3557  1.5723  0.0123
  492MOL0     H66370   3.445  10.467   9.094 -3.4764  0.3285 -0.2581
  492MOL0     H66371   3.515  10.088   9.181  2.0831 -1.0341 -0.1115
  492MOL0     H66372   3.850  10.141   9.393 -0.0083  0.6568 -0.8951
  492MOL0     H66373   3.718  10.013   9.386  1.3713 -0.6537 -1.1847
  492MOL0     H66374   3.807   9.933   9.164 -1.6676 -0.5065  1.0530
  492MOL0     H66375   3.941  10.040   9.188 -0.0735 -1.5115 -0.9569
  492MOL0     H66376   3.971   9.794   9.287  1.6457  0.2612  0.8727
  492MOL0     H66377   3.859   9.840   9.419 -0.6861 -0.7438 -0.8761
  492MOL0     H66378   4.019  10.040   9.468 -0.0257 -1.1119  0.9868
  492MOL0     H66379   4.128   9.979   9.341  2.5378 -2.3032  1.3444
  492MOL0     H66380   4.186   9.693   9.689  1.5462  0.3232  1.4342
  492MOL0     H66381   4.276   9.459   9.639 -2.6412 -0.8972 -1.0589
  492MOL0     H66382   4.163   9.174   9.165 -0.1168  1.4670 -0.1932
  492MOL0     H66383   4.191   8.944   9.093 -2.0307  2.3485 -2.4430
  492MOL0     H66384   4.455   8.716   9.285 -0.3575 -3.5221  0.6672
  492MOL0     H66385   4.295   8.705   9.214  0.2657 -0.0174  1.3049
  492MOL0     H66386   4.398   8.578   9.023 -1.3030  2.1697  0.8517
  492MOL0     H66387   4.556   8.612   9.097 -0.8461  2.6867 -0.2783
  492MOL0     H66388   4.491   8.452   9.280 -0.0775 -0.0527  0.2621
  492MOL0     H66389   4.315   8.441   9.206 -0.9531  1.8708 -0.6156
  492MOL0     H66390   4.548   8.366   9.039 -2.0826  1.4914 -2.8769
  492MOL0     H66391   4.381   8.315   9.029 -0.1558 -0.4255 -0.5169
  492MOL0     H66392   4.505   8.133   9.086  1.7627  1.7228 -1.8081
  492MOL0     H66393   4.397   8.175   9.220  0.1090  0.5768 -0.2095
  492MOL0     H66394   4.695   8.254   9.205 -0.0916 -0.2018 -1.5655
  492MOL0     H66395   4.589   8.267   9.346  1.6847  0.8393 -0.0868
  492MOL0     H66396   4.636   7.994   9.213 -2.0733  1.8749 -1.2708
  492MOL0     H66397   4.545   8.033   9.365 -0.1466 -0.9201  0.6541
  492MOL0     H66398   4.737   7.938   9.425 -4.0626 -0.5606 -1.9482
  492MOL0     H66399   4.851   8.032   9.315  1.8225  0.5041  1.0819
  492MOL0     H66400   4.593   8.946   9.240 -0.5052 -3.2248 -1.9001
  492MOL0     H66401   4.579   9.191   9.285  0.2422 -1.4378  1.3021
  492MOL0     H66402   4.325   9.582   9.222  2.3187 -1.7406  0.5654
  492MOL0     H66403   4.226   9.801   9.279 -0.0407  1.1634  1.1417
  492MOL0     H66404   2.706  10.556   9.980  1.1132 -1.4313  0.2717
  492MOL0     H66405   2.588  10.621  10.180 -0.1389  1.4923  0.8297
  492MOL0     H66406   2.745  10.743  10.703  0.1783  0.9512  0.4168
  492MOL0     H66407   2.642  10.846  10.888  1.6087 -1.3202 -0.0511
  492MOL0     H66408   2.193  10.826  10.866 -1.8019  0.9788  1.5660
  492MOL0     H66409   2.207  10.894  11.012 -3.4434 -3.7126 -0.8201
  492MOL0     H66410   2.340  10.638  10.909 -1.1641 -0.5710  0.0031
  492MOL0     H66411   2.230  10.659  11.049  0.4404 -2.9289 -1.6689
  492MOL0     H66412   2.426  10.714  11.189  5.1136  2.3025  1.9051
  492MOL0     H66413   2.518  10.756  11.041  2.7966 -3.7619 -1.7525
  492MOL0     H66414   2.556  10.526  10.979  0.1946  2.7973 -0.9768
  492MOL0     H66415   2.588  10.546  11.146  0.3165  0.3647 -0.7272
  492MOL0     H66416   2.293  10.256  11.166 -1.1072  1.1074 -0.0672
  492MOL0     H66417   2.275  10.879  10.671  1.3197  0.7467 -2.1372
  492MOL0     H66418   2.376  10.869  10.367 -0.8603  0.3892  2.4720
  492MOL0     H66419   2.373  10.688  10.383  0.1909 -1.2601  1.1882
  492MOL0     H66420   2.252  10.785  10.455 -0.2155 -1.5118  2.0200
  493MOL0     O66421   6.866   3.690  10.386  0.6565  0.1322 -0.1262
  493MOL0     C66422   6.890   3.773  10.472 -0.0999 -0.0490  1.1293
  493MOL0     O66423   7.010   3.788  10.536 -0.0233 -0.3454  0.3741
  493MOL0     C66424   7.114   3.697  10.502  0.4759 -0.0229  0.4090
  493MOL0     C66425   7.177   3.645  10.614 -0.9278  0.5788  0.3512
  493MOL0     C66426   7.282   3.553  10.595 -0.3448  0.7611 -0.0676
  493MOL0     C66427   7.307   3.499  10.470 -0.2719  0.0676  0.2797
  493MOL0     O66428   7.378   3.384  10.477 -0.3963 -0.5317 -0.4813
  493MOL0     C66429   7.377   3.300  10.362  0.4054 -0.4287  0.5554
  493MOL0     C66430   7.453   3.170  10.386 -0.4219 -0.1424  0.1933
  493MOL0     C66431   7.602   3.209  10.392 -0.0617 -0.8192  0.8159
  493MOL0     C66432   7.698   3.090  10.446 -0.1622  0.1239 -0.3915
  493MOL0     C66433   7.664   3.040  10.590 -0.8538 -1.0384  0.0676
  493MOL0     C66434   7.689   2.900  10.627 -0.3334 -0.2078 -1.7160
  493MOL0     C66435   7.842   2.865  10.607  0.7357  0.8306  0.0030
  493MOL0     C66436   7.864   2.717  10.627  0.4641  0.4703 -0.1281
  493MOL0     N66437   7.998   2.688  10.688 -0.0649  0.2457  0.7978
  493MOL0     C66438   8.051   2.761  10.792  0.4206 -0.1686  0.0315
  493MOL0     C66439   8.164   2.700  10.814  0.2445 -0.7220  0.5220
  493MOL0     C66440   8.267   2.752  10.905  1.0101 -0.1725  0.1750
  493MOL0     C66441   8.336   2.880  10.854  0.2710  0.0489 -0.2902
  493MOL0     C66442   8.447   2.944  10.938 -0.1757 -0.2151  0.2293
  493MOL0     C66443   8.394   3.044  11.036 -0.7752  0.0913  0.0213
  493MOL0     O66444   8.511   3.082  11.119  0.3408 -0.0841 -0.5615
  493MOL0     C66445   8.571   3.200  11.098  0.0296  0.2430 -0.2752
  493MOL0     C66446   8.618   3.274  11.212 -0.5832  0.1486 -0.6713
  493MOL0     C66447   8.639   3.416  11.193 -0.5748  1.0088 -0.8606
  493MOL0     C66448   8.637   3.470  11.068 -0.2710 -0.6321  0.5442
  493MOL0     C66449   8.665   3.609  11.051  0.5704 -0.3639 -0.4665
  493MOL0     O66450   8.620   3.674  10.943  0.5017  0.2638 -0.1156
  493MOL0     C66451   8.651   3.810  10.944 -0.0595 -0.1135 -0.2330
  493MOL0     C66452   8.572   3.903  11.013 -0.9527 -0.8016 -0.2426
  493MOL0     C66453   8.609   4.037  11.020  0.0121  0.1930  0.3582
  493MOL0     C66454   8.717   4.096  10.951  1.1493 -1.1050 -0.4952
  493MOL0     O66455   8.753   4.229  10.953 -0.2888 -0.9430 -0.3264
  493MOL0     C66456   8.659   4.317  11.003  1.1220 -0.2901  0.2176
  493MOL0     C66457   8.712   4.456  10.999  0.5045 -0.1314  0.1267
  493MOL0     C66458   8.640   4.546  11.092 -0.0483 -0.2771 -0.0117
  493MOL0     C66459   8.504   4.581  11.048 -0.4289 -0.0877 -0.2886
  493MOL0     C66460   8.416   4.612  11.171 -0.0119  0.1122 -0.7287
  493MOL0     C66461   8.454   4.736  11.259 -0.0010  0.4302 -0.1492
  493MOL0     C66462   8.388   4.866  11.210 -0.6779  0.4335 -0.7471
  493MOL0     C66463   8.431   4.994  11.283 -0.4612 -0.6619 -0.6834
  493MOL0    Cl66464   8.414   4.980  11.467  0.3401 -0.2898 -0.1512
  493MOL0     C66465   8.790   4.000  10.883  0.3841 -0.1133  0.1540
  493MOL0     C66466   8.768   3.859  10.885 -0.3507  0.4000  0.4324
  493MOL0     O66467   8.735   3.665  11.136  1.4171 -0.0859  0.6469
  493MOL0     C66468   8.610   3.391  10.954 -0.7479  0.7208  0.4375
  493MOL0     C66469   8.580   3.256  10.969  0.5035  0.5975 -0.1447
  493MOL0     N66470   8.179   2.581  10.744  0.6000  0.2459 -0.6010
  493MOL0     N66471   8.076   2.580  10.673  0.3627  0.6134 -0.9534
  493MOL0     C66472   7.247   3.559  10.357 -0.0079 -0.2972  0.1855
  493MOL0     C66473   7.151   3.663  10.366 -1.0240  0.5066 -0.1125
  493MOL0     C66474   6.780   3.872  10.508  0.5754  0.4668  0.0090
  493MOL0     C66475   6.818   3.972  10.596  0.6715  0.3697  0.6992
  493MOL0     C66476   6.733   4.079  10.621 -0.6266 -0.6253  0.4998
  493MOL0     C66477   6.604   4.084  10.555  0.4200  0.1951 -0.3894
  493MOL0     O66478   6.535   4.205  10.595  0.3762 -0.2878 -0.6984
  493MOL0     C66479   6.424   4.243  10.514 -0.4077 -0.6053 -0.0868
  493MOL0     C66480   6.297   4.202  10.592 -0.5409 -0.4652  0.1771
  493MOL0     C66481   6.295   4.294  10.728  0.3675 -0.1389  0.9965
  493MOL0     C66482   6.191   4.239  10.822 -0.1474  0.5893  0.0936
  493MOL0     C66483   6.131   4.346  10.903 -0.4903  0.1949  0.5554
  493MOL0     C66484   6.093   4.431  10.975  0.5362 -0.1443  0.1298
  493MOL0     C66485   6.564   3.980  10.472 -0.3850  0.0896  0.1049
  493MOL0     C66486   6.648   3.867  10.456  0.5696 -0.3195 -0.0255
  493MOL0     C66487   6.598   3.765  10.360  0.2768  0.1361 -1.0198
  493MOL0     H66488   7.151   3.671  10.717 -1.8780 -0.6364  0.4388
  493MOL0     H66489   7.332   3.493  10.670 -2.2589 -1.7976 -0.7046
  493MOL0     H66490   7.274   3.265  10.349  0.3134  0.7063 -2.5328
  493MOL0     H66491   7.421   3.342  10.271  1.7846 -1.4194  0.7325
  493MOL0     H66492   7.429   3.094  10.311 -1.3302 -3.5649  3.6390
  493MOL0     H66493   7.419   3.135  10.484  0.6070 -2.5675 -0.2428
  493MOL0     H66494   7.614   3.284  10.471 -0.2791  1.0991 -0.8820
  493MOL0     H66495   7.635   3.257  10.300 -0.9174 -0.3582  0.7488
  493MOL0     H66496   7.688   3.009  10.373  3.5232 -1.4615  0.6542
  493MOL0     H66497   7.800   3.129  10.441  0.7732 -2.1961 -0.3371
  493MOL0     H66498   7.713   3.107  10.662 -0.3760 -1.3862  0.0664
  493MOL0     H66499   7.555   3.042  10.600 -1.1514 -1.8104 -2.3203
  493MOL0     H66500   7.658   2.878  10.729 -1.2032  2.0063 -1.4499
  493MOL0     H66501   7.632   2.831  10.563 -1.5728  0.1684 -1.0520
  493MOL0     H66502   7.906   2.926  10.671  1.2963 -0.4536  0.6855
  493MOL0     H66503   7.871   2.901  10.508 -0.1270  0.4459 -0.4044
  493MOL0     H66504   7.793   2.664  10.692  3.0631 -5.3216 -1.2945
  493MOL0     H66505   7.865   2.669  10.529  4.3751 -0.0397 -0.0076
  493MOL0     H66506   8.013   2.854  10.834  0.5396  1.1866 -2.6773
  493MOL0     H66507   8.227   2.774  11.004  4.1083 -0.9067  1.7063
  493MOL0     H66508   8.345   2.676  10.918  0.6995 -1.2279 -3.0809
  493MOL0     H66509   8.378   2.852  10.757  0.7805 -0.2160  0.0061
  493MOL0     H66510   8.256   2.954  10.844 -0.7103 -0.7710  1.2315
  493MOL0     H66511   8.528   2.984  10.876  2.7425 -4.7884  0.6504
  493MOL0     H66512   8.501   2.865  10.990 -0.2824 -0.1493  0.4452
  493MOL0     H66513   8.323   2.996  11.103 -0.3831 -3.2437 -1.7640
  493MOL0     H66514   8.343   3.131  10.992 -0.4738  1.3843  2.0999
  493MOL0     H66515   8.639   3.228  11.308 -1.3738  1.0385 -0.0514
  493MOL0     H66516   8.679   3.474  11.276  0.2030  0.5600 -0.9131
  493MOL0     H66517   8.485   3.868  11.068 -3.1169  0.3790 -2.6834
  493MOL0     H66518   8.540   4.094  11.081 -0.7078 -0.2656  0.0075
  493MOL0     H66519   8.570   4.308  10.940  1.3771  1.3285 -0.4221
  493MOL0     H66520   8.634   4.282  11.104  1.5598 -3.2471 -0.5873
  493MOL0     H66521   8.817   4.443  11.027  1.0518 -0.6893 -2.0260
  493MOL0     H66522   8.725   4.503  10.901 -0.2111 -1.4112 -0.6127
  493MOL0     H66523   8.635   4.497  11.190 -1.1128  0.1282  0.1414
  493MOL0     H66524   8.694   4.640  11.105 -0.3340 -0.1520  0.2650
  493MOL0     H66525   8.459   4.508  10.980 -1.6905  1.9618 -1.7839
  493MOL0     H66526   8.506   4.677  10.995  2.2286  0.9952  1.5809
  493MOL0     H66527   8.418   4.518  11.227 -0.7903  0.1572 -0.6060
  493MOL0     H66528   8.309   4.618  11.148 -0.0466 -3.9110 -2.4074
  493MOL0     H66529   8.424   4.720  11.363 -0.8960  1.0568 -0.3003
  493MOL0     H66530   8.563   4.744  11.271 -0.2099  0.8305  1.7382
  493MOL0     H66531   8.281   4.854  11.231 -0.2503 -0.7248  0.9394
  493MOL0     H66532   8.399   4.890  11.104 -3.0410  4.4689 -0.3053
  493MOL0     H66533   8.537   5.003  11.259 -0.6664  0.4866 -1.2380
  493MOL0     H66534   8.369   5.073  11.238 -1.9845 -3.4457 -3.9426
  493MOL0     H66535   8.873   4.043  10.829  0.7520  0.5646  1.2266
  493MOL0     H66536   8.836   3.788  10.838  0.2901  0.6309  0.9854
  493MOL0     H66537   8.616   3.426  10.852  1.3254 -1.7527 -0.4090
  493MOL0     H66538   8.545   3.188  10.892  1.6641  0.6650 -0.7640
  493MOL0     H66539   7.272   3.521  10.259 -2.7228 -0.8494 -0.3705
  493MOL0     H66540   7.100   3.720  10.289 -1.7642 -0.1707 -0.1379
  493MOL0     H66541   6.915   3.972  10.645  0.4399  0.8377  1.1740
  493MOL0     H66542   6.772   4.161  10.680 -3.2901  0.5273  0.7701
  493MOL0     H66543   6.421   4.196  10.415 -2.8955  2.4426 -1.6190
  493MOL0     H66544   6.420   4.351  10.501 -0.0047 -0.7215 -1.2677
  493MOL0     H66545   6.310   4.097  10.619 -1.5263 -0.1618  2.0466
  493MOL0     H66546   6.215   4.211  10.521 -0.2970  0.2616 -0.0169
  493MOL0     H66547   6.285   4.397  10.693  4.7511 -0.4135 -1.8818
  493MOL0     H66548   6.389   4.296  10.784 -0.2937 -0.6389  2.1837
  493MOL0     H66549   6.120   4.169  10.778  0.1676  1.4789 -1.9302
  493MOL0     H66550   6.242   4.182  10.900 -0.1965 -0.0606 -0.3470
  493MOL0     H66551   6.070   4.509  11.045 -2.4791 -0.0624 -0.8345
  493MOL0     H66552   6.475   3.995  10.412 -0.8897  0.8580  1.0092
  493MOL0     H66553   6.490   3.781  10.347  0.5237  1.1459 -1.9521
  493MOL0     H66554   6.646   3.774  10.262  1.7477  0.8373 -0.2626
  493MOL0     H66555   6.619   3.664  10.398  0.1139  0.8405  1.0141
  494MOL0     O66556   7.425   1.161   5.897  0.7433 -0.3532  0.2922
  494MOL0     C66557   7.432   1.173   6.016  0.8123  0.4822  0.2211
  494MOL0     O66558   7.402   1.071   6.109  0.4607  0.1909  0.4405
  494MOL0     C66559   7.309   0.973   6.074 -0.8045  0.4312 -0.8379
  494MOL0     C66560   7.292   0.870   6.172  0.0803 -0.8057 -0.4875
  494MOL0     C66561   7.216   0.751   6.153 -1.2718 -0.4319 -0.0311
  494MOL0     C66562   7.135   0.744   6.041  0.5978 -0.1138  0.9421
  494MOL0     O66563   7.062   0.624   6.033  0.3271 -0.3056  0.1728
  494MOL0     C66564   6.987   0.608   5.919  0.9030 -0.0415  0.8107
  494MOL0     C66565   6.899   0.473   5.942 -0.2423  1.7760 -0.1716
  494MOL0     C66566   6.816   0.441   5.816  0.1533 -0.3227 -0.2180
  494MOL0     C66567   6.879   0.417   5.678  0.4844  0.6883  0.5294
  494MOL0     C66568   6.769   0.388   5.583  0.4362  0.3872 -0.2539
  494MOL0     C66569   6.811   0.378   5.430  0.2788  1.0183  0.2710
  494MOL0     C66570   6.687   0.354   5.350  0.1195 -0.2364  1.0554
  494MOL0     C66571   6.715   0.309   5.210  0.1215  0.2946  1.1169
  494MOL0     N66572   6.821   0.211   5.211  0.6550 -0.0282 -0.3172
  494MOL0     C66573   6.806   0.078   5.247  0.3857 -0.6591 -0.0688
  494MOL0     C66574   6.928   0.017   5.239 -0.1912  1.2729  0.2531
  494MOL0     C66575   6.958  -0.127   5.280  0.4683  0.4389  0.1751
  494MOL0     C66576   7.035  -0.214   5.181 -0.3970 -0.0336 -0.3367
  494MOL0     C66577   6.949  -0.248   5.060  0.0126  0.5383  0.3604
  494MOL0     C66578   6.859  -0.378   5.077 -0.3433 -1.1581  0.4479
  494MOL0     O66579   6.809  -0.406   4.951  0.4854 -0.3184  0.3505
  494MOL0     C66580   6.738  -0.523   4.939  0.0487 -0.6374 -0.3355
  494MOL0     C66581   6.686  -0.595   5.054  0.0962 -0.0191  0.5489
  494MOL0     C66582   6.620  -0.717   5.027  0.1832 -0.4702  0.7502
  494MOL0     C66583   6.625  -0.772   4.898  0.4254 -0.0568  1.1933
  494MOL0     C66584   6.577  -0.913   4.866 -1.3357 -1.3014 -0.4802
  494MOL0     O66585   6.580  -0.960   4.738 -0.5248  0.2632  0.4893
  494MOL0     C66586   6.533  -1.094   4.714 -0.0720 -1.1406 -0.2418
  494MOL0     C66587   6.621  -1.194   4.750  1.2034 -0.9923 -0.0690
  494MOL0     C66588   6.587  -1.334   4.749 -0.5136 -1.0133  1.5729
  494MOL0     C66589   6.467  -1.364   4.693 -0.1932  0.5756 -1.2158
  494MOL0     O66590   6.427  -1.498   4.702  0.2714  0.1770 -0.7572
  494MOL0     C66591   6.337  -1.532   4.601 -1.0886  0.2906 -0.3686
  494MOL0     C66592   6.358  -1.682   4.580 -0.4060 -0.6881 -1.0845
  494MOL0     C66593   6.510  -1.724   4.563 -0.0536  0.1516  0.0070
  494MOL0     C66594   6.516  -1.863   4.497 -0.3844 -0.1921  0.2449
  494MOL0     C66595   6.657  -1.906   4.477 -0.3639 -0.7081 -0.7707
  494MOL0     C66596   6.647  -2.042   4.409 -0.4919  0.7303 -0.9332
  494MOL0     C66597   6.782  -2.083   4.335 -0.0292 -0.5042 -0.8417
  494MOL0     C66598   6.753  -2.218   4.252 -0.1050 -0.9920  0.1309
  494MOL0    Cl66599   6.706  -2.362   4.360  0.4885  0.0947 -0.4567
  494MOL0     C66600   6.379  -1.264   4.649  0.1533 -0.0315  0.3840
  494MOL0     C66601   6.408  -1.123   4.662 -0.9968  0.0046  0.9217
  494MOL0     O66602   6.541  -0.972   4.961  0.4691  0.1835  0.3759
  494MOL0     C66603   6.693  -0.701   4.799 -0.3537 -0.3258 -0.3909
  494MOL0     C66604   6.739  -0.573   4.817 -0.5375 -0.0550  0.0630
  494MOL0     N66605   7.016   0.111   5.193  0.7300 -0.3838  0.1151
  494MOL0     N66606   6.954   0.228   5.198 -0.7867  0.4936  0.5351
  494MOL0     C66607   7.142   0.846   5.942 -0.5348  0.6234  0.9007
  494MOL0     C66608   7.229   0.957   5.958  0.4785 -0.7378  0.2149
  494MOL0     C66609   7.494   1.296   6.072 -0.4427  0.5793 -0.1611
  494MOL0     C66610   7.596   1.290   6.170 -0.2336  1.4739  0.3961
  494MOL0     C66611   7.662   1.403   6.211  0.0918  0.3234 -0.6245
  494MOL0     C66612   7.612   1.534   6.183  0.0916  0.4122  0.4296
  494MOL0     O66613   7.676   1.652   6.228  0.2135  0.5461 -0.7324
  494MOL0     C66614   7.682   1.661   6.366 -0.6162 -0.3869 -0.0046
  494MOL0     C66615   7.785   1.777   6.393  0.0519  0.9609 -0.1004
  494MOL0     C66616   7.930   1.734   6.354  0.6266 -0.5775 -0.3397
  494MOL0     C66617   8.020   1.840   6.408 -0.2409  0.3328 -0.0604
  494MOL0     C66618   8.162   1.817   6.363  0.6863  0.1844 -0.3449
  494MOL0     C66619   8.276   1.813   6.324 -0.6354  0.1903 -1.0198
  494MOL0     C66620   7.503   1.540   6.096  0.5774  0.1982  0.4927
  494MOL0     C66621   7.448   1.422   6.029 -0.5800 -0.7239  0.1038
  494MOL0     C66622   7.337   1.444   5.928 -0.3093  0.9352 -0.0916
  494MOL0     H66623   7.352   0.877   6.262  1.2016  4.2602 -1.3108
  494MOL0     H66624   7.222   0.673   6.228 -2.8404  0.2335  0.8331
  494MOL0     H66625   6.925   0.696   5.900  2.0858  0.2231 -2.2964
  494MOL0     H66626   7.059   0.600   5.837  1.0399  3.8953  0.3476
  494MOL0     H66627   6.841   0.475   6.035  0.3679 -2.4708  0.5066
  494MOL0     H66628   6.966   0.389   5.964 -0.6031  2.0037  2.0233
  494MOL0     H66629   6.768   0.538   5.803  6.2170  2.9167 -2.0868
  494MOL0     H66630   6.739   0.364   5.829  2.7089 -3.4733 -2.0237
  494MOL0     H66631   6.936   0.510   5.668  1.9615 -0.1818  0.6258
  494MOL0     H66632   6.962   0.346   5.664  3.7180  4.5905 -2.6947
  494MOL0     H66633   6.720   0.294   5.608  0.8296 -0.1111 -1.2816
  494MOL0     H66634   6.695   0.469   5.591  0.4441  0.2003  2.4878
  494MOL0     H66635   6.869   0.464   5.395 -0.1016  1.8544  1.6087
  494MOL0     H66636   6.875   0.290   5.422 -0.3047  0.6550 -0.5681
  494MOL0     H66637   6.612   0.434   5.349 -1.0729 -1.3144  1.1245
  494MOL0     H66638   6.624   0.275   5.392  0.2225 -1.8596 -1.6054
  494MOL0     H66639   6.629   0.271   5.154  0.1159  1.3331  0.3935
  494MOL0     H66640   6.753   0.393   5.151  0.1457 -1.4741 -1.5518
  494MOL0     H66641   6.713   0.026   5.266  0.0090  0.3121  0.8320
  494MOL0     H66642   7.012  -0.127   5.375 -0.9666  2.5975  1.0815
  494MOL0     H66643   6.859  -0.173   5.288 -0.0544  0.3202 -4.5103
  494MOL0     H66644   7.122  -0.154   5.151 -2.2321  2.7373 -0.4339
  494MOL0     H66645   7.086  -0.301   5.224  1.5540  1.8976  1.5401
  494MOL0     H66646   7.013  -0.258   4.972  0.9779 -2.1939  1.2656
  494MOL0     H66647   6.870  -0.175   5.039 -0.5821  0.4801  2.2154
  494MOL0     H66648   6.779  -0.351   5.147  0.2797 -1.8981  1.4848
  494MOL0     H66649   6.921  -0.458   5.118  0.2968 -0.3107  1.1810
  494MOL0     H66650   6.684  -0.548   5.151  1.3153  2.4284 -0.5301
  494MOL0     H66651   6.569  -0.780   5.099 -0.1612  0.2727  1.1633
  494MOL0     H66652   6.712  -1.153   4.790 -0.6752  1.7559  1.6565
  494MOL0     H66653   6.660  -1.401   4.793  1.5646  0.1576  0.0533
  494MOL0     H66654   6.232  -1.514   4.628 -1.1246 -2.9837  2.4054
  494MOL0     H66655   6.364  -1.481   4.508 -0.9982 -1.4379 -1.3488
  494MOL0     H66656   6.314  -1.724   4.671  1.1639  1.9153  1.0293
  494MOL0     H66657   6.312  -1.706   4.484  0.3156 -0.0946 -1.5931
  494MOL0     H66658   6.556  -1.651   4.495 -0.8530  0.1164 -0.5813
  494MOL0     H66659   6.564  -1.720   4.658 -0.0549  3.0005 -0.0272
  494MOL0     H66660   6.466  -1.874   4.401  0.9963 -0.1222 -0.5124
  494MOL0     H66661   6.474  -1.933   4.569 -2.5142  0.7209 -0.0492
  494MOL0     H66662   6.722  -1.915   4.565  0.0772 -1.3744 -1.1494
  494MOL0     H66663   6.712  -1.836   4.413  0.5084  0.5452  1.2504
  494MOL0     H66664   6.613  -2.110   4.487  1.8911  1.1200  0.5521
  494MOL0     H66665   6.579  -2.030   4.324  1.4984  1.1905 -2.5552
  494MOL0     H66666   6.856  -2.103   4.413 -0.8548  0.6119  0.2748
  494MOL0     H66667   6.818  -2.006   4.266  1.7211 -0.5702 -0.0536
  494MOL0     H66668   6.678  -2.191   4.178  1.7530  0.8593 -1.2054
  494MOL0     H66669   6.846  -2.232   4.196  1.6426  1.8197  2.0303
  494MOL0     H66670   6.283  -1.284   4.603 -0.4466 -0.7550  1.8921
  494MOL0     H66671   6.333  -1.055   4.624 -0.8929  1.1443  2.6700
  494MOL0     H66672   6.679  -0.741   4.699 -1.7739  0.0583 -0.3703
  494MOL0     H66673   6.793  -0.513   4.745  2.3159  0.6893  2.6257
  494MOL0     H66674   7.085   0.838   5.850 -0.7249  1.0288  0.9819
  494MOL0     H66675   7.241   1.026   5.875  0.1330 -1.7941 -0.7497
  494MOL0     H66676   7.611   1.196   6.222 -1.0263  1.6257  0.9153
  494MOL0     H66677   7.738   1.397   6.288 -1.1213 -3.3416  0.5260
  494MOL0     H66678   7.726   1.565   6.396  3.3268  0.2698 -2.7960
  494MOL0     H66679   7.588   1.692   6.412 -0.5095 -0.9708  0.6250
  494MOL0     H66680   7.784   1.793   6.501  2.6638  0.9180 -0.0097
  494MOL0     H66681   7.774   1.874   6.345  0.2717 -0.9055 -4.4604
  494MOL0     H66682   7.940   1.729   6.245 -1.2735  2.4852 -0.7826
  494MOL0     H66683   7.947   1.638   6.403 -1.5031 -0.8710 -0.0903
  494MOL0     H66684   7.985   1.940   6.380 -1.9799 -0.1935  0.1035
  494MOL0     H66685   8.006   1.843   6.516  1.1704 -1.5973  0.2339
  494MOL0     H66686   8.370   1.794   6.276 -0.9906 -2.3198 -0.8861
  494MOL0     H66687   7.476   1.642   6.071 -0.3657 -0.3014 -0.5775
  494MOL0     H66688   7.249   1.393   5.967 -1.1613  0.0405 -2.8945
  494MOL0     H66689   7.306   1.548   5.916  0.9504  1.6838  2.4511
  494MOL0     H66690   7.356   1.405   5.827  2.2265  0.2639  0.5840
  495MOL0     O66691   1.635   9.861   2.268 -0.5022  0.2681  0.2891
  495MOL0     C66692   1.550   9.829   2.346 -0.2878  0.4934  0.0101
  495MOL0     O66693   1.547   9.870   2.480  0.7336  0.2192 -0.6263
  495MOL0     C66694   1.663   9.917   2.543  0.0570  0.2511  0.4021
  495MOL0     C66695   1.704   9.845   2.659 -0.1496  0.8380 -0.2123
  495MOL0     C66696   1.821   9.879   2.734 -0.3296  0.3723  0.1515
  495MOL0     C66697   1.905   9.983   2.681 -0.0888  0.4016 -0.1268
  495MOL0     O66698   2.016  10.021   2.743  0.5538  0.4990  0.1595
  495MOL0     C66699   2.129   9.948   2.698  0.7654 -0.4625  0.2369
  495MOL0     C66700   2.255  10.040   2.713 -0.1182 -0.2601 -0.0948
  495MOL0     C66701   2.378   9.966   2.671  0.3072 -0.7477  0.5282
  495MOL0     C66702   2.493  10.053   2.630  0.7150  0.0233 -0.6839
  495MOL0     C66703   2.605   9.979   2.566 -0.0259  0.4007  0.6854
  495MOL0     C66704   2.678   9.890   2.667 -0.2693 -0.0880  0.3114
  495MOL0     C66705   2.832   9.881   2.644 -0.3825 -0.6114 -0.5437
  495MOL0     C66706   2.912   9.915   2.768 -1.2100  0.4161 -0.2590
  495MOL0     N66707   2.906  10.064   2.801  0.8482  0.6879  0.8967
  495MOL0     C66708   3.018  10.133   2.834 -0.0732  0.7963  0.6626
  495MOL0     C66709   2.973  10.250   2.879 -0.3858  0.8882 -0.0309
  495MOL0     C66710   3.067  10.353   2.936  0.3914  0.5590 -0.4291
  495MOL0     C66711   3.127  10.446   2.829  0.1707 -0.2372 -0.0294
  495MOL0     C66712   3.020  10.507   2.737 -0.3541 -0.0540 -0.0098
  495MOL0     C66713   3.075  10.597   2.630  0.2362 -0.5918 -0.9188
  495MOL0     O66714   3.144  10.716   2.685 -0.7110 -0.3821  0.2772
  495MOL0     C66715   3.186  10.806   2.586 -0.4482  0.6210  0.3470
  495MOL0     C66716   3.279  10.908   2.622 -0.1554  0.8657 -0.0778
  495MOL0     C66717   3.323  11.006   2.534  0.0396  0.8961 -0.3224
  495MOL0     C66718   3.278  11.013   2.401 -0.3598 -0.0929 -0.8064
  495MOL0     C66719   3.341  11.108   2.297  0.3541  0.1141  0.4482
  495MOL0     O66720   3.457  11.175   2.333 -0.6718 -0.4354  0.2956
  495MOL0     C66721   3.514  11.267   2.245  0.3562 -0.9648 -0.4773
  495MOL0     C66722   3.552  11.224   2.110 -0.7310  0.6491 -0.5083
  495MOL0     C66723   3.611  11.317   2.022 -0.4312  0.1546 -0.0068
  495MOL0     C66724   3.632  11.447   2.067 -1.0554 -0.9126 -0.3220
  495MOL0     O66725   3.678  11.549   1.985 -0.1271 -0.4090 -0.6109
  495MOL0     C66726   3.646  11.689   1.993 -0.0017 -0.3744  0.5402
  495MOL0     C66727   3.728  11.769   1.893 -0.0642 -0.4143  0.0940
  495MOL0     C66728   3.881  11.792   1.927 -0.5210  0.1550  0.2152
  495MOL0     C66729   3.933  11.912   1.859 -0.4985 -0.2680  0.1277
  495MOL0     C66730   4.089  11.929   1.857  0.1052 -0.5074  0.7471
  495MOL0     C66731   4.136  12.013   1.728 -0.0193  0.0281 -0.0441
  495MOL0     C66732   4.087  12.157   1.734 -0.2926 -0.9919 -0.9243
  495MOL0     C66733   4.128  12.241   1.617 -0.6030  0.4184 -0.0741
  495MOL0    Cl66734   4.066  12.403   1.620 -0.2119  0.0761 -0.2528
  495MOL0     C66735   3.602  11.483   2.205 -0.0492 -1.1791  0.0194
  495MOL0     C66736   3.550  11.391   2.292 -0.4451 -0.9966 -0.5449
  495MOL0     O66737   3.276  11.135   2.202 -0.6667  0.2078  0.5522
  495MOL0     C66738   3.189  10.908   2.359  0.6632 -1.0111 -0.1446
  495MOL0     C66739   3.144  10.816   2.452  0.7367 -0.1436  0.2232
  495MOL0     N66740   2.837  10.251   2.876 -0.0627 -1.3181  0.2391
  495MOL0     N66741   2.796  10.145   2.810  0.3303 -0.6731 -0.1267
  495MOL0     C66742   1.862  10.055   2.575  0.1273 -0.3180 -0.3300
  495MOL0     C66743   1.748  10.021   2.505  0.3505  0.3225  0.2410
  495MOL0     C66744   1.444   9.733   2.293 -0.3487 -0.1572 -0.1533
  495MOL0     C66745   1.464   9.696   2.157 -0.0453  0.6368 -0.5983
  495MOL0     C66746   1.366   9.612   2.100 -0.0948 -0.2959  0.4184
  495MOL0     C66747   1.255   9.572   2.174  0.1882 -0.3111  0.6701
  495MOL0     O66748   1.159   9.491   2.127 -0.4516  1.4587  0.5292
  495MOL0     C66749   1.107   9.514   1.990  0.1986  0.1551  1.1992
  495MOL0     C66750   0.975   9.450   1.955 -0.3127 -0.1352 -0.0731
  495MOL0     C66751   0.881   9.464   2.086  0.3124  0.2655  0.5090
  495MOL0     C66752   0.750   9.393   2.059  0.2642  0.2937  0.5055
  495MOL0     C66753   0.642   9.484   2.007  0.9699  1.2129  0.4791
  495MOL0     C66754   0.553   9.558   1.965  0.3140 -0.1283  0.3734
  495MOL0     C66755   1.235   9.600   2.305 -0.0050 -0.0205 -0.5631
  495MOL0     C66756   1.330   9.685   2.365 -0.2325  0.8525 -0.5813
  495MOL0     C66757   1.304   9.724   2.504 -0.3850 -0.4680  0.8334
  495MOL0     H66758   1.647   9.760   2.697 -1.3024  2.7210  2.5804
  495MOL0     H66759   1.860   9.829   2.821 -0.1778 -1.0652 -0.7073
  495MOL0     H66760   2.128   9.856   2.756 -8.1974 -2.5349 -1.5916
  495MOL0     H66761   2.118   9.910   2.596 -0.4201 -0.3244  0.2984
  495MOL0     H66762   2.275  10.069   2.817 -0.1087  1.4608 -0.5409
  495MOL0     H66763   2.239  10.131   2.653  1.2426 -0.5411 -0.9251
  495MOL0     H66764   2.362   9.905   2.582  1.3548 -0.5658  0.1940
  495MOL0     H66765   2.404   9.905   2.757  0.3368 -1.5849 -0.0674
  495MOL0     H66766   2.466  10.134   2.562  1.6519  0.5177 -0.4813
  495MOL0     H66767   2.538  10.094   2.721 -1.1598  1.9300 -0.5466
  495MOL0     H66768   2.573   9.906   2.491  1.5590  0.5637 -0.1919
  495MOL0     H66769   2.671  10.052   2.519  1.7494 -0.7254  1.3204
  495MOL0     H66770   2.666   9.932   2.767  1.5158 -3.0486  1.9090
  495MOL0     H66771   2.643   9.786   2.667 -1.8512  0.3529  2.8152
  495MOL0     H66772   2.868   9.957   2.574  1.0184  0.8823  1.6749
  495MOL0     H66773   2.856   9.779   2.612 -0.4133 -0.8266  0.0971
  495MOL0     H66774   2.879   9.847   2.848 -0.4161  0.3639  0.0300
  495MOL0     H66775   3.016   9.892   2.743 -1.7871 -2.1393 -0.5429
  495MOL0     H66776   3.122  10.104   2.822 -0.4052  0.3999 -2.1088
  495MOL0     H66777   3.017  10.421   3.006  0.4619 -1.7284  1.9566
  495MOL0     H66778   3.152  10.299   2.978  0.8982 -1.3655 -3.6013
  495MOL0     H66779   3.191  10.523   2.873 -0.1129  0.4857 -0.8481
  495MOL0     H66780   3.200  10.388   2.772  0.8579  0.7180 -0.1575
  495MOL0     H66781   2.951  10.561   2.804  2.6676  1.9217  1.7830
  495MOL0     H66782   2.962  10.426   2.693 -1.8285  1.0824 -0.2550
  495MOL0     H66783   2.985  10.635   2.581 -1.1174 -2.4132  0.0021
  495MOL0     H66784   3.142  10.542   2.563 -0.6267 -0.8679 -1.5772
  495MOL0     H66785   3.302  10.896   2.727  1.0953 -3.1599 -0.6379
  495MOL0     H66786   3.392  11.076   2.580 -0.8664 -0.4311  3.4282
  495MOL0     H66787   3.524  11.126   2.072 -0.9293  0.2671  0.5900
  495MOL0     H66788   3.648  11.297   1.922  1.0373 -1.8696  0.8698
  495MOL0     H66789   3.541  11.695   1.964 -0.6681  1.0284  2.9682
  495MOL0     H66790   3.664  11.727   2.094 -0.9240  2.2983 -0.2155
  495MOL0     H66791   3.721  11.724   1.793  1.8985 -1.7878  0.5140
  495MOL0     H66792   3.678  11.865   1.899  0.8408  0.0719  0.0398
  495MOL0     H66793   3.895  11.809   2.034 -1.1391 -2.5327  0.7894
  495MOL0     H66794   3.945  11.706   1.907  1.8791  1.8595  0.1460
  495MOL0     H66795   3.883  12.000   1.900  1.2683  0.5249  0.6642
  495MOL0     H66796   3.888  11.888   1.762 -1.5074 -3.2220  1.2030
  495MOL0     H66797   4.137  11.831   1.854  0.2639 -0.4085 -0.7633
  495MOL0     H66798   4.126  11.987   1.942 -1.7973  1.7564  0.1491
  495MOL0     H66799   4.246  12.011   1.730  0.2567  2.7154 -3.4725
  495MOL0     H66800   4.090  11.953   1.649  2.0414  1.3000 -2.3355
  495MOL0     H66801   4.138  12.205   1.818 -1.9426  1.0029 -0.9796
  495MOL0     H66802   3.978  12.165   1.738 -0.2796 -1.0215 -0.4714
  495MOL0     H66803   4.237  12.252   1.606 -0.6212  0.0533 -0.6104
  495MOL0     H66804   4.093  12.194   1.525  3.3739 -3.7619  0.1618
  495MOL0     H66805   3.627  11.577   2.253 -3.0803  1.1550 -2.5889
  495MOL0     H66806   3.522  11.423   2.391 -2.1651 -2.9223 -0.3403
  495MOL0     H66807   3.153  10.909   2.257  0.5709  0.0434 -0.1157
  495MOL0     H66808   3.074  10.743   2.412 -1.5310  2.6520 -1.3234
  495MOL0     H66809   1.924  10.137   2.540  3.0313 -1.1069  2.4506
  495MOL0     H66810   1.722  10.056   2.405  3.4556 -2.3292 -1.6991
  495MOL0     H66811   1.548   9.718   2.092  2.7128 -0.7529  2.2559
  495MOL0     H66812   1.395   9.587   1.999  1.6593 -1.0692  1.0783
  495MOL0     H66813   1.170   9.485   1.907  0.9517 -3.0417  2.7415
  495MOL0     H66814   1.102   9.623   1.980 -3.1050  0.0800  0.7838
  495MOL0     H66815   0.977   9.345   1.927 -0.5524  0.0485 -0.7891
  495MOL0     H66816   0.928   9.501   1.870 -0.3911  1.2193  0.7511
  495MOL0     H66817   0.861   9.569   2.110  0.9457 -0.0224  2.4316
  495MOL0     H66818   0.919   9.398   2.164  1.2570 -0.2237 -0.3496
  495MOL0     H66819   0.771   9.310   1.991  0.5074  2.1856 -1.8416
  495MOL0     H66820   0.708   9.357   2.154 -1.8753  0.4335 -0.3199
  495MOL0     H66821   0.485   9.640   1.949  0.1002  0.5203  3.8321
  495MOL0     H66822   1.160   9.550   2.366 -0.3015  0.8033 -0.2339
  495MOL0     H66823   1.396   9.711   2.562  0.6847 -4.2258 -1.3572
  495MOL0     H66824   1.267   9.827   2.512 -3.0771 -1.3384  0.8758
  495MOL0     H66825   1.233   9.664   2.561 -2.1928  1.3259  0.5983
  496MOL0     O66826   7.355   3.443   6.309 -0.0099 -0.3112 -0.1441
  496MOL0     C66827   7.433   3.494   6.389 -0.6900 -0.3583 -1.0542
  496MOL0     O66828   7.550   3.446   6.419 -0.3791 -0.0328  0.3493
  496MOL0     C66829   7.590   3.324   6.363  0.5760  0.1365 -0.4038
  496MOL0     C66830   7.724   3.327   6.341 -0.6700  1.1316  0.1032
  496MOL0     C66831   7.796   3.215   6.293 -0.0268  0.2623  0.3076
  496MOL0     C66832   7.732   3.097   6.247 -0.9629  0.1221 -0.2930
  496MOL0     O66833   7.790   2.989   6.185  0.8007  0.8346  0.2318
  496MOL0     C66834   7.893   2.918   6.266  0.3387 -0.5946  0.7331
  496MOL0     C66835   7.956   2.817   6.178 -0.8027  0.1763  0.6267
  496MOL0     C66836   8.059   2.726   6.246 -0.1709  0.2191 -0.5681
  496MOL0     C66837   8.191   2.802   6.296  0.0781 -0.8648 -0.1864
  496MOL0     C66838   8.290   2.711   6.365  0.2523 -0.1007 -0.4145
  496MOL0     C66839   8.417   2.782   6.409 -0.0156  0.1520 -0.8018
  496MOL0     C66840   8.491   2.845   6.296  0.5770 -0.4136 -0.2078
  496MOL0     C66841   8.625   2.909   6.338 -0.4561  0.4655  0.6124
  496MOL0     N66842   8.620   3.030   6.414 -0.8839  0.8954 -0.1068
  496MOL0     C66843   8.724   3.118   6.443 -0.1949 -0.3164  0.1837
  496MOL0     C66844   8.687   3.198   6.539  0.1404 -0.0132  0.2299
  496MOL0     C66845   8.756   3.321   6.583  0.3252  0.0336 -0.2829
  496MOL0     C66846   8.802   3.323   6.726  0.0952  0.3562  0.0240
  496MOL0     C66847   8.928   3.242   6.749  0.4865  0.8101  0.1033
  496MOL0     C66848   8.939   3.200   6.897 -0.3974  0.4406  0.0043
  496MOL0     O66849   8.960   3.325   6.964  0.5477  0.0934  0.0684
  496MOL0     C66850   9.010   3.312   7.089  0.5789 -0.2079 -0.1073
  496MOL0     C66851   9.048   3.441   7.145 -0.0228  0.0422 -0.8296
  496MOL0     C66852   9.089   3.446   7.282  0.1603 -0.2298  0.0470
  496MOL0     C66853   9.099   3.321   7.348  0.6530 -0.1473 -0.6144
  496MOL0     C66854   9.148   3.320   7.492  0.2221 -0.6487  0.2772
  496MOL0     O66855   9.233   3.428   7.512 -0.5625 -0.4007  0.0008
  496MOL0     C66856   9.252   3.486   7.630  0.1481  0.2677  0.3845
  496MOL0     C66857   9.184   3.466   7.753 -0.3680  0.8886  0.6268
  496MOL0     C66858   9.224   3.535   7.870 -0.6486  0.3617  0.2496
  496MOL0     C66859   9.335   3.612   7.867  0.1042  0.3163 -0.6007
  496MOL0     O66860   9.368   3.686   7.975 -0.8731 -0.0326 -0.0581
  496MOL0     C66861   9.275   3.783   8.000  0.4402 -0.0015 -0.1220
  496MOL0     C66862   9.344   3.899   8.067 -0.0449 -0.3460  0.2674
  496MOL0     C66863   9.456   3.989   7.985 -0.0368 -0.8493  0.0618
  496MOL0     C66864   9.473   4.120   8.059  0.1140  0.0235  0.7128
  496MOL0     C66865   9.616   4.166   8.025 -0.4344  0.1777  0.7335
  496MOL0     C66866   9.641   4.173   7.873 -0.6784 -0.3128  0.0404
  496MOL0     C66867   9.758   4.272   7.840  0.4390 -0.2752  0.0709
  496MOL0     C66868   9.786   4.285   7.689  0.1281  0.4839  0.7095
  496MOL0    Cl66869   9.667   4.400   7.631  0.2682 -0.1131 -0.3361
  496MOL0     C66870   9.403   3.638   7.747 -0.5970  0.2766 -0.2269
  496MOL0     C66871   9.366   3.574   7.633  0.2454  0.1223 -0.2737
  496MOL0     O66872   9.110   3.235   7.572 -0.2766 -0.1522  0.6615
  496MOL0     C66873   9.063   3.203   7.288  0.4007 -0.4992  0.0275
  496MOL0     C66874   9.020   3.191   7.160  0.1707 -0.1330 -0.1105
  496MOL0     N66875   8.558   3.169   6.564 -0.4341 -0.3701  0.2619
  496MOL0     N66876   8.525   3.065   6.500  0.2311  0.1399 -0.1563
  496MOL0     C66877   7.593   3.098   6.271  0.1803 -0.8040  0.2088
  496MOL0     C66878   7.517   3.207   6.329 -0.9446  0.4369 -0.3142
  496MOL0     C66879   7.387   3.613   6.470  0.3924 -0.0187 -0.2014
  496MOL0     C66880   7.247   3.638   6.479 -0.3013  0.1330 -0.5099
  496MOL0     C66881   7.184   3.724   6.569 -0.3611  0.7813  0.2839
  496MOL0     C66882   7.264   3.804   6.646 -0.2913 -0.6944  0.4028
  496MOL0     O66883   7.184   3.876   6.733 -0.2270 -0.2773 -0.3808
  496MOL0     C66884   7.250   3.969   6.823  0.6974 -0.1520 -0.2327
  496MOL0     C66885   7.151   4.021   6.932  0.5926 -0.7720  0.9978
  496MOL0     C66886   7.198   4.167   6.962  0.4200  0.1578 -0.7096
  496MOL0     C66887   7.097   4.269   6.919  0.4256 -0.3246  0.4368
  496MOL0     C66888   7.049   4.245   6.783 -0.0210 -0.0574 -0.0388
  496MOL0     C66889   6.991   4.211   6.684 -0.9448  0.3390  0.5125
  496MOL0     C66890   7.406   3.793   6.637  0.5267 -1.0028 -0.2413
  496MOL0     C66891   7.472   3.694   6.554  0.8210 -0.1444  0.1096
  496MOL0     C66892   7.620   3.685   6.549 -0.3433  0.2872 -0.6740
  496MOL0     H66893   7.783   3.417   6.353 -0.6126  1.2626 -1.0451
  496MOL0     H66894   7.904   3.222   6.278  0.0051 -0.6442  0.0195
  496MOL0     H66895   7.964   2.992   6.302 -2.5907  2.8414  0.0386
  496MOL0     H66896   7.844   2.865   6.348  2.7475 -1.5651  1.6442
  496MOL0     H66897   8.011   2.876   6.103 -1.0816 -2.0150 -1.3898
  496MOL0     H66898   7.883   2.757   6.124  0.5710 -0.3455 -0.7121
  496MOL0     H66899   8.087   2.645   6.179 -1.6952 -0.2568 -0.6794
  496MOL0     H66900   8.015   2.683   6.337  2.4840 -2.1223 -0.2918
  496MOL0     H66901   8.241   2.853   6.213  2.6527  0.1575  1.8370
  496MOL0     H66902   8.168   2.888   6.361 -1.1643 -1.2655 -0.0680
  496MOL0     H66903   8.238   2.670   6.452 -1.6578 -3.5712 -2.9023
  496MOL0     H66904   8.323   2.635   6.293  1.4327  2.5080 -2.8343
  496MOL0     H66905   8.387   2.857   6.482  0.5263 -0.2554 -0.1476
  496MOL0     H66906   8.482   2.711   6.461 -0.3589 -1.6484 -2.7075
  496MOL0     H66907   8.443   2.935   6.257  2.3102 -0.1759 -1.9150
  496MOL0     H66908   8.498   2.768   6.219  0.6597  1.8047 -2.5315
  496MOL0     H66909   8.673   2.825   6.389 -5.2949 -4.0678 -1.2582
  496MOL0     H66910   8.688   2.928   6.250  0.6383  0.7326  1.4339
  496MOL0     H66911   8.821   3.121   6.394 -0.1520  1.9061  0.3274
  496MOL0     H66912   8.839   3.342   6.514 -0.0634  0.8147 -0.5207
  496MOL0     H66913   8.680   3.399   6.573  2.4161  2.9266  3.4081
  496MOL0     H66914   8.831   3.428   6.742  1.7544  0.6088 -3.5303
  496MOL0     H66915   8.714   3.286   6.778 -0.9247  0.8200 -1.3176
  496MOL0     H66916   9.003   3.313   6.713  0.7499  1.0574  1.1147
  496MOL0     H66917   8.938   3.155   6.684 -2.1975  1.5331 -1.4440
  496MOL0     H66918   9.030   3.140   6.905 -0.2539  0.8979  2.5059
  496MOL0     H66919   8.851   3.142   6.925 -0.9068  1.7841  1.2708
  496MOL0     H66920   9.043   3.541   7.104 -0.2316  1.0831  1.5550
  496MOL0     H66921   9.101   3.543   7.329  0.2249 -0.4515  0.4903
  496MOL0     H66922   9.101   3.396   7.758  1.7046 -1.8476 -0.6023
  496MOL0     H66923   9.174   3.530   7.966 -1.8399  1.5909 -0.2666
  496MOL0     H66924   9.224   3.824   7.913 -2.7419  0.5197  1.8678
  496MOL0     H66925   9.202   3.737   8.067 -1.9689  0.5092 -2.2794
  496MOL0     H66926   9.267   3.968   8.103  1.2365 -0.5481  3.8403
  496MOL0     H66927   9.393   3.852   8.153  1.5329  1.3028  0.3392
  496MOL0     H66928   9.552   3.936   7.986  0.8654  0.6570 -1.6684
  496MOL0     H66929   9.418   4.001   7.883 -2.6399 -1.5899  0.8585
  496MOL0     H66930   9.476   4.105   8.167 -1.8101  1.8948  1.0992
  496MOL0     H66931   9.392   4.187   8.029  0.6757  1.1858  1.7542
  496MOL0     H66932   9.685   4.093   8.068 -2.7682 -3.2132 -0.7914
  496MOL0     H66933   9.634   4.263   8.072  2.1572 -0.9021  2.2137
  496MOL0     H66934   9.670   4.072   7.842  1.0679  0.4350 -0.9220
  496MOL0     H66935   9.555   4.227   7.832 -1.4396 -0.7314  1.0272
  496MOL0     H66936   9.834   4.224   7.902 -1.0654  0.0508  2.2890
  496MOL0     H66937   9.744   4.372   7.883 -1.2632  0.3600 -1.7666
  496MOL0     H66938   9.885   4.327   7.671  0.9654 -0.3368  2.9865
  496MOL0     H66939   9.777   4.190   7.635  1.5395  0.0015  1.2744
  496MOL0     H66940   9.474   3.718   7.759  1.0200 -1.3017  1.3483
  496MOL0     H66941   9.414   3.580   7.536  2.9473 -0.9746  0.8825
  496MOL0     H66942   9.063   3.113   7.348 -0.8829  0.0511  0.8956
  496MOL0     H66943   8.990   3.096   7.116 -0.6362  1.1837 -2.6479
  496MOL0     H66944   7.531   3.011   6.255 -0.1040 -1.0497  2.3572
  496MOL0     H66945   7.413   3.192   6.356 -1.1881  1.5206 -0.5805
  496MOL0     H66946   7.180   3.570   6.427 -1.1328  0.9161 -0.4887
  496MOL0     H66947   7.075   3.729   6.575 -0.8018 -2.5775 -2.0556
  496MOL0     H66948   7.284   4.046   6.754 -0.7529 -0.1721 -1.0213
  496MOL0     H66949   7.332   3.916   6.871  2.4482  3.4820  1.1317
  496MOL0     H66950   7.148   3.960   7.023 -3.5412  1.9500  3.0200
  496MOL0     H66951   7.048   4.010   6.895  0.8500 -1.1085  0.3712
  496MOL0     H66952   7.289   4.181   6.903  0.0276 -2.4171 -2.0458
  496MOL0     H66953   7.223   4.174   7.068  3.1902 -0.0373 -1.2697
  496MOL0     H66954   7.008   4.265   6.983 -0.9491  0.2781 -1.3346
  496MOL0     H66955   7.135   4.371   6.920  0.3731 -0.2842 -0.5627
  496MOL0     H66956   6.948   4.177   6.592 -2.8501  3.3833  0.0975
  496MOL0     H66957   7.474   3.857   6.693 -0.4166  0.4470 -0.7291
  496MOL0     H66958   7.673   3.703   6.455  1.0472  0.9255  0.2027
  496MOL0     H66959   7.650   3.776   6.602  2.2815  0.5380 -2.3741
  496MOL0     H66960   7.670   3.599   6.596 -0.5336  0.1535 -0.7138
  497MOL0     O66961   7.409   2.942   1.332  0.3042 -1.0294 -0.1646
  497MOL0     C66962   7.482   3.041   1.310 -0.1243 -0.9041  0.0886
  497MOL0     O66963   7.487   3.101   1.192  0.4239 -0.6706  0.4860
  497MOL0     C66964   7.450   3.021   1.088  0.0070 -1.0942  0.3370
  497MOL0     C66965   7.360   3.079   1.009  0.0193  0.7847  0.5515
  497MOL0     C66966   7.296   3.011   0.906 -0.1947  0.2103  0.0206
  497MOL0     C66967   7.326   2.873   0.879 -0.0189  0.4445 -0.5066
  497MOL0     O66968   7.254   2.809   0.782  0.2116  0.7245  0.6108
  497MOL0     C66969   7.339   2.755   0.672 -0.1853 -0.1437 -0.1173
  497MOL0     C66970   7.360   2.607   0.682 -0.4844  0.7814  0.5893
  497MOL0     C66971   7.250   2.531   0.601  0.2402  0.2110  0.1160
  497MOL0     C66972   7.298   2.516   0.451  0.0015  0.3791  0.1111
  497MOL0     C66973   7.202   2.408   0.380 -0.7127  0.2419  0.0450
  497MOL0     C66974   7.259   2.257   0.405 -0.3955  0.2462  0.4313
  497MOL0     C66975   7.151   2.174   0.338  0.2081 -0.0128  0.7930
  497MOL0     C66976   7.177   2.174   0.182 -0.2866 -0.5464 -1.1984
  497MOL0     N66977   7.060   2.112   0.111 -0.3031  0.0111 -0.0189
  497MOL0     C66978   7.021   1.983   0.114  0.4042 -1.0662  0.4460
  497MOL0     C66979   6.921   1.963   0.027  0.2443  0.0194  0.7578
  497MOL0     C66980   6.852   1.835  -0.008  0.5290  0.3725  0.1946
  497MOL0     C66981   6.755   1.772   0.097  0.1651  0.4662 -0.0110
  497MOL0     C66982   6.626   1.854   0.111  1.0233  0.6533  0.1703
  497MOL0     C66983   6.511   1.781   0.180 -0.8288 -0.2843  0.6141
  497MOL0     O66984   6.384   1.844   0.164 -0.1303  0.2000  0.0031
  497MOL0     C66985   6.360   1.969   0.218  0.5993  0.9206 -0.0749
  497MOL0     C66986   6.354   1.996   0.351 -0.0850 -1.1507 -0.1735
  497MOL0     C66987   6.325   2.125   0.410  1.1374 -0.0535  0.4746
  497MOL0     C66988   6.285   2.225   0.321  0.1784 -0.4313  0.3904
  497MOL0     C66989   6.263   2.356   0.367  1.2198  0.4266  0.1271
  497MOL0     O66990   6.297   2.380   0.490 -0.0954  0.7145  0.0852
  497MOL0     C66991   6.337   2.503   0.517 -0.7351  0.0858 -0.1647
  497MOL0     C66992   6.254   2.612   0.513 -0.2590 -0.1187  0.0123
  497MOL0     C66993   6.297   2.740   0.539  0.2406  0.7920  0.2341
  497MOL0     C66994   6.435   2.764   0.557 -0.7403  1.0104  0.2047
  497MOL0     O66995   6.495   2.885   0.582  0.3668 -0.3535  0.2468
  497MOL0     C66996   6.420   2.986   0.648  0.0556 -0.1972  0.0115
  497MOL0     C66997   6.402   3.098   0.545  0.1778 -0.0077 -0.3266
  497MOL0     C66998   6.336   3.225   0.600 -0.2865  0.0053  0.3226
  497MOL0     C66999   6.361   3.349   0.513 -0.0691 -1.0011  0.3055
  497MOL0     C67000   6.503   3.391   0.515  0.5804 -0.1901  0.0799
  497MOL0     C67001   6.549   3.428   0.663  0.4752 -0.0576  0.5225
  497MOL0     C67002   6.656   3.525   0.683  0.0908 -0.9338  0.6523
  497MOL0     C67003   6.791   3.463   0.654  0.2360  0.0391 -0.0394
  497MOL0    Cl67004   6.854   3.354   0.778 -0.1911 -0.2547  0.4853
  497MOL0     C67005   6.524   2.647   0.568  0.1177 -0.6518  0.1794
  497MOL0     C67006   6.473   2.522   0.548  0.1945  0.2219  0.0684
  497MOL0     O67007   6.205   2.430   0.289 -0.0150  0.0979 -0.4652
  497MOL0     C67008   6.292   2.198   0.186 -0.0933 -0.3214 -0.0790
  497MOL0     C67009   6.324   2.073   0.134 -0.1086  0.1523  0.4069
  497MOL0     N67010   6.898   2.084  -0.033  0.6748  0.1189  0.2932
  497MOL0     N67011   6.986   2.170   0.012 -0.0777 -0.2046 -0.8070
  497MOL0     C67012   7.413   2.810   0.970 -0.8797 -0.3604 -1.0071
  497MOL0     C67013   7.482   2.886   1.066 -0.9349 -0.2382  0.9512
  497MOL0     C67014   7.556   3.095   1.421  0.1805  0.4250  0.4553
  497MOL0     C67015   7.494   3.077   1.543 -0.3066  0.4475 -0.1777
  497MOL0     C67016   7.551   3.131   1.659  0.3732  0.8380  0.2118
  497MOL0     C67017   7.676   3.198   1.658  0.4850  0.6101  0.8588
  497MOL0     O67018   7.727   3.241   1.784  0.8850  0.2332  0.7165
  497MOL0     C67019   7.843   3.178   1.829  0.5770 -0.0226  0.0399
  497MOL0     C67020   7.857   3.019   1.826  0.3401  0.9129 -0.8401
  497MOL0     C67021   7.747   2.953   1.922  0.8729  0.3620  0.5919
  497MOL0     C67022   7.719   2.799   1.919 -0.3977 -0.4237 -0.0961
  497MOL0     C67023   7.853   2.735   1.940  0.8188  0.6002  0.2763
  497MOL0     C67024   7.952   2.671   1.971 -0.3939  0.7177 -0.2925
  497MOL0     C67025   7.743   3.187   1.534 -1.1254  0.9236  0.0993
  497MOL0     C67026   7.682   3.149   1.415 -0.6520  0.4917  0.2700
  497MOL0     C67027   7.760   3.155   1.285  0.2287  0.1895  1.3019
  497MOL0     H67028   7.329   3.181   1.029  2.6056  1.5930  0.7276
  497MOL0     H67029   7.221   3.071   0.855 -2.2769 -2.7728 -0.6579
  497MOL0     H67030   7.291   2.785   0.579 -1.2095 -1.3929 -0.0112
  497MOL0     H67031   7.441   2.794   0.684 -0.2519 -0.8592  4.8927
  497MOL0     H67032   7.363   2.569   0.784  0.7624  0.5852  0.5021
  497MOL0     H67033   7.458   2.584   0.638 -1.7386 -2.2484 -0.8875
  497MOL0     H67034   7.148   2.570   0.609 -0.7884 -2.1486 -0.7530
  497MOL0     H67035   7.247   2.428   0.637  0.5458  0.5251  1.0606
  497MOL0     H67036   7.304   2.611   0.398  5.1355 -0.8888 -2.3132
  497MOL0     H67037   7.399   2.472   0.452  0.5530  1.5468  2.6513
  497MOL0     H67038   7.102   2.431   0.420 -0.0928  2.7174  0.3789
  497MOL0     H67039   7.209   2.439   0.276  3.3460  2.5203  0.7738
  497MOL0     H67040   7.354   2.240   0.355 -1.0455 -1.7032 -0.2053
  497MOL0     H67041   7.278   2.235   0.510  0.7898 -1.2677 -0.0750
  497MOL0     H67042   7.050   2.213   0.354 -1.4415 -3.6486  0.0328
  497MOL0     H67043   7.153   2.072   0.376  3.5625  1.3570  5.2489
  497MOL0     H67044   7.169   2.273   0.136 -2.4395  0.6947  1.5813
  497MOL0     H67045   7.275   2.132   0.158  0.6917  1.2220 -0.4415
  497MOL0     H67046   7.077   1.911   0.174  1.6009 -0.6401 -0.1218
  497MOL0     H67047   6.791   1.836  -0.099 -0.2714 -2.2509  0.6232
  497MOL0     H67048   6.934   1.764  -0.022 -2.1437 -3.3527  1.6756
  497MOL0     H67049   6.729   1.675   0.056  1.9744 -2.4341  4.8176
  497MOL0     H67050   6.812   1.758   0.190  1.5922  0.2437 -0.8909
  497MOL0     H67051   6.579   1.873   0.015 -1.9875 -1.9322  0.9474
  497MOL0     H67052   6.644   1.955   0.150  2.1450  0.6211 -0.2305
  497MOL0     H67053   6.539   1.761   0.284  1.4890  1.0831  0.3366
  497MOL0     H67054   6.501   1.680   0.140  0.8373 -0.3373  0.2434
  497MOL0     H67055   6.384   1.907   0.404  2.9032 -0.8067 -1.1366
  497MOL0     H67056   6.314   2.143   0.516  0.9328 -0.0612  0.4555
  497MOL0     H67057   6.150   2.600   0.484 -0.3090  1.5835 -0.6388
  497MOL0     H67058   6.223   2.819   0.543  1.8779  2.4209 -0.3417
  497MOL0     H67059   6.326   2.943   0.686  0.9967 -1.6684  0.7742
  497MOL0     H67060   6.465   3.024   0.740 -1.3223  2.6342 -0.3663
  497MOL0     H67061   6.497   3.124   0.498 -0.5223  1.4322 -1.0057
  497MOL0     H67062   6.335   3.064   0.465 -0.0957  1.4352 -0.7299
  497MOL0     H67063   6.228   3.218   0.613  0.0031 -1.6005  2.2941
  497MOL0     H67064   6.365   3.255   0.701  4.0335  3.3518 -1.5429
  497MOL0     H67065   6.302   3.431   0.556  4.6969  1.6635  2.5830
  497MOL0     H67066   6.330   3.331   0.410 -1.5423 -1.8175  0.8475
  497MOL0     H67067   6.522   3.482   0.459  3.6073 -1.0186 -0.4349
  497MOL0     H67068   6.581   3.330   0.468  1.9703  1.5379  0.0416
  497MOL0     H67069   6.460   3.465   0.715 -1.4587 -3.1242 -0.2868
  497MOL0     H67070   6.563   3.338   0.724  0.8274  1.4965  2.8518
  497MOL0     H67071   6.651   3.547   0.790 -2.8312  2.4689  0.0182
  497MOL0     H67072   6.631   3.621   0.636  0.9345 -1.0291 -0.0221
  497MOL0     H67073   6.796   3.409   0.560  2.4218 -0.3307  0.2352
  497MOL0     H67074   6.873   3.533   0.634  0.1281  0.4427  0.8859
  497MOL0     H67075   6.627   2.665   0.600 -1.0974  2.9813  2.7176
  497MOL0     H67076   6.546   2.443   0.549 -0.7656 -0.6885 -0.0879
  497MOL0     H67077   6.269   2.274   0.111  0.2790  2.9472  2.8300
  497MOL0     H67078   6.334   2.049   0.029 -1.5159  1.0790  0.0345
  497MOL0     H67079   7.443   2.707   0.953 -0.9940 -0.5445 -0.1304
  497MOL0     H67080   7.556   2.831   1.123  0.1993 -1.8037 -1.8142
  497MOL0     H67081   7.392   3.042   1.545  0.0145 -0.6083 -1.0658
  497MOL0     H67082   7.496   3.136   1.753  0.8419 -2.3037  0.7775
  497MOL0     H67083   7.866   3.198   1.934 -3.0919 -4.4081  2.0193
  497MOL0     H67084   7.919   3.211   1.758 -0.5867 -1.4249 -1.9583
  497MOL0     H67085   7.954   2.988   1.865 -0.5125 -1.6007 -0.4863
  497MOL0     H67086   7.853   2.991   1.720  4.7195  1.3067 -1.2803
  497MOL0     H67087   7.653   3.003   1.897  0.9896  0.4350  0.2999
  497MOL0     H67088   7.768   2.977   2.026  1.5427  1.0256  0.3060
  497MOL0     H67089   7.646   2.771   1.995  1.8158  1.2031  2.8439
  497MOL0     H67090   7.693   2.782   1.814  1.7843  0.7352 -0.8938
  497MOL0     H67091   8.041   2.614   1.985 -0.4204  0.0942 -2.4241
  497MOL0     H67092   7.845   3.223   1.525 -0.6429  0.2846  2.2971
  497MOL0     H67093   7.866   3.183   1.289  0.8046 -0.6762 -3.0817
  497MOL0     H67094   7.747   3.058   1.236  0.9926  0.7512 -0.0737
  497MOL0     H67095   7.713   3.220   1.211 -1.7444 -0.2143  2.1234
  498MOL0     O67096   2.312   3.150   4.889  0.0647  0.1482  0.2419
  498MOL0     C67097   2.316   3.061   4.808 -1.3347 -0.2045  0.3735
  498MOL0     O67098   2.259   2.938   4.825 -0.0004 -0.5442 -0.4724
  498MOL0     C67099   2.226   2.907   4.955 -0.3030  0.0879  0.2289
  498MOL0     C67100   2.333   2.868   5.047 -0.3615  0.1768 -0.6208
  498MOL0     C67101   2.308   2.839   5.179  1.0130 -0.4210  0.6075
  498MOL0     C67102   2.174   2.843   5.227 -0.0579  0.8381  0.2839
  498MOL0     O67103   2.145   2.830   5.358 -0.4549  0.5347  0.5396
  498MOL0     C67104   2.172   2.945   5.438  0.2415  0.4161  0.1164
  498MOL0     C67105   2.132   2.908   5.584 -0.2718  0.5815  0.5900
  498MOL0     C67106   2.197   2.985   5.694  0.1450 -0.3141 -0.6409
  498MOL0     C67107   2.116   3.112   5.719  0.1014 -0.7462  0.5164
  498MOL0     C67108   2.154   3.182   5.851 -0.2088  0.2120 -0.0150
  498MOL0     C67109   2.305   3.192   5.890  0.6765  0.5207 -0.0183
  498MOL0     C67110   2.307   3.280   6.017  1.7242  0.0428 -0.0157
  498MOL0     C67111   2.446   3.330   6.039 -0.0205  0.2970 -0.1661
  498MOL0     N67112   2.496   3.426   5.933  0.3741  0.1909  0.1906
  498MOL0     C67113   2.469   3.559   5.942  0.3997  0.2208  0.2596
  498MOL0     C67114   2.510   3.615   5.825 -1.0837  0.6609 -0.5679
  498MOL0     C67115   2.519   3.765   5.794  0.1287  0.8021  0.0751
  498MOL0     C67116   2.626   3.822   5.891  0.4355  0.5889 -0.1173
  498MOL0     C67117   2.771   3.787   5.858 -0.9610  0.8011  1.2485
  498MOL0     C67118   2.813   3.868   5.742  0.0460 -0.9071 -0.0986
  498MOL0     O67119   2.945   3.826   5.725  0.4285  0.6623  0.6460
  498MOL0     C67120   3.021   3.881   5.618  0.1749  0.0432  1.6082
  498MOL0     C67121   2.962   3.946   5.507  0.5138  0.3623 -0.7190
  498MOL0     C67122   3.038   3.971   5.393 -0.9446 -0.3362  0.0930
  498MOL0     C67123   3.179   3.945   5.396  0.0579  0.6565 -0.7241
  498MOL0     C67124   3.260   3.992   5.275  0.6876  0.2129  0.5550
  498MOL0     O67125   3.385   3.948   5.277 -0.1844  0.1405 -0.2280
  498MOL0     C67126   3.473   4.010   5.189  0.3669 -0.6728  0.7887
  498MOL0     C67127   3.589   4.065   5.233 -0.7277 -0.3443 -0.1327
  498MOL0     C67128   3.673   4.121   5.134  0.5252  0.3660 -1.0273
  498MOL0     C67129   3.660   4.097   4.990  0.3658 -0.1743  0.4375
  498MOL0     O67130   3.753   4.131   4.896 -0.3339  0.0420  0.5465
  498MOL0     C67131   3.800   4.028   4.812  0.0977 -0.0651  0.4736
  498MOL0     C67132   3.938   4.070   4.757 -0.0926 -0.3575  0.0137
  498MOL0     C67133   4.031   4.105   4.883 -0.2537 -0.0343  0.7813
  498MOL0     C67134   4.100   3.986   4.959  0.5142  0.1620  1.2584
  498MOL0     C67135   4.193   4.019   5.080  0.4519 -0.5784  0.4374
  498MOL0     C67136   4.312   3.925   5.093  0.9831 -0.7759 -0.4318
  498MOL0     C67137   4.419   3.996   5.189 -0.2995  0.4114  1.1065
  498MOL0     C67138   4.519   3.888   5.240  0.1093  0.3774 -0.3544
  498MOL0    Cl67139   4.628   3.824   5.121  0.4806 -0.5989 -0.2667
  498MOL0     C67140   3.542   4.036   4.952  0.0474 -0.5258  0.0014
  498MOL0     C67141   3.449   3.998   5.049 -0.0255 -0.2480  0.1015
  498MOL0     O67142   3.198   4.041   5.184  0.0236  0.1877  0.0398
  498MOL0     C67143   3.224   3.861   5.498  0.0420 -0.4233  0.6973
  498MOL0     C67144   3.150   3.843   5.619 -0.5822 -0.4477 -0.3979
  498MOL0     N67145   2.551   3.500   5.741  0.2749 -0.3790  0.8808
  498MOL0     N67146   2.556   3.399   5.820 -0.1462 -0.0109  0.2817
  498MOL0     C67147   2.072   2.881   5.151 -0.1096 -0.4069  0.2723
  498MOL0     C67148   2.098   2.920   5.014 -0.3094  0.0009 -0.5775
  498MOL0     C67149   2.383   3.088   4.677  0.2937 -0.2317 -0.4873
  498MOL0     C67150   2.443   3.214   4.671  0.0271 -0.9170 -0.4359
  498MOL0     C67151   2.512   3.239   4.546 -0.7448  0.3758 -0.0283
  498MOL0     C67152   2.528   3.143   4.443 -0.5758  0.3292  0.3319
  498MOL0     O67153   2.587   3.179   4.331 -0.3781 -0.0661 -0.2644
  498MOL0     C67154   2.592   3.084   4.226 -0.0490  0.4978 -0.0882
  498MOL0     C67155   2.659   3.147   4.102  0.4246 -0.6413  0.0863
  498MOL0     C67156   2.563   3.202   3.998  0.4475 -1.1088  0.2654
  498MOL0     C67157   2.509   3.353   4.042 -1.0357 -0.5302 -0.8119
  498MOL0     C67158   2.394   3.356   4.139  0.3687 -0.7348 -0.7767
  498MOL0     C67159   2.318   3.371   4.236 -0.4353  0.7815  0.4924
  498MOL0     C67160   2.469   3.019   4.463 -0.0103 -0.3893 -0.1766
  498MOL0     C67161   2.400   2.987   4.576  0.1656  0.4988  0.4448
  498MOL0     C67162   2.371   2.845   4.584  0.3145  0.1539 -0.2864
  498MOL0     H67163   2.437   2.861   5.018 -0.0864  1.2237  0.0479
  498MOL0     H67164   2.387   2.802   5.243  1.6104 -0.0936  0.0797
  498MOL0     H67165   2.276   2.976   5.426 -0.7888  4.3333 -0.0389
  498MOL0     H67166   2.120   3.036   5.408  1.0708  0.5883 -0.8837
  498MOL0     H67167   2.141   2.801   5.602 -0.5143  0.4120 -0.2165
  498MOL0     H67168   2.023   2.916   5.588 -0.5695 -0.9252 -1.9324
  498MOL0     H67169   2.303   3.011   5.690 -0.2727  2.2130  1.7828
  498MOL0     H67170   2.183   2.922   5.782  1.3411 -2.1892 -1.7117
  498MOL0     H67171   2.149   3.177   5.637  0.2907  1.4561  2.2507
  498MOL0     H67172   2.007   3.101   5.712 -0.1721  0.7630  1.7453
  498MOL0     H67173   2.110   3.282   5.854 -2.7454 -0.8432  1.1145
  498MOL0     H67174   2.103   3.128   5.932 -0.5223  2.1875  1.1635
  498MOL0     H67175   2.337   3.090   5.911 -2.4047 -0.6881 -0.6291
  498MOL0     H67176   2.375   3.222   5.812  1.2226  0.9973  0.6389
  498MOL0     H67177   2.264   3.219   6.097 -2.4018 -0.7020 -2.5125
  498MOL0     H67178   2.231   3.357   6.001  0.2269 -0.8742  2.2158
  498MOL0     H67179   2.435   3.375   6.139 -1.9386  0.3508 -0.3491
  498MOL0     H67180   2.515   3.246   6.045  1.1023  1.2258  0.2598
  498MOL0     H67181   2.419   3.612   6.022 -0.9675  0.0393 -0.4508
  498MOL0     H67182   2.544   3.792   5.691 -2.7351  5.6959  0.3335
  498MOL0     H67183   2.417   3.803   5.801  0.0245  0.4828  0.3268
  498MOL0     H67184   2.622   3.931   5.900  0.5718  0.4190  4.4558
  498MOL0     H67185   2.611   3.781   5.992  2.9354 -0.1325  0.0070
  498MOL0     H67186   2.776   3.681   5.832 -3.3999  1.2157 -1.4565
  498MOL0     H67187   2.837   3.813   5.941  1.1035 -0.1920 -0.0073
  498MOL0     H67188   2.803   3.976   5.759 -2.0787 -0.9820 -0.6562
  498MOL0     H67189   2.755   3.855   5.651  1.2399 -0.6357 -0.9258
  498MOL0     H67190   2.857   3.970   5.493  1.4655  3.9249 -3.3683
  498MOL0     H67191   2.995   4.022   5.307 -0.0071  1.8737  0.8453
  498MOL0     H67192   3.606   4.069   5.340  0.0403  1.2185 -0.2858
  498MOL0     H67193   3.767   4.151   5.180 -0.1903 -1.1060  1.6284
  498MOL0     H67194   3.806   3.937   4.872 -1.4911 -0.4354  0.1281
  498MOL0     H67195   3.731   4.004   4.730  3.3672 -2.8875 -1.7335
  498MOL0     H67196   3.974   3.993   4.688  0.6990  0.8523 -0.9692
  498MOL0     H67197   3.927   4.158   4.693 -1.4056  0.1144  0.8543
  498MOL0     H67198   4.115   4.160   4.840 -1.9331  1.0320 -1.3163
  498MOL0     H67199   3.977   4.154   4.965 -0.2904 -0.6642  1.1427
  498MOL0     H67200   4.159   3.937   4.880  1.5481  1.2874  1.2977
  498MOL0     H67201   4.029   3.913   4.997 -1.2285 -0.2463 -2.3578
  498MOL0     H67202   4.137   4.026   5.173 -1.6848  0.0841 -0.8149
  498MOL0     H67203   4.226   4.120   5.053  1.4845 -0.8665  0.5842
  498MOL0     H67204   4.288   3.826   5.131 -0.0251  0.5767  2.7548
  498MOL0     H67205   4.368   3.907   5.000  1.5589  0.9703 -0.4593
  498MOL0     H67206   4.371   4.034   5.280 -0.8934 -1.7808  1.7685
  498MOL0     H67207   4.464   4.083   5.142 -2.0650  0.8930  0.1896
  498MOL0     H67208   4.560   3.926   5.334 -2.9029  0.3471  1.1203
  498MOL0     H67209   4.459   3.801   5.271  0.3315 -1.1121 -3.6970
  498MOL0     H67210   3.506   4.041   4.849 -1.4399 -2.4971  0.3483
  498MOL0     H67211   3.352   3.962   5.016 -0.2285  1.1857 -0.9489
  498MOL0     H67212   3.324   3.820   5.495  0.1445 -0.7363 -5.3243
  498MOL0     H67213   3.196   3.801   5.708 -3.6646 -2.8411  0.2463
  498MOL0     H67214   1.971   2.885   5.191 -0.7849  1.1123 -1.4397
  498MOL0     H67215   2.015   2.966   4.961 -1.5831 -0.2219  1.1338
  498MOL0     H67216   2.438   3.285   4.753 -0.3467 -3.2896  1.7112
  498MOL0     H67217   2.559   3.335   4.525 -0.8122  0.6179  0.8994
  498MOL0     H67218   2.489   3.062   4.195  0.0416 -0.8096  0.4432
  498MOL0     H67219   2.644   2.990   4.248 -0.8617  0.3772  1.4205
  498MOL0     H67220   2.723   3.066   4.065  0.8443 -0.2416 -0.0561
  498MOL0     H67221   2.722   3.233   4.124  0.4755 -1.0325  1.6028
  498MOL0     H67222   2.489   3.131   3.961  1.0292 -0.7501 -1.6992
  498MOL0     H67223   2.624   3.225   3.910 -0.8255  0.4844 -0.2557
  498MOL0     H67224   2.590   3.425   4.055 -0.7592 -1.1061  1.0578
  498MOL0     H67225   2.473   3.400   3.950  3.9520 -0.2313 -2.9244
  498MOL0     H67226   2.250   3.378   4.318 -1.7894 -1.6097 -0.3308
  498MOL0     H67227   2.477   2.946   4.384 -2.0678 -0.0049 -0.8065
  498MOL0     H67228   2.415   2.784   4.505 -1.4659 -2.1166  0.3646
  498MOL0     H67229   2.411   2.797   4.674  1.8749  0.0513 -0.9977
  498MOL0     H67230   2.262   2.835   4.578  0.2884  0.7714 -1.0417
  499MOL0     O67231   4.457   0.933  10.482  0.0151 -0.3265  0.8271
  499MOL0     C67232   4.368   0.861  10.522 -0.7837  0.4259 -0.5505
  499MOL0     O67233   4.244   0.846  10.471 -0.4497  0.4334 -0.5635
  499MOL0     C67234   4.225   0.874  10.339 -0.0970  0.0382 -0.2363
  499MOL0     C67235   4.325   0.841  10.243 -0.2255  0.2200  0.2674
  499MOL0     C67236   4.306   0.862  10.103  0.7592 -0.7747  0.7024
  499MOL0     C67237   4.190   0.924  10.050 -0.1117 -0.6873  0.3155
  499MOL0     O67238   4.190   0.961   9.922 -0.1194 -0.5441  0.0323
  499MOL0     C67239   4.121   1.080   9.887  0.0961  0.6120 -1.1530
  499MOL0     C67240   3.995   1.039   9.792  1.4422 -0.9587 -0.3230
  499MOL0     C67241   3.925   1.159   9.728 -0.7220  1.1397 -0.2566
  499MOL0     C67242   3.860   1.245   9.836  0.2743  0.2088  0.7862
  499MOL0     C67243   3.767   1.351   9.780 -0.3593 -0.6386 -0.1879
  499MOL0     C67244   3.707   1.455   9.883  0.5810  0.1610  0.5240
  499MOL0     C67245   3.805   1.539   9.962 -1.1040  0.0652  0.0535
  499MOL0     C67246   3.738   1.642  10.054 -0.0151  0.4487  0.4466
  499MOL0     N67247   3.613   1.688  10.005 -0.4707  0.3722 -0.4058
  499MOL0     C67248   3.586   1.807   9.934  0.8464  0.6967 -1.6475
  499MOL0     C67249   3.457   1.800   9.895  0.9993 -0.7997 -0.8629
  499MOL0     C67250   3.387   1.911   9.826 -0.5690 -0.4368  0.0960
  499MOL0     C67251   3.301   2.005   9.915  0.1514 -0.7336  0.1144
  499MOL0     C67252   3.268   2.116   9.826  0.2546 -0.1677  0.6900
  499MOL0     C67253   3.178   2.214   9.872  0.8659 -0.8964 -0.0217
  499MOL0     O67254   3.157   2.320   9.776  0.6417 -0.3174 -0.4457
  499MOL0     C67255   3.024   2.329   9.739  0.2300 -0.9074 -1.0487
  499MOL0     C67256   2.989   2.297   9.609 -0.1427 -0.0839 -0.0139
  499MOL0     C67257   2.861   2.309   9.570  0.6378 -0.4577  0.3436
  499MOL0     C67258   2.767   2.384   9.651  0.3168  0.7077  0.3228
  499MOL0     C67259   2.631   2.417   9.608  0.3256 -0.6174  0.4445
  499MOL0     O67260   2.556   2.498   9.683  0.5887  0.4444  0.0511
  499MOL0     C67261   2.443   2.552   9.630  0.2401  0.5746 -0.0384
  499MOL0     C67262   2.332   2.481   9.561 -0.9789  0.3621 -0.3902
  499MOL0     C67263   2.223   2.546   9.502  0.1917  0.2640 -0.4320
  499MOL0     C67264   2.217   2.686   9.518  0.0484 -0.1123 -0.0398
  499MOL0     O67265   2.124   2.765   9.456  0.5189 -0.0396  0.8470
  499MOL0     C67266   2.026   2.835   9.536  0.3768 -1.1607 -0.0385
  499MOL0     C67267   1.937   2.731   9.614 -0.2061  0.2077  0.0049
  499MOL0     C67268   1.820   2.793   9.681 -0.5804 -0.5115  0.4324
  499MOL0     C67269   1.732   2.696   9.766 -0.6940 -0.5425 -0.2919
  499MOL0     C67270   1.603   2.770   9.813 -0.5471 -0.1348  0.8854
  499MOL0     C67271   1.488   2.774   9.701  0.0399 -0.8292  0.1657
  499MOL0     C67272   1.380   2.892   9.717  0.6255  0.7923  0.0767
  499MOL0     C67273   1.305   2.906   9.844 -0.7406 -0.0718  0.2863
  499MOL0    Cl67274   1.176   3.023   9.815  0.2066  0.2496  0.0085
  499MOL0     C67275   2.316   2.759   9.594  0.1961  1.4683 -0.2226
  499MOL0     C67276   2.423   2.687   9.651 -1.0258 -0.1382  0.3178
  499MOL0     O67277   2.596   2.385   9.497 -0.0668  0.5172 -0.1799
  499MOL0     C67278   2.810   2.433   9.777 -0.2051  0.7202 -0.3480
  499MOL0     C67279   2.932   2.393   9.827 -0.6689 -0.2746 -0.4666
  499MOL0     N67280   3.400   1.686   9.940  0.1808 -1.0243  0.3473
  499MOL0     N67281   3.492   1.629  10.008 -0.1249 -0.5271 -0.8926
  499MOL0     C67282   4.086   0.945  10.144  0.6372  0.3128 -0.9810
  499MOL0     C67283   4.104   0.915  10.284  0.4657 -0.8579 -0.2155
  499MOL0     C67284   4.408   0.768  10.641 -0.0475 -0.7739  0.1744
  499MOL0     C67285   4.330   0.651  10.665 -1.2524 -0.1572 -0.1967
  499MOL0     C67286   4.369   0.555  10.760 -0.4906  0.2470  0.0645
  499MOL0     C67287   4.492   0.567  10.823  0.6168 -0.8700 -0.6379
  499MOL0     O67288   4.529   0.480  10.926  0.1498 -0.4510  0.5237
  499MOL0     C67289   4.432   0.444  11.029 -0.3066  0.3464  0.1104
  499MOL0     C67290   4.497   0.379  11.147  0.5044  0.5063 -0.7863
  499MOL0     C67291   4.455   0.233  11.165  0.5099 -0.3990  0.4990
  499MOL0     C67292   4.535   0.147  11.069 -0.1159  0.0137 -0.3765
  499MOL0     C67293   4.482   0.015  11.073 -0.0588 -0.0486 -0.0670
  499MOL0     C67294   4.461  -0.098  11.070  0.0343 -0.1197  0.5447
  499MOL0     C67295   4.574   0.680  10.803  0.2917 -0.3185  0.2582
  499MOL0     C67296   4.532   0.782  10.715  0.6997 -0.2955 -0.8192
  499MOL0     C67297   4.612   0.906  10.705 -0.0213  0.2768 -0.2527
  499MOL0     H67298   4.415   0.786  10.271  0.1992 -0.0972 -1.5747
  499MOL0     H67299   4.382   0.832  10.032  2.7831  3.3109  0.8381
  499MOL0     H67300   4.089   1.149   9.966  1.6668  1.1328 -0.9393
  499MOL0     H67301   4.192   1.133   9.823 -0.5755  0.2376 -2.2295
  499MOL0     H67302   3.932   0.965   9.842  3.0463 -1.9112  0.3426
  499MOL0     H67303   4.045   0.987   9.710  0.4752 -0.9129 -0.9640
  499MOL0     H67304   3.851   1.113   9.662 -1.2247  2.5369 -0.7047
  499MOL0     H67305   3.987   1.231   9.673  2.7259 -0.1018  1.6735
  499MOL0     H67306   3.804   1.182   9.906 -0.7350 -0.1600 -0.3141
  499MOL0     H67307   3.939   1.304   9.883  0.2302 -0.5015  1.7862
  499MOL0     H67308   3.819   1.415   9.706  2.4126 -1.5473  0.8432
  499MOL0     H67309   3.683   1.297   9.735 -2.3279  0.4022  2.0319
  499MOL0     H67310   3.646   1.521   9.820 -1.4093 -2.4345 -0.4345
  499MOL0     H67311   3.636   1.411   9.955  0.2345 -1.0561 -0.5212
  499MOL0     H67312   3.858   1.598   9.887 -0.4608 -0.7292 -0.1310
  499MOL0     H67313   3.870   1.471  10.017 -1.4465 -1.3520 -1.2227
  499MOL0     H67314   3.713   1.583  10.143  1.2112 -1.1460 -0.1935
  499MOL0     H67315   3.808   1.724  10.073  1.8198 -0.9841  0.2221
  499MOL0     H67316   3.659   1.887   9.929 -0.0316  1.6933  0.2299
  499MOL0     H67317   3.471   1.973   9.794 -1.7243  0.5682 -1.1363
  499MOL0     H67318   3.336   1.884   9.733  0.8862 -1.2725 -0.4947
  499MOL0     H67319   3.214   1.946   9.946  0.2904 -1.5805 -1.0453
  499MOL0     H67320   3.357   2.052   9.996 -1.8633  4.6123 -1.2340
  499MOL0     H67321   3.220   2.083   9.733 -3.4948  2.3671  1.5274
  499MOL0     H67322   3.366   2.160   9.806  0.6676  0.0113  2.9501
  499MOL0     H67323   3.229   2.263   9.955 -0.2039 -0.6558  0.5024
  499MOL0     H67324   3.087   2.162   9.903  0.4968 -2.1898 -2.9517
  499MOL0     H67325   3.064   2.241   9.553 -0.7994  0.3873 -1.4245
  499MOL0     H67326   2.843   2.263   9.472  4.9472  2.1231 -1.9641
  499MOL0     H67327   2.330   2.374   9.543 -2.1126  0.2800  0.1174
  499MOL0     H67328   2.147   2.497   9.444  0.3446  2.5684 -2.7363
  499MOL0     H67329   2.069   2.905   9.609  0.2364  2.0081 -2.7933
  499MOL0     H67330   1.970   2.897   9.467  3.5146  1.7498 -0.2637
  499MOL0     H67331   1.908   2.640   9.561 -3.1832  0.8914  0.3023
  499MOL0     H67332   2.002   2.698   9.696 -0.4873  2.4588  1.2126
  499MOL0     H67333   1.870   2.848   9.761  1.0895 -3.9699  2.0271
  499MOL0     H67334   1.765   2.850   9.606 -0.0647  0.4626  0.7803
  499MOL0     H67335   1.785   2.672   9.858 -2.0454 -2.6189  0.0044
  499MOL0     H67336   1.704   2.603   9.715 -0.1337 -1.6387  1.3458
  499MOL0     H67337   1.633   2.872   9.839 -1.0534  0.2149  0.1215
  499MOL0     H67338   1.552   2.720   9.896 -2.0140  2.1703  1.4781
  499MOL0     H67339   1.544   2.800   9.611  1.8079  1.4363  1.8071
  499MOL0     H67340   1.441   2.675   9.700  0.3934 -1.1110  2.8297
  499MOL0     H67341   1.306   2.897   9.637  0.6252 -1.7220 -0.1774
  499MOL0     H67342   1.441   2.982   9.704  1.8055 -0.1610 -1.4110
  499MOL0     H67343   1.279   2.800   9.854  0.4389 -0.3696  0.3480
  499MOL0     H67344   1.381   2.941   9.915  0.3199 -0.2135 -0.7422
  499MOL0     H67345   2.297   2.866   9.604  0.4223  1.5014 -0.1302
  499MOL0     H67346   2.509   2.726   9.704  1.0454  1.7030 -3.9822
  499MOL0     H67347   2.739   2.480   9.845 -1.5637 -0.5075 -0.8523
  499MOL0     H67348   2.964   2.425   9.925  1.7790 -0.4019 -1.1728
  499MOL0     H67349   3.991   0.992  10.120 -0.0155  0.1474  1.1277
  499MOL0     H67350   4.017   0.942  10.343  2.0409  1.6105  1.1628
  499MOL0     H67351   4.238   0.629  10.611  0.8302  0.3918 -4.3763
  499MOL0     H67352   4.308   0.467  10.766 -2.0756  1.2030 -1.3971
  499MOL0     H67353   4.361   0.375  10.981  1.5295  0.5475 -3.1965
  499MOL0     H67354   4.366   0.529  11.046 -0.4096  1.1435 -3.4048
  499MOL0     H67355   4.462   0.430  11.237  1.4710 -1.0611  0.5561
  499MOL0     H67356   4.607   0.374  11.148  0.4787 -1.7674  0.9364
  499MOL0     H67357   4.347   0.228  11.149  0.4101 -2.3915  1.4967
  499MOL0     H67358   4.482   0.217  11.270  2.2875  2.2642  0.5477
  499MOL0     H67359   4.530   0.178  10.964 -1.2346 -0.4118 -0.4694
  499MOL0     H67360   4.637   0.140  11.106 -1.3435 -1.4860  3.1627
  499MOL0     H67361   4.433  -0.199  11.089  0.1133 -0.1297  0.6080
  499MOL0     H67362   4.665   0.687  10.861  1.5670 -0.7798 -1.6219
  499MOL0     H67363   4.549   0.994  10.688 -1.5545  0.7802  5.7495
  499MOL0     H67364   4.667   0.920  10.799 -1.3441 -1.3403  0.8218
  499MOL0     H67365   4.677   0.891  10.619  1.5763  1.0140  0.7658
  500MOL0     O67366  10.292   3.027   4.896  0.4055  0.4598  0.1722
  500MOL0     C67367  10.202   2.955   4.861 -0.1498  0.5693  0.2048
  500MOL0     O67368  10.210   2.819   4.887 -0.5938  0.6617  0.4722
  500MOL0     C67369  10.341   2.768   4.863 -0.2105 -0.2902  0.2661
  500MOL0     C67370  10.377   2.646   4.922  0.0675  0.1000 -0.1917
  500MOL0     C67371  10.499   2.585   4.903  0.0248 -1.3167  0.1731
  500MOL0     C67372  10.596   2.638   4.819  0.4020 -0.0015  0.6589
  500MOL0     O67373  10.720   2.577   4.820 -0.3293 -0.0480 -0.2604
  500MOL0     C67374  10.731   2.433   4.849 -0.0889 -0.8326  0.8771
  500MOL0     C67375  10.874   2.381   4.801  0.4178 -0.2845 -0.2935
  500MOL0     C67376  10.873   2.228   4.778  0.2862 -0.5098  0.0310
  500MOL0     C67377  10.834   2.184   4.633  0.1439 -0.3961  0.2940
  500MOL0     C67378  10.819   2.041   4.611  0.3410 -0.0395  0.2371
  500MOL0     C67379  10.843   1.995   4.462  0.3685 -0.2778 -0.0514
  500MOL0     C67380  10.747   2.055   4.348 -1.4727 -0.0810  0.0338
  500MOL0     C67381  10.725   1.947   4.238  0.7136 -0.5540 -0.8353
  500MOL0     N67382  10.663   2.005   4.116  0.4485  0.1868  0.3520
  500MOL0     C67383  10.529   2.031   4.101 -0.3781  0.8322  0.8538
  500MOL0     C67384  10.520   2.085   3.974 -0.8228 -0.5346 -0.0807
  500MOL0     C67385  10.390   2.133   3.921 -0.0313  0.0322 -0.3666
  500MOL0     C67386  10.361   2.284   3.917  0.0243 -1.0909  0.1578
  500MOL0     C67387  10.453   2.355   3.815  0.2184 -0.6596  0.4491
  500MOL0     C67388  10.408   2.497   3.801 -0.8021 -0.8919 -0.2946
  500MOL0     O67389  10.431   2.572   3.926 -0.2961  0.1339  0.6273
  500MOL0     C67390  10.369   2.691   3.914 -0.2508 -0.4485  0.1582
  500MOL0     C67391  10.378   2.788   3.807  1.3913  0.5563 -0.4399
  500MOL0     C67392  10.305   2.908   3.793 -1.2789  0.0902 -0.3824
  500MOL0     C67393  10.236   2.943   3.905  0.2444 -0.2268  0.9595
  500MOL0     C67394  10.166   3.075   3.904 -0.0802  0.7231  0.1912
  500MOL0     O67395  10.087   3.109   4.010 -0.0119 -0.0308  0.5228
  500MOL0     C67396  10.004   3.219   3.990  0.1706  0.1779  0.3099
  500MOL0     C67397   9.904   3.214   3.895  0.3634 -0.3588  0.2768
  500MOL0     C67398   9.802   3.304   3.887 -0.5546  0.4924 -0.5874
  500MOL0     C67399   9.804   3.414   3.970 -0.4005  0.0366  0.1307
  500MOL0     O67400   9.700   3.498   3.948  0.0195  0.1587 -0.2932
  500MOL0     C67401   9.725   3.639   3.963 -0.1177  0.6194  0.3880
  500MOL0     C67402   9.597   3.714   3.952 -0.1473  0.6772  0.1225
  500MOL0     C67403   9.603   3.858   3.924 -0.5471  0.0317 -0.6508
  500MOL0     C67404   9.460   3.922   3.910  1.3186  1.0133  0.1841
  500MOL0     C67405   9.468   4.066   3.938 -0.1728  0.8587 -0.0922
  500MOL0     C67406   9.465   4.103   4.088  0.5773 -0.0994  0.1526
  500MOL0     C67407   9.459   4.257   4.108  0.7561  0.8192  0.2922
  500MOL0     C67408   9.475   4.282   4.256 -0.4151 -0.0720  0.0942
  500MOL0    Cl67409   9.437   4.456   4.282  0.1878 -0.6158 -0.3907
  500MOL0     C67410   9.901   3.424   4.067  0.7200  0.0063  0.3422
  500MOL0     C67411   9.998   3.324   4.083  1.0790 -0.5299  0.5399
  500MOL0     O67412  10.174   3.140   3.800  0.3227 -0.7151 -0.8978
  500MOL0     C67413  10.233   2.864   4.019  1.0179  0.2719  0.7081
  500MOL0     C67414  10.298   2.740   4.022  0.2135  0.7988 -0.9508
  500MOL0     N67415  10.640   2.085   3.913 -0.5701  0.3293  0.4089
  500MOL0     N67416  10.721   2.033   3.999 -0.1461  0.5201  0.6511
  500MOL0     C67417  10.558   2.746   4.736 -0.0312 -0.0812  0.1082
  500MOL0     C67418  10.431   2.817   4.763  0.4254 -0.2098 -0.3716
  500MOL0     C67419  10.077   3.014   4.833 -0.0499 -0.3096 -0.0286
  500MOL0     C67420  10.050   3.147   4.859  1.1009  0.0821 -0.1826
  500MOL0     C67421   9.934   3.209   4.817 -0.1161  0.7633 -0.4909
  500MOL0     C67422   9.847   3.137   4.736 -0.0897  0.1154 -0.8602
  500MOL0     O67423   9.757   3.205   4.665 -0.1242  0.1530  0.3485
  500MOL0     C67424   9.620   3.166   4.672 -0.3763  0.1649 -0.8248
  500MOL0     C67425   9.546   3.292   4.710  0.7368 -0.0500 -0.5104
  500MOL0     C67426   9.582   3.363   4.846 -0.5098  0.0851  0.0740
  500MOL0     C67427   9.460   3.444   4.894 -0.4091 -0.6686  0.2013
  500MOL0     C67428   9.421   3.566   4.822 -0.2412 -0.9128  0.4106
  500MOL0     C67429   9.411   3.671   4.772  0.0401  0.1867  0.5807
  500MOL0     C67430   9.871   3.001   4.713 -1.0515  0.4415 -0.5634
  500MOL0     C67431   9.986   2.933   4.760  0.0226  0.5894  0.6303
  500MOL0     C67432  10.015   2.807   4.683 -1.1106 -0.0513 -0.0105
  500MOL0     H67433  10.325   2.591   5.000  1.0180  1.6151  1.6224
  500MOL0     H67434  10.526   2.507   4.975 -0.7484  1.5748  3.9131
  500MOL0     H67435  10.719   2.405   4.954  1.7386  0.5201  1.4968
  500MOL0     H67436  10.655   2.383   4.787  1.4247 -3.9849  1.3778
  500MOL0     H67437  10.947   2.416   4.875 -1.1406  0.9062  0.7397
  500MOL0     H67438  10.894   2.432   4.706  0.4706 -0.4776 -0.3869
  500MOL0     H67439  10.802   2.185   4.850  1.1286  1.5035  2.1940
  500MOL0     H67440  10.974   2.186   4.787 -1.3608 -5.5266 -1.2189
  500MOL0     H67441  10.745   2.236   4.596 -0.4088 -1.4591  0.0790
  500MOL0     H67442  10.920   2.209   4.571 -1.7253  1.6388 -1.6657
  500MOL0     H67443  10.891   1.987   4.672  0.4208 -0.2821 -0.0710
  500MOL0     H67444  10.718   2.021   4.650  1.0080  1.9397  3.2860
  500MOL0     H67445  10.947   1.998   4.427 -0.1716 -1.0345 -1.8174
  500MOL0     H67446  10.834   1.887   4.474  4.8874 -0.9963 -1.1013
  500MOL0     H67447  10.782   2.147   4.301  4.2556 -0.9525  1.8507
  500MOL0     H67448  10.646   2.070   4.388 -1.3644 -1.5061  0.9382
  500MOL0     H67449  10.821   1.899   4.216  1.9013  1.2912 -0.0454
  500MOL0     H67450  10.665   1.864   4.275 -0.7741  0.7495 -0.2033
  500MOL0     H67451  10.455   2.015   4.178 -1.0368 -0.3960  0.0091
  500MOL0     H67452  10.371   2.095   3.820 -3.0298 -1.7255  0.7245
  500MOL0     H67453  10.306   2.092   3.977 -0.7921  5.5449  3.2864
  500MOL0     H67454  10.260   2.313   3.886 -0.0413 -0.4373  0.9781
  500MOL0     H67455  10.373   2.322   4.019  3.1858  0.8678 -0.7730
  500MOL0     H67456  10.460   2.300   3.720 -1.5317 -1.8185  0.9357
  500MOL0     H67457  10.553   2.356   3.859  0.6794 -2.2943 -0.4609
  500MOL0     H67458  10.304   2.505   3.767 -1.2283  0.0768  1.1530
  500MOL0     H67459  10.474   2.539   3.725 -0.7028 -0.0464  0.2408
  500MOL0     H67460  10.440   2.767   3.721  3.0386  1.1205  0.5779
  500MOL0     H67461  10.312   2.964   3.700  4.0488  2.0105  0.8105
  500MOL0     H67462   9.892   3.132   3.825 -0.0597 -1.7169  1.8695
  500MOL0     H67463   9.724   3.291   3.812 -1.5358 -0.0258  0.4910
  500MOL0     H67464   9.786   3.661   4.051  3.6948  0.9015 -2.1096
  500MOL0     H67465   9.789   3.662   3.877  0.7173 -0.0561  0.8073
  500MOL0     H67466   9.539   3.661   3.876  1.1189 -0.1961 -0.2725
  500MOL0     H67467   9.541   3.711   4.046  2.1572 -0.0813  1.5647
  500MOL0     H67468   9.660   3.915   3.997  3.4625  0.6665 -3.8949
  500MOL0     H67469   9.647   3.879   3.826  0.4110 -0.2855 -0.2939
  500MOL0     H67470   9.384   3.879   3.976  0.8490  2.0254  0.3207
  500MOL0     H67471   9.427   3.898   3.808  2.7690  2.0797 -0.5572
  500MOL0     H67472   9.378   4.117   3.904 -0.0647 -0.4689 -2.6085
  500MOL0     H67473   9.554   4.110   3.886  0.8601  0.2668  1.0446
  500MOL0     H67474   9.374   4.056   4.128 -1.0435  1.6269 -1.3370
  500MOL0     H67475   9.554   4.067   4.141  1.5190  0.3224 -1.0990
  500MOL0     H67476   9.356   4.294   4.101 -0.9930 -3.3206  1.1094
  500MOL0     H67477   9.531   4.311   4.046  0.5453 -0.0084 -0.7052
  500MOL0     H67478   9.419   4.222   4.327  1.6650 -2.3688 -0.0658
  500MOL0     H67479   9.581   4.270   4.282 -0.5977 -0.7583  0.5315
  500MOL0     H67480   9.901   3.505   4.139  0.1497  1.3622 -1.1302
  500MOL0     H67481  10.048   3.314   4.179  0.6645 -1.4487  0.6677
  500MOL0     H67482  10.184   2.906   4.106 -0.9128 -0.5532  0.0867
  500MOL0     H67483  10.291   2.682   4.114  1.5077  2.5086  0.2975
  500MOL0     H67484  10.638   2.790   4.678 -2.0566  1.2849 -1.8251
  500MOL0     H67485  10.417   2.916   4.719 -1.9046 -0.3690 -0.1403
  500MOL0     H67486  10.125   3.205   4.911  0.9320  1.0162 -0.9520
  500MOL0     H67487   9.910   3.313   4.834  0.2594  0.9862 -1.2851
  500MOL0     H67488   9.610   3.096   4.756  4.5655  0.6197  0.4627
  500MOL0     H67489   9.573   3.121   4.584 -4.0583  0.4383  0.8411
  500MOL0     H67490   9.442   3.258   4.713  0.9375 -1.2217 -3.5215
  500MOL0     H67491   9.557   3.369   4.633  1.2029 -0.2467 -0.6414
  500MOL0     H67492   9.666   3.432   4.832 -0.5548  0.1916  0.3202
  500MOL0     H67493   9.601   3.288   4.923  0.9558 -0.1388 -0.4717
  500MOL0     H67494   9.378   3.372   4.906 -2.0711  1.2174  0.8560
  500MOL0     H67495   9.480   3.482   4.995  0.6064 -1.5569  0.3539
  500MOL0     H67496   9.388   3.767   4.730  0.3970  0.2531  0.5331
  500MOL0     H67497   9.798   2.943   4.657  0.7533 -0.8154 -1.7202
  500MOL0     H67498   9.996   2.723   4.750  0.8882  0.8691  1.8481
  500MOL0     H67499   9.941   2.791   4.603 -3.4102 -1.3814  2.2323
  500MOL0     H67500  10.116   2.806   4.642 -1.1748  0.4750 -0.1902
  501MOL0     O67501   5.590   1.671  11.248 -0.1144 -0.6555 -0.1956
  501MOL0     C67502   5.515   1.614  11.170 -0.3764  0.8066 -0.2915
  501MOL0     O67503   5.529   1.484  11.132 -0.2051 -0.3528 -0.0050
  501MOL0     C67504   5.619   1.390  11.185  0.1781 -0.2967 -0.3429
  501MOL0     C67505   5.663   1.397  11.328 -0.4521  0.9941  0.2280
  501MOL0     C67506   5.745   1.295  11.372  0.8343  0.2333 -0.1058
  501MOL0     C67507   5.788   1.194  11.276  0.4352  1.0152 -0.1506
  501MOL0     O67508   5.860   1.091  11.328  0.2221  0.2193  0.3622
  501MOL0     C67509   5.796   0.965  11.319  0.0708  0.1166 -0.1125
  501MOL0     C67510   5.910   0.870  11.363 -0.3427  0.3230  0.2590
  501MOL0     C67511   6.022   0.856  11.259  0.7319 -0.1702 -0.0444
  501MOL0     C67512   6.133   0.767  11.305 -0.0689  0.2975 -0.0665
  501MOL0     C67513   6.268   0.771  11.222  0.7273 -0.1934  0.8737
  501MOL0     C67514   6.378   0.681  11.282  0.4165 -0.0459 -0.3180
  501MOL0     C67515   6.427   0.710  11.422  0.4737  0.3084 -0.1194
  501MOL0     C67516   6.569   0.660  11.453  0.2574  0.4360 -0.2000
  501MOL0     N67517   6.601   0.705  11.586 -0.6357  0.4269  0.0007
  501MOL0     C67518   6.527   0.671  11.701 -0.2403 -0.7827 -0.0009
  501MOL0     C67519   6.562   0.766  11.792  0.4052 -0.2552 -0.1603
  501MOL0     C67520   6.477   0.819  11.902  0.8546  0.4595 -0.4862
  501MOL0     C67521   6.367   0.908  11.850  0.1252 -0.2997 -0.0498
  501MOL0     C67522   6.267   0.953  11.972  0.0385 -0.2122 -0.7818
  501MOL0     C67523   6.331   1.073  12.046 -0.5251 -0.0937 -0.7964
  501MOL0     O67524   6.332   1.184  11.955  0.6983  0.1703  0.4460
  501MOL0     C67525   6.397   1.294  12.007 -0.6009 -1.2672  0.1411
  501MOL0     C67526   6.482   1.300  12.113 -0.1092 -0.0142  0.4634
  501MOL0     C67527   6.531   1.425  12.149 -0.0399 -0.0726 -0.7029
  501MOL0     C67528   6.502   1.551  12.090  0.0153 -0.6157  0.3188
  501MOL0     C67529   6.543   1.679  12.143  0.1132 -0.2431  0.4362
  501MOL0     O67530   6.637   1.671  12.239  0.2140  0.6286 -0.3193
  501MOL0     C67531   6.647   1.774  12.336 -0.6981 -0.3120  0.4717
  501MOL0     C67532   6.540   1.822  12.413 -0.0528  0.4785 -0.3300
  501MOL0     C67533   6.556   1.927  12.501 -0.0222  0.1812  0.5049
  501MOL0     C67534   6.674   1.990  12.506 -0.6015 -0.1134  0.9868
  501MOL0     O67535   6.679   2.093  12.592 -0.0709 -0.2388 -0.2629
  501MOL0     C67536   6.808   2.153  12.632  0.2313  0.4993  0.1668
  501MOL0     C67537   6.777   2.251  12.741 -0.4478  0.0601  0.7787
  501MOL0     C67538   6.737   2.165  12.863  0.0021  0.9818 -0.4858
  501MOL0     C67539   6.755   2.234  12.992  0.0305 -0.0019 -0.1245
  501MOL0     C67540   6.635   2.320  13.024  0.1805  0.4834 -0.5307
  501MOL0     C67541   6.636   2.382  13.171  0.4236 -0.4532  0.9156
  501MOL0     C67542   6.754   2.473  13.189  0.7714  0.0913 -0.1410
  501MOL0     C67543   6.880   2.395  13.243 -0.0763  0.1643  0.2314
  501MOL0    Cl67544   6.830   2.295  13.379  0.3395  0.2313  0.4872
  501MOL0     C67545   6.788   1.942  12.439  1.3213 -1.4076 -0.4495
  501MOL0     C67546   6.770   1.841  12.348 -0.4240 -0.3283 -0.4741
  501MOL0     O67547   6.484   1.787  12.105  0.4585  0.2997 -0.0219
  501MOL0     C67548   6.402   1.536  11.987 -0.1001  0.1824 -0.9512
  501MOL0     C67549   6.367   1.413  11.934 -0.1557  0.3620 -0.1872
  501MOL0     N67550   6.661   0.851  11.741  0.0248  0.0389 -0.0581
  501MOL0     N67551   6.679   0.815  11.616  0.1057 -0.2104 -0.0511
  501MOL0     C67552   5.736   1.188  11.142 -0.7619 -0.1922 -0.2621
  501MOL0     C67553   5.650   1.297  11.098 -0.1458  0.3885  0.9906
  501MOL0     C67554   5.407   1.689  11.110  0.2629  0.6103  0.1167
  501MOL0     C67555   5.372   1.816  11.156 -0.2534 -0.6367  0.3214
  501MOL0     C67556   5.256   1.887  11.107 -0.1537  0.4239 -0.5367
  501MOL0     C67557   5.172   1.834  11.021  0.3549 -0.0313  0.0095
  501MOL0     O67558   5.069   1.926  10.974 -0.1095 -0.1466 -0.1911
  501MOL0     C67559   4.948   1.865  10.931 -0.2998 -0.1916 -0.0147
  501MOL0     C67560   4.834   1.951  10.904 -0.3711 -0.6607 -0.2154
  501MOL0     C67561   4.815   2.040  11.025 -0.1741 -0.4065 -0.0095
  501MOL0     C67562   4.681   2.117  10.996  0.4987 -0.0709 -0.4523
  501MOL0     C67563   4.647   2.177  10.870  0.3350 -0.8031  0.8297
  501MOL0     C67564   4.608   2.225  10.762  0.0699  0.2396  0.5361
  501MOL0     C67565   5.204   1.714  10.958  0.5754  0.7912 -0.6510
  501MOL0     C67566   5.325   1.642  11.003  0.0904  1.1720  0.2795
  501MOL0     C67567   5.353   1.526  10.915 -0.3008 -0.4452  0.1484
  501MOL0     H67568   5.617   1.454  11.409 -1.9598  0.0740  0.0541
  501MOL0     H67569   5.775   1.279  11.476  1.8425 -0.1679 -0.4466
  501MOL0     H67570   5.712   0.952  11.388  2.3891 -1.9844  2.5915
  501MOL0     H67571   5.770   0.928  11.219 -1.0974 -0.7912  0.4986
  501MOL0     H67572   5.860   0.774  11.381  1.0465 -0.3287  0.7324
  501MOL0     H67573   5.950   0.904  11.458  2.3707  1.0977 -1.0798
  501MOL0     H67574   6.066   0.949  11.223 -1.8716  1.1090 -0.1546
  501MOL0     H67575   5.978   0.810  11.170  2.2824  0.1179 -0.9970
  501MOL0     H67576   6.164   0.785  11.408  0.1701 -0.4832  0.0055
  501MOL0     H67577   6.087   0.668  11.300 -1.5651  1.0139 -1.8171
  501MOL0     H67578   6.257   0.741  11.118  1.0182  1.8939  0.1951
  501MOL0     H67579   6.306   0.874  11.223  0.4129  0.1045 -2.9680
  501MOL0     H67580   6.338   0.579  11.287  1.6399 -0.5828 -1.2099
  501MOL0     H67581   6.462   0.703  11.216 -0.2590  0.3857 -1.0473
  501MOL0     H67582   6.349   0.670  11.488 -2.9540 -0.0503 -3.9396
  501MOL0     H67583   6.422   0.818  11.435  2.1226  0.1311  2.8282
  501MOL0     H67584   6.565   0.551  11.454  1.8110  0.3460  1.0424
  501MOL0     H67585   6.648   0.684  11.381  1.6780 -1.5918  0.5904
  501MOL0     H67586   6.442   0.603  11.692 -0.5669 -0.2147 -1.6779
  501MOL0     H67587   6.431   0.732  11.950  1.6590 -0.4098 -1.2711
  501MOL0     H67588   6.534   0.866  11.983  0.0290 -2.4914  2.0455
  501MOL0     H67589   6.413   0.997  11.806 -0.4440  0.2452  0.4352
  501MOL0     H67590   6.315   0.851  11.772  2.2628  0.6245 -2.2829
  501MOL0     H67591   6.248   0.865  12.034 -1.9102 -0.8178 -2.1719
  501MOL0     H67592   6.174   0.989  11.928 -2.4240 -2.9290  1.7937
  501MOL0     H67593   6.433   1.049  12.075  0.1051  1.1106 -1.9256
  501MOL0     H67594   6.255   1.093  12.123 -0.4923 -2.4726 -0.0615
  501MOL0     H67595   6.526   1.213  12.162 -0.6800 -1.0361 -0.7638
  501MOL0     H67596   6.585   1.432  12.243 -0.4921  0.7742 -0.4998
  501MOL0     H67597   6.443   1.774  12.420 -0.3641  1.2454  1.0153
  501MOL0     H67598   6.481   1.969  12.566  1.2869  1.6978  1.0937
  501MOL0     H67599   6.882   2.079  12.665 -1.0856 -0.6302  0.6966
  501MOL0     H67600   6.844   2.213  12.548 -1.2102  1.0242 -0.1061
  501MOL0     H67601   6.855   2.323  12.767 -1.7033  0.9027  2.4646
  501MOL0     H67602   6.695   2.312  12.703 -0.2436  1.5040  2.5152
  501MOL0     H67603   6.634   2.130  12.853 -1.0041  3.7246 -0.7886
  501MOL0     H67604   6.806   2.083  12.881  1.1690  2.0583  0.1234
  501MOL0     H67605   6.844   2.299  12.993  0.0879  0.2499  4.8787
  501MOL0     H67606   6.771   2.165  13.075 -0.1522  0.8374  0.6273
  501MOL0     H67607   6.541   2.265  13.028  1.1564 -1.1853  1.5062
  501MOL0     H67608   6.630   2.404  12.954  2.8946  0.4972 -0.8029
  501MOL0     H67609   6.545   2.443  13.180  1.2840  0.9328  0.6214
  501MOL0     H67610   6.628   2.307  13.250  1.4446 -0.2719  1.2110
  501MOL0     H67611   6.735   2.549  13.266  1.5449  1.9536 -1.7113
  501MOL0     H67612   6.779   2.527  13.097 -2.0834  0.3084 -0.8899
  501MOL0     H67613   6.929   2.335  13.167 -1.0529 -1.1935  0.6513
  501MOL0     H67614   6.954   2.465  13.285 -0.8933  1.1705  0.0478
  501MOL0     H67615   6.890   1.980  12.438  2.1955 -3.6358 -0.6688
  501MOL0     H67616   6.842   1.812  12.272 -0.3172 -2.0400  0.2352
  501MOL0     H67617   6.358   1.628  11.952 -2.7134 -0.0347  1.4321
  501MOL0     H67618   6.311   1.387  11.845  0.3427  1.2076 -0.7681
  501MOL0     H67619   5.763   1.110  11.072  2.5202  0.5057  0.0936
  501MOL0     H67620   5.611   1.303  10.996 -1.8209 -1.9425  1.3860
  501MOL0     H67621   5.429   1.860  11.238 -2.5959  0.0669  1.6922
  501MOL0     H67622   5.242   1.992  11.130 -2.3116  0.2684 -0.9792
  501MOL0     H67623   4.918   1.779  10.992 -0.5509  0.2602  0.5114
  501MOL0     H67624   4.979   1.823  10.835  4.2060  2.2375  0.1023
  501MOL0     H67625   4.743   1.895  10.882 -0.6146 -0.3010 -0.1280
  501MOL0     H67626   4.850   2.017  10.818 -1.3491  1.0653  0.8709
  501MOL0     H67627   4.903   2.103  11.045  0.5858 -1.2085 -0.6892
  501MOL0     H67628   4.805   1.973  11.111 -0.7373 -0.7764 -0.3568
  501MOL0     H67629   4.600   2.049  11.026  0.1638  1.0117  1.2050
  501MOL0     H67630   4.682   2.189  11.078 -1.7265  1.5069 -1.7155
  501MOL0     H67631   4.585   2.267  10.666 -3.6878 -0.2533  1.0938
  501MOL0     H67632   5.139   1.670  10.883 -1.7269 -0.9023  2.1385
  501MOL0     H67633   5.317   1.432  10.958 -0.3424  0.1224  1.4173
  501MOL0     H67634   5.308   1.544  10.817 -0.6777  2.2398  0.7163
  501MOL0     H67635   5.460   1.520  10.896 -0.3523 -1.8381  0.2477
  502MOL0     O67636   9.662   8.720  10.049  0.7858 -0.3198  0.5886
  502MOL0     C67637   9.776   8.728  10.079  0.4308 -0.1623 -0.0965
  502MOL0     O67638   9.861   8.820  10.030 -0.5682  0.2778  0.4780
  502MOL0     C67639   9.868   8.866   9.893  0.2815  0.2108 -0.3877
  502MOL0     C67640   9.959   8.962   9.879  0.2569 -0.5788  0.1230
  502MOL0     C67641   9.998   9.021   9.753 -0.6660  0.3085 -0.5083
  502MOL0     C67642   9.926   8.980   9.637 -1.1005  0.5207 -0.1274
  502MOL0     O67643   9.936   9.048   9.518  0.0607  0.3091  0.3518
  502MOL0     C67644   9.887   9.177   9.529 -0.4589 -0.5427 -0.0353
  502MOL0     C67645   9.860   9.215   9.385  0.0163 -0.5576  0.8036
  502MOL0     C67646   9.812   9.349   9.378  0.4257 -0.5165  0.4582
  502MOL0     C67647   9.782   9.393   9.234 -0.0945  0.0567  0.2446
  502MOL0     C67648   9.752   9.543   9.220 -0.4410  0.0767  1.2663
  502MOL0     C67649   9.625   9.576   9.299  0.5067 -0.7819 -0.7318
  502MOL0     C67650   9.542   9.690   9.229 -0.4387  0.1963 -0.4136
  502MOL0     C67651   9.413   9.710   9.305  0.6099  0.6032  0.3315
  502MOL0     N67652   9.439   9.741   9.445  0.0511 -0.7517  0.9280
  502MOL0     C67653   9.409   9.657   9.553  0.2588 -0.0020 -0.6965
  502MOL0     C67654   9.438   9.728   9.667 -0.3093 -0.8494 -0.3198
  502MOL0     C67655   9.409   9.679   9.809  0.2621  0.0386  1.0140
  502MOL0     C67656   9.362   9.526   9.822 -0.2664  0.1632  0.2442
  502MOL0     C67657   9.301   9.486   9.960 -0.4785 -0.2149 -0.7271
  502MOL0     C67658   9.402   9.506  10.077  0.0186  0.5918  0.0775
  502MOL0     O67659   9.386   9.628  10.148 -0.1622  1.1371  0.0346
  502MOL0     C67660   9.310   9.621  10.261 -0.1443 -0.0371 -0.4897
  502MOL0     C67661   9.219   9.721  10.267  0.9125 -0.4487  1.1545
  502MOL0     C67662   9.124   9.737  10.363 -0.0501  0.1947 -0.1593
  502MOL0     C67663   9.121   9.640  10.463  0.1751  0.2753  0.6684
  502MOL0     C67664   9.016   9.651  10.567  0.5206 -0.6716 -1.2001
  502MOL0     O67665   8.956   9.779  10.575  0.6535 -0.5459 -0.4120
  502MOL0     C67666   8.864   9.794  10.677  0.6297  0.0792 -0.5383
  502MOL0     C67667   8.738   9.849  10.645  0.8270 -0.4939 -0.0972
  502MOL0     C67668   8.632   9.842  10.731  0.6901  0.5731  0.3257
  502MOL0     C67669   8.654   9.804  10.865  0.3268  1.0119 -0.9379
  502MOL0     O67670   8.535   9.809  10.941 -0.0418 -0.2563 -0.6849
  502MOL0     C67671   8.551   9.760  11.075  0.7521 -1.0490  0.2788
  502MOL0     C67672   8.410   9.761  11.128  0.2304 -0.3463 -0.6210
  502MOL0     C67673   8.402   9.662  11.246  0.8983 -0.1842 -0.4410
  502MOL0     C67674   8.514   9.697  11.347  0.5576  0.4951  1.4706
  502MOL0     C67675   8.516   9.610  11.480  0.1208 -0.3663  0.4981
  502MOL0     C67676   8.403   9.648  11.575  0.1344  0.1822  0.0324
  502MOL0     C67677   8.409   9.793  11.624 -0.4936  0.1175  0.7725
  502MOL0     C67678   8.305   9.808  11.733  0.2971  0.3393 -0.0453
  502MOL0    Cl67679   8.345   9.698  11.875 -0.2507  0.2483 -0.1317
  502MOL0     C67680   8.786   9.771  10.912  0.6041  0.7717  0.5180
  502MOL0     C67681   8.883   9.756  10.809 -0.2677  0.5884 -0.4931
  502MOL0     O67682   8.978   9.550  10.630 -0.6490 -0.0426  0.4607
  502MOL0     C67683   9.218   9.541  10.474  0.1059  0.1428  0.7352
  502MOL0     C67684   9.307   9.528  10.364 -0.1833  0.0607  0.0333
  502MOL0     N67685   9.475   9.848   9.620  0.2819 -1.0988 -0.3910
  502MOL0     N67686   9.480   9.858   9.498  0.0731 -0.8139  0.1849
  502MOL0     C67687   9.828   8.876   9.657  0.5113 -0.9600  1.0028
  502MOL0     C67688   9.795   8.817   9.785 -0.1338 -0.4638 -0.0561
  502MOL0     C67689   9.819   8.637  10.192  1.0268  0.2539  0.0453
  502MOL0     C67690   9.734   8.633  10.309  0.4855 -0.0643  0.5272
  502MOL0     C67691   9.769   8.553  10.416 -0.2279  0.1418 -0.6788
  502MOL0     C67692   9.903   8.493  10.420  0.2629  0.2145  0.2083
  502MOL0     O67693   9.959   8.431  10.521  0.1281  0.6810 -0.5142
  502MOL0     C67694   9.923   8.468  10.657  0.0487 -0.8405 -0.5599
  502MOL0     C67695  10.044   8.437  10.743 -0.2865  0.0713 -0.3925
  502MOL0     C67696  10.015   8.444  10.893 -0.2359  0.3703 -0.9787
  502MOL0     C67697  10.037   8.315  10.972 -0.2702  0.8186 -0.6338
  502MOL0     C67698   9.945   8.293  11.090 -0.2191 -0.6780  0.3855
  502MOL0     C67699   9.885   8.281  11.199  0.6809 -0.1015  1.0150
  502MOL0     C67700   9.987   8.504  10.306  0.8733  0.1011  0.5525
  502MOL0     C67701   9.948   8.575  10.193  0.4164  0.3251  0.1505
  502MOL0     C67702  10.044   8.588  10.083  0.2923 -0.7912 -1.1873
  502MOL0     H67703  10.002   9.003   9.970 -2.4898  1.4086  0.6610
  502MOL0     H67704  10.070   9.103   9.748  2.5133 -2.3678 -3.1626
  502MOL0     H67705   9.796   9.189   9.589 -2.9153  1.1351 -3.7272
  502MOL0     H67706   9.963   9.249   9.563 -0.6617 -0.8283  1.0834
  502MOL0     H67707   9.776   9.155   9.348 -0.4201  0.6917 -0.3290
  502MOL0     H67708   9.944   9.214   9.314 -0.1151 -1.0170  0.6475
  502MOL0     H67709   9.903   9.399   9.411  0.3893 -1.1569  1.5856
  502MOL0     H67710   9.730   9.372   9.447 -0.0405  1.0092 -0.5658
  502MOL0     H67711   9.860   9.369   9.161 -1.3809  3.1614 -2.4037
  502MOL0     H67712   9.694   9.339   9.198 -1.5516  0.8120  2.4954
  502MOL0     H67713   9.833   9.608   9.254 -1.6398  1.4946  1.4924
  502MOL0     H67714   9.746   9.565   9.113 -1.6830  1.3925  1.5652
  502MOL0     H67715   9.561   9.487   9.300 -1.5621  0.5152 -3.6357
  502MOL0     H67716   9.643   9.605   9.403 -0.2583  0.8007 -1.0175
  502MOL0     H67717   9.526   9.662   9.124 -0.0076 -1.2809 -0.1051
  502MOL0     H67718   9.596   9.785   9.236  1.5802 -0.9449  0.2935
  502MOL0     H67719   9.353   9.789   9.260  0.5949 -0.4420 -1.5468
  502MOL0     H67720   9.350   9.622   9.301 -2.8319  2.1994  6.1668
  502MOL0     H67721   9.377   9.553   9.553  0.1268  0.0378 -0.1006
  502MOL0     H67722   9.499   9.703   9.866  1.3452 -2.5901  0.5385
  502MOL0     H67723   9.336   9.743   9.859  0.8847  2.7449 -1.2665
  502MOL0     H67724   9.280   9.515   9.751 -1.0609 -0.7749  1.2826
  502MOL0     H67725   9.451   9.468   9.797  0.2713  0.9102  0.3667
  502MOL0     H67726   9.275   9.380   9.957  2.0747 -0.9951  0.6274
  502MOL0     H67727   9.211   9.548   9.972 -0.0887  0.1184  0.7343
  502MOL0     H67728   9.506   9.494  10.044 -1.2800 -3.1733 -3.6527
  502MOL0     H67729   9.391   9.423  10.148 -0.7779  2.3644  2.1305
  502MOL0     H67730   9.204   9.785  10.181  0.0774  1.1972  2.4380
  502MOL0     H67731   9.054   9.819  10.359  2.7781  2.9819  1.9634
  502MOL0     H67732   8.707   9.887  10.548  1.2285  0.9855  0.3193
  502MOL0     H67733   8.532   9.876  10.706  1.0694 -0.5239 -3.2036
  502MOL0     H67734   8.581   9.655  11.072 -1.0556 -1.5894 -0.7947
  502MOL0     H67735   8.619   9.824  11.132 -0.5941  1.6650 -1.0018
  502MOL0     H67736   8.393   9.862  11.166 -0.7147 -1.4876  2.2654
  502MOL0     H67737   8.342   9.722  11.050 -1.3171 -1.8032  1.3427
  502MOL0     H67738   8.310   9.666  11.305 -0.2344  1.2115 -2.2180
  502MOL0     H67739   8.414   9.559  11.212 -1.6111 -0.0852 -1.8355
  502MOL0     H67740   8.518   9.805  11.363  3.1004  0.8328 -0.6578
  502MOL0     H67741   8.609   9.672  11.298 -1.2541 -0.6127 -1.7723
  502MOL0     H67742   8.609   9.628  11.535  0.5629  0.5789 -0.5219
  502MOL0     H67743   8.508   9.505  11.451 -2.3587 -0.5896  1.6971
  502MOL0     H67744   8.305   9.642  11.526  0.8708 -1.7199 -1.3197
  502MOL0     H67745   8.406   9.579  11.660 -2.6305 -0.2429 -0.1220
  502MOL0     H67746   8.380   9.862  11.545 -1.0187  1.7553  2.3214
  502MOL0     H67747   8.511   9.826  11.650 -0.3246  0.8200 -0.6859
  502MOL0     H67748   8.301   9.907  11.779  0.5872 -0.2000  1.1884
  502MOL0     H67749   8.208   9.782  11.691  0.2766  0.2209  0.0709
  502MOL0     H67750   8.815   9.744  11.013  1.7419 -1.9322 -0.4179
  502MOL0     H67751   8.972   9.704  10.844 -1.1271  1.1128  2.7854
  502MOL0     H67752   9.226   9.475  10.560  0.1782 -1.4577 -0.4601
  502MOL0     H67753   9.381   9.448  10.361 -0.4446 -0.2001  0.4796
  502MOL0     H67754   9.761   8.843   9.578 -1.4312  0.2880  2.0502
  502MOL0     H67755   9.714   8.745   9.779 -0.7737  0.3157 -5.3416
  502MOL0     H67756   9.641   8.689  10.301  0.6985  0.2933  0.5552
  502MOL0     H67757   9.705   8.545  10.503  0.9965  0.6510  0.2958
  502MOL0     H67758   9.835   8.407  10.681 -0.7047  0.9367  1.5789
  502MOL0     H67759   9.900   8.571  10.685 -1.7671 -1.1076 -0.9308
  502MOL0     H67760  10.134   8.495  10.718  0.4396  0.3809  2.5741
  502MOL0     H67761  10.084   8.339  10.716  1.3767  0.2100  1.3970
  502MOL0     H67762   9.913   8.477  10.913  0.9284  2.4008  2.2944
  502MOL0     H67763  10.072   8.520  10.948 -1.1813 -1.5554  3.0227
  502MOL0     H67764  10.041   8.228  10.907 -2.9312  1.4585 -1.7573
  502MOL0     H67765  10.139   8.305  11.010 -0.8343 -1.9348  0.3487
  502MOL0     H67766   9.839   8.283  11.296 -4.0087 -0.8740 -0.9280
  502MOL0     H67767  10.087   8.462  10.304  0.0178 -2.0522 -2.5761
  502MOL0     H67768   9.997   8.553   9.990 -3.1306 -5.3496  1.8641
  502MOL0     H67769  10.093   8.684  10.062 -0.6633 -0.8666 -4.3691
  502MOL0     H67770  10.128   8.522  10.103  2.6878  2.6464  1.2636
  503MOL0     O67771   6.539   1.649  10.476 -0.2731 -0.6509 -0.2475
  503MOL0     C67772   6.644   1.581  10.461 -0.0359 -0.1587 -0.3047
  503MOL0     O67773   6.698   1.566  10.337 -0.0380  0.3000 -0.2543
  503MOL0     C67774   6.661   1.634  10.220 -1.4509  0.3201  0.0739
  503MOL0     C67775   6.638   1.761  10.214  0.7498  0.2540  0.4316
  503MOL0     C67776   6.622   1.837  10.096  1.0021  0.1275 -0.0353
  503MOL0     C67777   6.595   1.759   9.978 -0.3078 -0.1564 -0.1658
  503MOL0     O67778   6.565   1.833   9.864  0.2359  0.4451 -0.3450
  503MOL0     C67779   6.577   1.757   9.740 -0.1298 -0.2957  0.3915
  503MOL0     C67780   6.582   1.865   9.621  0.0050  0.1728  0.1379
  503MOL0     C67781   6.722   1.927   9.630 -0.7774 -0.3761  0.4913
  503MOL0     C67782   6.741   2.034   9.517 -0.1091 -0.4452  0.2355
  503MOL0     C67783   6.878   2.117   9.538 -1.4808  0.1539  0.1693
  503MOL0     C67784   7.003   2.025   9.541  0.3886  0.7048  0.8387
  503MOL0     C67785   7.133   2.102   9.512 -0.5975 -0.1707 -0.9607
  503MOL0     C67786   7.168   2.145   9.375 -1.3270  0.3278 -0.0538
  503MOL0     N67787   7.305   2.192   9.341 -0.9579  0.3691  0.2307
  503MOL0     C67788   7.357   2.179   9.216  0.1476 -0.2858 -0.8916
  503MOL0     C67789   7.465   2.266   9.214  0.3806  0.8026 -0.4543
  503MOL0     C67790   7.534   2.296   9.095 -0.8733 -0.3524  0.6005
  503MOL0     C67791   7.673   2.225   9.081  0.1411 -0.1007  0.0460
  503MOL0     C67792   7.663   2.080   9.044  0.2286 -0.3481  0.7414
  503MOL0     C67793   7.800   2.004   9.061  0.0276  0.7022 -0.1407
  503MOL0     O67794   7.808   1.886   8.974  0.3615  0.0940  0.1414
  503MOL0     C67795   7.850   1.775   9.038 -0.2244  0.4370  1.0745
  503MOL0     C67796   7.762   1.672   9.048  0.4914  0.0016 -0.1536
  503MOL0     C67797   7.806   1.549   9.105 -0.4302 -0.1107  0.2455
  503MOL0     C67798   7.932   1.536   9.153 -0.4774  0.0217 -0.0567
  503MOL0     C67799   7.975   1.402   9.201  0.7530  0.3066 -0.0869
  503MOL0     O67800   8.084   1.394   9.280  0.4647 -0.3635 -0.4011
  503MOL0     C67801   8.139   1.274   9.309 -1.2534 -0.8543 -0.0974
  503MOL0     C67802   8.179   1.265   9.446  0.7397  0.0621 -1.4272
  503MOL0     C67803   8.260   1.158   9.491  0.9267 -0.1277  0.1404
  503MOL0     C67804   8.293   1.056   9.393 -0.0614 -1.1997 -0.6556
  503MOL0     O67805   8.345   0.944   9.447  0.1069 -0.3153  0.2415
  503MOL0     C67806   8.359   0.822   9.375 -0.2273  0.0835  0.6603
  503MOL0     C67807   8.237   0.737   9.382 -0.9832  0.1251  0.0577
  503MOL0     C67808   8.112   0.792   9.300  0.0957  0.6322  0.2158
  503MOL0     C67809   7.988   0.716   9.327  0.8480 -0.5867 -0.5824
  503MOL0     C67810   7.869   0.772   9.235 -1.0710 -0.8600  0.0505
  503MOL0     C67811   7.740   0.742   9.296  0.6384 -0.5388  0.6043
  503MOL0     C67812   7.616   0.837   9.241 -0.7519  0.5453  0.3141
  503MOL0     C67813   7.656   0.983   9.235  0.6573  0.1638  0.0251
  503MOL0    Cl67814   7.502   1.073   9.195 -0.3822 -0.3884 -0.1206
  503MOL0     C67815   8.264   1.072   9.256  0.2652 -0.3205  0.2691
  503MOL0     C67816   8.182   1.179   9.214 -0.4464  0.9789  0.8335
  503MOL0     O67817   7.899   1.307   9.182  0.3336 -0.3964  0.3021
  503MOL0     C67818   8.022   1.645   9.150  0.3793  0.7833  0.3598
  503MOL0     C67819   7.978   1.760   9.092 -0.1369 -0.1261 -0.3741
  503MOL0     N67820   7.485   2.306   9.350  0.2185 -0.0318 -0.0802
  503MOL0     N67821   7.389   2.264   9.422  0.0282  0.5285  0.2853
  503MOL0     C67822   6.607   1.617   9.988 -0.3707 -0.8926  0.6984
  503MOL0     C67823   6.660   1.558  10.101  1.3769 -0.2638  0.1555
  503MOL0     C67824   6.713   1.529  10.582 -0.1879  0.2959  1.1936
  503MOL0     C67825   6.853   1.510  10.572  0.4321 -0.2705  0.2400
  503MOL0     C67826   6.927   1.456  10.683 -1.4470  0.1092 -0.0051
  503MOL0     C67827   6.864   1.405  10.797  0.5893 -0.6956  0.7875
  503MOL0     O67828   6.945   1.342  10.891 -0.1741 -0.2539  0.1760
  503MOL0     C67829   6.873   1.269  10.996 -0.5143 -0.1558  0.3227
  503MOL0     C67830   6.985   1.197  11.081  0.4971 -0.9217  0.8781
  503MOL0     C67831   7.077   1.095  11.015 -1.4786  1.0480  0.3562
  503MOL0     C67832   7.181   1.030  11.120  0.5273  0.4747  0.8067
  503MOL0     C67833   7.262   1.119  11.196 -0.4335  0.5652 -0.2600
  503MOL0     C67834   7.353   1.181  11.252 -1.3181 -0.2484 -0.6420
  503MOL0     C67835   6.726   1.422  10.805  0.3048  0.1464  0.4356
  503MOL0     C67836   6.652   1.489  10.708 -0.2525 -0.0608  0.1386
  503MOL0     C67837   6.501   1.503  10.734  0.4691 -0.2560 -0.5951
  503MOL0     H67838   6.631   1.807  10.312 -0.8966 -1.5402  1.2091
  503MOL0     H67839   6.618   1.945  10.092 -1.0706  0.2695  2.7250
  503MOL0     H67840   6.673   1.706   9.752  1.8398  3.0049  0.0590
  503MOL0     H67841   6.490   1.692   9.726 -0.8431  1.1190 -2.8515
  503MOL0     H67842   6.497   1.934   9.621 -2.5052 -2.7048  1.0562
  503MOL0     H67843   6.586   1.821   9.521  2.0943  1.3340 -0.3520
  503MOL0     H67844   6.799   1.851   9.620 -0.8968 -0.3832 -0.5526
  503MOL0     H67845   6.727   1.980   9.725 -1.0632  2.4170 -0.9418
  503MOL0     H67846   6.748   1.996   9.415  2.9671  0.2307  0.0899
  503MOL0     H67847   6.646   2.088   9.519  0.8792  1.3818  0.5301
  503MOL0     H67848   6.896   2.189   9.457  0.6789  0.8940  1.2169
  503MOL0     H67849   6.868   2.176   9.630  3.2722  0.9273  0.4299
  503MOL0     H67850   7.012   1.963   9.630  0.7842  1.9370  1.6921
  503MOL0     H67851   6.997   1.955   9.458 -1.4244  1.4366  0.2897
  503MOL0     H67852   7.220   2.041   9.538  1.2135  1.4901 -2.8523
  503MOL0     H67853   7.141   2.195   9.570 -2.3706 -1.0311  0.7739
  503MOL0     H67854   7.153   2.061   9.307 -1.9065  0.7909 -0.5139
  503MOL0     H67855   7.093   2.216   9.338  0.1760  0.8940 -2.2154
  503MOL0     H67856   7.306   2.138   9.129 -0.3209 -0.7057 -0.4274
  503MOL0     H67857   7.466   2.277   9.011 -2.5960  1.8759  1.3770
  503MOL0     H67858   7.544   2.405   9.099  0.3268 -0.4764  2.7426
  503MOL0     H67859   7.723   2.286   9.005 -0.1621  2.6478  1.9031
  503MOL0     H67860   7.733   2.220   9.172 -0.7855 -0.8943  0.6273
  503MOL0     H67861   7.638   2.081   8.937  0.5187 -0.1364  0.6754
  503MOL0     H67862   7.586   2.017   9.090  0.9928 -0.1699  2.3318
  503MOL0     H67863   7.807   1.969   9.164  1.3113 -0.8032 -0.6857
  503MOL0     H67864   7.882   2.075   9.043 -0.3107  2.1210  3.1830
  503MOL0     H67865   7.666   1.677   8.996  1.0598  2.0375 -1.0908
  503MOL0     H67866   7.743   1.461   9.110  0.3116 -0.5892  1.6752
  503MOL0     H67867   8.150   1.344   9.514  0.5470  1.0456 -2.6269
  503MOL0     H67868   8.284   1.138   9.595  0.8338  1.9941  0.6259
  503MOL0     H67869   8.375   0.834   9.268 -0.3219 -1.9453  0.3917
  503MOL0     H67870   8.451   0.774   9.409 -0.0856  1.5011  2.4235
  503MOL0     H67871   8.254   0.633   9.350 -1.7323  0.0044  0.0258
  503MOL0     H67872   8.207   0.732   9.487  1.1034 -4.5562  0.6858
  503MOL0     H67873   8.094   0.897   9.323 -0.0200  0.8269 -0.7209
  503MOL0     H67874   8.123   0.769   9.193 -1.1267 -4.2674  0.8725
  503MOL0     H67875   7.953   0.727   9.431  2.6973  0.4977 -0.0319
  503MOL0     H67876   8.002   0.609   9.316  0.0957 -0.6548 -0.9200
  503MOL0     H67877   7.865   0.727   9.135 -1.6928  0.0149 -0.3263
  503MOL0     H67878   7.890   0.878   9.219 -5.0290  0.1186  0.2006
  503MOL0     H67879   7.722   0.636   9.276  0.5864 -0.8137  2.0117
  503MOL0     H67880   7.743   0.773   9.401 -0.5071  3.3598 -0.3557
  503MOL0     H67881   7.532   0.830   9.312 -0.5280 -0.5584  0.4842
  503MOL0     H67882   7.585   0.794   9.145  2.0314  0.0358 -0.4420
  503MOL0     H67883   7.690   1.020   9.332 -0.8867  1.4174  0.1318
  503MOL0     H67884   7.731   1.007   9.160  1.4996 -2.6185 -0.1269
  503MOL0     H67885   8.292   1.005   9.176 -0.8523 -0.8894  0.3411
  503MOL0     H67886   8.159   1.195   9.109  1.7234 -2.4712 -0.3334
  503MOL0     H67887   8.121   1.626   9.189  0.0400  3.1455  2.6176
  503MOL0     H67888   8.045   1.841   9.065 -2.3984  0.6383 -4.5827
  503MOL0     H67889   6.602   1.572   9.889  2.5815  3.9754 -2.1053
  503MOL0     H67890   6.687   1.453  10.093  1.7596 -0.0395 -3.4454
  503MOL0     H67891   6.903   1.534  10.479  1.3954 -0.1119  0.7921
  503MOL0     H67892   7.035   1.447  10.676 -0.8014  5.3614 -1.8085
  503MOL0     H67893   6.801   1.199  10.953 -0.8558 -0.3040  1.1280
  503MOL0     H67894   6.819   1.343  11.056 -0.1017  1.4832 -1.2220
  503MOL0     H67895   6.948   1.154  11.174  3.4620 -1.4568  1.9333
  503MOL0     H67896   7.047   1.283  11.108 -0.7978  1.0644 -1.9261
  503MOL0     H67897   7.128   1.142  10.931 -1.1812  1.2492  0.6430
  503MOL0     H67898   7.025   1.015  10.962  0.5087 -1.4438  1.9310
  503MOL0     H67899   7.112   0.975  11.185  0.9498 -0.6308  0.3471
  503MOL0     H67900   7.240   0.963  11.057  1.7102  2.4973 -0.3359
  503MOL0     H67901   7.435   1.229  11.301 -1.0695 -0.3480 -0.9533
  503MOL0     H67902   6.676   1.394  10.897 -2.2943 -2.1985 -1.5458
  503MOL0     H67903   6.467   1.598  10.691 -1.1545 -1.1826 -1.4411
  503MOL0     H67904   6.431   1.426  10.701  1.4135 -1.5656  0.3533
  503MOL0     H67905   6.493   1.511  10.843  4.3115 -0.6494 -0.1592
  504MOL0     O67906   0.977   8.705   2.219  0.1553 -0.4244  0.4723
  504MOL0     C67907   0.929   8.675   2.108 -0.5691  0.2247 -0.6085
  504MOL0     O67908   0.977   8.578   2.020  0.4588  0.9458  0.1191
  504MOL0     C67909   1.106   8.532   2.023  0.5870 -0.7448  0.6128
  504MOL0     C67910   1.201   8.580   1.925  0.4958  0.5784 -0.7957
  504MOL0     C67911   1.327   8.519   1.921 -0.5753 -0.3065 -1.3561
  504MOL0     C67912   1.358   8.415   2.006 -0.4216  0.6459  0.4516
  504MOL0     O67913   1.494   8.373   1.998  0.3141 -0.1303 -0.1440
  504MOL0     C67914   1.555   8.314   2.124 -0.1114 -0.8356  0.0750
  504MOL0     C67915   1.707   8.328   2.121 -0.5079  0.5532  0.3216
  504MOL0     C67916   1.782   8.231   2.035  0.1059 -0.0213  0.4456
  504MOL0     C67917   1.936   8.236   2.059 -1.4506 -0.2034 -0.2152
  504MOL0     C67918   2.004   8.117   1.999 -0.2944  0.4704  0.0321
  504MOL0     C67919   2.153   8.126   2.016  0.5981 -0.0252  0.8062
  504MOL0     C67920   2.224   7.995   1.968  0.4232 -0.6691 -0.8050
  504MOL0     C67921   2.375   8.007   1.967  0.7283 -0.1565 -0.1385
  504MOL0     N67922   2.429   7.969   2.098 -0.5605  0.1400  0.9460
  504MOL0     C67923   2.473   8.065   2.194  0.4094 -0.5595  0.2163
  504MOL0     C67924   2.524   7.987   2.294 -0.4221  0.0086  0.2143
  504MOL0     C67925   2.572   8.029   2.430  0.7457  0.5696  0.2346
  504MOL0     C67926   2.453   8.108   2.502 -1.0565 -0.3804 -0.3453
  504MOL0     C67927   2.337   8.013   2.538  0.5426 -0.8553  0.5968
  504MOL0     C67928   2.232   8.096   2.600 -0.7385  0.3569  0.0479
  504MOL0     O67929   2.161   8.148   2.483 -0.5096 -0.5170  0.7646
  504MOL0     C67930   2.024   8.154   2.480  0.3355 -1.0534 -0.1106
  504MOL0     C67931   1.957   8.246   2.561  0.2393  0.2954  0.6097
  504MOL0     C67932   1.819   8.257   2.551  0.2262 -1.0065 -0.5718
  504MOL0     C67933   1.739   8.179   2.466 -0.3494  0.0877 -1.2679
  504MOL0     C67934   1.601   8.202   2.463 -0.0126 -0.3032 -0.4124
  504MOL0     O67935   1.547   8.288   2.549 -0.3360 -0.1749 -0.7071
  504MOL0     C67936   1.410   8.297   2.552 -0.3814  0.7683 -0.3780
  504MOL0     C67937   1.363   8.405   2.482 -0.1695 -0.1948  0.5261
  504MOL0     C67938   1.229   8.418   2.471  0.4605  0.0579 -0.0930
  504MOL0     C67939   1.143   8.315   2.523 -0.0531  0.3959 -0.4111
  504MOL0     O67940   1.014   8.326   2.505  0.9888  0.0514  0.4952
  504MOL0     C67941   0.952   8.460   2.516  0.7548  0.9270 -0.0200
  504MOL0     C67942   0.816   8.457   2.461  0.5740 -0.7707  0.6068
  504MOL0     C67943   0.736   8.586   2.514  0.3591  0.4305  0.3584
  504MOL0     C67944   0.580   8.571   2.508 -0.3957 -0.6803 -0.8929
  504MOL0     C67945   0.521   8.535   2.374  0.1740 -0.0949  0.4415
  504MOL0     C67946   0.365   8.564   2.358 -0.0727 -0.2334  0.3135
  504MOL0     C67947   0.329   8.542   2.211 -0.7640 -0.0131 -0.5108
  504MOL0     C67948   0.285   8.397   2.199  0.9799 -0.7665 -1.0852
  504MOL0    Cl67949   0.124   8.366   2.285  0.4132  0.0672  0.6667
  504MOL0     C67950   1.195   8.214   2.603  0.3679  0.8587  0.0161
  504MOL0     C67951   1.333   8.208   2.617  0.6839  0.1746 -1.4296
  504MOL0     O67952   1.532   8.145   2.378  0.3317  0.8513 -0.3308
  504MOL0     C67953   1.806   8.084   2.383  0.5139  1.1347 -0.4128
  504MOL0     C67954   1.951   8.074   2.387  0.1903 -0.7126 -0.1832
  504MOL0     N67955   2.502   7.847   2.274  0.0803 -0.7992  0.0592
  504MOL0     N67956   2.435   7.841   2.149  1.2389 -0.1267 -0.6083
  504MOL0     C67957   1.266   8.368   2.110 -0.3541 -0.0232 -0.3106
  504MOL0     C67958   1.141   8.428   2.110 -0.3187  0.9635  0.1901
  504MOL0     C67959   0.791   8.721   2.076 -0.4299  0.3618 -0.8706
  504MOL0     C67960   0.709   8.644   2.000  0.2820 -0.0061  0.0515
  504MOL0     C67961   0.583   8.685   1.965  0.8115 -0.2350  0.1961
  504MOL0     C67962   0.534   8.812   2.014 -1.1422 -0.0893  0.6499
  504MOL0     O67963   0.417   8.863   1.973 -0.5829  0.3328 -0.0359
  504MOL0     C67964   0.341   8.781   1.890  0.0154 -0.4645  0.4506
  504MOL0     C67965   0.213   8.865   1.860 -0.4971 -0.2717 -0.0845
  504MOL0     C67966   0.161   8.792   1.733  0.1038 -0.4904 -0.3464
  504MOL0     C67967   0.047   8.868   1.661 -0.4903 -1.3109 -0.8614
  504MOL0     C67968  -0.000   8.777   1.557 -0.4045  0.3836  0.4023
  504MOL0     C67969  -0.029   8.685   1.478 -0.4032 -0.2159 -1.0274
  504MOL0     C67970   0.609   8.880   2.102  0.1209  0.2106  0.1916
  504MOL0     C67971   0.741   8.845   2.123 -0.9153  1.2133  0.7616
  504MOL0     C67972   0.821   8.962   2.180 -1.3859 -0.7762  0.0100
  504MOL0     H67973   1.187   8.671   1.867 -0.0907 -0.5949 -2.5925
  504MOL0     H67974   1.410   8.567   1.869 -0.1031  3.5630  2.4520
  504MOL0     H67975   1.524   8.378   2.207  3.7949  1.6190 -0.0808
  504MOL0     H67976   1.529   8.208   2.129 -0.3628 -0.7026  2.1656
  504MOL0     H67977   1.727   8.298   2.225 -2.6325 -1.9054  0.1148
  504MOL0     H67978   1.740   8.432   2.108 -0.4431  0.5718  0.6221
  504MOL0     H67979   1.770   8.222   1.927 -0.0918  0.1246  0.4559
  504MOL0     H67980   1.753   8.133   2.075 -0.2803  0.1475  0.5778
  504MOL0     H67981   1.981   8.327   2.016 -2.8247  0.7377  0.2621
  504MOL0     H67982   1.959   8.244   2.165 -1.0004 -0.0366 -0.3203
  504MOL0     H67983   1.965   8.026   2.045  1.1263  1.0487  2.5884
  504MOL0     H67984   1.987   8.113   1.891 -2.0660 -0.8550  0.3228
  504MOL0     H67985   2.185   8.223   1.976 -0.6836  0.0788 -0.0189
  504MOL0     H67986   2.174   8.128   2.124  2.4041  1.9364  0.4998
  504MOL0     H67987   2.194   7.973   1.865 -0.4336 -0.4252 -0.6189
  504MOL0     H67988   2.183   7.919   2.035  1.5950 -0.1894  0.5024
  504MOL0     H67989   2.409   7.932   1.894  3.0849  2.2920 -1.7751
  504MOL0     H67990   2.414   8.100   1.924  1.5747 -1.7435 -3.1313
  504MOL0     H67991   2.473   8.172   2.180 -0.1441 -0.4641  0.9191
  504MOL0     H67992   2.618   7.946   2.485  0.6775  0.4914  0.1723
  504MOL0     H67993   2.655   8.100   2.425  1.7242 -0.6281 -1.1587
  504MOL0     H67994   2.499   8.161   2.586 -0.0401  0.7801 -1.5807
  504MOL0     H67995   2.408   8.178   2.431  3.2332  0.4070 -2.6419
  504MOL0     H67996   2.375   7.931   2.600  0.3118 -0.3153  1.4751
  504MOL0     H67997   2.300   7.968   2.445  1.1345 -0.3327  0.0984
  504MOL0     H67998   2.269   8.188   2.646  4.6957 -0.3028 -2.1978
  504MOL0     H67999   2.162   8.042   2.664 -0.5781  3.2674  2.9501
  504MOL0     H68000   2.014   8.308   2.630  2.3215  2.0547 -2.4504
  504MOL0     H68001   1.778   8.326   2.624  0.6711 -1.7502  0.3957
  504MOL0     H68002   1.434   8.477   2.444  0.2424  0.0848  1.7689
  504MOL0     H68003   1.195   8.506   2.416  0.0738  0.2177  0.3879
  504MOL0     H68004   0.954   8.479   2.624  2.0836  3.1469 -0.3638
  504MOL0     H68005   1.010   8.546   2.481 -1.4301  2.7154  0.5402
  504MOL0     H68006   0.818   8.457   2.352 -1.3326  0.3656  0.5239
  504MOL0     H68007   0.774   8.360   2.491  0.0157 -0.9549 -0.7225
  504MOL0     H68008   0.751   8.604   2.621 -0.4370 -0.7440  0.6945
  504MOL0     H68009   0.762   8.676   2.458  1.4969 -1.6860 -2.7379
  504MOL0     H68010   0.564   8.673   2.541  1.6208 -0.4453 -0.5054
  504MOL0     H68011   0.537   8.498   2.578  1.4750  0.5264  1.6812
  504MOL0     H68012   0.548   8.430   2.358  4.5149  0.9498 -0.2856
  504MOL0     H68013   0.579   8.580   2.293  1.8998 -1.0407  1.0958
  504MOL0     H68014   0.314   8.503   2.433  1.9736 -0.9751  1.1522
  504MOL0     H68015   0.340   8.667   2.386  2.9005  0.6526  0.0922
  504MOL0     H68016   0.422   8.571   2.162  0.2358  1.8818  2.2807
  504MOL0     H68017   0.247   8.608   2.182 -1.7143 -0.5176  0.9092
  504MOL0     H68018   0.279   8.375   2.092 -2.3449 -1.5323 -0.8472
  504MOL0     H68019   0.367   8.337   2.241  0.7388  0.5440  1.4438
  504MOL0     H68020   1.127   8.138   2.642  2.0885 -0.8284 -0.1355
  504MOL0     H68021   1.384   8.136   2.680  2.8870  2.7450 -0.0589
  504MOL0     H68022   1.758   8.020   2.310  2.6096 -0.5508 -0.4060
  504MOL0     H68023   2.011   8.002   2.331  0.1342 -0.4152 -0.6339
  504MOL0     H68024   1.286   8.292   2.186  1.8059 -0.5474 -1.3189
  504MOL0     H68025   1.072   8.386   2.182 -1.1958  3.6967  1.0918
  504MOL0     H68026   0.732   8.541   1.973 -0.9836 -0.6306  1.2711
  504MOL0     H68027   0.512   8.617   1.919 -2.7506  1.2956  2.9473
  504MOL0     H68028   0.310   8.691   1.945 -1.5133 -0.0121  0.3536
  504MOL0     H68029   0.392   8.763   1.794  0.1116 -0.8459  0.5687
  504MOL0     H68030   0.238   8.971   1.847 -3.7562  0.9188  2.0813
  504MOL0     H68031   0.138   8.862   1.939  1.7937  3.0483  2.5091
  504MOL0     H68032   0.124   8.695   1.767  2.7673 -0.2007  4.2217
  504MOL0     H68033   0.236   8.758   1.661  1.3375 -0.9316  1.0819
  504MOL0     H68034  -0.027   8.903   1.733  0.5923 -2.8198  1.0613
  504MOL0     H68035   0.081   8.959   1.610  0.5010 -1.3164 -0.2347
  504MOL0     H68036  -0.044   8.596   1.420  1.0609 -1.3538  0.2740
  504MOL0     H68037   0.568   8.974   2.136 -1.5262 -0.1153 -0.8195
  504MOL0     H68038   0.762   9.013   2.257  1.0298 -0.4023  1.7313
  504MOL0     H68039   0.910   8.928   2.235 -1.6393 -0.2571  0.7524
  504MOL0     H68040   0.871   9.016   2.100 -1.2656 -2.5151 -1.1520
  505MOL0     O68041   2.614   1.942   3.022 -0.4430 -0.2890 -0.3628
  505MOL0     C68042   2.567   1.982   2.914  0.4636  0.5494 -0.5033
  505MOL0     O68043   2.466   1.926   2.845 -0.0763  1.2334  0.5200
  505MOL0     C68044   2.443   1.798   2.882 -0.6125 -0.1108  0.9922
  505MOL0     C68045   2.380   1.759   3.002 -0.2203  0.4928  0.8366
  505MOL0     C68046   2.370   1.629   3.035 -0.0003  0.4612  0.1638
  505MOL0     C68047   2.431   1.532   2.957 -0.6209 -0.7845 -0.2404
  505MOL0     O68048   2.427   1.404   3.002 -0.0988  0.1679 -0.2414
  505MOL0     C68049   2.556   1.353   3.049  0.2471  0.7468  0.1721
  505MOL0     C68050   2.535   1.213   3.111  0.9785 -0.5578 -0.2505
  505MOL0     C68051   2.660   1.161   3.183 -0.1751 -0.4076  0.5313
  505MOL0     C68052   2.638   1.012   3.216  0.2290  0.6763 -0.0026
  505MOL0     C68053   2.773   0.938   3.229 -1.3095  0.2042 -0.4439
  505MOL0     C68054   2.852   1.001   3.348 -0.2402 -0.2043 -0.3961
  505MOL0     C68055   2.951   0.900   3.402  0.4254  0.9733  0.3672
  505MOL0     C68056   3.069   0.873   3.315 -0.5507  0.3237  0.4171
  505MOL0     N68057   3.145   0.758   3.363  0.8521  0.2282 -0.4548
  505MOL0     C68058   3.161   0.636   3.299 -0.0842 -0.1589  0.1845
  505MOL0     C68059   3.235   0.567   3.388 -0.1235 -1.2752  0.1428
  505MOL0     C68060   3.279   0.419   3.373 -0.1359  0.0030  0.1774
  505MOL0     C68061   3.395   0.378   3.294  0.1061  0.3497  0.2534
  505MOL0     C68062   3.403   0.404   3.137 -0.1793 -0.0161  0.1386
  505MOL0     C68063   3.547   0.424   3.069  0.7373 -0.4503  0.8833
  505MOL0     O68064   3.610   0.553   3.096 -0.4792 -0.3303 -0.1502
  505MOL0     C68065   3.528   0.655   3.055 -1.0395 -0.6821 -0.8229
  505MOL0     C68066   3.457   0.733   3.152 -0.3912 -0.3241 -0.1746
  505MOL0     C68067   3.363   0.828   3.111  0.6150  0.1514  0.1678
  505MOL0     C68068   3.329   0.849   2.979  0.2780 -0.6187 -0.0325
  505MOL0     C68069   3.226   0.946   2.931  0.3849 -0.2620  0.2730
  505MOL0     O68070   3.182   1.021   3.027 -0.1724  0.5385  0.2808
  505MOL0     C68071   3.110   1.137   3.018  0.2814  0.5326  0.0199
  505MOL0     C68072   3.006   1.163   2.931  0.1838 -0.2232  0.0756
  505MOL0     C68073   2.930   1.283   2.951  0.0333 -0.2086 -0.0101
  505MOL0     C68074   2.967   1.375   3.043  0.0312 -0.6553  0.8892
  505MOL0     O68075   2.888   1.487   3.039 -0.1545  0.2122 -0.3516
  505MOL0     C68076   2.953   1.604   2.993  0.4241 -0.6058  1.0096
  505MOL0     C68077   2.908   1.633   2.852 -0.5090 -0.1173 -0.0631
  505MOL0     C68078   2.979   1.769   2.805 -0.3492  0.5310  0.6437
  505MOL0     C68079   2.912   1.839   2.682 -0.2689  0.7715 -0.2032
  505MOL0     C68080   2.881   1.745   2.564  1.1781 -0.2515  0.5710
  505MOL0     C68081   2.812   1.812   2.448  0.6414  0.7129  0.5563
  505MOL0     C68082   2.740   1.704   2.349  1.0243 -1.0133  0.4517
  505MOL0     C68083   2.717   1.746   2.203  0.1337 -0.7864 -0.1993
  505MOL0    Cl68084   2.658   1.912   2.200 -0.2340  0.0512 -0.0173
  505MOL0     C68085   3.074   1.359   3.123 -0.9872 -0.5196  0.2771
  505MOL0     C68086   3.148   1.234   3.112 -0.3776  0.3007  0.0266
  505MOL0     O68087   3.199   0.971   2.815 -0.5581  0.2748 -0.4375
  505MOL0     C68088   3.391   0.761   2.884 -0.4156 -0.6732 -0.1436
  505MOL0     C68089   3.485   0.663   2.922 -1.0586  0.3091  0.7233
  505MOL0     N68090   3.270   0.642   3.498  0.9598  0.2696 -0.7566
  505MOL0     N68091   3.207   0.759   3.485 -0.3733  0.2100  0.0780
  505MOL0     C68092   2.506   1.568   2.843 -0.5372  0.0056  0.0415
  505MOL0     C68093   2.506   1.697   2.805 -0.3292 -1.3414 -1.2514
  505MOL0     C68094   2.649   2.094   2.840 -0.4440 -0.1287 -0.3194
  505MOL0     C68095   2.772   2.130   2.908  0.1257  0.4007  0.2680
  505MOL0     C68096   2.855   2.230   2.854 -0.5194 -0.4185  0.5990
  505MOL0     C68097   2.821   2.301   2.737  0.7751 -1.0027 -0.2272
  505MOL0     O68098   2.905   2.398   2.688  0.2044 -0.0694  0.1244
  505MOL0     C68099   2.849   2.495   2.598 -0.1520  0.1585  0.7685
  505MOL0     C68100   2.962   2.590   2.568 -0.1510 -0.0892 -0.0706
  505MOL0     C68101   2.922   2.688   2.455  0.6614  0.9719  0.4720
  505MOL0     C68102   3.038   2.783   2.408  0.0828 -0.9614 -0.4430
  505MOL0     C68103   3.062   2.883   2.507 -0.7081  0.4457 -0.3378
  505MOL0     C68104   3.105   2.972   2.586  0.5005 -0.9797 -0.1495
  505MOL0     C68105   2.694   2.272   2.687 -0.0031  0.3713  0.7675
  505MOL0     C68106   2.615   2.166   2.726  0.0886  0.4291  0.5441
  505MOL0     C68107   2.493   2.140   2.638 -0.3974 -0.8460  0.0708
  505MOL0     H68108   2.315   1.826   3.058 -0.2548  1.9584 -0.8664
  505MOL0     H68109   2.309   1.594   3.118 -0.1706 -1.5079 -0.7224
  505MOL0     H68110   2.630   1.340   2.969  2.5801 -2.1247  2.5494
  505MOL0     H68111   2.585   1.428   3.123 -0.7760  0.5968  0.7520
  505MOL0     H68112   2.503   1.145   3.032 -0.2828 -0.8150  0.4705
  505MOL0     H68113   2.456   1.215   3.186 -0.6807 -0.0057 -1.9317
  505MOL0     H68114   2.685   1.226   3.267  2.7150 -1.4700  0.5728
  505MOL0     H68115   2.740   1.167   3.109  1.2154 -0.9455  1.9490
  505MOL0     H68116   2.568   1.001   3.299 -0.9762  2.1982 -0.7592
  505MOL0     H68117   2.580   0.960   3.139  1.3260 -1.8695  0.8008
  505MOL0     H68118   2.763   0.832   3.252  0.3017  0.5183  2.2109
  505MOL0     H68119   2.840   0.946   3.143 -0.1275  0.2955  0.4559
  505MOL0     H68120   2.896   1.096   3.317 -2.9581  1.3470  0.1834
  505MOL0     H68121   2.775   1.030   3.421  0.0011 -0.9877  0.1846
  505MOL0     H68122   2.911   0.799   3.413  4.6325 -1.2458 -1.9383
  505MOL0     H68123   2.995   0.933   3.496 -0.8764 -2.2974  2.3017
  505MOL0     H68124   3.034   0.849   3.214  0.7759 -1.0878  0.2540
  505MOL0     H68125   3.134   0.962   3.317  0.0757 -0.1148  3.5968
  505MOL0     H68126   3.120   0.621   3.200 -2.5569  1.5387  0.8655
  505MOL0     H68127   3.299   0.395   3.478  1.2809  5.0498  1.3767
  505MOL0     H68128   3.189   0.365   3.344  0.8597 -1.6870  0.1099
  505MOL0     H68129   3.470   0.446   3.335  0.4333  1.3370 -1.8237
  505MOL0     H68130   3.418   0.274   3.319 -1.7290 -0.0964  0.2541
  505MOL0     H68131   3.347   0.493   3.106 -0.3386 -1.0368 -2.8392
  505MOL0     H68132   3.352   0.327   3.078  0.8175  0.9368 -2.0769
  505MOL0     H68133   3.514   0.415   2.965 -3.1457  0.7664  1.8153
  505MOL0     H68134   3.609   0.337   3.093 -2.5667 -2.7497  1.7981
  505MOL0     H68135   3.479   0.708   3.255 -1.9623 -1.9999 -0.1896
  505MOL0     H68136   3.319   0.876   3.198  2.5018  0.4116  1.0496
  505MOL0     H68137   2.989   1.074   2.871 -1.6701 -2.3202  3.3922
  505MOL0     H68138   2.834   1.283   2.901 -0.3331 -0.8112  0.6647
  505MOL0     H68139   2.926   1.689   3.056  0.7671  0.9194 -0.8139
  505MOL0     H68140   3.062   1.595   2.991  0.4499 -0.8693  2.6743
  505MOL0     H68141   2.927   1.549   2.783 -1.3067 -1.6345  1.5020
  505MOL0     H68142   2.800   1.645   2.866 -0.2424  0.1060  2.1119
  505MOL0     H68143   2.983   1.832   2.894 -2.9245  1.5953  0.0875
  505MOL0     H68144   3.085   1.747   2.786  0.0279  0.2231  2.7849
  505MOL0     H68145   2.982   1.916   2.646  2.9134 -1.2881  1.0667
  505MOL0     H68146   2.819   1.886   2.715 -2.4674 -3.2548 -0.1089
  505MOL0     H68147   2.830   1.652   2.592  0.0395 -0.7175 -2.6178
  505MOL0     H68148   2.979   1.710   2.529  2.4797  0.6487  3.0479
  505MOL0     H68149   2.744   1.893   2.476  1.1537  2.1894 -2.1306
  505MOL0     H68150   2.889   1.871   2.398 -0.0358  0.6175 -0.6536
  505MOL0     H68151   2.641   1.681   2.390 -0.3998 -1.1357 -2.7253
  505MOL0     H68152   2.794   1.609   2.351  4.1566  0.6655  1.2155
  505MOL0     H68153   2.816   1.753   2.158 -0.0434  2.1003 -0.3433
  505MOL0     H68154   2.646   1.685   2.146  1.9974 -2.7721 -0.5046
  505MOL0     H68155   3.098   1.440   3.191 -0.0498 -0.8360  0.3482
  505MOL0     H68156   3.233   1.209   3.174 -2.7597 -1.6691  2.7783
  505MOL0     H68157   3.366   0.765   2.778 -1.0941 -1.0643 -0.0068
  505MOL0     H68158   3.535   0.603   2.847 -1.3464 -1.2082  1.7054
  505MOL0     H68159   2.560   1.498   2.780  0.2061  0.1118  0.5499
  505MOL0     H68160   2.559   1.721   2.713  0.5012 -1.9826 -0.9564
  505MOL0     H68161   2.801   2.089   3.004 -0.3192  0.6786  0.5245
  505MOL0     H68162   2.946   2.251   2.910  1.3883 -0.8415 -2.1052
  505MOL0     H68163   2.770   2.549   2.651  0.4124  1.4915  0.2852
  505MOL0     H68164   2.813   2.440   2.511 -3.1902  0.5339  1.6856
  505MOL0     H68165   3.048   2.533   2.530 -0.0121 -0.6729  1.0844
  505MOL0     H68166   2.999   2.645   2.655  3.9990 -1.0114 -1.0174
  505MOL0     H68167   2.826   2.737   2.475 -2.0318 -2.7114 -1.9066
  505MOL0     H68168   2.900   2.624   2.369  1.2825 -0.2908  1.2299
  505MOL0     H68169   3.133   2.730   2.395  2.1063  2.0896  0.8627
  505MOL0     H68170   3.014   2.834   2.314  2.3531 -0.0475 -0.5708
  505MOL0     H68171   3.133   3.054   2.648 -1.0641  1.7929 -2.8000
  505MOL0     H68172   2.654   2.328   2.603 -3.6697  0.7975  2.5734
  505MOL0     H68173   2.520   2.080   2.550  1.4778  0.2591 -0.1665
  505MOL0     H68174   2.417   2.089   2.698 -0.6468 -0.4926  0.0525
  505MOL0     H68175   2.456   2.240   2.616 -0.3794 -0.0724  3.1365
  506MOL0     O68176   2.650   7.523   6.202  1.0946 -0.5959  0.2167
  506MOL0     C68177   2.734   7.580   6.131 -0.4927 -0.4514 -0.7472
  506MOL0     O68178   2.704   7.669   6.023 -0.3741 -0.2092 -0.3985
  506MOL0     C68179   2.575   7.708   6.003 -0.7200  0.3112  0.4489
  506MOL0     C68180   2.515   7.658   5.888  0.1076 -0.2558  0.1937
  506MOL0     C68181   2.389   7.711   5.857 -1.0325  0.9903  0.3361
  506MOL0     C68182   2.321   7.801   5.937 -0.0660  0.2860 -0.6593
  506MOL0     O68183   2.191   7.836   5.908  0.6748  0.4183 -0.1082
  506MOL0     C68184   2.097   7.805   6.007 -0.3525  0.0088 -0.1532
  506MOL0     C68185   1.958   7.807   5.961  0.0252  0.0496  0.3149
  506MOL0     C68186   1.939   7.949   5.907 -0.5945  0.2084 -0.4285
  506MOL0     C68187   1.790   7.984   5.912  0.0580  1.0886  0.2339
  506MOL0     C68188   1.741   8.033   5.790 -0.5281  0.1154 -0.2129
  506MOL0     C68189   1.731   7.927   5.674 -0.5986 -0.4160  0.7133
  506MOL0     C68190   1.701   8.008   5.546  0.9874  0.3926  0.4679
  506MOL0     C68191   1.824   8.066   5.485 -0.4115 -0.6646 -1.0083
  506MOL0     N68192   1.795   8.144   5.358  0.1829 -0.3597 -0.0222
  506MOL0     C68193   1.716   8.255   5.347  0.7997  0.0889  1.1983
  506MOL0     C68194   1.750   8.311   5.229  0.5867  0.3226  1.5340
  506MOL0     C68195   1.694   8.440   5.175  0.1973  0.9398  0.0062
  506MOL0     C68196   1.582   8.408   5.074 -0.7278 -0.0952  0.7156
  506MOL0     C68197   1.506   8.538   5.042  0.2843 -0.6497  0.3335
  506MOL0     C68198   1.586   8.647   4.973  0.0982  0.7272 -0.0818
  506MOL0     O68199   1.659   8.580   4.861 -0.5851  0.1851  0.7618
  506MOL0     C68200   1.781   8.643   4.837 -0.3268  0.4533  0.1822
  506MOL0     C68201   1.798   8.779   4.827 -0.2145 -0.2700  0.3904
  506MOL0     C68202   1.928   8.837   4.795  0.4475 -0.0445  0.0425
  506MOL0     C68203   2.039   8.750   4.778  0.0483  0.7863  0.0650
  506MOL0     C68204   2.169   8.819   4.737  0.1180  0.4162 -0.3264
  506MOL0     O68205   2.276   8.725   4.707 -0.4047 -0.3037 -0.4302
  506MOL0     C68206   2.401   8.763   4.674 -0.8813 -0.8954 -0.4508
  506MOL0     C68207   2.484   8.667   4.624 -0.2543 -0.9259 -0.7444
  506MOL0     C68208   2.616   8.698   4.593  0.3085  0.2482 -0.6260
  506MOL0     C68209   2.671   8.830   4.608 -0.4589  0.1616  0.4395
  506MOL0     O68210   2.810   8.846   4.578  0.8189 -0.7118 -0.0205
  506MOL0     C68211   2.838   8.984   4.556 -0.3823 -0.0263 -1.0240
  506MOL0     C68212   2.968   8.968   4.488  0.2865 -0.4083 -0.1253
  506MOL0     C68213   3.023   9.106   4.441  0.6382  0.2208  0.3904
  506MOL0     C68214   3.101   9.087   4.306  0.2831 -0.0354 -1.0331
  506MOL0     C68215   3.217   8.971   4.314 -0.4374 -0.0511 -0.5076
  506MOL0     C68216   3.324   8.980   4.428  0.2234 -0.4262 -0.0507
  506MOL0     C68217   3.416   9.099   4.394 -0.4623  0.4704  0.0659
  506MOL0     C68218   3.559   9.085   4.461  0.0037 -0.0182 -0.6360
  506MOL0    Cl68219   3.648   9.236   4.521 -0.0743  0.0768  0.1166
  506MOL0     C68220   2.582   8.923   4.663 -0.3325  0.5669 -0.1038
  506MOL0     C68221   2.460   8.887   4.705  0.8279  0.6027 -0.3479
  506MOL0     O68222   2.170   8.940   4.714 -0.0566 -0.2741 -0.3236
  506MOL0     C68223   2.017   8.612   4.790 -0.3395  0.2000  0.5570
  506MOL0     C68224   1.886   8.556   4.815 -0.5953 -0.8696  0.1164
  506MOL0     N68225   1.863   8.245   5.174 -0.0438 -0.7059 -0.0568
  506MOL0     N68226   1.873   8.131   5.246  0.2571 -0.0394  0.0269
  506MOL0     C68227   2.378   7.848   6.055 -0.0747  0.1420  0.2342
  506MOL0     C68228   2.509   7.804   6.088 -0.0855  1.0642 -0.6572
  506MOL0     C68229   2.868   7.520   6.141 -0.3667  0.1804 -0.2942
  506MOL0     C68230   2.923   7.460   6.021  0.2003 -0.0318 -0.2651
  506MOL0     C68231   3.040   7.394   6.035 -1.2310 -0.0005  0.1871
  506MOL0     C68232   3.117   7.395   6.151  0.3528 -0.0791 -0.9614
  506MOL0     O68233   3.221   7.315   6.158  0.2527  1.0580  0.3385
  506MOL0     C68234   3.349   7.378   6.194 -0.7051  0.0777 -0.1876
  506MOL0     C68235   3.446   7.298   6.288  0.5068  0.3737 -0.6615
  506MOL0     C68236   3.476   7.162   6.221 -0.8787  1.4658 -0.0118
  506MOL0     C68237   3.557   7.058   6.311 -0.6933 -0.5904 -0.3811
  506MOL0     C68238   3.555   6.931   6.245  0.7543 -0.0534  0.9534
  506MOL0     C68239   3.555   6.821   6.192  0.2875  0.5257  0.0164
  506MOL0     C68240   3.065   7.449   6.269  0.1958  0.3685 -0.7517
  506MOL0     C68241   2.934   7.503   6.260 -0.5961  0.2934  0.0373
  506MOL0     C68242   2.882   7.558   6.380  0.0818  0.4835 -0.7072
  506MOL0     H68243   2.563   7.595   5.814 -0.3437 -0.1947 -0.1496
  506MOL0     H68244   2.354   7.662   5.767 -0.1447 -2.1463  1.5644
  506MOL0     H68245   2.124   7.712   6.057  3.5004  0.7554 -0.4706
  506MOL0     H68246   2.096   7.881   6.085  2.6811 -0.0764  0.0800
  506MOL0     H68247   1.887   7.773   6.038 -1.3706 -0.6736 -1.2397
  506MOL0     H68248   1.938   7.728   5.888 -0.1707 -0.6770  1.1310
  506MOL0     H68249   1.991   7.965   5.812  0.3073 -1.3049 -0.2191
  506MOL0     H68250   1.982   8.021   5.978  0.0602 -2.1359  1.6990
  506MOL0     H68251   1.730   7.896   5.937  0.5844  0.6561  0.0088
  506MOL0     H68252   1.780   8.065   5.985  1.1534  3.3802 -1.9769
  506MOL0     H68253   1.642   8.079   5.798  0.0883  1.4310  0.1272
  506MOL0     H68254   1.814   8.103   5.748 -0.1200 -1.7786 -2.9245
  506MOL0     H68255   1.827   7.876   5.664 -0.1510 -0.2512  3.4064
  506MOL0     H68256   1.657   7.856   5.714 -1.5193  1.9770  3.6558
  506MOL0     H68257   1.621   8.081   5.559 -1.7609 -2.1607 -0.8684
  506MOL0     H68258   1.661   7.937   5.473 -2.2627  0.9423  1.5435
  506MOL0     H68259   1.863   8.136   5.560  1.3227 -1.4934 -1.0927
  506MOL0     H68260   1.902   7.992   5.467  0.6977 -0.2302  1.6182
  506MOL0     H68261   1.648   8.289   5.424  0.8541 -0.4938  1.5089
  506MOL0     H68262   1.642   8.495   5.254 -1.1628  0.0883 -0.2637
  506MOL0     H68263   1.767   8.503   5.122  1.0650 -2.1234 -2.8318
  506MOL0     H68264   1.625   8.368   4.982 -1.5486  1.0520 -0.1898
  506MOL0     H68265   1.516   8.328   5.110 -1.9324 -0.1352 -1.4404
  506MOL0     H68266   1.464   8.556   5.142  2.0955 -2.4749  1.5202
  506MOL0     H68267   1.419   8.503   4.986 -0.3070 -0.0760  0.8682
  506MOL0     H68268   1.651   8.689   5.051 -1.4133  0.9453  1.1124
  506MOL0     H68269   1.515   8.724   4.941  0.3405  0.9266 -0.1396
  506MOL0     H68270   1.717   8.850   4.823  1.8538  2.1787 -1.4882
  506MOL0     H68271   1.931   8.945   4.786  1.7577 -0.0935 -0.3611
  506MOL0     H68272   2.444   8.567   4.608 -1.4059 -0.6481  0.2656
  506MOL0     H68273   2.664   8.609   4.555 -0.5196 -1.1769  1.4485
  506MOL0     H68274   2.761   9.039   4.501 -0.3541  2.2090  0.9902
  506MOL0     H68275   2.840   9.030   4.655 -3.1350 -1.1981 -0.3183
  506MOL0     H68276   3.033   8.906   4.549  1.7823 -0.7524 -1.9602
  506MOL0     H68277   2.941   8.916   4.395  1.0726 -1.5854  0.2791
  506MOL0     H68278   2.956   9.192   4.426  1.4912  0.7198 -0.6470
  506MOL0     H68279   3.092   9.142   4.517 -0.0697  1.2948  0.5472
  506MOL0     H68280   3.156   9.176   4.274 -1.2625 -0.1721 -4.6230
  506MOL0     H68281   3.028   9.062   4.228  0.6126 -1.0053 -1.0455
  506MOL0     H68282   3.281   8.950   4.228 -1.8484 -0.1647 -1.5601
  506MOL0     H68283   3.165   8.876   4.328 -1.5894  0.3455 -1.8570
  506MOL0     H68284   3.286   8.984   4.530  0.6966 -1.1924  0.1630
  506MOL0     H68285   3.388   8.891   4.428 -1.0719 -1.3873 -0.3237
  506MOL0     H68286   3.387   9.194   4.441 -1.4623 -0.2594  0.9672
  506MOL0     H68287   3.426   9.104   4.285  0.9747 -0.2529  0.1481
  506MOL0     H68288   3.542   9.034   4.557 -0.5565  0.6184 -0.3876
  506MOL0     H68289   3.618   9.026   4.391 -0.2445  0.9954 -1.7258
  506MOL0     H68290   2.614   9.021   4.695 -1.9232  1.0044  0.2141
  506MOL0     H68291   2.404   8.954   4.770 -2.8629 -0.8878 -1.7332
  506MOL0     H68292   2.104   8.547   4.788  2.0082  2.9388 -3.9218
  506MOL0     H68293   1.884   8.448   4.822  0.7775 -0.8959  0.4441
  506MOL0     H68294   2.325   7.915   6.122 -1.2639 -0.1824 -0.3557
  506MOL0     H68295   2.544   7.850   6.179  0.6806  0.2123 -0.5002
  506MOL0     H68296   2.865   7.477   5.932 -1.7414 -1.1479  0.7215
  506MOL0     H68297   3.083   7.344   5.949  1.2429 -0.0641  1.3746
  506MOL0     H68298   3.335   7.468   6.255  0.8219 -2.0477  3.6053
  506MOL0     H68299   3.397   7.405   6.099 -0.5581  0.5600  0.0251
  506MOL0     H68300   3.401   7.287   6.387  1.7479 -0.2207 -0.1365
  506MOL0     H68301   3.542   7.349   6.302  0.9863 -0.3669 -1.1546
  506MOL0     H68302   3.534   7.189   6.132  0.7501  0.1458  0.5953
  506MOL0     H68303   3.387   7.106   6.190  2.0246 -3.4248 -0.4630
  506MOL0     H68304   3.659   7.094   6.325 -1.3066  4.4815 -5.0895
  506MOL0     H68305   3.508   7.052   6.409  2.0827 -0.6530  1.0958
  506MOL0     H68306   3.549   6.723   6.149  1.9500  0.5722 -0.3957
  506MOL0     H68307   3.115   7.457   6.365 -2.1708 -0.4455  0.6349
  506MOL0     H68308   2.859   7.665   6.380  0.0822  0.4839 -0.7467
  506MOL0     H68309   2.792   7.504   6.410 -0.5400  2.2651  0.8363
  506MOL0     H68310   2.955   7.544   6.460 -1.9646 -0.1913  1.1138
  507MOL0     O68311   0.361   6.168   1.535  0.3018 -0.5651 -0.8278
  507MOL0     C68312   0.381   6.241   1.636 -0.2962 -0.5167  0.6894
  507MOL0     O68313   0.286   6.320   1.695 -0.0299  0.1894 -0.1412
  507MOL0     C68314   0.162   6.320   1.635  0.0755  0.3504 -0.2682
  507MOL0     C68315   0.071   6.222   1.670 -0.4666  0.8011  0.4524
  507MOL0     C68316  -0.052   6.197   1.604 -0.3080 -0.3683 -0.7977
  507MOL0     C68317  -0.090   6.300   1.514 -0.1655 -0.8449 -0.1542
  507MOL0     O68318  -0.206   6.304   1.439  0.2085  0.3412 -0.4070
  507MOL0     C68319  -0.297   6.192   1.445  0.6215  0.1843 -0.2433
  507MOL0     C68320  -0.254   6.086   1.345  0.2839  0.7843  0.1484
  507MOL0     C68321  -0.238   6.134   1.196 -0.1262 -0.2315  0.0514
  507MOL0     C68322  -0.167   6.008   1.116 -0.2744 -0.2309  0.3070
  507MOL0     C68323  -0.014   6.000   1.138 -0.6395 -0.3962  0.8408
  507MOL0     C68324   0.048   5.885   1.053  0.1626 -0.2084  0.4792
  507MOL0     C68325   0.202   5.912   1.042 -0.3825 -0.0759 -0.8518
  507MOL0     C68326   0.272   5.855   1.174  1.0538  1.1692 -1.3172
  507MOL0     N68327   0.415   5.839   1.162  0.6476 -0.2379 -0.5795
  507MOL0     C68328   0.499   5.922   1.228 -0.1126 -0.2591  0.6614
  507MOL0     C68329   0.626   5.891   1.187  0.3252  0.6272  0.6237
  507MOL0     C68330   0.751   5.957   1.228  0.0369  0.2896 -0.4612
  507MOL0     C68331   0.764   6.094   1.156 -0.2177  1.3811 -0.2790
  507MOL0     C68332   0.896   6.164   1.196  0.8301 -0.1584  0.2965
  507MOL0     C68333   1.021   6.113   1.131  0.0389  0.2612  0.8114
  507MOL0     O68334   1.070   5.994   1.202 -0.1211  0.4307 -0.1373
  507MOL0     C68335   1.200   5.984   1.250 -0.4396 -0.4063 -0.0527
  507MOL0     C68336   1.212   5.901   1.361  0.0497 -0.9954 -1.4922
  507MOL0     C68337   1.337   5.895   1.423 -0.0437  0.5070 -0.5326
  507MOL0     C68338   1.456   5.958   1.373  0.0440 -0.7313 -0.7227
  507MOL0     C68339   1.585   5.967   1.452  0.5490  0.2085 -0.1511
  507MOL0     O68340   1.686   6.036   1.396  0.4688  0.1744  0.3544
  507MOL0     C68341   1.805   6.046   1.466 -0.1057 -0.0624 -0.5494
  507MOL0     C68342   1.930   6.021   1.394 -0.0096 -0.2366  0.1520
  507MOL0     C68343   2.054   6.056   1.455 -0.3875  0.5440  0.1681
  507MOL0     C68344   2.060   6.113   1.582  1.6031  0.7316 -0.6095
  507MOL0     O68345   2.177   6.143   1.638 -0.1191  0.0406  1.1412
  507MOL0     C68346   2.179   6.192   1.773  0.3835 -0.1631  0.4525
  507MOL0     C68347   2.135   6.079   1.871  0.4334  0.0746 -0.3413
  507MOL0     C68348   2.206   6.087   2.000 -0.7498 -0.0081 -0.0660
  507MOL0     C68349   2.158   6.210   2.075  0.0797  0.1955  0.3480
  507MOL0     C68350   2.217   6.235   2.213  0.0679 -0.5874  0.9081
  507MOL0     C68351   2.164   6.360   2.280 -0.0694 -0.7495  0.6915
  507MOL0     C68352   2.278   6.420   2.362 -0.4612 -0.0133 -0.3231
  507MOL0     C68353   2.227   6.526   2.464  0.2344  0.1080 -0.0179
  507MOL0    Cl68354   2.353   6.659   2.497  0.4798  0.0935  0.2435
  507MOL0     C68355   1.934   6.154   1.642  1.0705 -0.6755 -0.4058
  507MOL0     C68356   1.809   6.127   1.585 -0.0377  0.1237 -0.4020
  507MOL0     O68357   1.586   5.925   1.562 -0.2767 -0.0099 -0.2686
  507MOL0     C68358   1.442   6.027   1.250 -0.9364  0.6706  0.8978
  507MOL0     C68359   1.313   6.046   1.198 -0.1392  0.0840  0.1879
  507MOL0     N68360   0.620   5.788   1.098  0.2630 -0.1386 -0.2230
  507MOL0     N68361   0.495   5.766   1.079  0.1524  0.0360  0.6398
  507MOL0     C68362  -0.006   6.413   1.492 -0.1730 -0.3434  0.1020
  507MOL0     C68363   0.116   6.424   1.551 -0.2239 -0.9205 -0.2964
  507MOL0     C68364   0.518   6.238   1.693  0.6744  0.9635  0.5851
  507MOL0     C68365   0.522   6.262   1.831  0.2460 -0.1359  1.7425
  507MOL0     C68366   0.649   6.264   1.894 -0.0500  0.4068 -0.0566
  507MOL0     C68367   0.767   6.226   1.825  0.2348 -0.0700  0.5392
  507MOL0     O68368   0.895   6.228   1.866  0.1148 -0.4845  0.0534
  507MOL0     C68369   0.930   6.290   1.985  0.9415 -0.1697 -0.8484
  507MOL0     C68370   1.071   6.257   2.014 -0.3820  0.2418 -0.0208
  507MOL0     C68371   1.103   6.102   2.022  0.4713 -0.0291  0.0261
  507MOL0     C68372   1.246   6.092   2.059 -0.6106  0.0175  0.2924
  507MOL0     C68373   1.266   6.085   2.203  0.1717  0.4505 -0.2543
  507MOL0     C68374   1.280   6.082   2.322  0.0580  0.0350 -1.1736
  507MOL0     C68375   0.752   6.201   1.688 -0.6657  0.1483 -0.2006
  507MOL0     C68376   0.640   6.210   1.618 -0.4674  0.3584 -0.2998
  507MOL0     C68377   0.642   6.198   1.475  0.4131  0.5100  0.6543
  507MOL0     H68378   0.108   6.143   1.733 -0.2103 -1.1790 -2.0029
  507MOL0     H68379  -0.109   6.107   1.625  0.2356  0.1042  3.8122
  507MOL0     H68380  -0.324   6.151   1.542 -2.0947  3.9693  0.8205
  507MOL0     H68381  -0.388   6.228   1.396  1.7385 -0.6993 -3.2449
  507MOL0     H68382  -0.328   6.006   1.353 -1.1573  2.0645  0.1552
  507MOL0     H68383  -0.162   6.041   1.382 -0.0671  0.3654  0.5196
  507MOL0     H68384  -0.180   6.226   1.185 -0.4895 -0.1966 -2.1180
  507MOL0     H68385  -0.336   6.158   1.153  0.6182 -1.6052 -2.7083
  507MOL0     H68386  -0.205   5.913   1.154  2.3970 -1.1073  1.0719
  507MOL0     H68387  -0.188   6.019   1.009  2.1568  0.8793 -0.1486
  507MOL0     H68388   0.025   6.098   1.113 -1.1710 -0.5958 -0.8809
  507MOL0     H68389   0.008   5.994   1.245 -1.0972  1.5352  1.0803
  507MOL0     H68390   0.028   5.784   1.088  1.3504 -1.1509 -1.3806
  507MOL0     H68391  -0.005   5.904   0.959 -2.1233  1.4198  1.9940
  507MOL0     H68392   0.222   6.019   1.035  0.3918 -0.3196 -4.3870
  507MOL0     H68393   0.246   5.857   0.958 -2.9376 -2.6040 -0.7154
  507MOL0     H68394   0.245   5.900   1.270 -0.5320 -0.3445 -0.9923
  507MOL0     H68395   0.228   5.755   1.184  2.1621  0.4306 -3.2270
  507MOL0     H68396   0.465   6.003   1.292 -0.6147 -0.3869  0.5615
  507MOL0     H68397   0.770   5.958   1.335 -0.4329  1.2693 -0.3701
  507MOL0     H68398   0.830   5.895   1.184 -0.5736 -0.4670 -0.5087
  507MOL0     H68399   0.777   6.089   1.048 -0.2215  0.1574 -0.2431
  507MOL0     H68400   0.669   6.145   1.177 -0.8524  0.9300 -1.8916
  507MOL0     H68401   0.907   6.175   1.304 -3.4738 -0.9972  1.0358
  507MOL0     H68402   0.881   6.264   1.156 -1.3720 -1.6551 -3.1493
  507MOL0     H68403   1.106   6.182   1.126  0.9686 -0.9202 -0.4902
  507MOL0     H68404   0.992   6.080   1.031  2.0798  1.9371 -0.4113
  507MOL0     H68405   1.125   5.854   1.406 -0.9033 -0.2250 -2.4632
  507MOL0     H68406   1.339   5.841   1.517  3.5906 -0.7514 -1.2034
  507MOL0     H68407   1.926   5.966   1.301 -0.9723  0.5213 -0.2769
  507MOL0     H68408   2.136   6.030   1.390  0.7684 -0.3750  1.9138
  507MOL0     H68409   2.282   6.215   1.800 -0.7966  1.9440  3.7874
  507MOL0     H68410   2.123   6.282   1.801  1.7095  0.1809  2.2332
  507MOL0     H68411   2.026   6.091   1.881  0.0840 -3.0443  0.6360
  507MOL0     H68412   2.153   5.982   1.826 -3.8381  0.4937 -3.5916
  507MOL0     H68413   2.184   6.001   2.065 -1.8291  1.6190  1.8492
  507MOL0     H68414   2.314   6.092   1.988 -0.4607  0.7755  2.2550
  507MOL0     H68415   2.049   6.207   2.079  0.1166 -0.6265  1.1444
  507MOL0     H68416   2.185   6.300   2.018 -1.4808  0.5175  0.0723
  507MOL0     H68417   2.325   6.250   2.204 -0.1179 -0.0494 -0.7049
  507MOL0     H68418   2.202   6.146   2.275 -1.8559 -0.0258  1.3067
  507MOL0     H68419   2.140   6.434   2.203  4.7969 -2.0612 -2.5265
  507MOL0     H68420   2.073   6.329   2.331  0.2301 -2.1583  0.4150
  507MOL0     H68421   2.347   6.465   2.290 -0.5381 -0.6585 -0.8090
  507MOL0     H68422   2.327   6.339   2.418  1.2769  2.1371  1.4605
  507MOL0     H68423   2.142   6.583   2.427  1.4469  2.6293  0.8575
  507MOL0     H68424   2.193   6.482   2.558  1.6435 -1.8570 -0.3717
  507MOL0     H68425   1.937   6.223   1.726  3.5129  1.8339 -2.3785
  507MOL0     H68426   1.713   6.165   1.619 -1.9541 -5.1529  0.9892
  507MOL0     H68427   1.526   6.066   1.193 -2.4189  0.2620 -1.7283
  507MOL0     H68428   1.307   6.107   1.109  2.5030 -0.8596 -0.7350
  507MOL0     H68429  -0.037   6.484   1.417 -1.0568 -1.5376 -0.6929
  507MOL0     H68430   0.162   6.517   1.520  1.5230 -1.3805  0.7350
  507MOL0     H68431   0.436   6.294   1.887  0.9068  2.9915  1.1403
  507MOL0     H68432   0.648   6.284   2.000 -2.0237 -2.0487  0.4992
  507MOL0     H68433   0.873   6.249   2.069  1.1779 -3.0214 -1.9543
  507MOL0     H68434   0.918   6.397   1.971  1.2734  0.0235  0.2236
  507MOL0     H68435   1.088   6.300   2.113  4.3794 -0.3657 -0.3399
  507MOL0     H68436   1.133   6.296   1.934  0.7686 -0.1309  0.6712
  507MOL0     H68437   1.076   6.067   1.922 -0.3371  2.8120 -0.8378
  507MOL0     H68438   1.018   6.062   2.079 -0.9462  1.3316 -1.0642
  507MOL0     H68439   1.285   5.995   2.025 -0.8751 -0.4274  1.2308
  507MOL0     H68440   1.299   6.172   2.007 -2.3215  0.3130 -1.0837
  507MOL0     H68441   1.302   6.081   2.427  2.1021 -0.6608 -1.5600
  507MOL0     H68442   0.843   6.174   1.635 -0.3250  0.5795  0.1569
  507MOL0     H68443   0.742   6.222   1.437  1.0204 -4.0756 -1.3760
  507MOL0     H68444   0.626   6.094   1.445  0.5589  0.6679  0.0193
  507MOL0     H68445   0.574   6.270   1.429  1.6425  0.4831 -1.3070
  508MOL0     O68446   7.640   6.896   5.649 -0.0528  0.6160 -0.1378
  508MOL0     C68447   7.549   6.893   5.557 -0.5175 -1.0045  0.1809
  508MOL0     O68448   7.428   6.949   5.578 -0.6534  0.5803  0.3866
  508MOL0     C68449   7.403   7.010   5.699  0.9815  0.6289 -0.4661
  508MOL0     C68450   7.317   6.949   5.802  0.2685 -0.0920 -0.4989
  508MOL0     C68451   7.269   7.026   5.914 -0.0261 -0.6178  0.4544
  508MOL0     C68452   7.306   7.155   5.927 -0.0043 -0.3386 -0.0623
  508MOL0     O68453   7.257   7.234   6.026 -0.0807 -0.0725  0.6711
  508MOL0     C68454   7.199   7.182   6.146 -0.2734 -0.1516 -0.5293
  508MOL0     C68455   7.150   7.283   6.241  0.0562  0.7334 -0.5347
  508MOL0     C68456   7.254   7.381   6.280  0.0443 -0.5556 -0.4518
  508MOL0     C68457   7.372   7.346   6.366 -0.5049  0.0184  0.2695
  508MOL0     C68458   7.468   7.464   6.372 -1.1222 -0.0871  0.9463
  508MOL0     C68459   7.536   7.483   6.508 -0.8858  0.5233 -0.1372
  508MOL0     C68460   7.613   7.612   6.519  0.1537  0.3512 -0.7629
  508MOL0     C68461   7.753   7.613   6.472 -0.0456 -0.3601  0.4912
  508MOL0     N68462   7.834   7.565   6.586  0.1761  0.1868 -0.3300
  508MOL0     C68463   7.859   7.429   6.609  0.4330  0.2477 -1.1116
  508MOL0     C68464   7.931   7.421   6.723  0.4544 -0.3900  0.3044
  508MOL0     C68465   7.955   7.283   6.790  0.5248 -0.6248  0.5428
  508MOL0     C68466   7.927   7.289   6.939 -0.5350  0.3864 -0.0619
  508MOL0     C68467   8.042   7.356   7.013  0.9329  1.2413  0.0024
  508MOL0     C68468   8.025   7.397   7.169 -0.0604 -0.3210 -0.7838
  508MOL0     O68469   7.904   7.466   7.201  0.1655  0.3479  0.4521
  508MOL0     C68470   7.921   7.595   7.234 -0.2279 -0.0411  0.1476
  508MOL0     C68471   7.949   7.635   7.367 -0.3001  0.2326  1.3566
  508MOL0     C68472   7.939   7.773   7.399  0.5735 -0.2900  0.4086
  508MOL0     C68473   7.904   7.865   7.297 -0.0659  0.3124  0.1094
  508MOL0     C68474   7.893   8.008   7.332  0.8299  0.7221 -0.0938
  508MOL0     O68475   7.895   8.045   7.459  0.6832  0.0138 -0.8307
  508MOL0     C68476   7.893   8.179   7.490 -0.4295  0.8329  0.2407
  508MOL0     C68477   7.995   8.271   7.454  0.4019 -0.1956 -0.9509
  508MOL0     C68478   7.980   8.408   7.477 -0.4546 -0.2789 -0.4500
  508MOL0     C68479   7.879   8.467   7.549  0.0298 -0.4944  0.0842
  508MOL0     O68480   7.882   8.602   7.574  0.7215  0.3540  0.3447
  508MOL0     C68481   7.907   8.649   7.717  0.2056 -0.2330  0.1502
  508MOL0     C68482   7.931   8.795   7.716 -0.1145 -0.1442  0.3342
  508MOL0     C68483   7.989   8.849   7.851  0.5395 -1.0809  0.1556
  508MOL0     C68484   8.008   9.006   7.829  0.4485  0.1076 -0.8505
  508MOL0     C68485   7.898   9.108   7.880  0.4007  0.1750  0.3818
  508MOL0     C68486   7.766   9.104   7.796  0.2864 -0.3931 -0.5293
  508MOL0     C68487   7.660   8.998   7.856 -0.4689 -0.2375  0.7832
  508MOL0     C68488   7.521   9.011   7.779  0.1552  0.2307 -0.7889
  508MOL0    Cl68489   7.459   8.843   7.774 -0.0464 -0.3810  0.5567
  508MOL0     C68490   7.788   8.373   7.616 -0.4180  0.1914  0.0622
  508MOL0     C68491   7.788   8.241   7.580 -0.4081  0.0616 -0.1953
  508MOL0     O68492   7.894   8.090   7.239  0.1175 -0.1655 -0.2500
  508MOL0     C68493   7.871   7.825   7.167 -0.2767  0.7970 -0.1159
  508MOL0     C68494   7.884   7.691   7.138 -0.0635  0.3058 -0.2227
  508MOL0     N68495   7.934   7.551   6.777  0.3567 -0.4786  0.6305
  508MOL0     N68496   7.883   7.635   6.696  0.6353 -0.2686  0.5631
  508MOL0     C68497   7.383   7.212   5.830  0.0905 -0.4019 -0.0070
  508MOL0     C68498   7.435   7.143   5.719  0.8296 -0.3625 -0.1198
  508MOL0     C68499   7.589   6.853   5.417 -0.2366 -0.2771 -0.6698
  508MOL0     C68500   7.482   6.789   5.347  0.2357 -0.2735  0.1295
  508MOL0     C68501   7.499   6.747   5.214  0.8136 -0.3367  0.1355
  508MOL0     C68502   7.627   6.756   5.159  0.0319  0.7708 -0.2796
  508MOL0     O68503   7.655   6.722   5.028 -0.4405  0.3859  0.3980
  508MOL0     C68504   7.557   6.690   4.928  0.7760  1.0858  0.3778
  508MOL0     C68505   7.549   6.814   4.837  0.5948 -0.3138  0.8201
  508MOL0     C68506   7.505   6.953   4.911  0.1791 -0.2100  0.9386
  508MOL0     C68507   7.347   6.967   4.927 -0.1411 -0.3043  0.0973
  508MOL0     C68508   7.274   6.986   4.798  0.3758 -0.2511 -0.0539
  508MOL0     C68509   7.205   6.983   4.695  0.2576  1.6705  0.0824
  508MOL0     C68510   7.736   6.820   5.228  0.0475  0.4662 -0.7374
  508MOL0     C68511   7.713   6.865   5.361  0.4473  1.4728 -0.5514
  508MOL0     C68512   7.835   6.921   5.426  0.8886 -0.0745  0.0950
  508MOL0     H68513   7.294   6.843   5.802  3.0317 -0.7691 -0.3686
  508MOL0     H68514   7.222   6.957   5.984  1.8439 -3.8662 -1.2412
  508MOL0     H68515   7.113   7.120   6.118 -0.6452  0.0828  0.0700
  508MOL0     H68516   7.282   7.122   6.184  0.1923 -0.0537 -1.3640
  508MOL0     H68517   7.120   7.229   6.331  2.1841  2.4547  1.3434
  508MOL0     H68518   7.065   7.335   6.197  0.2950 -0.0748 -2.0547
  508MOL0     H68519   7.208   7.467   6.329  0.2825 -1.2708  1.0622
  508MOL0     H68520   7.290   7.424   6.186 -1.5043 -0.1585 -0.8953
  508MOL0     H68521   7.339   7.324   6.468  2.4879 -2.7376  0.8079
  508MOL0     H68522   7.417   7.254   6.326 -4.3260 -0.4664 -3.7134
  508MOL0     H68523   7.549   7.453   6.300 -0.1792 -1.2837  2.1305
  508MOL0     H68524   7.413   7.557   6.357 -3.6239 -1.0898  2.9612
  508MOL0     H68525   7.455   7.488   6.581 -0.1427 -0.5661  0.8054
  508MOL0     H68526   7.598   7.392   6.513 -0.1814  0.5877 -4.4324
  508MOL0     H68527   7.609   7.636   6.626 -0.2931 -1.2455 -0.4024
  508MOL0     H68528   7.563   7.688   6.459  3.2865  3.2801  0.0006
  508MOL0     H68529   7.776   7.533   6.401  1.1774  2.2492 -2.2433
  508MOL0     H68530   7.793   7.704   6.425  0.4021 -1.3208 -1.0712
  508MOL0     H68531   7.826   7.339   6.559 -0.2112 -0.2930  0.2402
  508MOL0     H68532   7.897   7.212   6.731 -2.0299 -0.2800  2.4506
  508MOL0     H68533   8.057   7.246   6.776  0.4646 -2.2833  3.5320
  508MOL0     H68534   7.834   7.343   6.956 -1.4093 -0.4192 -1.9479
  508MOL0     H68535   7.919   7.185   6.973  4.0960 -0.4835 -0.9314
  508MOL0     H68536   8.064   7.446   6.954 -0.6074  1.7572  0.1736
  508MOL0     H68537   8.123   7.283   7.003  0.0435  0.3172 -0.6418
  508MOL0     H68538   8.114   7.459   7.182 -1.0051  1.2350 -1.5135
  508MOL0     H68539   8.036   7.312   7.237  3.3812  0.5699  0.0126
  508MOL0     H68540   7.999   7.575   7.442 -2.6632 -0.8419  2.1715
  508MOL0     H68541   7.969   7.811   7.497  2.9092  2.0417 -1.0891
  508MOL0     H68542   8.082   8.241   7.396  0.1166 -0.2050 -1.3829
  508MOL0     H68543   8.058   8.474   7.441 -1.1386  0.8355  0.0790
  508MOL0     H68544   7.820   8.633   7.780 -0.2570  1.4953  0.0016
  508MOL0     H68545   7.988   8.588   7.758  0.9769 -0.7087 -1.9575
  508MOL0     H68546   7.986   8.834   7.630  0.7077  1.1233  1.3938
  508MOL0     H68547   7.828   8.828   7.698  0.2868 -0.3232 -2.8288
  508MOL0     H68548   7.929   8.821   7.938 -0.6931  1.5664  0.2675
  508MOL0     H68549   8.091   8.811   7.866  0.9684  0.6005  2.0789
  508MOL0     H68550   8.039   9.033   7.727  2.9062  1.6341  0.2154
  508MOL0     H68551   8.090   9.029   7.897  1.1861  0.2230 -1.7509
  508MOL0     H68552   7.943   9.206   7.868 -0.8768  0.7991  0.4549
  508MOL0     H68553   7.865   9.089   7.983 -3.2375 -1.1289 -0.8364
  508MOL0     H68554   7.715   9.200   7.809 -3.4725 -2.6086  3.4866
  508MOL0     H68555   7.790   9.083   7.691 -1.1537  0.2878 -1.0120
  508MOL0     H68556   7.636   9.019   7.960 -3.7598 -1.2562  0.3473
  508MOL0     H68557   7.704   8.898   7.848  1.2950  0.5746 -0.5958
  508MOL0     H68558   7.461   9.084   7.835  1.0268 -0.8744  1.7647
  508MOL0     H68559   7.542   9.046   7.678 -1.4080  0.7702 -0.9547
  508MOL0     H68560   7.719   8.411   7.691 -0.7327  0.2359 -0.2473
  508MOL0     H68561   7.707   8.180   7.618  1.2787 -1.9593  0.3813
  508MOL0     H68562   7.829   7.891   7.091 -1.6110 -0.6885 -0.7081
  508MOL0     H68563   7.870   7.657   7.035  1.5980  0.3265 -0.4896
  508MOL0     H68564   7.428   7.311   5.836 -0.8857 -0.0323  2.0484
  508MOL0     H68565   7.487   7.191   5.637 -0.2266 -1.5853 -1.5568
  508MOL0     H68566   7.383   6.794   5.391  0.2710  1.0268  0.1006
  508MOL0     H68567   7.411   6.699   5.171 -0.8991  1.5657  1.3251
  508MOL0     H68568   7.468   6.654   4.980  0.4228  2.9467  1.1491
  508MOL0     H68569   7.592   6.616   4.856 -0.5916  0.1995  0.5907
  508MOL0     H68570   7.481   6.793   4.754  3.2593 -2.4713 -0.9940
  508MOL0     H68571   7.647   6.826   4.790 -0.8771  0.0894 -2.4230
  508MOL0     H68572   7.545   7.037   4.853  2.0196  0.0932  2.5396
  508MOL0     H68573   7.558   6.973   5.005 -0.2761  0.3827  1.0778
  508MOL0     H68574   7.308   6.882   4.985 -1.1773 -0.2600 -0.5031
  508MOL0     H68575   7.325   7.050   4.994 -3.8816 -1.0749  0.0239
  508MOL0     H68576   7.161   6.954   4.602  0.5377  0.8361  0.2112
  508MOL0     H68577   7.831   6.821   5.176 -0.1141  3.3648 -1.1851
  508MOL0     H68578   7.803   6.998   5.498 -0.5935  0.8349 -1.4532
  508MOL0     H68579   7.888   6.841   5.478 -1.3692 -1.3592  0.5684
  508MOL0     H68580   7.899   6.950   5.343 -0.4750 -0.7291 -1.2197
  509MOL0     O68581   1.088   8.454   5.118 -0.0219 -0.7058  0.2105
  509MOL0     C68582   1.078   8.338   5.107  0.1122  0.4335  0.2478
  509MOL0     O68583   1.127   8.263   5.006  0.5830 -0.3537  0.2561
  509MOL0     C68584   1.164   8.314   4.883 -0.2961  0.6851  0.1162
  509MOL0     C68585   1.079   8.393   4.802  0.2233 -0.9331  0.2459
  509MOL0     C68586   1.128   8.447   4.685 -1.1529 -0.5066 -1.1993
  509MOL0     C68587   1.260   8.414   4.641 -0.4500 -0.2878  0.6628
  509MOL0     O68588   1.315   8.452   4.523  0.2900 -0.4177 -0.7440
  509MOL0     C68589   1.232   8.480   4.413  0.3836 -0.3309  0.4561
  509MOL0     C68590   1.198   8.342   4.348 -0.4073  0.5089  0.2957
  509MOL0     C68591   1.154   8.352   4.203 -0.2707 -0.0810  0.3814
  509MOL0     C68592   1.014   8.415   4.183  0.2546  0.3665  0.4647
  509MOL0     C68593   0.896   8.336   4.242 -1.0253 -0.6486  0.3621
  509MOL0     C68594   0.877   8.202   4.184 -0.7052  0.9377  0.6485
  509MOL0     C68595   0.775   8.126   4.260  0.3976  1.0188  1.1038
  509MOL0     C68596   0.752   7.991   4.185  0.6922  0.2364  0.4976
  509MOL0     N68597   0.691   8.016   4.053 -0.1194  0.3891 -0.2965
  509MOL0     C68598   0.569   8.080   4.036  0.2459 -1.0298 -0.1918
  509MOL0     C68599   0.530   8.073   3.904 -0.9687  0.4462 -1.0467
  509MOL0     C68600   0.408   8.113   3.823  0.0922 -0.3480 -0.2299
  509MOL0     C68601   0.322   7.991   3.778 -0.1637 -0.4567 -1.0873
  509MOL0     C68602   0.216   7.949   3.889  0.1133 -0.2177 -0.9688
  509MOL0     C68603   0.129   7.834   3.857  0.0480  0.2414  0.0007
  509MOL0     O68604   0.051   7.864   3.738  0.1766 -0.2361 -0.2792
  509MOL0     C68605   0.100   7.823   3.618  0.1341  0.0748 -0.6392
  509MOL0     C68606   0.152   7.700   3.589  0.1678  1.3147  0.0285
  509MOL0     C68607   0.197   7.671   3.461 -0.0905 -0.4631 -0.5831
  509MOL0     C68608   0.193   7.765   3.362  0.3095  0.9573  0.1289
  509MOL0     C68609   0.262   7.731   3.229 -0.3198  0.2310  0.1360
  509MOL0     O68610   0.277   7.600   3.196 -0.2915 -0.0140  0.5308
  509MOL0     C68611   0.283   7.569   3.057 -0.2080 -0.4304  0.4863
  509MOL0     C68612   0.175   7.591   2.977 -0.8725  1.3417  0.3313
  509MOL0     C68613   0.174   7.566   2.841 -0.3248 -0.3678  0.0352
  509MOL0     C68614   0.293   7.513   2.787  0.0937  0.9040 -0.6081
  509MOL0     O68615   0.313   7.489   2.652  0.2080  0.3941  0.1101
  509MOL0     C68616   0.421   7.550   2.583 -0.2742 -0.4249 -0.4696
  509MOL0     C68617   0.389   7.600   2.443  0.3518  1.0238  0.4625
  509MOL0     C68618   0.509   7.682   2.392 -0.0206 -0.1033 -0.1827
  509MOL0     C68619   0.531   7.686   2.236  0.8449 -0.5146  0.0987
  509MOL0     C68620   0.454   7.796   2.169 -0.3686 -0.2708 -0.9202
  509MOL0     C68621   0.468   7.802   2.014  0.3898 -0.0003  0.0552
  509MOL0     C68622   0.613   7.847   1.968 -0.0704 -0.4973  0.4462
  509MOL0     C68623   0.638   7.835   1.815 -0.2664 -0.0330  0.0920
  509MOL0    Cl68624   0.811   7.857   1.788  0.2713  0.2585  0.1179
  509MOL0     C68625   0.399   7.480   2.865 -0.3924 -0.0142 -0.4340
  509MOL0     C68626   0.393   7.514   3.002  0.5725 -0.1276 -0.1562
  509MOL0     O68627   0.298   7.825   3.158  0.9377 -0.0159 -0.1018
  509MOL0     C68628   0.154   7.896   3.390 -1.0794  0.1399  0.2014
  509MOL0     C68629   0.096   7.921   3.513 -0.3589 -0.6074 -0.3146
  509MOL0     N68630   0.629   7.995   3.849  0.7372  0.3168 -0.8677
  509MOL0     N68631   0.723   7.963   3.935 -0.0874 -1.7155  0.3381
  509MOL0     C68632   1.343   8.346   4.725 -0.4666 -0.5549 -0.0646
  509MOL0     C68633   1.305   8.297   4.850  0.3427  0.8616  0.0651
  509MOL0     C68634   1.005   8.283   5.227 -0.0328 -0.2989 -0.1778
  509MOL0     C68635   0.964   8.369   5.332 -0.8419 -0.3012  0.9838
  509MOL0     C68636   0.895   8.317   5.437 -0.3710 -0.1162 -0.9108
  509MOL0     C68637   0.843   8.189   5.439 -0.2168  0.1093  0.6266
  509MOL0     O68638   0.755   8.160   5.540 -0.3410  0.8379  0.5296
  509MOL0     C68639   0.707   8.028   5.559  0.9756 -0.1417  1.2985
  509MOL0     C68640   0.629   8.033   5.689  0.6952  0.4371  0.0480
  509MOL0     C68641   0.555   7.898   5.718 -0.5848  0.4809  0.5977
  509MOL0     C68642   0.504   7.863   5.854  0.1929 -0.4164  0.1977
  509MOL0     C68643   0.620   7.859   5.949 -0.0837  0.1828 -0.9022
  509MOL0     C68644   0.699   7.861   6.038 -0.2995 -0.5561  0.2948
  509MOL0     C68645   0.897   8.103   5.335  0.1550  0.0439  0.5488
  509MOL0     C68646   0.973   8.144   5.230 -0.6571 -0.2048  0.1654
  509MOL0     C68647   1.004   8.034   5.122 -0.1813  0.0900  0.3125
  509MOL0     H68648   0.979   8.409   4.840  0.7444 -0.4351  1.4936
  509MOL0     H68649   1.059   8.489   4.612 -1.4559  4.0598  1.3848
  509MOL0     H68650   1.147   8.547   4.430 -0.1832 -0.3561 -1.9268
  509MOL0     H68651   1.296   8.533   4.343 -2.6525  0.4630 -1.9516
  509MOL0     H68652   1.122   8.284   4.401 -0.6200  1.2520  0.8191
  509MOL0     H68653   1.290   8.283   4.356 -1.0550 -0.3975  1.1792
  509MOL0     H68654   1.151   8.252   4.159  0.3169  1.3444 -3.1974
  509MOL0     H68655   1.220   8.410   4.138 -1.0089  0.1814 -0.1474
  509MOL0     H68656   1.005   8.513   4.230 -4.1432  0.3143  0.1365
  509MOL0     H68657   0.993   8.416   4.076  3.7127 -0.5558 -0.3511
  509MOL0     H68658   0.904   8.327   4.351 -0.9686 -2.9146  0.2198
  509MOL0     H68659   0.807   8.395   4.219 -0.0848  1.2161  1.3119
  509MOL0     H68660   0.857   8.218   4.078  2.6086  3.3919  0.2320
  509MOL0     H68661   0.971   8.148   4.198 -1.6880 -0.4888  2.0356
  509MOL0     H68662   0.681   8.182   4.265 -0.5523 -0.6467  3.2295
  509MOL0     H68663   0.810   8.105   4.361  0.9176 -3.7000  0.1528
  509MOL0     H68664   0.845   7.935   4.177  2.2853  2.9280 -2.1741
  509MOL0     H68665   0.680   7.945   4.253  1.2409  0.3177  1.1391
  509MOL0     H68666   0.513   8.121   4.119  0.4215 -3.1978  1.0780
  509MOL0     H68667   0.344   8.165   3.895 -1.2625 -1.7017 -0.3988
  509MOL0     H68668   0.439   8.176   3.740  1.1842 -1.3601 -0.6140
  509MOL0     H68669   0.272   8.015   3.684 -1.4889  0.5783 -0.1646
  509MOL0     H68670   0.375   7.896   3.762  0.4714 -0.1778 -0.6757
  509MOL0     H68671   0.157   8.040   3.906  0.7333 -0.0295  0.2541
  509MOL0     H68672   0.265   7.923   3.983  2.1657  0.1755 -1.8906
  509MOL0     H68673   0.066   7.802   3.941  0.2126 -1.4579 -0.4949
  509MOL0     H68674   0.196   7.749   3.840 -1.9389 -1.3122 -0.3203
  509MOL0     H68675   0.151   7.624   3.667  0.9796  1.6512  0.3816
  509MOL0     H68676   0.229   7.568   3.447 -0.1119 -0.6141  0.4676
  509MOL0     H68677   0.078   7.625   3.014 -1.6393 -1.7767  1.4504
  509MOL0     H68678   0.098   7.598   2.770  0.6662  0.8662 -0.5124
  509MOL0     H68679   0.466   7.632   2.639  0.8047 -0.1458 -1.6803
  509MOL0     H68680   0.505   7.480   2.579  1.0345  0.7989  2.5404
  509MOL0     H68681   0.367   7.508   2.388 -2.1415  0.0982  2.7910
  509MOL0     H68682   0.287   7.642   2.444 -0.0882  0.0448  3.0378
  509MOL0     H68683   0.512   7.779   2.443  3.4076 -0.5987  0.7863
  509MOL0     H68684   0.593   7.626   2.433  0.9893 -0.5185 -2.6724
  509MOL0     H68685   0.510   7.595   2.179 -1.1014  0.4824 -0.8705
  509MOL0     H68686   0.636   7.714   2.227  1.1769 -1.3431  1.1989
  509MOL0     H68687   0.472   7.891   2.220  3.5327 -0.5531 -1.5036
  509MOL0     H68688   0.347   7.783   2.188 -0.8155  2.6282 -1.0702
  509MOL0     H68689   0.458   7.700   1.975 -0.6497 -1.0072  2.7046
  509MOL0     H68690   0.386   7.856   1.966 -0.3646 -0.9324  0.2429
  509MOL0     H68691   0.693   7.792   2.019 -0.1773  0.0354  1.2117
  509MOL0     H68692   0.624   7.953   1.993 -1.0126 -0.5192  1.0026
  509MOL0     H68693   0.617   7.730   1.792  0.5668 -0.7705  2.4402
  509MOL0     H68694   0.575   7.905   1.760  2.0771  0.8571 -1.6510
  509MOL0     H68695   0.483   7.430   2.817  0.0702  0.0945  0.2576
  509MOL0     H68696   0.480   7.477   3.057  1.2881  1.1133 -0.4111
  509MOL0     H68697   0.150   7.960   3.302 -0.9292 -1.0151 -0.6765
  509MOL0     H68698   0.039   8.010   3.537  2.2341  1.4642 -1.2845
  509MOL0     H68699   1.445   8.333   4.689 -0.1603  1.3781  0.0091
  509MOL0     H68700   1.371   8.243   4.917  1.2134 -0.4588 -1.7747
  509MOL0     H68701   0.989   8.474   5.321 -0.2023 -0.5506 -0.1520
  509MOL0     H68702   0.861   8.373   5.524 -1.0501  0.9475 -1.8261
  509MOL0     H68703   0.785   7.952   5.564 -0.0171 -1.2361  0.7446
  509MOL0     H68704   0.636   8.013   5.477  1.9213  1.6069  0.0981
  509MOL0     H68705   0.547   8.106   5.687  1.3023  1.1452  0.3080
  509MOL0     H68706   0.692   8.078   5.766  0.0098  3.7769 -1.1708
  509MOL0     H68707   0.624   7.824   5.677  0.4435  1.7270 -0.0204
  509MOL0     H68708   0.473   7.898   5.646 -0.8271 -0.1132  0.8685
  509MOL0     H68709   0.435   7.945   5.875  0.3659  0.0485 -0.9739
  509MOL0     H68710   0.470   7.758   5.853  2.5292 -1.4915  5.1422
  509MOL0     H68711   0.761   7.879   6.123  2.0347  0.1182 -1.4599
  509MOL0     H68712   0.862   8.000   5.341 -1.2104  0.5295  1.5013
  509MOL0     H68713   0.949   8.074   5.035  2.2793  0.9978 -0.9101
  509MOL0     H68714   1.106   8.014   5.088  0.1343  1.9871  0.0093
  509MOL0     H68715   0.959   7.938   5.145  0.7629 -0.8778 -1.6233
  510MOL0     O68716   1.542   0.194   8.000  0.1922 -0.0875 -0.0071
  510MOL0     C68717   1.626   0.228   8.078  0.1419  0.7105  1.3308
  510MOL0     O68718   1.702   0.133   8.139 -0.3487 -0.0047  0.1434
  510MOL0     C68719   1.741   0.014   8.087 -0.5151  0.4149 -0.1775
  510MOL0     C68720   1.809  -0.079   8.178  1.0384 -0.5626  0.5926
  510MOL0     C68721   1.847  -0.210   8.145  0.3195  0.3839  0.0614
  510MOL0     C68722   1.821  -0.256   8.021 -0.6802 -0.0206  1.0784
  510MOL0     O68723   1.872  -0.375   7.963  0.0069  0.2752  0.5531
  510MOL0     C68724   1.969  -0.440   8.045 -0.5000  0.3919  0.0981
  510MOL0     C68725   2.017  -0.567   7.979 -0.6139  0.4291  0.1204
  510MOL0     C68726   1.910  -0.677   7.976  1.0030 -0.1999  0.5310
  510MOL0     C68727   1.954  -0.804   7.881  1.0039  0.1421 -0.2372
  510MOL0     C68728   1.853  -0.928   7.906  0.5395 -0.3909 -0.2487
  510MOL0     C68729   1.858  -1.037   7.803  0.5637  0.1838 -0.1482
  510MOL0     C68730   1.837  -1.174   7.874 -0.4894 -0.0278 -0.0134
  510MOL0     C68731   1.952  -1.222   7.960  0.6343 -1.1438  1.0893
  510MOL0     N68732   1.909  -1.346   8.023 -0.9893  0.5181 -0.2796
  510MOL0     C68733   1.799  -1.367   8.104 -0.3178 -0.9234  0.6565
  510MOL0     C68734   1.820  -1.494   8.155  0.0882  0.9422  0.0554
  510MOL0     C68735   1.739  -1.554   8.271 -0.7696 -0.0951  0.7549
  510MOL0     C68736   1.586  -1.557   8.245 -0.4038 -0.7804  0.1519
  510MOL0     C68737   1.534  -1.620   8.373  1.1547 -0.4747 -0.4873
  510MOL0     C68738   1.379  -1.626   8.378  0.6926 -0.8487  0.0778
  510MOL0     O68739   1.322  -1.685   8.494  0.3438 -0.8015  0.2935
  510MOL0     C68740   1.189  -1.697   8.505 -0.1157  0.3623  0.2437
  510MOL0     C68741   1.127  -1.643   8.612  0.2807 -0.5159  0.1306
  510MOL0     C68742   0.988  -1.665   8.639  0.4836 -0.1176  0.0639
  510MOL0     C68743   0.920  -1.744   8.548  0.5131 -1.0954 -0.3185
  510MOL0     C68744   0.779  -1.758   8.556 -0.2647  0.1668  0.2329
  510MOL0     O68745   0.714  -1.715   8.674  0.1575  0.3867  0.5446
  510MOL0     C68746   0.583  -1.757   8.695  0.7074 -0.6681 -0.3739
  510MOL0     C68747   0.471  -1.695   8.638  0.3615 -0.2411 -0.8337
  510MOL0     C68748   0.345  -1.737   8.658  1.5464 -0.0815  0.4175
  510MOL0     C68749   0.325  -1.846   8.741  0.0902 -0.2905 -1.2976
  510MOL0     O68750   0.187  -1.879   8.754 -0.1289 -0.5483  0.1616
  510MOL0     C68751   0.162  -2.002   8.811 -0.2733 -0.3755  0.2711
  510MOL0     C68752   0.020  -2.026   8.794  0.5854 -0.3700 -0.2293
  510MOL0     C68753  -0.064  -1.930   8.873  0.3028  0.0013 -0.8972
  510MOL0     C68754  -0.062  -1.967   9.022  0.7805  0.2464 -0.6273
  510MOL0     C68755  -0.202  -1.931   9.082 -0.3615  0.3857  0.4900
  510MOL0     C68756  -0.182  -1.901   9.220 -0.0203  0.0780 -0.3686
  510MOL0     C68757  -0.314  -1.860   9.283  0.3638  0.1112 -0.6076
  510MOL0     C68758  -0.314  -1.871   9.438 -0.9974 -0.0995 -0.0838
  510MOL0    Cl68759  -0.186  -1.779   9.530 -0.1305  0.0387  0.3514
  510MOL0     C68760   0.437  -1.908   8.808  0.8266 -0.1086  0.1600
  510MOL0     C68761   0.559  -1.867   8.777 -0.3132  0.3382 -1.3456
  510MOL0     O68762   0.724  -1.827   8.472 -0.3042 -0.4577  0.6398
  510MOL0     C68763   0.986  -1.807   8.441 -0.1310 -0.3008  0.4434
  510MOL0     C68764   1.121  -1.782   8.417 -0.3623  0.1882  0.3876
  510MOL0     N68765   1.939  -1.549   8.104 -0.6025 -0.1370  0.1210
  510MOL0     N68766   1.983  -1.455   8.022 -0.3542 -0.3851 -0.1370
  510MOL0     C68767   1.772  -0.169   7.923  0.2672 -1.0664  0.1085
  510MOL0     C68768   1.715  -0.041   7.957 -0.0048  0.1712 -0.4834
  510MOL0     C68769   1.609   0.365   8.117  0.8012 -0.4067  0.3885
  510MOL0     C68770   1.536   0.456   8.036  0.1521  0.3163 -0.3408
  510MOL0     C68771   1.520   0.599   8.056 -0.0020  0.1699 -0.0741
  510MOL0     C68772   1.594   0.658   8.161 -0.2189  0.9730  0.4473
  510MOL0     O68773   1.610   0.790   8.180  0.1715  0.2447  0.0794
  510MOL0     C68774   1.569   0.880   8.073  0.2776 -0.4492  0.0639
  510MOL0     C68775   1.663   1.004   8.103 -0.3646  0.6553 -0.0810
  510MOL0     C68776   1.671   1.121   7.999  0.0806 -0.3035 -0.6382
  510MOL0     C68777   1.750   1.089   7.876  0.2427 -0.5534  0.0529
  510MOL0     C68778   1.677   1.000   7.790 -0.3383  0.3020 -0.8263
  510MOL0     C68779   1.606   0.922   7.732 -0.1007  0.5154 -0.1104
  510MOL0     C68780   1.653   0.570   8.253 -0.6920  0.5247  0.8149
  510MOL0     C68781   1.662   0.424   8.230 -0.2059  0.5049  0.8378
  510MOL0     C68782   1.727   0.354   8.343 -0.1607 -0.3851 -0.9040
  510MOL0     H68783   1.824  -0.036   8.276 -3.2247  0.9030  0.8410
  510MOL0     H68784   1.900  -0.265   8.222 -0.3821 -1.0236 -0.4330
  510MOL0     H68785   2.049  -0.366   8.051 -0.6067  0.4178  1.4210
  510MOL0     H68786   1.930  -0.465   8.144  0.9310  0.8966  0.8195
  510MOL0     H68787   2.108  -0.616   8.015 -1.4716 -1.4838 -0.1400
  510MOL0     H68788   2.038  -0.543   7.875  0.9123  0.1107  0.3227
  510MOL0     H68789   1.823  -0.632   7.927  2.6280  1.2044 -1.2165
  510MOL0     H68790   1.886  -0.702   8.080 -0.0828  3.2558  1.2529
  510MOL0     H68791   1.946  -0.776   7.775 -2.5623  1.4188  0.2532
  510MOL0     H68792   2.056  -0.835   7.905  0.7433  0.6394  1.6648
  510MOL0     H68793   1.881  -0.958   8.008  0.1843  1.2401  0.3687
  510MOL0     H68794   1.759  -0.872   7.915  1.2738  0.5710  2.7651
  510MOL0     H68795   1.780  -1.019   7.728 -2.1822  0.3158  2.5265
  510MOL0     H68796   1.956  -1.018   7.760 -0.5206  2.1642 -1.9598
  510MOL0     H68797   1.821  -1.248   7.794 -0.3006  3.2122 -3.3137
  510MOL0     H68798   1.746  -1.164   7.933 -0.8037 -0.6536 -0.3809
  510MOL0     H68799   2.045  -1.226   7.902  0.6017  2.3800  0.5952
  510MOL0     H68800   1.972  -1.155   8.044 -0.6360 -1.1902  1.4420
  510MOL0     H68801   1.725  -1.296   8.141  1.1554  1.4279 -0.6834
  510MOL0     H68802   1.779  -1.655   8.279 -1.9662 -0.5446  1.3962
  510MOL0     H68803   1.769  -1.499   8.360 -4.1361  0.8231  1.4546
  510MOL0     H68804   1.552  -1.453   8.237  3.5840  0.6497 -0.4912
  510MOL0     H68805   1.563  -1.621   8.159 -0.3798 -0.5979  0.0083
  510MOL0     H68806   1.566  -1.557   8.456 -0.2525  2.6437 -2.1218
  510MOL0     H68807   1.570  -1.724   8.376  0.7102 -0.7524 -2.5867
  510MOL0     H68808   1.342  -1.673   8.286  1.4672 -0.3503 -0.4924
  510MOL0     H68809   1.355  -1.519   8.381  4.0993 -0.0026  0.9403
  510MOL0     H68810   1.190  -1.600   8.689 -2.5466  2.1703  1.1327
  510MOL0     H68811   0.954  -1.640   8.739  2.1221  3.8410 -0.1923
  510MOL0     H68812   0.489  -1.606   8.580 -0.7832  1.4416  1.2744
  510MOL0     H68813   0.258  -1.685   8.619 -1.4302 -2.5833  3.1065
  510MOL0     H68814   0.227  -2.079   8.767 -2.0235 -2.2270  0.7786
  510MOL0     H68815   0.179  -2.003   8.919 -0.7111 -1.0608  0.3445
  510MOL0     H68816  -0.003  -2.015   8.687 -2.3268 -3.7536 -0.1252
  510MOL0     H68817   0.002  -2.130   8.824 -0.8209  0.4222  1.8981
  510MOL0     H68818  -0.040  -1.825   8.855  0.9345 -0.0030 -0.1248
  510MOL0     H68819  -0.165  -1.930   8.829 -0.6973 -0.4741  1.2480
  510MOL0     H68820   0.020  -1.917   9.074  1.5602 -1.5312 -0.0397
  510MOL0     H68821  -0.034  -2.072   9.038 -0.0900  0.0861 -0.0863
  510MOL0     H68822  -0.275  -2.010   9.061  0.6069  0.1403 -2.4213
  510MOL0     H68823  -0.238  -1.841   9.032  1.8661  1.2924  0.3975
  510MOL0     H68824  -0.149  -1.988   9.278 -3.0708 -0.4935  0.6830
  510MOL0     H68825  -0.116  -1.814   9.236 -1.3150  0.4929  4.8202
  510MOL0     H68826  -0.396  -1.909   9.230  2.1701 -0.8919 -2.6320
  510MOL0     H68827  -0.318  -1.754   9.260 -1.9507  0.7103  2.0753
  510MOL0     H68828  -0.407  -1.824   9.469  0.0846  3.1038 -1.2701
  510MOL0     H68829  -0.297  -1.979   9.450  1.9067 -0.2907 -3.9577
  510MOL0     H68830   0.427  -1.980   8.888 -1.1530 -0.8136 -0.6718
  510MOL0     H68831   0.643  -1.897   8.838  1.0911 -1.0025 -3.7727
  510MOL0     H68832   0.938  -1.879   8.375  2.0565 -0.7230 -0.7873
  510MOL0     H68833   1.186  -1.817   8.337  0.0975  2.3396 -0.2306
  510MOL0     H68834   1.765  -0.192   7.817 -2.2366 -1.7400  0.3542
  510MOL0     H68835   1.662   0.008   7.875 -1.5748 -3.5631 -1.9201
  510MOL0     H68836   1.482   0.415   7.951 -0.7361  0.7838 -0.0147
  510MOL0     H68837   1.459   0.656   7.986  0.6778  2.0547  0.8055
  510MOL0     H68838   1.468   0.918   8.090  0.1357 -0.7087 -0.1998
  510MOL0     H68839   1.574   0.832   7.975 -3.2305 -1.9907  0.4794
  510MOL0     H68840   1.757   0.963   8.142 -1.3682 -0.1998  1.5312
  510MOL0     H68841   1.612   1.043   8.191  0.3213 -1.7551  1.4651
  510MOL0     H68842   1.717   1.211   8.041 -0.5419  0.2362 -1.1130
  510MOL0     H68843   1.571   1.151   7.969  0.6551  0.7113 -1.5960
  510MOL0     H68844   1.760   1.184   7.822 -4.3441  0.7137  1.0000
  510MOL0     H68845   1.846   1.052   7.915  0.5401 -0.3728 -0.4982
  510MOL0     H68846   1.537   0.854   7.686  0.2649  0.4867 -0.6222
  510MOL0     H68847   1.692   0.615   8.344  2.1895 -1.7200  0.8379
  510MOL0     H68848   1.759   0.250   8.329 -0.5376 -0.6540  0.1207
  510MOL0     H68849   1.813   0.408   8.385 -0.4134 -0.8181  0.1943
  510MOL0     H68850   1.649   0.350   8.419  1.1588 -0.9793  0.4602
  511MOL0     O68851   9.723  10.936   9.345  0.5374 -0.0317  0.0828
  511MOL0     C68852   9.832  10.885   9.325 -0.1793  0.5514  0.2975
  511MOL0     O68853   9.875  10.830   9.204  0.3569  0.1202 -0.3275
  511MOL0     C68854   9.778  10.825   9.110 -0.2208 -0.2966  0.3967
  511MOL0     C68855   9.729  10.947   9.051 -0.4390 -0.2027 -1.2118
  511MOL0     C68856   9.635  10.934   8.951 -0.0352  1.2165 -0.0997
  511MOL0     C68857   9.614  10.808   8.888 -0.0471  0.4555  0.9796
  511MOL0     O68858   9.530  10.814   8.776 -0.2919  0.2638  0.1653
  511MOL0     C68859   9.559  10.728   8.665 -0.5026  0.6017  0.1215
  511MOL0     C68860   9.480  10.772   8.548  1.1249 -0.4624 -0.2264
  511MOL0     C68861   9.335  10.717   8.574 -0.5529 -0.5831 -0.1141
  511MOL0     C68862   9.246  10.769   8.457 -0.0151  0.0620 -0.4321
  511MOL0     C68863   9.095  10.751   8.476 -0.5951 -0.9317  1.1499
  511MOL0     C68864   9.029  10.626   8.412 -0.5779  0.5446  1.0143
  511MOL0     C68865   9.015  10.521   8.527 -0.2940 -0.0408  1.0177
  511MOL0     C68866   8.968  10.378   8.475 -1.2964 -0.5148 -0.5481
  511MOL0     N68867   8.839  10.370   8.405 -0.9260 -0.5452  0.4889
  511MOL0     C68868   8.789  10.449   8.303 -0.2464 -0.2902 -0.4701
  511MOL0     C68869   8.663  10.400   8.285 -0.3075 -0.2444  0.5988
  511MOL0     C68870   8.550  10.440   8.193 -0.8153 -0.1850  0.1459
  511MOL0     C68871   8.499  10.591   8.214  0.1615 -0.0646  0.4894
  511MOL0     C68872   8.449  10.617   8.357  0.5492  0.1052 -1.3578
  511MOL0     C68873   8.322  10.530   8.389 -0.1104  0.2320 -0.9749
  511MOL0     O68874   8.258  10.581   8.506 -0.0688 -0.9857 -0.9565
  511MOL0     C68875   8.299  10.530   8.627  0.2313 -0.0265  0.0135
  511MOL0     C68876   8.215  10.559   8.729 -0.2656  0.5706 -0.1502
  511MOL0     C68877   8.252  10.527   8.859 -0.0596  0.5494 -0.0808
  511MOL0     C68878   8.369  10.451   8.882 -0.0844 -0.0746 -0.9875
  511MOL0     C68879   8.400  10.397   9.016  0.1874  0.3175  0.2537
  511MOL0     O68880   8.503  10.306   9.034 -0.0680  0.0090 -0.2259
  511MOL0     C68881   8.522  10.250   9.159 -0.2998  0.2093  1.0433
  511MOL0     C68882   8.429  10.166   9.235  0.2539  1.0297  0.0812
  511MOL0     C68883   8.472  10.126   9.361 -0.3800 -0.5430 -1.0292
  511MOL0     C68884   8.603  10.142   9.400 -0.3356 -0.7899 -0.1003
  511MOL0     O68885   8.650  10.096   9.524 -0.5362  0.1865 -0.1353
  511MOL0     C68886   8.591  10.146   9.643  0.3561 -0.2447  0.3106
  511MOL0     C68887   8.657  10.080   9.769  0.2161  0.1347  0.2591
  511MOL0     C68888   8.653   9.931   9.771 -0.1840  1.5657  0.9292
  511MOL0     C68889   8.513   9.878   9.774 -0.6280  0.1102 -0.0270
  511MOL0     C68890   8.506   9.733   9.821 -0.2620  0.3180  0.3701
  511MOL0     C68891   8.367   9.697   9.854  0.0686  0.1719  0.5541
  511MOL0     C68892   8.257   9.732   9.752  0.0043 -0.5592 -0.7500
  511MOL0     C68893   8.118   9.702   9.815  0.4671 -0.1766 -0.2515
  511MOL0    Cl68894   8.050   9.842   9.884  0.1618 -0.4548  0.2816
  511MOL0     C68895   8.703  10.199   9.320  0.2391  0.5938 -0.1516
  511MOL0     C68896   8.657  10.262   9.199 -1.0374  0.0069  0.3049
  511MOL0     O68897   8.336  10.456   9.102 -0.1900 -0.1580 -0.2306
  511MOL0     C68898   8.474  10.436   8.780  0.1347  0.8289  0.0836
  511MOL0     C68899   8.426  10.468   8.652 -0.0705 -0.3816  0.0576
  511MOL0     N68900   8.631  10.318   8.384  0.5757  0.5083 -0.3207
  511MOL0     N68901   8.732  10.303   8.454 -0.3815 -0.1221 -0.2615
  511MOL0     C68902   9.666  10.694   8.941  0.4487 -0.2644  0.6460
  511MOL0     C68903   9.748  10.701   9.060 -0.1502  1.0703  0.3005
  511MOL0     C68904   9.921  10.888   9.444  0.4471 -0.6436 -0.1314
  511MOL0     C68905   9.959  11.012   9.504 -0.2478  0.5666  0.3524
  511MOL0     C68906  10.008  11.023   9.632  0.0746 -0.3200 -0.3971
  511MOL0     C68907  10.015  10.902   9.703 -0.0803  0.1009 -0.7357
  511MOL0     O68908  10.053  10.892   9.831 -0.2422 -0.8491 -0.5864
  511MOL0     C68909  10.063  11.011   9.916  0.7327  0.8619 -0.1296
  511MOL0     C68910   9.918  11.047   9.951  0.3914 -0.5563 -0.1209
  511MOL0     C68911   9.902  11.146  10.068 -0.2589 -0.6982  0.4203
  511MOL0     C68912   9.945  11.283  10.024  1.4191  1.1635 -0.1447
  511MOL0     C68913   9.843  11.346   9.947  0.0934  0.8286 -0.9878
  511MOL0     C68914   9.751  11.389   9.873 -0.0526 -0.0156 -0.6184
  511MOL0     C68915   9.991  10.773   9.643  0.9507 -0.5802 -0.4195
  511MOL0     C68916   9.942  10.767   9.514 -0.1307 -0.4400  0.2650
  511MOL0     C68917   9.918  10.631   9.452 -0.5770 -1.0278  0.4950
  511MOL0     H68918   9.747  11.049   9.085 -0.1727 -0.3748 -0.8314
  511MOL0     H68919   9.595  11.025   8.908 -0.2642  1.6527  1.0162
  511MOL0     H68920   9.667  10.739   8.652 -0.4134 -1.9405 -2.4745
  511MOL0     H68921   9.533  10.622   8.678 -1.8994  0.8954 -0.0625
  511MOL0     H68922   9.512  10.750   8.446  1.5629  1.1823 -0.4716
  511MOL0     H68923   9.477  10.881   8.556  0.1309 -0.5330  0.5917
  511MOL0     H68924   9.293  10.754   8.668 -4.3895  1.8463 -2.5027
  511MOL0     H68925   9.344  10.608   8.585  1.3185 -0.2977  1.7376
  511MOL0     H68926   9.259  10.876   8.443  0.3411  0.0207 -0.4503
  511MOL0     H68927   9.280  10.716   8.367  0.7176 -0.9504  0.4113
  511MOL0     H68928   9.066  10.782   8.577 -4.4719 -0.9729  0.2161
  511MOL0     H68929   9.060  10.831   8.409 -1.5643 -0.6233  1.9796
  511MOL0     H68930   8.929  10.660   8.385 -0.0370  1.6050  0.2856
  511MOL0     H68931   9.090  10.593   8.328 -2.1519  0.2604 -0.0540
  511MOL0     H68932   8.954  10.559   8.609 -1.9960  0.4188 -0.4021
  511MOL0     H68933   9.119  10.500   8.556  0.3157 -0.0326 -0.9652
  511MOL0     H68934   9.046  10.340   8.409 -0.0118 -1.5461  1.4596
  511MOL0     H68935   8.967  10.316   8.565  1.6957 -0.4383 -0.3934
  511MOL0     H68936   8.841  10.525   8.246 -1.5193  0.0302 -1.2452
  511MOL0     H68937   8.565  10.412   8.088  0.8728 -1.8038  0.7800
  511MOL0     H68938   8.458  10.386   8.220 -2.2525  2.1547  0.2479
  511MOL0     H68939   8.567  10.676   8.200 -0.3582 -0.1788 -4.6511
  511MOL0     H68940   8.421  10.612   8.140 -0.5845  2.2515  1.8209
  511MOL0     H68941   8.412  10.719   8.365  1.9129  0.4925  3.3947
  511MOL0     H68942   8.533  10.611   8.427 -0.3920  3.0175  0.1648
  511MOL0     H68943   8.339  10.422   8.388 -3.7909 -0.4903 -1.0124
  511MOL0     H68944   8.250  10.537   8.307 -2.7681 -3.5393  0.7257
  511MOL0     H68945   8.129  10.619   8.704  0.7768  3.1958  2.0213
  511MOL0     H68946   8.184  10.560   8.936  0.6648 -1.3609  1.4435
  511MOL0     H68947   8.332  10.162   9.187  0.5520  1.7998 -0.6134
  511MOL0     H68948   8.396  10.084   9.426 -1.0777 -1.8496 -2.6171
  511MOL0     H68949   8.622  10.251   9.644  1.3741 -0.5399  0.5571
  511MOL0     H68950   8.483  10.132   9.632  0.8942 -3.5004 -2.9248
  511MOL0     H68951   8.761  10.111   9.765 -0.1191  1.1650 -1.7685
  511MOL0     H68952   8.611  10.126   9.858 -1.4222 -2.1178  0.6663
  511MOL0     H68953   8.712   9.886   9.690  0.7199 -1.3426  3.0549
  511MOL0     H68954   8.723   9.912   9.853  0.9595 -1.3392 -0.5967
  511MOL0     H68955   8.472   9.879   9.672  0.8671 -0.8022 -0.6795
  511MOL0     H68956   8.460   9.955   9.830 -0.9159  1.6521 -2.2626
  511MOL0     H68957   8.563   9.702   9.909 -2.7407 -2.9261  1.0045
  511MOL0     H68958   8.541   9.676   9.735  0.3616  1.9575 -0.5237
  511MOL0     H68959   8.370   9.589   9.870 -1.3782  0.0894  0.4212
  511MOL0     H68960   8.339   9.748   9.946  0.7613  2.4006 -0.4030
  511MOL0     H68961   8.276   9.670   9.664  2.2630 -1.3765  0.2367
  511MOL0     H68962   8.254   9.838   9.725 -1.6927 -0.2372  0.5299
  511MOL0     H68963   8.061   9.671   9.727  0.8501  2.5006 -1.5306
  511MOL0     H68964   8.116   9.621   9.889 -0.7239  0.2225  0.1869
  511MOL0     H68965   8.804  10.198   9.360 -0.0787 -0.7990  0.6758
  511MOL0     H68966   8.731  10.299   9.130 -0.8004 -0.7518  0.1407
  511MOL0     H68967   8.574  10.400   8.804 -0.0397  0.0052 -0.3684
  511MOL0     H68968   8.510  10.461   8.584  0.3623  1.7116  0.3133
  511MOL0     H68969   9.657  10.598   8.893 -2.8295  0.3940 -0.2882
  511MOL0     H68970   9.798  10.610   9.092 -1.1843  0.2553 -0.3545
  511MOL0     H68971   9.946  11.103   9.445 -1.6452  0.5739  0.6465
  511MOL0     H68972  10.031  11.122   9.669  0.3864 -0.9030  1.0238
  511MOL0     H68973  10.121  11.091   9.869  0.0611  1.2752 -0.2583
  511MOL0     H68974  10.115  10.971  10.004  2.4171 -1.2636 -1.9810
  511MOL0     H68975   9.862  10.957   9.978 -1.8406  0.9120  0.3962
  511MOL0     H68976   9.867  11.078   9.860  2.9629 -0.0232 -1.4724
  511MOL0     H68977   9.968  11.097  10.141  3.5450  0.1920 -2.1480
  511MOL0     H68978   9.802  11.139  10.111 -1.7095 -1.1649 -2.7682
  511MOL0     H68979   9.956  11.350  10.110  0.6772  2.4546 -1.0144
  511MOL0     H68980  10.035  11.287   9.961 -0.2246 -0.0510 -2.7508
  511MOL0     H68981   9.682  11.449   9.818 -0.0638  3.1736  2.5328
  511MOL0     H68982  10.015  10.696   9.715 -3.1286 -0.4465  1.3789
  511MOL0     H68983   9.977  10.562   9.512  2.4507  2.0342  1.3525
  511MOL0     H68984   9.811  10.610   9.443 -0.4449 -1.2863 -0.6929
  511MOL0     H68985   9.953  10.638   9.348  0.7011 -0.4761  0.9504
  512MOL0     O68986   6.859   0.292   2.929 -0.0197 -0.0325 -0.3284
  512MOL0     C68987   6.959   0.218   2.942 -0.6658  0.4066 -0.0509
  512MOL0     O68988   6.952   0.113   3.030  0.4174  0.3289  0.1676
  512MOL0     C68989   6.851   0.113   3.118 -0.1705 -0.0754 -0.0871
  512MOL0     C68990   6.714   0.100   3.096  0.4022  0.2688  0.3603
  512MOL0     C68991   6.619   0.096   3.198  0.3237 -0.3921 -0.7652
  512MOL0     C68992   6.668   0.110   3.330  0.2095  0.2114  0.6656
  512MOL0     O68993   6.570   0.092   3.427 -0.3646 -0.1079  0.0778
  512MOL0     C68994   6.591   0.165   3.551 -0.3012 -0.3382 -0.9979
  512MOL0     C68995   6.448   0.199   3.616 -0.1222  0.2969  0.3580
  512MOL0     C68996   6.471   0.288   3.725 -0.1407  0.3006 -0.3953
  512MOL0     C68997   6.559   0.225   3.846  0.5783  0.0541  0.7559
  512MOL0     C68998   6.535   0.309   3.972 -0.1682  0.6434 -0.0150
  512MOL0     C68999   6.389   0.310   4.033 -0.3034  0.1215  0.3906
  512MOL0     C69000   6.330   0.171   4.064  0.0683 -0.0646 -0.2474
  512MOL0     C69001   6.410   0.089   4.165 -0.4354 -0.3020 -0.0413
  512MOL0     N69002   6.333  -0.034   4.191 -0.1990 -0.1914 -0.2894
  512MOL0     C69003   6.362  -0.154   4.128 -0.0501 -1.0384  0.2726
  512MOL0     C69004   6.300  -0.257   4.190 -0.3594 -0.3532  0.3419
  512MOL0     C69005   6.312  -0.399   4.157  0.1647  0.4320 -1.2076
  512MOL0     C69006   6.448  -0.468   4.190  0.6088 -0.0513  0.0088
  512MOL0     C69007   6.559  -0.437   4.092  0.0709  0.3664 -0.5257
  512MOL0     C69008   6.685  -0.508   4.136 -0.7304  0.1059  0.0502
  512MOL0     O69009   6.713  -0.504   4.277 -0.0942  0.4831  0.6567
  512MOL0     C69010   6.791  -0.402   4.331  0.4071  0.5737 -0.6335
  512MOL0     C69011   6.843  -0.297   4.266  0.5568  0.0771  0.1093
  512MOL0     C69012   6.921  -0.201   4.329  1.1721  0.7392 -0.6119
  512MOL0     C69013   6.918  -0.204   4.472  0.0551  0.3665  0.2680
  512MOL0     C69014   7.001  -0.113   4.554  0.0285 -0.0963  0.2783
  512MOL0     O69015   7.053  -0.157   4.666 -0.0597 -0.2270  0.0848
  512MOL0     C69016   7.122  -0.065   4.736  1.2502 -0.0338 -0.8935
  512MOL0     C69017   7.056   0.028   4.818 -0.3713  0.2199  0.1408
  512MOL0     C69018   7.125   0.129   4.880 -0.0818 -0.1497 -0.1609
  512MOL0     C69019   7.267   0.135   4.861  0.1014 -0.2064 -0.6981
  512MOL0     O69020   7.326   0.248   4.915  0.0377  0.3239 -0.7399
  512MOL0     C69021   7.303   0.249   5.062 -0.4231 -0.2320  0.2403
  512MOL0     C69022   7.413   0.333   5.135 -0.1627  1.3458  0.7886
  512MOL0     C69023   7.353   0.385   5.270  0.8864 -0.2208  0.8209
  512MOL0     C69024   7.443   0.444   5.366  0.1531  0.1942 -0.2253
  512MOL0     C69025   7.376   0.545   5.466 -0.4692 -0.3111  0.1071
  512MOL0     C69026   7.282   0.486   5.580  0.9334 -0.3908  0.6660
  512MOL0     C69027   7.361   0.432   5.693 -0.4252  0.4681 -0.2493
  512MOL0     C69028   7.282   0.344   5.807 -0.6654 -0.7046  0.1910
  512MOL0    Cl69029   7.404   0.280   5.909 -0.2631 -0.0974  0.1504
  512MOL0     C69030   7.335   0.042   4.782  0.3094  0.0575  1.5070
  512MOL0     C69031   7.257  -0.052   4.717  0.6607 -0.7812  0.2353
  512MOL0     O69032   7.039  -0.005   4.506 -0.6034 -0.5150  0.4482
  512MOL0     C69033   6.863  -0.304   4.543  0.9181  0.2989  0.7026
  512MOL0     C69034   6.811  -0.411   4.466  0.4699  0.5004  1.0383
  512MOL0     N69035   6.225  -0.198   4.293 -0.7781  0.4548  0.4882
  512MOL0     N69036   6.248  -0.071   4.289  0.2453 -0.1812  0.3290
  512MOL0     C69037   6.798   0.121   3.354  0.1729 -0.4842  0.0587
  512MOL0     C69038   6.891   0.126   3.245  0.2922 -0.5152  0.3504
  512MOL0     C69039   7.088   0.235   2.864 -0.1082 -0.5451 -0.7311
  512MOL0     C69040   7.214   0.169   2.897  0.0026  0.2993 -0.3469
  512MOL0     C69041   7.334   0.195   2.830 -0.4746  0.0287  0.0855
  512MOL0     C69042   7.334   0.272   2.714 -0.8586  0.0945  0.6100
  512MOL0     O69043   7.453   0.276   2.648 -0.2085 -0.0601 -0.0817
  512MOL0     C69044   7.451   0.319   2.512  0.5485  0.6742 -0.3460
  512MOL0     C69045   7.593   0.352   2.467 -0.2360  0.0994 -0.4673
  512MOL0     C69046   7.689   0.249   2.402 -0.8683 -0.1098 -0.7876
  512MOL0     C69047   7.677   0.242   2.251  0.2973 -0.6159  0.8670
  512MOL0     C69048   7.742   0.123   2.195  0.3696  0.0227 -0.4429
  512MOL0     C69049   7.807   0.025   2.184  0.9330  0.2466 -0.3751
  512MOL0     C69050   7.211   0.336   2.684 -0.9326 -0.1203 -0.4497
  512MOL0     C69051   7.098   0.329   2.758  0.1857  0.0478  1.1159
  512MOL0     C69052   6.986   0.414   2.709  0.9066 -0.4128 -0.4064
  512MOL0     H69053   6.676   0.101   2.994 -0.2846  1.7814  0.6037
  512MOL0     H69054   6.514   0.105   3.174  0.4309 -0.0459 -1.1154
  512MOL0     H69055   6.654   0.102   3.614  1.4028  3.4748  1.5217
  512MOL0     H69056   6.657   0.252   3.542 -3.3079  2.1047 -1.1100
  512MOL0     H69057   6.391   0.113   3.653 -1.0227 -0.0897 -1.7489
  512MOL0     H69058   6.387   0.235   3.532 -1.5078 -1.5148  0.5261
  512MOL0     H69059   6.376   0.318   3.770  1.5113  0.8715  2.9936
  512MOL0     H69060   6.521   0.376   3.685 -0.2317  0.4016 -0.2847
  512MOL0     H69061   6.514   0.131   3.878 -1.6687  0.1773 -1.6519
  512MOL0     H69062   6.664   0.215   3.819  1.4634  3.2348  2.4503
  512MOL0     H69063   6.608   0.274   4.047  1.0778  1.2909 -0.8881
  512MOL0     H69064   6.569   0.409   3.945 -0.3377  0.6848 -0.0732
  512MOL0     H69065   6.397   0.357   4.132 -0.3171  0.8366  0.0553
  512MOL0     H69066   6.317   0.360   3.968  1.7076 -0.2042 -2.2405
  512MOL0     H69067   6.315   0.110   3.974 -0.4933  0.2258 -0.3530
  512MOL0     H69068   6.240   0.200   4.120  2.1415  0.1374  3.2391
  512MOL0     H69069   6.512   0.075   4.128 -0.2955  3.1004 -1.3132
  512MOL0     H69070   6.439   0.144   4.255  1.3237  1.7099 -1.7327
  512MOL0     H69071   6.429  -0.163   4.043  1.3623  0.7530  1.1384
  512MOL0     H69072   6.247  -0.447   4.231  3.2280  0.0596  1.4838
  512MOL0     H69073   6.274  -0.415   4.056 -1.4348 -0.1230 -0.5481
  512MOL0     H69074   6.489  -0.430   4.284 -2.4715  4.5161 -0.1997
  512MOL0     H69075   6.425  -0.574   4.210  2.1741  0.1523  3.6295
  512MOL0     H69076   6.588  -0.331   4.091  1.0964  0.0932 -1.1933
  512MOL0     H69077   6.544  -0.472   3.989 -0.0927 -1.3992  0.0678
  512MOL0     H69078   6.767  -0.475   4.071  1.6207 -2.5612  1.4243
  512MOL0     H69079   6.670  -0.615   4.122  3.1251 -0.9537  2.4640
  512MOL0     H69080   6.817  -0.270   4.165  1.4413  0.8846  0.0865
  512MOL0     H69081   6.979  -0.128   4.273  1.0394  1.1044 -0.2783
  512MOL0     H69082   6.947   0.026   4.820 -0.3995  0.8395 -0.5287
  512MOL0     H69083   7.067   0.205   4.932  1.0416 -0.6428  1.9074
  512MOL0     H69084   7.207   0.300   5.071 -0.1456  0.3607 -0.0652
  512MOL0     H69085   7.284   0.152   5.107 -3.2443  0.6533  1.1766
  512MOL0     H69086   7.504   0.273   5.146 -0.8891  0.0081 -0.2506
  512MOL0     H69087   7.443   0.419   5.074 -0.1807 -0.6934 -2.2840
  512MOL0     H69088   7.272   0.457   5.255  1.3887  0.8682  2.8761
  512MOL0     H69089   7.307   0.294   5.310 -2.3712  0.5385 -0.8846
  512MOL0     H69090   7.519   0.490   5.302 -3.3859  2.1055 -3.4657
  512MOL0     H69091   7.492   0.370   5.430 -1.6464  1.3508  2.7175
  512MOL0     H69092   7.328   0.627   5.413  0.3350  2.2152  2.9936
  512MOL0     H69093   7.463   0.590   5.515 -0.4884 -0.7520  0.5522
  512MOL0     H69094   7.225   0.572   5.617 -0.5481 -1.7574  1.7201
  512MOL0     H69095   7.212   0.411   5.542  0.3414  0.4311  0.1173
  512MOL0     H69096   7.410   0.514   5.746 -2.9326  1.9303 -0.0613
  512MOL0     H69097   7.432   0.364   5.644  0.2264  0.8498  0.1476
  512MOL0     H69098   7.223   0.417   5.864 -0.0007  1.2834 -1.5490
  512MOL0     H69099   7.221   0.268   5.757 -1.9243  1.1319 -1.2241
  512MOL0     H69100   7.436   0.051   4.745 -0.5553 -0.7943 -1.3563
  512MOL0     H69101   7.298  -0.120   4.643 -0.8101 -0.8730 -0.5314
  512MOL0     H69102   6.860  -0.300   4.651  3.9788 -0.5717  0.9045
  512MOL0     H69103   6.772  -0.498   4.518 -0.1366  1.7515  2.7721
  512MOL0     H69104   6.831   0.120   3.458  0.6517 -0.8762 -0.0922
  512MOL0     H69105   6.995   0.155   3.262 -0.1431  0.7082  0.9769
  512MOL0     H69106   7.213   0.097   2.979 -2.3643  1.7344  1.0262
  512MOL0     H69107   7.431   0.162   2.866  0.0917 -1.6984 -2.6825
  512MOL0     H69108   7.386   0.406   2.504  0.7309  0.7268 -1.3280
  512MOL0     H69109   7.415   0.240   2.444  0.1064 -0.1978  0.8586
  512MOL0     H69110   7.646   0.401   2.550  0.8273 -2.8310  0.7297
  512MOL0     H69111   7.584   0.435   2.397 -0.7980 -0.4830 -1.0921
  512MOL0     H69112   7.665   0.146   2.430  0.0223 -0.2858 -0.6615
  512MOL0     H69113   7.794   0.268   2.425 -0.8172 -1.0236 -0.1819
  512MOL0     H69114   7.570   0.229   2.228  0.7383  0.6871 -2.4889
  512MOL0     H69115   7.707   0.332   2.197  0.5993 -1.9344 -1.2813
  512MOL0     H69116   7.859  -0.051   2.130  1.0870 -0.0943  0.2437
  512MOL0     H69117   7.200   0.384   2.587  1.7531 -0.8882 -1.2294
  512MOL0     H69118   6.891   0.360   2.697  0.8159 -0.2418 -0.4539
  512MOL0     H69119   6.968   0.490   2.786 -1.7582 -0.5568 -0.7796
  512MOL0     H69120   6.999   0.472   2.618 -0.7027 -0.8104 -0.9165
  513MOL0     O69121   9.811   9.190   1.673  0.0145  0.0948 -1.4485
  513MOL0     C69122   9.771   9.081   1.648  0.7788  1.7686 -0.0232
  513MOL0     O69123   9.697   9.049   1.535  0.0309 -0.4985 -0.4312
  513MOL0     C69124   9.638   9.150   1.456 -0.1513  0.0017 -0.5109
  513MOL0     C69125   9.662   9.290   1.462 -0.7600  0.0215 -0.0334
  513MOL0     C69126   9.585   9.376   1.391  0.3973  0.2056 -0.9736
  513MOL0     C69127   9.485   9.340   1.304 -0.3339  0.2792 -0.5127
  513MOL0     O69128   9.421   9.427   1.222  0.4494 -0.7263 -0.6392
  513MOL0     C69129   9.509   9.508   1.139 -0.0570 -0.8674 -0.7541
  513MOL0     C69130   9.427   9.607   1.050 -0.2874 -0.3892  0.5631
  513MOL0     C69131   9.536   9.699   0.989 -0.0708 -0.0950  0.5577
  513MOL0     C69132   9.479   9.842   0.950  1.0898 -0.1092  1.0326
  513MOL0     C69133   9.594   9.948   0.943 -0.4323 -0.0836  0.5966
  513MOL0     C69134   9.663   9.957   0.808  0.5023  0.3589  0.8080
  513MOL0     C69135   9.783  10.057   0.817 -1.0232 -0.2808 -0.3969
  513MOL0     C69136   9.905   9.987   0.871 -0.6023  0.3708 -0.0033
  513MOL0     N69137   9.997   9.944   0.770  0.4678 -0.5492  0.1566
  513MOL0     C69138  10.136   9.982   0.749 -0.2982  0.9948  1.0686
  513MOL0     C69139  10.178   9.885   0.655  0.6982  0.5135 -0.6354
  513MOL0     C69140  10.316   9.866   0.601  0.6163  0.5207 -0.2389
  513MOL0     C69141  10.371  10.002   0.559  0.1020  0.6846 -0.0961
  513MOL0     C69142  10.520   9.998   0.540  0.5736  0.4327  0.4798
  513MOL0     C69143  10.569  10.139   0.487  0.2275  0.4336  0.5378
  513MOL0     O69144  10.499  10.185   0.362 -0.1296 -0.2402 -0.1144
  513MOL0     C69145  10.533  10.304   0.310 -0.0990  0.8419 -0.2062
  513MOL0     C69146  10.446  10.400   0.271  0.5757  0.0899 -0.6232
  513MOL0     C69147  10.470  10.523   0.213 -0.3253  0.9968  0.1077
  513MOL0     C69148  10.604  10.556   0.192 -0.0244  1.4021  0.2633
  513MOL0     C69149  10.635  10.685   0.135  0.1609  0.4703  0.1211
  513MOL0     O69150  10.535  10.776   0.117 -0.6280 -0.6218 -0.0684
  513MOL0     C69151  10.578  10.904   0.076 -1.8801  0.4809 -0.4911
  513MOL0     C69152  10.587  10.933  -0.060 -0.3325  0.7794  0.0640
  513MOL0     C69153  10.644  11.058  -0.103 -0.3596  0.1692 -0.1642
  513MOL0     C69154  10.685  11.156  -0.014  0.0844  0.3667 -0.2234
  513MOL0     O69155  10.736  11.280  -0.037 -0.0964 -0.1528  0.9400
  513MOL0     C69156  10.731  11.335  -0.164  0.3368 -0.2160  0.4286
  513MOL0     C69157  10.814  11.461  -0.179  0.0406 -0.2948  0.0760
  513MOL0     C69158  10.757  11.575  -0.100 -0.4904  0.2475 -0.3525
  513MOL0     C69159  10.833  11.710  -0.123  0.2697  0.6310 -0.1963
  513MOL0     C69160  10.813  11.812  -0.010  0.5656 -1.1537 -0.1478
  513MOL0     C69161  10.916  11.925  -0.028 -0.4591  0.0717 -0.3436
  513MOL0     C69162  10.874  12.039   0.066 -0.5522 -0.4823  0.7565
  513MOL0     C69163  10.955  12.166   0.061 -0.0118  0.5155  0.3218
  513MOL0    Cl69164  10.929  12.253  -0.090 -0.2428 -0.2878  0.0060
  513MOL0     C69165  10.660  11.129   0.123  0.3345 -0.0626  0.1729
  513MOL0     C69166  10.618  11.001   0.169 -0.4517  0.8350 -0.2321
  513MOL0     O69167  10.742  10.683   0.078 -0.4259  0.1561  0.1125
  513MOL0     C69168  10.702  10.461   0.231  0.1695  1.0697 -0.2294
  513MOL0     C69169  10.666  10.336   0.285  0.0422  1.0010  0.7765
  513MOL0     N69170  10.073   9.791   0.637 -0.7472  1.0414 -0.0390
  513MOL0     N69171   9.974   9.829   0.707 -0.3787 -0.0442  0.4993
  513MOL0     C69172   9.469   9.205   1.285  0.9105  0.1403  0.1794
  513MOL0     C69173   9.545   9.110   1.362 -0.5095 -0.3130  0.3345
  513MOL0     C69174   9.800   8.966   1.737  0.0840 -0.5785 -0.5192
  513MOL0     C69175   9.704   8.869   1.756 -0.1784  0.5965 -0.7088
  513MOL0     C69176   9.726   8.756   1.833 -0.7233  0.2019  0.1187
  513MOL0     C69177   9.858   8.733   1.886  0.2166 -0.4825 -0.1570
  513MOL0     O69178   9.875   8.616   1.945  0.5180  0.1358  0.0888
  513MOL0     C69179   9.995   8.593   2.015  0.8558  0.0044  0.2411
  513MOL0     C69180  10.000   8.457   2.082 -0.6436  0.6546  0.3453
  513MOL0     C69181   9.924   8.452   2.207  0.1554  0.0236 -0.1257
  513MOL0     C69182   9.893   8.310   2.268  0.2577  0.3755  0.6154
  513MOL0     C69183   9.792   8.236   2.197 -0.1863  0.5645 -0.0054
  513MOL0     C69184   9.709   8.198   2.119 -0.4785 -0.0812 -0.1802
  513MOL0     C69185   9.944   8.841   1.888 -0.7298  0.1575 -0.8605
  513MOL0     C69186   9.928   8.953   1.807 -0.5346  0.1436  1.1501
  513MOL0     C69187  10.047   9.037   1.787  0.6962  0.9004 -0.0911
  513MOL0     H69188   9.715   9.345   1.540  1.0708 -3.0692  1.0781
  513MOL0     H69189   9.594   9.482   1.411  2.5902  0.3305 -2.3857
  513MOL0     H69190   9.567   9.571   1.207 -3.8766  1.8848  0.3013
  513MOL0     H69191   9.572   9.441   1.079  0.7151  0.4235 -1.4098
  513MOL0     H69192   9.353   9.663   1.108 -1.3511 -0.3504 -0.7927
  513MOL0     H69193   9.380   9.555   0.967  0.8084  0.8546 -0.8885
  513MOL0     H69194   9.578   9.640   0.906 -1.4302 -1.0815  0.5279
  513MOL0     H69195   9.617   9.712   1.061 -0.5015 -1.0201  1.2239
  513MOL0     H69196   9.429   9.848   0.853 -1.3605 -0.4930  2.1711
  513MOL0     H69197   9.410   9.879   1.027  1.1906 -0.2692  1.2011
  513MOL0     H69198   9.567  10.045   0.984 -1.3633 -0.4936  0.9887
  513MOL0     H69199   9.674   9.913   1.009  0.9168 -1.0292 -1.4414
  513MOL0     H69200   9.692   9.853   0.790  1.1039  0.7892 -0.8680
  513MOL0     H69201   9.592  10.000   0.736  0.4283  1.9120  1.7733
  513MOL0     H69202   9.765  10.146   0.878 -0.8565  1.4202 -2.6628
  513MOL0     H69203   9.820  10.093   0.720  2.4785 -0.2224  0.8094
  513MOL0     H69204   9.950  10.043   0.953 -1.0475  1.6208 -0.5850
  513MOL0     H69205   9.868   9.898   0.923 -2.6062  0.6507 -0.8264
  513MOL0     H69206  10.199  10.049   0.806  2.6231 -1.5662  1.1145
  513MOL0     H69207  10.376   9.815   0.677 -0.8401  0.6444  1.0348
  513MOL0     H69208  10.308   9.794   0.519 -0.0055 -0.9578  1.0957
  513MOL0     H69209  10.333  10.020   0.458  1.5949 -1.7653 -1.1898
  513MOL0     H69210  10.347  10.080   0.631 -0.2857  0.8358 -0.3840
  513MOL0     H69211  10.548   9.924   0.463  2.6068 -1.3111  2.7540
  513MOL0     H69212  10.571   9.964   0.630  0.4286  0.7857  0.6965
  513MOL0     H69213  10.676  10.147   0.468  0.1942  1.8808  0.8186
  513MOL0     H69214  10.545  10.216   0.561 -2.1254  0.2822  0.0330
  513MOL0     H69215  10.342  10.370   0.272  0.8993 -1.2437 -2.0506
  513MOL0     H69216  10.391  10.595   0.197  0.9306  3.3336  3.3333
  513MOL0     H69217  10.569  10.854  -0.133 -1.7887  2.1383 -1.1074
  513MOL0     H69218  10.662  11.069  -0.209  2.2472 -0.1992  0.1768
  513MOL0     H69219  10.774  11.265  -0.236  0.7937  2.6181 -2.3277
  513MOL0     H69220  10.626  11.353  -0.190  0.7556  1.9516  0.0378
  513MOL0     H69221  10.908  11.425  -0.136 -1.6862 -3.1906  1.7909
  513MOL0     H69222  10.834  11.489  -0.283  0.6575  1.8008  0.7227
  513MOL0     H69223  10.652  11.588  -0.129  0.2054  0.8622 -2.8723
  513MOL0     H69224  10.775  11.549   0.004  2.0552 -3.8933 -1.5662
  513MOL0     H69225  10.781  11.761  -0.205 -0.9636 -0.5465 -0.1810
  513MOL0     H69226  10.942  11.714  -0.126  0.4420 -0.2533  2.6035
  513MOL0     H69227  10.820  11.780   0.094 -0.3452  0.0658  0.3097
  513MOL0     H69228  10.713  11.855  -0.019  1.5489  1.0259 -1.2724
  513MOL0     H69229  11.014  11.896   0.012 -1.4008  0.0652  2.1335
  513MOL0     H69230  10.922  11.959  -0.132  0.8837  3.2764  0.6740
  513MOL0     H69231  10.877  11.995   0.166 -0.5945  1.4675  1.6431
  513MOL0     H69232  10.769  12.063   0.049 -0.5042  0.5411  1.8253
  513MOL0     H69233  10.924  12.243   0.131  0.2847 -0.1840  1.2418
  513MOL0     H69234  11.059  12.134   0.072  0.2631  0.2420 -2.2964
  513MOL0     H69235  10.707  11.199   0.191 -0.7665  0.2059  0.6790
  513MOL0     H69236  10.614  10.973   0.273 -5.1982  0.5126 -0.2793
  513MOL0     H69237  10.809  10.479   0.224  0.5325 -1.0812 -0.9569
  513MOL0     H69238  10.748  10.272   0.315 -0.8684  0.2640  1.7947
  513MOL0     H69239   9.401   9.174   1.207  0.7365 -0.0855  0.4175
  513MOL0     H69240   9.550   9.005   1.336 -1.7960  0.3887 -3.3618
  513MOL0     H69241   9.604   8.892   1.720 -0.0539  0.7522 -0.9561
  513MOL0     H69242   9.641   8.689   1.845 -0.8942  0.3668 -0.1506
  513MOL0     H69243  10.002   8.666   2.096  1.5938  1.8336 -1.3758
  513MOL0     H69244  10.083   8.600   1.951  3.3358  0.0514  3.4082
  513MOL0     H69245  10.102   8.423   2.101 -2.2164 -2.8656  3.8129
  513MOL0     H69246   9.949   8.385   2.017 -2.3656  2.1403 -0.0296
  513MOL0     H69247   9.828   8.505   2.205  0.6656  1.0210  0.7169
  513MOL0     H69248   9.991   8.513   2.269  2.0854 -0.1777 -1.9206
  513MOL0     H69249   9.986   8.254   2.283 -0.1029 -0.3475  0.2301
  513MOL0     H69250   9.851   8.323   2.368  0.8559 -0.4630  0.9881
  513MOL0     H69251   9.640   8.157   2.048  0.6127 -2.8473  0.2273
  513MOL0     H69252  10.042   8.834   1.934 -1.3197  0.4963  0.4906
  513MOL0     H69253  10.056   9.109   1.868  3.7018 -0.1264  0.5980
  513MOL0     H69254  10.140   8.981   1.775 -0.8145 -1.9093  0.3781
  513MOL0     H69255  10.036   9.079   1.687 -1.5754  1.3533  0.2869
  514MOL0     O69256   4.207   1.046   5.474  0.5890  0.1326 -0.0032
  514MOL0     C69257   4.133   1.110   5.395 -0.5272  0.3535 -0.3859
  514MOL0     O69258   4.156   1.238   5.367  0.6456 -0.5729  0.9532
  514MOL0     C69259   4.264   1.300   5.421  0.2043 -0.4213 -0.3106
  514MOL0     C69260   4.352   1.359   5.328 -0.2806 -0.1337 -0.5634
  514MOL0     C69261   4.460   1.438   5.384 -0.2064  0.7990 -0.1727
  514MOL0     C69262   4.468   1.475   5.518  0.2822  0.2661  0.4014
  514MOL0     O69263   4.555   1.579   5.556 -0.6297  0.9781 -0.6890
  514MOL0     C69264   4.516   1.676   5.655 -0.4767 -1.3745  0.4575
  514MOL0     C69265   4.586   1.800   5.617 -0.7491 -0.5802  0.5810
  514MOL0     C69266   4.548   1.884   5.492  0.3737  0.2536  0.8185
  514MOL0     C69267   4.671   1.958   5.432 -0.5206 -0.4124 -0.6194
  514MOL0     C69268   4.654   1.992   5.284  0.8905 -0.2590 -0.1625
  514MOL0     C69269   4.774   2.064   5.215  0.0966  0.1760 -0.0735
  514MOL0     C69270   4.739   2.164   5.107 -0.0924  0.0240  0.6559
  514MOL0     C69271   4.721   2.102   4.973 -0.5834  0.3044  1.0028
  514MOL0     N69272   4.579   2.098   4.929 -0.0715 -0.8066 -0.5838
  514MOL0     C69273   4.530   2.126   4.801 -0.8814  0.3661 -0.7926
  514MOL0     C69274   4.401   2.078   4.793  0.1975 -0.2702  0.7477
  514MOL0     C69275   4.323   2.052   4.672  0.3946 -0.5312  0.3936
  514MOL0     C69276   4.343   1.922   4.598 -0.4895  0.2226 -0.0283
  514MOL0     C69277   4.218   1.877   4.527 -0.4490  0.4564 -0.3969
  514MOL0     C69278   4.180   1.962   4.407  0.1414  0.9856 -0.1682
  514MOL0     O69279   4.062   1.910   4.344  0.4470  0.1110  0.3324
  514MOL0     C69280   4.020   1.979   4.223 -0.3343  0.3814 -0.3038
  514MOL0     C69281   3.937   1.909   4.142 -0.1011 -0.4707 -0.0320
  514MOL0     C69282   3.907   1.954   4.012  0.7939  0.2852 -0.0708
  514MOL0     C69283   3.947   2.079   3.977 -0.1589 -0.5498 -0.2040
  514MOL0     C69284   3.900   2.131   3.846  0.7999  0.0986 -0.3982
  514MOL0     O69285   3.952   2.247   3.813 -0.0356  0.3129 -0.1139
  514MOL0     C69286   3.905   2.329   3.717 -0.8357  0.1554 -0.3965
  514MOL0     C69287   3.777   2.322   3.667  0.5492 -0.3217  0.7922
  514MOL0     C69288   3.734   2.406   3.564  0.5971  0.4105  0.8267
  514MOL0     C69289   3.827   2.483   3.497 -0.1112 -0.0779 -0.5329
  514MOL0     O69290   3.776   2.561   3.398 -0.2945 -1.3163 -0.4945
  514MOL0     C69291   3.851   2.557   3.273 -0.8502 -0.3797 -0.3039
  514MOL0     C69292   3.872   2.691   3.205  0.1474  0.3475  1.0549
  514MOL0     C69293   3.746   2.717   3.119 -0.0113 -0.7410  0.7497
  514MOL0     C69294   3.751   2.865   3.062 -0.3641  0.0993  0.2432
  514MOL0     C69295   3.647   2.870   2.941 -1.0153  0.0466 -0.7326
  514MOL0     C69296   3.596   3.012   2.911  0.0197  0.3422 -0.0586
  514MOL0     C69297   3.716   3.117   2.903 -0.2465  0.4801  0.4096
  514MOL0     C69298   3.789   3.103   2.772 -0.0928 -0.8966  0.0252
  514MOL0    Cl69299   3.907   3.246   2.769 -0.3864  0.3981  0.1891
  514MOL0     C69300   3.957   2.491   3.547 -0.2311  0.1264 -0.0513
  514MOL0     C69301   3.991   2.418   3.655  0.4008 -0.0102 -0.9154
  514MOL0     O69302   3.823   2.066   3.783 -0.2447 -0.1789 -0.5464
  514MOL0     C69303   4.037   2.153   4.060  0.3926  0.0752  0.1903
  514MOL0     C69304   4.063   2.101   4.188  0.3682 -0.3372 -0.4845
  514MOL0     N69305   4.373   2.025   4.918 -0.0369  0.6869 -0.3085
  514MOL0     N69306   4.479   2.046   4.998 -0.5189 -0.5873 -0.3161
  514MOL0     C69307   4.379   1.421   5.607  0.3698  0.2537 -0.9436
  514MOL0     C69308   4.278   1.336   5.560 -0.1658  0.8416 -0.3884
  514MOL0     C69309   4.000   1.057   5.385  0.5805 -0.4214 -0.3225
  514MOL0     C69310   3.907   1.080   5.489  0.3697  0.5915 -0.2104
  514MOL0     C69311   3.775   1.019   5.497  0.0495  0.1384  0.6627
  514MOL0     C69312   3.737   0.933   5.388  0.2903  0.3221 -0.3642
  514MOL0     O69313   3.618   0.867   5.373  0.4581  0.0610  0.5810
  514MOL0     C69314   3.517   0.893   5.469 -0.4634  1.1881  0.1930
  514MOL0     C69315   3.391   0.828   5.426 -0.7702 -0.2508  0.4438
  514MOL0     C69316   3.357   0.893   5.295  1.3806 -0.5811  0.0279
  514MOL0     C69317   3.219   0.863   5.240 -0.2592  0.2114  0.9443
  514MOL0     C69318   3.212   0.723   5.207  0.3175 -0.0005 -0.3518
  514MOL0     C69319   3.189   0.605   5.187 -0.5040  0.0534  0.6394
  514MOL0     C69320   3.830   0.916   5.281 -0.4326  0.1808  0.0059
  514MOL0     C69321   3.953   0.985   5.277 -0.0479  1.0614  0.4252
  514MOL0     C69322   4.048   0.955   5.163 -0.0199  0.1961 -0.5689
  514MOL0     H69323   4.345   1.329   5.224 -3.3200  0.8610 -0.7470
  514MOL0     H69324   4.540   1.474   5.320  0.1750  0.2780  0.0014
  514MOL0     H69325   4.407   1.686   5.662 -0.4116 -0.6329  0.5623
  514MOL0     H69326   4.551   1.641   5.752 -1.3662  0.5787  1.5517
  514MOL0     H69327   4.694   1.784   5.615 -0.0293  3.2132 -0.0669
  514MOL0     H69328   4.575   1.878   5.694  4.1786  1.4687 -0.4193
  514MOL0     H69329   4.473   1.960   5.515 -0.8120 -1.1937  1.8955
  514MOL0     H69330   4.515   1.807   5.422  1.9998  0.7446 -0.5758
  514MOL0     H69331   4.692   2.043   5.498 -1.9473 -2.0414  2.1292
  514MOL0     H69332   4.758   1.893   5.440  0.1137  0.4785 -0.1035
  514MOL0     H69333   4.632   1.901   5.227  1.4593  0.8974 -2.2981
  514MOL0     H69334   4.564   2.053   5.269  0.4791 -0.6199  0.7403
  514MOL0     H69335   4.828   2.123   5.290  0.2467  1.4943 -1.1750
  514MOL0     H69336   4.848   1.994   5.175  1.9351  2.5667 -1.1198
  514MOL0     H69337   4.829   2.224   5.090 -0.4191  0.3934  0.2124
  514MOL0     H69338   4.656   2.230   5.134  0.6021  2.1449 -1.9425
  514MOL0     H69339   4.789   2.142   4.897  0.9228 -0.2385  1.9991
  514MOL0     H69340   4.742   1.994   4.967 -1.2846  0.2175 -0.6791
  514MOL0     H69341   4.604   2.163   4.730 -0.1855 -0.8939 -0.7442
  514MOL0     H69342   4.217   2.060   4.699  0.3726 -0.1173  0.1897
  514MOL0     H69343   4.331   2.138   4.606 -1.2913  0.0456  0.8951
  514MOL0     H69344   4.433   1.921   4.536  0.8585 -5.5987  1.4888
  514MOL0     H69345   4.361   1.844   4.672  0.4960 -2.7525 -3.1565
  514MOL0     H69346   4.132   1.870   4.595 -0.1529  1.4762  0.0965
  514MOL0     H69347   4.233   1.774   4.493  0.9844  0.5341 -0.0623
  514MOL0     H69348   4.255   1.980   4.329  0.3528  1.1886  0.0788
  514MOL0     H69349   4.153   2.060   4.447  2.6088  2.1203 -1.0955
  514MOL0     H69350   3.916   1.803   4.159 -3.1958 -0.6386 -3.5919
  514MOL0     H69351   3.841   1.896   3.947  0.1791 -0.3068  1.0603
  514MOL0     H69352   3.704   2.258   3.716 -0.2843  0.8162  1.0754
  514MOL0     H69353   3.629   2.418   3.540  0.8370  1.4228  0.2149
  514MOL0     H69354   3.947   2.513   3.303 -1.9366 -1.6889  1.4756
  514MOL0     H69355   3.810   2.485   3.203  1.2727 -0.4486 -1.5575
  514MOL0     H69356   3.862   2.769   3.281  1.1280  0.9757  0.5546
  514MOL0     H69357   3.972   2.687   3.161  0.0501 -0.7169  0.9067
  514MOL0     H69358   3.748   2.642   3.040  0.1062  0.9463 -0.9387
  514MOL0     H69359   3.651   2.714   3.173 -2.7795  1.3365 -3.3913
  514MOL0     H69360   3.850   2.894   3.026 -1.6916  0.9298 -3.1092
  514MOL0     H69361   3.721   2.944   3.133 -2.3265 -1.6416  1.4544
  514MOL0     H69362   3.567   2.798   2.962 -0.4951 -0.8695 -1.7693
  514MOL0     H69363   3.704   2.831   2.856  0.8463  0.8947  0.0967
  514MOL0     H69364   3.549   3.010   2.813 -3.3305 -1.7642  1.4011
  514MOL0     H69365   3.519   3.035   2.985 -1.2109  0.7862 -1.4313
  514MOL0     H69366   3.779   3.109   2.992  1.3720 -0.8685 -0.8036
  514MOL0     H69367   3.671   3.217   2.908  0.4884  0.7847  1.4788
  514MOL0     H69368   3.843   3.009   2.786  2.1162  0.4953  1.4197
  514MOL0     H69369   3.728   3.096   2.682  0.0381 -1.6275 -0.0153
  514MOL0     H69370   4.027   2.550   3.488 -1.9666  2.9676  0.5656
  514MOL0     H69371   4.091   2.425   3.698  1.1741 -2.0984 -2.2071
  514MOL0     H69372   4.079   2.249   4.034  1.3922  0.2320  2.2008
  514MOL0     H69373   4.130   2.152   4.256  1.6825 -0.4390 -1.6692
  514MOL0     H69374   4.395   1.435   5.714  0.3261 -5.9871  0.3003
  514MOL0     H69375   4.202   1.308   5.633  1.8086 -1.1160  1.0838
  514MOL0     H69376   3.934   1.140   5.576 -1.1448 -0.8567  1.3378
  514MOL0     H69377   3.722   1.029   5.592  2.7184 -1.9091  2.5200
  514MOL0     H69378   3.505   1.002   5.471 -3.5219  0.9609 -0.0250
  514MOL0     H69379   3.550   0.868   5.570 -0.7007 -1.8878 -0.3926
  514MOL0     H69380   3.309   0.855   5.493 -0.8661  0.0194  0.2213
  514MOL0     H69381   3.401   0.719   5.424 -0.9293 -0.2609 -0.8340
  514MOL0     H69382   3.435   0.864   5.223 -2.2718 -2.3999 -3.6402
  514MOL0     H69383   3.351   1.001   5.313  2.5115 -0.5611  0.3907
  514MOL0     H69384   3.146   0.875   5.320 -1.5123 -4.2916  0.7762
  514MOL0     H69385   3.199   0.933   5.158 -0.6425 -0.3010  0.5912
  514MOL0     H69386   3.166   0.501   5.173 -0.0893  0.2882 -2.6415
  514MOL0     H69387   3.788   0.865   5.195 -0.5277 -0.5631  0.4822
  514MOL0     H69388   3.996   0.912   5.077  0.1238  0.2577 -0.6846
  514MOL0     H69389   4.109   1.041   5.135  2.3082 -0.5822  1.6941
  514MOL0     H69390   4.114   0.872   5.189  1.1826  0.0796 -3.5994
  515MOL0     O69391   1.579   0.318   2.675 -0.3597 -0.0249  0.2127
  515MOL0     C69392   1.465   0.331   2.718  0.2985  0.3638  0.2002
  515MOL0     O69393   1.348   0.331   2.641 -0.2656 -0.5242  0.2846
  515MOL0     C69394   1.344   0.318   2.508 -0.6650  0.2348 -0.2052
  515MOL0     C69395   1.218   0.305   2.451  0.1604  1.0925 -0.0144
  515MOL0     C69396   1.202   0.285   2.318  0.3153 -0.1238  0.5489
  515MOL0     C69397   1.306   0.310   2.226 -0.7754  0.1282 -0.6138
  515MOL0     O69398   1.292   0.318   2.082  0.5415 -0.3764 -0.8725
  515MOL0     C69399   1.172   0.256   2.029 -0.1773  0.6563 -0.1111
  515MOL0     C69400   1.178   0.221   1.879  0.3715  0.1504  0.2075
  515MOL0     C69401   1.056   0.163   1.814 -0.2872  0.2744 -0.6074
  515MOL0     C69402   0.953   0.274   1.772 -0.3703 -0.1955 -0.7273
  515MOL0     C69403   0.812   0.217   1.749  0.6514  0.0978 -0.3902
  515MOL0     C69404   0.699   0.329   1.721 -0.9409 -0.6761 -0.5206
  515MOL0     C69405   0.552   0.286   1.717  0.9894  0.1419  1.0916
  515MOL0     C69406   0.460   0.398   1.758 -0.3325  0.5893  0.6610
  515MOL0     N69407   0.455   0.421   1.903  0.3029 -0.1610 -0.6396
  515MOL0     C69408   0.541   0.496   1.979  0.2760 -1.1080  0.1647
  515MOL0     C69409   0.491   0.498   2.102  0.5573  0.3316  1.1877
  515MOL0     C69410   0.550   0.586   2.210  0.1920 -0.4482 -0.3041
  515MOL0     C69411   0.458   0.707   2.239  0.1548 -0.0199 -0.0151
  515MOL0     C69412   0.509   0.770   2.368 -0.4174 -0.8023  0.0328
  515MOL0     C69413   0.662   0.786   2.366  0.3548 -0.1815  0.0798
  515MOL0     O69414   0.691   0.905   2.446  0.0410  0.0515  0.7127
  515MOL0     C69415   0.812   0.961   2.445  0.1369  0.2142  0.2110
  515MOL0     C69416   0.921   0.922   2.372 -0.2556 -0.7414  0.1353
  515MOL0     C69417   1.051   0.982   2.402 -0.1843 -0.7987  0.0531
  515MOL0     C69418   1.064   1.096   2.475 -0.6639 -0.1101 -0.4165
  515MOL0     C69419   1.187   1.169   2.487  0.4407  0.9387  0.3260
  515MOL0     O69420   1.193   1.240   2.611 -0.9866  0.1370 -0.1693
  515MOL0     C69421   1.257   1.361   2.628 -0.5384 -0.0211  0.3732
  515MOL0     C69422   1.299   1.453   2.529  1.1418  0.4565  0.6570
  515MOL0     C69423   1.350   1.577   2.568  0.1592 -0.5347 -0.0985
  515MOL0     C69424   1.385   1.605   2.698  0.1071  1.5248 -0.1243
  515MOL0     O69425   1.443   1.726   2.715 -0.1358 -0.4529  0.2225
  515MOL0     C69426   1.368   1.848   2.686  0.3664 -0.7075 -0.1731
  515MOL0     C69427   1.458   1.972   2.728 -0.5722  0.2308 -0.0059
  515MOL0     C69428   1.592   1.975   2.655  0.2531  0.3491  0.7960
  515MOL0     C69429   1.583   1.991   2.506  0.7869 -0.1039 -0.6901
  515MOL0     C69430   1.723   2.018   2.446  0.0841  0.1397 -0.6720
  515MOL0     C69431   1.705   2.036   2.299 -0.2067 -0.0445 -0.8225
  515MOL0     C69432   1.841   2.058   2.232  0.7704 -0.4822 -1.0013
  515MOL0     C69433   1.844   2.077   2.079  0.6562  0.3464 -0.1160
  515MOL0    Cl69434   2.009   2.140   2.036  0.0052  0.0096 -0.0458
  515MOL0     C69435   1.352   1.512   2.800 -0.0315 -0.1844  0.3472
  515MOL0     C69436   1.286   1.390   2.763 -0.3938 -0.4685  1.0353
  515MOL0     O69437   1.262   1.188   2.392  0.0894  0.0566 -0.3215
  515MOL0     C69438   0.943   1.142   2.537  0.0021  0.3775  0.4030
  515MOL0     C69439   0.816   1.082   2.508  0.5571  0.3591 -0.3891
  515MOL0     N69440   0.385   0.413   2.103 -0.4670 -0.1175  0.1682
  515MOL0     N69441   0.356   0.372   1.979 -0.3647 -0.4738  0.9489
  515MOL0     C69442   1.432   0.345   2.282  0.4048  0.9261  0.2952
  515MOL0     C69443   1.448   0.366   2.424 -0.6767  0.3133  0.0848
  515MOL0     C69444   1.444   0.355   2.863 -1.3770 -0.4224 -0.5718
  515MOL0     C69445   1.331   0.425   2.893  0.8434  0.9894  0.5807
  515MOL0     C69446   1.292   0.458   3.016 -0.1028 -0.6648 -1.3148
  515MOL0     C69447   1.383   0.433   3.122 -0.1168 -0.6451 -0.2853
  515MOL0     O69448   1.364   0.471   3.256 -0.1967  1.0133  0.1043
  515MOL0     C69449   1.303   0.598   3.273  0.1408 -0.0978 -0.6567
  515MOL0     C69450   1.342   0.656   3.407  0.6531 -0.2438  0.5126
  515MOL0     C69451   1.284   0.574   3.523  0.0476 -0.3196  0.0241
  515MOL0     C69452   1.355   0.606   3.652  0.1551  0.2746  0.3884
  515MOL0     C69453   1.312   0.511   3.759  0.5480 -0.4078  1.1655
  515MOL0     C69454   1.279   0.440   3.851  0.2633 -0.2792  0.4635
  515MOL0     C69455   1.505   0.369   3.090 -0.1832 -0.6326 -0.8154
  515MOL0     C69456   1.531   0.321   2.969 -0.5791 -1.4276  0.4881
  515MOL0     C69457   1.658   0.241   2.955 -0.1361  0.4993  0.5656
  515MOL0     H69458   1.123   0.289   2.502 -1.6831  0.5494 -3.3460
  515MOL0     H69459   1.103   0.258   2.281 -0.1150 -0.0165  1.5758
  515MOL0     H69460   1.161   0.159   2.079 -0.1493  1.0647  0.7077
  515MOL0     H69461   1.088   0.319   2.058 -0.2112 -0.6926  3.2137
  515MOL0     H69462   1.255   0.147   1.855  2.7512  2.9986 -1.6097
  515MOL0     H69463   1.202   0.316   1.831 -1.5144  1.7657  2.2428
  515MOL0     H69464   1.011   0.087   1.879  1.3525 -0.7253 -0.5967
  515MOL0     H69465   1.082   0.113   1.721 -4.4969 -1.1483 -1.2518
  515MOL0     H69466   0.951   0.355   1.846  0.0456  0.4967 -1.4500
  515MOL0     H69467   0.987   0.326   1.682 -0.6634  1.5462  0.1080
  515MOL0     H69468   0.830   0.166   1.653  1.0606  1.1523 -0.8938
  515MOL0     H69469   0.776   0.143   1.821 -0.7119 -0.7000 -1.8187
  515MOL0     H69470   0.708   0.396   1.807 -1.2694 -0.3789 -0.7170
  515MOL0     H69471   0.724   0.388   1.633 -1.6618 -3.0984 -2.4612
  515MOL0     H69472   0.543   0.205   1.789  3.2866  2.0375  3.7092
  515MOL0     H69473   0.530   0.256   1.614 -2.3762  1.0187  1.4379
  515MOL0     H69474   0.489   0.491   1.709 -0.7043  1.0222  1.2573
  515MOL0     H69475   0.362   0.378   1.712  0.1664  0.5938 -0.4388
  515MOL0     H69476   0.628   0.554   1.950 -0.8476 -0.8477 -3.0455
  515MOL0     H69477   0.575   0.538   2.304  2.5615  0.8361 -0.1831
  515MOL0     H69478   0.648   0.616   2.170  0.0556  1.3912  0.6221
  515MOL0     H69479   0.457   0.795   2.175 -1.8697 -0.2256 -0.3199
  515MOL0     H69480   0.353   0.677   2.246  0.6917 -1.7816  1.2672
  515MOL0     H69481   0.483   0.716   2.459  0.2000 -1.0344  0.0779
  515MOL0     H69482   0.458   0.867   2.370  0.1161 -0.4617 -1.4676
  515MOL0     H69483   0.710   0.791   2.268  0.5557  1.0250  0.2260
  515MOL0     H69484   0.697   0.700   2.426 -0.5715  0.4818  1.6405
  515MOL0     H69485   0.921   0.836   2.305  1.4826 -1.3105  0.8121
  515MOL0     H69486   1.140   0.923   2.384  1.4346  1.2348  0.8860
  515MOL0     H69487   1.279   1.444   2.423  0.5449  1.9715  0.6086
  515MOL0     H69488   1.370   1.652   2.491 -1.1062  0.2134  0.2728
  515MOL0     H69489   1.338   1.863   2.582  0.4484 -3.3236 -0.6251
  515MOL0     H69490   1.279   1.844   2.750  0.9090  0.7420  0.7204
  515MOL0     H69491   1.419   2.072   2.711  3.1991  1.8976  0.3171
  515MOL0     H69492   1.488   1.972   2.833  3.7408  0.0517 -1.0517
  515MOL0     H69493   1.640   2.067   2.690 -0.1679  0.8802 -0.0030
  515MOL0     H69494   1.657   1.887   2.662  0.0988 -0.3027 -3.4933
  515MOL0     H69495   1.508   2.065   2.477  2.0502 -0.3698 -5.2858
  515MOL0     H69496   1.542   1.904   2.456 -0.4151  2.2714 -4.2058
  515MOL0     H69497   1.788   1.930   2.454  3.1616  1.7933 -4.2158
  515MOL0     H69498   1.760   2.110   2.491 -0.0495  0.1762 -0.6377
  515MOL0     H69499   1.635   1.962   2.259  1.2739 -2.5994  1.0002
  515MOL0     H69500   1.667   2.138   2.304 -1.4106 -0.5400  1.4287
  515MOL0     H69501   1.909   1.978   2.262 -0.7595 -2.6484 -2.9664
  515MOL0     H69502   1.884   2.149   2.273 -2.4180  1.3544 -1.3884
  515MOL0     H69503   1.815   1.988   2.024 -1.5224  1.5322 -0.9782
  515MOL0     H69504   1.775   2.160   2.065  2.0456  1.4657 -0.6165
  515MOL0     H69505   1.363   1.549   2.901 -0.0972 -0.4414  0.4475
  515MOL0     H69506   1.255   1.334   2.850 -1.0372  2.3606  2.7356
  515MOL0     H69507   0.943   1.233   2.597  2.9759  1.0874 -0.5334
  515MOL0     H69508   0.722   1.121   2.544  0.8538 -1.3776  2.6063
  515MOL0     H69509   1.510   0.362   2.209  1.9338 -1.2408  1.2991
  515MOL0     H69510   1.537   0.415   2.463 -1.1510  2.7881 -1.7031
  515MOL0     H69511   1.254   0.459   2.823  0.7638 -1.5770 -0.6990
  515MOL0     H69512   1.196   0.503   3.038  0.3664 -1.1103  2.2253
  515MOL0     H69513   1.197   0.575   3.264 -0.2810  1.2790  0.4107
  515MOL0     H69514   1.332   0.676   3.202 -0.2866  3.6498  2.9388
  515MOL0     H69515   1.307   0.760   3.416 -1.2883 -0.6438 -1.4512
  515MOL0     H69516   1.451   0.648   3.403  0.4888 -3.4530  0.1163
  515MOL0     H69517   1.295   0.467   3.502  0.9510 -0.2892  0.3214
  515MOL0     H69518   1.176   0.591   3.534 -0.4840 -1.2079 -2.8582
  515MOL0     H69519   1.464   0.608   3.648  0.2187  3.2602  0.9215
  515MOL0     H69520   1.330   0.709   3.679  1.9020  1.1693 -1.1384
  515MOL0     H69521   1.245   0.379   3.933  1.1054 -0.4516  0.7025
  515MOL0     H69522   1.568   0.338   3.173 -0.8263 -2.2864 -0.8986
  515MOL0     H69523   1.685   0.202   3.053  1.3486  1.2203  0.4749
  515MOL0     H69524   1.623   0.154   2.899  2.4394 -0.9584  1.0594
  515MOL0     H69525   1.746   0.288   2.911  0.1975 -0.8239 -0.2256
  516MOL0     O69526   3.910   5.014   4.533 -0.5159 -1.3993  0.5052
  516MOL0     C69527   3.923   5.111   4.615 -0.5843  0.7740 -0.4474
  516MOL0     O69528   3.822   5.151   4.697 -0.0600  0.3634 -0.6292
  516MOL0     C69529   3.696   5.103   4.673 -0.0894  0.3173  0.9089
  516MOL0     C69530   3.676   4.964   4.695  0.0184 -0.5023 -0.9196
  516MOL0     C69531   3.555   4.898   4.674  0.4370 -0.6535 -0.8603
  516MOL0     C69532   3.439   4.984   4.634  0.8659 -0.3768 -0.5615
  516MOL0     O69533   3.319   4.935   4.602  0.1647 -0.2420 -0.1557
  516MOL0     C69534   3.234   4.935   4.717 -1.0557 -0.0377  0.3197
  516MOL0     C69535   3.105   4.863   4.667 -0.0195  0.2010 -0.0859
  516MOL0     C69536   3.048   4.961   4.557 -0.3211  0.0757  0.0723
  516MOL0     C69537   2.915   4.936   4.516  0.8448 -0.4169  0.8806
  516MOL0     C69538   2.886   5.006   4.380  0.9002 -0.0617 -0.2987
  516MOL0     C69539   2.963   4.945   4.264 -0.7333  0.0158  0.4209
  516MOL0     C69540   2.905   4.987   4.124 -0.1111 -0.3892 -0.4767
  516MOL0     C69541   2.961   4.888   4.027 -0.5214  0.0697  0.0459
  516MOL0     N69542   2.891   4.761   4.020 -0.1613  1.1141  0.1878
  516MOL0     C69543   2.752   4.736   4.001 -0.7691  0.0288 -1.2169
  516MOL0     C69544   2.749   4.608   3.981 -1.2866 -0.6663  0.5818
  516MOL0     C69545   2.626   4.534   3.961  0.2211  0.4905  0.1463
  516MOL0     C69546   2.545   4.580   3.834 -0.6343 -0.4560  0.2809
  516MOL0     C69547   2.639   4.617   3.717 -0.9823  0.1556  0.8181
  516MOL0     C69548   2.708   4.506   3.644  0.2247 -0.3164 -0.5190
  516MOL0     O69549   2.628   4.388   3.614 -1.0439  1.3564  0.1060
  516MOL0     C69550   2.701   4.273   3.615 -0.4145  0.4408  0.5113
  516MOL0     C69551   2.685   4.182   3.721 -0.2921 -0.6641 -0.1417
  516MOL0     C69552   2.751   4.068   3.728  0.2723  0.5960 -0.9876
  516MOL0     C69553   2.836   4.031   3.621 -0.0850 -0.0250 -0.7060
  516MOL0     C69554   2.926   3.909   3.628  0.2292 -0.9268  0.6324
  516MOL0     O69555   2.922   3.842   3.742  0.2988 -0.0068 -0.0410
  516MOL0     C69556   2.991   3.725   3.766  0.1801  0.2074 -0.5397
  516MOL0     C69557   2.954   3.660   3.884  0.1179  0.2214  0.5085
  516MOL0     C69558   2.999   3.527   3.902 -1.0635  0.4570  0.1734
  516MOL0     C69559   3.078   3.454   3.801 -0.2200 -0.0179 -0.4824
  516MOL0     O69560   3.110   3.327   3.836  0.4110  0.0080  0.5645
  516MOL0     C69561   3.208   3.255   3.769 -0.3433  0.2607 -0.4935
  516MOL0     C69562   3.201   3.102   3.805 -1.1683 -0.2215 -0.3641
  516MOL0     C69563   3.073   3.043   3.755  1.2550  0.1279 -0.4008
  516MOL0     C69564   3.083   2.891   3.753 -0.7675 -0.4451 -0.8574
  516MOL0     C69565   2.977   2.837   3.673  0.9797  0.4348  0.0074
  516MOL0     C69566   2.971   2.686   3.673 -0.3362  0.1733 -0.8932
  516MOL0     C69567   2.916   2.625   3.811  0.2497  0.3094  0.8100
  516MOL0     C69568   2.886   2.474   3.818 -0.1309  0.8992  0.2890
  516MOL0    Cl69569   3.037   2.371   3.783  0.1535 -0.3079  0.0226
  516MOL0     C69570   3.118   3.527   3.691 -0.0249  0.4938  0.1879
  516MOL0     C69571   3.077   3.658   3.676 -0.6810  1.4645 -0.4083
  516MOL0     O69572   2.994   3.885   3.525  0.6793 -0.5101 -0.9103
  516MOL0     C69573   2.869   4.126   3.526  0.5359 -0.0729  0.1280
  516MOL0     C69574   2.792   4.242   3.514  0.7568 -0.3778  0.1501
  516MOL0     N69575   2.880   4.557   4.003  0.4089  0.1354  0.6977
  516MOL0     N69576   2.963   4.646   4.029 -0.1799 -0.3881 -0.4401
  516MOL0     C69577   3.463   5.120   4.627  0.4712  0.7133  1.1138
  516MOL0     C69578   3.584   5.179   4.645  0.0557 -0.2488 -0.8276
  516MOL0     C69579   4.050   5.184   4.624 -0.1507  0.2665  0.4546
  516MOL0     C69580   4.140   5.174   4.516  0.0249  0.0738  0.2133
  516MOL0     C69581   4.246   5.257   4.508  0.0520 -1.1511 -0.2081
  516MOL0     C69582   4.276   5.348   4.612  0.0749  0.7038  0.7263
  516MOL0     O69583   4.395   5.411   4.595 -0.0112  0.1868 -0.1344
  516MOL0     C69584   4.477   5.442   4.707 -1.0310 -0.0325 -1.0760
  516MOL0     C69585   4.614   5.380   4.688  0.5782  0.0681  0.9229
  516MOL0     C69586   4.720   5.411   4.790 -0.5814 -0.3856  0.1723
  516MOL0     C69587   4.800   5.535   4.765 -0.1441 -0.2478 -0.3266
  516MOL0     C69588   4.868   5.584   4.885 -0.1817 -0.1079 -1.0076
  516MOL0     C69589   4.923   5.627   4.983  0.3740  0.5871 -0.1297
  516MOL0     C69590   4.204   5.346   4.718 -0.4907  0.2983 -1.2422
  516MOL0     C69591   4.092   5.264   4.733 -0.5806  0.1587  0.0105
  516MOL0     C69592   4.016   5.280   4.863 -0.2863  0.7610  0.4861
  516MOL0     H69593   3.755   4.900   4.734  0.3219 -0.5828 -1.6472
  516MOL0     H69594   3.515   4.797   4.681 -2.5927  0.5618  1.2428
  516MOL0     H69595   3.282   4.889   4.803 -1.7675 -1.4949 -0.0225
  516MOL0     H69596   3.212   5.037   4.747  2.1596  1.3259 -1.5188
  516MOL0     H69597   3.027   4.851   4.742 -2.1053 -0.9434 -2.3085
  516MOL0     H69598   3.136   4.769   4.621  3.2279  1.5848 -1.0231
  516MOL0     H69599   3.118   4.949   4.474 -2.7351 -1.2245 -1.8872
  516MOL0     H69600   3.049   5.067   4.586  1.4035  0.1881 -0.2427
  516MOL0     H69601   2.881   4.833   4.502  1.5136 -0.2922 -2.4089
  516MOL0     H69602   2.842   4.984   4.582  0.1988  2.4849 -1.7014
  516MOL0     H69603   2.780   4.995   4.357  1.3618  1.0532 -3.3182
  516MOL0     H69604   2.904   5.113   4.395 -0.0677 -0.0292  0.8089
  516MOL0     H69605   3.070   4.969   4.266 -0.2051 -2.1546  2.0905
  516MOL0     H69606   2.967   4.836   4.264 -0.8940 -0.0177  2.1980
  516MOL0     H69607   2.934   5.090   4.099 -1.0401  0.2217  0.8126
  516MOL0     H69608   2.796   4.987   4.130 -0.4145  5.3740  0.0660
  516MOL0     H69609   2.954   4.934   3.928  0.4827 -0.3895 -0.2528
  516MOL0     H69610   3.067   4.878   4.051 -0.0359 -2.4133 -2.5897
  516MOL0     H69611   2.669   4.806   3.997 -2.6396 -1.8898  0.9858
  516MOL0     H69612   2.662   4.431   3.956  2.5590  1.2212  0.5344
  516MOL0     H69613   2.555   4.554   4.042 -1.0511  2.8382 -1.4241
  516MOL0     H69614   2.484   4.501   3.790 -1.2750 -0.3430  0.9542
  516MOL0     H69615   2.481   4.662   3.868  1.0132  0.5666  1.0811
  516MOL0     H69616   2.723   4.685   3.734 -0.5364  0.5441 -2.2872
  516MOL0     H69617   2.574   4.670   3.646 -1.9737 -1.4288  0.4997
  516MOL0     H69618   2.802   4.481   3.694 -1.1109 -3.2290  0.8201
  516MOL0     H69619   2.737   4.557   3.552  1.6525  2.0934  1.1545
  516MOL0     H69620   2.623   4.224   3.800  3.3982  1.8446  1.7422
  516MOL0     H69621   2.736   3.994   3.807 -0.2493  0.2607 -1.3972
  516MOL0     H69622   2.885   3.702   3.956 -1.1873  1.2486 -1.2639
  516MOL0     H69623   2.977   3.472   3.992  0.1450  0.5284  0.5352
  516MOL0     H69624   3.182   3.271   3.664 -1.9768  1.1709  0.0196
  516MOL0     H69625   3.309   3.294   3.783 -1.4566  2.6154  1.7813
  516MOL0     H69626   3.284   3.063   3.745  0.4158 -0.2289  1.7114
  516MOL0     H69627   3.211   3.076   3.911 -3.6196 -3.2447 -0.7339
  516MOL0     H69628   2.983   3.067   3.813 -1.8232 -0.9780 -4.2988
  516MOL0     H69629   3.068   3.086   3.654  1.1872 -1.4345 -1.0939
  516MOL0     H69630   3.085   2.849   3.854  1.7805 -0.4591 -0.8556
  516MOL0     H69631   3.183   2.871   3.714  0.3877 -0.6115  1.9418
  516MOL0     H69632   2.981   2.869   3.568 -1.3290  0.5800 -0.0919
  516MOL0     H69633   2.877   2.866   3.706 -0.8405 -1.8100 -3.0140
  516MOL0     H69634   2.905   2.648   3.594 -2.3748 -1.6470  1.5276
  516MOL0     H69635   3.070   2.644   3.657  0.3618  1.9820 -1.5718
  516MOL0     H69636   2.821   2.678   3.828  1.5366  2.2279  2.6871
  516MOL0     H69637   2.984   2.656   3.891  2.1420  1.1128 -1.0079
  516MOL0     H69638   2.835   2.442   3.910 -0.7513 -3.8165 -1.4408
  516MOL0     H69639   2.811   2.448   3.742 -1.0911 -2.3020  2.1195
  516MOL0     H69640   3.191   3.486   3.622 -1.4437  2.1303 -2.4296
  516MOL0     H69641   3.104   3.703   3.581  2.3916  1.9783  0.5991
  516MOL0     H69642   2.949   4.117   3.454  1.3560  1.4637  0.7966
  516MOL0     H69643   2.800   4.314   3.433  0.0624  1.8423  1.9636
  516MOL0     H69644   3.379   5.184   4.602 -0.6515 -1.1465 -0.0928
  516MOL0     H69645   3.604   5.285   4.655  3.1175 -0.7528 -0.4343
  516MOL0     H69646   4.125   5.098   4.440 -0.7088 -0.9187  1.3012
  516MOL0     H69647   4.317   5.268   4.427  2.7519 -0.8863  2.0559
  516MOL0     H69648   4.439   5.404   4.803 -1.2577 -2.0324 -1.9170
  516MOL0     H69649   4.493   5.550   4.716  1.6567 -0.3975 -0.6145
  516MOL0     H69650   4.646   5.406   4.587 -1.3495 -2.4704 -0.4361
  516MOL0     H69651   4.602   5.272   4.682  0.8875 -0.0209  1.7607
  516MOL0     H69652   4.797   5.334   4.805 -0.3085  0.2049  2.0765
  516MOL0     H69653   4.671   5.417   4.887  0.1407 -1.4066  0.6229
  516MOL0     H69654   4.874   5.518   4.686 -0.3939 -0.4223 -0.5218
  516MOL0     H69655   4.739   5.621   4.734  2.4500  1.7096 -0.3890
  516MOL0     H69656   4.973   5.681   5.061 -3.6156 -0.5642  3.6562
  516MOL0     H69657   4.224   5.410   4.803 -2.3470  2.7507 -2.5189
  516MOL0     H69658   3.958   5.191   4.888 -1.6465  2.1488  2.5865
  516MOL0     H69659   4.079   5.305   4.949  0.6863 -0.8376  0.2771
  516MOL0     H69660   3.957   5.372   4.864 -1.4399  0.0679  2.6220
  517MOL0     O69661   5.637   2.365   9.381  0.9119  0.0166 -0.6850
  517MOL0     C69662   5.648   2.337   9.498  0.1959 -0.4528  0.3881
  517MOL0     O69663   5.635   2.421   9.611  0.1141 -0.3898  0.2954
  517MOL0     C69664   5.615   2.555   9.589 -0.2763  0.0420  0.4657
  517MOL0     C69665   5.700   2.634   9.514  0.0770 -0.8462 -0.1387
  517MOL0     C69666   5.681   2.772   9.508  1.6278 -0.5017 -0.1496
  517MOL0     C69667   5.567   2.828   9.578  0.7925 -0.8495 -0.2564
  517MOL0     O69668   5.544   2.961   9.609 -0.9352 -0.4414 -0.0924
  517MOL0     C69669   5.628   3.063   9.548  0.1205 -0.5746 -0.1594
  517MOL0     C69670   5.753   3.084   9.644  0.1516 -0.1994  0.4086
  517MOL0     C69671   5.702   3.124   9.781  0.0286 -0.8138 -1.0767
  517MOL0     C69672   5.752   3.262   9.829  0.9089 -0.5629 -0.3791
  517MOL0     C69673   5.888   3.238   9.881  0.1191 -0.0786  0.0979
  517MOL0     C69674   5.957   3.361   9.934 -0.4227 -0.0231 -0.5287
  517MOL0     C69675   6.094   3.320   9.995  0.0101  0.7181 -0.4827
  517MOL0     C69676   6.059   3.251  10.128 -0.0018  0.6353 -0.2945
  517MOL0     N69677   6.173   3.253  10.210 -0.2675  0.2866 -0.1438
  517MOL0     C69678   6.264   3.156  10.196  0.6001  1.0088 -0.7619
  517MOL0     C69679   6.366   3.183  10.283  0.2924 -0.5814  0.3068
  517MOL0     C69680   6.496   3.101  10.305 -0.2715 -0.0517 -0.7136
  517MOL0     C69681   6.536   3.025  10.177 -1.2419 -0.0477 -0.0388
  517MOL0     C69682   6.689   2.997  10.184 -0.0706 -0.1888  0.1152
  517MOL0     C69683   6.736   2.880  10.101 -0.6554  0.7578  0.0048
  517MOL0     O69684   6.667   2.868   9.974 -0.9978 -0.3071 -0.4088
  517MOL0     C69685   6.692   2.976   9.890  0.3182  0.8778  0.3659
  517MOL0     C69686   6.812   3.042   9.880 -0.1539  0.0620 -0.3310
  517MOL0     C69687   6.837   3.135   9.775  0.1241 -0.0134 -1.2693
  517MOL0     C69688   6.736   3.180   9.685  0.4547 -0.0451  0.1380
  517MOL0     C69689   6.761   3.277   9.582 -1.3889  0.4261  0.5128
  517MOL0     O69690   6.879   3.337   9.589  0.4243  0.2111  0.9315
  517MOL0     C69691   6.913   3.427   9.490  0.7189  0.3623  0.1928
  517MOL0     C69692   6.876   3.419   9.351 -0.5391  0.2119  0.3912
  517MOL0     C69693   6.919   3.513   9.260  0.9724 -0.0674 -0.5552
  517MOL0     C69694   6.998   3.619   9.313  0.6749 -0.1183 -0.5355
  517MOL0     O69695   7.060   3.726   9.239 -0.6885  0.5198 -0.3989
  517MOL0     C69696   6.988   3.771   9.123 -0.0100 -1.2303 -0.2274
  517MOL0     C69697   7.055   3.895   9.056  0.1223 -1.3238 -0.0114
  517MOL0     C69698   7.067   4.017   9.147 -0.3260 -0.7205  0.5750
  517MOL0     C69699   6.945   4.100   9.110  0.3346  0.2164 -1.0378
  517MOL0     C69700   6.935   4.232   9.202  0.0333 -0.6882  0.5013
  517MOL0     C69701   6.825   4.316   9.145  0.1354 -0.8959  0.4801
  517MOL0     C69702   6.837   4.453   9.217 -0.8956  1.1328  0.0760
  517MOL0     C69703   6.764   4.559   9.143 -0.0345  0.2028 -0.7688
  517MOL0    Cl69704   6.795   4.721   9.221  0.2173  0.2386  0.4048
  517MOL0     C69705   7.043   3.627   9.449 -0.2076  0.0742 -0.0952
  517MOL0     C69706   6.986   3.535   9.537 -0.5781 -0.3991  0.6443
  517MOL0     O69707   6.675   3.290   9.497 -0.4919  0.0722 -0.4411
  517MOL0     C69708   6.614   3.112   9.686 -0.0991 -0.4196  0.0436
  517MOL0     C69709   6.589   3.014   9.793  0.2145 -0.4842 -0.0235
  517MOL0     N69710   6.345   3.316  10.333 -0.1662  0.6734 -0.4178
  517MOL0     N69711   6.229   3.357  10.289  0.4533 -0.2713 -0.8441
  517MOL0     C69712   5.469   2.736   9.634  0.0520  0.5500  0.1095
  517MOL0     C69713   5.496   2.605   9.645 -0.0775 -0.5425  0.9030
  517MOL0     C69714   5.642   2.196   9.524  0.0551 -0.8048 -0.0424
  517MOL0     C69715   5.749   2.154   9.607 -0.1285  0.6718  0.1082
  517MOL0     C69716   5.782   2.026   9.631  0.0885 -0.2669  0.6060
  517MOL0     C69717   5.718   1.930   9.554 -0.8955 -0.4590  0.2614
  517MOL0     O69718   5.761   1.807   9.542  0.2027  0.4854  0.6194
  517MOL0     C69719   5.758   1.726   9.670 -0.3194 -0.4000 -0.3522
  517MOL0     C69720   5.652   1.627   9.678 -1.0871  0.0123 -0.1467
  517MOL0     C69721   5.682   1.509   9.580  0.6754 -0.1392 -0.0019
  517MOL0     C69722   5.571   1.407   9.591 -0.6056  0.5106  0.2617
  517MOL0     C69723   5.589   1.311   9.702  0.5200 -0.2936 -0.2962
  517MOL0     C69724   5.579   1.242   9.804 -0.4209  0.3423  0.5620
  517MOL0     C69725   5.613   1.968   9.469 -0.2366 -0.5581 -1.2109
  517MOL0     C69726   5.571   2.097   9.455 -0.6303 -0.1063 -0.2146
  517MOL0     C69727   5.458   2.136   9.367 -1.2604  1.1028 -0.4107
  517MOL0     H69728   5.792   2.591   9.474  0.5475 -0.5950  0.6513
  517MOL0     H69729   5.760   2.837   9.470  2.7096 -0.8178  1.4635
  517MOL0     H69730   5.649   3.044   9.442 -1.1397  0.1094 -0.5615
  517MOL0     H69731   5.571   3.156   9.555  2.0922  0.5437  2.2304
  517MOL0     H69732   5.818   3.162   9.602  0.7987 -0.2700  1.2789
  517MOL0     H69733   5.800   2.986   9.648 -3.7472 -2.2748  0.7646
  517MOL0     H69734   5.719   3.054   9.863 -1.5610 -0.7489 -0.6560
  517MOL0     H69735   5.593   3.123   9.775 -0.2703 -2.4065  2.4470
  517MOL0     H69736   5.743   3.345   9.758 -1.0393 -1.3271 -1.0874
  517MOL0     H69737   5.687   3.301   9.908  3.4424  0.2933  1.4245
  517MOL0     H69738   5.881   3.171   9.967 -1.5322 -0.0146  0.0566
  517MOL0     H69739   5.955   3.193   9.807  4.0049  0.6826  2.8528
  517MOL0     H69740   5.978   3.439   9.860 -0.8057 -1.0822 -1.7925
  517MOL0     H69741   5.906   3.417  10.013 -0.9380  0.8040 -1.4119
  517MOL0     H69742   6.148   3.413  10.017 -1.3503  1.4905 -0.2570
  517MOL0     H69743   6.157   3.258   9.931  2.1466 -0.8040  2.8101
  517MOL0     H69744   5.978   3.308  10.175 -0.2650 -0.8586  1.1527
  517MOL0     H69745   6.041   3.146  10.105  1.2010  0.3657 -0.0511
  517MOL0     H69746   6.251   3.073  10.127 -1.3649 -2.1927  3.0334
  517MOL0     H69747   6.575   3.173  10.330  1.5888 -1.7296 -1.5129
  517MOL0     H69748   6.480   3.031  10.387  3.1088  1.5953  1.6031
  517MOL0     H69749   6.496   2.924  10.183  0.0270 -0.4863  3.7228
  517MOL0     H69750   6.512   3.083  10.086  2.0265  0.2960 -0.7928
  517MOL0     H69751   6.702   2.967  10.288  0.1030  0.4137  0.2689
  517MOL0     H69752   6.745   3.091  10.173 -0.5733  0.1120  0.0568
  517MOL0     H69753   6.721   2.791  10.163 -0.8928  1.1779  0.5569
  517MOL0     H69754   6.844   2.897  10.103 -0.5614  0.5446 -1.6292
  517MOL0     H69755   6.896   3.031   9.948 -1.6473 -1.2776  1.4255
  517MOL0     H69756   6.938   3.173   9.779  1.6215 -3.7193  1.2431
  517MOL0     H69757   6.821   3.338   9.305  0.8632 -0.2834 -0.4813
  517MOL0     H69758   6.886   3.502   9.157  0.2345  2.0881 -0.5956
  517MOL0     H69759   6.981   3.691   9.049  2.6409 -0.4066 -1.5031
  517MOL0     H69760   6.890   3.805   9.156 -0.1415 -0.2509 -1.5216
  517MOL0     H69761   7.155   3.867   9.018  1.7472  3.2086  0.3429
  517MOL0     H69762   7.010   3.928   8.962  1.4389 -0.2334 -0.2955
  517MOL0     H69763   7.065   3.994   9.254  1.0292 -1.5932  0.4202
  517MOL0     H69764   7.158   4.075   9.131  0.6406 -1.6608  2.3433
  517MOL0     H69765   6.862   4.031   9.122  0.9090 -1.1949 -4.1195
  517MOL0     H69766   6.952   4.128   9.004  1.2126 -4.0925 -2.3138
  517MOL0     H69767   7.031   4.285   9.202 -0.8439  1.1110  3.0561
  517MOL0     H69768   6.916   4.196   9.304 -1.9166 -0.4706  0.2605
  517MOL0     H69769   6.837   4.323   9.037  2.9276 -3.9348  0.4698
  517MOL0     H69770   6.728   4.273   9.172  0.1325 -1.0111  0.2806
  517MOL0     H69771   6.944   4.476   9.224 -0.2332 -0.7816 -2.3311
  517MOL0     H69772   6.797   4.452   9.319  0.8351  2.5972  0.8332
  517MOL0     H69773   6.805   4.559   9.042 -1.3104 -3.8821 -1.4583
  517MOL0     H69774   6.657   4.536   9.145 -0.9035  3.6313  1.0308
  517MOL0     H69775   7.110   3.707   9.479 -1.3376  0.5243  1.3005
  517MOL0     H69776   7.009   3.537   9.643 -0.6958 -2.4258  0.7591
  517MOL0     H69777   6.534   3.150   9.623  0.9608  0.8214 -0.6035
  517MOL0     H69778   6.501   2.951   9.803 -0.2403  0.2714  0.8127
  517MOL0     H69779   5.387   2.772   9.696  2.5771  1.1013  3.3964
  517MOL0     H69780   5.419   2.542   9.690 -0.6613 -2.9621 -3.0100
  517MOL0     H69781   5.802   2.232   9.661 -0.4524 -0.3636  2.0125
  517MOL0     H69782   5.867   1.990   9.688  0.0982 -2.8519 -0.9035
  517MOL0     H69783   5.760   1.785   9.762  1.0469 -1.1566  0.1324
  517MOL0     H69784   5.852   1.671   9.658 -1.7544 -2.7498 -1.5903
  517MOL0     H69785   5.557   1.681   9.667  0.3309  2.6583 -0.0492
  517MOL0     H69786   5.656   1.577   9.776  1.4751 -0.2908 -0.3409
  517MOL0     H69787   5.783   1.470   9.595  1.3070  1.8020  1.0911
  517MOL0     H69788   5.671   1.545   9.477 -1.0183 -0.3012  0.0969
  517MOL0     H69789   5.476   1.461   9.587 -0.0564  1.8510  2.9028
  517MOL0     H69790   5.585   1.338   9.508  2.6526 -0.7100  1.6363
  517MOL0     H69791   5.571   1.175   9.887 -5.1254 -1.1682 -0.7676
  517MOL0     H69792   5.564   1.889   9.412 -0.9565 -0.1154 -1.2251
  517MOL0     H69793   5.495   2.162   9.267 -4.1001  3.3667 -1.0146
  517MOL0     H69794   5.393   2.049   9.355  0.4604 -0.0396 -1.9933
  517MOL0     H69795   5.399   2.220   9.404 -0.6946  1.6137 -0.6451
  518MOL0     O69796   4.028   1.430   0.797 -0.0673 -0.5210  0.0476
  518MOL0     C69797   4.110   1.500   0.860 -0.2938  0.5594  1.2568
  518MOL0     O69798   4.227   1.540   0.813 -0.3799  0.3094  0.4293
  518MOL0     C69799   4.260   1.504   0.684  0.1979 -0.0785 -0.5944
  518MOL0     C69800   4.342   1.390   0.671  0.2459 -0.2439 -0.0943
  518MOL0     C69801   4.393   1.346   0.546 -0.0815 -0.5999 -0.1451
  518MOL0     C69802   4.346   1.410   0.429 -0.2876 -0.2968  0.4324
  518MOL0     O69803   4.388   1.362   0.307 -1.2693 -0.4649  0.0048
  518MOL0     C69804   4.395   1.442   0.189 -0.3840  0.2814  1.2554
  518MOL0     C69805   4.461   1.355   0.085 -0.1554  0.2897 -0.1260
  518MOL0     C69806   4.600   1.292   0.118  0.6777 -0.6997  0.6118
  518MOL0     C69807   4.610   1.153   0.036 -0.0042 -0.1312  0.3662
  518MOL0     C69808   4.753   1.098   0.026  0.6128  0.7675 -0.5103
  518MOL0     C69809   4.755   0.957  -0.019  0.8037  0.3407  0.0232
  518MOL0     C69810   4.890   0.901  -0.054 -0.1173  0.3945  0.6710
  518MOL0     C69811   4.979   0.870   0.062  0.6246  0.8534 -0.0634
  518MOL0     N69812   5.104   0.802   0.025  1.2546 -0.5657 -0.2295
  518MOL0     C69813   5.167   0.700   0.086 -0.3483 -0.1117 -0.6141
  518MOL0     C69814   5.301   0.704   0.048  0.2143 -0.4695  0.2053
  518MOL0     C69815   5.410   0.613   0.089  0.3696 -0.7351  0.3672
  518MOL0     C69816   5.406   0.566   0.235  0.3948  0.3801  0.0347
  518MOL0     C69817   5.483   0.433   0.252 -0.1714 -0.4528 -1.0661
  518MOL0     C69818   5.405   0.304   0.247 -0.4889  0.3966 -0.0370
  518MOL0     O69819   5.405   0.251   0.108 -0.6725  0.2377 -1.4005
  518MOL0     C69820   5.297   0.179   0.060  0.8245  0.0571 -0.3765
  518MOL0     C69821   5.191   0.126   0.141  0.7731  0.8339 -0.1605
  518MOL0     C69822   5.076   0.057   0.085 -0.0192 -0.4456  0.9110
  518MOL0     C69823   5.071   0.035  -0.060 -0.1587  0.9849  0.6319
  518MOL0     C69824   4.961  -0.040  -0.121  0.1609  1.3925 -0.8489
  518MOL0     O69825   4.844  -0.036  -0.055  0.1849  0.1326  0.1500
  518MOL0     C69826   4.742  -0.123  -0.087  0.4661  0.4361  0.3729
  518MOL0     C69827   4.614  -0.070  -0.094  0.1424 -0.4164 -0.5107
  518MOL0     C69828   4.505  -0.147  -0.120 -0.7676  0.5618 -0.6662
  518MOL0     C69829   4.521  -0.284  -0.135  0.1878 -0.4533  0.1265
  518MOL0     O69830   4.407  -0.354  -0.184 -0.8744  0.2102  0.6864
  518MOL0     C69831   4.401  -0.498  -0.178 -0.2603  0.2312 -0.0437
  518MOL0     C69832   4.459  -0.570  -0.302  0.1340 -0.5033 -0.1024
  518MOL0     C69833   4.544  -0.692  -0.269 -0.0212 -0.2791  0.4511
  518MOL0     C69834   4.458  -0.819  -0.253  0.7619 -0.2825  0.7121
  518MOL0     C69835   4.546  -0.936  -0.207  0.8465 -0.3722 -0.5088
  518MOL0     C69836   4.630  -1.006  -0.315  0.1988 -0.1875 -0.0253
  518MOL0     C69837   4.702  -1.131  -0.260  0.1828 -0.2083  1.1100
  518MOL0     C69838   4.774  -1.205  -0.370 -0.8527 -0.0288 -0.2382
  518MOL0    Cl69839   4.925  -1.108  -0.433 -0.0094  0.1228 -0.3134
  518MOL0     C69840   4.643  -0.341  -0.111  0.3117  1.4766  0.4901
  518MOL0     C69841   4.754  -0.262  -0.089  0.0902  0.8253  0.1303
  518MOL0     O69842   4.988  -0.118  -0.221  0.0326 -0.6249 -0.9310
  518MOL0     C69843   5.181   0.082  -0.124 -0.1751 -0.0023  0.4600
  518MOL0     C69844   5.292   0.147  -0.076  0.1213  0.7041  0.3430
  518MOL0     N69845   5.309   0.807  -0.045  0.6580  0.5035  0.7961
  518MOL0     N69846   5.195   0.874  -0.045  0.0948 -0.0167 -0.5224
  518MOL0     C69847   4.257   1.523   0.441  0.6237 -0.1847 -0.7891
  518MOL0     C69848   4.214   1.563   0.565  0.7532 -0.2628 -0.8824
  518MOL0     C69849   4.078   1.524   0.995  0.3845 -0.4180  0.3570
  518MOL0     C69850   3.943   1.498   1.042  0.0884 -0.0090  0.3430
  518MOL0     C69851   3.909   1.521   1.181 -0.8591  0.6993  0.2977
  518MOL0     C69852   3.996   1.587   1.265 -0.1749 -0.1255 -0.1631
  518MOL0     O69853   3.954   1.616   1.390  0.0338 -0.0750  0.1705
  518MOL0     C69854   3.980   1.743   1.439  0.6639  0.7724  1.0041
  518MOL0     C69855   3.911   1.772   1.580  0.1905  0.2636  0.6130
  518MOL0     C69856   3.989   1.688   1.683 -0.3022  0.2907 -0.0357
  518MOL0     C69857   3.920   1.691   1.828 -1.3839  0.5591  1.3851
  518MOL0     C69858   3.984   1.587   1.905  0.2809 -0.2829  0.1160
  518MOL0     C69859   4.040   1.495   1.969  0.5522 -0.3815  0.4430
  518MOL0     C69860   4.132   1.607   1.223  0.4061 -1.0970  0.4448
  518MOL0     C69861   4.174   1.565   1.096  0.4020  0.2682  0.1904
  518MOL0     C69862   4.319   1.574   1.066  0.7804  0.0516  0.4142
  518MOL0     H69863   4.361   1.326   0.756  1.7137 -1.7195 -1.4657
  518MOL0     H69864   4.449   1.256   0.520  1.4397  0.2527  0.0455
  518MOL0     H69865   4.297   1.475   0.155  0.2268  0.5882 -0.2909
  518MOL0     H69866   4.462   1.528   0.198 -1.6130  2.0790 -3.6336
  518MOL0     H69867   4.468   1.401  -0.013  0.3836 -1.5977 -1.0213
  518MOL0     H69868   4.383   1.277   0.078  0.0243 -0.1331  1.9242
  518MOL0     H69869   4.603   1.266   0.224  0.2649 -1.3524  0.4672
  518MOL0     H69870   4.690   1.354   0.109 -0.4675  1.2617  2.0115
  518MOL0     H69871   4.532   1.085   0.071  0.1663 -0.8059 -0.5414
  518MOL0     H69872   4.573   1.184  -0.062  0.5075  0.5422  0.3801
  518MOL0     H69873   4.811   1.151  -0.051 -3.0273  2.8123 -2.1113
  518MOL0     H69874   4.800   1.099   0.125  1.1507  0.9608 -0.7612
  518MOL0     H69875   4.715   0.899   0.065 -4.2791  1.2267 -1.4010
  518MOL0     H69876   4.694   0.951  -0.110  2.3201  1.8559 -1.1433
  518MOL0     H69877   4.944   0.957  -0.130 -3.0797  0.8692 -1.2570
  518MOL0     H69878   4.859   0.801  -0.085  0.6287  0.1684  0.6588
  518MOL0     H69879   5.004   0.964   0.112  0.1394  2.1782 -2.1979
  518MOL0     H69880   4.924   0.810   0.135  1.2938 -0.3519 -0.5001
  518MOL0     H69881   5.127   0.619   0.146 -0.4809  1.0366  0.9193
  518MOL0     H69882   5.425   0.523   0.029  2.7403 -1.6793  2.2038
  518MOL0     H69883   5.500   0.675   0.079  0.5239 -1.0286 -0.1200
  518MOL0     H69884   5.459   0.642   0.293  1.7715 -0.5911  0.1169
  518MOL0     H69885   5.308   0.563   0.284  0.7204 -0.4603  0.6634
  518MOL0     H69886   5.528   0.444   0.351 -3.5900 -0.7898  0.7039
  518MOL0     H69887   5.566   0.419   0.183  0.2824 -0.9680 -0.4299
  518MOL0     H69888   5.303   0.330   0.280 -0.5487 -0.1838  0.2537
  518MOL0     H69889   5.457   0.238   0.317  1.7334  2.6737  0.5790
  518MOL0     H69890   5.202   0.138   0.248  0.9327  1.3524 -0.2287
  518MOL0     H69891   4.998   0.020   0.151 -0.1577  1.1833  1.7030
  518MOL0     H69892   4.591   0.034  -0.073 -1.3515 -1.1496  1.8578
  518MOL0     H69893   4.407  -0.103  -0.135 -1.2395 -0.7045 -1.3981
  518MOL0     H69894   4.452  -0.526  -0.086  3.1506  0.6867 -1.6367
  518MOL0     H69895   4.295  -0.525  -0.176  0.1151 -1.2552  0.5520
  518MOL0     H69896   4.380  -0.612  -0.364  0.9735 -1.8005 -0.3166
  518MOL0     H69897   4.517  -0.509  -0.372 -0.5956  0.0751 -0.2072
  518MOL0     H69898   4.604  -0.724  -0.355 -0.3079  0.3553  0.0044
  518MOL0     H69899   4.611  -0.674  -0.186  1.4107 -0.4856 -0.6232
  518MOL0     H69900   4.395  -0.844  -0.339 -0.5454 -0.7624  1.7743
  518MOL0     H69901   4.389  -0.797  -0.172  0.0122  1.6273 -0.3798
  518MOL0     H69902   4.481  -1.016  -0.170  1.8905 -0.2408  1.7768
  518MOL0     H69903   4.608  -0.906  -0.122  3.3171 -2.3203 -1.4747
  518MOL0     H69904   4.587  -1.039  -0.410  3.2105  0.8946 -1.9389
  518MOL0     H69905   4.715  -0.940  -0.337 -0.0831  0.0781 -0.3272
  518MOL0     H69906   4.633  -1.195  -0.205  1.7486 -1.8226  1.2906
  518MOL0     H69907   4.787  -1.108  -0.195  0.6980 -3.4114  1.7433
  518MOL0     H69908   4.821  -1.298  -0.335  0.5994 -0.3143 -2.7139
  518MOL0     H69909   4.708  -1.240  -0.450  1.1417 -1.7627 -1.2152
  518MOL0     H69910   4.644  -0.448  -0.129 -0.4429  1.6398 -0.6867
  518MOL0     H69911   4.851  -0.309  -0.074  0.8753  1.9675 -1.1282
  518MOL0     H69912   5.189   0.065  -0.231 -2.5540 -2.3243  0.5495
  518MOL0     H69913   5.363   0.200  -0.138  0.8729 -0.1104  0.4884
  518MOL0     H69914   4.219   1.583   0.359 -1.7203 -0.6114 -0.0786
  518MOL0     H69915   4.150   1.649   0.579 -1.6630 -1.7392 -2.1744
  518MOL0     H69916   3.868   1.463   0.973 -0.0201  0.7504  0.0690
  518MOL0     H69917   3.811   1.497   1.220 -2.1011 -0.6485 -3.2428
  518MOL0     H69918   3.944   1.812   1.362  0.9826  0.1069  0.2358
  518MOL0     H69919   4.087   1.762   1.454  0.8028  0.6040  0.2709
  518MOL0     H69920   3.803   1.752   1.582 -0.5503  3.6419  3.0951
  518MOL0     H69921   3.930   1.879   1.594 -0.4031  0.3672  0.6401
  518MOL0     H69922   4.093   1.718   1.691  0.0437 -0.5830 -1.0699
  518MOL0     H69923   4.003   1.589   1.640  1.4577  0.8198 -0.7501
  518MOL0     H69924   3.934   1.785   1.882 -4.7810  0.7831  2.0637
  518MOL0     H69925   3.812   1.678   1.817 -1.2363  1.3952 -2.4241
  518MOL0     H69926   4.107   1.424   2.012  1.1342  0.9111  1.7660
  518MOL0     H69927   4.195   1.651   1.299  1.1610  2.8084 -2.1657
  518MOL0     H69928   4.327   1.653   0.990 -0.7009 -0.7021 -0.5892
  518MOL0     H69929   4.372   1.607   1.155  0.3449 -0.4892  0.8823
  518MOL0     H69930   4.361   1.476   1.040  0.2711  0.0621 -0.5199
  519MOL0     O69931   5.806   4.581  10.399  0.8379  0.7109  1.2421
  519MOL0     C69932   5.767   4.675  10.327  1.2953  0.4190 -0.2822
  519MOL0     O69933   5.735   4.666  10.199  0.5099  1.1514  0.1112
  519MOL0     C69934   5.747   4.546  10.138  0.0980  0.4454  1.1004
  519MOL0     C69935   5.655   4.520  10.040  0.3365 -0.4463  0.1298
  519MOL0     C69936   5.671   4.419   9.944  0.2394  0.9575 -0.2210
  519MOL0     C69937   5.778   4.337   9.934  0.5108  0.0763 -0.6009
  519MOL0     O69938   5.778   4.247   9.825  0.6127 -0.0512 -0.4947
  519MOL0     C69939   5.901   4.190   9.797  0.1329 -0.4036 -0.3017
  519MOL0     C69940   5.883   4.043   9.821 -0.3613 -0.8761  1.2131
  519MOL0     C69941   6.012   3.973   9.839  0.3155 -0.6437 -0.7931
  519MOL0     C69942   6.089   3.943   9.707  0.5225  0.7213 -1.2261
  519MOL0     C69943   6.225   3.864   9.722  0.1711  0.5681 -0.5138
  519MOL0     C69944   6.291   3.846   9.587 -0.0356 -1.3983 -1.4835
  519MOL0     C69945   6.208   3.778   9.480  0.7586  0.3066 -0.5344
  519MOL0     C69946   6.267   3.787   9.342  0.7145  0.7447  0.9004
  519MOL0     N69947   6.218   3.693   9.247 -0.3038 -0.1918 -0.5558
  519MOL0     C69948   6.096   3.713   9.187 -0.3337 -0.5840  0.0961
  519MOL0     C69949   6.069   3.595   9.126  0.5377 -0.2250 -0.6235
  519MOL0     C69950   5.946   3.575   9.034  0.0338  0.4983 -0.1012
  519MOL0     C69951   5.992   3.602   8.891 -0.6812 -0.2051  0.0579
  519MOL0     C69952   5.883   3.647   8.801 -0.0443 -0.0860 -0.4444
  519MOL0     C69953   5.846   3.793   8.814 -0.7759  0.0627 -0.3680
  519MOL0     O69954   5.819   3.828   8.947 -0.0187 -0.2194 -0.6384
  519MOL0     C69955   5.795   3.964   8.967  0.2169  0.0318  0.4856
  519MOL0     C69956   5.773   4.052   8.856  0.3212 -0.7000 -0.7094
  519MOL0     C69957   5.757   4.193   8.883  1.1918  0.4555 -0.2773
  519MOL0     C69958   5.771   4.242   9.013 -0.2358 -0.3055  0.1365
  519MOL0     C69959   5.782   4.383   9.036  0.8852 -0.9509 -0.2383
  519MOL0     O69960   5.720   4.465   8.950  0.1634  1.1777 -0.2020
  519MOL0     C69961   5.662   4.588   8.999 -0.0551  0.3501 -0.2304
  519MOL0     C69962   5.651   4.636   9.129  0.1598  0.1576 -0.9141
  519MOL0     C69963   5.578   4.745   9.169 -0.7623 -0.4294  0.3867
  519MOL0     C69964   5.515   4.812   9.065  0.8789  0.1137  0.8416
  519MOL0     O69965   5.447   4.936   9.084  0.2095  0.6056  0.0366
  519MOL0     C69966   5.507   5.016   9.188 -0.0633 -0.0755  0.0127
  519MOL0     C69967   5.418   5.139   9.184 -0.2650 -1.2216 -0.4501
  519MOL0     C69968   5.280   5.106   9.233  0.6677 -0.4843  1.4194
  519MOL0     C69969   5.197   5.223   9.280  0.3204  0.3788 -0.5461
  519MOL0     C69970   5.228   5.351   9.208  0.6695 -0.6831 -0.8965
  519MOL0     C69971   5.126   5.452   9.268 -0.6835 -0.2488  0.7521
  519MOL0     C69972   5.156   5.589   9.198 -0.2514 -0.6252  0.4374
  519MOL0     C69973   5.058   5.702   9.222 -0.0433 -0.0240 -0.6163
  519MOL0    Cl69974   4.996   5.693   9.386 -0.1348 -0.0547 -0.1591
  519MOL0     C69975   5.514   4.774   8.932  0.2329 -0.1856  0.6817
  519MOL0     C69976   5.600   4.667   8.899 -0.7247 -0.3502 -0.9932
  519MOL0     O69977   5.857   4.419   9.132 -0.2431 -0.0883  0.2296
  519MOL0     C69978   5.786   4.157   9.126 -0.3879 -0.4915 -0.2338
  519MOL0     C69979   5.809   4.014   9.101 -0.3960 -0.5214 -0.8191
  519MOL0     N69980   6.174   3.508   9.171 -0.7505  0.2603  0.0187
  519MOL0     N69981   6.262   3.564   9.237  0.5179  0.6279 -0.2935
  519MOL0     C69982   5.877   4.370  10.035  0.0480 -0.0543  0.6926
  519MOL0     C69983   5.856   4.459  10.133 -0.4829 -0.5218 -0.2628
  519MOL0     C69984   5.740   4.804  10.390 -0.3076  0.4728  0.6200
  519MOL0     C69985   5.745   4.917  10.309  0.0559  0.6617  0.3799
  519MOL0     C69986   5.727   5.042  10.357  0.0668  0.7795  0.2679
  519MOL0     C69987   5.692   5.067  10.491 -0.0836 -0.0084  0.6114
  519MOL0     O69988   5.690   5.200  10.528  0.1400 -0.4212  0.1968
  519MOL0     C69989   5.647   5.237  10.657  0.3980 -0.4091  0.4357
  519MOL0     C69990   5.608   5.380  10.653 -0.9397 -0.7298  0.5982
  519MOL0     C69991   5.726   5.475  10.612 -0.1656  1.1779  0.2481
  519MOL0     C69992   5.687   5.617  10.639  0.6295  0.3238  0.4042
  519MOL0     C69993   5.783   5.707  10.577  0.0297 -0.1065 -0.3391
  519MOL0     C69994   5.858   5.769  10.508  0.3840 -0.4099  0.1060
  519MOL0     C69995   5.675   4.953  10.570  0.5400  0.3270  0.0000
  519MOL0     C69996   5.697   4.828  10.527 -0.4446  0.2884  0.0736
  519MOL0     C69997   5.687   4.719  10.629  0.0715  0.3825  0.1237
  519MOL0     H69998   5.571   4.588  10.028  1.2446  0.5388 -0.8265
  519MOL0     H69999   5.596   4.430   9.867  1.4628  0.8791 -1.4592
  519MOL0     H70000   5.918   4.208   9.690 -2.5097 -0.7493 -0.8387
  519MOL0     H70001   5.988   4.227   9.852  0.2210 -0.0052 -0.7045
  519MOL0     H70002   5.822   3.998   9.742 -2.5928  2.2089  0.9803
  519MOL0     H70003   5.831   4.022   9.915  0.6663  0.4490  2.1068
  519MOL0     H70004   5.993   3.873   9.880 -0.1277 -0.4198 -0.4383
  519MOL0     H70005   6.074   4.011   9.920  0.2230  0.4728 -1.2187
  519MOL0     H70006   6.013   3.902   9.640 -1.2687 -1.2542  1.7531
  519MOL0     H70007   6.114   4.037   9.658 -3.7928  2.9123  0.2350
  519MOL0     H70008   6.292   3.917   9.789  2.9435 -1.1848 -1.7229
  519MOL0     H70009   6.212   3.763   9.762  2.3241  0.8780  1.1408
  519MOL0     H70010   6.316   3.950   9.565  0.6703 -1.0031  0.9615
  519MOL0     H70011   6.384   3.793   9.610 -0.3571 -0.7302  1.7297
  519MOL0     H70012   6.108   3.821   9.477  0.5540  0.0937  1.6396
  519MOL0     H70013   6.205   3.674   9.514 -0.6582 -0.5257 -2.9418
  519MOL0     H70014   6.264   3.886   9.295 -0.8318  0.6565  0.7714
  519MOL0     H70015   6.371   3.764   9.367  0.8936  0.9708  0.3805
  519MOL0     H70016   6.041   3.806   9.184 -2.1956 -1.5891  1.3165
  519MOL0     H70017   5.912   3.471   9.044 -0.2492  0.5773 -0.2171
  519MOL0     H70018   5.865   3.637   9.074 -0.0294 -0.3983  1.2298
  519MOL0     H70019   6.066   3.683   8.887  0.0512 -0.9050 -0.8223
  519MOL0     H70020   6.044   3.514   8.853  1.0508  1.3589 -1.3959
  519MOL0     H70021   5.804   3.577   8.829  3.3435 -3.4965  1.4322
  519MOL0     H70022   5.892   3.623   8.695  0.8565 -3.2552  0.2574
  519MOL0     H70023   5.756   3.807   8.754 -1.1738 -2.2055 -0.3973
  519MOL0     H70024   5.922   3.857   8.767 -0.7914 -0.7920 -1.5821
  519MOL0     H70025   5.772   4.018   8.753  2.7882  0.1898 -1.0996
  519MOL0     H70026   5.740   4.260   8.800 -0.6088  2.0858  1.3023
  519MOL0     H70027   5.699   4.586   9.212 -0.7000  0.1346 -0.4197
  519MOL0     H70028   5.564   4.766   9.275  1.2265 -0.2668  0.6566
  519MOL0     H70029   5.502   4.969   9.287  1.2434 -0.3427 -0.0269
  519MOL0     H70030   5.610   5.048   9.169  0.5839 -1.5912  0.7713
  519MOL0     H70031   5.449   5.216   9.255  0.1725  1.1828 -3.0686
  519MOL0     H70032   5.419   5.184   9.084  1.4551  3.1147  1.2422
  519MOL0     H70033   5.229   5.079   9.140 -0.6599  3.2473  0.9169
  519MOL0     H70034   5.269   5.027   9.308 -1.5654 -0.3197  1.3434
  519MOL0     H70035   5.223   5.248   9.384 -0.3076  1.5563 -0.6544
  519MOL0     H70036   5.094   5.196   9.259  0.0558  1.2870 -0.4731
  519MOL0     H70037   5.223   5.339   9.100  4.0863  0.5483 -1.3425
  519MOL0     H70038   5.325   5.391   9.243 -0.3285  3.0872 -1.9323
  519MOL0     H70039   5.020   5.435   9.248 -0.6930 -0.5695  1.0619
  519MOL0     H70040   5.143   5.464   9.376  0.5461  3.5578  0.3012
  519MOL0     H70041   5.171   5.564   9.092  1.1802 -1.4343  0.7937
  519MOL0     H70042   5.260   5.608   9.226  1.0888 -2.6276 -2.6226
  519MOL0     H70043   5.111   5.797   9.212 -0.3204  0.2258  0.1604
  519MOL0     H70044   4.974   5.692   9.153 -0.6372  1.1038 -0.0919
  519MOL0     H70045   5.474   4.841   8.857  1.8073  0.1977  0.1578
  519MOL0     H70046   5.622   4.630   8.799  3.0631  3.0649 -1.6950
  519MOL0     H70047   5.791   4.189   9.230  4.3463  0.0478 -0.4202
  519MOL0     H70048   5.833   3.938   9.174  0.2762 -1.3890 -1.9242
  519MOL0     H70049   5.963   4.303  10.041 -0.1657 -0.3320  0.6782
  519MOL0     H70050   5.935   4.486  10.201 -1.6712  2.6174  0.0464
  519MOL0     H70051   5.757   4.904  10.202 -3.8080  2.4423 -0.4555
  519MOL0     H70052   5.741   5.127  10.290 -0.0146  0.9041  0.4061
  519MOL0     H70053   5.727   5.231  10.731 -0.2459  0.1314  1.1889
  519MOL0     H70054   5.566   5.172  10.691  0.1597  0.1029  0.8602
  519MOL0     H70055   5.574   5.413  10.752 -0.8268  3.9835 -0.6792
  519MOL0     H70056   5.529   5.376  10.577  0.4477 -0.9792 -0.8736
  519MOL0     H70057   5.762   5.446  10.513 -0.6832 -2.4305  0.9662
  519MOL0     H70058   5.813   5.453  10.674 -2.7423  1.0009  4.1563
  519MOL0     H70059   5.594   5.645  10.589  1.4537 -0.1247 -1.4565
  519MOL0     H70060   5.684   5.617  10.748  2.0688 -0.2905  0.4666
  519MOL0     H70061   5.921   5.821  10.439 -1.0201  1.9692  0.5073
  519MOL0     H70062   5.640   4.970  10.672  0.9376  1.2766 -0.0122
  519MOL0     H70063   5.620   4.644  10.586  0.8584  0.8937 -2.1364
  519MOL0     H70064   5.784   4.669  10.638 -0.9420 -1.5414  0.9244
  519MOL0     H70065   5.644   4.760  10.721  1.6714  4.9598 -0.9062
  520MOL0     O70066   4.063   5.051   0.299  0.2933  0.0549  0.0470
  520MOL0     C70067   4.183   5.056   0.285 -0.8121  0.0312  0.0161
  520MOL0     O70068   4.238   5.147   0.204 -0.1345  0.1003  0.5219
  520MOL0     C70069   4.158   5.245   0.148 -0.1125  0.3694 -0.5253
  520MOL0     C70070   4.209   5.370   0.136  1.1718  0.2794  0.9564
  520MOL0     C70071   4.135   5.476   0.077 -0.1388  0.4819 -0.4579
  520MOL0     C70072   4.017   5.451   0.010 -0.3431  0.6735  0.1785
  520MOL0     O70073   3.940   5.550  -0.045 -0.1564 -0.2158  0.6089
  520MOL0     C70074   4.004   5.649  -0.121  0.0159  0.2032 -0.2235
  520MOL0     C70075   3.899   5.731  -0.196 -0.6446  0.3206 -0.3229
  520MOL0     C70076   3.819   5.660  -0.313 -0.4108  1.2927 -0.0377
  520MOL0     C70077   3.675   5.722  -0.335 -0.2049 -0.4564  0.3991
  520MOL0     C70078   3.679   5.849  -0.417  0.3795 -0.2483 -0.5888
  520MOL0     C70079   3.701   5.815  -0.569 -0.1606 -0.1013 -0.0306
  520MOL0     C70080   3.696   5.944  -0.651  1.2136 -0.4231  0.2856
  520MOL0     C70081   3.774   5.932  -0.791 -0.0120  0.3173 -0.4789
  520MOL0     N70082   3.766   6.045  -0.875 -0.5280 -0.4120 -0.2974
  520MOL0     C70083   3.781   6.174  -0.826 -0.9597  0.3575 -0.1395
  520MOL0     C70084   3.760   6.247  -0.931 -0.3695 -0.8767 -1.0390
  520MOL0     C70085   3.774   6.398  -0.897 -0.7073  0.1519 -0.0182
  520MOL0     C70086   3.644   6.475  -0.865 -0.0421  0.2429 -0.3904
  520MOL0     C70087   3.556   6.518  -0.984  0.7124 -0.1904 -0.4523
  520MOL0     C70088   3.439   6.598  -0.940  0.1474 -0.4764  0.3134
  520MOL0     O70089   3.490   6.721  -0.889  0.3165  0.2803 -0.1753
  520MOL0     C70090   3.392   6.823  -0.859  0.1494  0.1746 -0.4764
  520MOL0     C70091   3.256   6.805  -0.882  0.0011 -0.4926 -0.1205
  520MOL0     C70092   3.176   6.924  -0.864  0.9843  0.4538  0.3403
  520MOL0     C70093   3.217   7.038  -0.790 -0.5180 -0.6799  0.5216
  520MOL0     C70094   3.114   7.132  -0.743  0.2000 -1.1180  0.3543
  520MOL0     O70095   3.147   7.240  -0.672 -0.4889 -0.2443 -0.1141
  520MOL0     C70096   3.048   7.340  -0.656  0.2022  0.5500  1.4418
  520MOL0     C70097   2.926   7.303  -0.594  0.5543 -0.1501 -0.8567
  520MOL0     C70098   2.819   7.388  -0.601 -0.0779  0.0878  0.5426
  520MOL0     C70099   2.838   7.523  -0.645  0.6055  0.5913  0.8169
  520MOL0     O70100   2.733   7.605  -0.642  0.0931 -0.6191 -0.5366
  520MOL0     C70101   2.728   7.701  -0.536 -0.8690 -0.6400 -0.2601
  520MOL0     C70102   2.593   7.776  -0.542 -0.4437  0.1202  0.0724
  520MOL0     C70103   2.579   7.836  -0.685 -0.6660 -0.2465 -0.3589
  520MOL0     C70104   2.454   7.914  -0.700 -0.3804  0.6155  0.1593
  520MOL0     C70105   2.445   7.964  -0.845  0.1113  0.0686  0.0618
  520MOL0     C70106   2.367   8.098  -0.851 -0.1662  0.4650 -0.5150
  520MOL0     C70107   2.401   8.164  -0.991 -1.4694  0.2261 -0.1178
  520MOL0     C70108   2.329   8.297  -0.994  1.1168  0.3049 -0.1632
  520MOL0    Cl70109   2.370   8.379  -1.152  0.1076  0.0487 -0.1481
  520MOL0     C70110   2.956   7.563  -0.693  0.5547 -0.5663 -0.6793
  520MOL0     C70111   3.058   7.470  -0.706  0.9431  0.5177  0.0635
  520MOL0     O70112   3.000   7.091  -0.761 -0.2553  0.3756 -0.1708
  520MOL0     C70113   3.352   7.046  -0.752 -0.1830 -0.3436  0.9396
  520MOL0     C70114   3.436   6.937  -0.793 -0.6415 -0.2388  0.1752
  520MOL0     N70115   3.734   6.166  -1.041  0.6450 -0.3420  0.4510
  520MOL0     N70116   3.728   6.043  -1.005  0.4873 -0.2653 -0.6874
  520MOL0     C70117   3.960   5.318   0.015  0.1421  0.1140 -0.6401
  520MOL0     C70118   4.037   5.215   0.086  0.0185  0.9296  0.0470
  520MOL0     C70119   4.271   4.971   0.372  0.2706  0.2992  0.2010
  520MOL0     C70120   4.411   5.002   0.367  0.7307 -0.4362 -0.2442
  520MOL0     C70121   4.500   4.936   0.452  0.0976  1.1714  0.0002
  520MOL0     C70122   4.467   4.838   0.534  0.4275  0.4901  1.1848
  520MOL0     O70123   4.557   4.780   0.628 -0.8225 -0.2316 -0.4212
  520MOL0     C70124   4.701   4.792   0.594  0.2219 -0.2562  0.0206
  520MOL0     C70125   4.793   4.689   0.672  0.3961 -0.1298  0.5516
  520MOL0     C70126   4.747   4.545   0.627  0.2683  0.0969  0.3271
  520MOL0     C70127   4.802   4.424   0.698 -0.4527  0.2131 -0.3548
  520MOL0     C70128   4.954   4.413   0.679 -0.1457 -0.0438  0.1899
  520MOL0     C70129   5.077   4.399   0.681 -0.1559  0.1757  0.6738
  520MOL0     C70130   4.330   4.792   0.533  0.1943 -0.3206  0.6533
  520MOL0     C70131   4.232   4.856   0.451  0.3385  0.4502  1.0590
  520MOL0     C70132   4.081   4.823   0.458 -0.7358  0.0558  0.0823
  520MOL0     H70133   4.305   5.391   0.182  2.8912 -1.5345 -1.5554
  520MOL0     H70134   4.191   5.567   0.063  1.2195 -0.2022  0.3325
  520MOL0     H70135   4.065   5.710  -0.053 -0.0828  1.5373 -1.2875
  520MOL0     H70136   4.076   5.602  -0.188  1.4055 -1.8856  2.5352
  520MOL0     H70137   3.947   5.823  -0.232 -1.8522  0.9663 -0.3414
  520MOL0     H70138   3.829   5.768  -0.121  1.5255  5.6608 -0.4238
  520MOL0     H70139   3.817   5.555  -0.283 -4.5791  1.4138  0.6756
  520MOL0     H70140   3.881   5.665  -0.403  2.0357 -0.5311  1.4141
  520MOL0     H70141   3.620   5.649  -0.394 -0.1312  0.5779 -1.0144
  520MOL0     H70142   3.631   5.748  -0.239  0.7682 -1.6580  1.1969
  520MOL0     H70143   3.583   5.897  -0.397  1.9432  2.1265  2.0851
  520MOL0     H70144   3.748   5.926  -0.379 -1.7483  1.0276  0.8929
  520MOL0     H70145   3.803   5.778  -0.579 -0.6672 -1.8409  0.9068
  520MOL0     H70146   3.643   5.730  -0.608  0.5780  0.2410 -1.9990
  520MOL0     H70147   3.725   6.036  -0.600 -1.3294  0.3830  0.4624
  520MOL0     H70148   3.589   5.963  -0.669  0.6319  2.4901  5.0083
  520MOL0     H70149   3.878   5.910  -0.765 -0.0605  3.0869  2.8454
  520MOL0     H70150   3.741   5.848  -0.852 -0.9550  0.0622  0.3558
  520MOL0     H70151   3.800   6.206  -0.724 -0.9941  1.6410 -0.5221
  520MOL0     H70152   3.844   6.408  -0.814  2.2827 -2.6526 -1.9298
  520MOL0     H70153   3.823   6.439  -0.985  0.5975 -0.1843  0.5374
  520MOL0     H70154   3.579   6.416  -0.800 -1.0308 -0.9729 -2.3679
  520MOL0     H70155   3.672   6.560  -0.803  3.3764 -0.2855 -0.9677
  520MOL0     H70156   3.516   6.423  -1.021  0.9040 -0.9077  1.1174
  520MOL0     H70157   3.605   6.573  -1.065 -0.9336 -0.0398 -1.3834
  520MOL0     H70158   3.368   6.550  -0.872 -3.4440 -0.7599 -3.2662
  520MOL0     H70159   3.378   6.607  -1.030 -1.7498 -3.9389  1.0843
  520MOL0     H70160   3.220   6.714  -0.929  2.3233 -3.5670  3.4414
  520MOL0     H70161   3.074   6.900  -0.892  0.4344 -0.6154  2.9881
  520MOL0     H70162   2.911   7.207  -0.545 -0.3372  1.3718  2.1561
  520MOL0     H70163   2.723   7.361  -0.557 -1.6495 -1.8312 -3.5755
  520MOL0     H70164   2.739   7.655  -0.437  0.7707  1.9619  0.8966
  520MOL0     H70165   2.809   7.773  -0.553 -2.6278  0.7391 -3.6511
  520MOL0     H70166   2.512   7.708  -0.514 -0.9533 -0.2207 -2.0538
  520MOL0     H70167   2.586   7.856  -0.467 -0.4215 -1.0000  1.2940
  520MOL0     H70168   2.661   7.905  -0.707 -2.4658  2.1644 -0.0555
  520MOL0     H70169   2.588   7.758  -0.761 -3.0720  1.1124 -2.2026
  520MOL0     H70170   2.473   7.996  -0.630  0.0376  1.2333 -0.6631
  520MOL0     H70171   2.379   7.847  -0.656  0.2675  0.4612  1.0753
  520MOL0     H70172   2.407   7.891  -0.918 -2.2167 -0.1478  1.3866
  520MOL0     H70173   2.545   7.994  -0.878 -0.3266  1.0873 -0.4032
  520MOL0     H70174   2.260   8.073  -0.853  0.0085 -0.4190  0.4620
  520MOL0     H70175   2.387   8.164  -0.766  0.2793 -1.2893  0.8008
  520MOL0     H70176   2.367   8.098  -1.071  0.7323  0.5246 -1.3918
  520MOL0     H70177   2.507   8.191  -0.986 -1.9059  2.0624 -0.1006
  520MOL0     H70178   2.222   8.277  -0.984  1.7611 -3.0492  1.4044
  520MOL0     H70179   2.362   8.350  -0.904  0.8357 -1.8019  1.2290
  520MOL0     H70180   2.971   7.667  -0.722  1.4408 -0.4765  0.0843
  520MOL0     H70181   3.145   7.506  -0.760  1.4652 -0.6716  0.0934
  520MOL0     H70182   3.394   7.132  -0.702  0.0862 -0.2279  0.5165
  520MOL0     H70183   3.540   6.942  -0.765 -0.6786 -1.1598  0.5342
  520MOL0     H70184   3.869   5.306  -0.043  1.2892 -1.4290 -2.1906
  520MOL0     H70185   4.002   5.113   0.077  0.0189  1.0030 -0.8878
  520MOL0     H70186   4.449   5.087   0.312  0.5113 -0.6347 -0.7018
  520MOL0     H70187   4.601   4.976   0.449  0.1363  1.2126  1.4962
  520MOL0     H70188   4.742   4.893   0.602 -0.3247  0.1787 -2.0026
  520MOL0     H70189   4.715   4.777   0.486  1.4591  0.2071  0.0931
  520MOL0     H70190   4.786   4.707   0.780  1.1502  0.8669  0.4418
  520MOL0     H70191   4.896   4.699   0.638  0.2942 -0.0457  0.2696
  520MOL0     H70192   4.778   4.536   0.522  1.2149  2.8430  0.3076
  520MOL0     H70193   4.639   4.553   0.635  0.5065  3.4368  1.5891
  520MOL0     H70194   4.787   4.444   0.805  0.2402 -1.3698  0.0675
  520MOL0     H70195   4.754   4.335   0.658  1.1277 -0.5127 -0.7207
  520MOL0     H70196   5.182   4.415   0.687 -0.4893  2.4449  1.3195
  520MOL0     H70197   4.306   4.710   0.600 -2.7280 -3.3219 -3.5304
  520MOL0     H70198   4.022   4.911   0.484  0.7968  0.5013  2.4513
  520MOL0     H70199   4.044   4.778   0.366 -0.4027 -0.0315 -0.0120
  520MOL0     H70200   4.060   4.763   0.547 -1.8303  1.7707  1.0228
  521MOL0     O70201   0.957   3.303   4.253 -0.6994  0.4288 -0.1435
  521MOL0     C70202   0.900   3.193   4.254  0.0486 -0.4873 -0.1146
  521MOL0     O70203   0.778   3.176   4.313  1.3501  0.4501  0.5616
  521MOL0     C70204   0.716   3.288   4.368 -0.8336 -0.1040  1.1674
  521MOL0     C70205   0.724   3.309   4.505  0.3886  0.6703  0.5672
  521MOL0     C70206   0.655   3.416   4.554  0.6046  0.5161 -0.7208
  521MOL0     C70207   0.582   3.508   4.472  0.5150 -0.2694  0.2896
  521MOL0     O70208   0.525   3.626   4.519  0.5695  0.6769  0.2533
  521MOL0     C70209   0.606   3.688   4.618 -0.4864  0.0858 -0.4249
  521MOL0     C70210   0.574   3.834   4.623 -0.8310 -0.6143 -0.3970
  521MOL0     C70211   0.683   3.897   4.717 -0.0884 -0.2355 -1.1943
  521MOL0     C70212   0.663   4.043   4.743  0.1920  0.7639 -0.9469
  521MOL0     C70213   0.653   4.123   4.612 -0.3831 -1.0753  0.2702
  521MOL0     C70214   0.674   4.280   4.645  0.9154 -0.0344  0.9615
  521MOL0     C70215   0.545   4.347   4.700  0.8727 -0.2765  0.5325
  521MOL0     C70216   0.579   4.485   4.765 -0.3077 -0.6799  0.4812
  521MOL0     N70217   0.629   4.457   4.902 -0.1966 -0.5602 -0.4736
  521MOL0     C70218   0.541   4.433   5.004  0.1840 -0.5799  0.0037
  521MOL0     C70219   0.602   4.475   5.115  0.3602  0.5835  0.4228
  521MOL0     C70220   0.531   4.478   5.246  0.4456 -0.7893 -0.7342
  521MOL0     C70221   0.457   4.612   5.266  0.2495 -0.6479 -0.3853
  521MOL0     C70222   0.387   4.625   5.399 -0.2685 -0.2135 -0.7627
  521MOL0     C70223   0.337   4.767   5.427 -0.9044 -0.2835  0.6043
  521MOL0     O70224   0.434   4.857   5.459  0.1406 -0.2958 -0.4360
  521MOL0     C70225   0.405   4.994   5.463 -0.0484  1.4530 -0.8256
  521MOL0     C70226   0.287   5.056   5.411 -1.0435  0.5822  0.1557
  521MOL0     C70227   0.268   5.191   5.419  0.2193 -0.6771  0.4379
  521MOL0     C70228   0.372   5.269   5.468 -0.5201 -0.2020  0.3339
  521MOL0     C70229   0.355   5.414   5.466 -0.2390  0.2197  0.3941
  521MOL0     O70230   0.227   5.465   5.447  0.2625 -0.2986  0.5265
  521MOL0     C70231   0.206   5.600   5.438 -0.4115 -0.0761 -0.3733
  521MOL0     C70232   0.176   5.688   5.545  0.0720 -0.2701 -0.1846
  521MOL0     C70233   0.170   5.837   5.533 -0.8112  0.3134  0.9642
  521MOL0     C70234   0.197   5.888   5.411 -0.3270 -0.4883  0.5184
  521MOL0     O70235   0.221   6.020   5.379 -0.3467  0.5860 -0.3391
  521MOL0     C70236   0.184   6.125   5.475  0.9502  0.3122 -0.0574
  521MOL0     C70237   0.283   6.137   5.594 -0.1308 -0.4650  0.2667
  521MOL0     C70238   0.243   6.255   5.679 -0.6936 -0.3716  0.5859
  521MOL0     C70239   0.099   6.287   5.713 -0.0897 -0.1771  0.0195
  521MOL0     C70240   0.103   6.374   5.836  0.3557  0.5525  0.8305
  521MOL0     C70241  -0.025   6.444   5.864 -0.3730 -0.4455 -0.4395
  521MOL0     C70242  -0.149   6.347   5.882 -1.5972  0.6561  0.6975
  521MOL0     C70243  -0.272   6.410   5.942  1.0781  0.3830  0.5437
  521MOL0    Cl70244  -0.389   6.452   5.812  0.2058 -0.1165  0.1532
  521MOL0     C70245   0.203   5.810   5.300 -0.7742 -0.2491  0.2814
  521MOL0     C70246   0.212   5.666   5.313 -0.5013  1.1406  0.3677
  521MOL0     O70247   0.454   5.480   5.468  0.1358 -0.7866  0.7388
  521MOL0     C70248   0.487   5.209   5.525 -0.4210 -0.1685 -0.4557
  521MOL0     C70249   0.501   5.066   5.523 -0.3447 -0.6684  0.0427
  521MOL0     N70250   0.733   4.517   5.085  0.0165 -0.6159 -0.1353
  521MOL0     N70251   0.738   4.521   4.955 -0.0231 -0.8530 -0.6815
  521MOL0     C70252   0.579   3.487   4.332 -0.3679  0.8363 -1.3515
  521MOL0     C70253   0.648   3.375   4.283  0.0518 -0.3278  0.2168
  521MOL0     C70254   0.966   3.074   4.189  0.0115 -0.3085  0.0005
  521MOL0     C70255   1.012   2.967   4.273  0.1248 -0.0597  0.8105
  521MOL0     C70256   1.107   2.873   4.226  0.7815  0.0253 -0.0815
  521MOL0     C70257   1.138   2.871   4.088 -0.3174  0.2918  0.0503
  521MOL0     O70258   1.227   2.781   4.039  0.6931 -0.3828  0.5723
  521MOL0     C70259   1.299   2.809   3.922  0.9852 -0.1608 -0.1677
  521MOL0     C70260   1.394   2.699   3.871  0.1309  0.6207  0.1526
  521MOL0     C70261   1.331   2.561   3.889 -0.0832 -0.0472 -0.4601
  521MOL0     C70262   1.417   2.441   3.830 -0.0017  0.0917  0.8075
  521MOL0     C70263   1.426   2.325   3.912  0.1979  0.6362  1.1086
  521MOL0     C70264   1.444   2.228   3.985 -0.2483 -0.4691  0.8432
  521MOL0     C70265   1.068   2.966   4.003  0.3779  0.0656 -0.1528
  521MOL0     C70266   0.980   3.061   4.045 -0.7719  0.3770  0.5908
  521MOL0     C70267   0.906   3.141   3.937 -0.0544 -0.2637  0.5744
  521MOL0     H70268   0.768   3.226   4.560 -1.9961 -3.2991 -2.8538
  521MOL0     H70269   0.658   3.435   4.661 -3.6698 -1.6446 -0.0040
  521MOL0     H70270   0.598   3.637   4.714  0.6081 -1.8684 -1.3041
  521MOL0     H70271   0.711   3.681   4.589 -0.6188  1.4346 -1.3582
  521MOL0     H70272   0.476   3.843   4.670 -0.3455  0.0759  0.5165
  521MOL0     H70273   0.583   3.874   4.521 -1.2265 -2.5348 -1.2446
  521MOL0     H70274   0.786   3.881   4.684  0.5024  0.4572  0.2229
  521MOL0     H70275   0.678   3.848   4.815 -1.8504  2.2582  0.0693
  521MOL0     H70276   0.571   4.056   4.802  0.4170 -4.4403  1.0998
  521MOL0     H70277   0.759   4.066   4.789  0.2308 -3.4008  1.5039
  521MOL0     H70278   0.739   4.101   4.547  0.8311  3.4681 -0.0021
  521MOL0     H70279   0.562   4.097   4.557 -0.2214 -3.7417  1.1128
  521MOL0     H70280   0.752   4.289   4.721 -0.8976 -0.1065  2.9451
  521MOL0     H70281   0.706   4.342   4.561  0.1975 -2.8958 -1.6233
  521MOL0     H70282   0.488   4.290   4.775  1.7021  0.0127  1.4046
  521MOL0     H70283   0.479   4.358   4.614  0.4970 -3.4966  0.2515
  521MOL0     H70284   0.658   4.531   4.705 -0.0844  0.8884  1.8699
  521MOL0     H70285   0.500   4.561   4.761 -0.6030 -1.0129 -0.1550
  521MOL0     H70286   0.435   4.410   4.999 -0.1795 -0.2807  3.6837
  521MOL0     H70287   0.457   4.399   5.259 -2.6338  1.4655 -2.9484
  521MOL0     H70288   0.611   4.477   5.321 -2.1818  1.6048  2.3962
  521MOL0     H70289   0.528   4.695   5.253  0.2756 -0.5833  0.1483
  521MOL0     H70290   0.377   4.620   5.192 -0.0408 -3.8953 -0.5694
  521MOL0     H70291   0.457   4.586   5.474 -1.3615 -0.4157  0.1881
  521MOL0     H70292   0.306   4.551   5.402  0.5428 -1.3192 -3.3455
  521MOL0     H70293   0.263   4.769   5.508 -0.4245  2.0973  1.0489
  521MOL0     H70294   0.298   4.806   5.334  0.4346 -1.7006 -0.6154
  521MOL0     H70295   0.202   5.004   5.368 -1.4792 -0.1456  1.7943
  521MOL0     H70296   0.191   5.237   5.358  0.6586 -0.9673 -0.3515
  521MOL0     H70297   0.165   5.648   5.645  1.9332 -2.0858 -0.6469
  521MOL0     H70298   0.139   5.898   5.617 -2.6016 -0.4904  0.9197
  521MOL0     H70299   0.188   6.223   5.426  1.8498  0.0953 -0.4414
  521MOL0     H70300   0.081   6.117   5.509  1.1803 -2.3735  0.2151
  521MOL0     H70301   0.270   6.052   5.662  0.5779  1.3191  2.8143
  521MOL0     H70302   0.389   6.143   5.571 -0.1241 -0.5805  0.2651
  521MOL0     H70303   0.297   6.237   5.773  1.0736  0.2701 -0.2515
  521MOL0     H70304   0.297   6.338   5.633  0.3452 -0.6137  1.3242
  521MOL0     H70305   0.036   6.200   5.732  0.5588 -0.6587 -0.0050
  521MOL0     H70306   0.066   6.355   5.634 -2.8038  2.0707  2.8253
  521MOL0     H70307   0.180   6.452   5.834  1.9165 -0.8756  2.2010
  521MOL0     H70308   0.127   6.308   5.920  2.6237 -0.6367 -0.6676
  521MOL0     H70309  -0.003   6.501   5.955  0.7808 -2.7684  0.8085
  521MOL0     H70310  -0.032   6.516   5.781 -1.7220 -1.9626 -1.7061
  521MOL0     H70311  -0.119   6.261   5.943 -3.3379 -1.8382 -1.7164
  521MOL0     H70312  -0.177   6.296   5.789 -1.6206 -0.2765  1.2008
  521MOL0     H70313  -0.333   6.337   5.995  2.9629 -0.3025  1.8516
  521MOL0     H70314  -0.238   6.497   5.999 -0.8887 -0.3965  3.0994
  521MOL0     H70315   0.214   5.864   5.206  0.0341  0.2954  0.6682
  521MOL0     H70316   0.208   5.605   5.224 -3.0642 -1.3058  1.9623
  521MOL0     H70317   0.564   5.266   5.575 -1.1636 -0.2385  0.8014
  521MOL0     H70318   0.589   5.016   5.563  0.0188 -1.8333 -2.0571
  521MOL0     H70319   0.538   3.564   4.267 -2.3956  0.9936 -0.0179
  521MOL0     H70320   0.660   3.348   4.179  1.2286 -0.6419  0.4115
  521MOL0     H70321   0.977   2.978   4.375 -0.0172  0.3785  0.7162
  521MOL0     H70322   1.161   2.804   4.291  2.2952  1.5014  0.2877
  521MOL0     H70323   1.345   2.907   3.941 -2.4238  1.3283  1.3036
  521MOL0     H70324   1.227   2.827   3.841  0.1554 -1.2072  0.3138
  521MOL0     H70325   1.477   2.694   3.942 -1.6737 -2.4919  2.2874
  521MOL0     H70326   1.424   2.713   3.767 -0.9610 -1.0974 -0.4272
  521MOL0     H70327   1.234   2.559   3.838 -2.7070  0.0088  3.9982
  521MOL0     H70328   1.305   2.540   3.993  1.4848  1.0169  0.1730
  521MOL0     H70329   1.384   2.421   3.728 -1.7619  2.3434  0.8725
  521MOL0     H70330   1.518   2.478   3.808 -0.4039  0.8314  0.1595
  521MOL0     H70331   1.468   2.132   4.027 -0.7798 -0.2093  1.7584
  521MOL0     H70332   1.078   2.969   3.895  0.1496 -3.0334 -0.3599
  521MOL0     H70333   0.974   3.219   3.904 -1.0826 -0.2486 -1.7260
  521MOL0     H70334   0.884   3.085   3.845 -3.0016  3.0492 -0.9558
  521MOL0     H70335   0.809   3.182   3.965  0.0842 -1.0815  2.4137
  522MOL0     O70336   6.610   9.123  10.439 -0.1694  0.4757  0.3865
  522MOL0     C70337   6.727   9.161  10.427  0.5822  0.8003 -1.3503
  522MOL0     O70338   6.799   9.150  10.318  0.1455  0.5028  0.2239
  522MOL0     C70339   6.747   9.087  10.208 -0.4183  0.2651 -0.4517
  522MOL0     C70340   6.685   9.150  10.105  0.3354 -0.0576  0.9498
  522MOL0     C70341   6.642   9.076   9.993 -0.7177  0.6081  0.8820
  522MOL0     C70342   6.656   8.941   9.981  0.1416  0.5584  0.2150
  522MOL0     O70343   6.612   8.860   9.875  0.1170 -0.2954 -0.4689
  522MOL0     C70344   6.705   8.812   9.778  1.1033 -0.8967 -0.1245
  522MOL0     C70345   6.640   8.727   9.681 -0.7463  0.1037 -0.2432
  522MOL0     C70346   6.548   8.787   9.581  0.8103 -0.0833 -0.3821
  522MOL0     C70347   6.575   8.768   9.433  0.0897  0.0911 -0.2365
  522MOL0     C70348   6.470   8.850   9.361 -0.0166  0.4928  0.1830
  522MOL0     C70349   6.459   8.802   9.206  0.8607  0.3557 -0.8440
  522MOL0     C70350   6.579   8.854   9.130 -0.2640  0.6382  1.1768
  522MOL0     C70351   6.555   8.860   8.982 -0.9566 -0.0545  0.1047
  522MOL0     N70352   6.662   8.926   8.915  0.9306  0.7573 -0.3958
  522MOL0     C70353   6.767   8.859   8.857  0.3273  0.9675 -0.6541
  522MOL0     C70354   6.861   8.950   8.827  0.0716 -0.6519 -0.2819
  522MOL0     C70355   6.997   8.930   8.777  0.0466 -0.4175  0.1223
  522MOL0     C70356   7.047   9.030   8.674 -0.7142  0.7214 -0.2558
  522MOL0     C70357   7.198   9.025   8.640 -0.5937 -0.0275  0.3459
  522MOL0     C70358   7.243   9.116   8.536  0.3975  0.2982  0.3367
  522MOL0     O70359   7.177   9.094   8.411  0.1083 -0.4086 -0.4358
  522MOL0     C70360   7.220   8.999   8.328 -0.2143  0.6274  0.1591
  522MOL0     C70361   7.314   8.895   8.357 -0.1373 -0.5780  1.3142
  522MOL0     C70362   7.318   8.781   8.275  0.1832 -0.2281 -0.2423
  522MOL0     C70363   7.252   8.769   8.155  0.6844  0.6666 -0.0528
  522MOL0     C70364   7.265   8.651   8.064 -0.5516  0.1790  0.4574
  522MOL0     O70365   7.354   8.557   8.100  0.4741  0.0164 -0.3183
  522MOL0     C70366   7.355   8.459   8.010 -0.1513  0.9735 -1.0328
  522MOL0     C70367   7.432   8.451   7.899  0.6886  0.6035  0.0307
  522MOL0     C70368   7.431   8.337   7.816 -0.5195 -0.2718 -0.9205
  522MOL0     C70369   7.351   8.219   7.852  0.0294 -0.7987  0.1534
  522MOL0     O70370   7.333   8.103   7.779 -0.3022  0.1018 -0.1024
  522MOL0     C70371   7.417   8.076   7.669 -0.6941  0.7189  0.5403
  522MOL0     C70372   7.358   7.959   7.587  0.1616  0.2480  0.4367
  522MOL0     C70373   7.437   7.939   7.454 -0.4241  0.6346 -0.9055
  522MOL0     C70374   7.373   7.821   7.373 -0.8872  0.3891 -0.9872
  522MOL0     C70375   7.420   7.820   7.231  0.1112  0.0448  0.3405
  522MOL0     C70376   7.409   7.680   7.171 -0.3923  0.2889  0.3978
  522MOL0     C70377   7.516   7.582   7.218 -0.4815  0.4207 -0.5492
  522MOL0     C70378   7.562   7.484   7.116  0.8417  0.6967 -0.1118
  522MOL0    Cl70379   7.418   7.411   7.031 -0.1138 -0.1183  0.0409
  522MOL0     C70380   7.268   8.237   7.967 -0.3339  0.0712  1.3702
  522MOL0     C70381   7.282   8.345   8.053  1.0601 -0.1543  0.1039
  522MOL0     O70382   7.173   8.643   7.975 -0.1680  1.2727 -0.2191
  522MOL0     C70383   7.158   8.873   8.123 -0.9978 -0.4678 -0.4611
  522MOL0     C70384   7.150   8.981   8.209 -0.1456 -0.7326  0.1502
  522MOL0     N70385   6.813   9.070   8.876 -1.0096 -0.0046  0.3294
  522MOL0     N70386   6.693   9.058   8.921 -0.3269  0.1385 -0.2046
  522MOL0     C70387   6.712   8.870  10.090 -0.0670  0.4324  0.7239
  522MOL0     C70388   6.765   8.948  10.194 -0.3468  0.0161 -1.1580
  522MOL0     C70389   6.796   9.249  10.540 -0.4478  0.3749 -0.0012
  522MOL0     C70390   6.905   9.330  10.506 -0.5973 -0.1240  0.2618
  522MOL0     C70391   6.961   9.424  10.594  0.4721 -0.1948  0.0899
  522MOL0     C70392   6.911   9.440  10.719  0.9851  0.2261  0.0062
  522MOL0     O70393   6.953   9.533  10.816  0.3530 -0.4061 -0.0100
  522MOL0     C70394   7.033   9.648  10.773 -0.7282 -0.5473  0.7010
  522MOL0     C70395   7.017   9.766  10.872 -0.4614  0.3644 -0.6073
  522MOL0     C70396   7.100   9.899  10.828 -0.4524 -0.0484  0.1332
  522MOL0     C70397   7.057   9.976  10.702  0.8386  0.3214 -0.1241
  522MOL0     C70398   6.913   9.995  10.714  1.0405  0.4782  0.4886
  522MOL0     C70399   6.795  10.031  10.721  0.7752  0.1367 -0.2736
  522MOL0     C70400   6.818   9.342  10.765  0.1644 -0.3653 -0.4392
  522MOL0     C70401   6.758   9.253  10.674  0.1571  0.3203 -0.4642
  522MOL0     C70402   6.655   9.169  10.730  0.1406 -0.0878  0.4183
  522MOL0     H70403   6.686   9.258  10.101 -5.0595  0.3468  2.9574
  522MOL0     H70404   6.613   9.123   9.899 -0.2230 -2.7440 -1.1134
  522MOL0     H70405   6.755   8.898   9.733  0.6056  1.3786  3.2655
  522MOL0     H70406   6.778   8.760   9.842 -0.3242 -0.6226  1.8095
  522MOL0     H70407   6.583   8.647   9.729 -4.6432 -0.5122 -5.0794
  522MOL0     H70408   6.715   8.678   9.617 -0.8647 -0.3643 -0.0262
  522MOL0     H70409   6.549   8.891   9.614  0.7599 -0.4620  0.8665
  522MOL0     H70410   6.449   8.747   9.607  1.5352 -0.6967  1.5798
  522MOL0     H70411   6.678   8.795   9.407  0.1848  1.9340  1.8040
  522MOL0     H70412   6.572   8.662   9.406  1.4215  0.2865 -1.2638
  522MOL0     H70413   6.376   8.826   9.412  0.6342 -1.9445  0.3543
  522MOL0     H70414   6.495   8.956   9.367 -1.7489  0.8530  2.7085
  522MOL0     H70415   6.450   8.693   9.202 -1.9489  0.5314 -1.3489
  522MOL0     H70416   6.373   8.862   9.174 -0.4544  0.4484  2.5281
  522MOL0     H70417   6.656   8.779   9.148 -2.4047 -1.4543  2.1617
  522MOL0     H70418   6.614   8.951   9.168 -0.9398  2.1493 -1.7499
  522MOL0     H70419   6.539   8.761   8.938 -0.9058 -1.2981  2.7196
  522MOL0     H70420   6.464   8.920   8.971 -1.1966  0.0013  2.0119
  522MOL0     H70421   6.784   8.752   8.844 -0.5375  0.7518 -0.1231
  522MOL0     H70422   7.076   8.928   8.852  0.2500  0.3356 -0.0667
  522MOL0     H70423   7.002   8.831   8.731 -3.6706 -0.4955 -0.4480
  522MOL0     H70424   6.987   9.006   8.585 -0.3088 -2.8519  0.2878
  522MOL0     H70425   7.007   9.124   8.714 -3.4802 -0.1101 -0.8055
  522MOL0     H70426   7.219   8.922   8.611  0.5876 -0.8013  3.5715
  522MOL0     H70427   7.256   9.039   8.731 -1.6787 -4.0112  1.8678
  522MOL0     H70428   7.351   9.107   8.527  0.7015 -1.3581  3.8082
  522MOL0     H70429   7.224   9.213   8.583 -0.1272  0.3191  0.0819
  522MOL0     H70430   7.378   8.904   8.444  1.3414 -4.4338  0.8510
  522MOL0     H70431   7.392   8.705   8.300 -2.1501 -3.2698 -1.9233
  522MOL0     H70432   7.493   8.535   7.867 -1.0905  2.4130  1.1792
  522MOL0     H70433   7.484   8.324   7.722 -2.2999 -1.0954 -1.8615
  522MOL0     H70434   7.439   8.160   7.602  0.3640  0.4539  0.5295
  522MOL0     H70435   7.513   8.034   7.703 -0.5636 -0.2796 -0.9576
  522MOL0     H70436   7.359   7.861   7.637  1.5398 -1.2098 -2.2176
  522MOL0     H70437   7.253   7.985   7.570  0.3089 -0.0493 -1.1119
  522MOL0     H70438   7.424   8.029   7.393 -1.3276  1.2952  0.2437
  522MOL0     H70439   7.544   7.919   7.469 -0.1898  1.0735 -1.8840
  522MOL0     H70440   7.267   7.845   7.373 -0.3975  2.7643 -0.4363
  522MOL0     H70441   7.392   7.727   7.426 -2.5535  0.7699  0.3686
  522MOL0     H70442   7.523   7.854   7.214 -0.6412  0.8310 -3.7435
  522MOL0     H70443   7.343   7.877   7.178  1.2961  0.9409 -0.4794
  522MOL0     H70444   7.313   7.632   7.193 -0.1117 -0.9793 -1.0312
  522MOL0     H70445   7.422   7.692   7.064  0.9755 -1.8409  0.2681
  522MOL0     H70446   7.481   7.513   7.294  2.8364 -0.1618  0.5999
  522MOL0     H70447   7.605   7.623   7.266 -0.8303 -2.3817  2.9134
  522MOL0     H70448   7.627   7.542   7.050  0.1073  1.6560 -0.0072
  522MOL0     H70449   7.620   7.401   7.160  0.6650 -0.7609 -2.4419
  522MOL0     H70450   7.197   8.160   7.994  0.2087  0.1087  2.9970
  522MOL0     H70451   7.220   8.346   8.143  0.6872 -2.2458 -0.0945
  522MOL0     H70452   7.105   8.872   8.029  1.0021 -2.2857 -1.6517
  522MOL0     H70453   7.084   9.065   8.189  0.5490 -0.0804  0.5188
  522MOL0     H70454   6.720   8.762  10.084 -0.8883  0.3993 -4.5927
  522MOL0     H70455   6.798   8.893  10.282 -3.4317  2.7906  2.0847
  522MOL0     H70456   6.936   9.327  10.402 -1.1325  1.5987  0.0198
  522MOL0     H70457   7.035   9.496  10.561 -0.1453 -1.6847 -5.6469
  522MOL0     H70458   6.999   9.693  10.679  1.4126  0.2825  0.2497
  522MOL0     H70459   7.138   9.621  10.756  0.6008  2.5714  3.0405
  522MOL0     H70460   7.058   9.733  10.968  1.3103  0.4252 -1.3057
  522MOL0     H70461   6.913   9.799  10.884 -0.9905  0.0749 -3.6377
  522MOL0     H70462   7.203   9.876  10.802 -1.1431 -2.9112 -0.4447
  522MOL0     H70463   7.099   9.964  10.915  2.3630 -1.7040  1.5398
  522MOL0     H70464   7.106  10.071  10.676  0.4066 -0.3645 -3.9743
  522MOL0     H70465   7.073   9.915  10.614  0.6665  0.2592 -0.1100
  522MOL0     H70466   6.692  10.057  10.733  0.6655 -0.4827  0.2156
  522MOL0     H70467   6.785   9.359  10.867 -1.5545 -5.0617  0.0093
  522MOL0     H70468   6.654   9.069  10.685  0.6341  0.5918 -1.1718
  522MOL0     H70469   6.660   9.159  10.839 -1.2984 -4.2141  0.2680
  522MOL0     H70470   6.556   9.211  10.711  0.3051 -0.4743 -1.4944
  523MOL0     O70471   6.054   7.514   7.160  0.7706  0.0101  0.1667
  523MOL0     C70472   6.074   7.590   7.062  0.4921  0.6780  0.1283
  523MOL0     O70473   6.182   7.673   7.049 -0.0390 -0.1791 -0.8637
  523MOL0     C70474   6.270   7.672   7.153 -0.5575  0.3262 -0.4119
  523MOL0     C70475   6.372   7.571   7.184  0.6356 -0.1857  0.1438
  523MOL0     C70476   6.446   7.589   7.301  0.2271  0.3263 -0.3058
  523MOL0     C70477   6.442   7.702   7.385 -1.2102 -0.3688  0.0023
  523MOL0     O70478   6.532   7.714   7.493 -0.0706  0.0280  0.9554
  523MOL0     C70479   6.474   7.788   7.600 -0.0406  0.6222  0.5405
  523MOL0     C70480   6.574   7.770   7.716  0.6593 -0.7262 -0.5668
  523MOL0     C70481   6.602   7.623   7.756  0.3059 -0.7528  0.2000
  523MOL0     C70482   6.707   7.618   7.868 -0.4254  0.8782  0.0488
  523MOL0     C70483   6.641   7.641   8.003  0.2776  0.1867 -0.3596
  523MOL0     C70484   6.737   7.579   8.112 -0.2138  0.0197  0.3836
  523MOL0     C70485   6.683   7.554   8.253  0.0921 -1.1944  0.0966
  523MOL0     C70486   6.562   7.465   8.247 -0.6209  1.3433  1.2517
  523MOL0     N70487   6.576   7.334   8.187  0.2897  0.0698  0.0461
  523MOL0     C70488   6.653   7.227   8.239 -0.0988  0.5361  0.7212
  523MOL0     C70489   6.674   7.146   8.139  0.5694  0.3047 -0.2803
  523MOL0     C70490   6.769   7.029   8.138 -0.0488 -0.8242 -0.4240
  523MOL0     C70491   6.918   7.074   8.172 -0.8862 -0.2221 -0.0894
  523MOL0     C70492   7.011   6.955   8.201 -0.1353 -0.0062 -0.1386
  523MOL0     C70493   7.001   6.851   8.080 -0.0800  0.3741 -0.2720
  523MOL0     O70494   7.105   6.759   8.137  0.8238 -0.0449 -0.0261
  523MOL0     C70495   7.093   6.626   8.107 -0.1811 -0.4994 -0.2256
  523MOL0     C70496   7.005   6.565   8.015 -0.2321  0.1628 -0.2227
  523MOL0     C70497   7.028   6.428   7.974  0.5076 -0.1744  0.2703
  523MOL0     C70498   7.138   6.360   8.032 -0.0090  0.2696 -0.7575
  523MOL0     C70499   7.164   6.214   7.987 -0.5505 -0.0958  0.3010
  523MOL0     O70500   7.270   6.153   8.043  0.4279  0.0402  0.1230
  523MOL0     C70501   7.279   6.019   8.031  0.5089 -0.1394 -0.0298
  523MOL0     C70502   7.182   5.942   8.090 -0.3556 -0.2889  0.5889
  523MOL0     C70503   7.177   5.799   8.081 -0.1037 -0.7061  0.4090
  523MOL0     C70504   7.297   5.738   8.042  0.0888 -1.1891 -0.1979
  523MOL0     O70505   7.295   5.610   8.046  0.5015  0.0869 -0.4947
  523MOL0     C70506   7.400   5.526   8.001 -0.4858  0.3050  0.0284
  523MOL0     C70507   7.380   5.377   8.039  0.1859 -0.1818 -0.5883
  523MOL0     C70508   7.274   5.313   7.941 -0.3160 -0.7762  0.4924
  523MOL0     C70509   7.146   5.306   8.029  0.0345  0.0878  0.1488
  523MOL0     C70510   7.128   5.162   8.089  0.7020  0.2454  1.2563
  523MOL0     C70511   7.031   5.071   8.003 -0.2721 -0.6895  0.8710
  523MOL0     C70512   7.006   4.932   8.066  0.9356 -0.1104  1.5081
  523MOL0     C70513   6.934   4.920   8.199 -0.0721  0.4965  0.5536
  523MOL0    Cl70514   6.964   4.767   8.260  0.2220 -0.2301 -0.3727
  523MOL0     C70515   7.411   5.815   8.002 -0.5679  0.4640 -0.8580
  523MOL0     C70516   7.395   5.955   7.989 -0.3351 -0.0826  0.4197
  523MOL0     O70517   7.095   6.173   7.888 -0.5360 -0.1551  0.1935
  523MOL0     C70518   7.221   6.424   8.125 -0.3562  0.3836  1.1086
  523MOL0     C70519   7.189   6.554   8.165 -0.6276  0.3535 -0.2054
  523MOL0     N70520   6.599   7.192   8.029  0.5668 -0.6385  0.0776
  523MOL0     N70521   6.548   7.308   8.053  0.0549 -0.9600 -0.3921
  523MOL0     C70522   6.346   7.801   7.354 -0.4840 -0.4706  0.9805
  523MOL0     C70523   6.268   7.789   7.232  0.3705  0.4390 -0.5199
  523MOL0     C70524   5.951   7.599   6.964 -0.1668  0.2003 -0.9835
  523MOL0     C70525   5.927   7.721   6.893  0.1876  0.6724 -0.3104
  523MOL0     C70526   5.810   7.748   6.822  0.5537  0.5539 -0.0005
  523MOL0     C70527   5.702   7.657   6.845  0.1280 -0.9809  0.1838
  523MOL0     O70528   5.580   7.685   6.798  0.3862 -0.4558 -0.1164
  523MOL0     C70529   5.476   7.722   6.888  0.2562  0.9154 -0.3556
  523MOL0     C70530   5.494   7.857   6.950 -0.1730  0.0573  0.2822
  523MOL0     C70531   5.497   7.969   6.845  0.1338 -0.1281 -0.4080
  523MOL0     C70532   5.511   8.104   6.913 -0.0279  0.2311 -0.0764
  523MOL0     C70533   5.405   8.134   7.010 -0.9767  0.3856 -0.6231
  523MOL0     C70534   5.337   8.156   7.100  0.1266  0.5592 -0.2420
  523MOL0     C70535   5.722   7.541   6.913  0.1687  0.0481 -0.3759
  523MOL0     C70536   5.841   7.503   6.961 -0.9022 -0.0665  0.1404
  523MOL0     C70537   5.866   7.364   7.026  0.0054  0.2804 -0.2976
  523MOL0     H70538   6.374   7.482   7.123 -0.4371 -1.0490  1.3160
  523MOL0     H70539   6.525   7.520   7.329 -1.8928 -1.1298  2.5131
  523MOL0     H70540   6.485   7.896   7.584  2.3763  0.5173  1.0079
  523MOL0     H70541   6.380   7.741   7.628  0.5427 -1.5990 -0.9270
  523MOL0     H70542   6.521   7.820   7.799  0.7673 -3.3835  1.2224
  523MOL0     H70543   6.671   7.818   7.700  0.2397 -0.4854 -2.6236
  523MOL0     H70544   6.641   7.576   7.664 -0.5253  0.0388 -0.5755
  523MOL0     H70545   6.507   7.575   7.779 -0.7212  1.4913  0.8621
  523MOL0     H70546   6.751   7.520   7.849 -3.5175 -0.1329 -3.0346
  523MOL0     H70547   6.783   7.695   7.853 -3.5123  4.6603  1.9034
  523MOL0     H70548   6.637   7.749   8.016 -0.5577  0.4819 -2.6733
  523MOL0     H70549   6.541   7.597   7.994 -0.2629  1.4886 -0.8839
  523MOL0     H70550   6.773   7.481   8.079  0.9085  0.9635 -1.3996
  523MOL0     H70551   6.829   7.637   8.120  0.8923 -1.6926  0.5193
  523MOL0     H70552   6.647   7.640   8.310 -2.5305 -0.5131 -2.3425
  523MOL0     H70553   6.755   7.511   8.323 -0.0745 -0.1666  0.9110
  523MOL0     H70554   6.539   7.448   8.353  0.3417 -0.3153  1.2233
  523MOL0     H70555   6.478   7.514   8.195  0.3664  0.9626 -0.8018
  523MOL0     H70556   6.699   7.209   8.336 -0.5157  1.4792  1.1037
  523MOL0     H70557   6.747   6.964   8.223  1.1449 -0.4688  0.1854
  523MOL0     H70558   6.762   6.976   8.043 -0.6811  0.2834 -1.0157
  523MOL0     H70559   6.956   7.125   8.083  0.8623 -1.7336 -0.2725
  523MOL0     H70560   6.918   7.135   8.263 -2.0236 -0.4434  0.0713
  523MOL0     H70561   6.979   6.918   8.299 -4.4023  1.6700 -0.6687
  523MOL0     H70562   7.110   6.998   8.211  1.1861 -2.6758 -0.8474
  523MOL0     H70563   7.027   6.890   7.982 -2.0813  1.1117 -0.5691
  523MOL0     H70564   6.905   6.802   8.061 -0.2836  0.0845  1.2955
  523MOL0     H70565   6.921   6.617   7.968  0.1932  0.3946 -0.7416
  523MOL0     H70566   6.963   6.378   7.903  0.5902  2.9676 -2.2185
  523MOL0     H70567   7.096   5.995   8.131  0.5442  1.2043  0.6144
  523MOL0     H70568   7.092   5.733   8.095 -0.2418 -0.0496  3.3385
  523MOL0     H70569   7.414   5.536   7.893  3.6166 -4.7483 -0.3060
  523MOL0     H70570   7.494   5.549   8.052 -0.7295 -1.9212  1.6520
  523MOL0     H70571   7.476   5.333   8.014  1.7631  1.3882  2.2150
  523MOL0     H70572   7.358   5.352   8.144 -3.4333  1.3462 -0.8115
  523MOL0     H70573   7.249   5.379   7.856  2.7714 -0.7230 -0.4821
  523MOL0     H70574   7.307   5.213   7.911  0.3257 -0.8153  1.3015
  523MOL0     H70575   7.062   5.326   7.961 -0.6166  0.8389  1.1449
  523MOL0     H70576   7.150   5.387   8.102  2.1230  0.3147 -0.1530
  523MOL0     H70577   7.070   5.183   8.180 -0.7848  3.1891 -0.1962
  523MOL0     H70578   7.226   5.118   8.106  0.8929  0.5181  0.8819
  523MOL0     H70579   6.938   5.125   7.981 -1.6480 -2.3935  2.1222
  523MOL0     H70580   7.068   5.051   7.902 -3.5792 -0.6801 -0.5056
  523MOL0     H70581   7.104   4.884   8.077  1.2617 -2.4152 -5.8487
  523MOL0     H70582   6.950   4.870   7.995 -0.9979  1.6679  1.3885
  523MOL0     H70583   6.978   4.992   8.269 -0.1868 -1.3805  2.6973
  523MOL0     H70584   6.827   4.929   8.177  0.0333  0.0661 -0.1365
  523MOL0     H70585   7.500   5.759   7.975 -1.2770 -1.8114  1.1449
  523MOL0     H70586   7.479   6.021   7.970 -1.2626  1.3513  1.1917
  523MOL0     H70587   7.305   6.371   8.169  0.8370  0.1347 -1.2875
  523MOL0     H70588   7.263   6.602   8.228 -3.6876  3.1207  1.6531
  523MOL0     H70589   6.316   7.880   7.423 -0.7486 -0.3280  0.7064
  523MOL0     H70590   6.181   7.854   7.229  0.0539 -0.0414 -2.0645
  523MOL0     H70591   6.017   7.780   6.889 -0.1897  1.5688  2.2181
  523MOL0     H70592   5.808   7.840   6.766  0.2451  0.8221  0.4459
  523MOL0     H70593   5.465   7.647   6.967  2.6114  1.5644  0.6918
  523MOL0     H70594   5.389   7.721   6.822  0.6051 -0.8971 -0.8314
  523MOL0     H70595   5.585   7.858   7.011 -0.9893  3.4141  1.6789
  523MOL0     H70596   5.410   7.856   7.020 -2.1645 -5.9094 -1.6042
  523MOL0     H70597   5.407   7.970   6.782  1.0833 -0.0450 -1.7920
  523MOL0     H70598   5.586   7.955   6.784  2.0653  0.9223  2.0041
  523MOL0     H70599   5.603   8.103   6.972  1.7616 -1.4125 -2.6891
  523MOL0     H70600   5.516   8.181   6.836  2.2072 -0.2033 -0.4193
  523MOL0     H70601   5.279   8.166   7.189  0.0557 -0.0078 -0.2229
  523MOL0     H70602   5.638   7.472   6.915 -0.8020  1.2037  0.7175
  523MOL0     H70603   5.846   7.367   7.134 -1.1191 -0.0865 -0.4781
  523MOL0     H70604   5.800   7.288   6.982  0.4894 -2.1520  2.8519
  523MOL0     H70605   5.966   7.321   7.028 -1.2188 -2.8311  2.1311
  524MOL0     O70606   8.064   4.727   1.809 -0.1717  0.0390 -0.0224
  524MOL0     C70607   8.057   4.803   1.713  0.4721 -0.2597  0.1892
  524MOL0     O70608   8.029   4.937   1.727  0.5902  0.6984  0.0672
  524MOL0     C70609   8.001   4.999   1.851 -0.9679  1.5335 -0.7241
  524MOL0     C70610   8.026   4.943   1.991 -1.0563 -0.7530 -0.4850
  524MOL0     C70611   8.005   5.024   2.096 -0.9010  0.4962 -0.1824
  524MOL0     C70612   7.949   5.156   2.079  0.4549 -0.3526  0.5881
  524MOL0     O70613   7.911   5.249   2.174 -0.2522  0.5464  0.3303
  524MOL0     C70614   7.881   5.198   2.305  0.4181  0.2309 -0.4498
  524MOL0     C70615   8.014   5.229   2.376  0.5929  1.0153 -1.0844
  524MOL0     C70616   8.006   5.179   2.525 -0.6381 -0.4075 -0.2398
  524MOL0     C70617   7.950   5.285   2.627  0.6006  0.4897  0.6479
  524MOL0     C70618   7.939   5.222   2.765 -0.1072 -1.1611 -0.4353
  524MOL0     C70619   7.800   5.146   2.788  0.0185  0.6076 -0.9410
  524MOL0     C70620   7.680   5.240   2.798  0.8161 -0.1714 -0.5732
  524MOL0     C70621   7.552   5.169   2.839  0.8892  0.0984  0.0054
  524MOL0     N70622   7.431   5.265   2.841  0.5389  0.5739 -0.7014
  524MOL0     C70623   7.379   5.311   2.964 -0.0880  0.1916 -0.2651
  524MOL0     C70624   7.256   5.352   2.929 -1.1552  0.6570  1.6902
  524MOL0     C70625   7.147   5.411   3.013 -0.0334  0.3661 -0.1617
  524MOL0     C70626   7.128   5.334   3.148 -0.0584  0.0046 -1.2379
  524MOL0     C70627   6.995   5.380   3.215  0.7922 -0.5114 -0.6566
  524MOL0     C70628   7.010   5.355   3.367 -0.3443  0.5202 -0.4348
  524MOL0     O70629   7.056   5.215   3.397 -0.7189 -0.6063 -0.2653
  524MOL0     C70630   6.957   5.125   3.395 -1.2499  0.1536 -0.9103
  524MOL0     C70631   6.878   5.113   3.510 -0.0609 -0.1970 -0.3686
  524MOL0     C70632   6.802   4.998   3.531 -0.2453  0.3624  0.6549
  524MOL0     C70633   6.801   4.896   3.440 -0.0376  0.3129 -0.1329
  524MOL0     C70634   6.719   4.780   3.458  0.3539  0.6491 -1.1269
  524MOL0     O70635   6.645   4.788   3.576 -0.4412  0.0210  0.5450
  524MOL0     C70636   6.569   4.684   3.616  0.1700  0.2562 -1.0113
  524MOL0     C70637   6.444   4.655   3.550  0.6456  0.1252 -0.0006
  524MOL0     C70638   6.358   4.548   3.583  0.2362  0.1597  0.6218
  524MOL0     C70639   6.380   4.479   3.697 -0.0896 -0.0364  0.3535
  524MOL0     O70640   6.306   4.373   3.741 -0.4300  0.3640 -0.0155
  524MOL0     C70641   6.167   4.368   3.713  0.3470 -0.1954  0.0452
  524MOL0     C70642   6.103   4.242   3.774 -0.6849  0.2572  0.0119
  524MOL0     C70643   6.184   4.127   3.706 -0.3088  0.6532  0.0066
  524MOL0     C70644   6.115   3.995   3.738 -0.4114  0.2411 -0.9888
  524MOL0     C70645   6.094   3.973   3.893  0.6641 -0.0684  0.0700
  524MOL0     C70646   6.060   3.831   3.924  0.0758  0.2391  0.1635
  524MOL0     C70647   6.024   3.787   4.069 -0.4782 -0.3984 -0.2401
  524MOL0     C70648   5.905   3.862   4.136  0.3827 -1.0126 -0.8099
  524MOL0    Cl70649   5.756   3.867   4.042  0.6339  0.3365  0.0098
  524MOL0     C70650   6.496   4.520   3.777  0.2893 -0.5242  0.1205
  524MOL0     C70651   6.597   4.612   3.735  0.6768  0.0726 -1.0574
  524MOL0     O70652   6.712   4.694   3.372 -0.5215  0.0312  0.2837
  524MOL0     C70653   6.876   4.910   3.320 -0.3570  0.0743  0.2638
  524MOL0     C70654   6.948   5.028   3.298 -0.5254 -0.5812  0.1797
  524MOL0     N70655   7.237   5.323   2.795 -0.0827  0.2372  0.5297
  524MOL0     N70656   7.345   5.274   2.734 -0.0597 -0.3675  0.1389
  524MOL0     C70657   7.930   5.214   1.951  0.1892 -0.2194 -0.2219
  524MOL0     C70658   7.955   5.135   1.840  0.6224 -0.0876  0.1137
  524MOL0     C70659   8.063   4.729   1.589 -0.2716  0.3937  0.4341
  524MOL0     C70660   8.149   4.612   1.570  0.0381 -0.3224 -0.2317
  524MOL0     C70661   8.138   4.529   1.458 -0.9941 -0.3110  0.2179
  524MOL0     C70662   8.052   4.560   1.359  0.1762  0.3999 -0.2770
  524MOL0     O70663   8.048   4.469   1.258 -0.0245 -0.5086  0.0720
  524MOL0     C70664   7.918   4.428   1.210  0.3519 -0.3463 -0.8334
  524MOL0     C70665   7.914   4.437   1.061 -0.0708 -0.4679  0.0156
  524MOL0     C70666   7.911   4.580   1.003 -0.1232  0.1375 -0.5625
  524MOL0     C70667   7.926   4.576   0.853 -0.4590  0.8288  0.3251
  524MOL0     C70668   7.825   4.480   0.791  0.5803  0.1109  0.2638
  524MOL0     C70669   7.737   4.417   0.734  0.6775  0.4535 -0.0447
  524MOL0     C70670   7.982   4.677   1.361 -1.0554 -0.1492 -0.1201
  524MOL0     C70671   7.988   4.770   1.472  0.7490 -0.5118 -0.6353
  524MOL0     C70672   7.913   4.902   1.451  0.4497  0.1911  0.2769
  524MOL0     H70673   8.084   4.853   2.011  1.4556  1.0586  0.9253
  524MOL0     H70674   8.029   4.996   2.198  0.8421  1.1480 -0.3779
  524MOL0     H70675   7.798   5.256   2.345  0.7133 -0.4452  1.2187
  524MOL0     H70676   7.859   5.091   2.308 -1.5945  0.6128 -0.2195
  524MOL0     H70677   8.039   5.336   2.383  0.5599  0.9522  0.3849
  524MOL0     H70678   8.101   5.181   2.331 -0.0807 -1.9788  0.6039
  524MOL0     H70679   8.102   5.143   2.563 -0.4765 -0.1125 -0.3636
  524MOL0     H70680   7.935   5.097   2.534 -1.5511  0.4197  0.3329
  524MOL0     H70681   8.009   5.378   2.629 -2.4776  2.8301 -3.0279
  524MOL0     H70682   7.854   5.322   2.590  1.1701 -0.4602 -2.0398
  524MOL0     H70683   8.025   5.157   2.783  0.5878 -0.0026  0.5475
  524MOL0     H70684   7.948   5.298   2.843  1.4325 -1.5277 -0.2171
  524MOL0     H70685   7.763   5.076   2.713 -0.0238 -2.8685  2.0280
  524MOL0     H70686   7.820   5.088   2.879 -3.3933  1.0350  0.2150
  524MOL0     H70687   7.669   5.298   2.706 -1.2203 -1.6915 -1.3524
  524MOL0     H70688   7.698   5.316   2.875 -2.8760  0.2802 -0.0082
  524MOL0     H70689   7.526   5.092   2.766 -1.5949  1.6170 -0.8562
  524MOL0     H70690   7.569   5.125   2.938  2.8606 -0.3194 -0.4695
  524MOL0     H70691   7.412   5.315   3.068 -2.2896  1.8586  0.4490
  524MOL0     H70692   7.173   5.515   3.038  0.7963  0.9553 -3.1290
  524MOL0     H70693   7.054   5.400   2.957  1.7071  2.1745 -3.7674
  524MOL0     H70694   7.116   5.228   3.122 -0.6768 -0.9878  2.5891
  524MOL0     H70695   7.213   5.340   3.216  0.3326 -0.0446 -1.7128
  524MOL0     H70696   6.925   5.313   3.165  1.0177 -1.4223  0.2331
  524MOL0     H70697   6.974   5.487   3.199  1.1642 -0.4259 -0.5906
  524MOL0     H70698   6.905   5.356   3.400 -0.2005  1.5219  0.0313
  524MOL0     H70699   7.074   5.430   3.414  1.6426 -1.1577 -0.3226
  524MOL0     H70700   6.880   5.193   3.583  2.0687  0.5498 -1.1680
  524MOL0     H70701   6.750   4.984   3.625 -3.6511 -2.5604 -1.4215
  524MOL0     H70702   6.416   4.727   3.474 -2.0475  0.1768  0.9352
  524MOL0     H70703   6.282   4.520   3.512 -1.1677 -1.0834  2.5141
  524MOL0     H70704   6.125   4.455   3.764  1.2417  1.0743 -1.3118
  524MOL0     H70705   6.140   4.366   3.608 -1.4787  1.3589  0.4339
  524MOL0     H70706   6.116   4.234   3.882  1.0656  1.1318 -0.1012
  524MOL0     H70707   5.999   4.233   3.741  0.0329 -4.2783 -1.7904
  524MOL0     H70708   6.184   4.143   3.597  0.6005 -1.7197 -0.4078
  524MOL0     H70709   6.287   4.122   3.741 -0.6640 -1.3125  0.9069
  524MOL0     H70710   6.179   3.924   3.684  0.0145  1.9730 -2.8854
  524MOL0     H70711   6.013   3.989   3.699 -1.0030  1.7777  0.2219
  524MOL0     H70712   6.006   4.033   3.919  1.5352  1.4238 -0.3285
  524MOL0     H70713   6.186   3.987   3.950  0.5927 -0.6988  0.3421
  524MOL0     H70714   5.980   3.786   3.866 -0.7014  0.5303  0.9873
  524MOL0     H70715   6.150   3.781   3.887 -2.0165 -1.9733 -2.3162
  524MOL0     H70716   6.115   3.804   4.127 -0.2465 -1.2006 -0.3619
  524MOL0     H70717   6.004   3.679   4.072  1.4407 -0.7815  1.0312
  524MOL0     H70718   5.891   3.826   4.239 -0.4594  5.7831  2.0053
  524MOL0     H70719   5.941   3.963   4.157  0.3012 -0.7812 -1.7414
  524MOL0     H70720   6.512   4.458   3.864  1.3099 -2.0369 -1.0853
  524MOL0     H70721   6.691   4.615   3.790  1.3749 -2.3848 -1.9793
  524MOL0     H70722   6.874   4.837   3.239  3.4107  0.7979 -0.6855
  524MOL0     H70723   7.003   5.047   3.207 -1.8233  1.9090 -0.1446
  524MOL0     H70724   7.906   5.319   1.943  1.3436 -0.0205 -1.3932
  524MOL0     H70725   7.934   5.181   1.744 -0.6170  1.6197  1.1395
  524MOL0     H70726   8.226   4.585   1.641  0.8458  0.0055 -0.9577
  524MOL0     H70727   8.197   4.441   1.436  0.0823  0.1015  1.3250
  524MOL0     H70728   7.836   4.469   1.270  1.4997 -2.2290  2.2439
  524MOL0     H70729   7.905   4.322   1.237 -1.5299  0.6332  2.7916
  524MOL0     H70730   7.829   4.383   1.018  0.0191 -1.0442  0.5475
  524MOL0     H70731   8.006   4.393   1.022 -2.0113 -0.3328 -5.6989
  524MOL0     H70732   7.976   4.659   1.044 -1.5964  0.9588  0.2912
  524MOL0     H70733   7.812   4.623   1.022  0.5746  1.9844 -0.9045
  524MOL0     H70734   7.911   4.677   0.817  2.0475  1.1884  0.1102
  524MOL0     H70735   8.029   4.541   0.839 -0.7142  0.1257  0.1453
  524MOL0     H70736   7.649   4.370   0.692  0.1062  2.0695 -0.7184
  524MOL0     H70737   7.917   4.705   1.279 -0.4786 -0.8583 -0.8284
  524MOL0     H70738   7.867   4.934   1.545 -0.1548  0.0417  0.0359
  524MOL0     H70739   7.977   4.985   1.421 -0.6218  1.2157  0.7279
  524MOL0     H70740   7.832   4.890   1.378 -1.1955  1.7467  1.7347
  525MOL0     O70741   9.388  10.224   0.741  0.0071 -0.0821 -0.4268
  525MOL0     C70742   9.351  10.326   0.801  0.3933  0.8389 -0.7463
  525MOL0     O70743   9.240  10.337   0.878  0.1866  0.3886  0.4507
  525MOL0     C70744   9.167  10.224   0.904  0.4214 -1.1916 -0.0062
  525MOL0     C70745   9.036  10.237   0.849 -0.4933  0.7557 -0.7615
  525MOL0     C70746   8.942  10.135   0.888  0.3438  0.5890 -0.2910
  525MOL0     C70747   8.974  10.026   0.983 -0.7613  0.1693  1.0452
  525MOL0     O70748   8.888   9.926   1.000  0.2891 -0.0386 -0.5090
  525MOL0     C70749   8.923   9.815   0.926  0.0672 -0.3908  0.3237
  525MOL0     C70750   8.854   9.702   1.008 -0.3521 -0.4831 -0.1303
  525MOL0     C70751   8.866   9.574   0.944 -0.2698  0.0311  0.0424
  525MOL0     C70752   8.741   9.549   0.865 -0.3506 -0.0280  0.8852
  525MOL0     C70753   8.759   9.422   0.779 -0.5784  0.6199 -0.1953
  525MOL0     C70754   8.794   9.450   0.628 -0.5594  0.2716 -0.2906
  525MOL0     C70755   8.674   9.446   0.537  0.9478 -0.2075  0.0825
  525MOL0     C70756   8.713   9.444   0.384  0.2264 -0.6945  0.7598
  525MOL0     N70757   8.783   9.566   0.342  0.0720 -0.4693  1.1627
  525MOL0     C70758   8.740   9.691   0.369 -0.6107  0.0913 -0.9049
  525MOL0     C70759   8.827   9.770   0.308  0.5006 -0.3547  0.9386
  525MOL0     C70760   8.827   9.921   0.306 -0.0966 -0.3756 -0.7327
  525MOL0     C70761   8.735   9.980   0.202  0.7486 -0.2405  0.0370
  525MOL0     C70762   8.735   9.904   0.061 -0.6690 -0.6673  0.5478
  525MOL0     C70763   8.863   9.948  -0.007 -0.7420 -0.7186  0.3310
  525MOL0     O70764   8.868   9.894  -0.142 -0.3734 -0.7699 -0.5615
  525MOL0     C70765   8.862   9.990  -0.244  0.3214  1.1069 -0.4725
  525MOL0     C70766   8.752  10.069  -0.238  0.8974  0.5396  0.2121
  525MOL0     C70767   8.706  10.146  -0.351 -0.0896  0.9414  0.5047
  525MOL0     C70768   8.772  10.136  -0.471 -0.5441 -0.6071  0.5693
  525MOL0     C70769   8.709  10.200  -0.589  0.2084  0.4046  0.5287
  525MOL0     O70770   8.602  10.293  -0.584  0.3057 -0.3513 -0.4088
  525MOL0     C70771   8.558  10.327  -0.710 -0.3085 -0.4240  1.2102
  525MOL0     C70772   8.593  10.453  -0.760  0.9427  0.2322 -0.4629
  525MOL0     C70773   8.534  10.496  -0.888 -0.4891  0.5588  0.1617
  525MOL0     C70774   8.446  10.413  -0.954 -0.4794  1.0843 -0.2798
  525MOL0     O70775   8.381  10.462  -1.066 -0.9802 -0.2858  0.4626
  525MOL0     C70776   8.479  10.495  -1.173 -0.4266 -0.3213  0.2805
  525MOL0     C70777   8.427  10.475  -1.319  0.2328 -0.0693  0.9948
  525MOL0     C70778   8.350  10.340  -1.330 -0.0417 -0.2352 -0.2096
  525MOL0     C70779   8.437  10.219  -1.311  0.3324 -0.7684  0.3037
  525MOL0     C70780   8.367  10.083  -1.335  0.0204 -0.2644  0.6693
  525MOL0     C70781   8.447   9.974  -1.269 -0.2777  0.8052  0.9550
  525MOL0     C70782   8.598   9.971  -1.320  0.1967  0.1354 -0.4510
  525MOL0     C70783   8.665   9.841  -1.279 -0.1938  0.5682  0.1763
  525MOL0    Cl70784   8.834   9.819  -1.354 -0.0998 -0.1127  0.2895
  525MOL0     C70785   8.420  10.282  -0.901  0.4040 -0.6872  0.2464
  525MOL0     C70786   8.474  10.239  -0.782 -0.6081 -0.0522 -0.4405
  525MOL0     O70787   8.779  10.183  -0.690  0.0104  0.7904  0.4899
  525MOL0     C70788   8.887  10.057  -0.480 -0.7900 -0.5959  0.4704
  525MOL0     C70789   8.929   9.984  -0.364 -0.3106 -0.4432  0.3105
  525MOL0     N70790   8.935   9.692   0.253 -0.6516  0.0681  0.3602
  525MOL0     N70791   8.898   9.569   0.268 -0.6533 -1.4332  0.0393
  525MOL0     C70792   9.103  10.029   1.041  0.2677  0.4411  0.4292
  525MOL0     C70793   9.200  10.124   1.007  0.1721  0.1591 -0.2343
  525MOL0     C70794   9.448  10.437   0.804  1.0121  0.3913 -0.9715
  525MOL0     C70795   9.470  10.475   0.935  0.1918  0.4970  0.4521
  525MOL0     C70796   9.569  10.569   0.966  0.1083  0.2370  0.8184
  525MOL0     C70797   9.648  10.617   0.855  0.6127 -0.8207 -0.4103
  525MOL0     O70798   9.742  10.716   0.876  0.2364 -0.0876  0.0581
  525MOL0     C70799   9.820  10.707   0.994  0.6062 -0.7379 -0.0389
  525MOL0     C70800   9.942  10.646   0.923 -0.7096  0.1093  0.1737
  525MOL0     C70801  10.057  10.649   1.028 -0.9489  0.7703 -0.2673
  525MOL0     C70802  10.171  10.569   0.964  0.9702 -0.3076  0.1763
  525MOL0     C70803  10.160  10.425   0.969 -0.2526  0.9188  1.0165
  525MOL0     C70804  10.166  10.296   0.976  0.0464 -0.3261  0.1626
  525MOL0     C70805   9.627  10.580   0.722  0.1436 -0.3673  0.5828
  525MOL0     C70806   9.525  10.488   0.696  0.6325  0.1973 -0.4989
  525MOL0     C70807   9.520  10.441   0.557 -0.0923  0.0301  0.1077
  525MOL0     H70808   9.004  10.306   0.771 -1.8025 -0.1874 -1.0868
  525MOL0     H70809   8.845  10.126   0.838  0.5339  1.4320 -0.8246
  525MOL0     H70810   8.860   9.812   0.836  0.4648 -0.7985  0.0526
  525MOL0     H70811   9.029   9.790   0.918  1.0832  2.4927  3.1050
  525MOL0     H70812   8.748   9.731   1.013  0.5726  3.1006  2.7038
  525MOL0     H70813   8.881   9.699   1.113 -0.2289  3.4452  0.1155
  525MOL0     H70814   8.892   9.496   1.016 -2.0539 -2.6913 -2.0166
  525MOL0     H70815   8.949   9.576   0.873  1.0011 -3.0026  1.2689
  525MOL0     H70816   8.649   9.542   0.924  0.3673  2.2893  2.4409
  525MOL0     H70817   8.713   9.633   0.800  0.7015 -2.1184 -2.5017
  525MOL0     H70818   8.844   9.366   0.820 -0.8146  0.6226  0.3141
  525MOL0     H70819   8.680   9.347   0.785  0.7010 -0.8025 -0.6165
  525MOL0     H70820   8.831   9.552   0.614  0.6914 -0.2560 -1.0708
  525MOL0     H70821   8.867   9.379   0.587 -2.9360 -2.2028 -0.4959
  525MOL0     H70822   8.608   9.530   0.558  1.4508 -0.1769  1.6548
  525MOL0     H70823   8.610   9.358   0.554 -1.5616  1.7737  1.5610
  525MOL0     H70824   8.784   9.361   0.373 -0.9505 -1.9098  1.9770
  525MOL0     H70825   8.615   9.435   0.338 -0.1667 -0.5463  1.5520
  525MOL0     H70826   8.655   9.711   0.434  1.7295  1.6227  1.9276
  525MOL0     H70827   8.805   9.957   0.407  1.0928 -1.1160 -0.1924
  525MOL0     H70828   8.928   9.943   0.273 -1.4058  1.0044 -4.2787
  525MOL0     H70829   8.631   9.975   0.234 -0.3314  3.4401 -2.2206
  525MOL0     H70830   8.758  10.084   0.180 -1.2198  0.1188 -0.5115
  525MOL0     H70831   8.645   9.941   0.012 -1.3117  0.8287  2.7061
  525MOL0     H70832   8.719   9.797   0.076  0.4362 -0.9823 -0.3932
  525MOL0     H70833   8.953   9.910   0.043 -0.7424  2.7659  3.4596
  525MOL0     H70834   8.873  10.057  -0.004  1.3805 -0.7516 -2.1449
  525MOL0     H70835   8.683  10.073  -0.155 -0.3874 -1.4757 -0.6737
  525MOL0     H70836   8.614  10.202  -0.333 -0.0305  0.9699  0.7226
  525MOL0     H70837   8.666  10.514  -0.708  1.1817 -2.4605  2.7415
  525MOL0     H70838   8.554  10.597  -0.920 -4.1367  1.6795  0.9581
  525MOL0     H70839   8.507  10.601  -1.173 -0.1773 -0.3699  1.5225
  525MOL0     H70840   8.576  10.447  -1.160  1.4722  3.4126  1.3139
  525MOL0     H70841   8.351  10.551  -1.339 -1.6861 -2.1968 -0.2984
  525MOL0     H70842   8.512  10.494  -1.385  0.8022  0.8476  1.9491
  525MOL0     H70843   8.263  10.348  -1.264  0.7083  2.4989  0.5342
  525MOL0     H70844   8.315  10.343  -1.434 -2.4278  0.5742  0.5571
  525MOL0     H70845   8.470  10.241  -1.209  0.0125  0.9524  0.0560
  525MOL0     H70846   8.533  10.230  -1.363  0.5491  0.1976  0.8776
  525MOL0     H70847   8.357  10.053  -1.439  1.4124 -1.9786  0.9888
  525MOL0     H70848   8.264  10.080  -1.298  0.0592 -1.5227  0.7119
  525MOL0     H70849   8.455   9.992  -1.162  4.5134 -0.9801  1.1485
  525MOL0     H70850   8.395   9.880  -1.290 -1.8016  2.1398 -1.9005
  525MOL0     H70851   8.649  10.054  -1.269 -0.1081 -0.3939  0.7617
  525MOL0     H70852   8.603   9.982  -1.428 -0.6438  1.5548 -0.3729
  525MOL0     H70853   8.674   9.817  -1.172 -0.3415  1.2044  0.3387
  525MOL0     H70854   8.608   9.757  -1.321  1.1090 -0.5032  0.4891
  525MOL0     H70855   8.367  10.209  -0.963 -1.0104  0.6267 -0.1562
  525MOL0     H70856   8.458  10.139  -0.744  0.2754  0.4347  1.3634
  525MOL0     H70857   8.936  10.052  -0.577 -1.3734 -2.6268  0.2236
  525MOL0     H70858   9.018   9.923  -0.367  0.1142  0.1624  0.3391
  525MOL0     H70859   9.136   9.945   1.102 -4.7922 -2.6957 -0.5241
  525MOL0     H70860   9.301  10.124   1.047 -0.3784  2.7634  1.3804
  525MOL0     H70861   9.408  10.430   1.011  0.3658 -0.9435 -0.2174
  525MOL0     H70862   9.584  10.618   1.061  0.9974 -1.1904  1.4467
  525MOL0     H70863   9.797  10.648   1.083  1.6139 -1.8120 -0.4530
  525MOL0     H70864   9.837  10.805   1.039  1.1503 -1.6402  1.8393
  525MOL0     H70865   9.968  10.703   0.834 -0.3525  0.9787  0.8229
  525MOL0     H70866   9.928  10.544   0.886  5.1841 -0.8821 -0.3042
  525MOL0     H70867  10.028  10.618   1.129  1.8762 -0.3107  0.2959
  525MOL0     H70868  10.090  10.753   1.038 -1.2221  0.8203  0.1249
  525MOL0     H70869  10.181  10.619   0.867 -1.0905  2.9560  1.4976
  525MOL0     H70870  10.265  10.591   1.015  0.6836  1.6667 -0.0677
  525MOL0     H70871  10.178  10.190   0.984  1.9494 -0.1852 -0.3557
  525MOL0     H70872   9.700  10.614   0.650 -0.2424 -0.2550  0.2373
  525MOL0     H70873   9.579  10.349   0.547  0.3173 -0.0504  2.6214
  525MOL0     H70874   9.419  10.408   0.531 -0.9291  3.9199 -2.2896
  525MOL0     H70875   9.556  10.518   0.489 -2.4448  0.4666 -0.7331
  526MOL0     O70876   1.994   8.186  10.577  0.7635  0.5782  0.3074
  526MOL0     C70877   1.877   8.197  10.622  0.3653  0.2732  0.2794
  526MOL0     O70878   1.812   8.109  10.706 -0.0061  1.0817  0.0547
  526MOL0     C70879   1.895   8.016  10.777  0.4510 -0.5514 -0.0554
  526MOL0     C70880   2.017   8.041  10.835  0.0139  0.8109  0.4893
  526MOL0     C70881   2.085   7.944  10.902  0.3773  0.6077 -0.9099
  526MOL0     C70882   2.038   7.810  10.911 -0.3642 -0.6329  0.3928
  526MOL0     O70883   2.123   7.713  10.958  0.0892  0.1198 -0.5832
  526MOL0     C70884   2.100   7.575  10.916 -0.2316 -0.5515  0.6984
  526MOL0     C70885   2.009   7.509  11.018 -1.1020  0.1424 -0.1921
  526MOL0     C70886   2.069   7.474  11.150 -0.1621  0.3712 -0.0279
  526MOL0     C70887   2.217   7.434  11.152  0.5036  0.3561 -0.0846
  526MOL0     C70888   2.260   7.390  11.291 -0.2401 -0.5743  0.8651
  526MOL0     C70889   2.401   7.334  11.285  0.4518  0.3365 -0.1794
  526MOL0     C70890   2.451   7.282  11.418  0.0315 -0.2650 -0.1288
  526MOL0     C70891   2.598   7.269  11.435 -0.2474 -0.1144  1.0663
  526MOL0     N70892   2.635   7.248  11.574 -0.0019 -0.2146  0.0744
  526MOL0     C70893   2.594   7.136  11.638 -0.9236  0.3737 -0.7336
  526MOL0     C70894   2.628   7.159  11.766  0.2294  0.7932 -0.0236
  526MOL0     C70895   2.631   7.065  11.892  0.5083 -0.8368  0.5589
  526MOL0     C70896   2.499   6.974  11.895 -0.3694 -0.3194 -0.3211
  526MOL0     C70897   2.369   7.062  11.893 -0.9047  0.8581  0.3856
  526MOL0     C70898   2.295   7.052  11.769  0.1573  1.0182 -0.2100
  526MOL0     O70899   2.275   6.921  11.724 -0.4186  0.5935  0.2370
  526MOL0     C70900   2.221   6.914  11.600 -0.9405 -0.1954 -0.0671
  526MOL0     C70901   2.145   7.010  11.535 -0.2908 -0.1289  0.5328
  526MOL0     C70902   2.097   6.988  11.403  0.7136  0.5723 -0.0929
  526MOL0     C70903   2.130   6.878  11.327  0.0214 -0.4375  0.6720
  526MOL0     C70904   2.076   6.881  11.189 -0.0801 -0.3467 -0.8292
  526MOL0     O70905   1.967   6.959  11.161 -0.3747 -0.1575 -0.1956
  526MOL0     C70906   1.890   6.934  11.047  0.6139  0.2086 -0.5204
  526MOL0     C70907   1.827   7.033  10.977  0.2456  0.7607 -0.5334
  526MOL0     C70908   1.729   7.004  10.885 -0.9855 -0.2222 -0.1087
  526MOL0     C70909   1.687   6.869  10.852  0.7457 -0.8191 -0.4896
  526MOL0     O70910   1.608   6.844  10.745  0.1138 -0.6061 -0.1212
  526MOL0     C70911   1.495   6.758  10.782 -0.3327  0.4264  0.5405
  526MOL0     C70912   1.406   6.723  10.660  0.1842  0.1640 -0.3072
  526MOL0     C70913   1.356   6.853  10.584 -0.6573 -0.2469 -0.4261
  526MOL0     C70914   1.249   6.933  10.670 -0.3782  0.7042 -0.7564
  526MOL0     C70915   1.158   7.017  10.585  0.0467  0.6392  1.0528
  526MOL0     C70916   1.213   7.135  10.508 -0.8561 -0.5322  0.4475
  526MOL0     C70917   1.301   7.222  10.600  0.0951 -0.0302 -0.7766
  526MOL0     C70918   1.302   7.360  10.549 -0.4108 -0.1216 -0.6807
  526MOL0    Cl70919   1.418   7.365  10.409 -0.0597 -0.3670  0.0213
  526MOL0     C70920   1.765   6.768  10.921 -0.2920 -0.3126 -0.6086
  526MOL0     C70921   1.855   6.805  11.019 -0.2352  0.8341  0.9404
  526MOL0     O70922   2.137   6.807  11.111 -0.0319 -0.0961  0.0887
  526MOL0     C70923   2.220   6.783  11.392 -0.9547  0.4677  0.9441
  526MOL0     C70924   2.254   6.802  11.524 -0.4032 -0.0944 -0.0466
  526MOL0     N70925   2.649   7.289  11.778  0.4639  0.3212 -1.5554
  526MOL0     N70926   2.658   7.339  11.663 -0.4792  0.2321 -0.4023
  526MOL0     C70927   1.907   7.792  10.861 -0.0329  0.2874 -0.4385
  526MOL0     C70928   1.830   7.891  10.808 -0.4223 -0.4423 -0.0899
  526MOL0     C70929   1.792   8.311  10.568 -0.8019  0.2253 -0.5795
  526MOL0     C70930   1.654   8.319  10.601  1.0005 -0.9620  0.1521
  526MOL0     C70931   1.566   8.423  10.562  0.5557  0.3526  0.0528
  526MOL0     C70932   1.607   8.515  10.458 -0.5410  0.2870  0.2584
  526MOL0     O70933   1.525   8.616  10.428 -0.1037 -0.9229 -0.3969
  526MOL0     C70934   1.578   8.726  10.354 -0.6279 -0.4363 -0.3175
  526MOL0     C70935   1.453   8.821  10.341  0.3658  0.6875  0.4527
  526MOL0     C70936   1.484   8.933  10.242 -0.7474 -0.7507 -0.4084
  526MOL0     C70937   1.357   9.006  10.236  0.6454  0.0866  1.0255
  526MOL0     C70938   1.367   9.114  10.133 -1.6021 -0.1405 -0.4703
  526MOL0     C70939   1.384   9.187  10.040 -0.9417  0.4090  0.4136
  526MOL0     C70940   1.741   8.500  10.415  0.0104 -0.3848 -0.0480
  526MOL0     C70941   1.838   8.405  10.472 -0.3257  0.0865 -0.0076
  526MOL0     C70942   1.976   8.416  10.409 -0.0323  0.2885 -0.2660
  526MOL0     H70943   2.064   8.138  10.822  0.8016  0.4103  0.3042
  526MOL0     H70944   2.181   7.971  10.944  1.0926 -2.2511 -0.5096
  526MOL0     H70945   2.056   7.574  10.815 -0.1445  1.2383  0.6059
  526MOL0     H70946   2.194   7.521  10.902 -1.1489 -1.7023 -1.5302
  526MOL0     H70947   1.983   7.412  10.973 -0.4031  0.0897 -0.5000
  526MOL0     H70948   1.915   7.564  11.030 -1.9180 -1.5547  1.6745
  526MOL0     H70949   2.020   7.383  11.185  0.2024  1.6860  4.5296
  526MOL0     H70950   2.060   7.561  11.216 -2.7107  0.7383 -0.7784
  526MOL0     H70951   2.228   7.352  11.081  0.8829 -0.3815  0.7986
  526MOL0     H70952   2.272   7.520  11.114  0.4661  1.5861  2.4163
  526MOL0     H70953   2.263   7.483  11.349  2.2299 -0.5430  0.7579
  526MOL0     H70954   2.179   7.335  11.340 -0.8773  0.2059  0.7223
  526MOL0     H70955   2.397   7.253  11.212 -1.3139  0.6130 -0.4389
  526MOL0     H70956   2.467   7.417  11.259 -2.2205  1.8907 -2.6717
  526MOL0     H70957   2.399   7.190  11.444  0.2707 -0.2631  0.3773
  526MOL0     H70958   2.416   7.361  11.485  1.0411 -1.5486  2.0388
  526MOL0     H70959   2.631   7.175  11.389 -1.1078  1.2131 -2.6079
  526MOL0     H70960   2.647   7.358  11.394  2.3123 -2.4404 -1.3432
  526MOL0     H70961   2.582   7.032  11.609 -1.0096 -0.6920  2.7350
  526MOL0     H70962   2.717   7.000  11.907 -0.4779 -2.4609 -0.4504
  526MOL0     H70963   2.632   7.129  11.980 -2.2075  0.1257  0.0056
  526MOL0     H70964   2.519   6.915  11.806  2.3766 -0.6008  0.3781
  526MOL0     H70965   2.503   6.907  11.981  1.4058  1.0546  0.7535
  526MOL0     H70966   2.406   7.165  11.902  0.9587  0.2237  0.5251
  526MOL0     H70967   2.303   7.031  11.974 -2.3560 -0.6530 -1.2803
  526MOL0     H70968   2.348   7.116  11.699  1.1033  1.5740  0.9889
  526MOL0     H70969   2.196   7.094  11.789 -0.9362 -1.0035 -1.0634
  526MOL0     H70970   2.125   7.107  11.581  1.5308  1.0278 -0.9474
  526MOL0     H70971   2.057   7.080  11.362  1.5960  1.2574  0.5376
  526MOL0     H70972   1.846   7.139  10.990  0.1719  0.6498  0.4958
  526MOL0     H70973   1.684   7.088  10.832  0.6587  1.5461  1.1590
  526MOL0     H70974   1.539   6.664  10.817 -3.6279 -1.1988  0.6858
  526MOL0     H70975   1.445   6.800  10.869 -0.9237 -2.6094  1.7935
  526MOL0     H70976   1.461   6.656  10.594 -1.5160 -0.4229 -1.1902
  526MOL0     H70977   1.320   6.667  10.698 -0.6140  1.8726  0.5216
  526MOL0     H70978   1.440   6.921  10.567  1.2247 -1.2478  3.6828
  526MOL0     H70979   1.315   6.829  10.485 -1.3622 -1.2408  0.0933
  526MOL0     H70980   1.281   6.976  10.765 -1.6259 -5.4968  3.0142
  526MOL0     H70981   1.177   6.859  10.703  1.4363 -1.2108 -0.8885
  526MOL0     H70982   1.076   7.056  10.646  0.7932  2.6468  0.8332
  526MOL0     H70983   1.125   6.952  10.503  0.4748  2.4760 -0.6536
  526MOL0     H70984   1.284   7.108  10.429  0.6935 -0.2696  1.7045
  526MOL0     H70985   1.138   7.198  10.459  0.8828  1.6763  0.4162
  526MOL0     H70986   1.395   7.167  10.613 -0.2116 -0.1835  1.0863
  526MOL0     H70987   1.261   7.219  10.701  1.1443 -0.7113 -0.3685
  526MOL0     H70988   1.197   7.380  10.526 -0.7338  0.4206  1.1280
  526MOL0     H70989   1.327   7.430  10.628  1.3030 -0.3355 -0.9907
  526MOL0     H70990   1.746   6.662  10.907 -1.0285 -0.2879  0.0977
  526MOL0     H70991   1.903   6.720  11.066  2.0030  2.1262  1.1195
  526MOL0     H70992   2.258   6.703  11.329  0.2999  2.3005 -0.7642
  526MOL0     H70993   2.332   6.749  11.578 -0.0212  1.3192  0.8372
  526MOL0     H70994   1.858   7.696  10.872  2.3227 -0.9291 -0.1019
  526MOL0     H70995   1.723   7.892  10.788 -0.2878  0.5554 -0.7910
  526MOL0     H70996   1.631   8.265  10.693 -1.7810  2.9347  2.0707
  526MOL0     H70997   1.465   8.442  10.595  0.8250  1.2770  0.3614
  526MOL0     H70998   1.608   8.682  10.258 -0.3303  1.9621 -1.3823
  526MOL0     H70999   1.662   8.775  10.403 -3.0536  3.2671  0.5200
  526MOL0     H71000   1.423   8.855  10.441 -0.7127  3.2963 -0.6724
  526MOL0     H71001   1.370   8.757  10.309 -0.9281  1.1528  2.6416
  526MOL0     H71002   1.508   8.903  10.140 -2.3866 -2.8616 -0.2490
  526MOL0     H71003   1.564   8.996  10.282 -1.3735  0.7290 -1.3975
  526MOL0     H71004   1.268   8.954  10.200  2.5321 -0.5443 -3.4464
  526MOL0     H71005   1.334   9.060  10.328 -0.5452  1.0710  0.1921
  526MOL0     H71006   1.417   9.260   9.968  0.1554 -0.6561 -0.2128
  526MOL0     H71007   1.784   8.573  10.347 -0.8895 -0.6107 -0.8800
  526MOL0     H71008   2.053   8.412  10.487  1.1969  0.7476 -1.4039
  526MOL0     H71009   2.002   8.346  10.329  0.6858 -1.8927  1.7551
  526MOL0     H71010   1.983   8.516  10.366 -1.5951  0.6930  0.3611
  527MOL0     O71011   5.987   8.531   6.063  0.1029 -0.1887  0.0667
  527MOL0     C71012   5.957   8.635   6.117 -1.0493 -0.0530 -0.2024
  527MOL0     O71013   6.033   8.755   6.109  0.0489 -0.2414  0.1116
  527MOL0     C71014   6.166   8.751   6.062  0.0102  0.0178 -0.1302
  527MOL0     C71015   6.190   8.794   5.930 -0.0884 -0.2723  0.0381
  527MOL0     C71016   6.323   8.771   5.876  0.0197 -0.4959  0.0594
  527MOL0     C71017   6.432   8.730   5.956 -0.7297  0.3059 -0.2509
  527MOL0     O71018   6.560   8.699   5.909 -0.2696 -0.0855  0.2283
  527MOL0     C71019   6.585   8.704   5.769  0.4033 -0.8376  0.9031
  527MOL0     C71020   6.709   8.616   5.742 -0.2031  0.0932  0.0898
  527MOL0     C71021   6.768   8.643   5.607 -0.2149 -0.0501 -0.5367
  527MOL0     C71022   6.898   8.563   5.575  1.0832  0.1958 -0.0036
  527MOL0     C71023   7.018   8.643   5.644  0.6264  0.0712 -0.5319
  527MOL0     C71024   7.136   8.559   5.653  0.3260 -0.4487 -0.2221
  527MOL0     C71025   7.182   8.512   5.512  0.6884  0.0660 -0.6350
  527MOL0     C71026   7.218   8.621   5.411 -0.3112 -0.1963  0.1565
  527MOL0     N71027   7.253   8.545   5.282 -0.6490  0.5118 -0.7820
  527MOL0     C71028   7.379   8.547   5.227 -0.3586 -0.7235  0.4564
  527MOL0     C71029   7.365   8.520   5.105  0.0645  0.6660  0.6097
  527MOL0     C71030   7.473   8.505   4.998  0.3877 -0.0078 -0.3282
  527MOL0     C71031   7.599   8.434   5.042 -0.0502  0.0742  0.5369
  527MOL0     C71032   7.711   8.458   4.940  0.7750 -0.0344  0.1221
  527MOL0     C71033   7.814   8.553   5.009  0.7074 -0.2520  0.6543
  527MOL0     O71034   7.754   8.684   5.018 -0.2599 -0.0619 -0.2952
  527MOL0     C71035   7.717   8.723   5.145 -0.4931  0.3286 -0.2409
  527MOL0     C71036   7.788   8.702   5.261 -0.6409  0.2440  0.1244
  527MOL0     C71037   7.762   8.764   5.383  0.1650 -0.3580 -0.5691
  527MOL0     C71038   7.647   8.847   5.381 -1.0478 -0.6796  0.1210
  527MOL0     C71039   7.617   8.926   5.500  0.3686  0.3195  0.3707
  527MOL0     O71040   7.718   8.951   5.581  0.4304 -1.0152  0.8069
  527MOL0     C71041   7.694   9.023   5.697 -1.1892 -1.0938 -0.0905
  527MOL0     C71042   7.591   9.008   5.800 -0.2698  0.1097 -0.4981
  527MOL0     C71043   7.587   9.089   5.915 -0.4770  0.2063 -0.6486
  527MOL0     C71044   7.687   9.184   5.939 -0.7109  0.4632 -0.1460
  527MOL0     O71045   7.692   9.258   6.048 -0.1308  0.0379  0.3086
  527MOL0     C71046   7.662   9.389   6.012  0.3454 -0.0064 -0.1904
  527MOL0     C71047   7.513   9.442   6.024  0.3745 -0.1533 -1.5449
  527MOL0     C71048   7.459   9.435   6.169 -0.2766 -0.1025 -0.9821
  527MOL0     C71049   7.298   9.429   6.171 -0.2419 -0.0556 -0.5780
  527MOL0     C71050   7.249   9.424   6.313  0.6430 -0.5323 -0.3712
  527MOL0     C71051   7.280   9.540   6.398 -0.1938 -0.4724 -0.2431
  527MOL0     C71052   7.245   9.679   6.337 -0.3797 -0.0902 -0.2703
  527MOL0     C71053   7.101   9.692   6.301 -0.4886 -0.1971  0.5335
  527MOL0    Cl71054   7.056   9.859   6.252 -0.0648  0.2926  0.3251
  527MOL0     C71055   7.791   9.194   5.837  0.3613 -0.4809 -0.1098
  527MOL0     C71056   7.793   9.115   5.724  0.6189 -0.4663  0.4892
  527MOL0     O71057   7.496   8.948   5.522  0.5974  0.6129 -0.0318
  527MOL0     C71058   7.588   8.891   5.268 -0.5812 -0.3395  0.8652
  527MOL0     C71059   7.620   8.829   5.142 -0.0402  0.0719 -0.6186
  527MOL0     N71060   7.232   8.485   5.081  0.2575  0.0093 -0.1838
  527MOL0     N71061   7.162   8.516   5.183 -0.5074  0.2620 -0.1339
  527MOL0     C71062   6.409   8.706   6.091  0.3500  0.4154 -0.9088
  527MOL0     C71063   6.272   8.706   6.145 -0.0144 -1.3617  0.1461
  527MOL0     C71064   5.822   8.649   6.181 -0.7085 -0.1388 -0.7586
  527MOL0     C71065   5.776   8.776   6.208 -0.5973  0.1470 -0.2066
  527MOL0     C71066   5.647   8.803   6.253 -0.2768  0.8299  0.2607
  527MOL0     C71067   5.556   8.707   6.282  0.7692  0.8470  0.3249
  527MOL0     O71068   5.428   8.739   6.313  0.1679  0.4793  0.3545
  527MOL0     C71069   5.403   8.761   6.447 -0.7042  0.1475 -0.3094
  527MOL0     C71070   5.256   8.773   6.473  0.8416  0.6579  0.3799
  527MOL0     C71071   5.179   8.639   6.445 -0.5130 -0.6141 -0.5092
  527MOL0     C71072   5.024   8.657   6.467 -0.4062 -0.3061 -0.1676
  527MOL0     C71073   4.967   8.767   6.389  0.1592 -0.3337 -0.5407
  527MOL0     C71074   4.919   8.858   6.327  0.1984 -1.0969  1.1512
  527MOL0     C71075   5.610   8.575   6.282 -0.2179 -0.4022  0.3677
  527MOL0     C71076   5.741   8.545   6.223  0.9968 -0.2696 -0.8840
  527MOL0     C71077   5.784   8.396   6.225  0.4146 -0.5048 -0.2861
  527MOL0     H71078   6.106   8.822   5.868  0.5018  1.7464  0.0641
  527MOL0     H71079   6.322   8.794   5.770 -1.8740  0.8877  0.3135
  527MOL0     H71080   6.500   8.669   5.709 -1.2186  1.8396  1.4925
  527MOL0     H71081   6.595   8.806   5.729  1.5598 -0.6519  1.6107
  527MOL0     H71082   6.694   8.508   5.751  0.1523  0.1140  1.0992
  527MOL0     H71083   6.774   8.651   5.823 -1.2609 -0.4417  1.2030
  527MOL0     H71084   6.796   8.748   5.608  1.8740 -0.4862  2.7829
  527MOL0     H71085   6.678   8.626   5.548 -2.1771 -1.4271  2.5735
  527MOL0     H71086   6.903   8.460   5.611 -2.9905 -0.3637 -0.5831
  527MOL0     H71087   6.905   8.553   5.467  3.4937  0.4292  0.0656
  527MOL0     H71088   7.033   8.731   5.580 -2.1125 -0.6181 -2.3104
  527MOL0     H71089   6.986   8.679   5.742 -1.0752  1.2626 -1.4736
  527MOL0     H71090   7.207   8.629   5.699 -1.0475  2.2858 -1.9733
  527MOL0     H71091   7.115   8.471   5.714 -0.0901  1.3948  2.4733
  527MOL0     H71092   7.111   8.449   5.459 -0.2684 -0.1112  0.7929
  527MOL0     H71093   7.274   8.455   5.532  0.0831 -0.3036  1.3408
  527MOL0     H71094   7.136   8.690   5.386 -1.2166 -1.3232 -0.0933
  527MOL0     H71095   7.305   8.677   5.447 -0.7311 -1.0640  2.6709
  527MOL0     H71096   7.474   8.559   5.279  0.7135 -0.8423 -1.3787
  527MOL0     H71097   7.428   8.444   4.919  1.5156  0.4517 -1.3577
  527MOL0     H71098   7.492   8.605   4.958 -0.7649 -0.0075 -0.9193
  527MOL0     H71099   7.627   8.462   5.144 -0.6451  2.4918  0.1132
  527MOL0     H71100   7.564   8.331   5.040 -0.1647  0.0759  1.6745
  527MOL0     H71101   7.678   8.498   4.844  1.8060 -1.7563 -1.0118
  527MOL0     H71102   7.754   8.361   4.913  3.1963  0.6814  1.1839
  527MOL0     H71103   7.909   8.565   4.956 -0.4459 -1.0402 -1.7384
  527MOL0     H71104   7.836   8.502   5.103  0.5939  0.3544  1.0148
  527MOL0     H71105   7.880   8.645   5.256  2.2413  4.4762 -0.3587
  527MOL0     H71106   7.835   8.752   5.463  1.6203  1.8425 -1.4867
  527MOL0     H71107   7.518   8.932   5.775 -0.6801  0.4293 -0.2891
  527MOL0     H71108   7.528   9.080   6.006  2.5518  0.3373  1.4915
  527MOL0     H71109   7.723   9.448   6.081 -0.1287 -1.2852  1.3673
  527MOL0     H71110   7.702   9.418   5.914  2.0092 -1.9589 -0.1566
  527MOL0     H71111   7.503   9.547   5.996 -1.4021  0.8281  2.1934
  527MOL0     H71112   7.440   9.385   5.965 -0.3145  0.4131 -1.2529
  527MOL0     H71113   7.505   9.351   6.221 -0.0519 -0.4250 -1.6902
  527MOL0     H71114   7.506   9.517   6.225  0.1797  0.2247 -1.8273
  527MOL0     H71115   7.264   9.339   6.119 -1.2352  1.9969 -3.7365
  527MOL0     H71116   7.269   9.516   6.112  2.0143 -0.1280 -1.8882
  527MOL0     H71117   7.305   9.339   6.354  3.6338  1.7913  0.7212
  527MOL0     H71118   7.141   9.411   6.309  0.3684  1.7768 -3.0058
  527MOL0     H71119   7.235   9.525   6.497  0.7579  1.0861  0.4665
  527MOL0     H71120   7.387   9.539   6.422 -0.1659 -0.3086 -0.3591
  527MOL0     H71121   7.308   9.708   6.252  0.7179  0.0578  0.5727
  527MOL0     H71122   7.276   9.747   6.416 -1.8231  0.5714 -0.2630
  527MOL0     H71123   7.093   9.621   6.219  0.1241 -3.6610  3.2133
  527MOL0     H71124   7.030   9.664   6.379 -2.7043 -0.5946 -1.5153
  527MOL0     H71125   7.865   9.271   5.860 -0.2390 -0.5644  2.4096
  527MOL0     H71126   7.872   9.134   5.652 -0.9975  2.1066 -0.7123
  527MOL0     H71127   7.523   8.978   5.255  0.0922  0.4211  2.3317
  527MOL0     H71128   7.558   8.856   5.058  0.4217 -3.9629 -2.5070
  527MOL0     H71129   6.496   8.667   6.142  0.1599 -2.0131 -2.2837
  527MOL0     H71130   6.250   8.688   6.250 -3.7559  2.2882  0.2082
  527MOL0     H71131   5.841   8.861   6.192  2.2910 -2.4044 -4.1150
  527MOL0     H71132   5.638   8.910   6.269  3.6753  1.5696 -1.2473
  527MOL0     H71133   5.453   8.852   6.482 -1.1298  0.0503  0.6021
  527MOL0     H71134   5.439   8.686   6.518 -1.1364  2.8220  3.0453
  527MOL0     H71135   5.209   8.849   6.409 -1.6770 -2.8070 -2.2619
  527MOL0     H71136   5.232   8.800   6.576 -0.0985  0.1998  0.2955
  527MOL0     H71137   5.212   8.562   6.516 -0.4540  0.6618  0.8919
  527MOL0     H71138   5.208   8.601   6.347  1.5504 -1.7156  0.4601
  527MOL0     H71139   4.979   8.564   6.433  1.5984 -1.0800 -0.8663
  527MOL0     H71140   5.007   8.684   6.572 -0.9815  1.1795 -0.6046
  527MOL0     H71141   4.865   8.946   6.300 -2.7437 -2.3345  2.6248
  527MOL0     H71142   5.531   8.503   6.303 -0.7409  0.4427  1.3841
  527MOL0     H71143   5.808   8.353   6.127  3.9433  4.5581 -2.0452
  527MOL0     H71144   5.887   8.403   6.260  0.5470  4.0641 -1.0531
  527MOL0     H71145   5.720   8.331   6.285 -1.3083  0.6893 -0.7503
  528MOL0     O71146  10.485   9.212   3.428  0.2243  0.7644  0.2532
  528MOL0     C71147  10.459   9.326   3.455 -0.3348  0.3253  0.8326
  528MOL0     O71148  10.447   9.370   3.583 -0.6272  0.1363  0.3292
  528MOL0     C71149  10.468   9.295   3.700 -0.4815 -0.9912  0.7718
  528MOL0     C71150  10.456   9.376   3.812 -0.2805  0.1620 -0.8372
  528MOL0     C71151  10.482   9.314   3.934 -0.4674 -0.4217  0.5884
  528MOL0     C71152  10.521   9.185   3.950  0.0275  0.0525  0.3484
  528MOL0     O71153  10.531   9.136   4.074 -0.4281 -0.2668  0.0168
  528MOL0     C71154  10.568   8.997   4.107  1.2977 -0.5990  0.2289
  528MOL0     C71155  10.442   8.915   4.091 -0.1296 -0.5694  0.0883
  528MOL0     C71156  10.347   8.939   4.216 -0.0766  0.5800  0.1603
  528MOL0     C71157  10.237   8.830   4.212 -0.7470  0.3980  0.5447
  528MOL0     C71158  10.169   8.835   4.352  0.3404 -0.8115  0.6414
  528MOL0     C71159  10.260   8.788   4.462 -0.5466 -0.1431 -0.0242
  528MOL0     C71160  10.182   8.729   4.573 -0.2344 -0.1160 -0.0313
  528MOL0     C71161  10.263   8.727   4.702  0.3100 -1.0414  0.0959
  528MOL0     N71162  10.308   8.854   4.766 -0.2409  0.4794  0.5482
  528MOL0     C71163  10.233   8.974   4.788 -0.0282  0.8760  0.3515
  528MOL0     C71164  10.336   9.065   4.804  0.4073  0.7959 -1.2278
  528MOL0     C71165  10.301   9.206   4.816 -0.4315  0.2289  0.2721
  528MOL0     C71166  10.323   9.279   4.679  0.4483 -0.1463 -0.1066
  528MOL0     C71167  10.468   9.263   4.631  0.7531 -0.2372  0.9182
  528MOL0     C71168  10.493   9.381   4.533  0.6259 -1.3445  0.4987
  528MOL0     O71169  10.632   9.400   4.489  0.6301 -0.6353  0.4980
  528MOL0     C71170  10.656   9.474   4.379  0.3367 -0.1044 -1.4514
  528MOL0     C71171  10.688   9.422   4.258 -0.0410  0.5134 -0.1620
  528MOL0     C71172  10.711   9.505   4.145 -0.2658 -0.5682 -0.9395
  528MOL0     C71173  10.695   9.641   4.159 -0.3955  0.4799  0.1579
  528MOL0     C71174  10.694   9.735   4.045 -0.9020  0.7628 -0.0008
  528MOL0     O71175  10.707   9.686   3.918  0.0746  0.8114  0.3122
  528MOL0     C71176  10.700   9.765   3.807  0.3369  0.6603  0.6137
  528MOL0     C71177  10.684   9.684   3.692  0.4038 -0.5040 -0.2758
  528MOL0     C71178  10.664   9.738   3.567  1.3883 -0.3101 -0.3566
  528MOL0     C71179  10.690   9.880   3.552  0.3814  0.3005  0.1132
  528MOL0     O71180  10.702   9.944   3.435  0.3010  0.1197  0.2046
  528MOL0     C71181  10.586   9.928   3.349  0.9020  0.3646 -0.0527
  528MOL0     C71182  10.563  10.052   3.252  0.1500  0.3400 -0.8154
  528MOL0     C71183  10.449  10.031   3.158 -0.2460 -0.1148 -0.0148
  528MOL0     C71184  10.467  10.127   3.045 -0.1235 -0.8608 -0.0850
  528MOL0     C71185  10.331  10.128   2.966 -1.0005 -0.3768  0.3122
  528MOL0     C71186  10.270   9.998   2.906  0.4745 -0.1120 -0.4821
  528MOL0     C71187  10.141  10.044   2.840 -0.8047 -0.8298  0.0816
  528MOL0     C71188  10.076   9.929   2.765 -0.4104 -0.0959 -1.0342
  528MOL0    Cl71189  10.153   9.895   2.618 -0.1796 -0.3973 -0.0682
  528MOL0     C71190  10.711   9.955   3.667 -0.2052 -0.1764  0.1951
  528MOL0     C71191  10.698   9.907   3.791 -1.5009 -0.4420 -0.6134
  528MOL0     O71192  10.673   9.848   4.070 -0.0277 -0.4546  0.0931
  528MOL0     C71193  10.664   9.699   4.284  0.2256  0.2617  0.5764
  528MOL0     C71194  10.644   9.614   4.392  0.3998 -0.4628 -0.1451
  528MOL0     N71195  10.458   8.996   4.812  0.5699 -0.0450 -0.1873
  528MOL0     N71196  10.438   8.869   4.791 -0.4456 -0.2805 -0.0037
  528MOL0     C71197  10.520   9.102   3.828 -0.9294 -0.4979 -0.7314
  528MOL0     C71198  10.491   9.159   3.706  0.2723 -0.6221 -0.0011
  528MOL0     C71199  10.443   9.423   3.346  0.3924  0.3622 -0.4602
  528MOL0     C71200  10.489   9.370   3.224 -0.0868  0.2465  0.2272
  528MOL0     C71201  10.501   9.459   3.117  0.4898  0.4425 -0.1970
  528MOL0     C71202  10.440   9.586   3.112  0.1815  1.1913  0.0902
  528MOL0     O71203  10.440   9.674   3.002  0.8070 -0.4567  0.1914
  528MOL0     C71204  10.490   9.632   2.873  0.0110  0.6370 -0.1199
  528MOL0     C71205  10.385   9.546   2.799 -0.3220 -0.9053 -0.7246
  528MOL0     C71206  10.426   9.546   2.649 -0.2546 -0.7837 -0.2297
  528MOL0     C71207  10.306   9.534   2.556 -0.2196  0.0380  0.2354
  528MOL0     C71208  10.327   9.503   2.407 -0.8206  0.7712 -0.2391
  528MOL0     C71209  10.363   9.466   2.297  0.2029 -0.1156  0.6336
  528MOL0     C71210  10.382   9.630   3.228  0.1344  0.8952 -0.2252
  528MOL0     C71211  10.396   9.561   3.352  0.4974  0.0854  0.1737
  528MOL0     C71212  10.350   9.634   3.470  0.8426  0.3809  0.3181
  528MOL0     H71213  10.439   9.483   3.808  3.4146  0.8771 -1.2331
  528MOL0     H71214  10.475   9.383   4.017 -2.5805 -2.3565  2.1206
  528MOL0     H71215  10.653   8.946   4.059  0.4952 -2.8566  1.0602
  528MOL0     H71216  10.594   9.002   4.213 -2.1217  2.2635  1.1261
  528MOL0     H71217  10.472   8.810   4.086  3.0913  0.2241  0.5818
  528MOL0     H71218  10.392   8.946   3.999  1.0061  1.3604  0.0779
  528MOL0     H71219  10.308   9.041   4.210  2.3171  1.6641  1.5381
  528MOL0     H71220  10.414   8.926   4.302  3.0064 -0.7484 -2.2659
  528MOL0     H71221  10.169   8.845   4.127 -1.1109  0.6037  0.8687
  528MOL0     H71222  10.288   8.734   4.208  0.4329  1.0273  0.1330
  528MOL0     H71223  10.143   8.939   4.377  3.6751  0.2341  0.3494
  528MOL0     H71224  10.088   8.763   4.362  0.7972 -1.5324 -0.6715
  528MOL0     H71225  10.328   8.718   4.412  0.4372  1.5485 -1.1191
  528MOL0     H71226  10.306   8.882   4.491 -0.1688 -0.3243 -0.0332
  528MOL0     H71227  10.164   8.625   4.544 -0.0681 -0.1326 -0.0748
  528MOL0     H71228  10.084   8.773   4.596  0.2514  0.5532  0.8488
  528MOL0     H71229  10.202   8.677   4.778 -0.3614  0.4934  0.6199
  528MOL0     H71230  10.349   8.662   4.684  0.9562 -0.9111  2.3554
  528MOL0     H71231  10.130   9.000   4.768 -0.1143 -1.3006 -2.9539
  528MOL0     H71232  10.194   9.204   4.835 -0.4710  3.3889  0.8621
  528MOL0     H71233  10.354   9.242   4.905  2.2620  1.9066 -1.8421
  528MOL0     H71234  10.258   9.225   4.610  0.5099  1.1888 -1.2655
  528MOL0     H71235  10.287   9.382   4.688 -0.2850  0.3973 -5.7831
  528MOL0     H71236  10.479   9.161   4.592 -0.9493  0.5684 -1.9936
  528MOL0     H71237  10.533   9.267   4.719 -0.0017 -0.5258  1.4989
  528MOL0     H71238  10.453   9.472   4.579 -0.6156 -0.7739 -1.6187
  528MOL0     H71239  10.428   9.370   4.446  0.9145  0.5390 -0.0121
  528MOL0     H71240  10.692   9.313   4.264 -0.6039  0.5106  0.2655
  528MOL0     H71241  10.749   9.450   4.060 -3.8722 -3.8520 -0.7338
  528MOL0     H71242  10.685   9.577   3.711 -0.6828 -0.5644 -0.4888
  528MOL0     H71243  10.645   9.681   3.477 -0.1104  4.1183 -3.2012
  528MOL0     H71244  10.587   9.837   3.290 -0.2182  0.5388 -0.3690
  528MOL0     H71245  10.498   9.931   3.413  1.0885  2.4227  0.1766
  528MOL0     H71246  10.550  10.142   3.313 -0.6766 -2.5461  3.8073
  528MOL0     H71247  10.648  10.067   3.184  1.5551  0.2843  0.8439
  528MOL0     H71248  10.440   9.926   3.128  0.0982  0.0581 -0.7236
  528MOL0     H71249  10.366  10.048   3.227  0.4259 -2.9690  1.6940
  528MOL0     H71250  10.551  10.101   2.979 -1.1957  0.3016 -2.0108
  528MOL0     H71251  10.476  10.227   3.089 -2.0781  0.1194 -1.7324
  528MOL0     H71252  10.342  10.198   2.882 -0.9528 -0.9483 -0.1694
  528MOL0     H71253  10.266  10.192   3.027  1.6717  3.6596 -0.6958
  528MOL0     H71254  10.337   9.949   2.835 -1.2827 -1.9155 -0.9588
  528MOL0     H71255  10.244   9.926   2.984 -0.9927  1.3192  0.4215
  528MOL0     H71256  10.165  10.120   2.765 -2.1152  1.6903  2.0498
  528MOL0     H71257  10.075  10.089   2.915  0.7375 -1.4270  1.8621
  528MOL0     H71258  10.073   9.835   2.821 -1.7469  0.7986  0.4790
  528MOL0     H71259   9.973   9.963   2.754 -0.1783  0.7811 -0.6074
  528MOL0     H71260  10.732  10.061   3.654 -4.1262  0.4222 -3.6742
  528MOL0     H71261  10.719   9.962   3.883  2.4810 -3.0042  0.2501
  528MOL0     H71262  10.639   9.805   4.285 -0.2260  0.1824  3.0798
  528MOL0     H71263  10.610   9.661   4.484 -0.6116  1.6086 -1.5077
  528MOL0     H71264  10.521   8.994   3.822  0.4171 -0.4698 -1.2822
  528MOL0     H71265  10.472   9.097   3.619 -2.5468 -0.4750  0.4343
  528MOL0     H71266  10.540   9.276   3.206 -0.1159  0.0051  1.3378
  528MOL0     H71267  10.547   9.412   3.031  0.5187  0.3910 -0.1539
  528MOL0     H71268  10.588   9.585   2.884 -0.7004 -0.6417  1.1160
  528MOL0     H71269  10.513   9.725   2.820  0.6272  1.1725  1.0298
  528MOL0     H71270  10.300   9.615   2.800  0.9690  0.9097 -3.3582
  528MOL0     H71271  10.368   9.447   2.842 -3.7579 -1.7863 -3.6044
  528MOL0     H71272  10.493   9.465   2.620 -0.7902  0.3374 -5.4844
  528MOL0     H71273  10.475   9.639   2.618  0.4914  0.6063  4.3687
  528MOL0     H71274  10.247   9.444   2.577  0.2617 -0.3693 -0.1091
  528MOL0     H71275  10.248   9.626   2.551 -0.0524  0.1050 -0.6964
  528MOL0     H71276  10.395   9.431   2.201 -0.5990 -0.5767  0.5248
  528MOL0     H71277  10.344   9.732   3.223  0.0957  0.8833 -0.1807
  528MOL0     H71278  10.250   9.594   3.486  0.6750 -1.0470 -3.3677
  528MOL0     H71279  10.408   9.622   3.562 -0.0031  0.6775  0.8968
  528MOL0     H71280  10.347   9.741   3.447  1.0255  0.1755 -0.7040
  529MOL0     O71281   2.409   8.973   2.819  0.0506 -0.0507 -0.8032
  529MOL0     C71282   2.309   9.028   2.771 -1.0095 -0.1536  0.1523
  529MOL0     O71283   2.319   9.102   2.652  0.1113 -0.5467 -0.3716
  529MOL0     C71284   2.437   9.089   2.571  0.5039  0.0249  0.0480
  529MOL0     C71285   2.496   9.200   2.526  0.0718 -0.0224 -0.0492
  529MOL0     C71286   2.621   9.185   2.463  1.0404  0.4156 -1.4431
  529MOL0     C71287   2.690   9.066   2.457 -0.3755  0.2795 -1.8529
  529MOL0     O71288   2.816   9.069   2.400 -0.3517 -0.5404  0.4806
  529MOL0     C71289   2.914   8.984   2.454 -0.0695  0.0444 -0.2289
  529MOL0     C71290   3.046   8.994   2.370  1.3907 -0.2512 -0.4742
  529MOL0     C71291   3.048   8.936   2.235 -0.5335  0.2715  0.4410
  529MOL0     C71292   3.185   8.917   2.184 -0.2108 -0.1423 -0.0152
  529MOL0     C71293   3.202   8.853   2.046 -0.2072 -0.0466 -0.2618
  529MOL0     C71294   3.165   8.698   2.030 -0.4695 -0.3095  0.7826
  529MOL0     C71295   3.174   8.676   1.882  0.7398  0.5341 -0.5965
  529MOL0     C71296   3.171   8.518   1.859  0.1832  0.3352 -0.4573
  529MOL0     N71297   3.290   8.452   1.919  0.0019  0.0437  0.5268
  529MOL0     C71298   3.296   8.318   1.964 -0.2419 -0.3806 -1.5339
  529MOL0     C71299   3.419   8.309   2.019 -0.6867  0.4129  0.8860
  529MOL0     C71300   3.480   8.200   2.107  0.2191  1.0374  0.1568
  529MOL0     C71301   3.507   8.071   2.022 -0.2461 -0.1272 -0.1982
  529MOL0     C71302   3.561   7.941   2.091  0.8739 -0.5916  0.7874
  529MOL0     C71303   3.440   7.883   2.178 -0.8828 -0.2660  0.1576
  529MOL0     O71304   3.487   7.755   2.221  1.2500 -0.1269 -0.3288
  529MOL0     C71305   3.528   7.723   2.351  1.0396 -0.2442  0.4102
  529MOL0     C71306   3.571   7.596   2.368 -1.1564  0.1130  0.2565
  529MOL0     C71307   3.615   7.543   2.489 -0.1581  0.8348  0.3500
  529MOL0     C71308   3.601   7.617   2.611  0.0676  0.8152 -0.2062
  529MOL0     C71309   3.640   7.562   2.742  0.0734 -0.0385  0.1085
  529MOL0     O71310   3.685   7.432   2.734 -0.4135  0.3829  0.1999
  529MOL0     C71311   3.691   7.365   2.849 -0.2464  0.1449  0.1435
  529MOL0     C71312   3.817   7.361   2.915 -0.1100  0.5257 -0.5287
  529MOL0     C71313   3.826   7.272   3.025  0.1695  0.3518  0.4423
  529MOL0     C71314   3.713   7.204   3.078  0.4680 -0.2294 -0.6618
  529MOL0     O71315   3.728   7.132   3.193 -0.0990  0.0103  0.3289
  529MOL0     C71316   3.841   7.037   3.184 -0.2816  0.0514  0.1846
  529MOL0     C71317   3.808   6.905   3.259 -0.5192 -0.2578 -1.2498
  529MOL0     C71318   3.690   6.825   3.194  0.4938  0.6409 -0.0646
  529MOL0     C71319   3.660   6.711   3.283  0.3160 -0.3957  0.9182
  529MOL0     C71320   3.556   6.620   3.211 -0.0855  0.0340 -0.1139
  529MOL0     C71321   3.456   6.556   3.313  1.0785 -0.7081  0.5231
  529MOL0     C71322   3.365   6.462   3.247 -0.0232  0.0283  0.2712
  529MOL0     C71323   3.375   6.325   3.330  0.3883 -0.2571  0.9729
  529MOL0    Cl71324   3.529   6.237   3.295  0.0008  0.0755  0.0810
  529MOL0     C71325   3.588   7.227   3.009  0.5126  1.7750  0.7347
  529MOL0     C71326   3.581   7.303   2.893  0.2838 -0.1047  0.0628
  529MOL0     O71327   3.621   7.637   2.846 -0.0814  0.3514  0.2452
  529MOL0     C71328   3.544   7.740   2.595  0.3874  0.2045  0.2167
  529MOL0     C71329   3.507   7.791   2.467 -0.4467  0.6966  0.6024
  529MOL0     N71330   3.491   8.422   1.973 -0.5287 -0.0971 -0.3537
  529MOL0     N71331   3.410   8.508   1.929  0.5154 -0.6904  0.7039
  529MOL0     C71332   2.621   8.951   2.498  0.3631 -0.8596 -0.4273
  529MOL0     C71333   2.493   8.955   2.558  0.0581 -0.9086 -0.3768
  529MOL0     C71334   2.181   9.021   2.840  0.9534  0.8990  0.1307
  529MOL0     C71335   2.186   8.964   2.971  0.2976  0.2020  0.0215
  529MOL0     C71336   2.076   8.948   3.049  0.9935 -0.7176 -1.4466
  529MOL0     C71337   1.951   8.985   3.002  0.2591 -1.2905 -0.2152
  529MOL0     O71338   1.829   8.955   3.062 -0.0191  0.1940  0.7287
  529MOL0     C71339   1.813   8.841   3.151 -0.4700 -0.0193  0.0761
  529MOL0     C71340   1.665   8.812   3.182  1.0325 -0.8679 -0.7018
  529MOL0     C71341   1.612   8.898   3.307 -0.2095  0.3707  0.1811
  529MOL0     C71342   1.463   8.861   3.349 -0.1560 -0.0332  0.2244
  529MOL0     C71343   1.466   8.777   3.467 -0.7007 -0.3287  1.0749
  529MOL0     C71344   1.475   8.701   3.562 -0.1900  0.0233  0.0760
  529MOL0     C71345   1.945   9.040   2.871  0.1970 -0.5101 -0.2738
  529MOL0     C71346   2.055   9.052   2.792 -0.1130 -1.0053 -1.0272
  529MOL0     C71347   2.036   9.089   2.649  1.2853  0.5761 -0.4116
  529MOL0     H71348   2.439   9.292   2.518 -1.2764 -0.3701  3.6517
  529MOL0     H71349   2.661   9.272   2.413 -1.0142  1.3884 -1.4793
  529MOL0     H71350   2.942   9.018   2.554  2.5062  0.3733 -0.9954
  529MOL0     H71351   2.883   8.880   2.444  0.6007 -0.0721 -1.2886
  529MOL0     H71352   3.118   8.943   2.434  2.7918  0.3836 -1.4830
  529MOL0     H71353   3.074   9.100   2.372  4.6694 -1.0003  1.6240
  529MOL0     H71354   2.997   9.008   2.170 -0.0530  0.3813  0.1826
  529MOL0     H71355   2.983   8.849   2.225 -1.3244  0.8259  0.5786
  529MOL0     H71356   3.230   9.016   2.180  0.7550 -0.5406  0.4683
  529MOL0     H71357   3.234   8.864   2.266 -0.3156  0.1117  0.2124
  529MOL0     H71358   3.143   8.912   1.975 -0.5405  1.6582  1.3407
  529MOL0     H71359   3.301   8.883   2.010 -0.1227  2.5380  1.8569
  529MOL0     H71360   3.241   8.650   2.093  1.7805  2.9986  0.8109
  529MOL0     H71361   3.067   8.665   2.066 -0.8005 -0.8717 -0.5458
  529MOL0     H71362   3.269   8.703   1.835  0.8981 -0.8703 -1.1623
  529MOL0     H71363   3.097   8.735   1.831 -0.0357  0.6487  0.6510
  529MOL0     H71364   3.087   8.459   1.896 -0.7865  0.7022 -2.0134
  529MOL0     H71365   3.176   8.501   1.752 -1.9147 -0.9395 -0.4009
  529MOL0     H71366   3.217   8.245   1.980  0.1446 -0.6682 -0.8724
  529MOL0     H71367   3.582   8.225   2.137  0.9080 -2.2369  0.9196
  529MOL0     H71368   3.417   8.183   2.195 -0.4205  1.3353 -0.2425
  529MOL0     H71369   3.420   8.043   1.962 -1.0567 -0.0047  0.8934
  529MOL0     H71370   3.583   8.110   1.954  2.9880 -0.4699  2.9553
  529MOL0     H71371   3.652   7.958   2.148 -0.0967  2.8095  1.5620
  529MOL0     H71372   3.593   7.863   2.021  2.4206 -2.7830  3.7209
  529MOL0     H71373   3.354   7.868   2.113 -0.7901 -3.6723  0.6735
  529MOL0     H71374   3.419   7.949   2.263  2.4103  0.1688  0.7501
  529MOL0     H71375   3.576   7.532   2.281  2.6492 -0.0369  0.4065
  529MOL0     H71376   3.647   7.440   2.498 -0.8276  0.5146 -0.7310
  529MOL0     H71377   3.909   7.413   2.888  3.3444 -2.9063  3.1343
  529MOL0     H71378   3.918   7.267   3.082 -0.2822 -3.8516  1.1157
  529MOL0     H71379   3.862   7.017   3.079  1.1237 -2.8951  0.9237
  529MOL0     H71380   3.935   7.078   3.222 -0.9281  1.4703  0.3315
  529MOL0     H71381   3.902   6.854   3.278  0.0069  0.1505 -2.6635
  529MOL0     H71382   3.773   6.935   3.358 -1.3910 -0.6746 -1.4256
  529MOL0     H71383   3.603   6.891   3.189  0.4186  0.6774  1.3290
  529MOL0     H71384   3.715   6.794   3.092  2.7310 -0.3442  0.7005
  529MOL0     H71385   3.623   6.745   3.380  0.0876 -0.8130  0.9796
  529MOL0     H71386   3.757   6.659   3.286  0.2205 -0.8536 -1.5783
  529MOL0     H71387   3.618   6.550   3.153  2.0815  1.9733 -0.2815
  529MOL0     H71388   3.509   6.674   3.128 -0.6821 -2.6565 -1.6633
  529MOL0     H71389   3.523   6.514   3.389  1.5617  0.9136  1.0387
  529MOL0     H71390   3.394   6.634   3.357 -1.5071 -0.6061 -2.8989
  529MOL0     H71391   3.390   6.438   3.144  0.8985  3.8843 -0.5656
  529MOL0     H71392   3.262   6.500   3.247  0.5394  1.6505 -0.1131
  529MOL0     H71393   3.354   6.350   3.434 -1.6675 -1.3146  0.8661
  529MOL0     H71394   3.292   6.261   3.298 -1.2794  2.5881 -0.8517
  529MOL0     H71395   3.495   7.178   3.038  1.5018 -1.1480 -0.6313
  529MOL0     H71396   3.481   7.307   2.851 -0.7406 -1.8973  2.0977
  529MOL0     H71397   3.525   7.799   2.684 -0.3580  3.7191 -2.0288
  529MOL0     H71398   3.469   7.893   2.465 -0.4393  0.9895  4.8180
  529MOL0     H71399   2.678   8.860   2.509 -0.5639 -1.5442 -1.1334
  529MOL0     H71400   2.440   8.871   2.601 -0.1175 -0.2945  0.6557
  529MOL0     H71401   2.283   8.940   3.013  0.1547  1.3032  1.0441
  529MOL0     H71402   2.077   8.910   3.150  2.1610 -0.9049 -1.5132
  529MOL0     H71403   1.877   8.854   3.239 -1.5867  0.6896  0.8003
  529MOL0     H71404   1.845   8.749   3.099 -1.8704 -0.7742  0.4896
  529MOL0     H71405   1.636   8.710   3.209 -2.5017  0.6626  2.1442
  529MOL0     H71406   1.613   8.836   3.089 -0.4732 -0.4361  0.2178
  529MOL0     H71407   1.605   9.004   3.281 -2.6439  0.3569  0.5185
  529MOL0     H71408   1.683   8.876   3.387 -0.5994 -3.1011 -0.2667
  529MOL0     H71409   1.413   8.958   3.358 -3.4422 -0.9500 -4.3236
  529MOL0     H71410   1.415   8.815   3.262  1.1447  1.4396 -1.3665
  529MOL0     H71411   1.491   8.636   3.645  1.8109 -1.0260 -1.0592
  529MOL0     H71412   1.844   9.055   2.834 -0.4268 -0.7377  1.2442
  529MOL0     H71413   2.101   9.035   2.580 -0.7816 -1.4863 -0.8965
  529MOL0     H71414   1.934   9.068   2.616  0.0556  0.6271  2.9668
  529MOL0     H71415   2.046   9.198   2.641 -1.6234  0.8085 -2.4196
  530MOL0     O71416   9.076   7.897   5.766  0.6681  0.0772 -0.2134
  530MOL0     C71417   9.134   8.004   5.782  0.8589 -0.1351 -0.4489
  530MOL0     O71418   9.082   8.133   5.753 -0.1759 -0.5014 -0.1282
  530MOL0     C71419   8.948   8.130   5.738  0.0155 -0.0666 -0.2663
  530MOL0     C71420   8.885   8.072   5.627 -0.5036 -0.1723 -0.0222
  530MOL0     C71421   8.746   8.066   5.601 -0.5873  0.2711  0.5403
  530MOL0     C71422   8.661   8.155   5.679  0.5572  0.8548  0.0439
  530MOL0     O71423   8.524   8.167   5.665 -0.1922  0.2989  0.9592
  530MOL0     C71424   8.463   8.097   5.554  0.0147 -1.2848  0.1747
  530MOL0     C71425   8.320   8.148   5.519 -0.9411  0.1943 -0.4359
  530MOL0     C71426   8.229   8.029   5.480 -0.6152 -0.4648  0.1290
  530MOL0     C71427   8.231   7.993   5.333  0.0404  0.4869 -0.1353
  530MOL0     C71428   8.137   7.886   5.297  0.1757 -0.1621 -0.2057
  530MOL0     C71429   8.164   7.831   5.163  0.4928  0.2062  0.4005
  530MOL0     C71430   8.048   7.739   5.125  0.0457  0.3327  0.2843
  530MOL0     C71431   8.084   7.598   5.131 -1.3037 -0.4660  0.4986
  530MOL0     N71432   8.176   7.563   5.023  0.5402  0.4506 -0.3078
  530MOL0     C71433   8.136   7.530   4.895 -0.9915  0.9034  0.0078
  530MOL0     C71434   8.253   7.479   4.838 -0.4605  0.0218 -0.1018
  530MOL0     C71435   8.269   7.445   4.691 -0.0230  0.6011 -0.8646
  530MOL0     C71436   8.237   7.561   4.598 -0.1800 -0.2125 -0.2730
  530MOL0     C71437   8.307   7.692   4.634  0.3896 -0.0152  0.9034
  530MOL0     C71438   8.246   7.803   4.543 -0.7897 -0.1297  0.0632
  530MOL0     O71439   8.266   7.778   4.403 -0.2296  0.6294  0.2415
  530MOL0     C71440   8.253   7.891   4.327  0.6766  0.2840  0.9642
  530MOL0     C71441   8.364   7.969   4.320  0.3685 -0.7621  0.2746
  530MOL0     C71442   8.358   8.092   4.248 -0.5370  0.9533 -0.1594
  530MOL0     C71443   8.242   8.131   4.180  0.0088 -0.3014 -0.7507
  530MOL0     C71444   8.236   8.248   4.084  0.3224  0.8315  0.2890
  530MOL0     O71445   8.353   8.312   4.045 -0.9594 -0.3366 -0.1271
  530MOL0     C71446   8.352   8.415   3.955  0.2167 -0.4215  0.0259
  530MOL0     C71447   8.412   8.541   3.987  0.0226  0.4536  0.3581
  530MOL0     C71448   8.391   8.651   3.911  0.1570  0.6418  0.0038
  530MOL0     C71449   8.344   8.633   3.776  0.5596 -0.0860 -0.0093
  530MOL0     O71450   8.334   8.732   3.686 -0.8885 -0.3027  0.2628
  530MOL0     C71451   8.400   8.857   3.708 -0.1985  0.0214 -0.8103
  530MOL0     C71452   8.376   8.960   3.585  0.3063  0.0086 -0.3120
  530MOL0     C71453   8.464   9.086   3.595  0.1321  0.3531  0.7954
  530MOL0     C71454   8.600   9.071   3.517  0.3638  0.5145  0.0182
  530MOL0     C71455   8.682   9.200   3.514 -0.7628  0.1830 -0.3061
  530MOL0     C71456   8.796   9.190   3.398 -0.0648 -0.5850 -1.2078
  530MOL0     C71457   8.870   9.324   3.382  0.0326 -0.4930 -0.1669
  530MOL0     C71458   8.957   9.344   3.508 -0.6828 -0.3729 -0.2824
  530MOL0    Cl71459   9.040   9.502   3.529  0.7423  0.3391 -0.2819
  530MOL0     C71460   8.279   8.512   3.736 -0.4657 -0.5760  0.3374
  530MOL0     C71461   8.285   8.407   3.825 -0.2010  0.0462 -0.7485
  530MOL0     O71462   8.122   8.273   4.047 -0.4869  0.1391  0.4934
  530MOL0     C71463   8.119   8.053   4.199 -0.0766  0.2612  1.0836
  530MOL0     C71464   8.131   7.933   4.272  0.7174 -0.5583 -0.5590
  530MOL0     N71465   8.350   7.476   4.931 -0.9289 -0.5800 -0.6548
  530MOL0     N71466   8.310   7.529   5.038  0.2763 -1.1611  0.5805
  530MOL0     C71467   8.720   8.224   5.784  0.2481  0.2823  0.3142
  530MOL0     C71468   8.860   8.205   5.821 -0.5921 -0.5780 -0.8539
  530MOL0     C71469   9.269   8.002   5.833  0.2123 -0.1912  0.6353
  530MOL0     C71470   9.349   8.121   5.816  0.1428  0.1875  0.5090
  530MOL0     C71471   9.481   8.134   5.874 -0.8610  0.3818  0.8071
  530MOL0     C71472   9.534   8.040   5.961  1.1408 -1.0702  0.1396
  530MOL0     O71473   9.656   8.047   6.014  0.2434 -0.3432 -0.4550
  530MOL0     C71474   9.654   8.052   6.164 -0.9899 -0.5339  0.1617
  530MOL0     C71475   9.803   8.017   6.205  0.7001  0.3609 -0.2073
  530MOL0     C71476   9.826   8.043   6.360  0.0228 -0.3994  0.0724
  530MOL0     C71477   9.737   7.950   6.451 -0.3440 -1.1457 -0.0551
  530MOL0     C71478   9.714   8.011   6.585 -0.5360 -0.5450 -0.2656
  530MOL0     C71479   9.675   8.068   6.684  0.3867  0.7322 -0.6901
  530MOL0     C71480   9.445   7.930   5.976 -0.4932 -0.3645 -0.2731
  530MOL0     C71481   9.330   7.907   5.915  0.2353  0.4934  0.5449
  530MOL0     C71482   9.270   7.770   5.942  0.1451 -0.2067  0.3285
  530MOL0     H71483   8.939   8.004   5.562 -3.9098 -1.6425 -1.5706
  530MOL0     H71484   8.708   8.010   5.517  1.3279  0.4169 -0.4850
  530MOL0     H71485   8.533   8.107   5.470 -0.1678 -1.6907 -0.0289
  530MOL0     H71486   8.466   7.991   5.581  4.3037 -1.2749  0.4035
  530MOL0     H71487   8.314   8.228   5.445  0.0577  2.0828  1.4230
  530MOL0     H71488   8.280   8.181   5.615  0.8709  0.4415  0.2663
  530MOL0     H71489   8.128   8.067   5.496 -0.8443 -0.5203 -1.0774
  530MOL0     H71490   8.257   7.938   5.534 -0.6971 -1.5571 -1.5672
  530MOL0     H71491   8.199   8.078   5.272 -0.0227 -1.0811 -2.3875
  530MOL0     H71492   8.326   7.954   5.297 -1.4666 -3.3776 -0.3300
  530MOL0     H71493   8.143   7.803   5.368  0.0758 -0.9286 -1.0726
  530MOL0     H71494   8.044   7.944   5.294 -0.0452 -0.5347 -0.9951
  530MOL0     H71495   8.167   7.912   5.089 -0.6015 -1.5167 -1.6514
  530MOL0     H71496   8.262   7.787   5.141 -0.7185 -1.1497 -3.1922
  530MOL0     H71497   8.016   7.770   5.025  1.0208 -0.9915 -0.4773
  530MOL0     H71498   7.958   7.752   5.186  0.1252  2.8779 -0.0607
  530MOL0     H71499   8.135   7.583   5.226 -3.4556 -1.0205  1.6437
  530MOL0     H71500   7.993   7.537   5.126 -2.0749  0.7183 -0.5410
  530MOL0     H71501   8.034   7.539   4.861 -0.9497 -0.2752 -0.4938
  530MOL0     H71502   8.373   7.420   4.669  0.4975 -1.1937  2.7826
  530MOL0     H71503   8.201   7.363   4.665 -0.4770  0.0793  1.6797
  530MOL0     H71504   8.264   7.521   4.500  3.7495 -1.2365  1.0596
  530MOL0     H71505   8.130   7.586   4.593  0.1803  1.1338 -2.1519
  530MOL0     H71506   8.414   7.667   4.632  1.7634  4.6959  2.3570
  530MOL0     H71507   8.273   7.725   4.732 -2.1549  1.7875 -0.4664
  530MOL0     H71508   8.301   7.889   4.585  1.2351 -1.9856  1.4421
  530MOL0     H71509   8.142   7.835   4.556  0.0694  2.1066  2.5917
  530MOL0     H71510   8.462   7.935   4.352  0.5442 -0.7691 -0.2699
  530MOL0     H71511   8.444   8.159   4.242 -1.5039  2.1673 -0.9603
  530MOL0     H71512   8.466   8.549   4.080  2.1839 -1.8141 -0.5830
  530MOL0     H71513   8.428   8.742   3.958  3.1422  0.4663 -1.7377
  530MOL0     H71514   8.371   8.914   3.797  2.9153  0.4655  0.0446
  530MOL0     H71515   8.507   8.844   3.730  0.2320  1.9283 -1.6102
  530MOL0     H71516   8.403   8.913   3.489  0.2030 -0.9230  0.1054
  530MOL0     H71517   8.269   8.970   3.601  0.2233 -1.4013  0.1736
  530MOL0     H71518   8.398   9.156   3.545  0.4552 -0.0308 -0.2014
  530MOL0     H71519   8.488   9.106   3.699 -0.8057  2.5181  0.6471
  530MOL0     H71520   8.590   9.035   3.414  1.5067 -1.2714  0.4869
  530MOL0     H71521   8.658   8.994   3.569 -1.3873 -0.1282  1.1010
  530MOL0     H71522   8.728   9.224   3.610 -0.4338  2.6364 -0.9991
  530MOL0     H71523   8.621   9.288   3.488  2.9293  2.3600 -2.5429
  530MOL0     H71524   8.868   9.111   3.426  0.3156  0.6144  1.5045
  530MOL0     H71525   8.735   9.167   3.310  0.2675 -0.8482 -1.3736
  530MOL0     H71526   8.802   9.410   3.381  1.9925  1.1598  1.3856
  530MOL0     H71527   8.936   9.322   3.295  1.7928  0.1967  1.1026
  530MOL0     H71528   8.910   9.320   3.604  1.2606 -3.1143  0.1186
  530MOL0     H71529   9.036   9.268   3.506 -4.1571 -4.3349 -0.7916
  530MOL0     H71530   8.238   8.499   3.637  0.4680 -1.8781  0.0877
  530MOL0     H71531   8.252   8.312   3.785  2.8769 -1.5537  0.1888
  530MOL0     H71532   8.023   8.087   4.163  0.0532  1.1271  1.5321
  530MOL0     H71533   8.050   7.863   4.286 -0.2293  0.3770 -1.1895
  530MOL0     H71534   8.655   8.265   5.861  0.5876  0.3301  0.5785
  530MOL0     H71535   8.898   8.246   5.914 -1.0367  3.0953 -2.1174
  530MOL0     H71536   9.323   8.191   5.737  1.1120 -0.0112 -0.0073
  530MOL0     H71537   9.526   8.231   5.853  0.2622 -0.3432 -0.2019
  530MOL0     H71538   9.583   7.980   6.207  0.2495 -1.9901 -0.1284
  530MOL0     H71539   9.615   8.146   6.204  2.0312  0.2893  1.4371
  530MOL0     H71540   9.880   8.065   6.143  0.7859  2.1129  1.1577
  530MOL0     H71541   9.799   7.908   6.196 -0.7294  0.4136 -0.3884
  530MOL0     H71542   9.801   8.150   6.368  1.6409  0.4807 -4.0436
  530MOL0     H71543   9.931   8.027   6.386 -0.0360  1.1090  1.4850
  530MOL0     H71544   9.639   7.935   6.405 -2.4509  0.9482  3.2571
  530MOL0     H71545   9.795   7.857   6.452  2.1214  0.3053 -0.7946
  530MOL0     H71546   9.640   8.112   6.775 -2.5055 -2.0764 -0.2103
  530MOL0     H71547   9.474   7.855   6.049 -2.6285 -0.9730  0.0058
  530MOL0     H71548   9.325   7.722   6.023  0.9304  0.2695  0.0878
  530MOL0     H71549   9.163   7.778   5.960  0.1904  0.2754  0.3919
  530MOL0     H71550   9.297   7.712   5.853 -0.6519 -0.3787  0.1960
  531MOL0     O71551   7.492   8.501   6.573  0.1355 -0.0285 -0.1465
  531MOL0     C71552   7.534   8.407   6.505 -0.8164 -0.4574  0.2242
  531MOL0     O71553   7.489   8.273   6.489  0.5504  0.7393 -0.9550
  531MOL0     C71554   7.371   8.245   6.556  0.0197 -0.1815  0.6979
  531MOL0     C71555   7.285   8.170   6.474 -0.4057 -1.4136 -0.3328
  531MOL0     C71556   7.161   8.135   6.524 -0.5536 -0.6017  0.5954
  531MOL0     C71557   7.123   8.175   6.654  0.2290  0.5201  0.0316
  531MOL0     O71558   7.003   8.148   6.695  0.0377 -0.6105 -0.2628
  531MOL0     C71559   7.003   8.020   6.757  0.7992  0.2688 -1.0691
  531MOL0     C71560   6.862   7.954   6.761 -0.4588 -1.3944 -0.1137
  531MOL0     C71561   6.853   7.817   6.827  0.3581  1.2936  1.2491
  531MOL0     C71562   6.713   7.774   6.832  0.5931  0.9093 -0.3657
  531MOL0     C71563   6.698   7.631   6.866 -1.4411  0.2446 -0.4307
  531MOL0     C71564   6.561   7.586   6.838 -0.4785 -0.2750  0.6806
  531MOL0     C71565   6.519   7.454   6.896 -0.7285  0.2462 -0.5978
  531MOL0     C71566   6.546   7.336   6.805  0.3627  0.0814  0.8588
  531MOL0     N71567   6.674   7.267   6.828 -0.7886 -0.7917  0.3209
  531MOL0     C71568   6.723   7.237   6.956  0.3177  0.4779 -0.6470
  531MOL0     C71569   6.856   7.244   6.944  0.1961  0.0902 -0.2285
  531MOL0     C71570   6.960   7.213   7.056  0.9395 -0.6245 -0.3301
  531MOL0     C71571   7.032   7.081   7.031  0.4971 -0.3152  0.1943
  531MOL0     C71572   6.951   6.954   7.068 -0.5874 -0.5061  0.6708
  531MOL0     C71573   6.909   6.883   6.944 -0.4144 -0.0198 -0.1110
  531MOL0     O71574   7.022   6.838   6.867  0.6180  0.1281  0.8888
  531MOL0     C71575   6.997   6.751   6.756  0.4832  0.7235 -0.4906
  531MOL0     C71576   7.102   6.710   6.674  0.1080  0.3211 -0.3419
  531MOL0     C71577   7.081   6.625   6.561 -0.5217 -1.1098  0.2244
  531MOL0     C71578   6.953   6.581   6.525  0.1048  0.1280  0.1276
  531MOL0     C71579   6.934   6.519   6.394  0.0001 -0.2896  0.4350
  531MOL0     O71580   7.042   6.445   6.355 -0.0924  1.2619 -0.5670
  531MOL0     C71581   7.046   6.373   6.232  0.1305  0.0979 -0.4787
  531MOL0     C71582   7.148   6.280   6.213 -0.0195  0.9545 -0.1628
  531MOL0     C71583   7.188   6.221   6.092 -1.0737 -0.3545 -0.1340
  531MOL0     C71584   7.112   6.256   5.984 -0.4451 -0.1595 -0.5449
  531MOL0     O71585   7.139   6.186   5.873  0.2804  0.2640  0.4253
  531MOL0     C71586   7.096   6.230   5.747 -0.3091  1.0343  0.3174
  531MOL0     C71587   6.964   6.161   5.708  0.2677  0.7043  0.2408
  531MOL0     C71588   6.922   6.136   5.565 -0.2807  0.1631  0.2709
  531MOL0     C71589   6.923   6.252   5.465 -0.7133  0.6300  0.2637
  531MOL0     C71590   6.858   6.214   5.334  0.2247  0.5485  1.2185
  531MOL0     C71591   6.711   6.162   5.343 -0.8493 -0.5244  0.0520
  531MOL0     C71592   6.628   6.166   5.218  0.1368 -0.1918  0.2662
  531MOL0     C71593   6.667   6.073   5.099 -1.5716  0.1466 -1.1433
  531MOL0    Cl71594   6.537   6.028   5.001  0.0702 -0.0528 -0.2574
  531MOL0     C71595   7.019   6.359   5.988  0.3669  0.0172  0.8035
  531MOL0     C71596   6.977   6.409   6.119 -0.9675 -0.1170  0.3111
  531MOL0     O71597   6.822   6.523   6.339 -0.8266  0.3762  0.5693
  531MOL0     C71598   6.845   6.621   6.609  0.1942  0.7760  0.2180
  531MOL0     C71599   6.870   6.696   6.723  0.3251 -0.6402 -0.6587
  531MOL0     N71600   6.889   7.263   6.814 -0.2739 -0.1411  0.5779
  531MOL0     N71601   6.785   7.276   6.745  1.5039  0.3389  0.3657
  531MOL0     C71602   7.213   8.235   6.741  1.3380 -0.0318  0.5268
  531MOL0     C71603   7.335   8.279   6.686  0.3866  0.5003 -0.1277
  531MOL0     C71604   7.671   8.434   6.440 -0.9539 -0.7162  0.1442
  531MOL0     C71605   7.784   8.447   6.530  0.7223 -0.2324 -1.3078
  531MOL0     C71606   7.914   8.455   6.478 -0.3083 -0.0020  0.5051
  531MOL0     C71607   7.937   8.444   6.340 -0.6375  0.1415 -0.6111
  531MOL0     O71608   8.078   8.449   6.318 -0.3549 -0.1977 -0.6077
  531MOL0     C71609   8.123   8.427   6.179  0.0724 -0.4284 -1.0311
  531MOL0     C71610   8.188   8.553   6.125  0.2299  0.7673  0.3873
  531MOL0     C71611   8.332   8.586   6.189 -0.0467  0.9402 -0.7802
  531MOL0     C71612   8.402   8.704   6.120  0.2024 -0.3057  0.5787
  531MOL0     C71613   8.451   8.665   5.984 -0.2313  0.4866 -0.9451
  531MOL0     C71614   8.480   8.610   5.876  0.6838  0.4683  0.1061
  531MOL0     C71615   7.830   8.406   6.255 -0.0949 -0.4574 -0.0973
  531MOL0     C71616   7.697   8.404   6.307 -0.2095 -0.1732  0.2631
  531MOL0     C71617   7.569   8.387   6.221  0.2998 -0.9219  0.7068
  531MOL0     H71618   7.315   8.143   6.373  0.4242  0.1691 -0.5465
  531MOL0     H71619   7.094   8.090   6.451  2.0636 -3.1364 -0.4297
  531MOL0     H71620   7.063   7.943   6.709  1.0975 -0.3038  0.1692
  531MOL0     H71621   7.044   8.032   6.858 -0.7317  0.0677 -0.4015
  531MOL0     H71622   6.843   7.951   6.654  4.0530 -0.5085 -1.1750
  531MOL0     H71623   6.788   8.021   6.806  0.7661  1.4133 -1.9912
  531MOL0     H71624   6.895   7.821   6.928 -0.3005 -1.0445  1.6705
  531MOL0     H71625   6.914   7.741   6.779  2.2728  2.0755  2.3123
  531MOL0     H71626   6.663   7.834   6.908  0.6896 -1.3045  1.5644
  531MOL0     H71627   6.672   7.792   6.733  0.0461  1.3302 -0.0690
  531MOL0     H71628   6.768   7.572   6.805 -0.7580  1.0979 -0.5029
  531MOL0     H71629   6.723   7.614   6.971  3.1840 -1.6188 -1.5643
  531MOL0     H71630   6.489   7.656   6.884 -1.0684 -0.8766  0.6932
  531MOL0     H71631   6.542   7.579   6.731 -0.5139 -0.6047  0.7084
  531MOL0     H71632   6.410   7.453   6.902 -0.6806  1.2030  0.7975
  531MOL0     H71633   6.550   7.444   7.000 -1.8746  2.6059  0.0320
  531MOL0     H71634   6.461   7.268   6.821  1.7518 -1.5567  1.5465
  531MOL0     H71635   6.540   7.358   6.698  2.5447  0.4995  0.7813
  531MOL0     H71636   6.663   7.196   7.037 -2.0159 -1.2210 -3.0341
  531MOL0     H71637   7.032   7.295   7.053  0.3460 -0.0994 -0.4895
  531MOL0     H71638   6.917   7.223   7.156  2.3879 -0.8962  0.3494
  531MOL0     H71639   7.052   7.078   6.924 -1.0323 -0.4594 -0.1112
  531MOL0     H71640   7.125   7.098   7.087  1.8825 -0.2711 -2.0019
  531MOL0     H71641   6.861   6.992   7.116 -1.4813 -1.6105 -0.0665
  531MOL0     H71642   7.017   6.898   7.135 -0.1269 -0.7560  0.0180
  531MOL0     H71643   6.866   6.962   6.882 -0.6390  0.5147  0.7215
  531MOL0     H71644   6.841   6.801   6.969  1.3505 -0.6797  2.9508
  531MOL0     H71645   7.201   6.749   6.697  1.7475 -3.6269  0.2422
  531MOL0     H71646   7.170   6.613   6.500  0.2224  2.2356  0.4555
  531MOL0     H71647   7.210   6.263   6.301  1.4980 -1.0585 -1.5101
  531MOL0     H71648   7.264   6.144   6.082  0.8492  1.4976 -0.4048
  531MOL0     H71649   7.084   6.339   5.753  0.9576  1.1360  1.4065
  531MOL0     H71650   7.167   6.209   5.666 -0.8089 -2.5151  0.6416
  531MOL0     H71651   6.976   6.062   5.754 -1.5982  1.0717  1.6584
  531MOL0     H71652   6.879   6.213   5.754 -0.9791  1.4035 -2.6685
  531MOL0     H71653   6.980   6.049   5.531  0.5551  1.5547 -2.1729
  531MOL0     H71654   6.821   6.096   5.570  0.1700 -1.0088  0.1743
  531MOL0     H71655   7.025   6.285   5.442 -0.0199 -1.6366 -0.1249
  531MOL0     H71656   6.871   6.338   5.508 -1.2657  1.0525 -1.2196
  531MOL0     H71657   6.927   6.149   5.279 -0.1932  1.4711 -0.4658
  531MOL0     H71658   6.841   6.303   5.272 -0.5200  0.2963  1.0535
  531MOL0     H71659   6.717   6.058   5.377  0.3875  0.0593  1.7883
  531MOL0     H71660   6.667   6.222   5.424 -0.6846 -0.6460  0.2341
  531MOL0     H71661   6.624   6.271   5.186  4.5076 -0.6388 -2.6457
  531MOL0     H71662   6.527   6.135   5.245 -0.7805  2.0068 -0.3987
  531MOL0     H71663   6.741   6.116   5.031 -1.2208 -1.1136 -1.5793
  531MOL0     H71664   6.706   5.983   5.146 -0.5944 -0.0007 -2.1843
  531MOL0     H71665   6.972   6.409   5.904  0.2755 -1.3230  0.0337
  531MOL0     H71666   6.899   6.485   6.114 -1.9155 -1.1251 -1.8074
  531MOL0     H71667   6.745   6.585   6.584 -0.4324  2.2868  0.4369
  531MOL0     H71668   6.779   6.709   6.781  0.0445 -2.6264 -0.5799
  531MOL0     H71669   7.199   8.258   6.846 -1.9608  1.4384 -0.1089
  531MOL0     H71670   7.403   8.334   6.751  1.0366 -2.0852  1.5244
  531MOL0     H71671   7.776   8.453   6.638  1.8952 -1.0784 -1.1530
  531MOL0     H71672   8.003   8.465   6.539  1.3904 -2.3281 -1.3957
  531MOL0     H71673   8.041   8.409   6.109 -2.4003 -0.5344  1.6685
  531MOL0     H71674   8.193   8.343   6.182 -0.6189 -1.0202 -1.1466
  531MOL0     H71675   8.123   8.641   6.134 -0.8195  0.0814 -0.3546
  531MOL0     H71676   8.205   8.525   6.021  1.9693  3.2551 -0.0971
  531MOL0     H71677   8.386   8.492   6.176 -0.5703  0.2342  1.8127
  531MOL0     H71678   8.336   8.609   6.296 -0.6689  0.4773 -0.6567
  531MOL0     H71679   8.333   8.788   6.124  1.5920  0.9819 -1.0996
  531MOL0     H71680   8.486   8.738   6.181 -1.8365  3.4428  1.6158
  531MOL0     H71681   8.491   8.577   5.775 -1.8302  2.8224 -1.1074
  531MOL0     H71682   7.849   8.383   6.151 -1.6101  0.4912 -0.6292
  531MOL0     H71683   7.502   8.473   6.228 -2.0563 -2.4168 -1.7543
  531MOL0     H71684   7.585   8.381   6.113 -1.4247 -1.7933  0.4672
  531MOL0     H71685   7.510   8.300   6.251 -0.0943 -0.3155  1.7764
  532MOL0     O71686   1.845   8.370  11.314  0.5457 -0.2857  0.5231
  532MOL0     C71687   1.937   8.434  11.354 -0.0731 -0.0473  0.4685
  532MOL0     O71688   1.957   8.471  11.483  0.1589 -0.6479  0.0755
  532MOL0     C71689   1.884   8.431  11.593  0.1663 -0.5520 -0.1490
  532MOL0     C71690   1.829   8.302  11.607  0.2623  0.4101 -0.2858
  532MOL0     C71691   1.761   8.262  11.729 -0.5171 -0.0763  0.9174
  532MOL0     C71692   1.781   8.334  11.846  0.0043  0.6427 -0.2585
  532MOL0     O71693   1.726   8.308  11.969  0.2665  1.2036  0.6776
  532MOL0     C71694   1.679   8.177  12.006 -0.1515 -0.2854 -0.4196
  532MOL0     C71695   1.551   8.204  12.087 -0.3998 -0.1922  1.5970
  532MOL0     C71696   1.444   8.240  11.989 -0.8829 -0.2335  0.6471
  532MOL0     C71697   1.298   8.256  12.063  0.0702 -0.5490  0.3341
  532MOL0     C71698   1.198   8.259  11.953  0.8979  0.4166 -1.0271
  532MOL0     C71699   1.197   8.396  11.886 -0.1474 -0.4463 -0.7098
  532MOL0     C71700   1.082   8.392  11.785  0.5033 -0.1357  0.2613
  532MOL0     C71701   1.064   8.523  11.696 -0.6647  0.4276 -0.7997
  532MOL0     N71702   1.197   8.544  11.630  0.4455  0.2532  0.8517
  532MOL0     C71703   1.256   8.461  11.536  0.4856  0.3636  0.0657
  532MOL0     C71704   1.371   8.526  11.507  0.0350 -0.9384 -0.7038
  532MOL0     C71705   1.461   8.473  11.402  0.4298  0.5766  0.2728
  532MOL0     C71706   1.397   8.498  11.255 -0.0435 -0.8178  0.9939
  532MOL0     C71707   1.343   8.640  11.225  0.3852  0.2744  0.2902
  532MOL0     C71708   1.438   8.755  11.245  0.4402 -0.4825  0.7922
  532MOL0     O71709   1.572   8.735  11.181  0.2775 -0.1510  0.2884
  532MOL0     C71710   1.690   8.760  11.255  0.2809 -0.1676 -1.2162
  532MOL0     C71711   1.699   8.781  11.393  0.0621 -0.3989 -0.5654
  532MOL0     C71712   1.819   8.795  11.458 -0.4318 -0.0548 -0.6670
  532MOL0     C71713   1.942   8.800  11.383 -0.3256  0.6502  0.3828
  532MOL0     C71714   2.075   8.827  11.447  0.4871  0.4624  0.3339
  532MOL0     O71715   2.168   8.898  11.376  0.4025 -0.0672  0.1393
  532MOL0     C71716   2.287   8.901  11.428 -0.2111 -0.7838  0.9125
  532MOL0     C71717   2.321   8.930  11.549 -0.2381 -0.6262  0.4407
  532MOL0     C71718   2.449   8.969  11.581  0.1865  0.2593  0.2405
  532MOL0     C71719   2.556   8.953  11.483  0.0841  1.2308  0.6072
  532MOL0     O71720   2.687   8.953  11.522 -0.1312 -0.0781  0.1421
  532MOL0     C71721   2.752   9.084  11.539 -0.1110 -0.0891  0.6113
  532MOL0     C71722   2.789   9.104  11.681  0.6005  0.0108 -0.1795
  532MOL0     C71723   2.935   9.156  11.699 -0.4513 -0.6900 -0.0200
  532MOL0     C71724   2.952   9.300  11.639 -0.4610  0.2959  0.3913
  532MOL0     C71725   3.067   9.296  11.536  0.5862  0.2052 -0.0039
  532MOL0     C71726   3.079   9.439  11.465  0.0641 -0.9953 -0.2644
  532MOL0     C71727   3.197   9.438  11.354 -0.0541 -0.1525  0.2950
  532MOL0     C71728   3.209   9.575  11.282 -0.2699  0.1448  0.1732
  532MOL0    Cl71729   3.283   9.695  11.401  0.2475 -0.1447 -0.3043
  532MOL0     C71730   2.522   8.901  11.358 -0.7711  0.7571 -0.7838
  532MOL0     C71731   2.383   8.886  11.328 -0.4886 -0.9419 -0.4553
  532MOL0     O71732   2.092   8.782  11.560 -0.6235  0.1983  0.5319
  532MOL0     C71733   1.933   8.778  11.244 -0.2958  0.9064  0.0999
  532MOL0     C71734   1.801   8.769  11.185  0.6614  0.7381  0.1446
  532MOL0     N71735   1.373   8.656  11.565 -0.4923  0.2366 -0.2316
  532MOL0     N71736   1.271   8.660  11.647  0.2384  0.4347  0.6947
  532MOL0     C71737   1.838   8.459  11.822 -0.1603 -0.1567 -1.5649
  532MOL0     C71738   1.883   8.510  11.703 -0.6338 -0.4970 -0.4532
  532MOL0     C71739   2.060   8.436  11.267  0.3684 -0.7269  0.3546
  532MOL0     C71740   2.180   8.493  11.315 -0.1362 -1.2216  0.5642
  532MOL0     C71741   2.294   8.521  11.230 -0.4617 -0.8879  0.3784
  532MOL0     C71742   2.302   8.462  11.105  0.7232 -0.7230 -0.3097
  532MOL0     O71743   2.423   8.460  11.038  1.4105 -0.3546  0.1196
  532MOL0     C71744   2.504   8.578  11.017 -0.1835  0.3409  0.1194
  532MOL0     C71745   2.630   8.580  11.103  0.2313 -0.2882 -0.6379
  532MOL0     C71746   2.737   8.516  11.023 -0.0566  0.1931  0.3157
  532MOL0     C71747   2.869   8.599  10.999  0.4850 -1.1652 -0.4759
  532MOL0     C71748   2.839   8.729  10.945 -0.1020 -0.1315  0.5764
  532MOL0     C71749   2.813   8.823  10.867 -0.1483  0.1861  0.2233
  532MOL0     C71750   2.196   8.382  11.062 -0.6883 -0.0732  0.1298
  532MOL0     C71751   2.072   8.375  11.132 -1.3918  0.0118 -0.5737
  532MOL0     C71752   1.947   8.323  11.052  0.0530 -0.5513  0.6055
  532MOL0     H71753   1.825   8.244  11.515 -3.6302 -0.4041  0.1981
  532MOL0     H71754   1.693   8.178  11.727 -1.3828  0.5960  1.3429
  532MOL0     H71755   1.656   8.127  11.912  1.7761 -0.0556 -1.0411
  532MOL0     H71756   1.745   8.114  12.067 -0.7034  0.4215  0.9636
  532MOL0     H71757   1.572   8.278  12.165 -1.5600  0.0501  1.6903
  532MOL0     H71758   1.531   8.107  12.134 -3.0692 -0.8281 -0.6384
  532MOL0     H71759   1.432   8.158  11.918 -0.2421  0.6328 -0.4875
  532MOL0     H71760   1.458   8.326  11.923 -0.4402  0.0807  1.1445
  532MOL0     H71761   1.276   8.173  12.131  0.7663  0.9366  2.4702
  532MOL0     H71762   1.290   8.348  12.121  2.4245 -0.6145  0.8549
  532MOL0     H71763   1.215   8.181  11.877 -0.8885  0.4180 -1.4691
  532MOL0     H71764   1.102   8.248  12.004  0.5057 -0.3681 -1.8785
  532MOL0     H71765   1.163   8.470  11.960 -1.1595 -0.4546 -1.1469
  532MOL0     H71766   1.288   8.421  11.830 -0.7920  0.7112 -1.2870
  532MOL0     H71767   0.980   8.377  11.820 -0.9633 -0.8742 -3.8148
  532MOL0     H71768   1.107   8.315  11.711  0.1319  0.5495 -0.5915
  532MOL0     H71769   0.978   8.517  11.628 -2.1551  0.8452  0.9966
  532MOL0     H71770   1.047   8.609  11.761  0.4729 -0.7446  1.1408
  532MOL0     H71771   1.230   8.360  11.505  1.6456 -0.3434  1.2845
  532MOL0     H71772   1.558   8.521  11.394  1.5554 -1.6934 -0.6489
  532MOL0     H71773   1.477   8.366  11.417  0.9403  0.5446 -0.4673
  532MOL0     H71774   1.470   8.466  11.181  0.2620  0.0778  0.8976
  532MOL0     H71775   1.307   8.438  11.238 -0.3750  0.3181 -1.7135
  532MOL0     H71776   1.256   8.659  11.289 -0.9785  0.9219 -1.6662
  532MOL0     H71777   1.298   8.654  11.127  0.6712  1.3728  0.2969
  532MOL0     H71778   1.440   8.779  11.352 -1.8183 -0.7204  0.9483
  532MOL0     H71779   1.393   8.843  11.198  2.4075 -0.0162 -0.3071
  532MOL0     H71780   1.615   8.796  11.460  0.0255 -0.1281 -0.6702
  532MOL0     H71781   1.815   8.806  11.566  1.7582 -0.3062 -0.5106
  532MOL0     H71782   2.242   8.946  11.622  1.5394  2.0308  1.9309
  532MOL0     H71783   2.461   8.995  11.685 -0.6005 -1.2917  0.7449
  532MOL0     H71784   2.834   9.091  11.467 -1.3032  3.9123 -0.6328
  532MOL0     H71785   2.684   9.160  11.498 -0.4748 -0.8199 -0.1897
  532MOL0     H71786   2.727   9.182  11.725 -0.2311 -0.8657  0.2443
  532MOL0     H71787   2.760   9.013  11.734  0.4797 -1.1636 -2.1417
  532MOL0     H71788   2.965   9.166  11.804 -3.0338  1.8812  0.5958
  532MOL0     H71789   3.005   9.088  11.649  1.5602  1.6958 -0.6392
  532MOL0     H71790   2.957   9.371  11.722 -4.0857  0.1641  0.8732
  532MOL0     H71791   2.860   9.323  11.584 -0.7776 -0.8839  0.4063
  532MOL0     H71792   3.034   9.236  11.450 -0.9940  0.0146  0.6979
  532MOL0     H71793   3.156   9.246  11.574  0.3497 -2.4485 -2.6188
  532MOL0     H71794   2.978   9.446  11.424 -0.8661  2.7607  2.2008
  532MOL0     H71795   3.085   9.519  11.539 -2.0852  1.7535 -2.8366
  532MOL0     H71796   3.164   9.363  11.282 -1.5292  1.1291 -0.4202
  532MOL0     H71797   3.293   9.405  11.396  0.2274  1.0735  0.6437
  532MOL0     H71798   3.279   9.574  11.198  3.1147  2.9852  2.6671
  532MOL0     H71799   3.116   9.605  11.232  1.0317 -2.5977 -4.6338
  532MOL0     H71800   2.592   8.874  11.280 -1.1958 -1.0694 -0.5651
  532MOL0     H71801   2.342   8.868  11.229 -0.6468  1.7441 -0.9412
  532MOL0     H71802   2.019   8.771  11.179  0.6721 -2.3956  1.5675
  532MOL0     H71803   1.797   8.748  11.078 -0.2696  0.7238  0.1743
  532MOL0     H71804   1.863   8.534  11.897  0.9560  0.6752 -2.7366
  532MOL0     H71805   1.914   8.613  11.699 -1.3478 -0.3117 -2.0203
  532MOL0     H71806   2.175   8.546  11.409 -1.5953  2.4230 -1.3651
  532MOL0     H71807   2.380   8.573  11.271 -0.1857 -1.4093  0.4832
  532MOL0     H71808   2.443   8.667  11.032 -3.6961 -2.0116  1.1024
  532MOL0     H71809   2.532   8.587  10.912  4.2549  3.6407  1.2629
  532MOL0     H71810   2.609   8.522  11.193 -1.6014  1.6308  0.2522
  532MOL0     H71811   2.650   8.677  11.150 -2.7308 -0.5337  1.3726
  532MOL0     H71812   2.702   8.500  10.921  0.9058 -0.5517  0.0934
  532MOL0     H71813   2.760   8.423  11.075  2.7899  0.1984 -0.7471
  532MOL0     H71814   2.915   8.620  11.096  0.8815 -1.0132 -0.6953
  532MOL0     H71815   2.944   8.545  10.941  3.0254 -1.0345  2.4865
  532MOL0     H71816   2.801   8.902  10.796  2.0574  2.1939  1.9352
  532MOL0     H71817   2.207   8.328  10.968  0.8192  0.7239 -0.1746
  532MOL0     H71818   1.919   8.225  11.092 -0.7683 -0.2900  0.6906
  532MOL0     H71819   1.870   8.400  11.065  2.5278  2.2845 -0.3498
  532MOL0     H71820   1.969   8.324  10.945 -0.3452  0.7531  0.5091
  533MOL0     O71821   4.087   2.186   8.583  0.1213  0.6651 -0.7015
  533MOL0     C71822   3.967   2.179   8.576  0.4281  0.8189  0.4739
  533MOL0     O71823   3.885   2.268   8.501  0.6728 -0.5406 -0.2784
  533MOL0     C71824   3.953   2.366   8.432  0.2176 -1.2435 -0.6627
  533MOL0     C71825   3.912   2.505   8.449  0.9617 -0.1843  0.0903
  533MOL0     C71826   3.979   2.606   8.380  0.2807 -0.1617 -0.4421
  533MOL0     C71827   4.077   2.577   8.284  0.5086 -0.7200  0.5379
  533MOL0     O71828   4.120   2.683   8.214  0.5548  0.1449  0.2081
  533MOL0     C71829   4.143   2.676   8.076 -0.4232  0.3920 -0.0715
  533MOL0     C71830   4.227   2.802   8.060 -0.3379  0.8734  0.1750
  533MOL0     C71831   4.368   2.812   8.125 -0.3521 -0.3776 -0.2806
  533MOL0     C71832   4.427   2.957   8.132 -0.2674 -0.2528  0.1756
  533MOL0     C71833   4.463   3.014   8.002  0.7264  0.7746  1.1659
  533MOL0     C71834   4.353   3.100   7.945 -0.2892 -0.3046  0.4820
  533MOL0     C71835   4.411   3.160   7.812 -0.8702  0.1638 -0.8746
  533MOL0     C71836   4.355   3.082   7.688  0.2084  0.1652  0.6629
  533MOL0     N71837   4.408   2.941   7.675  0.5968  0.1197 -0.6604
  533MOL0     C71838   4.536   2.916   7.637 -0.8291 -0.0954 -0.3204
  533MOL0     C71839   4.536   2.779   7.637 -1.0388  0.1486  0.4250
  533MOL0     C71840   4.660   2.702   7.609  0.5782 -0.3846 -0.3874
  533MOL0     C71841   4.738   2.755   7.490  0.4015  0.4412 -1.0554
  533MOL0     C71842   4.689   2.702   7.359 -0.1714 -0.3718  0.2744
  533MOL0     C71843   4.551   2.755   7.303  0.3147  0.7949 -0.5048
  533MOL0     O71844   4.546   2.897   7.324 -0.2490 -0.3253  1.0524
  533MOL0     C71845   4.428   2.967   7.334 -0.0312  1.2691  0.8307
  533MOL0     C71846   4.307   2.900   7.326 -0.1783 -0.0862 -0.6268
  533MOL0     C71847   4.192   2.984   7.345 -0.6341  0.2440  0.9368
  533MOL0     C71848   4.205   3.124   7.361 -0.4443  0.0208  0.6391
  533MOL0     C71849   4.087   3.198   7.392 -0.3697  0.5082  0.0440
  533MOL0     O71850   3.997   3.224   7.290 -0.0198  0.1807  0.6769
  533MOL0     C71851   3.891   3.313   7.312 -0.0152 -0.0919 -0.6206
  533MOL0     C71852   3.870   3.400   7.426  0.0668 -1.4387  0.3156
  533MOL0     C71853   3.753   3.477   7.436  0.2013 -0.6431 -0.0490
  533MOL0     C71854   3.646   3.465   7.334 -1.2212  0.3629  0.1125
  533MOL0     O71855   3.533   3.535   7.345  0.0415  1.0100 -0.2656
  533MOL0     C71856   3.416   3.460   7.375 -0.7285  0.1662  0.6773
  533MOL0     C71857   3.306   3.564   7.371  0.1187  0.1999  0.3200
  533MOL0     C71858   3.279   3.621   7.510 -0.4207 -0.6443 -0.7406
  533MOL0     C71859   3.155   3.708   7.504  0.3522  0.3566 -0.3336
  533MOL0     C71860   3.137   3.806   7.627  0.1674  1.0006  1.3080
  533MOL0     C71861   3.112   3.719   7.755 -0.0083 -0.9719 -0.3198
  533MOL0     C71862   3.078   3.815   7.870  0.1049 -0.7513  0.8385
  533MOL0     C71863   3.097   3.754   8.005  0.5930  0.6300 -0.2492
  533MOL0    Cl71864   3.104   3.855   8.153 -0.3179  0.1052 -0.1635
  533MOL0     C71865   3.663   3.376   7.227  0.4188 -1.0617 -0.4115
  533MOL0     C71866   3.785   3.305   7.218 -0.5742  0.4331  1.0310
  533MOL0     O71867   4.070   3.213   7.512 -0.4910 -0.8072 -0.0486
  533MOL0     C71868   4.330   3.188   7.358 -0.4413 -0.3160 -0.2754
  533MOL0     C71869   4.449   3.105   7.336  0.3738  1.1504  0.6616
  533MOL0     N71870   4.413   2.728   7.669 -0.4821  0.2451  0.4940
  533MOL0     N71871   4.342   2.827   7.704 -0.2564  0.3362  0.1325
  533MOL0     C71872   4.119   2.442   8.266 -0.3403  0.2421  0.0795
  533MOL0     C71873   4.049   2.339   8.333  0.6321  0.0699  0.5985
  533MOL0     C71874   3.891   2.079   8.654 -0.1452  1.1630 -0.1423
  533MOL0     C71875   3.786   2.023   8.582 -1.1123  0.1223  0.4970
  533MOL0     C71876   3.706   1.918   8.642  0.2517  0.6402 -0.3819
  533MOL0     C71877   3.740   1.853   8.755 -0.2381  0.7334  0.6068
  533MOL0     O71878   3.644   1.761   8.811 -0.5061 -0.5591  0.0885
  533MOL0     C71879   3.675   1.687   8.931  0.2566 -0.1434 -0.3907
  533MOL0     C71880   3.550   1.635   8.988 -0.3217 -0.4050 -0.3063
  533MOL0     C71881   3.563   1.521   9.098  0.1983  0.0906 -0.0961
  533MOL0     C71882   3.611   1.573   9.235 -0.0875  0.1908 -0.0427
  533MOL0     C71883   3.750   1.515   9.265  0.2548  0.2363 -0.4328
  533MOL0     C71884   3.861   1.465   9.286 -0.4847  0.2282 -0.1256
  533MOL0     C71885   3.858   1.897   8.815  1.0536  0.3832 -0.1364
  533MOL0     C71886   3.928   2.008   8.770 -0.6830 -0.1504  0.6649
  533MOL0     C71887   4.050   2.055   8.842  1.0185  0.2985 -0.0324
  533MOL0     H71888   3.826   2.523   8.512  0.9035 -2.0366  0.5888
  533MOL0     H71889   3.960   2.712   8.390  0.2046 -0.2133 -0.0313
  533MOL0     H71890   4.186   2.581   8.043 -1.6835  0.0213 -0.6861
  533MOL0     H71891   4.047   2.680   8.025 -1.6079 -1.2119  1.8596
  533MOL0     H71892   4.159   2.884   8.085 -0.2386  0.4900  1.8446
  533MOL0     H71893   4.250   2.804   7.953  1.4830  0.4272  0.5190
  533MOL0     H71894   4.437   2.756   8.061 -0.2996 -1.1430  0.4355
  533MOL0     H71895   4.364   2.764   8.223  1.7885  0.4726  0.2688
  533MOL0     H71896   4.351   3.010   8.191 -1.2282 -2.0439  0.6247
  533MOL0     H71897   4.524   2.945   8.182  0.6392 -0.2134 -1.5102
  533MOL0     H71898   4.561   3.062   7.993  0.1249  1.7484 -0.7147
  533MOL0     H71899   4.474   2.930   7.931 -2.2233 -0.5140  2.0708
  533MOL0     H71900   4.259   3.047   7.930 -3.7430  4.5433  2.4705
  533MOL0     H71901   4.338   3.188   8.008 -0.2272  2.4587 -2.9855
  533MOL0     H71902   4.519   3.155   7.794 -0.0133  2.1001  2.6773
  533MOL0     H71903   4.386   3.266   7.804  1.2703  0.6496 -2.1864
  533MOL0     H71904   4.246   3.086   7.695  0.0484 -0.7983 -0.8735
  533MOL0     H71905   4.385   3.139   7.600 -0.3418  0.5178  0.6994
  533MOL0     H71906   4.626   2.975   7.624  0.0034 -1.4849 -1.1654
  533MOL0     H71907   4.728   2.706   7.695  0.4385  2.0014 -0.3144
  533MOL0     H71908   4.641   2.595   7.606 -0.0241 -0.2818 -0.3850
  533MOL0     H71909   4.759   2.861   7.509 -0.5556  0.2443  1.6096
  533MOL0     H71910   4.833   2.703   7.500 -1.3207 -2.8409 -0.1230
  533MOL0     H71911   4.690   2.592   7.363 -0.9379 -0.3735  0.7386
  533MOL0     H71912   4.761   2.730   7.282  1.1269  2.0789  2.2315
  533MOL0     H71913   4.471   2.704   7.358 -0.7155  1.0360 -1.7365
  533MOL0     H71914   4.538   2.731   7.197  1.5459  1.4513 -0.8282
  533MOL0     H71915   4.307   2.792   7.312  0.4344  0.1048 -2.3173
  533MOL0     H71916   4.097   2.932   7.352  1.1894 -4.2854 -2.7149
  533MOL0     H71917   3.942   3.396   7.507  1.1936 -1.1353 -0.6359
  533MOL0     H71918   3.722   3.545   7.514 -1.9334 -0.8468 -0.6612
  533MOL0     H71919   3.390   3.381   7.303  0.1094  0.3151  0.1948
  533MOL0     H71920   3.432   3.404   7.467  2.1600 -1.4329 -0.6458
  533MOL0     H71921   3.330   3.653   7.313 -0.5789  0.4871  0.4761
  533MOL0     H71922   3.220   3.516   7.324 -0.1152  0.7073  0.2355
  533MOL0     H71923   3.250   3.544   7.581  1.5557 -0.5496  0.2353
  533MOL0     H71924   3.367   3.676   7.545 -2.2038  1.5414  0.5992
  533MOL0     H71925   3.061   3.654   7.492  0.7891 -1.3288  2.7804
  533MOL0     H71926   3.171   3.772   7.416  1.2163  0.9494  0.2395
  533MOL0     H71927   3.059   3.877   7.599  2.7385  2.6029 -2.5771
  533MOL0     H71928   3.222   3.873   7.634  2.1439 -0.6132 -3.2498
  533MOL0     H71929   3.037   3.642   7.733 -1.2353  0.9195 -3.3712
  533MOL0     H71930   3.211   3.681   7.782  1.0350  2.8678  1.9998
  533MOL0     H71931   2.974   3.849   7.866  0.0391 -0.9953  0.5049
  533MOL0     H71932   3.140   3.905   7.868 -0.2352 -0.3492  4.0062
  533MOL0     H71933   3.029   3.674   8.037  2.6157 -0.7348  0.9046
  533MOL0     H71934   3.191   3.697   8.002  1.5444  2.0708  0.9723
  533MOL0     H71935   3.590   3.361   7.148  0.2822  1.6396 -0.8927
  533MOL0     H71936   3.810   3.242   7.132  2.6448  0.2128  2.0057
  533MOL0     H71937   4.336   3.295   7.376 -0.1852 -0.5015  0.7792
  533MOL0     H71938   4.547   3.152   7.336  0.4702  0.9635 -0.4180
  533MOL0     H71939   4.182   2.415   8.181 -1.8131 -0.0888 -0.9473
  533MOL0     H71940   4.071   2.239   8.296 -1.7834 -0.7450  1.1818
  533MOL0     H71941   3.763   2.062   8.484  0.1502  0.8409  0.4751
  533MOL0     H71942   3.610   1.896   8.595 -0.4456 -0.4291  1.4579
  533MOL0     H71943   3.729   1.737   9.012  2.6443 -1.2146 -1.2237
  533MOL0     H71944   3.737   1.599   8.910 -3.0467 -2.7242 -0.1016
  533MOL0     H71945   3.488   1.598   8.906 -0.1795  0.6873 -0.9264
  533MOL0     H71946   3.496   1.723   9.023  2.2077  1.4784 -0.8439
  533MOL0     H71947   3.628   1.440   9.065  0.4431  0.2034  0.1011
  533MOL0     H71948   3.463   1.486   9.126  0.6024 -0.4583  0.6763
  533MOL0     H71949   3.594   1.681   9.242  2.6210  0.6797 -0.1077
  533MOL0     H71950   3.556   1.517   9.312  3.3886  0.1504  2.6383
  533MOL0     H71951   3.963   1.433   9.286 -0.3790  0.0680  4.2249
  533MOL0     H71952   3.896   1.855   8.908 -0.3527  0.7071  0.6236
  533MOL0     H71953   4.063   2.018   8.944  4.1646  0.8724 -0.1196
  533MOL0     H71954   4.145   2.034   8.792  0.1493 -0.0760 -1.5797
  533MOL0     H71955   4.035   2.163   8.855 -2.2654 -0.1383  0.6116
  534MOL0     O71956  10.994  10.413   9.421  0.3498  0.1373  0.1563
  534MOL0     C71957  11.023  10.431   9.540  0.7899 -0.1822  0.4095
  534MOL0     O71958  11.147  10.407   9.590 -0.1674  0.3343 -0.1031
  534MOL0     C71959  11.234  10.320   9.527  0.8392 -0.3699  0.0073
  534MOL0     C71960  11.175  10.200   9.475 -0.0980 -0.3490 -0.4456
  534MOL0     C71961  11.249  10.118   9.383 -0.5220 -1.0671  0.6629
  534MOL0     C71962  11.378  10.160   9.361 -0.9610 -0.4081  0.1058
  534MOL0     O71963  11.444  10.085   9.267  0.1324  0.3065  0.1406
  534MOL0     C71964  11.493   9.952   9.316  0.2562  0.7820 -0.1333
  534MOL0     C71965  11.610   9.903   9.218  0.9119  0.2146  0.0185
  534MOL0     C71966  11.717  10.010   9.187 -0.7587 -0.6189  0.0983
  534MOL0     C71967  11.843   9.942   9.130 -0.2700  0.3001 -1.0927
  534MOL0     C71968  11.954  10.041   9.101  0.7305  0.1634 -0.1074
  534MOL0     C71969  12.071   9.985   9.019 -0.3465 -0.9700  0.0594
  534MOL0     C71970  12.177   9.929   9.115  0.5268  1.0890 -0.0605
  534MOL0     C71971  12.274  10.033   9.164  0.4901  0.8379  0.1510
  534MOL0     N71972  12.401  10.007   9.097  1.3017 -0.2853  0.0234
  534MOL0     C71973  12.521  10.026   9.164  0.3949  1.0929  1.6629
  534MOL0     C71974  12.621  10.022   9.071 -0.3362 -0.2579 -0.1749
  534MOL0     C71975  12.762  10.017   9.093  0.0439 -0.0433  0.6170
  534MOL0     C71976  12.822   9.898   9.008  0.1116 -0.4215  0.2924
  534MOL0     C71977  12.967   9.866   9.060 -0.0641 -0.0672  0.6623
  534MOL0     C71978  13.071   9.983   9.052  0.0454 -0.1110 -0.1807
  534MOL0     O71979  13.056  10.081   9.147 -0.1659 -0.1061  0.4242
  534MOL0     C71980  13.163  10.170   9.164  0.1155  0.8006  0.3485
  534MOL0     C71981  13.293  10.130   9.181 -0.1262  0.4391 -0.2474
  534MOL0     C71982  13.405  10.210   9.176  0.3825 -0.3872 -0.5350
  534MOL0     C71983  13.384  10.351   9.144 -0.5095  0.0671 -1.2084
  534MOL0     C71984  13.502  10.442   9.119  0.5390 -0.4210 -0.4066
  534MOL0     O71985  13.467  10.574   9.093  0.1662 -0.0695 -0.3476
  534MOL0     C71986  13.570  10.654   9.127  0.7087  1.5301 -0.7465
  534MOL0     C71987  13.611  10.691   9.259  0.0085  1.0647  0.6118
  534MOL0     C71988  13.714  10.781   9.279  0.2598  0.2372  0.1585
  534MOL0     C71989  13.762  10.851   9.174 -0.0413  0.2941 -0.0531
  534MOL0     O71990  13.840  10.957   9.197 -0.4075  0.2731 -0.8790
  534MOL0     C71991  13.978  10.908   9.202  0.4906 -0.9823 -0.2885
  534MOL0     C71992  14.062  11.030   9.182  0.4332  0.9834  0.0677
  534MOL0     C71993  14.211  10.999   9.155  0.6484  0.5115 -0.8776
  534MOL0     C71994  14.295  11.121   9.175 -0.6777  0.0424 -0.3428
  534MOL0     C71995  14.438  11.086   9.130 -1.0878  0.6297 -0.7822
  534MOL0     C71996  14.545  11.186   9.175  0.4636 -0.6616 -0.2332
  534MOL0     C71997  14.681  11.144   9.115 -0.3391  0.4351  0.1032
  534MOL0     C71998  14.722  11.221   8.987 -0.0414 -0.7982 -0.7562
  534MOL0    Cl71999  14.599  11.227   8.852 -0.0854  0.2572 -0.1121
  534MOL0     C72000  13.721  10.821   9.043 -0.6243 -0.2271 -0.3638
  534MOL0     C72001  13.620  10.729   9.021  0.1918 -0.1100 -0.1411
  534MOL0     O72002  13.615  10.396   9.149 -0.1216  0.1832  0.7522
  534MOL0     C72003  13.248  10.397   9.136 -0.4152 -0.4047 -0.9695
  534MOL0     C72004  13.144  10.307   9.153  0.2992  0.6362 -0.7387
  534MOL0     N72005  12.559  10.004   8.948  0.3456  0.3355  0.1959
  534MOL0     N72006  12.425   9.995   8.966 -0.4830  0.6826 -0.3066
  534MOL0     C72007  11.440  10.264   9.435 -0.1197  0.3622  1.2124
  534MOL0     C72008  11.372  10.347   9.517 -0.1721  0.0207 -0.3509
  534MOL0     C72009  10.925  10.487   9.632 -0.8498 -0.2315 -0.5729
  534MOL0     C72010  10.969  10.526   9.756 -0.0934  0.2960 -0.8293
  534MOL0     C72011  10.878  10.588   9.845  0.2281  0.5719  0.1549
  534MOL0     C72012  10.742  10.597   9.822  0.8073 -0.2348 -0.1269
  534MOL0     O72013  10.631  10.630   9.905 -0.3869 -0.0099  0.4414
  534MOL0     C72014  10.675  10.672  10.034 -1.1245  0.4010 -0.2709
  534MOL0     C72015  10.717  10.560  10.129  1.3404 -0.8663  0.6013
  534MOL0     C72016  10.769  10.616  10.259  0.8779 -0.4776 -0.0050
  534MOL0     C72017  10.657  10.673  10.355  0.1452 -0.3120 -0.1244
  534MOL0     C72018  10.727  10.703  10.481 -0.2325 -0.8376  0.0165
  534MOL0     C72019  10.799  10.727  10.574 -0.1696 -0.9070  0.0161
  534MOL0     C72020  10.698  10.551   9.697  0.3132 -0.0280 -0.3068
  534MOL0     C72021  10.787  10.496   9.602  0.5803 -0.3245 -0.5754
  534MOL0     C72022  10.730  10.445   9.473 -0.1944 -0.4199  0.1005
  534MOL0     H72023  11.069  10.175   9.479 -0.2355  0.0744 -1.2132
  534MOL0     H72024  11.193  10.040   9.333  1.1728 -1.4268 -0.7728
  534MOL0     H72025  11.530   9.965   9.418 -0.0994 -0.6475  0.1921
  534MOL0     H72026  11.413   9.879   9.307 -0.1420  1.2858 -0.7422
  534MOL0     H72027  11.562   9.876   9.123 -3.2147 -0.8739  2.1615
  534MOL0     H72028  11.666   9.819   9.260  0.3404  0.3576  1.1101
  534MOL0     H72029  11.746  10.067   9.275 -2.5397 -1.8799  1.5836
  534MOL0     H72030  11.677  10.080   9.113  0.0418  0.4320  0.6339
  534MOL0     H72031  11.879   9.865   9.200  0.4667  2.9086  1.6097
  534MOL0     H72032  11.816   9.890   9.038  0.0353 -1.1789 -0.3860
  534MOL0     H72033  11.901  10.113   9.038 -2.6630 -3.4018 -1.7644
  534MOL0     H72034  11.987  10.089   9.193 -0.3608  2.4042 -0.8073
  534MOL0     H72035  12.040   9.903   8.954  1.0968  0.2388 -2.2587
  534MOL0     H72036  12.111  10.069   8.961 -1.0628 -1.7793 -1.6767
  534MOL0     H72037  12.214   9.837   9.067 -0.8695  0.4652 -0.0010
  534MOL0     H72038  12.121   9.897   9.203  3.5601  2.3601  2.5165
  534MOL0     H72039  12.257  10.136   9.131  2.3361  0.8604 -0.8405
  534MOL0     H72040  12.288  10.029   9.272  1.8070 -0.2886 -0.0384
  534MOL0     H72041  12.531  10.026   9.272  0.9528 -1.2696  1.6567
  534MOL0     H72042  12.815  10.102   9.049  2.2364 -2.6178 -2.1578
  534MOL0     H72043  12.781   9.993   9.198  1.0900 -2.1104  0.0221
  534MOL0     H72044  12.765   9.810   9.039 -1.3180  0.7266  1.0279
  534MOL0     H72045  12.817   9.921   8.902 -5.8198 -0.1240  0.3349
  534MOL0     H72046  13.005   9.783   8.998  0.2304  0.0041  0.7463
  534MOL0     H72047  12.964   9.830   9.163  1.0109  1.8024  1.3805
  534MOL0     H72048  13.054  10.026   8.953  1.2224  0.1586 -0.2870
  534MOL0     H72049  13.169   9.933   9.052 -1.1563 -2.6085 -1.0907
  534MOL0     H72050  13.313  10.025   9.201 -1.2622  0.1792 -0.3851
  534MOL0     H72051  13.503  10.166   9.186  1.0327  1.3473  1.2052
  534MOL0     H72052  13.589  10.633   9.348  1.3455 -1.6157 -0.6813
  534MOL0     H72053  13.757  10.795   9.377 -1.1881 -1.4027  1.0857
  534MOL0     H72054  14.014  10.867   9.297  0.3876 -1.3035 -0.3859
  534MOL0     H72055  13.995  10.833   9.124 -2.9769 -0.6901 -1.5103
  534MOL0     H72056  14.023  11.087   9.097 -2.4388 -0.1115  0.5380
  534MOL0     H72057  14.057  11.085   9.276 -2.1125  2.9796 -1.1250
  534MOL0     H72058  14.242  10.923   9.227 -1.5836  0.5310  0.1959
  534MOL0     H72059  14.218  10.958   9.054 -1.5068 -5.7206  0.9999
  534MOL0     H72060  14.288  11.157   9.278 -0.9476  2.8046 -1.2353
  534MOL0     H72061  14.254  11.202   9.114 -1.4808  2.2082  2.8505
  534MOL0     H72062  14.442  11.092   9.021 -0.6911  2.5460 -0.7053
  534MOL0     H72063  14.465  10.988   9.168 -2.1031  1.1278  1.3897
  534MOL0     H72064  14.515  11.283   9.133 -1.6956  0.9483  4.4045
  534MOL0     H72065  14.547  11.194   9.284 -0.6400  1.9779 -0.3388
  534MOL0     H72066  14.686  11.038   9.088  0.5542  0.4503  0.1716
  534MOL0     H72067  14.766  11.172   9.178 -0.7779  1.6239  0.1822
  534MOL0     H72068  14.744  11.326   9.011 -0.5572 -0.7934 -0.2983
  534MOL0     H72069  14.813  11.189   8.936 -1.5014 -1.8143 -2.8620
  534MOL0     H72070  13.749  10.893   8.966 -0.5296  1.9551  1.6094
  534MOL0     H72071  13.568  10.724   8.926 -0.4972 -0.8252  0.2676
  534MOL0     H72072  13.219  10.501   9.125 -0.9967 -0.6798 -2.2433
  534MOL0     H72073  13.039  10.336   9.160 -0.0315 -0.4948 -0.7838
  534MOL0     H72074  11.547  10.277   9.420 -0.0480 -1.5187 -0.2079
  534MOL0     H72075  11.416  10.426   9.577  0.5696  1.0241 -2.1611
  534MOL0     H72076  11.070  10.510   9.794 -1.0887 -1.5838  1.2454
  534MOL0     H72077  10.922  10.615   9.940  3.5293  2.3303 -1.6957
  534MOL0     H72078  10.584  10.717  10.076 -0.7174 -1.6157  3.1101
  534MOL0     H72079  10.757  10.740  10.012 -1.7650  0.9806 -0.9494
  534MOL0     H72080  10.789  10.494  10.080 -0.1984 -1.5889 -0.7928
  534MOL0     H72081  10.636  10.489  10.148 -0.9707  0.7504 -2.2909
  534MOL0     H72082  10.850  10.688  10.245  1.6164 -0.6507  2.8499
  534MOL0     H72083  10.829  10.536  10.303  1.8118 -0.5101 -1.2746
  534MOL0     H72084  10.618  10.771  10.324  2.0521  0.6638  0.4268
  534MOL0     H72085  10.578  10.597  10.360  1.8062 -1.9945  2.8016
  534MOL0     H72086  10.852  10.741  10.666  0.7484 -0.4702 -0.5773
  534MOL0     H72087  10.592  10.531   9.685  0.0061  0.6678  1.0537
  534MOL0     H72088  10.727  10.339   9.450 -1.4334 -0.3474 -0.1550
  534MOL0     H72089  10.622  10.466   9.474 -0.3372 -0.4723  4.4018
  534MOL0     H72090  10.778  10.506   9.395 -0.7463  1.9781  1.5087
  535MOL0     O72091   4.737   4.002   2.845 -0.2219 -0.3873 -0.4951
  535MOL0     C72092   4.638   4.001   2.770  0.1978 -0.1232 -0.4159
  535MOL0     O72093   4.650   4.006   2.632 -0.3556  0.1643 -0.0164
  535MOL0     C72094   4.778   4.009   2.575  0.5929  0.2599 -0.4031
  535MOL0     C72095   4.868   4.118   2.581  0.7035 -0.2493 -1.2364
  535MOL0     C72096   4.986   4.132   2.508  0.8334  0.1965  1.2277
  535MOL0     C72097   5.017   4.026   2.422  0.0062 -1.0259 -0.7024
  535MOL0     O72098   5.133   4.048   2.358 -0.7967  1.2497  0.7004
  535MOL0     C72099   5.198   3.937   2.292 -0.0699  0.5646 -0.0855
  535MOL0     C72100   5.355   3.976   2.269  0.4531  1.0157 -0.0645
  535MOL0     C72101   5.450   3.851   2.275  0.2343  0.3819 -0.5447
  535MOL0     C72102   5.599   3.884   2.246  0.2173  0.3472  0.4973
  535MOL0     C72103   5.677   3.915   2.376  0.1399 -0.4807  0.3613
  535MOL0     C72104   5.812   3.991   2.344 -0.1546  0.0295  0.5544
  535MOL0     C72105   5.860   4.085   2.465 -0.6526  0.2812  0.2837
  535MOL0     C72106   5.988   4.146   2.418  0.4477 -0.2732 -0.0871
  535MOL0     N72107   6.030   4.250   2.511  0.4493  0.5607 -0.2238
  535MOL0     C72108   6.043   4.388   2.496 -0.2335  0.4550 -0.6476
  535MOL0     C72109   6.080   4.429   2.622 -0.2204  0.5939  0.4861
  535MOL0     C72110   6.101   4.566   2.663  0.1186  1.5312  0.7486
  535MOL0     C72111   5.974   4.650   2.682  0.5912  0.2704  0.2283
  535MOL0     C72112   5.899   4.612   2.809  0.4782 -0.0151 -0.8572
  535MOL0     C72113   5.760   4.654   2.795  0.5648  0.4720  1.0122
  535MOL0     O72114   5.695   4.571   2.695 -0.1549  0.0217 -0.5473
  535MOL0     C72115   5.646   4.445   2.733 -1.3473 -0.0825  0.3416
  535MOL0     C72116   5.672   4.373   2.855 -1.1953  0.2690 -0.0380
  535MOL0     C72117   5.625   4.242   2.875 -0.9736 -0.2779 -0.5271
  535MOL0     C72118   5.538   4.180   2.781  0.5863  0.3892 -0.9007
  535MOL0     C72119   5.457   4.059   2.810 -0.0590 -0.5197 -0.0441
  535MOL0     O72120   5.393   4.021   2.699  0.5252  0.2535 -0.0496
  535MOL0     C72121   5.293   3.925   2.703 -1.1093  0.0658 -0.0727
  535MOL0     C72122   5.159   3.952   2.737  0.3499 -0.4355  0.3000
  535MOL0     C72123   5.067   3.847   2.749  0.4283 -0.4711  0.0312
  535MOL0     C72124   5.099   3.711   2.726  0.2275 -0.0181 -0.0746
  535MOL0     O72125   5.020   3.603   2.723  0.3728  0.5177 -0.0330
  535MOL0     C72126   4.897   3.634   2.791 -0.1721 -0.4420  0.0074
  535MOL0     C72127   4.833   3.510   2.847  1.2020 -1.2135  0.4266
  535MOL0     C72128   4.681   3.536   2.894  0.1735  0.3318  0.7279
  535MOL0     C72129   4.678   3.635   3.006 -0.2452 -0.1286 -0.1916
  535MOL0     C72130   4.551   3.612   3.091 -0.2720 -0.1515 -1.4072
  535MOL0     C72131   4.579   3.678   3.225 -0.3643  0.4246  0.6768
  535MOL0     C72132   4.472   3.683   3.326 -0.1070  0.8082 -0.5219
  535MOL0     C72133   4.501   3.756   3.452 -0.3774 -0.3440  0.7031
  535MOL0    Cl72134   4.647   3.699   3.539 -0.1546  0.0274 -0.1539
  535MOL0     C72135   5.234   3.694   2.685 -0.5381  0.0431 -0.4640
  535MOL0     C72136   5.338   3.794   2.680 -0.2570 -0.5944  1.4819
  535MOL0     O72137   5.459   4.002   2.922 -0.3972  0.4212  1.4468
  535MOL0     C72138   5.512   4.253   2.669  0.3751  0.0115  0.2080
  535MOL0     C72139   5.563   4.386   2.652  0.6676  1.2308  0.4856
  535MOL0     N72140   6.096   4.320   2.700  0.2133 -0.0183  0.0857
  535MOL0     N72141   6.065   4.215   2.633 -0.0008  0.1499 -0.4569
  535MOL0     C72142   4.943   3.910   2.418  0.5835 -0.2354  0.0067
  535MOL0     C72143   4.821   3.897   2.488 -0.2580  0.3322 -0.1018
  535MOL0     C72144   4.500   3.999   2.819 -0.1902 -0.1979 -0.4390
  535MOL0     C72145   4.409   3.943   2.734  0.9830  0.6198 -0.6843
  535MOL0     C72146   4.278   3.916   2.787  0.0405  1.0469  0.4155
  535MOL0     C72147   4.242   3.955   2.918 -1.2539  0.4615 -0.6599
  535MOL0     O72148   4.121   3.918   2.967 -0.2280 -0.0271 -0.5581
  535MOL0     C72149   4.101   3.932   3.116 -0.8394  0.9902  0.3511
  535MOL0     C72150   3.963   3.872   3.169 -0.3100 -0.6058  0.8712
  535MOL0     C72151   3.846   3.934   3.087 -0.2611  0.0041  0.0798
  535MOL0     C72152   3.713   3.884   3.139 -0.3072 -0.0489  0.0381
  535MOL0     C72153   3.697   3.932   3.278  0.0183 -0.1189 -0.6015
  535MOL0     C72154   3.673   3.950   3.397 -0.2798  0.4208  0.2662
  535MOL0     C72155   4.334   4.021   2.995  0.1745 -0.2272 -0.2963
  535MOL0     C72156   4.460   4.039   2.949 -0.7993  0.0569  0.3251
  535MOL0     C72157   4.551   4.121   3.036 -0.3687 -0.6951 -0.5114
  535MOL0     H72158   4.846   4.202   2.646 -0.0112 -1.2966 -0.0774
  535MOL0     H72159   5.046   4.221   2.520 -2.6553  2.8192  0.7456
  535MOL0     H72160   5.200   3.846   2.353  0.4574 -0.4619 -1.5641
  535MOL0     H72161   5.140   3.906   2.205 -0.9729  0.8310  0.4155
  535MOL0     H72162   5.396   4.050   2.338  2.6715 -2.0889  2.2715
  535MOL0     H72163   5.353   4.036   2.177 -0.9013 -3.5498 -3.3853
  535MOL0     H72164   5.427   3.786   2.190  1.2294  0.9137 -1.2340
  535MOL0     H72165   5.446   3.786   2.364 -0.8986 -0.0718 -0.9049
  535MOL0     H72166   5.645   3.800   2.192  0.7412 -0.1041  1.6205
  535MOL0     H72167   5.593   3.964   2.172  0.1588 -0.0612  0.0539
  535MOL0     H72168   5.615   3.989   2.428  3.1080  2.4793  0.0083
  535MOL0     H72169   5.700   3.832   2.443 -1.2145  0.3039  1.8647
  535MOL0     H72170   5.886   3.913   2.326 -0.9326 -0.7101  0.5085
  535MOL0     H72171   5.805   4.054   2.254 -0.0631 -0.0248  0.5091
  535MOL0     H72172   5.867   4.015   2.549 -5.8054  0.0368  0.7969
  535MOL0     H72173   5.780   4.158   2.480  0.5457  1.5932  0.4406
  535MOL0     H72174   6.056   4.061   2.411 -0.3629 -1.0667  1.2463
  535MOL0     H72175   5.971   4.186   2.318  0.9341 -0.0611 -0.0872
  535MOL0     H72176   6.045   4.432   2.397  0.3085 -1.8362 -1.7374
  535MOL0     H72177   6.176   4.566   2.742  2.5359 -1.4434 -1.2924
  535MOL0     H72178   6.156   4.613   2.581 -2.9114  2.2581 -1.0493
  535MOL0     H72179   6.010   4.753   2.691 -2.0115  1.2952 -0.1561
  535MOL0     H72180   5.907   4.639   2.596  0.0073  1.2902  0.5332
  535MOL0     H72181   5.931   4.678   2.891 -1.5385  2.6637 -2.0371
  535MOL0     H72182   5.906   4.507   2.836 -3.5083 -0.2994 -0.2295
  535MOL0     H72183   5.766   4.759   2.765 -1.0216 -0.2832 -2.4869
  535MOL0     H72184   5.709   4.628   2.888 -0.3349 -4.2393 -0.5248
  535MOL0     H72185   5.723   4.420   2.939 -1.3395 -2.1948  1.5400
  535MOL0     H72186   5.663   4.194   2.965  1.2513  1.8499 -0.2120
  535MOL0     H72187   5.126   4.056   2.736  1.7942  0.0478  0.0118
  535MOL0     H72188   4.961   3.868   2.756  0.7868  2.0721 -0.9572
  535MOL0     H72189   4.912   3.697   2.879 -0.4814  0.5268 -0.6154
  535MOL0     H72190   4.822   3.685   2.729 -0.9522 -1.3410  0.1996
  535MOL0     H72191   4.820   3.434   2.769 -1.3959 -0.0269 -0.4229
  535MOL0     H72192   4.903   3.460   2.915 -0.2234 -0.8476  2.2852
  535MOL0     H72193   4.621   3.556   2.806  0.0728 -2.1893  0.1425
  535MOL0     H72194   4.652   3.438   2.933 -2.2258  0.0244 -1.5337
  535MOL0     H72195   4.702   3.736   2.973 -0.5358 -0.3971 -1.2642
  535MOL0     H72196   4.766   3.609   3.066  0.2104  2.9354  0.6646
  535MOL0     H72197   4.529   3.507   3.114  2.6726 -0.4736  0.5053
  535MOL0     H72198   4.463   3.663   3.052  0.0447 -0.7989 -3.0347
  535MOL0     H72199   4.668   3.637   3.274 -2.8435 -1.7976  3.7492
  535MOL0     H72200   4.608   3.783   3.215  1.2976 -0.1498 -1.2545
  535MOL0     H72201   4.454   3.578   3.349 -0.4395  1.1231  0.7258
  535MOL0     H72202   4.386   3.739   3.288  0.6679  1.2404 -1.7088
  535MOL0     H72203   4.525   3.858   3.422 -0.5565  0.0499  1.8582
  535MOL0     H72204   4.417   3.763   3.521 -0.9206 -2.9784  0.4149
  535MOL0     H72205   5.259   3.591   2.661  0.2017 -0.1471  1.0149
  535MOL0     H72206   5.434   3.768   2.635 -0.3407 -2.0974  2.1298
  535MOL0     H72207   5.436   4.217   2.599  0.1944  1.6018 -0.4648
  535MOL0     H72208   5.542   4.440   2.560 -2.0826  0.3349  0.4928
  535MOL0     H72209   4.969   3.818   2.366 -0.2298 -0.0594 -0.7278
  535MOL0     H72210   4.760   3.807   2.493 -1.7243  1.3124  0.4935
  535MOL0     H72211   4.436   3.902   2.637  0.3820 -0.9544 -0.2227
  535MOL0     H72212   4.207   3.862   2.726 -0.2775  0.7584  1.0360
  535MOL0     H72213   4.110   4.034   3.156  3.0044  0.5961  0.8403
  535MOL0     H72214   4.179   3.875   3.167 -1.1964  1.8117  1.9027
  535MOL0     H72215   3.960   3.897   3.276 -1.0992 -1.7546  1.1393
  535MOL0     H72216   3.964   3.763   3.172 -1.6798 -0.7917 -2.1188
  535MOL0     H72217   3.853   3.906   2.982 -1.3467  1.0567 -0.3007
  535MOL0     H72218   3.842   4.044   3.088  0.2230  0.0212  0.3218
  535MOL0     H72219   3.634   3.924   3.075 -0.3622  3.4323  2.0711
  535MOL0     H72220   3.705   3.776   3.153  2.0613 -0.3424 -0.4076
  535MOL0     H72221   3.641   3.973   3.496  0.7400  4.5703 -0.1583
  535MOL0     H72222   4.309   4.055   3.095 -0.1542 -2.3587  0.4061
  535MOL0     H72223   4.500   4.188   3.105  3.0342  1.1759  0.4352
  535MOL0     H72224   4.622   4.069   3.101  0.4015  0.4222 -0.4401
  535MOL0     H72225   4.602   4.193   2.972 -5.3600  1.7979 -2.1662
  536MOL0     O72226   5.789   6.829   3.273 -0.2128  0.2203 -0.0233
  536MOL0     C72227   5.780   6.774   3.162  0.3240 -0.2013 -0.6120
  536MOL0     O72228   5.815   6.647   3.132  0.7080  0.2626  0.6400
  536MOL0     C72229   5.842   6.545   3.220  0.5386 -0.5415 -0.8099
  536MOL0     C72230   5.842   6.548   3.360  0.5493 -0.2527 -0.7493
  536MOL0     C72231   5.886   6.439   3.437 -0.0140  0.3248  0.0652
  536MOL0     C72232   5.933   6.317   3.383 -0.2039  0.2574 -0.8258
  536MOL0     O72233   5.971   6.208   3.454 -0.1024 -0.2661  0.7176
  536MOL0     C72234   5.901   6.180   3.564  1.2490  1.0981 -0.0481
  536MOL0     C72235   5.925   6.029   3.587  1.0553  0.1998  0.6550
  536MOL0     C72236   6.068   6.011   3.625  1.0365  0.0696 -1.2409
  536MOL0     C72237   6.103   5.862   3.605 -0.0165  1.1940 -0.6223
  536MOL0     C72238   6.241   5.826   3.665 -1.1892  0.2600 -0.5001
  536MOL0     C72239   6.273   5.678   3.634  1.2370 -0.0599  0.6658
  536MOL0     C72240   6.368   5.633   3.744 -0.1128 -0.7040 -0.5253
  536MOL0     C72241   6.502   5.705   3.763  0.0887 -0.1845 -0.6732
  536MOL0     N72242   6.593   5.672   3.651  0.2588  0.4590  0.3831
  536MOL0     C72243   6.616   5.760   3.541  0.3404  0.0445 -0.1471
  536MOL0     C72244   6.692   5.683   3.462 -0.2805 -0.0275 -0.4537
  536MOL0     C72245   6.751   5.731   3.332  0.1198  0.6722 -0.0147
  536MOL0     C72246   6.846   5.846   3.353  0.5221  0.3991  0.8924
  536MOL0     C72247   6.901   5.913   3.226 -0.5847 -0.4389  0.2411
  536MOL0     C72248   6.963   6.051   3.252  0.0214 -0.2190  0.7673
  536MOL0     O72249   6.875   6.144   3.306  0.4547 -0.3597 -0.5491
  536MOL0     C72250   6.924   6.265   3.344 -0.1218 -0.5378  0.0235
  536MOL0     C72251   6.828   6.359   3.382 -0.0499  0.0571 -1.0901
  536MOL0     C72252   6.865   6.489   3.435 -0.4098 -0.2885  0.4154
  536MOL0     C72253   7.002   6.528   3.443 -0.2637  0.1685 -0.6556
  536MOL0     C72254   7.035   6.671   3.463  0.0895  0.7116 -0.7321
  536MOL0     O72255   7.163   6.712   3.434  0.8903 -0.1373 -0.9096
  536MOL0     C72256   7.189   6.847   3.451 -0.5157  0.0072 -0.2329
  536MOL0     C72257   7.108   6.958   3.406 -0.9108  0.3647 -1.1975
  536MOL0     C72258   7.169   7.089   3.400 -0.8585 -0.3435 -0.4687
  536MOL0     C72259   7.293   7.123   3.459 -0.6474 -0.3586  0.6752
  536MOL0     O72260   7.355   7.250   3.466  0.5038 -0.0426 -0.7519
  536MOL0     C72261   7.276   7.369   3.454 -0.9062 -0.2771 -0.0110
  536MOL0     C72262   7.370   7.494   3.474  0.5132 -0.5103 -0.0836
  536MOL0     C72263   7.401   7.521   3.627 -0.1525 -0.3571  0.0154
  536MOL0     C72264   7.516   7.624   3.639 -0.3973 -0.3006 -0.6389
  536MOL0     C72265   7.547   7.664   3.784 -0.0505  0.8781 -0.2808
  536MOL0     C72266   7.602   7.539   3.864 -0.4895 -0.1697 -0.4457
  536MOL0     C72267   7.593   7.572   4.014  0.0098 -0.1256  0.7957
  536MOL0     C72268   7.451   7.577   4.072 -0.0983  0.7718  0.0026
  536MOL0    Cl72269   7.361   7.432   4.039 -0.0543 -0.0186  0.8992
  536MOL0     C72270   7.369   7.008   3.501  0.8681  0.6452  0.3510
  536MOL0     C72271   7.312   6.874   3.513  0.3873 -0.7014 -1.0421
  536MOL0     O72272   6.948   6.743   3.523 -0.3706  0.5738 -0.2299
  536MOL0     C72273   7.100   6.433   3.392  0.5810 -0.3112  0.0123
  536MOL0     C72274   7.063   6.303   3.355 -0.3147  0.5719  0.1330
  536MOL0     N72275   6.714   5.564   3.518  0.1187  0.0677 -0.0215
  536MOL0     N72276   6.654   5.556   3.629 -0.5785 -0.0435  0.3534
  536MOL0     C72277   5.922   6.309   3.248 -0.2980 -0.8610 -0.3027
  536MOL0     C72278   5.888   6.426   3.170  0.7343  0.3692 -0.2866
  536MOL0     C72279   5.718   6.865   3.055  0.2992 -0.1841  0.5636
  536MOL0     C72280   5.667   6.800   2.939  0.0914  1.2645 -0.1548
  536MOL0     C72281   5.620   6.875   2.832 -0.1067  0.7207 -0.4700
  536MOL0     C72282   5.611   7.013   2.836  0.0793 -0.1241  0.8925
  536MOL0     O72283   5.541   7.088   2.743 -0.9385  0.5062 -0.1916
  536MOL0     C72284   5.529   7.053   2.604 -0.2122 -0.5593 -0.6655
  536MOL0     C72285   5.382   7.002   2.585  0.1989  0.0888  0.1825
  536MOL0     C72286   5.263   7.093   2.624  0.2302  0.5633  0.6239
  536MOL0     C72287   5.293   7.241   2.576  0.0160  0.4697 -0.7263
  536MOL0     C72288   5.166   7.305   2.544 -0.0782 -0.4784  0.1952
  536MOL0     C72289   5.059   7.356   2.516  0.7627  0.7484 -0.0493
  536MOL0     C72290   5.668   7.080   2.947 -0.1785  0.1093  0.1698
  536MOL0     C72291   5.715   7.008   3.057  0.9065 -0.9208 -0.0597
  536MOL0     C72292   5.783   7.097   3.161 -0.3000 -0.0778 -0.2968
  536MOL0     H72293   5.816   6.637   3.417 -3.2651 -1.5229 -0.2051
  536MOL0     H72294   5.868   6.452   3.544  0.1141  0.6679  0.0462
  536MOL0     H72295   5.942   6.239   3.647 -2.1289 -0.1117  2.7233
  536MOL0     H72296   5.797   6.202   3.537  2.0939  1.5907 -3.2456
  536MOL0     H72297   5.913   5.977   3.491 -1.8121  0.4488  0.7881
  536MOL0     H72298   5.839   5.981   3.634  0.8819 -3.4621 -2.8798
  536MOL0     H72299   6.077   6.048   3.728  1.0227  0.3997 -1.3551
  536MOL0     H72300   6.143   6.074   3.575  0.8859  1.1412 -0.1923
  536MOL0     H72301   6.037   5.793   3.657  1.4526 -0.1185 -0.4094
  536MOL0     H72302   6.099   5.829   3.501  1.7011 -1.8301  0.1552
  536MOL0     H72303   6.315   5.893   3.620 -0.9653  0.5535  0.2883
  536MOL0     H72304   6.235   5.841   3.774 -0.7572 -0.0959 -0.4221
  536MOL0     H72305   6.178   5.622   3.635  0.2397  1.5787  1.8829
  536MOL0     H72306   6.316   5.676   3.534  2.9680  0.8483  1.3653
  536MOL0     H72307   6.392   5.526   3.738 -0.5084 -1.0310  2.3118
  536MOL0     H72308   6.310   5.652   3.835 -0.1050  0.8673 -0.8204
  536MOL0     H72309   6.493   5.808   3.798 -0.9977  0.4627 -2.7006
  536MOL0     H72310   6.539   5.667   3.859  0.1731  1.0127 -0.2152
  536MOL0     H72311   6.581   5.862   3.531 -0.0844 -0.1819 -1.0423
  536MOL0     H72312   6.808   5.646   3.295 -0.8782  1.6644 -4.4212
  536MOL0     H72313   6.668   5.752   3.264 -1.7032 -2.8185  0.8825
  536MOL0     H72314   6.790   5.920   3.411 -0.5704 -1.0746  1.7896
  536MOL0     H72315   6.933   5.807   3.405  1.4304  0.2041 -0.6965
  536MOL0     H72316   6.818   5.943   3.161 -1.2690  0.5755  1.5435
  536MOL0     H72317   6.973   5.847   3.177 -0.4855  0.2869 -0.6260
  536MOL0     H72318   6.992   6.093   3.155 -2.2466  1.3571  0.7057
  536MOL0     H72319   7.062   6.038   3.299  0.8494 -2.0880 -1.3193
  536MOL0     H72320   6.723   6.334   3.375  0.0892 -1.8082  1.8974
  536MOL0     H72321   6.785   6.560   3.452  0.3964  1.4228 -2.1933
  536MOL0     H72322   7.007   6.948   3.368 -1.5334  1.7091 -0.0042
  536MOL0     H72323   7.107   7.167   3.356 -1.1684  1.6743  3.1127
  536MOL0     H72324   7.235   7.381   3.354  0.5537 -1.3054 -0.7695
  536MOL0     H72325   7.192   7.360   3.524 -2.3788  1.2538 -1.4902
  536MOL0     H72326   7.458   7.473   3.413  0.9480 -1.8933  0.9582
  536MOL0     H72327   7.324   7.585   3.436  1.1802 -0.2189 -0.2173
  536MOL0     H72328   7.312   7.565   3.672 -0.0116  0.2850 -0.3184
  536MOL0     H72329   7.434   7.432   3.682  2.9581  0.4224 -0.3801
  536MOL0     H72330   7.477   7.707   3.580 -1.3024 -0.6205 -0.5087
  536MOL0     H72331   7.599   7.582   3.581  1.4822  1.7918  0.3789
  536MOL0     H72332   7.455   7.709   3.820 -1.0143 -1.5582  0.5352
  536MOL0     H72333   7.625   7.741   3.793  0.3457  0.3869  0.6403
  536MOL0     H72334   7.550   7.444   3.851 -0.8810 -0.5564  3.0181
  536MOL0     H72335   7.702   7.522   3.825 -0.7737 -3.8100  0.0596
  536MOL0     H72336   7.634   7.672   4.028  0.6326  0.3231 -3.1944
  536MOL0     H72337   7.653   7.499   4.069  0.4558  0.8548  1.6277
  536MOL0     H72338   7.461   7.575   4.181 -0.7750 -0.8306  0.0578
  536MOL0     H72339   7.390   7.663   4.045 -1.8533  0.0720  1.5392
  536MOL0     H72340   7.469   7.023   3.539  1.7107 -1.1950 -0.9862
  536MOL0     H72341   7.374   6.804   3.568 -0.2514 -0.2440  0.3057
  536MOL0     H72342   7.205   6.461   3.385 -0.1640  2.3641 -3.1934
  536MOL0     H72343   7.150   6.250   3.317  0.5355  1.9337  0.1085
  536MOL0     H72344   5.955   6.221   3.194 -1.7798 -0.9521 -1.1162
  536MOL0     H72345   5.901   6.413   3.063  2.8979 -1.1159  0.0950
  536MOL0     H72346   5.665   6.691   2.942  1.4685  1.0816 -2.7629
  536MOL0     H72347   5.579   6.829   2.743  2.4333  0.5716 -1.6667
  536MOL0     H72348   5.609   6.982   2.584  1.7423  1.3757 -0.1231
  536MOL0     H72349   5.548   7.145   2.547 -3.8806  0.3112 -0.7434
  536MOL0     H72350   5.375   6.909   2.642  0.9562  0.2605  0.5620
  536MOL0     H72351   5.371   6.969   2.481  0.7794 -0.3063  0.2443
  536MOL0     H72352   5.253   7.091   2.733 -1.4921 -0.0851  0.4864
  536MOL0     H72353   5.168   7.064   2.578  0.7059  1.4806 -1.0157
  536MOL0     H72354   5.351   7.302   2.646  2.9793  1.1494 -3.5259
  536MOL0     H72355   5.349   7.253   2.483  1.7357 -2.7528 -0.2467
  536MOL0     H72356   4.962   7.402   2.511  0.0811 -0.5618  0.5771
  536MOL0     H72357   5.651   7.187   2.941 -1.7842 -0.1867 -2.5221
  536MOL0     H72358   5.891   7.086   3.149  0.3568  5.5682 -2.6376
  536MOL0     H72359   5.763   7.204   3.151 -0.5310  0.0110  0.9478
  536MOL0     H72360   5.765   7.063   3.263  2.3704  2.4328  1.1687
  537MOL0     O72361   9.246   8.103  10.473 -0.1979 -0.2413  0.0248
  537MOL0     C72362   9.323   8.183  10.519  0.3654  0.1923  0.3918
  537MOL0     O72363   9.349   8.302  10.468 -0.5837  0.1742  0.1123
  537MOL0     C72364   9.299   8.316  10.342  0.9868 -0.5959 -0.0940
  537MOL0     C72365   9.209   8.427  10.333  0.0957 -0.8447 -0.4394
  537MOL0     C72366   9.150   8.453  10.202 -0.0231 -0.5402  0.1665
  537MOL0     C72367   9.186   8.366  10.094 -0.7867 -0.0956 -0.3315
  537MOL0     O72368   9.114   8.392   9.980  0.0834 -0.2359  0.2659
  537MOL0     C72369   9.195   8.363   9.855  0.0983 -0.1548  0.1679
  537MOL0     C72370   9.117   8.423   9.730  0.1421 -0.8322 -0.6781
  537MOL0     C72371   9.109   8.580   9.731  0.6393 -1.2135  0.6408
  537MOL0     C72372   9.092   8.633   9.586  0.4458  0.2672 -0.5677
  537MOL0     C72373   8.986   8.569   9.490  0.1142  0.3260  0.0124
  537MOL0     C72374   8.978   8.645   9.362  0.6978  0.0021  0.1960
  537MOL0     C72375   8.893   8.563   9.265  0.5312 -0.2327  0.5277
  537MOL0     C72376   8.975   8.479   9.171 -0.0975 -0.3781  0.2075
  537MOL0     N72377   8.882   8.401   9.091  0.1356  0.1822  0.6535
  537MOL0     C72378   8.826   8.273   9.127 -0.9022  0.1180  0.0074
  537MOL0     C72379   8.732   8.250   9.041 -0.0864  0.5845  0.8667
  537MOL0     C72380   8.623   8.151   9.032 -0.3595  0.1887  0.0382
  537MOL0     C72381   8.491   8.214   9.087 -0.8553  0.5660 -0.1447
  537MOL0     C72382   8.482   8.238   9.236  0.9347 -0.4978 -0.9637
  537MOL0     C72383   8.344   8.288   9.278  0.2864 -0.4772 -0.0143
  537MOL0     O72384   8.351   8.276   9.426 -0.7654  0.5570  0.3540
  537MOL0     C72385   8.326   8.158   9.494 -0.2483  0.3694  0.2532
  537MOL0     C72386   8.265   8.049   9.422  0.2724  0.2010  0.7940
  537MOL0     C72387   8.234   7.924   9.485  0.0231 -0.4506 -0.6163
  537MOL0     C72388   8.252   7.919   9.629  0.4538 -0.6353 -0.9552
  537MOL0     C72389   8.214   7.806   9.701 -0.0731  0.5963 -0.7074
  537MOL0     O72390   8.285   7.785   9.820 -0.4848 -0.3635 -0.6858
  537MOL0     C72391   8.261   7.685   9.911 -0.4795 -0.3343 -1.1216
  537MOL0     C72392   8.357   7.644  10.001  0.2136  0.3555 -0.0806
  537MOL0     C72393   8.339   7.541  10.099  0.3701 -0.5260 -0.4061
  537MOL0     C72394   8.220   7.473  10.111  0.2918 -0.1355  0.3724
  537MOL0     O72395   8.198   7.393  10.221  0.2053 -0.1904  0.6735
  537MOL0     C72396   8.083   7.438  10.291  0.1277 -0.1014  0.2922
  537MOL0     C72397   8.061   7.330  10.394 -0.7587  0.1443  0.2881
  537MOL0     C72398   8.169   7.324  10.502  0.3330  0.1467 -0.1180
  537MOL0     C72399   8.142   7.406  10.623  0.1571 -0.5578  0.1727
  537MOL0     C72400   8.032   7.349  10.718  0.2641  0.7867  0.5437
  537MOL0     C72401   8.076   7.369  10.867 -0.3454 -0.4978  0.1533
  537MOL0     C72402   7.951   7.353  10.953  1.0426  0.7419 -0.7304
  537MOL0     C72403   7.828   7.452  10.953 -0.0183  0.9668 -0.3516
  537MOL0    Cl72404   7.893   7.606  11.030 -0.3622  0.1407 -0.1112
  537MOL0     C72405   8.106   7.517  10.023  0.8246  0.2749 -0.2807
  537MOL0     C72406   8.135   7.621   9.930 -0.3912  0.2168  0.2840
  537MOL0     O72407   8.127   7.735   9.657  0.1537  0.7060 -0.1213
  537MOL0     C72408   8.306   8.028   9.693  0.3402 -0.7278 -1.2247
  537MOL0     C72409   8.345   8.150   9.631 -0.6198  1.3573  0.7070
  537MOL0     N72410   8.738   8.351   8.951 -0.1568 -0.3518 -0.6611
  537MOL0     N72411   8.830   8.443   8.979 -0.2268 -0.1151  0.3832
  537MOL0     C72412   9.281   8.268  10.111  0.2596  0.5081  0.9228
  537MOL0     C72413   9.337   8.247  10.229 -0.6274 -0.5859 -0.4874
  537MOL0     C72414   9.377   8.177  10.657 -0.0715 -0.3383 -0.2144
  537MOL0     C72415   9.432   8.293  10.719 -0.2645  0.3911 -0.3575
  537MOL0     C72416   9.490   8.300  10.846 -0.0249  0.0000  0.3939
  537MOL0     C72417   9.492   8.186  10.916  0.7603  0.1213  0.4103
  537MOL0     O72418   9.515   8.190  11.053  0.1525 -0.1606 -0.7983
  537MOL0     C72419   9.482   8.087  11.152 -0.7023 -0.6404  0.0639
  537MOL0     C72420   9.522   8.153  11.275 -0.1868  0.4378 -0.9695
  537MOL0     C72421   9.523   8.058  11.396  0.6595  1.5832 -0.8549
  537MOL0     C72422   9.412   7.960  11.407 -1.0099  0.2608  0.6659
  537MOL0     C72423   9.284   8.030  11.390 -0.7656 -0.4263  0.0476
  537MOL0     C72424   9.187   8.092  11.360 -1.1060  0.4479 -0.3583
  537MOL0     C72425   9.445   8.063  10.860  1.0330  0.7022 -0.2098
  537MOL0     C72426   9.384   8.057  10.729 -0.2025 -0.3990 -0.1776
  537MOL0     C72427   9.365   7.909  10.681 -0.3658  0.5791 -0.2789
  537MOL0     H72428   9.191   8.506  10.404  0.7283  1.0378 -2.2779
  537MOL0     H72429   9.081   8.534  10.181 -1.2228 -1.6811 -0.4303
  537MOL0     H72430   9.293   8.410   9.862 -0.6493  2.1051 -2.4985
  537MOL0     H72431   9.209   8.255   9.845  1.4555  0.1819 -2.4884
  537MOL0     H72432   9.017   8.379   9.728 -0.8150  1.2568 -1.2041
  537MOL0     H72433   9.172   8.388   9.643  1.0198 -2.2417  0.3933
  537MOL0     H72434   9.202   8.609   9.782  1.3948  0.6013 -1.6235
  537MOL0     H72435   9.024   8.606   9.795 -2.0131 -0.6920 -2.8208
  537MOL0     H72436   9.085   8.742   9.582  1.6146  0.3835  0.0683
  537MOL0     H72437   9.183   8.598   9.536 -0.6758  1.2337 -3.4698
  537MOL0     H72438   9.000   8.462   9.474  0.6682  0.0755  1.9506
  537MOL0     H72439   8.887   8.581   9.534 -0.0157  0.8413 -0.4000
  537MOL0     H72440   8.940   8.746   9.378 -0.3180 -0.4667  0.8215
  537MOL0     H72441   9.081   8.648   9.327  0.1161 -0.7684 -1.7323
  537MOL0     H72442   8.823   8.623   9.206  0.5514  0.7694  1.4856
  537MOL0     H72443   8.832   8.491   9.322  1.7956 -1.8677 -0.0805
  537MOL0     H72444   9.043   8.532   9.104  0.6675 -1.8526 -0.2061
  537MOL0     H72445   9.040   8.404   9.217 -1.1689 -0.7960  1.0707
  537MOL0     H72446   8.840   8.222   9.222 -4.3406 -2.5920 -0.7400
  537MOL0     H72447   8.610   8.112   8.931  4.0881 -0.6594 -0.4419
  537MOL0     H72448   8.652   8.076   9.106  0.6793 -2.1118 -2.5133
  537MOL0     H72449   8.482   8.306   9.029 -2.7510  1.5590  1.6045
  537MOL0     H72450   8.409   8.146   9.061 -2.2288  2.2204 -0.3399
  537MOL0     H72451   8.558   8.301   9.283  2.3959 -3.7367  1.4024
  537MOL0     H72452   8.500   8.138   9.277 -2.8637 -0.6988  0.6228
  537MOL0     H72453   8.255   8.235   9.242 -1.9604  3.5212 -1.0125
  537MOL0     H72454   8.348   8.393   9.245 -0.6158 -1.5198 -4.1045
  537MOL0     H72455   8.230   8.046   9.320  1.1328  0.3803  0.4839
  537MOL0     H72456   8.202   7.849   9.413  0.8209  0.6870 -2.2093
  537MOL0     H72457   8.455   7.691   9.996  0.0599  0.8523  1.0999
  537MOL0     H72458   8.422   7.533  10.168 -0.0796  0.0925  0.2245
  537MOL0     H72459   8.095   7.537  10.337 -0.8948  0.8674 -1.4303
  537MOL0     H72460   7.995   7.445  10.227 -0.6640 -1.2311  1.2064
  537MOL0     H72461   7.964   7.345  10.442  0.2855 -1.2380  3.0247
  537MOL0     H72462   8.056   7.232  10.345  1.5072  0.5645 -0.9334
  537MOL0     H72463   8.190   7.220  10.531  1.9157  0.3105 -0.5566
  537MOL0     H72464   8.267   7.351  10.461  1.6309  1.3572  3.3754
  537MOL0     H72465   8.123   7.508  10.587  1.0469  1.2705  4.2971
  537MOL0     H72466   8.230   7.421  10.687 -1.5598  0.3378  2.4775
  537MOL0     H72467   8.012   7.244  10.693 -4.0998  1.5910 -0.1999
  537MOL0     H72468   7.944   7.408  10.692 -1.4341 -2.1635 -0.9988
  537MOL0     H72469   8.155   7.302  10.902  0.8821  0.4568 -0.6926
  537MOL0     H72470   8.125   7.466  10.884  0.8242 -0.8716 -0.9543
  537MOL0     H72471   7.979   7.348  11.059 -2.6507  2.2995  0.4825
  537MOL0     H72472   7.915   7.254  10.923 -1.4587  1.6228 -0.8405
  537MOL0     H72473   7.794   7.463  10.850 -2.3311 -1.7034  0.0095
  537MOL0     H72474   7.745   7.409  11.009  2.8891 -1.1164  2.7720
  537MOL0     H72475   8.006   7.475  10.023  2.5520 -4.3570  0.8564
  537MOL0     H72476   8.055   7.668   9.872  0.5697  0.3827 -0.9479
  537MOL0     H72477   8.310   8.030   9.801  1.7080  0.5699 -1.2714
  537MOL0     H72478   8.391   8.227   9.692  1.0160 -0.3224  1.6974
  537MOL0     H72479   9.295   8.206  10.023  2.1921  2.1344  0.0287
  537MOL0     H72480   9.410   8.167  10.223 -0.7375 -0.6550 -5.2695
  537MOL0     H72481   9.420   8.382  10.659 -1.4892  0.3697 -0.1735
  537MOL0     H72482   9.527   8.391  10.891  4.5697  0.5821 -3.7910
  537MOL0     H72483   9.533   7.991  11.149 -1.2861 -1.0923  2.6066
  537MOL0     H72484   9.376   8.059  11.145 -0.3168 -2.3900  0.7120
  537MOL0     H72485   9.458   8.242  11.283  0.8750  1.2379 -1.0745
  537MOL0     H72486   9.623   8.195  11.273 -0.2724  1.0163  1.9332
  537MOL0     H72487   9.524   8.112  11.491 -1.3380 -1.5365  1.1511
  537MOL0     H72488   9.611   7.994  11.385  0.0877  1.1182 -3.6201
  537MOL0     H72489   9.432   7.877  11.339  0.8151  0.3956  0.9870
  537MOL0     H72490   9.422   7.911  11.504  2.0594 -0.5204  0.0505
  537MOL0     H72491   9.114   8.163  11.325 -2.1691  1.0703  2.7361
  537MOL0     H72492   9.464   7.971  10.914 -1.1780  1.3306  1.7723
  537MOL0     H72493   9.289   7.861  10.744 -0.8726 -0.6498 -1.7518
  537MOL0     H72494   9.334   7.895  10.577  1.9096 -0.2909 -0.9011
  537MOL0     H72495   9.461   7.856  10.681  1.3936  3.5389 -1.7687
  538MOL0     O72496   5.828   2.201   7.628 -0.1553 -0.1925 -0.2091
  538MOL0     C72497   5.834   2.090   7.680  0.3110  0.2526  1.4685
  538MOL0     O72498   5.940   2.054   7.751  0.0245  0.1061 -0.2965
  538MOL0     C72499   6.053   2.129   7.771  0.9572  0.0466 -0.1655
  538MOL0     C72500   6.104   2.119   7.903  1.0216 -0.2957  0.2201
  538MOL0     C72501   6.227   2.185   7.932 -0.2899  0.0747  0.9760
  538MOL0     C72502   6.299   2.250   7.833  0.4963 -0.4309 -0.0776
  538MOL0     O72503   6.415   2.319   7.860 -0.0540  0.2992  0.5989
  538MOL0     C72504   6.519   2.224   7.899 -0.2677 -0.1557  0.3371
  538MOL0     C72505   6.627   2.293   7.985 -0.2675  0.4135  0.6394
  538MOL0     C72506   6.575   2.340   8.122  0.2291  1.0136 -0.2410
  538MOL0     C72507   6.529   2.217   8.196 -1.2255  0.2292 -0.5252
  538MOL0     C72508   6.473   2.258   8.338 -0.3597  0.1335 -0.4128
  538MOL0     C72509   6.338   2.325   8.340  0.8396 -0.4816  0.9924
  538MOL0     C72510   6.287   2.324   8.485 -0.1083 -0.4266  0.8433
  538MOL0     C72511   6.143   2.359   8.494  0.3157 -0.8122  0.4352
  538MOL0     N72512   6.092   2.372   8.632  0.2367  0.3498  0.2772
  538MOL0     C72513   6.072   2.259   8.717  0.0316 -0.1745 -0.1802
  538MOL0     C72514   6.048   2.314   8.843  0.1832  0.1218 -0.8501
  538MOL0     C72515   6.028   2.239   8.963 -0.0992  0.7019  0.5799
  538MOL0     C72516   5.913   2.138   8.961 -0.5907 -0.7270  0.6445
  538MOL0     C72517   5.877   2.109   9.109  0.4511 -0.2624  0.0106
  538MOL0     C72518   5.729   2.053   9.127 -0.2712 -0.2687  0.6952
  538MOL0     O72519   5.704   1.938   9.044 -0.0161  0.4604 -0.1354
  538MOL0     C72520   5.704   1.813   9.095 -0.0851  0.3662  0.1516
  538MOL0     C72521   5.772   1.786   9.213  0.9602 -0.6864  0.2836
  538MOL0     C72522   5.782   1.655   9.257 -0.0976  0.3131  0.1205
  538MOL0     C72523   5.746   1.544   9.186 -0.5314 -0.7148 -0.2897
  538MOL0     C72524   5.749   1.409   9.240 -1.2536  1.2771  0.0274
  538MOL0     O72525   5.856   1.377   9.313 -0.2344 -0.7239  0.6413
  538MOL0     C72526   5.887   1.253   9.350 -0.5226  0.8175 -0.2826
  538MOL0     C72527   5.888   1.139   9.269  0.0845 -0.3904  0.7559
  538MOL0     C72528   5.941   1.015   9.310  0.6946  0.4091 -0.7379
  538MOL0     C72529   6.002   1.003   9.430  0.2968  0.3196  0.4434
  538MOL0     O72530   6.076   0.890   9.457  0.0730  0.1396 -0.3402
  538MOL0     C72531   6.120   0.851   9.585  0.0205 -0.3635 -0.3205
  538MOL0     C72532   6.023   0.849   9.714  0.1616 -0.0352  0.4742
  538MOL0     C72533   5.895   0.773   9.677 -0.5525  0.3737  0.0613
  538MOL0     C72534   5.918   0.614   9.657 -0.1913 -0.2814  0.1731
  538MOL0     C72535   5.790   0.542   9.660 -0.0606  0.1226  0.6769
  538MOL0     C72536   5.753   0.510   9.812 -0.0101  0.4336  0.7494
  538MOL0     C72537   5.618   0.445   9.803 -0.2075  0.7631 -0.5577
  538MOL0     C72538   5.627   0.287   9.754 -0.2299  0.3216 -0.3299
  538MOL0    Cl72539   5.674   0.175   9.878 -0.1167  0.0631 -0.1215
  538MOL0     C72540   6.026   1.123   9.512  0.0498  1.1657  0.2537
  538MOL0     C72541   5.965   1.239   9.472  1.1893 -0.0948 -0.1908
  538MOL0     O72542   5.652   1.339   9.223  0.2582  0.0667  0.4195
  538MOL0     C72543   5.695   1.568   9.053 -0.7877 -0.5885  0.2831
  538MOL0     C72544   5.673   1.701   9.014  0.7424 -0.6125  1.1399
  538MOL0     N72545   6.036   2.451   8.826 -0.4946 -0.2926  0.6099
  538MOL0     N72546   6.072   2.484   8.703  0.3293 -0.6008 -0.2234
  538MOL0     C72547   6.240   2.267   7.706 -0.0508  1.1488 -0.0137
  538MOL0     C72548   6.117   2.194   7.671 -0.0886 -0.9702  0.4967
  538MOL0     C72549   5.717   2.002   7.666 -0.0717  0.1545 -0.2345
  538MOL0     C72550   5.602   2.063   7.614 -0.1278 -0.3390  0.1053
  538MOL0     C72551   5.479   1.991   7.629 -0.6519 -0.0259 -0.0734
  538MOL0     C72552   5.473   1.859   7.684  1.1127 -0.8788 -0.0353
  538MOL0     O72553   5.354   1.788   7.680 -0.4007  0.3080  0.3889
  538MOL0     C72554   5.243   1.845   7.747  0.1246  0.9893 -1.0530
  538MOL0     C72555   5.232   1.791   7.890  0.0620 -0.1325  0.2827
  538MOL0     C72556   5.109   1.830   7.973  0.4581  0.4287 -0.0462
  538MOL0     C72557   4.987   1.748   7.939  0.4340  0.0947 -0.4069
  538MOL0     C72558   4.860   1.794   8.002 -0.9725 -0.0142 -0.5449
  538MOL0     C72559   4.755   1.822   8.047  0.3046  0.2556 -0.3969
  538MOL0     C72560   5.588   1.805   7.735 -0.1540 -0.9189  0.1295
  538MOL0     C72561   5.718   1.873   7.726  0.2663  0.1311 -0.0145
  538MOL0     C72562   5.840   1.793   7.780  0.7508  0.2957 -0.1308
  538MOL0     H72563   6.062   2.063   7.986  1.7933  1.8925  2.1826
  538MOL0     H72564   6.245   2.179   8.039  0.5522  0.6476  0.8747
  538MOL0     H72565   6.480   2.132   7.943  0.0798 -0.9351 -0.9555
  538MOL0     H72566   6.564   2.179   7.811  2.8538 -3.3557  3.2427
  538MOL0     H72567   6.651   2.378   7.921 -0.9061  1.1427  1.3298
  538MOL0     H72568   6.712   2.227   8.001 -2.3653 -2.1803  1.9383
  538MOL0     H72569   6.481   2.395   8.111 -1.6851 -2.2643 -1.7770
  538MOL0     H72570   6.653   2.395   8.175  1.0636 -1.3642  1.2037
  538MOL0     H72571   6.447   2.164   8.145 -0.4332  0.6169 -2.2794
  538MOL0     H72572   6.612   2.149   8.220 -1.5100 -0.2523 -0.8812
  538MOL0     H72573   6.452   2.163   8.389 -0.4773 -1.7930 -3.7344
  538MOL0     H72574   6.535   2.323   8.400 -1.9013 -1.7952  3.5021
  538MOL0     H72575   6.355   2.430   8.314  0.4774 -0.1070  2.1985
  538MOL0     H72576   6.276   2.265   8.273 -2.0215 -0.0931  3.1095
  538MOL0     H72577   6.332   2.410   8.535  2.9746 -1.7092  0.5419
  538MOL0     H72578   6.300   2.230   8.538  2.3741  1.1723  3.3524
  538MOL0     H72579   6.125   2.450   8.437 -3.1145 -1.6739 -0.0919
  538MOL0     H72580   6.101   2.283   8.427  1.2201 -3.3795  2.5841
  538MOL0     H72581   6.080   2.153   8.696 -3.0231 -0.6195  0.3269
  538MOL0     H72582   6.120   2.185   8.984 -1.9270 -2.4622  1.1486
  538MOL0     H72583   6.000   2.325   9.026 -2.6184  2.3379 -2.4537
  538MOL0     H72584   5.820   2.165   8.910  0.1411  1.3026  0.2912
  538MOL0     H72585   5.948   2.053   8.902  1.5743 -0.2350  1.1533
  538MOL0     H72586   5.876   2.200   9.170 -0.2710 -0.4758  0.3194
  538MOL0     H72587   5.951   2.044   9.158  0.8265  0.3779  0.3002
  538MOL0     H72588   5.663   2.130   9.085  0.2714 -1.6345 -3.0695
  538MOL0     H72589   5.713   2.043   9.235 -0.3090  0.9066  0.8117
  538MOL0     H72590   5.802   1.863   9.284  1.1025  0.6488 -1.1683
  538MOL0     H72591   5.835   1.643   9.351  1.7134 -3.4533 -1.1765
  538MOL0     H72592   5.849   1.150   9.168  4.3420  1.2282 -0.9449
  538MOL0     H72593   5.938   0.934   9.238  0.9849  1.3048 -1.7643
  538MOL0     H72594   6.144   0.747   9.562  3.5292 -0.0433  1.2822
  538MOL0     H72595   6.215   0.900   9.608  1.1520 -1.6119 -2.0820
  538MOL0     H72596   6.075   0.806   9.800 -0.3424  0.8068  1.2256
  538MOL0     H72597   5.985   0.947   9.745 -1.5378 -0.0073 -1.5334
  538MOL0     H72598   5.840   0.791   9.770  0.8467  2.7885  0.4857
  538MOL0     H72599   5.844   0.823   9.594  2.2140 -0.2815 -2.1865
  538MOL0     H72600   5.990   0.592   9.736  4.3917 -0.6789 -3.6150
  538MOL0     H72601   5.972   0.595   9.563 -3.3637  0.9264 -2.0824
  538MOL0     H72602   5.804   0.453   9.599  0.4427  0.2084  0.6660
  538MOL0     H72603   5.714   0.593   9.601  1.0338  1.1952  0.1579
  538MOL0     H72604   5.833   0.450   9.855  1.2992  1.4957 -0.1465
  538MOL0     H72605   5.741   0.598   9.876  1.5402  1.0632  0.2198
  538MOL0     H72606   5.562   0.498   9.725  0.0014 -0.3976 -1.5381
  538MOL0     H72607   5.561   0.466   9.894 -0.3530  0.8408 -0.6653
  538MOL0     H72608   5.531   0.258   9.710 -0.0314 -0.7896 -0.0377
  538MOL0     H72609   5.691   0.278   9.666 -1.2241  1.4973 -1.2154
  538MOL0     H72610   6.099   1.129   9.591  1.8529 -0.5697 -1.1839
  538MOL0     H72611   5.994   1.325   9.532  3.3693 -1.5703  0.9970
  538MOL0     H72612   5.681   1.481   8.990  1.4252 -0.3550 -0.6421
  538MOL0     H72613   5.627   1.728   8.919  1.2087  1.6271  1.5057
  538MOL0     H72614   6.281   2.335   7.632 -1.4151  2.8990  0.7671
  538MOL0     H72615   6.068   2.220   7.578 -3.1409  0.6230  2.3969
  538MOL0     H72616   5.596   2.168   7.586  2.1736 -0.6464 -1.9058
  538MOL0     H72617   5.384   2.037   7.602 -0.2632 -0.1884 -1.8244
  538MOL0     H72618   5.152   1.830   7.688 -1.2216 -0.3212  1.2206
  538MOL0     H72619   5.248   1.955   7.751 -2.3354  1.1328  0.7675
  538MOL0     H72620   5.320   1.821   7.949  0.1099 -0.0521  0.1696
  538MOL0     H72621   5.231   1.683   7.873  0.1270 -0.1305  0.2652
  538MOL0     H72622   5.090   1.937   7.964 -2.9859 -0.2127 -2.4990
  538MOL0     H72623   5.134   1.813   8.078  3.7936 -1.4926 -0.9950
  538MOL0     H72624   4.979   1.771   7.833  0.5632  0.6360 -0.3026
  538MOL0     H72625   5.009   1.642   7.958  2.6452  0.5096 -0.3191
  538MOL0     H72626   4.670   1.849   8.106 -0.6932  1.9524 -2.4724
  538MOL0     H72627   5.569   1.710   7.784 -2.9530  0.1358  1.3581
  538MOL0     H72628   5.920   1.785   7.707  1.6475 -1.3315  0.9502
  538MOL0     H72629   5.880   1.833   7.874  1.7822  4.0692 -1.9724
  538MOL0     H72630   5.800   1.695   7.806  1.5084  0.4602  1.8323
  539MOL0     O72631   1.484   9.024   6.847 -0.5709 -0.1927 -0.8579
  539MOL0     C72632   1.477   9.021   6.975 -0.5006 -0.5189  0.2318
  539MOL0     O72633   1.476   9.132   7.057  0.6996  0.0406  0.4431
  539MOL0     C72634   1.511   9.261   7.022  0.1750  0.0611 -0.0631
  539MOL0     C72635   1.562   9.306   6.897 -0.0787  0.9093 -0.1405
  539MOL0     C72636   1.581   9.447   6.878 -0.0643 -0.2150 -0.0453
  539MOL0     C72637   1.567   9.533   6.994  0.7092 -0.8058  0.4814
  539MOL0     O72638   1.622   9.655   6.974  0.5893  0.2810  0.5700
  539MOL0     C72639   1.694   9.715   7.083 -0.3515  0.3402  0.2492
  539MOL0     C72640   1.798   9.805   7.014 -1.2542 -0.1055 -0.4839
  539MOL0     C72641   1.739   9.904   6.917 -1.2405 -0.7822  0.1007
  539MOL0     C72642   1.777   9.881   6.765 -0.5627 -0.5845  0.1699
  539MOL0     C72643   1.706   9.986   6.683 -0.2493  0.4487  1.0208
  539MOL0     C72644   1.729   9.961   6.530 -0.0789  0.8883 -0.8606
  539MOL0     C72645   1.679  10.078   6.433 -0.9693  0.3638 -1.0853
  539MOL0     C72646   1.775  10.197   6.424  0.0069  1.1506 -0.1125
  539MOL0     N72647   1.700  10.306   6.352  0.2309  0.0859  0.4058
  539MOL0     C72648   1.714  10.328   6.218  0.4560 -0.6608 -0.0339
  539MOL0     C72649   1.617  10.417   6.195  0.4171  0.6412 -0.0760
  539MOL0     C72650   1.597  10.473   6.054 -0.7659  1.1262  0.1504
  539MOL0     C72651   1.720  10.564   6.020 -0.6904 -0.8452 -0.1041
  539MOL0     C72652   1.698  10.626   5.877  0.3384  0.0206 -0.1560
  539MOL0     C72653   1.805  10.609   5.778 -0.2111  0.7968  0.3162
  539MOL0     O72654   1.775  10.691   5.662 -0.2850  0.9160  0.9705
  539MOL0     C72655   1.873  10.749   5.590 -0.2874 -0.2192  0.2533
  539MOL0     C72656   1.955  10.672   5.520  0.2705  0.1132 -0.2515
  539MOL0     C72657   2.065  10.725   5.456  0.7394  0.1095  1.0291
  539MOL0     C72658   2.100  10.859   5.470  0.3708  0.0242 -0.6699
  539MOL0     C72659   2.228  10.915   5.428  0.2229 -0.5582  0.4576
  539MOL0     O72660   2.304  10.822   5.361  0.1029 -0.0435 -0.0976
  539MOL0     C72661   2.414  10.857   5.289 -0.1065  0.2780 -0.6157
  539MOL0     C72662   2.430  10.825   5.156 -0.6790 -0.7551 -0.6512
  539MOL0     C72663   2.552  10.854   5.084 -0.8604  0.4807 -0.8799
  539MOL0     C72664   2.662  10.911   5.150  0.3200 -0.0717  0.0576
  539MOL0     O72665   2.786  10.940   5.093 -0.1271  0.3026  0.6842
  539MOL0     C72666   2.810  11.078   5.091 -0.0915 -0.4459 -0.2029
  539MOL0     C72667   2.856  11.139   4.957  0.5778 -0.1544 -0.7870
  539MOL0     C72668   2.870  11.284   4.944 -0.3482 -0.2388 -0.0260
  539MOL0     C72669   3.001  11.327   5.023  0.0149 -0.4265  0.0115
  539MOL0     C72670   3.031  11.477   5.007  0.6159  0.2281 -0.3884
  539MOL0     C72671   3.184  11.507   4.997 -0.4227  0.6407 -0.2279
  539MOL0     C72672   3.266  11.475   5.127 -0.6246  0.0437  0.8865
  539MOL0     C72673   3.410  11.521   5.111 -0.0124  0.4668  0.6713
  539MOL0    Cl72674   3.432  11.690   5.161 -0.1598  0.2840 -0.0076
  539MOL0     C72675   2.649  10.940   5.288  0.0789  0.0217  0.4479
  539MOL0     C72676   2.526  10.912   5.357  0.2062  0.1941  0.4101
  539MOL0     O72677   2.251  11.035   5.429 -0.2480 -0.4247 -0.8700
  539MOL0     C72678   2.011  10.942   5.547  0.0568  0.3387  1.1105
  539MOL0     C72679   1.896  10.881   5.597  0.4420 -0.0332  1.1941
  539MOL0     N72680   1.549  10.452   6.303  0.2374  0.1995  0.5962
  539MOL0     N72681   1.600  10.388   6.404 -0.7794 -0.2313 -0.6545
  539MOL0     C72682   1.522   9.483   7.122  0.6457 -0.6871 -0.2568
  539MOL0     C72683   1.491   9.347   7.130 -0.5973 -0.4986 -0.0955
  539MOL0     C72684   1.496   8.886   7.028 -0.4865 -0.4460  1.0121
  539MOL0     C72685   1.601   8.865   7.118  0.0197  0.6722  0.6682
  539MOL0     C72686   1.627   8.750   7.182  0.0331 -0.0658 -0.7220
  539MOL0     C72687   1.528   8.643   7.162 -0.5993  0.2852 -0.5622
  539MOL0     O72688   1.549   8.520   7.221 -0.5409 -0.3970 -0.6389
  539MOL0     C72689   1.636   8.506   7.329 -1.4750  0.7276  0.9892
  539MOL0     C72690   1.576   8.384   7.398  0.3220 -0.9996 -0.7910
  539MOL0     C72691   1.667   8.349   7.508  0.3713 -0.2433  0.3181
  539MOL0     C72692   1.633   8.222   7.575  0.4024  0.1382 -0.2785
  539MOL0     C72693   1.723   8.205   7.686 -0.0944  0.0263 -0.3352
  539MOL0     C72694   1.787   8.149   7.775 -1.4487  0.2340  1.0679
  539MOL0     C72695   1.424   8.660   7.071 -0.1849  1.0975 -0.3922
  539MOL0     C72696   1.409   8.775   7.000  0.4597 -0.8347 -0.9654
  539MOL0     C72697   1.287   8.793   6.916 -0.0389  0.3412 -0.0501
  539MOL0     H72698   1.596   9.232   6.825 -0.9593  0.9055 -0.5736
  539MOL0     H72699   1.628   9.491   6.790 -0.1312 -0.2266 -0.0864
  539MOL0     H72700   1.617   9.775   7.134  0.6105  0.7564  1.2334
  539MOL0     H72701   1.746   9.643   7.146  0.5324 -0.9473 -1.8540
  539MOL0     H72702   1.881   9.748   6.971 -0.8709 -0.0392  0.1528
  539MOL0     H72703   1.858   9.861   7.086 -2.0231 -1.6122  1.4058
  539MOL0     H72704   1.767  10.006   6.947  2.7316  0.1135 -5.1679
  539MOL0     H72705   1.630   9.902   6.914 -1.2552  0.4874 -0.9637
  539MOL0     H72706   1.882   9.895   6.739 -0.7327 -0.9769 -0.7613
  539MOL0     H72707   1.738   9.786   6.728 -2.2876  0.0046  0.3720
  539MOL0     H72708   1.602  10.009   6.709 -0.0943 -0.2027  2.2550
  539MOL0     H72709   1.770  10.073   6.700  1.7818 -0.6733 -0.4453
  539MOL0     H72710   1.837   9.957   6.513  0.7417  2.1902  3.1392
  539MOL0     H72711   1.668   9.875   6.503  0.8404 -0.3200  0.7607
  539MOL0     H72712   1.583  10.108   6.476 -0.0419  1.9403  0.0134
  539MOL0     H72713   1.663  10.033   6.335  0.2846 -0.8689 -0.7510
  539MOL0     H72714   1.804  10.233   6.524 -0.0516  2.9963 -0.7142
  539MOL0     H72715   1.868  10.174   6.372  0.0599 -1.6567  1.0528
  539MOL0     H72716   1.793  10.291   6.153  1.2961  3.5007 -1.6989
  539MOL0     H72717   1.585  10.393   5.981 -3.1435  3.2412 -2.0058
  539MOL0     H72718   1.499  10.523   6.051 -1.0678  0.5391  0.2172
  539MOL0     H72719   1.725  10.644   6.095  3.5517 -2.0682  1.1879
  539MOL0     H72720   1.819  10.516   6.022  3.1407  5.8363  0.5405
  539MOL0     H72721   1.683  10.732   5.900 -0.6049 -0.1680  0.1778
  539MOL0     H72722   1.601  10.595   5.838  0.8616 -0.8835 -0.7529
  539MOL0     H72723   1.821  10.504   5.751 -0.6978 -0.0617  3.0771
  539MOL0     H72724   1.898  10.647   5.821  0.1623 -2.1442  2.4571
  539MOL0     H72725   1.926  10.568   5.510 -1.1648  0.4176  0.5159
  539MOL0     H72726   2.133  10.662   5.400 -1.8040 -0.8066 -1.2897
  539MOL0     H72727   2.346  10.773   5.110 -1.6951 -0.2398  0.5654
  539MOL0     H72728   2.568  10.811   4.986 -0.2547 -4.2520  1.0527
  539MOL0     H72729   2.722  11.139   5.114  1.6117  1.9272  0.5262
  539MOL0     H72730   2.889  11.098   5.165  0.4789  1.1793 -1.1918
  539MOL0     H72731   2.956  11.098   4.940  1.4448  0.1452  2.8181
  539MOL0     H72732   2.782  11.111   4.881 -1.7151  0.2192  1.1795
  539MOL0     H72733   2.894  11.311   4.841  0.2162  2.3789  0.7257
  539MOL0     H72734   2.784  11.326   4.998 -0.2391 -1.0619  0.8246
  539MOL0     H72735   3.094  11.278   4.990  1.0430  1.0603  0.5768
  539MOL0     H72736   2.985  11.311   5.130 -0.8052  0.0627 -0.0274
  539MOL0     H72737   2.991  11.522   5.099 -2.3824 -2.8885  0.0429
  539MOL0     H72738   2.979  11.517   4.919 -2.6096 -0.0579  1.2182
  539MOL0     H72739   3.231  11.439   4.926 -0.1033  0.2255  0.3686
  539MOL0     H72740   3.195  11.611   4.963 -1.4036  0.5408 -0.8825
  539MOL0     H72741   3.262  11.370   5.156  0.3853  0.2231  1.7185
  539MOL0     H72742   3.214  11.523   5.211 -2.4519  1.6677 -1.0444
  539MOL0     H72743   3.472  11.456   5.173 -0.8289 -1.8408 -0.7944
  539MOL0     H72744   3.446  11.496   5.011 -0.8138 -2.1987  0.9809
  539MOL0     H72745   2.736  10.974   5.344  0.0548  4.2122 -1.7139
  539MOL0     H72746   2.524  10.930   5.464  0.5723  0.1130  0.4343
  539MOL0     H72747   2.017  11.049   5.564 -1.8387  0.7138 -0.2094
  539MOL0     H72748   1.825  10.945   5.648  0.8435  2.2676 -0.9068
  539MOL0     H72749   1.513   9.548   7.209  4.2873 -1.4856  0.8709
  539MOL0     H72750   1.460   9.312   7.227  0.1082  2.8286  1.4825
  539MOL0     H72751   1.671   8.946   7.132 -0.4823  1.0871  0.7909
  539MOL0     H72752   1.720   8.722   7.230  0.6155 -3.4177 -3.4294
  539MOL0     H72753   1.656   8.595   7.389  4.7550  1.0358 -0.8638
  539MOL0     H72754   1.731   8.479   7.283 -2.5911 -1.8186 -0.0625
  539MOL0     H72755   1.550   8.298   7.336 -1.9258 -2.1730  1.5920
  539MOL0     H72756   1.483   8.416   7.445 -0.9870 -5.6829  0.3434
  539MOL0     H72757   1.683   8.431   7.579 -1.2357  0.6303 -0.2690
  539MOL0     H72758   1.766   8.354   7.462 -1.6661  2.7395 -4.6228
  539MOL0     H72759   1.528   8.231   7.605  0.4080  0.0078 -0.2213
  539MOL0     H72760   1.650   8.138   7.508  0.4591  0.0347 -0.1350
  539MOL0     H72761   1.843   8.099   7.852 -2.7034 -2.4237  0.3493
  539MOL0     H72762   1.349   8.582   7.062 -0.0658  1.2387 -3.5130
  539MOL0     H72763   1.288   8.718   6.837  3.1816 -0.2710  0.4089
  539MOL0     H72764   1.195   8.785   6.975 -0.8528  1.3130 -1.1528
  539MOL0     H72765   1.283   8.889   6.864 -0.8797  0.3747  0.0697
  540MOL0     O72766   6.236   7.106   3.902  0.1844  0.2113  1.0888
  540MOL0     C72767   6.192   6.990   3.912  1.1107 -0.2295 -0.6346
  540MOL0     O72768   6.114   6.942   4.013  0.9662 -0.4276 -0.8476
  540MOL0     C72769   6.064   7.018   4.114 -2.3947 -0.5101 -0.5659
  540MOL0     C72770   6.009   6.934   4.214  0.6852 -0.7302  0.3974
  540MOL0     C72771   5.967   6.982   4.342 -1.9010  0.3584  0.0449
  540MOL0     C72772   5.973   7.124   4.371 -0.4007  0.8620  0.5763
  540MOL0     O72773   5.924   7.152   4.497  0.3254  0.0510  0.2080
  540MOL0     C72774   5.881   7.291   4.499 -0.6331  0.9507 -0.1760
  540MOL0     C72775   5.804   7.329   4.618  0.4263  0.5038  0.6084
  540MOL0     C72776   5.665   7.263   4.618  0.1331 -0.4805 -0.1480
  540MOL0     C72777   5.637   7.170   4.737  0.2473  0.2208 -0.1360
  540MOL0     C72778   5.505   7.200   4.797  0.0442  0.7366  0.3434
  540MOL0     C72779   5.468   7.104   4.911  0.2947 -0.0465 -0.7113
  540MOL0     C72780   5.328   7.124   4.965 -1.4096  0.2449  0.3798
  540MOL0     C72781   5.284   7.267   4.989 -0.0957 -0.6929  0.4683
  540MOL0     N72782   5.159   7.274   5.076 -0.1591 -1.3798  0.7819
  540MOL0     C72783   5.040   7.306   5.023 -0.1791  0.6088 -0.9974
  540MOL0     C72784   4.957   7.304   5.129 -0.0806 -0.0628 -0.3059
  540MOL0     C72785   4.808   7.348   5.121  0.0088  0.1914 -0.0892
  540MOL0     C72786   4.761   7.419   5.245 -0.3192  0.1542  0.2443
  540MOL0     C72787   4.616   7.467   5.215  0.0838  0.1762  0.0471
  540MOL0     C72788   4.566   7.535   5.338 -0.0561 -0.1637 -0.0846
  540MOL0     O72789   4.424   7.574   5.335 -0.2936 -0.8325  0.7451
  540MOL0     C72790   4.378   7.660   5.436  0.0229  0.7510  0.1460
  540MOL0     C72791   4.462   7.753   5.503  0.4855  0.0356 -1.0253
  540MOL0     C72792   4.396   7.842   5.594 -0.7539 -0.0949  0.0879
  540MOL0     C72793   4.267   7.844   5.620 -0.1873 -0.1070  0.7332
  540MOL0     C72794   4.209   7.928   5.730 -0.3564 -0.4456  0.0805
  540MOL0     O72795   4.299   7.964   5.827 -0.5767  0.4136  0.9616
  540MOL0     C72796   4.247   8.047   5.920  1.0376 -0.1892  0.3684
  540MOL0     C72797   4.325   8.156   5.968  0.7064 -0.8386  0.0227
  540MOL0     C72798   4.291   8.230   6.076 -0.3251  1.2598 -0.5640
  540MOL0     C72799   4.172   8.203   6.144  0.3658 -0.4049  0.3111
  540MOL0     O72800   4.132   8.295   6.227 -0.1486 -0.2551  0.6960
  540MOL0     C72801   4.186   8.289   6.357 -0.1792  0.4429  0.3589
  540MOL0     C72802   4.134   8.404   6.438 -0.3370  0.2640 -0.8066
  540MOL0     C72803   3.981   8.383   6.463  0.8739  0.6326  0.4394
  540MOL0     C72804   3.904   8.478   6.549 -0.7081 -1.1146  0.2079
  540MOL0     C72805   3.791   8.403   6.631 -0.3548 -0.7444  1.1838
  540MOL0     C72806   3.739   8.476   6.751 -0.5748  1.1882 -0.2870
  540MOL0     C72807   3.642   8.398   6.832  0.2121 -0.1850 -0.6785
  540MOL0     C72808   3.608   8.454   6.975 -0.4845  0.2113 -0.0391
  540MOL0    Cl72809   3.758   8.417   7.079  0.0056  0.0889  0.2467
  540MOL0     C72810   4.097   8.094   6.119 -0.5758  0.2036 -0.7922
  540MOL0     C72811   4.136   8.011   6.010 -0.0496 -0.1098 -0.0063
  540MOL0     O72812   4.089   7.954   5.731 -0.1530  0.0479 -0.1420
  540MOL0     C72813   4.183   7.755   5.554 -0.3883  0.7951 -0.1664
  540MOL0     C72814   4.238   7.664   5.461 -0.3536  0.5512 -0.7464
  540MOL0     N72815   5.032   7.265   5.247 -0.2621  1.0012 -0.0436
  540MOL0     N72816   5.158   7.259   5.212 -0.2395  0.0695 -0.4580
  540MOL0     C72817   6.014   7.209   4.263 -0.0913  0.8023  0.2029
  540MOL0     C72818   6.074   7.160   4.139 -0.9561 -0.1964  0.2166
  540MOL0     C72819   6.231   6.915   3.787  0.0425 -0.2078 -0.3271
  540MOL0     C72820   6.368   6.910   3.758 -0.6256 -0.1644  0.7602
  540MOL0     C72821   6.417   6.819   3.662  0.2077  0.9385  0.2957
  540MOL0     C72822   6.325   6.736   3.589 -0.2709 -0.2710 -0.1428
  540MOL0     O72823   6.359   6.636   3.507 -0.4015  0.4490  0.2970
  540MOL0     C72824   6.270   6.543   3.444  0.4500  0.1309 -0.0467
  540MOL0     C72825   6.361   6.443   3.368  1.0848  0.2249  0.1007
  540MOL0     C72826   6.267   6.366   3.279  0.1625  0.4700 -0.0108
  540MOL0     C72827   6.348   6.266   3.210  0.0147  0.3056 -0.6535
  540MOL0     C72828   6.387   6.158   3.304 -0.1866  0.5469  0.2279
  540MOL0     C72829   6.417   6.077   3.387  0.1397 -0.1295 -0.8526
  540MOL0     C72830   6.189   6.751   3.623 -1.0015  0.7474 -0.3428
  540MOL0     C72831   6.142   6.836   3.718 -0.5114 -0.7927 -0.8344
  540MOL0     C72832   5.989   6.831   3.749 -0.0538  0.7664  0.3223
  540MOL0     H72833   5.987   6.830   4.189  0.8044 -0.3113 -1.6287
  540MOL0     H72834   5.918   6.922   4.418 -3.5367 -0.1504 -1.3447
  540MOL0     H72835   5.970   7.353   4.492  0.2032 -0.3861 -4.2483
  540MOL0     H72836   5.821   7.325   4.414 -2.3410  0.5731  0.8237
  540MOL0     H72837   5.792   7.438   4.615  3.2791  0.9008  0.6118
  540MOL0     H72838   5.864   7.296   4.703  0.4302  0.8868  0.7549
  540MOL0     H72839   5.659   7.207   4.524  0.2208  2.9078 -2.3247
  540MOL0     H72840   5.593   7.346   4.612  1.1091  0.5505  1.7534
  540MOL0     H72841   5.635   7.063   4.714  1.1578 -0.0480  0.9449
  540MOL0     H72842   5.718   7.177   4.811  1.0430  2.7838 -1.1177
  540MOL0     H72843   5.506   7.299   4.844  1.5735  1.0960 -0.3809
  540MOL0     H72844   5.424   7.214   4.725 -0.3626  2.3323  1.0714
  540MOL0     H72845   5.483   7.006   4.866 -3.7391  0.5155 -3.8648
  540MOL0     H72846   5.528   7.119   5.001 -3.2046 -2.4810  2.3057
  540MOL0     H72847   5.340   7.067   5.058  3.1360  0.6724  0.2657
  540MOL0     H72848   5.247   7.079   4.906 -0.3632 -0.8544 -0.2625
  540MOL0     H72849   5.361   7.328   5.036 -0.5224  2.3833 -2.4212
  540MOL0     H72850   5.273   7.318   4.893  2.2424 -2.0753 -0.6208
  540MOL0     H72851   5.018   7.335   4.920  0.9167 -0.5846 -1.5958
  540MOL0     H72852   4.799   7.422   5.041  0.7947  1.1377  0.6666
  540MOL0     H72853   4.742   7.264   5.099  0.8968 -0.1402 -1.6494
  540MOL0     H72854   4.754   7.358   5.335  0.2111  0.6036  0.5899
  540MOL0     H72855   4.833   7.494   5.279  0.5623 -2.1966  4.0951
  540MOL0     H72856   4.539   7.390   5.204  0.5655 -0.0033 -2.7587
  540MOL0     H72857   4.627   7.521   5.120  1.6168 -0.3121 -0.0715
  540MOL0     H72858   4.624   7.628   5.343 -3.4057  2.1760 -1.3943
  540MOL0     H72859   4.586   7.478   5.430 -0.6329  0.8219  0.6673
  540MOL0     H72860   4.570   7.755   5.491  0.7360  0.6060  0.9793
  540MOL0     H72861   4.460   7.902   5.658 -0.2901  0.0262 -0.4749
  540MOL0     H72862   4.411   8.185   5.909  0.0509  1.4493  0.0947
  540MOL0     H72863   4.346   8.319   6.105 -1.6412  1.5019  1.3799
  540MOL0     H72864   4.176   8.192   6.407  0.6196  0.2149  0.0790
  540MOL0     H72865   4.290   8.320   6.343  0.1791 -1.9292 -4.6024
  540MOL0     H72866   4.192   8.398   6.531  0.8311 -0.2709 -1.5519
  540MOL0     H72867   4.152   8.500   6.390  0.7916 -0.1747 -1.2759
  540MOL0     H72868   3.935   8.388   6.364  0.5503 -0.3079  0.5297
  540MOL0     H72869   3.967   8.280   6.498 -0.1395 -0.4745 -2.8531
  540MOL0     H72870   3.868   8.553   6.478  1.2069 -0.0016  0.3164
  540MOL0     H72871   3.975   8.535   6.611 -2.8229  4.4486 -1.8483
  540MOL0     H72872   3.835   8.313   6.674  2.0263  0.3938  1.2754
  540MOL0     H72873   3.721   8.376   6.551  2.4061  2.4118 -2.7629
  540MOL0     H72874   3.823   8.501   6.817  0.8851  0.9744 -1.9742
  540MOL0     H72875   3.698   8.572   6.717 -1.0016  1.3290  0.6107
  540MOL0     H72876   3.686   8.298   6.831  1.9335  0.4535 -4.2530
  540MOL0     H72877   3.542   8.395   6.787  0.1584  3.3366 -1.0396
  540MOL0     H72878   3.613   8.562   6.987  2.7528 -0.0615  2.0759
  540MOL0     H72879   3.518   8.404   7.012  0.8358 -0.7982  1.9883
  540MOL0     H72880   4.018   8.063   6.187  1.7812  2.3194  3.2748
  540MOL0     H72881   4.071   7.929   5.979 -2.5185  1.6777  0.1012
  540MOL0     H72882   4.075   7.759   5.567 -0.1837  2.4460  1.4842
  540MOL0     H72883   4.172   7.601   5.402 -0.9177 -0.2798  0.7276
  540MOL0     H72884   6.020   7.317   4.264 -2.3737  1.0741 -2.3396
  540MOL0     H72885   6.123   7.230   4.072 -0.7232 -2.9629 -2.7756
  540MOL0     H72886   6.441   6.974   3.806 -0.6328 -0.9367  1.8219
  540MOL0     H72887   6.521   6.816   3.631  0.2189 -0.5355  0.4331
  540MOL0     H72888   6.215   6.606   3.374  0.1202  1.2208  1.1717
  540MOL0     H72889   6.205   6.486   3.511 -1.6664  0.3637 -1.8076
  540MOL0     H72890   6.403   6.373   3.441 -1.2676 -0.5365  0.8159
  540MOL0     H72891   6.450   6.480   3.316  1.6072 -2.4289 -1.0657
  540MOL0     H72892   6.225   6.445   3.216 -1.4939 -0.3296  0.0476
  540MOL0     H72893   6.190   6.318   3.339  0.0187  0.4402 -0.2183
  540MOL0     H72894   6.273   6.219   3.145 -1.4442 -0.1969  1.3112
  540MOL0     H72895   6.427   6.302   3.143  0.2996 -3.1133 -2.3829
  540MOL0     H72896   6.449   6.012   3.465 -3.0092  0.4659  1.0917
  540MOL0     H72897   6.112   6.687   3.581 -0.9834 -1.2738  2.4432
  540MOL0     H72898   5.930   6.796   3.663 -0.2368 -1.4216  1.2662
  540MOL0     H72899   5.966   6.763   3.831  3.1519  1.9871  2.4173
  540MOL0     H72900   5.943   6.924   3.783 -1.5509 -0.5190  2.0224
  541MOL0     O72901   9.773   9.286   0.238  0.3821 -0.2044 -0.6893
  541MOL0     C72902   9.818   9.185   0.300 -0.6474  0.1509 -0.0964
  541MOL0     O72903   9.950   9.179   0.338 -0.3618 -0.0597  1.1213
  541MOL0     C72904  10.032   9.274   0.287 -0.3781  0.1843 -0.8113
  541MOL0     C72905  10.076   9.369   0.374 -0.6036  0.7385 -0.0041
  541MOL0     C72906  10.158   9.471   0.328  0.8417 -0.1208  0.4294
  541MOL0     C72907  10.195   9.482   0.198 -0.2190 -0.0804  0.0650
  541MOL0     O72908  10.266   9.580   0.146 -0.4902 -0.5130 -0.0080
  541MOL0     C72909  10.270   9.711   0.201 -0.5792 -0.4263 -0.7106
  541MOL0     C72910  10.311   9.817   0.091  0.0865  0.0174 -0.5404
  541MOL0     C72911  10.460   9.809   0.052 -0.1077 -0.3925  0.1099
  541MOL0     C72912  10.561   9.844   0.152 -0.1460  0.0088  0.8096
  541MOL0     C72913  10.702   9.795   0.107  1.0708  0.5647 -0.7027
  541MOL0     C72914  10.804   9.824   0.219 -0.1972  0.7222 -0.0891
  541MOL0     C72915  10.948   9.778   0.184  0.4755 -0.2184  0.7842
  541MOL0     C72916  11.055   9.844   0.275 -0.5124 -0.6133 -1.0654
  541MOL0     N72917  11.063   9.988   0.247 -0.6182  0.3107  0.0115
  541MOL0     C72918  11.106  10.042   0.124  0.2052 -0.8904 -0.1667
  541MOL0     C72919  11.090  10.176   0.153 -0.1994 -0.4522  1.1722
  541MOL0     C72920  11.137  10.280   0.056 -0.1971 -0.2351 -0.0330
  541MOL0     C72921  11.036  10.348  -0.023  0.9461 -1.0090  0.1413
  541MOL0     C72922  11.069  10.468  -0.117 -0.0623 -0.0504 -0.6678
  541MOL0     C72923  11.058  10.599  -0.043 -0.0783  0.4844 -0.6758
  541MOL0     O72924  11.069  10.697  -0.146 -0.2892  0.5874 -0.0550
  541MOL0     C72925  11.094  10.823  -0.102 -0.5749 -0.3285 -0.5706
  541MOL0     C72926  10.989  10.912  -0.076  0.3606  0.9317 -0.2556
  541MOL0     C72927  11.010  11.042  -0.051 -0.6547  0.1239 -1.0390
  541MOL0     C72928  11.140  11.092  -0.036  0.8084  0.0653  0.1207
  541MOL0     C72929  11.163  11.234   0.002  0.4006  0.5174 -0.2953
  541MOL0     O72930  11.062  11.297   0.067  0.8331  0.7600  0.4842
  541MOL0     C72931  11.066  11.426   0.121 -0.2893  0.1313  0.0229
  541MOL0     C72932  11.147  11.533   0.063 -0.4031 -0.3824 -0.2663
  541MOL0     C72933  11.130  11.658   0.117 -0.6523 -0.2725  0.7290
  541MOL0     C72934  11.046  11.683   0.230  0.3646  0.0792  0.6047
  541MOL0     O72935  11.031  11.805   0.288  0.6890  0.3058 -0.3609
  541MOL0     C72936  11.150  11.882   0.290 -0.0476  0.2702  0.5484
  541MOL0     C72937  11.119  11.989   0.400  0.3466 -0.5481  0.0129
  541MOL0     C72938  11.118  11.915   0.543  1.2670 -0.0199 -0.7884
  541MOL0     C72939  11.187  11.997   0.648  0.7017  0.1142  0.1740
  541MOL0     C72940  11.161  11.938   0.780  0.6835  0.1116  0.0193
  541MOL0     C72941  11.237  11.992   0.903 -0.2168 -0.0788 -0.5824
  541MOL0     C72942  11.383  11.946   0.901 -0.7011  0.2868 -0.0611
  541MOL0     C72943  11.446  11.984   1.040  0.6629  0.4899  0.0783
  541MOL0    Cl72944  11.633  11.942   1.030  0.0247  0.1383 -0.1093
  541MOL0     C72945  10.969  11.580   0.284  0.2417 -0.0053 -0.4598
  541MOL0     C72946  10.976  11.454   0.222  0.2546 -0.5959 -1.3884
  541MOL0     O72947  11.276  11.288  -0.020  0.8422 -0.4700  1.1427
  541MOL0     C72948  11.244  11.009  -0.059  0.0868  0.5525  0.2903
  541MOL0     C72949  11.223  10.871  -0.093 -0.3472  0.0499 -0.0539
  541MOL0     N72950  11.012  10.193   0.276 -1.0001 -0.1394 -0.6169
  541MOL0     N72951  11.001  10.079   0.326  0.1659 -0.5864  0.2469
  541MOL0     C72952  10.149   9.386   0.107 -0.3888  0.2458  0.1306
  541MOL0     C72953  10.073   9.272   0.152  0.4053  0.3866  0.1699
  541MOL0     C72954   9.743   9.068   0.341 -0.1012 -0.2188 -0.4150
  541MOL0     C72955   9.818   8.945   0.364  0.4495 -0.5553 -0.2096
  541MOL0     C72956   9.752   8.828   0.406  0.1289  0.1242  1.1415
  541MOL0     C72957   9.614   8.824   0.415  0.8710  0.5975 -0.0837
  541MOL0     O72958   9.572   8.699   0.450 -1.1734  0.0240 -0.4293
  541MOL0     C72959   9.494   8.684   0.564 -0.7410 -0.6024 -0.0191
  541MOL0     C72960   9.485   8.530   0.597  0.3777  1.5998  0.0994
  541MOL0     C72961   9.618   8.471   0.615 -0.3088 -0.0359 -0.2419
  541MOL0     C72962   9.616   8.313   0.637 -0.2786 -1.1132 -0.2593
  541MOL0     C72963   9.576   8.247   0.510  0.7979 -0.5479 -0.9042
  541MOL0     C72964   9.539   8.175   0.418  0.1991 -0.1636  0.3109
  541MOL0     C72965   9.540   8.937   0.366  0.7833  0.8564 -0.0537
  541MOL0     C72966   9.603   9.057   0.331 -0.4848 -0.4004  0.9237
  541MOL0     C72967   9.508   9.161   0.278  0.8786 -0.6863 -0.4277
  541MOL0     H72968  10.048   9.345   0.476 -1.3054 -0.7296 -0.5028
  541MOL0     H72969  10.198   9.537   0.405  1.4407  0.3838 -0.3035
  541MOL0     H72970  10.175   9.747   0.242  0.9215  1.5880  1.2184
  541MOL0     H72971  10.336   9.712   0.288 -4.1683  2.8282  2.3747
  541MOL0     H72972  10.292   9.919   0.125  1.9363  0.0089  0.6905
  541MOL0     H72973  10.240   9.796   0.011 -0.6623 -0.6288  0.2792
  541MOL0     H72974  10.474   9.879  -0.031 -0.3216  1.9743  1.9713
  541MOL0     H72975  10.476   9.702   0.034  2.0586 -0.0117 -0.4741
  541MOL0     H72976  10.556   9.952   0.165 -2.9337  0.3607 -2.1072
  541MOL0     H72977  10.534   9.793   0.245  0.2316 -0.2169  0.7994
  541MOL0     H72978  10.695   9.689   0.080  1.6496  0.5950 -0.9883
  541MOL0     H72979  10.726   9.843   0.011  1.8232  0.2783 -0.6664
  541MOL0     H72980  10.806   9.926   0.260 -2.6983 -0.0017  2.0484
  541MOL0     H72981  10.774   9.768   0.308 -1.5953 -0.8239 -1.4687
  541MOL0     H72982  10.979   9.795   0.080  4.1806  0.0998  1.8001
  541MOL0     H72983  10.964   9.672   0.200 -0.8452 -0.3967  1.0595
  541MOL0     H72984  11.035   9.807   0.376  2.9286 -0.6190 -0.2641
  541MOL0     H72985  11.156   9.811   0.252 -0.2581  0.3339 -1.3551
  541MOL0     H72986  11.143   9.998   0.032  2.1901  0.6003 -0.1505
  541MOL0     H72987  11.198  10.352   0.112  0.4122 -0.4231 -0.4409
  541MOL0     H72988  11.206  10.239  -0.018  1.2222  0.2568  0.9720
  541MOL0     H72989  10.993  10.267  -0.082 -1.1206  0.3905 -0.3899
  541MOL0     H72990  10.957  10.382   0.046  0.3857 -2.1044  0.0558
  541MOL0     H72991  10.994  10.469  -0.197 -2.9115  0.9167  1.8213
  541MOL0     H72992  11.164  10.450  -0.170  1.4209  0.6974  1.6064
  541MOL0     H72993  11.135  10.609   0.034 -1.3831 -3.8121  1.5459
  541MOL0     H72994  10.952  10.601  -0.016 -0.7765 -0.5968 -3.0596
  541MOL0     H72995  10.890  10.881  -0.109  0.9898  0.4414 -1.7691
  541MOL0     H72996  10.937  11.122  -0.049  0.9369  1.6363 -0.6136
  541MOL0     H72997  11.215  11.525  -0.022 -2.0042 -2.2073 -1.4597
  541MOL0     H72998  11.185  11.737   0.067 -0.4581  0.1780  1.6479
  541MOL0     H72999  11.234  11.824   0.330 -0.3542 -0.2638  0.4341
  541MOL0     H73000  11.175  11.936   0.198 -2.3234  0.5029 -0.0006
  541MOL0     H73001  11.193  12.070   0.395 -1.1862  0.9152 -0.0014
  541MOL0     H73002  11.027  12.043   0.375  0.2016 -0.8189 -0.0359
  541MOL0     H73003  11.014  11.897   0.572  1.9936 -0.8156  1.5497
  541MOL0     H73004  11.157  11.813   0.548 -0.7379 -0.8151 -0.4456
  541MOL0     H73005  11.167  12.104   0.638  4.1269  1.0022  1.5602
  541MOL0     H73006  11.293  11.981   0.628  0.7021  1.3878 -1.0220
  541MOL0     H73007  11.197  11.834   0.776 -0.9104 -0.4928  0.5010
  541MOL0     H73008  11.054  11.919   0.795  1.1449 -2.3412  0.7460
  541MOL0     H73009  11.222  12.100   0.896 -1.6352 -0.3520 -2.0609
  541MOL0     H73010  11.185  11.940   0.984 -0.9597 -0.4164 -1.2698
  541MOL0     H73011  11.440  12.002   0.826  1.4125  0.3061  1.4451
  541MOL0     H73012  11.405  11.840   0.884 -2.8338 -0.2935  0.4872
  541MOL0     H73013  11.427  12.089   1.068 -0.3522  0.9670 -2.2000
  541MOL0     H73014  11.398  11.918   1.114  1.3776 -1.8849 -1.4779
  541MOL0     H73015  10.907  11.596   0.372  1.4514  0.7080  0.2839
  541MOL0     H73016  10.920  11.370   0.262  0.9033 -0.2620  0.3272
  541MOL0     H73017  11.345  11.049  -0.063  0.1886  0.3335  0.5760
  541MOL0     H73018  11.302  10.802  -0.122 -0.3514  0.7056 -1.7504
  541MOL0     H73019  10.168   9.396   0.001 -4.4430 -3.0434 -1.1912
  541MOL0     H73020  10.027   9.197   0.089  0.5397  0.8496 -0.5000
  541MOL0     H73021   9.925   8.940   0.349  0.4389  1.3590 -1.1422
  541MOL0     H73022   9.792   8.728   0.419  1.6006  0.2449 -1.6013
  541MOL0     H73023   9.398   8.735   0.554 -0.1006  0.1786 -2.8949
  541MOL0     H73024   9.530   8.738   0.653 -1.1944  0.3687 -0.4179
  541MOL0     H73025   9.427   8.486   0.516 -0.2062  1.8955  0.3472
  541MOL0     H73026   9.436   8.508   0.693  0.5992 -2.3649 -0.5481
  541MOL0     H73027   9.663   8.510   0.707  0.4633 -0.9765 -0.2037
  541MOL0     H73028   9.684   8.498   0.532 -0.6777  0.9732 -0.2110
  541MOL0     H73029   9.718   8.278   0.652  0.4315 -0.5616 -3.1825
  541MOL0     H73030   9.565   8.283   0.729  1.8256 -1.4256  0.8845
  541MOL0     H73031   9.489   8.113   0.347 -2.0629  1.1945  0.6184
  541MOL0     H73032   9.432   8.932   0.370  0.7404  1.1581 -0.7307
  541MOL0     H73033   9.403   9.132   0.268 -0.3927  2.6841  1.2436
  541MOL0     H73034   9.513   9.254   0.336 -2.4900 -0.8629  0.3314
  541MOL0     H73035   9.529   9.186   0.174 -1.1546 -1.8503 -1.1695
  542MOL0     O73036   3.334   9.946   7.819  0.1787 -0.2836  0.0199
  542MOL0     C73037   3.435   9.935   7.899  0.1519  0.4135  0.5928
  542MOL0     O73038   3.459  10.022   7.997  0.3898 -0.6571 -0.5529
  542MOL0     C73039   3.362  10.122   8.017  0.2578 -0.5317 -0.7090
  542MOL0     C73040   3.261  10.103   8.116  0.6745  0.1837  0.2087
  542MOL0     C73041   3.178  10.213   8.150  0.2016 -0.7974 -0.4050
  542MOL0     C73042   3.184  10.343   8.090  0.0344 -0.4387 -0.0191
  542MOL0     O73043   3.103  10.442   8.137 -0.5629  0.4764 -0.0640
  542MOL0     C73044   3.084  10.560   8.051 -0.4655 -0.1531  1.4164
  542MOL0     C73045   3.010  10.662   8.116 -0.2474 -0.3000 -0.2531
  542MOL0     C73046   3.025  10.796   8.028 -0.2216  0.6650  0.0950
  542MOL0     C73047   2.933  10.905   8.092  0.0589  0.1974 -0.6693
  542MOL0     C73048   2.946  11.039   8.033 -0.2033 -0.1250  0.4414
  542MOL0     C73049   2.830  11.133   8.079  0.3518 -0.2972  0.2929
  542MOL0     C73050   2.866  11.246   8.176 -0.0259  0.0217  0.2094
  542MOL0     C73051   2.848  11.222   8.321  0.3535 -0.1625  0.3493
  542MOL0     N73052   2.880  11.346   8.392 -0.1572 -0.4317 -0.3879
  542MOL0     C73053   2.940  11.362   8.521  0.4104  0.0836  0.0662
  542MOL0     C73054   2.923  11.488   8.561 -0.9684 -0.1159  0.2178
  542MOL0     C73055   2.975  11.564   8.683  1.6909 -0.2607  0.0836
  542MOL0     C73056   2.895  11.691   8.708 -0.1004 -0.0887  0.1619
  542MOL0     C73057   2.931  11.775   8.827  0.2396 -0.0191  0.6001
  542MOL0     C73058   2.855  11.909   8.823 -1.0176 -0.7976 -1.4542
  542MOL0     O73059   2.934  12.008   8.898  0.8067  0.4833  1.1143
  542MOL0     C73060   3.051  12.058   8.840  0.1662  0.9582 -0.4697
  542MOL0     C73061   3.111  12.172   8.906 -0.6164  0.2791 -0.1657
  542MOL0     C73062   3.220  12.246   8.847  0.0091  0.7633  0.3339
  542MOL0     C73063   3.272  12.202   8.724  0.6263  0.4032 -0.5932
  542MOL0     C73064   3.392  12.262   8.653 -0.2486  0.6863  1.1228
  542MOL0     O73065   3.475  12.355   8.722 -0.3209  0.6809  0.5553
  542MOL0     C73066   3.588  12.391   8.644  0.5351 -0.4713  0.0369
  542MOL0     C73067   3.590  12.517   8.580 -0.0618  0.0513 -0.3815
  542MOL0     C73068   3.714  12.559   8.524 -0.9986 -0.0684  0.0919
  542MOL0     C73069   3.825  12.473   8.498  0.1594 -0.8701  0.1970
  542MOL0     O73070   3.933  12.503   8.412 -0.5458  0.9622 -0.3671
  542MOL0     C73071   4.021  12.605   8.448 -0.8371 -0.1363 -0.2373
  542MOL0     C73072   4.123  12.546   8.558  0.6436  0.1195 -0.1727
  542MOL0     C73073   4.225  12.478   8.484  0.3810  0.0602  0.5265
  542MOL0     C73074   4.195  12.328   8.475  0.8128  0.2273  0.1632
  542MOL0     C73075   4.308  12.252   8.410  0.5114 -0.1304 -0.0244
  542MOL0     C73076   4.334  12.309   8.266 -0.0098  0.8846 -0.3769
  542MOL0     C73077   4.404  12.211   8.172 -0.6993 -0.9355  1.1953
  542MOL0     C73078   4.448  12.279   8.044 -0.8767  0.2392  0.2569
  542MOL0    Cl73079   4.566  12.412   8.081  0.2261  0.6650  0.0051
  542MOL0     C73080   3.820  12.353   8.557 -0.7896  0.0442  0.7809
  542MOL0     C73081   3.702  12.309   8.628  0.0434  0.1643 -0.2331
  542MOL0     O73082   3.401  12.233   8.534  0.7493 -0.4816 -0.2436
  542MOL0     C73083   3.219  12.086   8.668 -0.0706 -0.2614  0.6241
  542MOL0     C73084   3.109  12.017   8.715  0.4568  0.1395  0.0632
  542MOL0     N73085   2.850  11.548   8.458 -0.2474 -0.3824 -0.1745
  542MOL0     N73086   2.816  11.461   8.364  0.3065  0.5762  0.8422
  542MOL0     C73087   3.290  10.360   8.002 -0.5192 -0.1272  0.3089
  542MOL0     C73088   3.372  10.247   7.956  0.6175 -0.4887  1.2940
  542MOL0     C73089   3.536   9.819   7.893  0.4310  0.5830 -0.4984
  542MOL0     C73090   3.647   9.820   7.983  0.2723  0.3695 -0.4853
  542MOL0     C73091   3.753   9.738   7.989 -0.4698 -0.1687  0.3763
  542MOL0     C73092   3.751   9.625   7.903 -0.4013 -0.9028  0.2414
  542MOL0     O73093   3.843   9.529   7.899  0.1195  0.1815 -0.4757
  542MOL0     C73094   3.972   9.577   7.904 -0.5998 -0.4877 -0.5525
  542MOL0     C73095   4.077   9.482   7.830 -1.0260  0.2209 -0.2161
  542MOL0     C73096   4.217   9.502   7.906  0.8830 -0.3642 -0.3244
  542MOL0     C73097   4.327   9.396   7.879  0.9275  0.5943  0.2710
  542MOL0     C73098   4.444   9.418   7.967 -0.8745  0.1079  0.0375
  542MOL0     C73099   4.515   9.446   8.054 -0.5624  0.7489 -0.0989
  542MOL0     C73100   3.643   9.618   7.806 -0.0051  0.3022 -0.2186
  542MOL0     C73101   3.533   9.710   7.803 -0.5106 -0.5308  0.2966
  542MOL0     C73102   3.432   9.684   7.707 -0.2768 -0.6491  1.4080
  542MOL0     H73103   3.259  10.005   8.164 -1.4251  0.3259  0.5187
  542MOL0     H73104   3.110  10.208   8.235 -0.7340  2.6336 -0.8132
  542MOL0     H73105   3.178  10.605   8.020 -0.4181 -1.7146 -0.9954
  542MOL0     H73106   3.051  10.526   7.952  3.1267 -0.2175  0.1061
  542MOL0     H73107   3.025  10.678   8.223 -3.4163  2.0946 -0.0050
  542MOL0     H73108   2.902  10.641   8.112  0.0128 -2.6517  2.2627
  542MOL0     H73109   2.996  10.775   7.925  1.6305 -0.3354 -0.2687
  542MOL0     H73110   3.127  10.836   8.023 -1.0795  3.0566  0.1766
  542MOL0     H73111   2.829  10.871   8.087 -1.4259  3.5834  2.4581
  542MOL0     H73112   2.964  10.903   8.198 -2.3698 -3.3853  0.1625
  542MOL0     H73113   3.048  11.073   8.052 -0.1573 -0.4625  0.8035
  542MOL0     H73114   2.930  11.029   7.925  1.2903 -3.0118  0.3916
  542MOL0     H73115   2.804  11.174   7.981 -2.5684  0.8722  1.4308
  542MOL0     H73116   2.739  11.083   8.113  1.7742 -3.4682 -0.1939
  542MOL0     H73117   2.810  11.332   8.138  0.5788 -0.7665 -2.7395
  542MOL0     H73118   2.975  11.259   8.176 -0.1851  2.0770  2.2840
  542MOL0     H73119   2.748  11.191   8.354 -0.1834  1.7070  0.6097
  542MOL0     H73120   2.905  11.135   8.356 -0.2308 -0.7217 -0.0479
  542MOL0     H73121   2.980  11.290   8.592 -2.8588 -3.0256 -0.9369
  542MOL0     H73122   2.960  11.498   8.769  4.3831 -0.4644  0.4978
  542MOL0     H73123   3.082  11.589   8.688  1.4076  1.1332 -0.2855
  542MOL0     H73124   2.911  11.745   8.614 -0.5989 -0.5596 -0.1954
  542MOL0     H73125   2.791  11.658   8.707  0.1135 -1.2671 -3.9679
  542MOL0     H73126   3.039  11.786   8.813 -0.0422  0.3387 -1.7685
  542MOL0     H73127   2.922  11.722   8.922  0.7847 -0.7217  0.2706
  542MOL0     H73128   2.757  11.907   8.872 -0.1358  0.1206  0.4175
  542MOL0     H73129   2.834  11.950   8.724 -3.3077  1.7023 -0.0640
  542MOL0     H73130   3.069  12.208   8.999 -0.0292  1.8803 -0.4927
  542MOL0     H73131   3.242  12.335   8.905 -0.8794 -1.0232  3.6599
  542MOL0     H73132   3.499  12.576   8.582  0.4344  0.8572 -1.0931
  542MOL0     H73133   3.717  12.662   8.490 -3.4440  0.7826  2.1418
  542MOL0     H73134   4.064  12.661   8.365 -1.7873  1.9426  0.5945
  542MOL0     H73135   3.968  12.675   8.514  0.3621 -1.7839  2.7075
  542MOL0     H73136   4.168  12.628   8.615  0.2008  0.7120 -0.6631
  542MOL0     H73137   4.075  12.487   8.636  2.0642 -0.0249  0.6302
  542MOL0     H73138   4.233  12.518   8.382  0.5221 -0.6306  0.2595
  542MOL0     H73139   4.319  12.492   8.539 -1.1191  3.1039  2.5868
  542MOL0     H73140   4.099  12.297   8.433  1.8029 -1.9763 -0.6810
  542MOL0     H73141   4.195  12.294   8.579 -0.6723 -1.3361 -0.2946
  542MOL0     H73142   4.276  12.147   8.415  1.1521 -0.3515 -0.4511
  542MOL0     H73143   4.403  12.270   8.460  1.7931 -0.0741 -2.3175
  542MOL0     H73144   4.235  12.339   8.231  1.6258  2.9309 -3.7631
  542MOL0     H73145   4.400  12.394   8.283 -0.8241  0.9823  2.9442
  542MOL0     H73146   4.330  12.133   8.153 -1.1245 -0.6359  1.6142
  542MOL0     H73147   4.491  12.165   8.220 -0.6088 -3.1958 -0.9364
  542MOL0     H73148   4.493  12.214   7.968  2.4287  3.9577 -1.3545
  542MOL0     H73149   4.359  12.325   8.001  0.5490  2.9978  0.0761
  542MOL0     H73150   3.907  12.294   8.528 -0.9337  0.6408 -1.0003
  542MOL0     H73151   3.685  12.209   8.666 -1.4288  1.2325  2.1233
  542MOL0     H73152   3.270  12.041   8.584 -2.3120  1.3194 -1.7063
  542MOL0     H73153   3.074  11.931   8.660  0.2018 -3.0097  4.5634
  542MOL0     H73154   3.287  10.455   7.949 -3.9339  1.8619  3.5295
  542MOL0     H73155   3.457  10.252   7.889 -0.1342  0.7466  0.3723
  542MOL0     H73156   3.653   9.892   8.064 -0.3882  1.6204 -1.5030
  542MOL0     H73157   3.831   9.754   8.062  1.6909 -0.0024 -1.8409
  542MOL0     H73158   4.002   9.591   8.009  0.1453  1.1788 -0.9458
  542MOL0     H73159   3.980   9.679   7.865 -0.5273 -0.7366 -1.1887
  542MOL0     H73160   4.093   9.507   7.724 -0.2075 -1.0828 -0.4280
  542MOL0     H73161   4.044   9.378   7.827 -2.8730  0.7072  1.4580
  542MOL0     H73162   4.198   9.507   8.014  3.5586  2.9719  0.1512
  542MOL0     H73163   4.252   9.597   7.866 -3.8347  1.4036 -0.9297
  542MOL0     H73164   4.280   9.300   7.902 -0.8637  2.0355  3.4887
  542MOL0     H73165   4.347   9.389   7.772  0.1580  1.5363  0.0424
  542MOL0     H73166   4.591   9.466   8.127  0.7137 -2.1219 -0.4900
  542MOL0     H73167   3.643   9.533   7.738 -0.4514 -0.3279  0.5543
  542MOL0     H73168   3.341   9.721   7.754  0.1665  2.2357  0.2059
  542MOL0     H73169   3.444   9.739   7.613 -2.8002 -2.4764 -0.0902
  542MOL0     H73170   3.409   9.579   7.686 -3.0918 -0.3316  2.4884
  543MOL0     O73171   5.150   5.873   6.174 -1.1305  0.7987  0.2869
  543MOL0     C73172   5.071   5.884   6.090  0.7281 -0.4677 -0.0447
  543MOL0     O73173   5.086   5.834   5.960 -0.7387 -0.8924 -0.6958
  543MOL0     C73174   5.190   5.763   5.911 -1.1597  0.7249 -0.0877
  543MOL0     C73175   5.185   5.741   5.775 -0.0223  0.2807  0.3832
  543MOL0     C73176   5.286   5.674   5.704  0.3066  1.2050  0.0960
  543MOL0     C73177   5.407   5.633   5.762 -0.6974  0.0874 -0.2944
  543MOL0     O73178   5.518   5.590   5.696 -0.5516 -0.0952  0.0915
  543MOL0     C73179   5.506   5.584   5.559 -0.4484 -0.4544  0.1511
  543MOL0     C73180   5.647   5.555   5.517 -0.3707 -0.0455 -0.0221
  543MOL0     C73181   5.650   5.494   5.374  0.4007  0.1899 -0.0444
  543MOL0     C73182   5.781   5.509   5.293  0.2739 -0.5071 -0.0611
  543MOL0     C73183   5.767   5.488   5.145 -0.5889 -0.0251 -0.1619
  543MOL0     C73184   5.742   5.346   5.109  0.2344 -0.2340  1.2823
  543MOL0     C73185   5.737   5.328   4.955 -0.5475  0.5587 -0.8869
  543MOL0     C73186   5.649   5.203   4.920  0.3293 -0.5481  0.6650
  543MOL0     N73187   5.644   5.168   4.778 -0.2794 -0.0373 -0.2030
  543MOL0     C73188   5.671   5.252   4.684 -0.0943  0.0276  0.5755
  543MOL0     C73189   5.658   5.187   4.561 -1.0288  0.9683 -0.2015
  543MOL0     C73190   5.650   5.253   4.425 -0.1208 -0.6503  0.1625
  543MOL0     C73191   5.589   5.177   4.310 -0.4875 -0.6457  0.8698
  543MOL0     C73192   5.452   5.121   4.328  0.8860  0.4297 -0.2335
  543MOL0     C73193   5.334   5.230   4.308 -1.0294 -0.6156  0.3472
  543MOL0     O73194   5.343   5.333   4.408  0.0276  0.8006  0.2189
  543MOL0     C73195   5.296   5.295   4.529 -0.1972  0.3225 -0.6689
  543MOL0     C73196   5.223   5.179   4.557 -0.6637  1.2672 -0.6302
  543MOL0     C73197   5.173   5.161   4.681  0.1404  0.1371  0.2364
  543MOL0     C73198   5.189   5.253   4.784  0.5561  0.5388 -0.0456
  543MOL0     C73199   5.105   5.250   4.906  1.4775  0.4856 -0.3771
  543MOL0     O73200   5.022   5.146   4.936 -0.6381 -0.1435  0.7823
  543MOL0     C73201   4.964   5.140   5.064 -0.3378 -0.3565 -0.0012
  543MOL0     C73202   4.978   5.034   5.162 -0.1806  0.7661 -0.2912
  543MOL0     C73203   4.904   5.036   5.282  0.4263  0.6994 -0.1892
  543MOL0     C73204   4.828   5.141   5.325 -0.7008  0.8676 -0.5798
  543MOL0     O73205   4.756   5.126   5.447 -0.2471 -0.4643  0.3758
  543MOL0     C73206   4.649   5.206   5.476  0.7463 -0.4343 -0.4247
  543MOL0     C73207   4.576   5.180   5.615 -0.2701  1.1370 -0.8676
  543MOL0     C73208   4.669   5.134   5.734  0.5454  0.3483  0.2938
  543MOL0     C73209   4.593   5.114   5.861  0.1692 -0.9329 -0.1476
  543MOL0     C73210   4.677   5.047   5.963 -0.5415 -0.9029 -0.6477
  543MOL0     C73211   4.615   5.066   6.099 -0.2242 -0.4225 -0.1687
  543MOL0     C73212   4.708   5.012   6.212  0.2846  0.4178 -0.4813
  543MOL0     C73213   4.754   4.861   6.202 -0.2477 -0.6627 -0.4079
  543MOL0    Cl73214   4.615   4.766   6.261  0.3659 -0.3110  0.4676
  543MOL0     C73215   4.822   5.253   5.236  0.2769 -0.5741 -0.1231
  543MOL0     C73216   4.889   5.250   5.115  0.1520  0.3346 -0.1673
  543MOL0     O73217   5.120   5.344   4.977 -0.5748 -0.6237 -0.1999
  543MOL0     C73218   5.271   5.360   4.760  0.1343 -0.2647 -0.0505
  543MOL0     C73219   5.325   5.385   4.629  0.9921  0.3157 -0.3558
  543MOL0     N73220   5.618   5.060   4.593 -0.4836  0.1377  0.3459
  543MOL0     N73221   5.613   5.052   4.727  0.9860  0.0657 -1.1681
  543MOL0     C73222   5.418   5.661   5.897 -0.0321  0.7048  0.5869
  543MOL0     C73223   5.306   5.711   5.973  0.2823  0.2395  0.6862
  543MOL0     C73224   4.945   5.942   6.132 -0.3053  0.0415 -0.8498
  543MOL0     C73225   4.922   5.952   6.266  0.4692  0.4496 -0.1363
  543MOL0     C73226   4.801   6.001   6.315  0.6640 -0.1856  0.7445
  543MOL0     C73227   4.692   6.024   6.232 -0.4291  0.1500  0.4952
  543MOL0     O73228   4.581   6.092   6.283  0.7323 -0.3947 -0.3653
  543MOL0     C73229   4.519   6.048   6.410 -0.0454  0.5373 -0.0175
  543MOL0     C73230   4.517   6.159   6.514 -0.6548  0.2921  0.2086
  543MOL0     C73231   4.511   6.306   6.477 -0.6284 -0.0371  0.4530
  543MOL0     C73232   4.516   6.396   6.599  0.2563  0.0535 -1.0605
  543MOL0     C73233   4.651   6.392   6.677 -0.6308  0.4418 -0.3689
  543MOL0     C73234   4.755   6.389   6.734 -0.1674 -0.1216 -0.1084
  543MOL0     C73235   4.713   5.999   6.097  1.4351 -0.0589  0.0501
  543MOL0     C73236   4.838   5.958   6.046 -0.0481  0.1421  1.8872
  543MOL0     C73237   4.848   5.958   5.888 -0.2187  0.1409 -0.0497
  543MOL0     H73238   5.100   5.777   5.719  1.9957 -0.6817 -3.6243
  543MOL0     H73239   5.268   5.651   5.599 -2.5309  0.5857  0.6354
  543MOL0     H73240   5.447   5.493   5.544 -0.0812 -0.5744 -0.6563
  543MOL0     H73241   5.463   5.675   5.517 -1.9396 -1.8599 -1.5556
  543MOL0     H73242   5.689   5.484   5.590 -0.8196  1.7144  2.0441
  543MOL0     H73243   5.701   5.649   5.519  0.2047 -0.3737  0.2011
  543MOL0     H73244   5.572   5.546   5.317 -0.0584  1.0497  1.2984
  543MOL0     H73245   5.625   5.388   5.383 -3.2760  1.0215  1.3425
  543MOL0     H73246   5.814   5.611   5.315  3.6457 -1.6981  0.9934
  543MOL0     H73247   5.856   5.447   5.343 -0.9509 -1.9419  0.0589
  543MOL0     H73248   5.686   5.547   5.102  0.0699 -1.1256 -3.1855
  543MOL0     H73249   5.868   5.513   5.110  0.6395 -1.4819  2.0953
  543MOL0     H73250   5.816   5.277   5.150  0.1617 -0.3338  1.2447
  543MOL0     H73251   5.650   5.307   5.152  0.6999 -0.7610  1.8087
  543MOL0     H73252   5.834   5.328   4.905 -1.4860 -0.1320 -2.7776
  543MOL0     H73253   5.683   5.408   4.903 -2.6059  0.5799  1.1190
  543MOL0     H73254   5.679   5.115   4.976 -0.7986 -0.5457  1.3097
  543MOL0     H73255   5.544   5.222   4.946  0.9541 -0.5229  3.4829
  543MOL0     H73256   5.695   5.355   4.709 -0.6310  0.2075  0.3647
  543MOL0     H73257   5.604   5.352   4.428 -0.0562 -0.6122 -0.1369
  543MOL0     H73258   5.750   5.276   4.386  0.2692  0.5812  1.7783
  543MOL0     H73259   5.590   5.236   4.218 -0.3065  1.1224  1.9733
  543MOL0     H73260   5.651   5.087   4.319  0.4138  0.1549  3.4565
  543MOL0     H73261   5.439   5.066   4.422 -1.3942  1.2839  0.0141
  543MOL0     H73262   5.450   5.040   4.254 -3.5637  1.1742 -1.2269
  543MOL0     H73263   5.236   5.181   4.303 -1.6870  0.5220  1.4609
  543MOL0     H73264   5.347   5.296   4.221 -0.2189 -0.9835  0.1803
  543MOL0     H73265   5.192   5.106   4.483 -2.2751  1.1460  0.1263
  543MOL0     H73266   5.118   5.074   4.714  0.1146  0.8297  2.1464
  543MOL0     H73267   5.040   4.949   5.133 -0.7441  0.2478 -0.0026
  543MOL0     H73268   4.906   4.955   5.355 -1.4332  2.5755  2.1120
  543MOL0     H73269   4.697   5.304   5.481  3.1509 -1.5337 -0.6342
  543MOL0     H73270   4.582   5.193   5.391  0.9215 -0.3742 -0.5707
  543MOL0     H73271   4.532   5.277   5.640 -2.9805 -0.8155  2.9192
  543MOL0     H73272   4.495   5.107   5.609 -1.3346  1.7784  2.9454
  543MOL0     H73273   4.725   5.043   5.709 -1.5062 -2.5015  4.8462
  543MOL0     H73274   4.740   5.217   5.739  0.2955  0.6830 -1.1250
  543MOL0     H73275   4.505   5.054   5.839 -0.8000  0.7414 -1.0389
  543MOL0     H73276   4.552   5.212   5.890  0.6110 -0.9554  0.5896
  543MOL0     H73277   4.781   5.080   5.963 -0.7254 -0.3276 -0.5996
  543MOL0     H73278   4.680   4.938   5.949  1.7461 -1.3510  2.1467
  543MOL0     H73279   4.595   5.173   6.111  1.5250 -0.0650 -0.2024
  543MOL0     H73280   4.515   5.024   6.111 -1.2960  1.6791 -1.2127
  543MOL0     H73281   4.659   5.033   6.308 -0.9056 -0.0176 -0.9668
  543MOL0     H73282   4.801   5.070   6.206  1.6124 -1.6851 -1.2523
  543MOL0     H73283   4.773   4.818   6.103 -0.6520 -1.1557 -0.2786
  543MOL0     H73284   4.840   4.836   6.265 -0.8319  3.6050  2.4351
  543MOL0     H73285   4.758   5.333   5.270 -1.3882 -1.3239 -1.3688
  543MOL0     H73286   4.861   5.342   5.063  0.1190  0.7577  0.5897
  543MOL0     H73287   5.276   5.443   4.830 -1.4579 -1.6778  1.8535
  543MOL0     H73288   5.377   5.476   4.601 -0.6548  1.2414 -0.5484
  543MOL0     H73289   5.512   5.626   5.940  2.9136  2.0639 -3.9500
  543MOL0     H73290   5.326   5.724   6.079  0.2031 -0.5046  0.7937
  543MOL0     H73291   4.996   5.918   6.337  1.0571  0.6243 -0.6614
  543MOL0     H73292   4.804   6.006   6.424 -1.4903  0.5517  0.8017
  543MOL0     H73293   4.565   5.960   6.456 -0.4149 -0.6107 -1.7333
  543MOL0     H73294   4.415   6.020   6.390  0.8849 -1.6380 -2.3324
  543MOL0     H73295   4.612   6.145   6.566  0.6833  0.6830 -1.9873
  543MOL0     H73296   4.432   6.140   6.580 -1.5763 -0.3388 -1.1059
  543MOL0     H73297   4.415   6.324   6.428 -0.4578 -1.1463 -0.3288
  543MOL0     H73298   4.599   6.335   6.419 -0.8527 -0.1846  0.0388
  543MOL0     H73299   4.504   6.503   6.577  0.3182  0.4236  0.6182
  543MOL0     H73300   4.428   6.385   6.662 -1.2409  5.1242 -1.8151
  543MOL0     H73301   4.843   6.399   6.794 -0.1446  3.3219 -0.5047
  543MOL0     H73302   4.630   6.033   6.037  1.4508  0.4796  0.3263
  543MOL0     H73303   4.759   6.009   5.852 -1.5862  0.1444  3.0660
  543MOL0     H73304   4.933   6.005   5.838 -0.7719 -2.4236 -3.7778
  543MOL0     H73305   4.833   5.857   5.848 -3.9583  0.7792 -0.5463
  544MOL0     O73306   6.245  10.023   2.120  0.1921 -0.9878 -0.0075
  544MOL0     C73307   6.295   9.936   2.190 -0.4330 -0.9907 -0.4725
  544MOL0     O73308   6.259   9.803   2.191  0.8855  0.8645 -0.4377
  544MOL0     C73309   6.231   9.737   2.074  0.0381  0.4976 -0.8089
  544MOL0     C73310   6.153   9.629   2.092  0.2126  0.0237 -0.3271
  544MOL0     C73311   6.109   9.535   1.999 -0.1290 -0.3024 -0.7426
  544MOL0     C73312   6.159   9.553   1.873  0.3293 -0.6259 -0.0008
  544MOL0     O73313   6.128   9.466   1.769 -0.4300 -0.1160 -0.2942
  544MOL0     C73314   5.993   9.433   1.756  0.0814  1.5837 -0.1614
  544MOL0     C73315   5.998   9.279   1.711 -0.3579  0.1931  0.4097
  544MOL0     C73316   6.049   9.196   1.834 -0.1298 -0.0185 -0.4545
  544MOL0     C73317   6.136   9.076   1.798  0.3872 -0.7897 -0.2330
  544MOL0     C73318   6.148   8.981   1.916  0.5834  1.2256  0.0145
  544MOL0     C73319   6.014   8.904   1.946  0.0024 -0.4113  0.3121
  544MOL0     C73320   6.028   8.788   2.043  0.6129 -0.1440  0.9059
  544MOL0     C73321   5.897   8.726   2.060  0.3504  0.3426 -0.2544
  544MOL0     N73322   5.907   8.622   2.168 -0.6706 -0.5868  0.1696
  544MOL0     C73323   6.009   8.535   2.199  0.7906 -0.2881 -0.5046
  544MOL0     C73324   5.974   8.485   2.324 -0.1284 -0.2598 -0.3641
  544MOL0     C73325   6.078   8.420   2.412  0.3069  0.2929 -0.1215
  544MOL0     C73326   6.036   8.279   2.459 -0.2774 -0.1634  0.3606
  544MOL0     C73327   6.014   8.186   2.334 -0.4542 -0.2073  0.2790
  544MOL0     C73328   6.039   8.038   2.364 -1.0253  0.4823 -0.5764
  544MOL0     O73329   6.019   7.941   2.254 -0.0041  0.3827 -0.6426
  544MOL0     C73330   5.983   7.808   2.277  0.0364  0.0447 -0.6589
  544MOL0     C73331   5.951   7.721   2.170 -0.2629 -0.0279  0.2365
  544MOL0     C73332   5.900   7.598   2.186  0.9828  0.7832  0.0395
  544MOL0     C73333   5.898   7.538   2.315  1.4955 -0.5460  0.6486
  544MOL0     C73334   5.842   7.401   2.328 -0.0087 -0.1253 -0.3133
  544MOL0     O73335   5.768   7.355   2.217 -0.1631  0.5036 -0.0619
  544MOL0     C73336   5.697   7.235   2.226 -0.3470  0.5938  0.0832
  544MOL0     C73337   5.752   7.109   2.265 -0.1927  0.6706  0.0655
  544MOL0     C73338   5.664   7.001   2.267 -0.0807  0.3307 -0.2114
  544MOL0     C73339   5.545   7.004   2.192  0.4021 -0.3655  0.5916
  544MOL0     O73340   5.468   6.897   2.178  0.4053  0.4748  0.3132
  544MOL0     C73341   5.352   6.889   2.091  0.1888 -0.6070  0.1958
  544MOL0     C73342   5.332   6.750   2.027  0.8915  0.6692 -0.6036
  544MOL0     C73343   5.199   6.735   1.953 -0.3101 -0.0885 -1.3903
  544MOL0     C73344   5.084   6.681   2.032 -0.4887 -0.0661  0.1828
  544MOL0     C73345   4.989   6.623   1.929 -0.2071 -0.4390 -0.0327
  544MOL0     C73346   4.847   6.618   1.976  0.1500  0.3097  0.0512
  544MOL0     C73347   4.747   6.601   1.861 -0.5910 -0.0702 -0.2877
  544MOL0     C73348   4.613   6.545   1.904  0.0333 -0.0189  0.3416
  544MOL0    Cl73349   4.517   6.485   1.761 -0.0366 -0.2612 -0.1861
  544MOL0     C73350   5.505   7.125   2.134 -0.0276 -0.4253 -0.3133
  544MOL0     C73351   5.579   7.249   2.153 -0.3372  0.9750  0.7999
  544MOL0     O73352   5.852   7.337   2.430  0.4898 -0.1133 -0.6368
  544MOL0     C73353   5.941   7.615   2.425 -0.1977  0.5223 -0.7814
  544MOL0     C73354   5.971   7.749   2.410 -0.0898  0.1262 -0.1939
  544MOL0     N73355   5.853   8.538   2.364 -0.7186  0.0815  0.6139
  544MOL0     N73356   5.816   8.616   2.272  0.2384 -0.0393 -0.2871
  544MOL0     C73357   6.245   9.661   1.846 -0.3128 -0.1053  0.0989
  544MOL0     C73358   6.280   9.765   1.952  0.3005  0.3616  0.5408
  544MOL0     C73359   6.403   9.982   2.284  0.9826  0.4339 -0.7288
  544MOL0     C73360   6.428   9.890   2.396 -0.1461  0.6086 -0.2223
  544MOL0     C73361   6.516   9.927   2.496  0.8263 -0.6503  0.5375
  544MOL0     C73362   6.595  10.043   2.485  0.6819 -0.0938 -0.8395
  544MOL0     O73363   6.686  10.081   2.581 -0.4810  0.0990 -0.4118
  544MOL0     C73364   6.764  10.209   2.573  0.4283 -1.1471 -0.2659
  544MOL0     C73365   6.879  10.205   2.674 -0.8604 -0.3134 -0.0016
  544MOL0     C73366   6.976  10.316   2.671 -0.2708  0.0039 -1.0412
  544MOL0     C73367   7.077  10.330   2.777 -1.2142 -0.7351 -0.1133
  544MOL0     C73368   7.181  10.220   2.767  1.1178  0.1311 -0.0238
  544MOL0     C73369   7.258  10.126   2.765 -0.1502 -0.4192  0.3785
  544MOL0     C73370   6.569  10.129   2.376  0.1701 -0.7424 -0.5334
  544MOL0     C73371   6.473  10.102   2.283  0.7332  0.3510  1.6693
  544MOL0     C73372   6.454  10.207   2.181  0.0534 -0.2607 -0.3751
  544MOL0     H73373   6.134   9.592   2.193 -2.2161 -0.2446 -0.8135
  544MOL0     H73374   6.048   9.452   2.032 -1.8460  1.5914  1.1939
  544MOL0     H73375   5.935   9.439   1.849  1.8981 -0.5976  1.2018
  544MOL0     H73376   5.936   9.494   1.685 -0.1340  2.7094  0.9363
  544MOL0     H73377   6.077   9.279   1.635 -1.2580 -0.3240 -0.5333
  544MOL0     H73378   5.907   9.232   1.675 -0.6820  0.8256  0.3950
  544MOL0     H73379   5.963   9.161   1.891  0.2930 -4.0682 -1.9501
  544MOL0     H73380   6.099   9.263   1.904  0.1812 -0.6153 -0.0998
  544MOL0     H73381   6.081   9.032   1.714 -0.0479  2.9880 -2.1258
  544MOL0     H73382   6.232   9.117   1.765 -0.5240  1.2271 -0.5021
  544MOL0     H73383   6.214   8.898   1.888 -1.3844 -0.7604  0.9900
  544MOL0     H73384   6.167   9.040   2.006  0.4576 -0.7847  1.4256
  544MOL0     H73385   5.949   8.977   1.994  1.0104  1.8995 -1.6395
  544MOL0     H73386   5.955   8.873   1.860 -0.7388  0.2105  0.5848
  544MOL0     H73387   6.048   8.834   2.139 -0.5526  2.7587 -0.1428
  544MOL0     H73388   6.106   8.718   2.010 -0.8570 -0.7595 -1.5570
  544MOL0     H73389   5.815   8.797   2.076 -0.0579  0.1594 -1.4525
  544MOL0     H73390   5.873   8.673   1.968 -1.1883 -1.0751  0.9059
  544MOL0     H73391   6.096   8.498   2.145  0.4307 -2.9907  0.6062
  544MOL0     H73392   6.172   8.424   2.358  1.1216  1.2774  1.2998
  544MOL0     H73393   6.092   8.487   2.497 -1.6788  1.7316 -0.8648
  544MOL0     H73394   6.121   8.239   2.515  0.4270 -2.2351 -1.9808
  544MOL0     H73395   5.958   8.283   2.535 -0.0703  0.9421  0.5454
  544MOL0     H73396   6.089   8.214   2.259 -0.0482  0.1237  0.7967
  544MOL0     H73397   5.911   8.206   2.304 -0.9629 -1.7446  0.8572
  544MOL0     H73398   5.970   7.997   2.439  2.5037 -2.2858  1.5188
  544MOL0     H73399   6.140   8.014   2.399 -0.5237  1.7853 -1.0977
  544MOL0     H73400   5.973   7.754   2.069  0.2682 -1.4914 -0.1522
  544MOL0     H73401   5.887   7.541   2.095 -1.2666  1.8407 -0.3726
  544MOL0     H73402   5.855   7.091   2.298 -0.1239 -1.9368 -1.3159
  544MOL0     H73403   5.693   6.901   2.297 -3.2214 -0.2030  1.5624
  544MOL0     H73404   5.263   6.910   2.151 -0.8366  0.2011 -1.5103
  544MOL0     H73405   5.352   6.957   2.005 -0.0973 -3.8771 -2.5698
  544MOL0     H73406   5.420   6.731   1.965  1.6526  3.8157 -0.6655
  544MOL0     H73407   5.328   6.681   2.112  1.5407  3.5489  1.9535
  544MOL0     H73408   5.172   6.833   1.913 -0.1557 -0.4148 -2.3176
  544MOL0     H73409   5.216   6.679   1.860  2.2073 -1.0477 -0.4226
  544MOL0     H73410   5.051   6.768   2.091  1.9055  1.7579 -0.9907
  544MOL0     H73411   5.113   6.596   2.094  0.0420 -0.2216 -0.2787
  544MOL0     H73412   5.023   6.527   1.889  1.4313  0.5632 -1.1880
  544MOL0     H73413   4.979   6.702   1.854 -0.6958  1.1525  1.6467
  544MOL0     H73414   4.835   6.527   2.035 -3.4040  1.6813  1.7172
  544MOL0     H73415   4.820   6.710   2.027  1.6646  0.3752  0.7996
  544MOL0     H73416   4.789   6.535   1.785  2.2728 -0.4612  1.5028
  544MOL0     H73417   4.733   6.692   1.801 -2.0311 -0.1358 -0.0760
  544MOL0     H73418   4.633   6.462   1.971 -1.8959  0.5794  1.7499
  544MOL0     H73419   4.557   6.616   1.966  0.3540 -1.6507  2.6346
  544MOL0     H73420   5.411   7.135   2.080  0.6594 -1.7753 -1.8793
  544MOL0     H73421   5.551   7.347   2.119  0.4640  0.3790 -1.8018
  544MOL0     H73422   5.931   7.580   2.528  1.7494  1.7983 -0.0805
  544MOL0     H73423   5.970   7.810   2.500 -3.7778 -0.2833  0.1878
  544MOL0     H73424   6.282   9.679   1.746 -1.0695 -1.7004 -0.4881
  544MOL0     H73425   6.338   9.856   1.940  0.2088  0.4183  0.5275
  544MOL0     H73426   6.372   9.799   2.412 -0.5303  1.0204  0.8569
  544MOL0     H73427   6.540   9.860   2.578 -1.2018 -0.5651  1.2700
  544MOL0     H73428   6.712  10.303   2.596  3.3303 -0.2563  4.0334
  544MOL0     H73429   6.805  10.212   2.472 -0.1110  1.5122 -0.4890
  544MOL0     H73430   6.939  10.115   2.664  2.3721  1.4575  1.7682
  544MOL0     H73431   6.836  10.199   2.775  2.5546  1.0331  1.6875
  544MOL0     H73432   6.917  10.409   2.678 -2.2162 -1.0757 -2.0858
  544MOL0     H73433   7.025  10.316   2.573 -0.4291  1.7513 -1.1632
  544MOL0     H73434   7.115  10.432   2.773 -1.7143 -0.5768 -2.4126
  544MOL0     H73435   7.031  10.315   2.875 -0.4541  0.1344  0.3937
  544MOL0     H73436   7.324  10.041   2.769 -0.6530 -0.8338  0.1139
  544MOL0     H73437   6.623  10.223   2.366  1.4853 -1.5655 -1.5478
  544MOL0     H73438   6.488  10.165   2.086  3.1516 -1.9237  1.3372
  544MOL0     H73439   6.352  10.239   2.157  0.3188 -1.6791 -4.0570
  544MOL0     H73440   6.515  10.296   2.200  3.0483 -2.9666  4.5571
  545MOL0     O73441   7.686   2.315   3.009  0.5250  0.0138 -0.2836
  545MOL0     C73442   7.575   2.284   2.963 -0.0587  0.7203 -0.1368
  545MOL0     O73443   7.555   2.181   2.882 -1.0912 -0.1590 -0.4557
  545MOL0     C73444   7.635   2.076   2.875  0.7401  0.8918  0.0551
  545MOL0     C73445   7.732   2.037   2.977  0.0589 -0.0635  0.7286
  545MOL0     C73446   7.799   1.918   2.966  0.6388  0.3474 -1.1951
  545MOL0     C73447   7.779   1.836   2.848  1.0743 -0.4366 -0.0004
  545MOL0     O73448   7.854   1.723   2.831  1.1856  0.5836 -0.0758
  545MOL0     C73449   7.986   1.734   2.798 -0.8515  0.1486  0.5979
  545MOL0     C73450   8.009   1.767   2.654 -1.0790  0.7717 -0.1851
  545MOL0     C73451   8.163   1.783   2.639 -0.1186 -0.3018 -0.3981
  545MOL0     C73452   8.209   1.801   2.492  0.7064  0.4648  0.7214
  545MOL0     C73453   8.206   1.931   2.415  0.6508  0.3421  0.3185
  545MOL0     C73454   8.261   2.044   2.492  0.0726 -0.7230  0.4881
  545MOL0     C73455   8.310   2.160   2.392 -0.3702  0.4446 -0.3011
  545MOL0     C73456   8.345   2.299   2.472  0.7437  0.3807  0.3716
  545MOL0     N73457   8.458   2.284   2.560  0.1925 -0.1344 -0.1018
  545MOL0     C73458   8.503   2.375   2.651 -0.0834  0.4224  0.1742
  545MOL0     C73459   8.615   2.320   2.704  0.1945  0.6478 -0.4090
  545MOL0     C73460   8.689   2.357   2.830 -0.7778 -0.4050  0.6713
  545MOL0     C73461   8.781   2.483   2.798 -0.8017 -0.1711 -0.4237
  545MOL0     C73462   8.832   2.566   2.930  0.9144  0.1871  1.1224
  545MOL0     C73463   8.898   2.470   3.028  0.0410  0.1856  0.5220
  545MOL0     O73464   9.004   2.401   2.978  0.1413  0.4457  0.3211
  545MOL0     C73465   9.100   2.482   2.929 -0.1389  0.4588  0.0149
  545MOL0     C73466   9.154   2.585   3.005 -0.3966  0.6459 -0.6382
  545MOL0     C73467   9.273   2.646   2.957  0.0788 -0.1277  0.6127
  545MOL0     C73468   9.341   2.600   2.844 -0.5755 -0.1007  0.8466
  545MOL0     C73469   9.457   2.678   2.785 -0.4852 -0.7343  0.1385
  545MOL0     O73470   9.462   2.812   2.813 -0.2714  0.0869  0.4227
  545MOL0     C73471   9.577   2.877   2.795  0.1368  0.0106 -0.4374
  545MOL0     C73472   9.573   2.966   2.683 -0.2586  0.5718 -0.9206
  545MOL0     C73473   9.685   3.035   2.650  0.9187 -0.7208  0.1910
  545MOL0     C73474   9.793   3.031   2.734 -0.5433  0.5711 -0.6185
  545MOL0     O73475   9.905   3.115   2.719 -0.2097  0.2460 -0.1730
  545MOL0     C73476  10.033   3.061   2.701 -0.4855  0.4711  0.2658
  545MOL0     C73477  10.037   2.957   2.582 -0.0488  0.5256  1.2331
  545MOL0     C73478  10.184   2.935   2.547 -0.5236 -0.4954  0.4996
  545MOL0     C73479  10.266   2.850   2.646 -0.0943 -0.3154 -0.0635
  545MOL0     C73480  10.396   2.807   2.600  0.1147 -0.3129  0.8750
  545MOL0     C73481  10.470   2.723   2.707 -0.5953 -0.2800 -0.4720
  545MOL0     C73482  10.609   2.689   2.663  0.4400  0.4792  0.2262
  545MOL0     C73483  10.626   2.600   2.542 -0.3232 -1.1688  0.1715
  545MOL0    Cl73484  10.801   2.552   2.519  0.3200 -0.0948  0.3496
  545MOL0     C73485   9.801   2.933   2.834  0.1797  0.2809  0.5163
  545MOL0     C73486   9.687   2.859   2.876  0.0690 -0.3409  0.1037
  545MOL0     O73487   9.536   2.618   2.709 -0.0682 -0.6465 -0.6685
  545MOL0     C73488   9.289   2.487   2.772 -0.3071 -0.0141 -0.1646
  545MOL0     C73489   9.164   2.431   2.816  0.2171 -0.0870  0.0092
  545MOL0     N73490   8.636   2.200   2.633  0.0911 -0.6272  0.6438
  545MOL0     N73491   8.549   2.192   2.537 -0.5104 -0.0325  0.0501
  545MOL0     C73492   7.679   1.868   2.757  0.1800  0.1161 -0.0844
  545MOL0     C73493   7.610   1.989   2.771 -0.3030 -0.4324  0.2633
  545MOL0     C73494   7.468   2.367   3.000  0.3886  0.4203  0.3601
  545MOL0     C73495   7.339   2.304   3.002 -0.1776 -0.7945  0.6577
  545MOL0     C73496   7.218   2.365   3.035 -0.6083  0.2121  0.1533
  545MOL0     C73497   7.228   2.503   3.055 -0.3886  0.1176  0.2904
  545MOL0     O73498   7.102   2.560   3.079  0.9848  0.5976 -0.8630
  545MOL0     C73499   7.081   2.702   3.082  0.5065  0.4573 -0.1346
  545MOL0     C73500   6.931   2.732   3.084 -0.1577  0.2075 -0.7379
  545MOL0     C73501   6.867   2.719   3.227  1.1538 -0.3190  0.2868
  545MOL0     C73502   6.720   2.778   3.232  0.3437  0.6550  0.5193
  545MOL0     C73503   6.628   2.706   3.138 -0.8378 -0.3076  0.2718
  545MOL0     C73504   6.562   2.650   3.055 -0.4300 -0.2113 -0.4641
  545MOL0     C73505   7.348   2.570   3.042  0.3159 -1.0821  0.3156
  545MOL0     C73506   7.471   2.506   3.018 -0.5098  1.0401  0.2638
  545MOL0     C73507   7.588   2.586   2.986 -0.4506  1.3622  0.1928
  545MOL0     H73508   7.744   2.105   3.060 -1.5349  2.1124 -0.6906
  545MOL0     H73509   7.870   1.889   3.043 -4.1003 -2.8758  2.5761
  545MOL0     H73510   8.025   1.807   2.870 -0.7636  0.6647  0.0301
  545MOL0     H73511   8.035   1.638   2.822  2.2590  2.0249  2.4633
  545MOL0     H73512   7.962   1.862   2.626  0.5336  1.6296 -0.1293
  545MOL0     H73513   7.975   1.682   2.594  4.4945 -0.2845 -2.4274
  545MOL0     H73514   8.197   1.687   2.678 -4.5952 -2.0835 -0.2427
  545MOL0     H73515   8.199   1.860   2.707 -1.4665 -0.5717  0.6678
  545MOL0     H73516   8.315   1.776   2.505  1.7056  3.1699 -1.3413
  545MOL0     H73517   8.168   1.728   2.421  4.4627 -0.3605 -0.8388
  545MOL0     H73518   8.260   1.926   2.320 -1.3707 -1.3283 -0.8215
  545MOL0     H73519   8.101   1.956   2.396  0.6378  0.4244  0.4871
  545MOL0     H73520   8.190   2.070   2.570  0.1605  1.2708 -0.0383
  545MOL0     H73521   8.356   2.011   2.533  1.9115  2.9788 -0.4137
  545MOL0     H73522   8.232   2.181   2.318  0.9602  3.6819 -0.9811
  545MOL0     H73523   8.395   2.128   2.330 -2.6323  0.7649 -3.8361
  545MOL0     H73524   8.369   2.386   2.409  3.2816 -0.3473  0.2081
  545MOL0     H73525   8.256   2.330   2.526 -0.2420  0.1336 -1.0436
  545MOL0     H73526   8.471   2.477   2.673 -1.3034 -0.0344  0.5740
  545MOL0     H73527   8.621   2.384   2.912  0.2610 -1.6381  1.9991
  545MOL0     H73528   8.761   2.287   2.872 -1.0095 -0.5128  0.8932
  545MOL0     H73529   8.869   2.458   2.738 -0.8984  1.8366 -1.4823
  545MOL0     H73530   8.722   2.550   2.736  1.0265  1.4798 -0.4567
  545MOL0     H73531   8.748   2.614   2.980  2.4394  2.0523  1.9998
  545MOL0     H73532   8.896   2.647   2.893 -1.6771  1.5338 -0.7753
  545MOL0     H73533   8.829   2.393   3.064  0.7361 -0.5034  0.4007
  545MOL0     H73534   8.926   2.531   3.115  0.2463 -2.3191  2.3263
  545MOL0     H73535   9.112   2.621   3.099 -2.9240 -0.5714 -1.2149
  545MOL0     H73536   9.305   2.727   3.022 -0.6806  1.7008 -1.1975
  545MOL0     H73537   9.486   2.985   2.621 -1.2554 -1.0452 -0.0838
  545MOL0     H73538   9.687   3.102   2.565  4.0857  1.4650  1.7583
  545MOL0     H73539  10.099   3.145   2.675 -0.3976  0.4221  0.3316
  545MOL0     H73540  10.082   3.023   2.792 -1.2362 -0.2185  0.3948
  545MOL0     H73541   9.982   2.872   2.622 -0.5674  0.8786  1.2874
  545MOL0     H73542   9.972   3.000   2.504 -0.1102 -4.4538 -1.8934
  545MOL0     H73543  10.192   2.892   2.447 -1.5020 -0.1777  0.2693
  545MOL0     H73544  10.243   3.027   2.550 -0.7493 -0.2969 -0.6403
  545MOL0     H73545  10.208   2.761   2.673 -0.1739 -0.4240 -0.5914
  545MOL0     H73546  10.269   2.900   2.743  0.7463 -1.4655  0.5290
  545MOL0     H73547  10.451   2.899   2.579 -0.9869  0.5435  1.5906
  545MOL0     H73548  10.395   2.750   2.507 -0.1343  0.3123  0.4852
  545MOL0     H73549  10.465   2.781   2.800 -2.4244  0.1424 -0.7781
  545MOL0     H73550  10.412   2.633   2.728  0.3785 -0.1308  3.5886
  545MOL0     H73551  10.654   2.631   2.744  1.9102 -1.4082 -1.8166
  545MOL0     H73552  10.672   2.775   2.639  0.6854  0.2475  0.0184
  545MOL0     H73553  10.571   2.507   2.560 -3.9517  0.8324  0.4368
  545MOL0     H73554  10.596   2.654   2.451  4.9847 -0.0079 -1.2031
  545MOL0     H73555   9.893   2.915   2.888  0.4839 -1.0689 -0.3848
  545MOL0     H73556   9.681   2.788   2.958  2.0370  0.3642  0.9247
  545MOL0     H73557   9.330   2.459   2.676  3.8167  3.3628  0.3150
  545MOL0     H73558   9.114   2.347   2.768 -2.0562  0.2998  1.5353
  545MOL0     H73559   7.659   1.812   2.666  1.3890  1.9957 -1.5767
  545MOL0     H73560   7.542   2.014   2.691 -1.4270 -1.9280  0.7245
  545MOL0     H73561   7.316   2.200   2.979  3.3664 -1.8081  1.1703
  545MOL0     H73562   7.123   2.315   3.044 -2.6422  3.0218 -3.2000
  545MOL0     H73563   7.132   2.747   2.996  2.2080  0.9881  1.0892
  545MOL0     H73564   7.125   2.738   3.176  0.0083  0.2623  0.1751
  545MOL0     H73565   6.885   2.660   3.015 -0.1462 -0.0149 -0.5147
  545MOL0     H73566   6.917   2.832   3.042 -1.7383  0.1493 -0.3984
  545MOL0     H73567   6.921   2.788   3.293 -1.1870  1.0069  0.9363
  545MOL0     H73568   6.867   2.615   3.259 -3.0443 -0.1250  1.4612
  545MOL0     H73569   6.689   2.762   3.336 -0.0651  3.4673  0.9246
  545MOL0     H73570   6.733   2.886   3.218  2.3015  0.5162  1.0160
  545MOL0     H73571   6.498   2.593   2.991 -0.0292 -0.6528 -0.4735
  545MOL0     H73572   7.355   2.678   3.048 -1.9069 -0.7780 -1.2065
  545MOL0     H73573   7.616   2.572   2.881 -0.1548  2.9923  0.0213
  545MOL0     H73574   7.569   2.693   3.003  0.4792  1.8046 -1.3623
  545MOL0     H73575   7.669   2.567   3.057  0.2831 -1.4094 -1.2584
  546MOL0     O73576   7.103   9.302   7.615 -0.3869 -0.0965 -0.1981
  546MOL0     C73577   7.196   9.270   7.541  0.4921 -0.1436  0.0146
  546MOL0     O73578   7.265   9.364   7.471 -0.1102  0.4023 -0.2670
  546MOL0     C73579   7.212   9.488   7.462  0.3871 -0.2358  0.2535
  546MOL0     C73580   7.143   9.532   7.348  0.4640 -0.9915  0.3011
  546MOL0     C73581   7.068   9.647   7.339 -0.5347 -0.3537  0.7948
  546MOL0     C73582   7.089   9.745   7.437  0.0716  0.4199  0.0866
  546MOL0     O73583   7.045   9.875   7.439  0.1818 -0.1871 -0.4533
  546MOL0     C73584   6.899   9.875   7.423 -0.0177 -0.6008 -0.0352
  546MOL0     C73585   6.854  10.017   7.464  0.0056 -0.1649 -0.1023
  546MOL0     C73586   6.718  10.065   7.397  0.2553 -0.0148 -0.8945
  546MOL0     C73587   6.594  10.022   7.482 -0.9448  0.3711 -0.5294
  546MOL0     C73588   6.460  10.089   7.439  0.4630 -0.4224  1.3726
  546MOL0     C73589   6.338  10.017   7.495  0.8659 -0.4012 -0.1060
  546MOL0     C73590   6.210  10.100   7.473 -0.8969  0.1969  0.2976
  546MOL0     C73591   6.188  10.207   7.592  0.1448 -0.5437  0.9547
  546MOL0     N73592   6.099  10.321   7.544 -0.3100  0.3010 -0.6273
  546MOL0     C73593   5.959  10.306   7.552 -0.1681  0.1929  0.5903
  546MOL0     C73594   5.920  10.429   7.511 -0.5748 -0.4321  0.7201
  546MOL0     C73595   5.782  10.480   7.470 -0.3876 -0.8312  0.3605
  546MOL0     C73596   5.682  10.375   7.435 -0.4396 -0.2943 -0.3467
  546MOL0     C73597   5.542  10.442   7.447  0.2124 -0.4207 -0.0341
  546MOL0     C73598   5.517  10.560   7.344  0.6531  0.8541 -0.2624
  546MOL0     O73599   5.537  10.521   7.202 -0.6640 -0.1856  0.2006
  546MOL0     C73600   5.479  10.614   7.107  0.3535  1.2154  0.0445
  546MOL0     C73601   5.412  10.571   6.987  0.6631 -0.2479 -0.5033
  546MOL0     C73602   5.356  10.663   6.891  0.2550  0.5205 -0.0043
  546MOL0     C73603   5.362  10.801   6.917 -0.4476  0.1804  0.8917
  546MOL0     C73604   5.300  10.888   6.818 -0.2143 -0.2664  0.0763
  546MOL0     O73605   5.281  11.017   6.862 -0.1075  0.1436 -0.4458
  546MOL0     C73606   5.279  11.121   6.769  0.4085 -0.4320 -0.7208
  546MOL0     C73607   5.204  11.238   6.806 -0.6480  0.1129  1.0688
  546MOL0     C73608   5.201  11.340   6.718  0.5943 -0.5804  1.0348
  546MOL0     C73609   5.274  11.342   6.593  0.8877 -0.1914  0.8960
  546MOL0     O73610   5.254  11.451   6.506  0.0794 -0.4105 -0.2926
  546MOL0     C73611   5.334  11.462   6.385  0.4670  0.5853 -1.0429
  546MOL0     C73612   5.281  11.559   6.285 -0.8886  0.1238  0.8578
  546MOL0     C73613   5.281  11.705   6.318 -0.0760  0.1770  0.6967
  546MOL0     C73614   5.420  11.774   6.342 -0.7934 -0.5983 -1.0238
  546MOL0     C73615   5.454  11.782   6.490  0.7881  0.1134 -0.6108
  546MOL0     C73616   5.592  11.846   6.526  0.6200 -0.0593 -0.1516
  546MOL0     C73617   5.697  11.802   6.427  0.7372 -0.9220 -0.3749
  546MOL0     C73618   5.728  11.650   6.427  1.0313  0.3413 -0.5406
  546MOL0    Cl73619   5.780  11.593   6.581  0.2165  0.0903 -0.2581
  546MOL0     C73620   5.350  11.225   6.567 -0.5483  0.3268  0.1554
  546MOL0     C73621   5.363  11.123   6.655 -0.5923 -0.0558 -0.0497
  546MOL0     O73622   5.265  10.838   6.714 -0.0417 -0.2645  0.2757
  546MOL0     C73623   5.414  10.847   7.038  0.3244  0.6128 -0.5860
  546MOL0     C73624   5.475  10.752   7.130  0.1312 -0.1601  0.6104
  546MOL0     N73625   6.033  10.512   7.499  0.5116  0.3553 -0.9256
  546MOL0     N73626   6.139  10.445   7.502  1.2574 -0.2107 -0.2584
  546MOL0     C73627   7.185   9.711   7.540  0.1189 -0.3217 -0.3366
  546MOL0     C73628   7.236   9.583   7.561 -0.6108 -0.1557  0.5069
  546MOL0     C73629   7.223   9.119   7.522  0.3698 -0.1263 -0.1981
  546MOL0     C73630   7.327   9.086   7.435 -0.5189  0.0586 -0.5392
  546MOL0     C73631   7.359   8.959   7.399 -0.9819 -0.3685  0.1883
  546MOL0     C73632   7.298   8.853   7.460  0.2257  0.7146  0.2129
  546MOL0     O73633   7.327   8.721   7.440  1.4737  0.9271  0.1197
  546MOL0     C73634   7.433   8.688   7.352 -0.1532  0.1662  0.2919
  546MOL0     C73635   7.466   8.532   7.360 -0.5794 -0.7075 -0.3994
  546MOL0     C73636   7.341   8.452   7.328  0.3583  0.2944  0.4381
  546MOL0     C73637   7.377   8.302   7.315 -0.3380 -0.4885  0.6501
  546MOL0     C73638   7.303   8.228   7.218 -0.8484  0.9438 -0.6573
  546MOL0     C73639   7.258   8.155   7.131 -0.3970 -1.3741  0.2208
  546MOL0     C73640   7.200   8.879   7.555  0.1554  0.3413  0.4769
  546MOL0     C73641   7.162   9.007   7.582 -0.4098 -0.0606 -0.2395
  546MOL0     C73642   7.065   9.020   7.699 -0.2487 -0.0307  0.1180
  546MOL0     H73643   7.151   9.469   7.260  1.7504 -2.8469  1.6761
  546MOL0     H73644   7.004   9.678   7.257 -0.3185 -1.2508  0.2639
  546MOL0     H73645   6.862   9.865   7.320 -2.8860  2.9037  0.4839
  546MOL0     H73646   6.847   9.805   7.490  1.0077  0.9314  2.4982
  546MOL0     H73647   6.930  10.085   7.423 -0.9764  1.4547  0.6468
  546MOL0     H73648   6.851  10.022   7.573 -1.3205  2.2705 -0.1602
  546MOL0     H73649   6.706  10.027   7.295  1.7631  1.7152 -1.7810
  546MOL0     H73650   6.719  10.174   7.403 -0.6513 -0.0765  1.1075
  546MOL0     H73651   6.587   9.913   7.472  1.8511  0.3026 -2.9821
  546MOL0     H73652   6.604  10.060   7.584  2.6354 -2.3492  0.3408
  546MOL0     H73653   6.454  10.191   7.478 -0.6883  0.7716 -1.6844
  546MOL0     H73654   6.460  10.106   7.331 -0.4995  1.7101  1.6643
  546MOL0     H73655   6.334   9.914   7.459  1.7105  0.4576 -2.8998
  546MOL0     H73656   6.350  10.011   7.603  0.7769  0.8095 -0.0099
  546MOL0     H73657   6.129  10.028   7.459  0.1693 -0.6585 -1.9360
  546MOL0     H73658   6.227  10.157   7.381 -2.0242  0.5248  0.2714
  546MOL0     H73659   6.173  10.167   7.693  0.1668 -0.5915  0.9397
  546MOL0     H73660   6.286  10.253   7.604  0.0564  0.3831 -1.3960
  546MOL0     H73661   5.898  10.218   7.570  2.5474 -2.6386 -2.5903
  546MOL0     H73662   5.745  10.536   7.556 -2.0655 -0.9130 -0.2711
  546MOL0     H73663   5.802  10.543   7.382  1.5688 -0.9796  0.6536
  546MOL0     H73664   5.704  10.328   7.339  0.0552 -2.0773  0.5945
  546MOL0     H73665   5.691  10.302   7.516  2.6261  2.6409  2.2692
  546MOL0     H73666   5.532  10.470   7.552  1.4726 -5.2605  1.6282
  546MOL0     H73667   5.453  10.380   7.434 -0.5287  0.6082 -0.0174
  546MOL0     H73668   5.589  10.637   7.374  1.9677  0.3754 -2.0030
  546MOL0     H73669   5.417  10.603   7.353  0.3908  0.5505 -1.5192
  546MOL0     H73670   5.408  10.464   6.968  1.1176 -0.1794 -1.0054
  546MOL0     H73671   5.315  10.624   6.799 -1.4136  1.0593  0.4781
  546MOL0     H73672   5.155  11.230   6.902 -2.0829 -2.6619  0.2207
  546MOL0     H73673   5.142  11.431   6.725  2.1888  0.8437 -1.9279
  546MOL0     H73674   5.439  11.487   6.406  0.4086 -0.0374  0.0830
  546MOL0     H73675   5.336  11.359   6.346  1.7642 -0.7391  2.1509
  546MOL0     H73676   5.335  11.549   6.190 -0.3706 -0.9012  1.2479
  546MOL0     H73677   5.179  11.523   6.270 -0.3047 -2.0045  1.6461
  546MOL0     H73678   5.238  11.766   6.238 -0.0582  1.5504  1.7088
  546MOL0     H73679   5.215  11.716   6.405 -0.1491  2.4990  0.4062
  546MOL0     H73680   5.409  11.868   6.288 -0.3865 -0.3413 -0.6685
  546MOL0     H73681   5.491  11.713   6.286 -0.3143 -2.4556  1.4173
  546MOL0     H73682   5.461  11.688   6.545  1.3185  1.8035  2.4936
  546MOL0     H73683   5.379  11.837   6.548  0.1351 -1.2489 -0.1200
  546MOL0     H73684   5.578  11.955   6.533  1.5943  0.0719 -0.2016
  546MOL0     H73685   5.624  11.806   6.623 -2.3274 -2.4081  0.0113
  546MOL0     H73686   5.787  11.859   6.451 -0.8483  2.1486 -1.1409
  546MOL0     H73687   5.664  11.838   6.329  1.3936  0.0329 -0.2551
  546MOL0     H73688   5.632  11.604   6.403  0.9537  1.8330 -3.5833
  546MOL0     H73689   5.804  11.636   6.350  0.7389  0.8914 -0.9444
  546MOL0     H73690   5.416  11.225   6.481 -0.4603 -1.0151  0.2007
  546MOL0     H73691   5.437  11.047   6.631 -2.2713 -2.1536  1.0797
  546MOL0     H73692   5.411  10.955   7.050 -0.6395  0.6092 -0.6900
  546MOL0     H73693   5.525  10.793   7.218  1.2406  1.2551 -0.6295
  546MOL0     H73694   7.220   9.791   7.605  1.1541 -0.0639 -1.1826
  546MOL0     H73695   7.315   9.573   7.635  1.8985  2.9681 -1.4622
  546MOL0     H73696   7.390   9.156   7.382  1.5901 -1.0880  0.3377
  546MOL0     H73697   7.440   8.947   7.328 -0.3698  2.0333  0.3922
  546MOL0     H73698   7.527   8.734   7.382 -0.3188  0.7939 -0.1402
  546MOL0     H73699   7.414   8.700   7.245 -0.4357 -2.0809  0.0348
  546MOL0     H73700   7.505   8.519   7.462 -2.0535 -1.9191  0.0339
  546MOL0     H73701   7.554   8.517   7.296 -0.1593  2.4747 -0.7442
  546MOL0     H73702   7.293   8.484   7.235 -1.8370  0.7775  1.6836
  546MOL0     H73703   7.266   8.465   7.407  0.0560 -3.4703  0.9609
  546MOL0     H73704   7.483   8.285   7.292 -0.3435 -0.4329  0.5809
  546MOL0     H73705   7.368   8.269   7.419 -3.4889  1.8911  1.2688
  546MOL0     H73706   7.211   8.102   7.051 -0.2376 -0.6463 -0.3671
  546MOL0     H73707   7.150   8.792   7.597 -0.0721 -1.6374 -3.4021
  546MOL0     H73708   7.117   9.041   7.793 -1.2795 -0.3063  0.7708
  546MOL0     H73709   7.003   9.108   7.676 -1.1152 -0.9422 -1.1720
  546MOL0     H73710   6.997   8.934   7.697 -0.4302  0.0873 -3.1795
  547MOL0     O73711   6.139   5.492  10.008  0.4725 -0.0680 -0.1615
  547MOL0     C73712   6.147   5.401  10.092  0.7216 -0.5741  0.1867
  547MOL0     O73713   6.170   5.417  10.225 -0.2286  1.0437 -0.0324
  547MOL0     C73714   6.238   5.528  10.268  0.1277  0.3013  0.9804
  547MOL0     C73715   6.344   5.586  10.204  0.3074  1.0939  0.1486
  547MOL0     C73716   6.392   5.710  10.236 -0.4433 -0.1149  0.5853
  547MOL0     C73717   6.345   5.787  10.347 -0.4883  0.0271 -0.2203
  547MOL0     O73718   6.401   5.896  10.406 -0.0395 -0.7379  0.4354
  547MOL0     C73719   6.540   5.927  10.375 -0.1300  0.1260 -0.0831
  547MOL0     C73720   6.551   6.071  10.420 -0.7823  0.1265  0.4283
  547MOL0     C73721   6.559   6.088  10.571 -0.2093 -0.0003 -0.2205
  547MOL0     C73722   6.492   6.221  10.595 -0.2044 -0.8185 -0.2481
  547MOL0     C73723   6.494   6.234  10.744 -0.1468 -0.3242 -0.1525
  547MOL0     C73724   6.415   6.364  10.794 -0.8552  0.6179  0.1007
  547MOL0     C73725   6.423   6.384  10.947  0.0886 -0.7318 -0.2302
  547MOL0     C73726   6.341   6.283  11.029  0.1310  0.2589  0.1943
  547MOL0     N73727   6.335   6.340  11.167  0.5391  0.0019 -0.1717
  547MOL0     C73728   6.264   6.444  11.225 -0.0505 -0.5500  0.0853
  547MOL0     C73729   6.310   6.454  11.351 -0.0287 -0.2733  0.3099
  547MOL0     C73730   6.263   6.572  11.443 -0.1039  0.1344  0.2326
  547MOL0     C73731   6.303   6.699  11.371  0.2330  0.1228  0.5702
  547MOL0     C73732   6.325   6.815  11.478  1.2325  0.5178  0.9169
  547MOL0     C73733   6.270   6.945  11.419  0.9055 -0.7510 -0.9565
  547MOL0     O73734   6.129   6.928  11.404 -1.0259 -0.2771 -0.0189
  547MOL0     C73735   6.047   7.036  11.396  0.0635  0.9813 -0.0858
  547MOL0     C73736   5.909   7.019  11.390  0.4840 -0.7551 -0.3725
  547MOL0     C73737   5.826   7.127  11.362 -0.0134  0.4522  0.7168
  547MOL0     C73738   5.872   7.258  11.361 -1.1433  0.2349 -0.2471
  547MOL0     C73739   5.785   7.373  11.332  1.2945 -1.4449 -0.5521
  547MOL0     O73740   5.675   7.352  11.247 -0.1398  1.2617  0.3898
  547MOL0     C73741   5.619   7.466  11.199 -0.5350  0.1543 -0.3196
  547MOL0     C73742   5.517   7.530  11.277  0.1555  0.2388  0.4108
  547MOL0     C73743   5.435   7.627  11.228  0.3601 -0.0120 -0.4900
  547MOL0     C73744   5.474   7.699  11.109  0.1292  1.4456  0.2918
  547MOL0     O73745   5.398   7.792  11.055 -0.0714 -0.5964 -0.1767
  547MOL0     C73746   5.331   7.875  11.155  0.0558  0.7467  0.0660
  547MOL0     C73747   5.249   7.986  11.076 -0.2957 -0.0256 -0.8992
  547MOL0     C73748   5.332   8.095  11.003  0.4577  0.5549  0.0185
  547MOL0     C73749   5.303   8.114  10.852 -0.6244  0.0239 -0.0111
  547MOL0     C73750   5.159   8.147  10.809 -0.5696  0.0912  0.3825
  547MOL0     C73751   5.142   8.191  10.666 -0.4113  0.0585 -0.5250
  547MOL0     C73752   5.229   8.319  10.629  0.5812 -0.6705 -0.0579
  547MOL0     C73753   5.195   8.366  10.487 -0.6913 -0.3889  0.2112
  547MOL0    Cl73754   5.042   8.465  10.489 -0.5693  0.1311 -0.1639
  547MOL0     C73755   5.581   7.644  11.027 -0.1733  0.5664  0.3225
  547MOL0     C73756   5.648   7.525  11.068  0.3346 -0.2255 -0.1666
  547MOL0     O73757   5.823   7.489  11.363  0.6953 -0.3249 -0.2764
  547MOL0     C73758   6.006   7.283  11.392  0.0894  0.1301  0.8421
  547MOL0     C73759   6.082   7.173  11.399 -0.2096 -0.0353 -0.9527
  547MOL0     N73760   6.398   6.347  11.366  0.5979 -0.2372  0.9118
  547MOL0     N73761   6.398   6.274  11.259 -0.0748  0.3002 -0.5468
  547MOL0     C73762   6.250   5.716  10.427  0.3911  1.1640  0.3651
  547MOL0     C73763   6.192   5.594  10.380 -0.3781 -0.2424  0.4836
  547MOL0     C73764   6.108   5.264  10.052  0.9948  0.1728  0.0863
  547MOL0     C73765   6.111   5.244   9.908  0.2684  1.5776 -0.5816
  547MOL0     C73766   6.081   5.113   9.857 -0.2500 -0.4725  0.7634
  547MOL0     C73767   6.034   5.013   9.931  0.5385 -0.5693 -1.2089
  547MOL0     O73768   5.989   4.913   9.854  0.3261 -0.3737  0.0710
  547MOL0     C73769   5.939   4.798   9.928 -0.4931 -0.1207  1.1532
  547MOL0     C73770   5.968   4.679   9.832  0.8186  0.7896  0.4991
  547MOL0     C73771   5.888   4.681   9.701  0.2315  0.3537 -0.6333
  547MOL0     C73772   5.907   4.551   9.632 -0.9620 -0.1787 -0.2046
  547MOL0     C73773   5.957   4.565   9.491 -0.1485 -0.2518 -0.4150
  547MOL0     C73774   5.989   4.569   9.374  0.5125 -0.4765 -0.0578
  547MOL0     C73775   6.030   5.034  10.073 -0.4397  0.3621 -0.4787
  547MOL0     C73776   6.074   5.151  10.134  0.3847  0.6826  0.6476
  547MOL0     C73777   6.077   5.154  10.287 -0.0978  0.3041  0.5319
  547MOL0     H73778   6.389   5.534  10.120  0.1092 -1.9439  1.7551
  547MOL0     H73779   6.464   5.769  10.181 -0.8294  1.0489  1.2945
  547MOL0     H73780   6.612   5.855  10.417  0.3107 -1.2481 -2.9418
  547MOL0     H73781   6.558   5.928  10.267 -1.0953  4.4252 -0.3921
  547MOL0     H73782   6.471   6.129  10.373 -1.4787 -2.6126 -2.0381
  547MOL0     H73783   6.644   6.112  10.379 -0.8288  0.7150  0.8925
  547MOL0     H73784   6.661   6.089  10.610  0.6095  0.4508 -2.2300
  547MOL0     H73785   6.510   6.000  10.614 -1.6341 -0.1703 -2.0622
  547MOL0     H73786   6.551   6.304  10.557  2.1664 -2.7248 -1.0222
  547MOL0     H73787   6.386   6.230  10.573 -0.2174 -2.0577 -0.7716
  547MOL0     H73788   6.442   6.148  10.789  0.1588 -1.7201 -2.3161
  547MOL0     H73789   6.593   6.242  10.788  0.7251 -3.1705 -1.3169
  547MOL0     H73790   6.458   6.450  10.742 -0.3306 -0.7053 -1.7693
  547MOL0     H73791   6.312   6.352  10.758 -0.1455  2.0106 -2.7340
  547MOL0     H73792   6.378   6.482  10.966  0.9250 -0.6379  1.3988
  547MOL0     H73793   6.528   6.390  10.977  0.4187 -1.6477 -1.1368
  547MOL0     H73794   6.238   6.279  10.993 -1.2360  2.8133  3.3850
  547MOL0     H73795   6.376   6.180  11.019 -1.0376 -0.1202 -0.1899
  547MOL0     H73796   6.181   6.506  11.191 -1.0232 -1.7161  0.2569
  547MOL0     H73797   6.156   6.574  11.465 -0.7803  0.7406 -2.7197
  547MOL0     H73798   6.311   6.551  11.539 -0.5143 -1.5451  0.1028
  547MOL0     H73799   6.398   6.688  11.317  0.1922 -1.5425  0.7836
  547MOL0     H73800   6.222   6.727  11.303  1.2848  0.9492 -0.4026
  547MOL0     H73801   6.432   6.826  11.500  1.4689  2.1322 -0.8327
  547MOL0     H73802   6.257   6.792  11.561 -2.0293 -3.0116 -2.3599
  547MOL0     H73803   6.307   6.971  11.319 -2.3866  2.3414 -1.5882
  547MOL0     H73804   6.294   7.027  11.487  1.3784  0.6706 -2.7280
  547MOL0     H73805   5.858   6.924  11.396 -1.2133  0.1497  0.1023
  547MOL0     H73806   5.722   7.100  11.348  0.0655 -1.1270  2.6683
  547MOL0     H73807   5.488   7.486  11.372 -0.8504  1.7791  0.8546
  547MOL0     H73808   5.347   7.652  11.287  1.4220 -1.5936  1.9234
  547MOL0     H73809   5.254   7.813  11.202 -0.1690 -2.4906 -3.9970
  547MOL0     H73810   5.399   7.925  11.225  2.6970  1.1179 -2.5898
  547MOL0     H73811   5.174   7.948  11.006  0.2077  1.9718 -2.6107
  547MOL0     H73812   5.196   8.044  11.153  0.7938  1.2398 -1.0570
  547MOL0     H73813   5.325   8.194  11.049  2.4998  0.7663 -0.0131
  547MOL0     H73814   5.435   8.056  11.004 -0.0881 -0.9464  0.2225
  547MOL0     H73815   5.331   8.020  10.804 -1.3395  0.3475 -1.0883
  547MOL0     H73816   5.379   8.183  10.817  0.8936 -1.5286  0.1087
  547MOL0     H73817   5.126   8.221  10.882 -0.5027 -0.1556  0.6646
  547MOL0     H73818   5.087   8.065  10.821 -1.3389  0.3754 -1.8616
  547MOL0     H73819   5.180   8.104  10.612  0.1021  0.3036 -0.5690
  547MOL0     H73820   5.035   8.213  10.657 -1.0365  0.1658  4.5105
  547MOL0     H73821   5.337   8.302  10.630  0.6056 -0.5751  1.6652
  547MOL0     H73822   5.198   8.398  10.698  0.1917 -0.9806  0.1235
  547MOL0     H73823   5.277   8.419  10.438 -2.8176  4.2377  1.0910
  547MOL0     H73824   5.194   8.272  10.432  0.1395 -1.2824  1.6331
  547MOL0     H73825   5.611   7.681  10.930  0.7198 -4.4062 -1.5999
  547MOL0     H73826   5.715   7.468  11.004 -0.1570  1.3896 -2.2291
  547MOL0     H73827   6.034   7.388  11.394  1.5280 -0.0734 -2.1983
  547MOL0     H73828   6.186   7.194  11.423  0.2819 -2.0046 -1.1694
  547MOL0     H73829   6.196   5.768  10.506 -3.6793  1.8130 -2.5132
  547MOL0     H73830   6.106   5.550  10.429 -0.9534  0.4707  0.1238
  547MOL0     H73831   6.129   5.328   9.842  2.7329  0.3417 -1.6060
  547MOL0     H73832   6.090   5.100   9.750  0.7417  0.9309  0.6438
  547MOL0     H73833   5.834   4.813   9.956 -0.1409  5.0694  0.6904
  547MOL0     H73834   5.990   4.781  10.023 -3.9234 -0.6299  3.1011
  547MOL0     H73835   5.949   4.583   9.880  1.2521  1.2843  1.7228
  547MOL0     H73836   6.069   4.672   9.791 -0.1696  0.5080 -2.0374
  547MOL0     H73837   5.926   4.763   9.639  5.4957 -2.6582 -1.9588
  547MOL0     H73838   5.779   4.687   9.716  0.2874 -0.7925  0.4020
  547MOL0     H73839   5.978   4.489   9.688 -0.2009  0.8180 -0.0295
  547MOL0     H73840   5.817   4.489   9.626  0.1905 -1.8349 -1.0679
  547MOL0     H73841   5.997   4.600   9.272  0.2358 -2.2437 -0.6373
  547MOL0     H73842   5.995   4.956  10.139 -1.4554  3.0459  2.4171
  547MOL0     H73843   6.176   5.183  10.322  0.1961  0.1270 -0.1434
  547MOL0     H73844   5.997   5.216  10.331 -2.8820 -1.3972 -1.7567
  547MOL0     H73845   6.062   5.050  10.317 -3.2676  0.7261  0.8419
  548MOL0     O73846   1.869  11.174   4.822 -0.0769  0.0949 -0.0371
  548MOL0     C73847   1.777  11.125   4.755 -0.4184  0.6113  0.6301
  548MOL0     O73848   1.773  11.003   4.691  0.8279  0.2504 -0.3587
  548MOL0     C73849   1.889  10.960   4.629  0.8317 -0.0213  0.5824
  548MOL0     C73850   1.985  11.045   4.576  0.3914  0.2783  0.4750
  548MOL0     C73851   2.097  10.998   4.528  0.2792 -0.0711  0.1916
  548MOL0     C73852   2.107  10.865   4.498  1.1070 -0.6644  0.4712
  548MOL0     O73853   2.214  10.800   4.424  0.0378 -0.4973 -0.3025
  548MOL0     C73854   2.201  10.846   4.291  0.1938  0.0388 -0.2510
  548MOL0     C73855   2.275  10.755   4.201  0.6833 -0.5437  0.0420
  548MOL0     C73856   2.180  10.663   4.121 -0.2751 -0.2011 -0.3403
  548MOL0     C73857   2.087  10.565   4.195  0.1224  0.3068 -0.2790
  548MOL0     C73858   2.026  10.467   4.102 -0.5328 -0.4437 -0.3110
  548MOL0     C73859   1.909  10.377   4.154 -1.4252 -0.5713 -1.4309
  548MOL0     C73860   1.945  10.248   4.227  0.6379  0.0376 -0.8428
  548MOL0     C73861   1.831  10.187   4.324 -0.6202  0.0724  0.1493
  548MOL0     N73862   1.881  10.080   4.414  0.3510  0.4271 -0.5005
  548MOL0     C73863   1.979  10.100   4.509 -1.0764 -0.7783 -0.9207
  548MOL0     C73864   2.003   9.986   4.576 -0.0006 -0.0819 -0.0647
  548MOL0     C73865   2.105   9.973   4.685 -0.2348 -0.5671 -0.0025
  548MOL0     C73866   2.192   9.847   4.684 -1.1735  0.2560 -0.5883
  548MOL0     C73867   2.171   9.758   4.819  0.0204 -0.4213 -0.0049
  548MOL0     C73868   2.269   9.645   4.810 -0.2164  0.2654  0.0474
  548MOL0     O73869   2.251   9.547   4.914 -0.4505 -0.7197 -0.6695
  548MOL0     C73870   2.359   9.465   4.948  0.7767  0.9158  0.9230
  548MOL0     C73871   2.492   9.463   4.893 -0.0973 -0.8983  0.0166
  548MOL0     C73872   2.587   9.364   4.920 -0.1198  0.2493 -0.0069
  548MOL0     C73873   2.542   9.250   5.000 -0.1069  0.2491 -0.8573
  548MOL0     C73874   2.630   9.132   5.022  0.4219 -0.2649  0.1811
  548MOL0     O73875   2.592   9.024   5.080 -0.0235  0.0509 -0.8563
  548MOL0     C73876   2.666   8.908   5.070 -0.2388  0.5592 -0.0473
  548MOL0     C73877   2.639   8.814   5.176 -0.0727  0.5251  0.8820
  548MOL0     C73878   2.695   8.689   5.191 -1.2141  0.6898  0.0682
  548MOL0     C73879   2.774   8.647   5.084  0.4916  0.6501 -0.0197
  548MOL0     O73880   2.851   8.543   5.080 -0.4005 -0.5109 -0.4874
  548MOL0     C73881   2.824   8.429   5.163  0.0798  0.1273  0.0039
  548MOL0     C73882   2.948   8.345   5.143 -0.0396 -0.0647 -0.2812
  548MOL0     C73883   2.947   8.293   5.003 -0.7953 -0.1111  0.5570
  548MOL0     C73884   3.063   8.209   4.976  0.1092  0.5839 -0.3618
  548MOL0     C73885   3.056   8.065   5.031 -0.5886 -0.4499  0.5212
  548MOL0     C73886   3.171   7.985   4.969 -0.3017 -0.1530  0.0465
  548MOL0     C73887   3.169   7.834   5.000 -0.9336 -0.6371  0.2188
  548MOL0     C73888   3.225   7.745   4.879  0.1622  0.2279 -0.4654
  548MOL0    Cl73889   3.392   7.781   4.866 -0.0373 -0.1041  0.5328
  548MOL0     C73890   2.805   8.732   4.982  0.0712 -0.7655  0.7128
  548MOL0     C73891   2.748   8.859   4.970  0.2024 -0.1362  1.2349
  548MOL0     O73892   2.744   9.171   5.005 -0.5755  0.5238  0.4080
  548MOL0     C73893   2.409   9.248   5.057 -0.2802 -0.2799  0.3708
  548MOL0     C73894   2.320   9.352   5.034 -0.1767  0.0686 -0.4396
  548MOL0     N73895   1.913   9.897   4.522  0.7962  0.1155 -0.2133
  548MOL0     N73896   1.852   9.950   4.422 -0.2685  0.9072 -0.3493
  548MOL0     C73897   2.004  10.784   4.534  0.5885  0.0065  0.6232
  548MOL0     C73898   1.893  10.825   4.602 -0.5722  0.5965  0.0876
  548MOL0     C73899   1.648  11.200   4.762  0.7095  0.6323  0.0017
  548MOL0     C73900   1.532  11.115   4.749 -0.4812 -0.0866  0.3776
  548MOL0     C73901   1.405  11.167   4.780  0.0405  0.2058  0.1053
  548MOL0     C73902   1.394  11.298   4.822 -0.2364 -0.0446  0.3676
  548MOL0     O73903   1.269  11.337   4.857 -0.8450  0.5753 -0.4671
  548MOL0     C73904   1.240  11.468   4.904 -0.3395  0.0966  0.1155
  548MOL0     C73905   1.090  11.506   4.903 -0.0438 -0.1953 -0.4280
  548MOL0     C73906   1.030  11.477   4.767 -0.5391 -0.4795  0.5032
  548MOL0     C73907   0.890  11.525   4.738 -0.7369 -0.1510 -0.8322
  548MOL0     C73908   0.846  11.482   4.603 -0.1603 -0.3898  0.5432
  548MOL0     C73909   0.799  11.438   4.502 -0.1955 -0.2680 -0.2385
  548MOL0     C73910   1.502  11.385   4.822  0.2286 -0.0463 -0.3085
  548MOL0     C73911   1.631  11.337   4.786 -0.3115 -0.3917  0.3718
  548MOL0     C73912   1.749  11.435   4.790  0.1371  0.2604  0.3388
  548MOL0     H73913   1.984  11.153   4.579  5.2544  0.5656 -0.4471
  548MOL0     H73914   2.170  11.075   4.504  0.7520 -0.8326 -0.9333
  548MOL0     H73915   2.099  10.850   4.253 -0.0094 -0.3156  0.2510
  548MOL0     H73916   2.251  10.943   4.292  3.7398 -1.5696  2.3376
  548MOL0     H73917   2.353  10.692   4.244 -0.6554 -0.2900  3.1174
  548MOL0     H73918   2.333  10.808   4.125  1.3350 -1.4120 -0.0796
  548MOL0     H73919   2.232  10.616   4.037 -1.8028  0.1594 -1.5213
  548MOL0     H73920   2.118  10.726   4.057  1.4562  0.3032 -1.5913
  548MOL0     H73921   2.142  10.501   4.264 -0.5682 -1.4788 -1.3125
  548MOL0     H73922   2.007  10.622   4.243  0.8465  0.3808  0.8877
  548MOL0     H73923   1.983  10.514   4.012  0.5445 -1.8693 -1.6282
  548MOL0     H73924   2.109  10.409   4.060 -0.3519  0.7559 -1.6831
  548MOL0     H73925   1.844  10.431   4.223 -0.7102 -1.4749  0.0011
  548MOL0     H73926   1.857  10.352   4.060 -0.9071  2.6070 -2.6861
  548MOL0     H73927   2.032  10.271   4.288 -0.0861  1.2203 -0.2208
  548MOL0     H73928   1.981  10.178   4.151  3.4629 -2.2609  2.3361
  548MOL0     H73929   1.792  10.264   4.390 -1.7269 -0.9291  0.6933
  548MOL0     H73930   1.752  10.141   4.264  0.8863 -1.8280 -0.5132
  548MOL0     H73931   2.038  10.192   4.514  1.6638 -2.1182 -4.5291
  548MOL0     H73932   2.176  10.056   4.675 -1.1872 -0.0054 -3.3819
  548MOL0     H73933   2.054   9.984   4.781 -0.4179 -1.8664  0.0708
  548MOL0     H73934   2.167   9.786   4.597  2.5259 -0.2027 -1.5109
  548MOL0     H73935   2.297   9.873   4.665 -0.4322 -0.3654  2.2516
  548MOL0     H73936   2.066   9.728   4.817  0.2698 -1.3465  0.2282
  548MOL0     H73937   2.179   9.819   4.909  1.7594  0.5387 -0.7611
  548MOL0     H73938   2.362   9.703   4.814 -1.6707  2.9116 -1.6684
  548MOL0     H73939   2.259   9.602   4.710 -0.8566  0.8758 -0.1615
  548MOL0     H73940   2.521   9.537   4.819 -0.0624 -1.7584 -0.8607
  548MOL0     H73941   2.685   9.353   4.874 -0.7317  0.3130 -1.3803
  548MOL0     H73942   2.560   8.838   5.246 -1.4197  1.8290 -0.9874
  548MOL0     H73943   2.668   8.616   5.267  1.9640 -2.1557 -1.2532
  548MOL0     H73944   2.807   8.446   5.270 -0.4544  1.5193 -0.2761
  548MOL0     H73945   2.740   8.369   5.127  0.3500 -1.3288  1.6393
  548MOL0     H73946   3.041   8.392   5.176  0.2194 -0.4862 -0.4062
  548MOL0     H73947   2.946   8.257   5.206  1.0359 -0.7705 -1.2049
  548MOL0     H73948   2.860   8.227   4.988 -1.2707  0.3184  1.3516
  548MOL0     H73949   2.940   8.376   4.932 -5.6471 -0.4983  0.1966
  548MOL0     H73950   3.155   8.257   5.010  0.1115  1.1023 -1.0775
  548MOL0     H73951   3.052   8.194   4.869 -3.2079  2.2307 -0.3873
  548MOL0     H73952   2.964   8.021   4.991 -0.6402  0.0863  0.0363
  548MOL0     H73953   3.072   8.055   5.139  1.6651  2.3420  0.5578
  548MOL0     H73954   3.171   7.994   4.860 -2.0236 -1.0851 -0.0652
  548MOL0     H73955   3.267   8.024   5.003  0.0663  2.2142 -3.3034
  548MOL0     H73956   3.067   7.802   5.026 -1.8043  0.8665 -1.1116
  548MOL0     H73957   3.237   7.814   5.082  2.8054  0.9843 -2.2281
  548MOL0     H73958   3.227   7.640   4.907  3.7797  0.4838  0.6860
  548MOL0     H73959   3.162   7.759   4.791 -0.4428  1.6340  0.1488
  548MOL0     H73960   2.877   8.707   4.904  2.1103  0.6002  2.0528
  548MOL0     H73961   2.765   8.921   4.883  1.7426 -3.9144 -1.3735
  548MOL0     H73962   2.372   9.157   5.101 -1.9516  0.2416  0.1047
  548MOL0     H73963   2.226   9.341   5.087  0.4558  0.3050  0.7725
  548MOL0     H73964   2.003  10.692   4.476  2.2914  1.5871 -2.1703
  548MOL0     H73965   1.820  10.754   4.638  0.6813 -1.1574 -0.6869
  548MOL0     H73966   1.532  11.011   4.719 -2.1705 -0.4942  1.6239
  548MOL0     H73967   1.319  11.102   4.767  0.7580 -0.6683 -0.4298
  548MOL0     H73968   1.282  11.541   4.833 -0.0111 -1.5717 -1.4686
  548MOL0     H73969   1.287  11.480   5.002 -0.8555  0.3546  0.3311
  548MOL0     H73970   1.079  11.610   4.936  0.8899  0.1336 -1.1182
  548MOL0     H73971   1.044  11.440   4.977  1.1154 -1.3104 -0.6753
  548MOL0     H73972   1.041  11.369   4.758 -1.8661 -0.7478  1.8338
  548MOL0     H73973   1.100  11.515   4.692  0.2604 -1.4956  0.7167
  548MOL0     H73974   0.824  11.482   4.814  0.3873 -2.2958 -1.0157
  548MOL0     H73975   0.879  11.634   4.751  2.5282  0.1780  0.0561
  548MOL0     H73976   0.745  11.404   4.416 -4.2304 -3.6437  3.1786
  548MOL0     H73977   1.489  11.492   4.827 -1.3490 -0.0687 -2.4738
  548MOL0     H73978   1.808  11.416   4.699  3.2341 -1.4491  2.4903
  548MOL0     H73979   1.722  11.539   4.808 -1.7922 -0.7169  4.1578
  548MOL0     H73980   1.811  11.402   4.874 -1.0717 -1.3431  0.6372
  549MOL0     O73981   8.520   1.241   0.537  0.2058  0.2381  0.4454
  549MOL0     C73982   8.519   1.175   0.429  0.0315  0.5972  0.6548
  549MOL0     O73983   8.631   1.108   0.381 -0.1016 -0.3044  0.5173
  549MOL0     C73984   8.620   1.013   0.284  0.3857 -0.0969  0.0899
  549MOL0     C73985   8.590   0.891   0.338  0.2375 -0.2963  0.2534
  549MOL0     C73986   8.579   0.793   0.240  0.9542  0.4515  0.1589
  549MOL0     C73987   8.575   0.818   0.113  0.0958  0.1204  0.0606
  549MOL0     O73988   8.548   0.705   0.039  0.0332 -0.0273  0.1444
  549MOL0     C73989   8.594   0.696  -0.101  0.3282  0.3189 -0.5609
  549MOL0     C73990   8.746   0.685  -0.103 -0.7735 -0.2649  0.1073
  549MOL0     C73991   8.811   0.707  -0.244  0.2850  0.4705  0.7134
  549MOL0     C73992   8.947   0.780  -0.232 -0.1878 -0.2712 -1.1759
  549MOL0     C73993   9.004   0.833  -0.361 -0.1781 -0.0344  0.2008
  549MOL0     C73994   8.916   0.905  -0.459  0.8658 -1.3972 -0.6375
  549MOL0     C73995   8.853   1.021  -0.391 -0.4812 -1.0739  0.9943
  549MOL0     C73996   8.733   1.076  -0.467  0.5032  0.0202  0.0345
  549MOL0     N73997   8.603   1.035  -0.407 -0.0809 -0.2374  0.6455
  549MOL0     C73998   8.550   1.100  -0.299 -0.1447  0.5165 -0.1777
  549MOL0     C73999   8.434   1.047  -0.276  0.1047 -0.1468 -0.0416
  549MOL0     C74000   8.334   1.086  -0.170 -0.1273 -0.3589  0.2190
  549MOL0     C74001   8.224   0.979  -0.152  1.2446  0.0615 -0.2169
  549MOL0     C74002   8.265   0.835  -0.115  0.0164 -0.1907  0.2531
  549MOL0     C74003   8.146   0.738  -0.126  0.4566  0.3909 -0.0842
  549MOL0     O74004   8.121   0.702  -0.261  0.1829 -1.0284  0.1499
  549MOL0     C74005   8.170   0.584  -0.306 -0.3005 -0.1088  0.2258
  549MOL0     C74006   8.078   0.494  -0.365  0.7762 -0.0369 -0.2481
  549MOL0     C74007   8.137   0.374  -0.409  0.3289  0.6089  0.3988
  549MOL0     C74008   8.274   0.341  -0.398  0.2728  0.2211  0.0263
  549MOL0     C74009   8.330   0.210  -0.428  0.3784 -0.8556 -0.0677
  549MOL0     O74010   8.456   0.204  -0.481  0.2114  0.4160 -0.0340
  549MOL0     C74011   8.504   0.088  -0.539  0.5704 -1.0158  0.1030
  549MOL0     C74012   8.523  -0.020  -0.463  0.3194  0.2416 -0.0827
  549MOL0     C74013   8.582  -0.131  -0.522  0.1564  0.3550  1.4717
  549MOL0     C74014   8.614  -0.133  -0.665  0.5046 -0.0451  0.1893
  549MOL0     O74015   8.672  -0.244  -0.730  0.1542 -0.2630 -0.6077
  549MOL0     C74016   8.583  -0.357  -0.728  0.0924 -0.7380  0.2496
  549MOL0     C74017   8.466  -0.329  -0.824 -0.6606 -0.0084  0.2659
  549MOL0     C74018   8.401  -0.458  -0.880 -0.3198 -1.1151 -0.0096
  549MOL0     C74019   8.267  -0.423  -0.938  0.4832 -1.1050 -0.1623
  549MOL0     C74020   8.188  -0.535  -0.983  0.2547 -0.5715  0.5527
  549MOL0     C74021   8.062  -0.481  -1.064 -0.5980 -0.1997  0.5963
  549MOL0     C74022   7.963  -0.584  -1.101  0.6427 -0.1249  0.1399
  549MOL0     C74023   7.843  -0.539  -1.181 -0.2643 -0.5386 -0.0925
  549MOL0    Cl74024   7.773  -0.668  -1.286  0.4381  0.3942  0.1609
  549MOL0     C74025   8.597  -0.021  -0.741  0.6052  0.0720  0.3897
  549MOL0     C74026   8.548   0.089  -0.671  0.3163 -1.2097 -0.0966
  549MOL0     O74027   8.260   0.114  -0.407  0.4648  1.1433 -0.1043
  549MOL0     C74028   8.362   0.442  -0.357  0.7731 -0.1713 -0.0333
  549MOL0     C74029   8.312   0.561  -0.318  0.9709 -0.0158  0.0391
  549MOL0     N74030   8.413   0.953  -0.378  0.7168  0.2188  0.3440
  549MOL0     N74031   8.507   0.965  -0.465 -0.0329  0.5006  0.8951
  549MOL0     C74032   8.596   0.943   0.057 -1.1295 -0.1379  0.8671
  549MOL0     C74033   8.621   1.040   0.150  0.6619  0.4760 -0.8022
  549MOL0     C74034   8.389   1.165   0.361 -0.1087 -0.9682 -0.8308
  549MOL0     C74035   8.294   1.086   0.431 -0.3607  0.1777  0.3261
  549MOL0     C74036   8.167   1.074   0.384  0.4351  1.1558 -0.4875
  549MOL0     C74037   8.126   1.136   0.274 -0.4735 -0.2146  0.0408
  549MOL0     O74038   7.998   1.121   0.228 -0.4657 -0.1330 -0.0647
  549MOL0     C74039   7.901   1.233   0.237  0.6346 -0.8716 -0.1285
  549MOL0     C74040   7.754   1.190   0.231  0.4631 -0.0808 -0.4553
  549MOL0     C74041   7.649   1.282   0.299 -0.8778 -0.1656  0.7874
  549MOL0     C74042   7.509   1.256   0.247  0.0730 -0.7295 -0.0208
  549MOL0     C74043   7.409   1.322   0.329  0.6571 -0.8983 -0.5572
  549MOL0     C74044   7.319   1.365   0.406 -0.9427  0.4673 -0.4308
  549MOL0     C74045   8.217   1.228   0.212  0.5294  0.7144 -0.0610
  549MOL0     C74046   8.354   1.234   0.243 -0.6014  0.2379  0.0316
  549MOL0     C74047   8.444   1.329   0.175 -0.2259 -0.1696  0.0331
  549MOL0     H74048   8.584   0.883   0.446 -1.1212  2.8596  0.5385
  549MOL0     H74049   8.557   0.688   0.258  0.1008  0.5668 -0.1479
  549MOL0     H74050   8.544   0.607  -0.140  3.1805 -1.6872  0.0569
  549MOL0     H74051   8.570   0.781  -0.165  4.3554  0.6510 -1.9734
  549MOL0     H74052   8.764   0.580  -0.082 -0.0134  0.1953  1.8880
  549MOL0     H74053   8.790   0.751  -0.028 -1.2368  1.2885 -0.9289
  549MOL0     H74054   8.739   0.766  -0.302 -0.1594 -0.4544  0.3130
  549MOL0     H74055   8.824   0.608  -0.287  1.1203  0.8379  0.1115
  549MOL0     H74056   8.941   0.865  -0.164  2.0047 -0.9044 -0.0996
  549MOL0     H74057   9.015   0.708  -0.186 -0.7686 -1.4717 -2.1232
  549MOL0     H74058   9.104   0.877  -0.359  0.1011 -0.6423  0.0025
  549MOL0     H74059   9.029   0.736  -0.405 -2.5984 -1.4589  1.6849
  549MOL0     H74060   8.973   0.941  -0.546 -2.8921  0.2467 -2.6402
  549MOL0     H74061   8.840   0.830  -0.480 -1.6926 -0.0222  2.7879
  549MOL0     H74062   8.937   1.091  -0.390 -0.9015 -0.5582  0.8778
  549MOL0     H74063   8.820   1.003  -0.288 -1.3707 -1.4785  0.6489
  549MOL0     H74064   8.745   1.183  -0.483  1.9426 -0.2810 -1.1437
  549MOL0     H74065   8.737   1.031  -0.566 -1.4419  0.5335 -0.3126
  549MOL0     H74066   8.580   1.185  -0.239 -1.9152 -0.1120  1.6981
  549MOL0     H74067   8.379   1.105  -0.073  0.3168  2.5881 -0.4624
  549MOL0     H74068   8.288   1.181  -0.200  1.1130  0.6872  1.4795
  549MOL0     H74069   8.163   1.012  -0.068  1.3114 -1.2418  0.3627
  549MOL0     H74070   8.161   0.984  -0.241  0.5250 -1.1026  0.2101
  549MOL0     H74071   8.298   0.841  -0.011  2.1821  1.3100 -0.4377
  549MOL0     H74072   8.343   0.793  -0.179 -0.3622 -0.4583 -0.0399
  549MOL0     H74073   8.049   0.768  -0.085  0.4717  0.2252  0.0748
  549MOL0     H74074   8.170   0.651  -0.064  0.8157  2.7077  3.3264
  549MOL0     H74075   7.973   0.520  -0.369  0.0802 -2.4021  1.0516
  549MOL0     H74076   8.079   0.294  -0.452  1.0546 -0.0371  0.5945
  549MOL0     H74077   8.481  -0.027  -0.363  3.4048  1.4538  1.4185
  549MOL0     H74078   8.608  -0.222  -0.469  1.4611  1.3643  2.6449
  549MOL0     H74079   8.639  -0.445  -0.764  4.1232  0.8933  1.9089
  549MOL0     H74080   8.549  -0.376  -0.626 -0.4778  0.5552  0.3176
  549MOL0     H74081   8.401  -0.258  -0.773  0.1330  0.8161  0.1493
  549MOL0     H74082   8.515  -0.281  -0.910 -1.0756  0.6432  0.3906
  549MOL0     H74083   8.454  -0.506  -0.963  1.8553  1.1417 -0.0400
  549MOL0     H74084   8.401  -0.530  -0.797  2.9155 -1.3338 -0.0498
  549MOL0     H74085   8.286  -0.360  -1.026  0.6329  1.8451  1.8332
  549MOL0     H74086   8.203  -0.364  -0.871  0.3607 -2.0506  0.5730
  549MOL0     H74087   8.161  -0.601  -0.900  0.7269 -3.2262 -1.3013
  549MOL0     H74088   8.257  -0.600  -1.037  2.2697  1.0566  1.0672
  549MOL0     H74089   8.007  -0.414  -0.997 -1.1158 -1.3744  1.3795
  549MOL0     H74090   8.102  -0.434  -1.154 -1.5963 -5.3108 -2.9474
  549MOL0     H74091   7.915  -0.629  -1.014 -1.2548  0.5696 -0.5066
  549MOL0     H74092   8.002  -0.672  -1.154 -3.5826 -2.2160  0.0868
  549MOL0     H74093   7.764  -0.487  -1.127  0.2007 -0.3412  0.4021
  549MOL0     H74094   7.883  -0.462  -1.248 -3.2607  0.9261 -0.3501
  549MOL0     H74095   8.626  -0.026  -0.845 -3.4997  2.2221 -1.1084
  549MOL0     H74096   8.552   0.183  -0.725  2.6717  0.4727  2.6746
  549MOL0     H74097   8.469   0.429  -0.347  1.5012  4.0560 -0.3750
  549MOL0     H74098   8.390   0.631  -0.290  2.3232 -1.9946  1.4901
  549MOL0     H74099   8.612   0.953  -0.050 -0.4359 -2.2729  0.7171
  549MOL0     H74100   8.643   1.138   0.109  1.0211 -0.2118 -2.3311
  549MOL0     H74101   8.335   1.036   0.518  1.5754 -1.1489 -1.2617
  549MOL0     H74102   8.118   1.008   0.454  3.3893 -2.9600 -1.8867
  549MOL0     H74103   7.917   1.309   0.159  1.6711  0.3061  1.1824
  549MOL0     H74104   7.923   1.291   0.327  2.1991  0.2712 -1.1706
  549MOL0     H74105   7.746   1.099   0.292 -1.7125  0.9162  0.8892
  549MOL0     H74106   7.716   1.157   0.133  2.6789  3.0452 -2.5329
  549MOL0     H74107   7.677   1.378   0.255  0.9419 -1.2976 -0.6814
  549MOL0     H74108   7.664   1.266   0.406 -1.2270 -3.3481  0.4728
  549MOL0     H74109   7.496   1.273   0.140 -1.9486 -0.1227  0.2797
  549MOL0     H74110   7.491   1.149   0.263 -4.9578  0.0146  0.7283
  549MOL0     H74111   7.252   1.400   0.482 -0.2121 -0.7969  0.8327
  549MOL0     H74112   8.171   1.285   0.131 -2.5684 -0.8338  0.4695
  549MOL0     H74113   8.393   1.425   0.169  0.4002  0.0713 -2.9741
  549MOL0     H74114   8.546   1.335   0.213 -0.2420 -2.1001  0.5089
  549MOL0     H74115   8.466   1.309   0.070 -0.5117 -1.1450  0.1494
  550MOL0     O74116   6.092   4.773   3.976  0.1935 -0.5260  0.5064
  550MOL0     C74117   6.215   4.764   3.954 -0.3366  0.1647  0.2543
  550MOL0     O74118   6.301   4.713   4.042 -0.0656  0.4299  0.1720
  550MOL0     C74119   6.248   4.628   4.144 -0.8421 -0.6208  0.4051
  550MOL0     C74120   6.258   4.668   4.277 -0.7858 -0.5389  0.1400
  550MOL0     C74121   6.235   4.566   4.373  0.7541 -0.1084 -0.2142
  550MOL0     C74122   6.183   4.447   4.336 -1.1210  0.3960  0.4754
  550MOL0     O74123   6.159   4.355   4.434  0.3831 -0.0349 -0.5102
  550MOL0     C74124   6.118   4.219   4.395 -1.0277  1.0031 -0.5860
  550MOL0     C74125   6.143   4.134   4.519  0.4480 -1.0295 -0.0303
  550MOL0     C74126   6.042   4.156   4.628  1.1539  0.2843 -0.8673
  550MOL0     C74127   6.083   4.089   4.753  0.5837 -0.5684  0.6221
  550MOL0     C74128   5.975   4.034   4.843  0.4332  0.2984  0.3172
  550MOL0     C74129   5.867   4.147   4.882  0.2927 -0.2977 -0.1405
  550MOL0     C74130   5.755   4.070   4.963  0.2121  0.2644  0.3103
  550MOL0     C74131   5.618   4.097   4.896  0.0140  0.5724 -0.6979
  550MOL0     N74132   5.515   4.061   4.990  0.4457  0.0221  0.4012
  550MOL0     C74133   5.470   4.159   5.079 -0.3075  0.5693  0.3987
  550MOL0     C74134   5.353   4.099   5.122  0.7188  0.7939  0.4733
  550MOL0     C74135   5.270   4.169   5.227  0.3045  0.0004  0.2709
  550MOL0     C74136   5.292   4.130   5.369 -0.1813  0.4180  0.2747
  550MOL0     C74137   5.197   4.201   5.453  0.8315  0.9158  0.2190
  550MOL0     C74138   5.217   4.173   5.604 -0.0502  0.2454  0.7100
  550MOL0     O74139   5.098   4.225   5.668 -0.7259 -0.6469 -0.0557
  550MOL0     C74140   4.988   4.139   5.674 -0.0128  0.1670  0.3018
  550MOL0     C74141   4.867   4.152   5.598  0.4825 -0.0031 -0.5228
  550MOL0     C74142   4.757   4.063   5.609 -0.0742 -0.1814 -0.2294
  550MOL0     C74143   4.758   3.951   5.698 -0.3976  0.1146  0.2615
  550MOL0     C74144   4.642   3.861   5.710 -0.5646 -0.0289  0.3088
  550MOL0     O74145   4.555   3.872   5.611 -0.2263  0.5747 -0.9203
  550MOL0     C74146   4.452   3.786   5.596 -0.0297  0.4017  0.8766
  550MOL0     C74147   4.324   3.830   5.555  0.6404 -0.5092  1.0409
  550MOL0     C74148   4.222   3.731   5.537  0.3104 -0.2243  0.6929
  550MOL0     C74149   4.237   3.596   5.545 -0.1977 -0.6187  1.1466
  550MOL0     O74150   4.130   3.510   5.520  0.0964 -0.1214  0.1574
  550MOL0     C74151   4.128   3.456   5.395 -0.6831  0.0717  0.3706
  550MOL0     C74152   3.988   3.434   5.342 -0.4162 -0.0524 -0.9084
  550MOL0     C74153   3.909   3.327   5.419 -0.8046 -0.3160 -0.3597
  550MOL0     C74154   3.771   3.283   5.356  0.6998 -0.0572 -0.2209
  550MOL0     C74155   3.670   3.380   5.404 -0.3194  0.2282 -0.3059
  550MOL0     C74156   3.523   3.323   5.370 -1.0639  0.0850  0.4804
  550MOL0     C74157   3.414   3.396   5.467 -0.4620  0.3063  0.3717
  550MOL0     C74158   3.386   3.545   5.421 -0.3813 -0.1499 -1.2947
  550MOL0    Cl74159   3.531   3.646   5.477 -0.2028  0.0929  0.4323
  550MOL0     C74160   4.354   3.560   5.604  0.1126 -0.4323  0.3199
  550MOL0     C74161   4.461   3.646   5.631 -0.0518 -0.0234  1.2158
  550MOL0     O74162   4.642   3.772   5.793 -0.0300  0.4360 -0.6087
  550MOL0     C74163   4.879   3.933   5.773 -0.8883  0.4560  0.8781
  550MOL0     C74164   4.987   4.024   5.760 -0.5090  0.4485  0.3928
  550MOL0     N74165   5.325   3.979   5.056 -0.6177  0.4510 -0.5055
  550MOL0     N74166   5.424   3.955   4.978 -0.5075 -0.1120  0.4181
  550MOL0     C74167   6.163   4.424   4.198 -0.0241  1.0574  0.0740
  550MOL0     C74168   6.206   4.504   4.101 -0.1390  0.2213  0.8178
  550MOL0     C74169   6.278   4.845   3.838  0.4143  0.5253 -0.0585
  550MOL0     C74170   6.402   4.912   3.858  0.9133 -0.5667 -0.1192
  550MOL0     C74171   6.459   5.001   3.762 -1.2558  0.1818 -0.1303
  550MOL0     C74172   6.389   5.016   3.651  1.2026 -0.5406  0.4190
  550MOL0     O74173   6.431   5.101   3.547 -0.8722  0.1007 -0.0458
  550MOL0     C74174   6.475   5.233   3.578  0.2409  1.4296 -0.3991
  550MOL0     C74175   6.464   5.315   3.452  0.5896 -0.3544 -0.0800
  550MOL0     C74176   6.552   5.239   3.339 -0.0357  0.0330 -1.1333
  550MOL0     C74177   6.560   5.319   3.218 -0.6664 -0.6473  0.1897
  550MOL0     C74178   6.431   5.370   3.167  0.7129 -1.0210 -0.0629
  550MOL0     C74179   6.317   5.396   3.132  0.2813 -0.0013 -0.9946
  550MOL0     C74180   6.269   4.952   3.618 -0.7359  0.1679  0.5055
  550MOL0     C74181   6.216   4.860   3.717  0.4244  0.6486  0.2252
  550MOL0     C74182   6.088   4.777   3.670 -0.8015 -0.4661 -0.2279
  550MOL0     H74183   6.308   4.756   4.315  0.1367 -0.4069 -1.2887
  550MOL0     H74184   6.259   4.590   4.476  0.7087  0.6436 -0.3672
  550MOL0     H74185   6.018   4.210   4.352 -1.2508 -3.9596  0.3127
  550MOL0     H74186   6.180   4.186   4.311  2.1243  2.4089  1.0510
  550MOL0     H74187   6.240   4.151   4.568  1.5605 -3.0754 -1.3426
  550MOL0     H74188   6.134   4.030   4.486 -0.0201 -2.0573  3.0180
  550MOL0     H74189   5.952   4.105   4.593  2.2028 -2.8528  0.5844
  550MOL0     H74190   6.026   4.263   4.643  0.0618  0.0065  0.1742
  550MOL0     H74191   6.153   4.005   4.742  1.8387  0.0617  2.9831
  550MOL0     H74192   6.140   4.165   4.808 -2.9994  2.0704  1.0139
  550MOL0     H74193   5.935   3.943   4.798 -0.7184  1.0359 -0.1701
  550MOL0     H74194   6.018   3.992   4.935 -0.1067 -0.2396  0.3285
  550MOL0     H74195   5.899   4.233   4.943 -2.5756 -0.2717  1.5263
  550MOL0     H74196   5.823   4.197   4.795  0.9484 -0.3894 -0.5268
  550MOL0     H74197   5.769   4.108   5.065  1.6424 -2.3715  1.1855
  550MOL0     H74198   5.776   3.963   4.965 -0.8459  0.0350 -0.3869
  550MOL0     H74199   5.595   4.195   4.853 -1.5414  0.9277  0.8146
  550MOL0     H74200   5.614   4.024   4.815  0.2038  0.0324 -0.2207
  550MOL0     H74201   5.518   4.251   5.112  4.4064 -1.9327  1.4088
  550MOL0     H74202   5.275   4.278   5.217 -3.5538  0.2280 -0.7584
  550MOL0     H74203   5.167   4.146   5.200 -0.1654 -3.5283  4.0692
  550MOL0     H74204   5.270   4.026   5.395 -1.4805  0.1937 -1.5449
  550MOL0     H74205   5.391   4.163   5.401 -0.0267 -1.7723  2.3958
  550MOL0     H74206   5.095   4.180   5.419  1.3132 -3.9255  1.0623
  550MOL0     H74207   5.220   4.308   5.443  3.2830  0.2761 -1.8284
  550MOL0     H74208   5.311   4.216   5.640  0.2553  0.2545 -0.0865
  550MOL0     H74209   5.223   4.064   5.610  3.1635  0.3782  1.8670
  550MOL0     H74210   4.862   4.243   5.540  1.1181  0.5695  0.2781
  550MOL0     H74211   4.662   4.099   5.572  1.3500  2.8360 -1.3487
  550MOL0     H74212   4.303   3.934   5.534  1.8848 -0.7424 -1.9651
  550MOL0     H74213   4.124   3.763   5.504 -0.2393 -3.2255 -0.9385
  550MOL0     H74214   4.169   3.524   5.320  0.6998  0.3340  1.3143
  550MOL0     H74215   4.170   3.355   5.403 -0.9778  0.1029  4.1534
  550MOL0     H74216   3.927   3.524   5.341 -0.7795 -0.2513  0.9734
  550MOL0     H74217   3.991   3.404   5.236 -0.6116  0.3860 -1.0381
  550MOL0     H74218   3.977   3.242   5.427 -0.5194  0.0926  2.8171
  550MOL0     H74219   3.900   3.372   5.519  1.4681 -0.2852 -0.1287
  550MOL0     H74220   3.738   3.191   5.406 -2.9355 -0.5014 -3.0774
  550MOL0     H74221   3.787   3.264   5.250  1.4126 -0.5571 -0.0434
  550MOL0     H74222   3.693   3.479   5.364 -0.9419  0.6265  0.2981
  550MOL0     H74223   3.670   3.393   5.512 -0.6069  2.8546 -0.5430
  550MOL0     H74224   3.498   3.348   5.267 -0.9539  1.8606  0.8549
  550MOL0     H74225   3.528   3.216   5.394 -0.3773  0.4111  1.9046
  550MOL0     H74226   3.459   3.397   5.566  0.4535 -1.6239  0.0359
  550MOL0     H74227   3.326   3.330   5.474 -1.8929  2.1569  0.5787
  550MOL0     H74228   3.373   3.556   5.313 -2.6479  1.2985 -0.9349
  550MOL0     H74229   3.293   3.585   5.461  0.3284 -0.6315  0.9364
  550MOL0     H74230   4.347   3.456   5.635 -1.5604 -0.5622 -0.3787
  550MOL0     H74231   4.563   3.612   5.649  1.3061  1.9654 -1.8260
  550MOL0     H74232   4.900   3.840   5.825  1.2144  0.8122  0.7726
  550MOL0     H74233   5.089   4.010   5.797 -0.7005 -1.8431  0.2119
  550MOL0     H74234   6.131   4.331   4.152 -0.4665  1.8886 -1.3638
  550MOL0     H74235   6.213   4.480   3.995 -1.1246  2.0476  0.3065
  550MOL0     H74236   6.467   4.891   3.943  1.1055  0.5344  0.0239
  550MOL0     H74237   6.552   5.052   3.781 -0.7284 -0.8558  0.1265
  550MOL0     H74238   6.578   5.234   3.614  0.1586 -1.7479  0.1984
  550MOL0     H74239   6.411   5.271   3.659 -4.6863 -0.1493 -3.1287
  550MOL0     H74240   6.502   5.412   3.484  0.2090 -1.2058  3.4686
  550MOL0     H74241   6.365   5.336   3.409  1.2925  1.5445 -0.8446
  550MOL0     H74242   6.499   5.146   3.313 -0.9161 -0.8487  3.0311
  550MOL0     H74243   6.649   5.201   3.370 -1.9391 -4.3476  0.3001
  550MOL0     H74244   6.621   5.405   3.248 -0.7964 -1.1348  1.9488
  550MOL0     H74245   6.612   5.266   3.138 -1.7495 -0.1999 -0.8295
  550MOL0     H74246   6.220   5.419   3.095  1.2321  1.0352 -3.0049
  550MOL0     H74247   6.218   4.975   3.525  0.0822  1.2915  0.3289
  550MOL0     H74248   6.094   4.678   3.717 -2.1980 -0.7949 -0.6712
  550MOL0     H74249   5.999   4.830   3.706 -1.1507 -0.5374 -0.9726
  550MOL0     H74250   6.087   4.767   3.561 -2.6134  3.0587 -0.6777
  551MOL0     O74251   4.710   6.192   4.976  0.0083  0.3401  0.2646
  551MOL0     C74252   4.803   6.122   5.002 -1.2220 -0.9148  0.6225
  551MOL0     O74253   4.809   5.986   4.988  0.2014 -1.1457  0.3331
  551MOL0     C74254   4.689   5.951   4.940 -0.3865  0.7289 -0.5896
  551MOL0     C74255   4.572   5.932   5.025  0.1528 -0.1376  0.5930
  551MOL0     C74256   4.450   5.894   4.957 -0.2109 -0.4541 -0.1251
  551MOL0     C74257   4.441   5.856   4.821 -0.9731  0.4288 -0.3410
  551MOL0     O74258   4.343   5.801   4.753  0.7170 -0.2134  0.6869
  551MOL0     C74259   4.236   5.735   4.829 -0.0018  0.1940 -0.0326
  551MOL0     C74260   4.112   5.813   4.790  0.4464  0.7693  0.1330
  551MOL0     C74261   4.033   5.751   4.672 -0.1461  0.1809  0.2431
  551MOL0     C74262   3.961   5.622   4.701  0.0098  0.4421 -0.2623
  551MOL0     C74263   3.906   5.548   4.579  0.4358 -0.0057  1.3807
  551MOL0     C74264   3.801   5.625   4.503 -0.4670  0.3915 -0.4221
  551MOL0     C74265   3.660   5.637   4.573  0.6038 -0.4230  0.6697
  551MOL0     C74266   3.541   5.643   4.466  0.0154  0.4112  0.0094
  551MOL0     N74267   3.477   5.509   4.419  0.0538 -0.7699 -0.0215
  551MOL0     C74268   3.537   5.417   4.336  0.9977 -0.0274  0.8763
  551MOL0     C74269   3.436   5.341   4.284 -0.2060 -0.5475  0.3711
  551MOL0     C74270   3.456   5.215   4.189  0.2459 -0.7849 -0.4416
  551MOL0     C74271   3.435   5.093   4.281  0.1642 -0.1832  1.0135
  551MOL0     C74272   3.443   4.958   4.205 -0.1407 -0.0986 -0.7697
  551MOL0     C74273   3.426   4.842   4.303  0.4068  0.4342 -0.0634
  551MOL0     O74274   3.409   4.716   4.236 -0.3991  0.3363  0.0414
  551MOL0     C74275   3.336   4.619   4.294 -0.5062  0.0055  0.0724
  551MOL0     C74276   3.197   4.624   4.266 -0.2467 -0.2821 -0.0400
  551MOL0     C74277   3.103   4.535   4.331  0.0574  0.0648 -0.2189
  551MOL0     C74278   3.160   4.450   4.426  0.6028 -0.1491  0.5407
  551MOL0     C74279   3.068   4.354   4.500  0.1451 -0.3399  0.1940
  551MOL0     O74280   3.132   4.267   4.582 -0.1634  0.7930  0.2355
  551MOL0     C74281   3.067   4.168   4.654 -0.1408 -0.5780  0.0649
  551MOL0     C74282   2.959   4.093   4.604  0.2436 -0.4655 -0.4465
  551MOL0     C74283   2.904   3.991   4.677 -0.4215  0.0457 -0.8878
  551MOL0     C74284   2.942   3.966   4.811  0.7026 -0.1844 -0.6456
  551MOL0     O74285   2.866   3.872   4.886 -0.0951  0.6411  0.3381
  551MOL0     C74286   2.829   3.906   5.018 -0.2305 -0.8245  0.2225
  551MOL0     C74287   2.714   3.817   5.086 -0.6555  0.6074  0.0434
  551MOL0     C74288   2.759   3.702   5.175  0.7788  0.4203 -0.2760
  551MOL0     C74289   2.664   3.683   5.291 -0.5339  0.5981 -0.9711
  551MOL0     C74290   2.702   3.560   5.384  0.1712  0.2068  0.2487
  551MOL0     C74291   2.852   3.551   5.422  0.0469 -0.5659 -0.6322
  551MOL0     C74292   2.874   3.472   5.548  0.7625  0.1749  0.1630
  551MOL0     C74293   3.019   3.444   5.577 -0.4527  0.6015 -0.1869
  551MOL0    Cl74294   3.028   3.339   5.719 -0.1258  0.3987  0.8304
  551MOL0     C74295   3.054   4.042   4.863 -0.8696  0.8494 -0.1907
  551MOL0     C74296   3.116   4.137   4.783  0.5610 -0.5070 -0.7338
  551MOL0     O74297   2.949   4.358   4.475 -0.0525 -0.3165  0.1687
  551MOL0     C74298   3.304   4.447   4.452 -0.5072  0.3554 -0.0574
  551MOL0     C74299   3.388   4.535   4.387  0.0286  0.6016  0.8439
  551MOL0     N74300   3.322   5.399   4.321 -0.1204 -0.9281 -0.9411
  551MOL0     N74301   3.346   5.486   4.416  0.0550  1.2264 -0.7803
  551MOL0     C74302   4.556   5.882   4.753 -0.0404 -0.7626  0.0052
  551MOL0     C74303   4.676   5.936   4.807 -0.0724 -0.1397 -0.6042
  551MOL0     C74304   4.935   6.185   5.035 -0.3764 -0.0920 -0.5851
  551MOL0     C74305   5.046   6.097   5.058  0.0883 -0.1169 -0.3163
  551MOL0     C74306   5.173   6.140   5.093  0.3615  0.5883  0.2971
  551MOL0     C74307   5.191   6.273   5.100 -0.5001 -0.6229  0.2628
  551MOL0     O74308   5.304   6.317   5.160 -0.6795 -0.3355 -0.4674
  551MOL0     C74309   5.396   6.398   5.089  0.1323  0.3222  0.4473
  551MOL0     C74310   5.525   6.409   5.169  0.2667  0.1129 -0.0681
  551MOL0     C74311   5.590   6.275   5.178  0.3300 -0.1942 -0.3453
  551MOL0     C74312   5.710   6.282   5.275 -0.4807 -0.5571  0.2872
  551MOL0     C74313   5.796   6.164   5.277  0.9179 -0.1247  0.4792
  551MOL0     C74314   5.856   6.066   5.265 -0.3009  0.1354  0.2295
  551MOL0     C74315   5.090   6.364   5.066  0.7152  0.2429  0.5169
  551MOL0     C74316   4.961   6.324   5.042  0.4079  0.3203  0.6590
  551MOL0     C74317   4.859   6.433   5.007 -0.4750 -0.1912  0.3953
  551MOL0     H74318   4.568   5.950   5.132  1.0026 -2.1692  1.0033
  551MOL0     H74319   4.364   5.893   5.022 -0.5209 -0.7999 -0.5341
  551MOL0     H74320   4.228   5.628   4.806 -0.7046 -0.0164  1.0892
  551MOL0     H74321   4.243   5.742   4.938  0.6417  3.2246 -0.1808
  551MOL0     H74322   4.154   5.911   4.769  1.7634  0.3970  0.9057
  551MOL0     H74323   4.036   5.822   4.868  1.2544 -0.8510  1.1619
  551MOL0     H74324   4.095   5.743   4.582  1.4976 -1.9700  1.4611
  551MOL0     H74325   3.955   5.825   4.653 -1.4487 -1.2563 -0.1555
  551MOL0     H74326   4.033   5.556   4.751 -2.3906 -0.8308  1.7382
  551MOL0     H74327   3.885   5.647   4.776 -0.0350 -0.6135  0.0588
  551MOL0     H74328   3.993   5.521   4.518  0.0601  0.8299  0.4401
  551MOL0     H74329   3.860   5.453   4.606 -2.0635  1.2015  1.7205
  551MOL0     H74330   3.838   5.716   4.455  1.4022 -0.5627 -0.8627
  551MOL0     H74331   3.791   5.548   4.425  0.8420 -1.4022  1.0910
  551MOL0     H74332   3.667   5.722   4.641 -1.5555  1.1103 -0.8861
  551MOL0     H74333   3.648   5.549   4.636  1.6232  0.1047  1.6235
  551MOL0     H74334   3.461   5.694   4.519  1.8318  1.0322  2.3045
  551MOL0     H74335   3.583   5.702   4.384  0.7086  1.6268  1.2155
  551MOL0     H74336   3.645   5.415   4.323  0.7642  1.9576 -2.6287
  551MOL0     H74337   3.395   5.228   4.099  2.4944  0.8556 -1.8442
  551MOL0     H74338   3.560   5.221   4.153 -0.3783 -2.3109 -2.6582
  551MOL0     H74339   3.505   5.112   4.363  3.4707  0.5494 -1.7515
  551MOL0     H74340   3.336   5.092   4.327 -0.7398 -1.2904 -0.8329
  551MOL0     H74341   3.540   4.958   4.154 -1.4080  1.1741 -3.3740
  551MOL0     H74342   3.368   4.958   4.125 -2.4172 -0.3381  1.2571
  551MOL0     H74343   3.334   4.864   4.356  1.5728  2.0669  1.3842
  551MOL0     H74344   3.505   4.821   4.375 -1.7865 -2.7749  1.6260
  551MOL0     H74345   3.159   4.698   4.196  0.4684  1.2950  1.1894
  551MOL0     H74346   2.997   4.532   4.309 -0.3312 -4.4737  1.1032
  551MOL0     H74347   2.919   4.122   4.508  1.1457 -0.1420 -0.7301
  551MOL0     H74348   2.834   3.913   4.648  1.4600 -2.6377  1.2842
  551MOL0     H74349   2.922   3.914   5.074  0.7037  2.6193 -1.5642
  551MOL0     H74350   2.805   4.012   5.026  2.4645 -0.2252  1.4146
  551MOL0     H74351   2.646   3.871   5.153  1.7469  0.7699  2.5381
  551MOL0     H74352   2.640   3.779   5.015 -0.7980 -1.2856  1.1219
  551MOL0     H74353   2.757   3.627   5.095  0.1513  2.0135 -1.8102
  551MOL0     H74354   2.860   3.715   5.214 -1.1450  1.2602  5.4236
  551MOL0     H74355   2.565   3.672   5.247 -0.0988 -0.0605 -1.8073
  551MOL0     H74356   2.651   3.769   5.359 -2.0187 -0.4890  0.1867
  551MOL0     H74357   2.674   3.470   5.328  0.4120  0.6019 -0.5264
  551MOL0     H74358   2.635   3.554   5.470 -2.5714 -0.9292 -1.8089
  551MOL0     H74359   2.902   3.515   5.333  0.3464 -0.5944 -0.4533
  551MOL0     H74360   2.894   3.651   5.437  0.7086 -0.3481 -3.4425
  551MOL0     H74361   2.809   3.384   5.545  0.7390  0.1473  1.2218
  551MOL0     H74362   2.847   3.537   5.632  1.1118 -0.5756  0.8699
  551MOL0     H74363   3.062   3.397   5.488 -0.9296  0.1359 -0.1782
  551MOL0     H74364   3.067   3.541   5.593 -0.3167  0.5977 -0.5552
  551MOL0     H74365   3.088   4.029   4.965 -1.6646 -2.3169 -0.2126
  551MOL0     H74366   3.206   4.191   4.810  1.1077 -1.3314 -0.8652
  551MOL0     H74367   3.337   4.385   4.535 -1.0081 -1.2910 -1.0422
  551MOL0     H74368   3.494   4.537   4.412 -0.6782  1.7251  4.4465
  551MOL0     H74369   4.556   5.869   4.645 -0.2225 -0.3252 -0.0509
  551MOL0     H74370   4.762   5.942   4.741 -1.3667  0.0163 -2.3637
  551MOL0     H74371   5.051   5.989   5.046  0.3575 -0.4091  1.9641
  551MOL0     H74372   5.245   6.070   5.133  0.9196  0.8792 -0.1842
  551MOL0     H74373   5.366   6.502   5.078 -0.6863  0.0102 -0.4213
  551MOL0     H74374   5.420   6.354   4.991 -0.5777  0.0872  0.3733
  551MOL0     H74375   5.516   6.444   5.272  1.7984  0.5417 -0.0668
  551MOL0     H74376   5.596   6.474   5.117  0.2758  1.5526  1.6462
  551MOL0     H74377   5.617   6.239   5.078  0.1726 -0.1881 -0.3904
  551MOL0     H74378   5.523   6.203   5.226  1.1041 -1.9725 -1.8141
  551MOL0     H74379   5.765   6.373   5.250 -1.7310  0.5916  1.5722
  551MOL0     H74380   5.686   6.299   5.380  1.1405  1.8468  0.3282
  551MOL0     H74381   5.906   5.972   5.249  0.0497  0.3552  0.0129
  551MOL0     H74382   5.114   6.469   5.078 -1.9804  1.0273 -0.1865
  551MOL0     H74383   4.819   6.422   4.906  1.0049 -4.2201  0.0420
  551MOL0     H74384   4.775   6.423   5.077 -2.1490 -0.3682 -1.5471
  551MOL0     H74385   4.907   6.531   5.009 -1.0412  0.0858  1.3501
  552MOL0     O74386   4.974   6.503   0.458  0.6643 -0.2854  0.3236
  552MOL0     C74387   4.982   6.462   0.571 -0.3403  0.4523 -0.6059
  552MOL0     O74388   4.910   6.494   0.679  0.0388  0.4024 -0.1389
  552MOL0     C74389   4.845   6.616   0.666 -0.1785  0.5761 -0.2328
  552MOL0     C74390   4.762   6.650   0.563 -0.0046  0.0384  0.4048
  552MOL0     C74391   4.697   6.777   0.562 -0.2979  0.2943  0.3459
  552MOL0     C74392   4.706   6.864   0.666  0.5166  0.2704 -0.2604
  552MOL0     O74393   4.647   6.984   0.662 -0.2494 -0.7831  1.1268
  552MOL0     C74394   4.731   7.093   0.702  0.7349 -0.3900  0.9077
  552MOL0     C74395   4.679   7.220   0.640  0.1363 -0.2588  0.8611
  552MOL0     C74396   4.573   7.289   0.722 -0.7916  0.2553  0.1554
  552MOL0     C74397   4.538   7.428   0.655  0.4091  0.2259 -0.3564
  552MOL0     C74398   4.414   7.489   0.723  0.1462 -0.3016 -0.8739
  552MOL0     C74399   4.362   7.601   0.647  1.2623 -0.2086 -0.3560
  552MOL0     C74400   4.224   7.650   0.691  0.6696  0.3452  0.5485
  552MOL0     C74401   4.111   7.548   0.687  0.3094 -0.7165 -0.4733
  552MOL0     N74402   4.019   7.578   0.565  0.8634  0.0711 -0.0310
  552MOL0     C74403   3.904   7.657   0.562 -0.2053 -0.6948 -0.0940
  552MOL0     C74404   3.850   7.641   0.440  0.7562 -1.0850  0.3316
  552MOL0     C74405   3.733   7.714   0.376 -0.2322 -1.5924 -0.3390
  552MOL0     C74406   3.665   7.632   0.269  0.2377  0.5949  0.4659
  552MOL0     C74407   3.535   7.693   0.225 -0.0838  1.0886  0.3629
  552MOL0     C74408   3.460   7.599   0.121  0.1604  0.0684 -0.0779
  552MOL0     O74409   3.441   7.467   0.190  0.4382 -0.3081  1.0274
  552MOL0     C74410   3.426   7.350   0.110 -0.1787 -0.0457 -0.7580
  552MOL0     C74411   3.445   7.229   0.187 -0.3589 -0.2167  0.5021
  552MOL0     C74412   3.446   7.107   0.109  0.8329  0.2547 -0.1344
  552MOL0     C74413   3.423   7.100  -0.033 -0.1523  0.5020 -0.0826
  552MOL0     C74414   3.425   6.970  -0.105  0.4795 -0.0595  0.3026
  552MOL0     O74415   3.464   6.867  -0.033 -0.3654 -0.6244 -0.2309
  552MOL0     C74416   3.451   6.738  -0.086 -0.3171 -1.0341 -0.1221
  552MOL0     C74417   3.327   6.690  -0.131 -0.8727 -0.0273  0.0091
  552MOL0     C74418   3.333   6.567  -0.204  0.2810 -0.1535 -0.3900
  552MOL0     C74419   3.454   6.488  -0.222 -0.3190 -0.9854 -0.4900
  552MOL0     O74420   3.446   6.367  -0.282 -0.5960  0.5204 -0.0247
  552MOL0     C74421   3.359   6.265  -0.227  0.1477 -0.3088  0.7995
  552MOL0     C74422   3.412   6.209  -0.104 -0.1360  0.4470  0.1433
  552MOL0     C74423   3.541   6.129  -0.118  1.1981  0.1201 -0.7732
  552MOL0     C74424   3.616   6.151   0.007 -0.2922  0.5131 -0.4315
  552MOL0     C74425   3.742   6.067   0.004 -0.3970 -0.1237  0.5043
  552MOL0     C74426   3.848   6.092   0.118  0.0323 -0.3674  0.4543
  552MOL0     C74427   3.813   6.001   0.237 -0.2708  0.2756 -0.7486
  552MOL0     C74428   3.916   6.015   0.345 -0.2354 -0.4828 -1.1818
  552MOL0    Cl74429   3.853   5.917   0.483  0.5660 -0.3466  0.4654
  552MOL0     C74430   3.576   6.538  -0.167  0.7971  0.0664 -0.6963
  552MOL0     C74431   3.566   6.663  -0.107 -1.0362  0.4472  1.0030
  552MOL0     O74432   3.390   6.971  -0.224  0.4973 -0.5418 -0.4336
  552MOL0     C74433   3.397   7.219  -0.095 -0.2253  0.5856  1.0660
  552MOL0     C74434   3.409   7.345  -0.029  0.1919  0.4149 -0.5919
  552MOL0     N74435   3.938   7.571   0.356 -0.5704 -0.4546  0.1531
  552MOL0     N74436   4.041   7.536   0.431  0.3735 -0.0751  0.2039
  552MOL0     C74437   4.776   6.821   0.779 -0.9373  0.5541 -0.8807
  552MOL0     C74438   4.843   6.701   0.779 -0.4765  0.3472  1.0837
  552MOL0     C74439   5.090   6.373   0.598  0.0756 -0.0341  0.4656
  552MOL0     C74440   5.060   6.266   0.690 -0.2393 -0.4131 -0.7126
  552MOL0     C74441   5.152   6.158   0.712  0.1719  0.3777 -0.0848
  552MOL0     C74442   5.280   6.152   0.646 -0.3059 -0.0551 -0.3326
  552MOL0     O74443   5.379   6.054   0.658  0.4738  0.2693 -0.7454
  552MOL0     C74444   5.346   5.936   0.733  0.6349 -0.3714 -0.2292
  552MOL0     C74445   5.463   5.846   0.711  0.5598  0.7317  0.4419
  552MOL0     C74446   5.482   5.730   0.812  0.5519 -1.2965 -0.1021
  552MOL0     C74447   5.362   5.639   0.833 -0.2252  0.5428  0.4015
  552MOL0     C74448   5.391   5.556   0.949 -0.6990 -0.8644  0.0159
  552MOL0     C74449   5.426   5.487   1.042  0.4676  0.4277 -0.4926
  552MOL0     C74450   5.305   6.257   0.566  0.9957 -0.1189  0.0781
  552MOL0     C74451   5.219   6.370   0.541 -0.3569 -0.4816 -0.2278
  552MOL0     C74452   5.275   6.464   0.439  0.7425 -0.1332 -0.1570
  552MOL0     H74453   4.738   6.584   0.481 -0.9739  1.6164 -0.6330
  552MOL0     H74454   4.647   6.797   0.467  2.3020  0.4575 -1.0870
  552MOL0     H74455   4.722   7.101   0.811 -2.7419 -0.7171  0.7608
  552MOL0     H74456   4.830   7.079   0.657  0.8314  2.1145  0.1881
  552MOL0     H74457   4.627   7.191   0.548  0.4235  1.2889  0.1926
  552MOL0     H74458   4.760   7.289   0.616  2.2788 -2.1006  2.3718
  552MOL0     H74459   4.618   7.305   0.821  1.8875 -2.6053 -0.4746
  552MOL0     H74460   4.482   7.228   0.728 -0.2203 -0.4949  1.9868
  552MOL0     H74461   4.618   7.503   0.658  1.1600 -0.5626 -0.2475
  552MOL0     H74462   4.518   7.406   0.550 -3.0263 -3.0894  0.8009
  552MOL0     H74463   4.340   7.410   0.741  0.2744 -0.6285 -1.7374
  552MOL0     H74464   4.441   7.514   0.826  3.6893 -2.8902 -0.9753
  552MOL0     H74465   4.438   7.679   0.652  2.1209 -0.8464 -2.3891
  552MOL0     H74466   4.349   7.572   0.542 -4.1166  0.2205 -0.1158
  552MOL0     H74467   4.191   7.732   0.627 -5.8946 -2.4039 -0.4602
  552MOL0     H74468   4.233   7.684   0.795  0.7594 -0.7478  0.9075
  552MOL0     H74469   4.144   7.445   0.676 -0.3853 -1.3460  2.5392
  552MOL0     H74470   4.051   7.562   0.777  1.0400 -0.5644  0.0066
  552MOL0     H74471   3.869   7.717   0.645  0.4681 -1.6003  0.8717
  552MOL0     H74472   3.670   7.725   0.465  0.4460 -0.9552  0.0715
  552MOL0     H74473   3.762   7.813   0.342  0.4437 -0.5530  2.9395
  552MOL0     H74474   3.733   7.626   0.184 -2.5291  1.2542 -1.9239
  552MOL0     H74475   3.660   7.530   0.307 -0.1850  0.5962  0.4201
  552MOL0     H74476   3.562   7.775   0.158  1.4344  0.0701 -0.3497
  552MOL0     H74477   3.471   7.715   0.310  0.3038 -3.7833  2.2312
  552MOL0     H74478   3.516   7.586   0.028 -2.7295 -3.4846 -1.5568
  552MOL0     H74479   3.369   7.649   0.087  0.2290  0.6657  0.5901
  552MOL0     H74480   3.462   7.245   0.293  1.7292 -6.2346  1.4522
  552MOL0     H74481   3.469   7.017   0.165  0.2711  1.5058  2.2292
  552MOL0     H74482   3.238   6.751  -0.119 -0.9046 -0.1801  0.5853
  552MOL0     H74483   3.237   6.525  -0.232 -0.7991  1.2006  1.0966
  552MOL0     H74484   3.264   6.309  -0.194  0.5828  0.0404  1.6170
  552MOL0     H74485   3.346   6.186  -0.301  0.9929  0.5601 -0.3097
  552MOL0     H74486   3.423   6.287  -0.028 -1.5514  1.5202 -0.7199
  552MOL0     H74487   3.330   6.149  -0.064  1.5528 -1.1071  1.4575
  552MOL0     H74488   3.524   6.021  -0.124  2.2275 -0.0692 -0.4500
  552MOL0     H74489   3.593   6.168  -0.206  0.0795  1.1305 -1.0197
  552MOL0     H74490   3.556   6.119   0.093 -0.8380  2.2524 -0.1197
  552MOL0     H74491   3.639   6.258   0.013 -1.8551  0.9927 -2.1388
  552MOL0     H74492   3.795   6.093  -0.088  1.4687 -0.9543  1.2834
  552MOL0     H74493   3.717   5.961   0.009  0.1024 -0.2986 -0.4121
  552MOL0     H74494   3.947   6.058   0.084 -0.7016  1.0564 -3.6895
  552MOL0     H74495   3.860   6.197   0.147 -0.9939 -0.2375  0.4512
  552MOL0     H74496   3.814   5.894   0.215 -0.0636 -0.5923  2.8461
  552MOL0     H74497   3.716   6.028   0.281  0.6916  0.9906  1.0825
  552MOL0     H74498   4.012   5.967   0.326  0.7801  1.2202 -0.6126
  552MOL0     H74499   3.927   6.114   0.391 -0.4229 -0.9334 -0.1304
  552MOL0     H74500   3.667   6.480  -0.177 -1.0822 -3.2204 -0.2507
  552MOL0     H74501   3.654   6.718  -0.076 -0.4855  3.3107 -4.4845
  552MOL0     H74502   3.384   7.207  -0.202  0.5035 -2.2565  1.2044
  552MOL0     H74503   3.391   7.431  -0.093  1.1400  0.3855 -0.9191
  552MOL0     H74504   4.791   6.880   0.869  0.7781 -2.7889  1.2312
  552MOL0     H74505   4.898   6.679   0.870  1.1442  3.9979  1.1691
  552MOL0     H74506   4.968   6.265   0.748 -0.5392 -1.8972 -1.1782
  552MOL0     H74507   5.114   6.080   0.777 -0.0561  0.6559  0.1128
  552MOL0     H74508   5.246   5.904   0.704  0.5076  1.4743 -2.0901
  552MOL0     H74509   5.340   5.961   0.840 -0.1227 -1.7541  0.0751
  552MOL0     H74510   5.552   5.908   0.700  2.7056 -2.3444 -1.0117
  552MOL0     H74511   5.449   5.790   0.618 -1.4117  1.2217  0.4128
  552MOL0     H74512   5.499   5.792   0.901 -1.3245  0.4955 -0.8877
  552MOL0     H74513   5.576   5.678   0.790  2.4740  1.8252  0.0940
  552MOL0     H74514   5.270   5.696   0.847 -2.1948 -2.6063  1.3746
  552MOL0     H74515   5.352   5.572   0.747 -0.5367  0.7819  0.2485
  552MOL0     H74516   5.433   5.430   1.132 -4.3534  2.3793  1.4721
  552MOL0     H74517   5.397   6.248   0.509  1.1967 -1.6859  0.5880
  552MOL0     H74518   5.384   6.477   0.447  1.0565 -1.9764 -0.9247
  552MOL0     H74519   5.253   6.426   0.339 -0.4842  0.0236  0.0390
  552MOL0     H74520   5.212   6.553   0.442  0.4363 -0.3788  1.4739
  553MOL0     O74521  10.004   1.945   4.040 -0.9160  0.1867  0.3980
  553MOL0     C74522   9.973   1.995   3.933  0.7608 -0.0367 -0.3919
  553MOL0     O74523   9.965   1.936   3.814 -0.5094 -0.0331 -0.7555
  553MOL0     C74524  10.004   1.807   3.818  0.1807 -0.1932 -0.9147
  553MOL0     C74525  10.138   1.782   3.822  0.2947  0.3811  0.1403
  553MOL0     C74526  10.191   1.651   3.833  0.0035  0.0088 -0.0302
  553MOL0     C74527  10.093   1.540   3.846 -0.4667  0.3678 -0.8478
  553MOL0     O74528  10.115   1.403   3.870 -0.6368 -0.0506  0.3493
  553MOL0     C74529  10.258   1.373   3.877 -0.7309 -0.4671 -0.7083
  553MOL0     C74530  10.277   1.229   3.912 -0.3495  0.1968  0.6920
  553MOL0     C74531  10.187   1.166   4.022  0.1785 -0.2310  0.5710
  553MOL0     C74532  10.040   1.134   3.975  0.7605  0.4040 -0.1124
  553MOL0     C74533   9.959   1.030   4.059 -0.3849 -0.3525  0.6396
  553MOL0     C74534   9.906   1.080   4.193 -0.2098 -0.2924 -0.1240
  553MOL0     C74535   9.805   0.981   4.261 -0.4546 -0.2418 -1.1438
  553MOL0     C74536   9.722   1.036   4.379  0.6321  0.5955  0.0531
  553MOL0     N74537   9.771   0.980   4.507 -0.0776  0.6819 -0.4831
  553MOL0     C74538   9.780   0.845   4.539 -0.4952  0.6874  0.4076
  553MOL0     C74539   9.841   0.847   4.663  0.1645  0.2667  0.2266
  553MOL0     C74540   9.869   0.714   4.729  1.4340 -0.6295  0.0946
  553MOL0     C74541  10.007   0.670   4.673  0.7118 -0.4062 -0.0656
  553MOL0     C74542  10.068   0.570   4.770 -0.8107  0.2179 -0.2654
  553MOL0     C74543  10.212   0.521   4.716  1.2831 -0.4907 -0.6060
  553MOL0     O74544  10.182   0.444   4.599  0.1894 -0.2749  0.5343
  553MOL0     C74545  10.104   0.331   4.592  0.2728  0.5774 -0.1173
  553MOL0     C74546  10.080   0.256   4.707  0.1334  0.2757  0.7209
  553MOL0     C74547  10.034   0.127   4.709 -0.5418 -0.4867  0.3897
  553MOL0     C74548   9.994   0.078   4.578  0.2080  0.7788  0.7370
  553MOL0     C74549   9.934  -0.062   4.565 -0.1087 -0.4857 -0.6592
  553MOL0     O74550   9.947  -0.131   4.683  0.2567 -0.5236  0.9210
  553MOL0     C74551   9.895  -0.254   4.675  0.2883  0.1287  0.1045
  553MOL0     C74552   9.765  -0.288   4.701  0.6134 -0.2128  0.7116
  553MOL0     C74553   9.714  -0.421   4.680  0.3924 -0.7549  0.1432
  553MOL0     C74554   9.798  -0.519   4.642 -0.6366 -0.1774  1.4873
  553MOL0     O74555   9.729  -0.640   4.631 -0.2188 -0.6691 -0.4827
  553MOL0     C74556   9.802  -0.754   4.605  0.8884  0.2934  0.1103
  553MOL0     C74557   9.692  -0.866   4.578 -0.2281 -0.9782 -0.0324
  553MOL0     C74558   9.760  -1.005   4.551  0.5380  0.7597  0.2694
  553MOL0     C74559   9.650  -1.115   4.539  0.0445  0.1620 -0.0328
  553MOL0     C74560   9.622  -1.179   4.680  0.2109  0.2598  0.4536
  553MOL0     C74561   9.548  -1.316   4.650 -0.3429  1.2644 -0.4132
  553MOL0     C74562   9.580  -1.419   4.760 -0.0688 -0.1247  0.1185
  553MOL0     C74563   9.470  -1.520   4.741 -0.1628 -0.2623  0.4529
  553MOL0    Cl74564   9.497  -1.638   4.861 -0.6361  0.2730  0.5226
  553MOL0     C74565   9.937  -0.492   4.611  0.5513 -0.2547 -0.0582
  553MOL0     C74566   9.978  -0.361   4.623  0.0834 -1.1331  0.7478
  553MOL0     O74567   9.874  -0.093   4.470  0.3910 -0.7985  1.5474
  553MOL0     C74568   9.991   0.158   4.459  0.1120  0.0570 -0.1768
  553MOL0     C74569  10.056   0.281   4.475  0.0929 -0.7203 -0.7351
  553MOL0     N74570   9.867   0.972   4.697 -0.1333 -0.3743 -0.2151
  553MOL0     N74571   9.817   1.058   4.609  0.0097 -0.1459 -0.5391
  553MOL0     C74572   9.954   1.575   3.845 -0.5703 -0.6482 -0.0433
  553MOL0     C74573   9.906   1.703   3.822  0.0428 -1.5347 -0.1846
  553MOL0     C74574   9.948   2.141   3.941 -0.1687  0.1707 -0.7467
  553MOL0     C74575  10.007   2.231   4.034 -0.3885  0.7012  0.8973
  553MOL0     C74576   9.975   2.364   4.049 -0.5775 -0.1158 -0.3377
  553MOL0     C74577   9.878   2.417   3.967  0.2219  0.1844  0.5557
  553MOL0     O74578   9.826   2.544   3.975 -0.3211 -0.1349 -0.5534
  553MOL0     C74579   9.879   2.642   4.068 -0.3213 -0.1977 -0.0507
  553MOL0     C74580   9.773   2.754   4.073  0.6011  0.6665 -0.3083
  553MOL0     C74581   9.839   2.880   4.126  0.2206 -0.0391  0.0665
  553MOL0     C74582   9.748   3.007   4.111 -0.2942  0.8892  0.3651
  553MOL0     C74583   9.628   2.992   4.182 -0.1631 -0.6290 -0.3443
  553MOL0     C74584   9.524   2.965   4.247  0.2273  0.4848 -0.2539
  553MOL0     C74585   9.811   2.336   3.875 -0.4514 -0.0300 -1.2220
  553MOL0     C74586   9.843   2.201   3.858 -0.4229  0.0590 -0.5575
  553MOL0     C74587   9.762   2.123   3.760  0.2300  0.4513 -0.7053
  553MOL0     H74588  10.202   1.869   3.837 -0.3069  0.5118  2.4680
  553MOL0     H74589  10.298   1.634   3.841 -0.3430 -1.4299  3.1629
  553MOL0     H74590  10.297   1.393   3.777 -0.7635  1.4602 -0.3611
  553MOL0     H74591  10.291   1.442   3.955  0.2325 -0.7831 -0.8201
  553MOL0     H74592  10.380   1.224   3.947  0.5442 -1.5234 -1.8927
  553MOL0     H74593  10.279   1.174   3.818 -0.7084 -0.2643  0.9501
  553MOL0     H74594  10.184   1.228   4.112  1.5330  3.2508 -1.5913
  553MOL0     H74595  10.234   1.076   4.064 -1.6369  0.2556  4.0138
  553MOL0     H74596   9.983   1.227   3.965 -1.3504 -0.3427  3.2011
  553MOL0     H74597  10.048   1.090   3.875  0.9684  2.0374 -0.8391
  553MOL0     H74598   9.873   1.000   3.999  1.5143  0.6745 -2.8802
  553MOL0     H74599  10.018   0.941   4.082 -1.0977 -0.9366  0.2492
  553MOL0     H74600   9.983   1.096   4.269  0.4529  1.6854 -1.1345
  553MOL0     H74601   9.852   1.173   4.170 -0.1189  0.4530  2.3926
  553MOL0     H74602   9.857   0.897   4.308 -1.5066  0.3722  1.2978
  553MOL0     H74603   9.735   0.947   4.185 -1.9666  0.9040 -0.3148
  553MOL0     H74604   9.714   1.143   4.399  0.1200  0.5728 -0.0154
  553MOL0     H74605   9.616   1.015   4.359 -0.1466  5.1776 -1.9446
  553MOL0     H74606   9.749   0.759   4.480 -1.1916  0.0299  1.7076
  553MOL0     H74607   9.876   0.709   4.838  0.5856 -3.5743  0.0924
  553MOL0     H74608   9.788   0.646   4.706 -0.0391  1.5601 -1.6622
  553MOL0     H74609   9.977   0.619   4.580 -2.3138 -0.9258  1.0906
  553MOL0     H74610  10.079   0.752   4.664  2.4116 -1.6495  1.4613
  553MOL0     H74611   9.997   0.487   4.779  0.6257 -0.8338  2.2593
  553MOL0     H74612  10.094   0.607   4.869  3.7096  0.7812 -1.4058
  553MOL0     H74613  10.267   0.451   4.780 -1.5336  0.8654  3.7605
  553MOL0     H74614  10.279   0.608   4.708 -2.4957  3.6107  4.5967
  553MOL0     H74615  10.115   0.305   4.797 -0.0107  1.6779  0.0394
  553MOL0     H74616  10.015   0.064   4.795 -3.8758 -2.6258 -1.7199
  553MOL0     H74617   9.691  -0.214   4.732  1.3749  0.9016 -0.0920
  553MOL0     H74618   9.613  -0.444   4.712 -0.5618  0.6243 -1.6557
  553MOL0     H74619   9.877  -0.752   4.525 -0.2065 -1.7451 -1.0713
  553MOL0     H74620   9.843  -0.765   4.705 -0.1595  0.4524  0.5642
  553MOL0     H74621   9.617  -0.869   4.658 -0.1039  2.0433  0.3343
  553MOL0     H74622   9.640  -0.842   4.485  0.1079 -0.7274 -0.1561
  553MOL0     H74623   9.810  -0.993   4.455 -0.2824  0.4971 -0.2069
  553MOL0     H74624   9.833  -1.024   4.630  0.3501 -1.1927  0.0099
  553MOL0     H74625   9.685  -1.185   4.463 -1.0710 -1.3224  0.7729
  553MOL0     H74626   9.558  -1.069   4.501  0.2314 -0.9826 -1.9802
  553MOL0     H74627   9.557  -1.111   4.736  2.8199  2.7624  0.6437
  553MOL0     H74628   9.706  -1.202   4.747 -1.0730 -0.6503  1.8409
  553MOL0     H74629   9.441  -1.297   4.664 -0.6857 -1.8030  2.7421
  553MOL0     H74630   9.573  -1.346   4.548  0.3280  3.5210 -0.9584
  553MOL0     H74631   9.576  -1.369   4.857  0.0678 -0.7357  0.4445
  553MOL0     H74632   9.675  -1.470   4.743 -0.4153 -1.2159  1.3015
  553MOL0     H74633   9.373  -1.471   4.760  1.2226  2.6075  0.7000
  553MOL0     H74634   9.473  -1.540   4.634 -2.1397  0.0119  0.3090
  553MOL0     H74635   9.985  -0.580   4.569 -2.7944 -1.9217 -0.7443
  553MOL0     H74636  10.063  -0.334   4.561 -2.0314  0.5443 -1.6523
  553MOL0     H74637   9.971   0.123   4.359 -0.8033 -1.9379  0.6569
  553MOL0     H74638  10.080   0.334   4.384 -0.6991  3.1313  1.0797
  553MOL0     H74639   9.885   1.492   3.859 -0.8186 -0.0378  3.2489
  553MOL0     H74640   9.802   1.729   3.804  0.5405  0.4296 -0.4380
  553MOL0     H74641  10.063   2.174   4.109 -1.8232  2.0767  3.1396
  553MOL0     H74642  10.028   2.424   4.122  0.9317  1.1288 -2.3489
  553MOL0     H74643   9.970   2.684   4.023 -0.1162  1.0518  1.4435
  553MOL0     H74644   9.893   2.597   4.167  1.4160 -1.7969 -0.9684
  553MOL0     H74645   9.696   2.718   4.142  1.5477 -0.2974  0.2689
  553MOL0     H74646   9.728   2.769   3.975  0.7070  2.8413 -0.0866
  553MOL0     H74647   9.933   2.898   4.074 -0.1014 -3.8859 -2.1893
  553MOL0     H74648   9.857   2.865   4.233  0.0733  1.6480  0.3584
  553MOL0     H74649   9.804   3.098   4.133  0.0353  1.1009 -1.1880
  553MOL0     H74650   9.727   3.010   4.003  2.5358 -0.0257 -0.2867
  553MOL0     H74651   9.446   2.915   4.301  1.2549 -1.2083 -0.2623
  553MOL0     H74652   9.746   2.399   3.814  0.9204  1.2541 -1.4108
  553MOL0     H74653   9.690   2.193   3.718 -0.2742  1.5450  1.7948
  553MOL0     H74654   9.825   2.071   3.687  0.6921  1.1114 -0.7866
  553MOL0     H74655   9.720   2.044   3.823  1.4728 -0.8032 -1.3749
  554MOL0     O74656   8.507   5.310   2.132 -0.0380 -0.2613 -0.0359
  554MOL0     C74657   8.462   5.207   2.087 -1.3725 -1.0286  0.4456
  554MOL0     O74658   8.452   5.093   2.159  0.0113  0.5025 -0.2986
  554MOL0     C74659   8.509   5.093   2.284  1.4908  1.1720  0.5468
  554MOL0     C74660   8.417   5.063   2.389  0.1879 -0.3426 -0.4945
  554MOL0     C74661   8.476   5.039   2.514 -0.5431 -0.1840 -0.2405
  554MOL0     C74662   8.610   5.066   2.543 -0.0820  0.1092  0.4944
  554MOL0     O74663   8.674   5.046   2.666 -0.5395 -1.1414  0.1917
  554MOL0     C74664   8.611   5.102   2.781  0.6238  0.6810  0.8266
  554MOL0     C74665   8.625   5.253   2.783 -0.1257 -0.9466 -0.3655
  554MOL0     C74666   8.775   5.287   2.797 -0.3097 -0.0550 -0.5616
  554MOL0     C74667   8.802   5.436   2.829  0.0401 -0.2890  0.5746
  554MOL0     C74668   8.737   5.496   2.957  0.1572  0.2520 -0.7133
  554MOL0     C74669   8.784   5.430   3.088 -0.6155 -0.0644 -0.0184
  554MOL0     C74670   8.758   5.515   3.210 -0.2009 -0.2425 -0.6112
  554MOL0     C74671   8.763   5.436   3.340 -0.3150 -0.6605 -0.0948
  554MOL0     N74672   8.899   5.391   3.371  0.3371 -0.1158  0.0864
  554MOL0     C74673   9.019   5.465   3.357  0.8013 -0.5014 -0.5932
  554MOL0     C74674   9.113   5.370   3.373 -0.9522  0.1220 -0.2588
  554MOL0     C74675   9.257   5.413   3.345 -0.8508 -0.3055 -0.2456
  554MOL0     C74676   9.346   5.316   3.413  0.4972 -0.5811  0.5206
  554MOL0     C74677   9.495   5.360   3.385  0.8032 -0.2076  0.6954
  554MOL0     C74678   9.558   5.334   3.243  0.3205 -0.6768  0.0090
  554MOL0     O74679   9.528   5.444   3.158 -0.1772 -0.1895 -0.3274
  554MOL0     C74680   9.620   5.544   3.147  1.1926 -0.2125  0.4719
  554MOL0     C74681   9.597   5.644   3.051 -0.1158  0.3608  0.6096
  554MOL0     C74682   9.681   5.749   3.034 -0.5514 -0.2070 -0.0751
  554MOL0     C74683   9.792   5.764   3.119 -0.0614  0.1616  0.3861
  554MOL0     C74684   9.887   5.878   3.106  0.1701 -0.4236 -0.9443
  554MOL0     O74685  10.001   5.876   3.184 -0.0612  0.7860  1.2746
  554MOL0     C74686  10.106   5.949   3.130 -0.7246 -0.5506  0.1918
  554MOL0     C74687  10.112   6.091   3.135 -0.3080  0.1407 -0.4914
  554MOL0     C74688  10.213   6.157   3.080 -0.8302 -0.1034 -0.5940
  554MOL0     C74689  10.314   6.096   3.005  0.7430 -0.1520 -0.6044
  554MOL0     O74690  10.404   6.179   2.952 -0.5580  0.4220  1.1878
  554MOL0     C74691  10.522   6.217   3.021  0.6481 -0.3192 -0.2499
  554MOL0     C74692  10.547   6.363   2.978  0.6378 -1.2131  0.4065
  554MOL0     C74693  10.613   6.359   2.840  0.0303 -0.3019 -0.4243
  554MOL0     C74694  10.758   6.364   2.865 -0.7126 -0.5469  0.2501
  554MOL0     C74695  10.840   6.346   2.731 -0.1227  0.2539 -0.1420
  554MOL0     C74696  10.830   6.211   2.661 -0.7143 -0.4312  0.0969
  554MOL0     C74697  10.888   6.095   2.735  0.0386 -1.0183  0.5717
  554MOL0     C74698  10.852   5.952   2.681  0.6479 -0.2956  0.5145
  554MOL0    Cl74699  10.717   5.897   2.785 -0.1925 -0.3018 -0.5620
  554MOL0     C74700  10.319   5.957   3.001 -0.2225  0.9212 -0.0414
  554MOL0     C74701  10.210   5.885   3.058 -0.2822  0.2138  0.1456
  554MOL0     O74702   9.852   5.966   3.025 -0.3617  1.0900 -0.4301
  554MOL0     C74703   9.809   5.674   3.221 -0.3139  0.0832 -0.2169
  554MOL0     C74704   9.726   5.563   3.234  0.4776  0.0564 -0.0307
  554MOL0     N74705   9.060   5.250   3.404 -0.6076 -0.1534 -0.4970
  554MOL0     N74706   8.935   5.259   3.404 -0.0780  0.6684  0.7716
  554MOL0     C74707   8.691   5.102   2.441 -0.3869  0.5455  0.1560
  554MOL0     C74708   8.645   5.113   2.310  0.2712 -0.9563 -0.0379
  554MOL0     C74709   8.395   5.219   1.947  0.7471 -0.0499  0.5893
  554MOL0     C74710   8.337   5.339   1.893  0.2410 -0.2342 -0.7185
  554MOL0     C74711   8.290   5.348   1.762 -1.1193  0.1090 -0.2333
  554MOL0     C74712   8.269   5.235   1.691  0.0328  0.1847  0.9458
  554MOL0     O74713   8.228   5.248   1.564 -0.1521 -0.6886  0.0630
  554MOL0     C74714   8.225   5.144   1.468  0.9606 -0.2188 -0.5078
  554MOL0     C74715   8.201   5.205   1.335 -0.0017  0.1142  0.3970
  554MOL0     C74716   8.175   5.121   1.205 -0.8141 -0.1639  0.6083
  554MOL0     C74717   8.297   5.045   1.162 -0.8326 -0.7855 -0.8755
  554MOL0     C74718   8.300   4.905   1.214 -0.1075  0.0801 -0.2792
  554MOL0     C74719   8.313   4.792   1.261 -0.3004 -1.4199 -0.4731
  554MOL0     C74720   8.317   5.111   1.749  0.2063 -0.2308  0.6658
  554MOL0     C74721   8.384   5.108   1.867 -1.5809  0.7071  0.3121
  554MOL0     C74722   8.459   4.979   1.906 -0.7148  0.4352 -0.2078
  554MOL0     H74723   8.314   5.054   2.358  0.4072 -1.4573 -0.9778
  554MOL0     H74724   8.405   5.003   2.589  1.4422 -1.7718  0.9748
  554MOL0     H74725   8.504   5.080   2.771  0.8295  0.6530 -2.1438
  554MOL0     H74726   8.644   5.059   2.877 -2.3709 -1.1942  1.1279
  554MOL0     H74727   8.571   5.289   2.871  1.0282  0.0813 -0.0421
  554MOL0     H74728   8.575   5.288   2.693 -0.8261 -0.9034  0.0315
  554MOL0     H74729   8.821   5.270   2.699  1.0841  1.6012 -0.2506
  554MOL0     H74730   8.820   5.232   2.879 -1.0194  2.0862  1.3648
  554MOL0     H74731   8.906   5.468   2.818 -1.1382  3.2437 -2.6327
  554MOL0     H74732   8.759   5.494   2.747 -0.3072  1.0765  1.6653
  554MOL0     H74733   8.769   5.601   2.955  2.1819 -0.2355  1.4673
  554MOL0     H74734   8.629   5.486   2.950  0.1307  0.2537 -0.3400
  554MOL0     H74735   8.740   5.332   3.110  0.1519 -0.2543  0.7742
  554MOL0     H74736   8.893   5.416   3.092 -0.8697 -2.1956  1.0220
  554MOL0     H74737   8.658   5.561   3.207  0.2558  0.8110 -0.2882
  554MOL0     H74738   8.821   5.604   3.220  1.0835 -1.1339 -0.6030
  554MOL0     H74739   8.738   5.509   3.418 -2.6437 -0.9740 -0.4720
  554MOL0     H74740   8.685   5.362   3.360 -1.9176  1.2635  1.2435
  554MOL0     H74741   9.051   5.568   3.344 -0.2512 -0.0164  0.4214
  554MOL0     H74742   9.275   5.403   3.237  2.3488 -2.9090  0.3761
  554MOL0     H74743   9.290   5.516   3.361  0.6225 -0.2972 -2.7625
  554MOL0     H74744   9.334   5.310   3.522 -2.3572  1.2137  0.4138
  554MOL0     H74745   9.330   5.220   3.362 -0.8143  1.2278 -2.7532
  554MOL0     H74746   9.569   5.310   3.448  0.8245  1.5959  2.1880
  554MOL0     H74747   9.497   5.466   3.410 -2.2279 -0.2625  1.5834
  554MOL0     H74748   9.516   5.243   3.198  3.1662 -2.9756  1.6379
  554MOL0     H74749   9.666   5.316   3.249  0.8943  1.5076 -1.9313
  554MOL0     H74750   9.509   5.637   2.987 -0.9465 -1.7066  1.8616
  554MOL0     H74751   9.669   5.822   2.955  1.5497  2.0260  1.5259
  554MOL0     H74752  10.030   6.147   3.180  0.8460  0.2290  1.6230
  554MOL0     H74753  10.217   6.266   3.077 -3.8878  0.0955 -1.7395
  554MOL0     H74754  10.505   6.215   3.129 -1.8280  3.0158 -0.4398
  554MOL0     H74755  10.596   6.138   3.005 -3.0832 -3.9568 -1.2422
  554MOL0     H74756  10.455   6.422   2.976  0.9164 -0.7858 -0.0830
  554MOL0     H74757  10.612   6.408   3.053  0.7176 -0.4148 -0.1246
  554MOL0     H74758  10.575   6.278   2.778  1.5718 -2.2563  1.0473
  554MOL0     H74759  10.590   6.448   2.781 -0.7744  1.1967  1.9635
  554MOL0     H74760  10.788   6.279   2.927 -0.2534 -2.0787 -1.9080
  554MOL0     H74761  10.788   6.458   2.912  2.1421 -0.7591 -0.9382
  554MOL0     H74762  10.944   6.368   2.757 -0.2655 -1.3312  2.1012
  554MOL0     H74763  10.809   6.420   2.657  1.7940 -0.3400 -1.6169
  554MOL0     H74764  10.726   6.197   2.631 -1.6677  0.0067  2.9303
  554MOL0     H74765  10.883   6.221   2.566  0.4625 -1.8339  0.5566
  554MOL0     H74766  10.849   6.096   2.837 -0.1866  0.2174  0.4971
  554MOL0     H74767  10.994   6.114   2.753 -0.5900  1.9894  1.7324
  554MOL0     H74768  10.834   5.965   2.574  3.3404 -0.7715 -0.0940
  554MOL0     H74769  10.937   5.883   2.689 -1.3163 -2.6449  2.8140
  554MOL0     H74770  10.391   5.893   2.950 -1.3907 -0.8792  0.4691
  554MOL0     H74771  10.213   5.777   3.055  2.3285  0.0850  3.1027
  554MOL0     H74772   9.880   5.692   3.300  0.7348 -1.8055 -0.6728
  554MOL0     H74773   9.759   5.494   3.311  0.1382 -1.5365 -1.2489
  554MOL0     H74774   8.797   5.116   2.458  0.8223 -4.8153 -1.2527
  554MOL0     H74775   8.715   5.155   2.238 -1.6918  2.2637 -0.2936
  554MOL0     H74776   8.338   5.426   1.958  2.6057 -2.5677  2.6841
  554MOL0     H74777   8.255   5.442   1.720 -0.3222  1.1034  1.2420
  554MOL0     H74778   8.152   5.063   1.480  0.8912 -0.2961 -1.4056
  554MOL0     H74779   8.320   5.091   1.469  0.6530 -0.8151  1.0933
  554MOL0     H74780   8.290   5.265   1.314  0.2278  0.2343  1.6632
  554MOL0     H74781   8.112   5.268   1.343  0.8280  1.1693  1.7745
  554MOL0     H74782   8.158   5.199   1.130  0.5353  0.8560  1.2998
  554MOL0     H74783   8.091   5.053   1.221 -1.5873  1.2571  3.2508
  554MOL0     H74784   8.299   5.039   1.053  1.5060 -3.2742 -0.7989
  554MOL0     H74785   8.381   5.100   1.205 -2.2169  0.2545  0.6053
  554MOL0     H74786   8.306   4.693   1.301 -0.9850 -0.5201  1.7881
  554MOL0     H74787   8.307   5.018   1.694 -2.9096 -0.2330  1.0357
  554MOL0     H74788   8.558   5.005   1.943 -0.0412  0.4475 -1.9212
  554MOL0     H74789   8.403   4.922   1.980  2.8313 -1.9893  0.8470
  554MOL0     H74790   8.478   4.907   1.824 -1.9648  0.6187 -0.6774
  555MOL0     O74791  10.386   6.502   5.952  0.5527  0.2379 -0.4189
  555MOL0     C74792  10.474   6.588   5.961  0.5645  1.4082 -0.8919
  555MOL0     O74793  10.610   6.560   5.990  0.2305 -1.0332  0.7038
  555MOL0     C74794  10.654   6.432   6.019  0.3815  0.4995 -1.0610
  555MOL0     C74795  10.760   6.381   5.935  0.0164 -0.1701 -0.9958
  555MOL0     C74796  10.810   6.253   5.957  1.3456  0.1065 -0.0331
  555MOL0     C74797  10.764   6.180   6.069  0.8180 -0.5517  0.3508
  555MOL0     O74798  10.817   6.065   6.128  0.7425 -0.2610  1.4741
  555MOL0     C74799  10.894   5.979   6.039  0.7395 -0.3716  0.4028
  555MOL0     C74800  10.905   5.828   6.075 -0.2658 -0.2513 -0.1820
  555MOL0     C74801  10.783   5.758   6.027  0.6933  0.3856  0.6291
  555MOL0     C74802  10.789   5.607   6.071  0.2153 -1.5830 -0.1488
  555MOL0     C74803  10.656   5.544   6.060 -0.4045 -0.2370  0.3586
  555MOL0     C74804  10.658   5.394   6.086  0.6273  0.7292 -0.4220
  555MOL0     C74805  10.538   5.347   6.171  0.7117  0.7844  0.9221
  555MOL0     C74806  10.410   5.304   6.081 -0.6808 -0.7770  0.0686
  555MOL0     N74807  10.319   5.252   6.177 -0.5875  0.7908 -0.8016
  555MOL0     C74808  10.184   5.272   6.186 -0.8710 -0.2250  0.1322
  555MOL0     C74809  10.141   5.191   6.287 -0.5136  0.2753  0.0180
  555MOL0     C74810  10.001   5.200   6.341  0.3599  0.3429 -0.2365
  555MOL0     C74811   9.898   5.106   6.270 -0.5186  0.8150 -0.3543
  555MOL0     C74812   9.867   5.145   6.116 -0.4688 -0.2776 -0.0912
  555MOL0     C74813   9.820   5.289   6.114  0.0676  1.2929  0.0046
  555MOL0     O74814   9.816   5.331   5.977 -0.2207 -0.4241  0.0587
  555MOL0     C74815   9.927   5.406   5.938 -0.6064 -0.3579 -0.1116
  555MOL0     C74816   9.952   5.534   5.996  0.1515  0.6585 -0.3885
  555MOL0     C74817  10.067   5.598   5.963 -2.0095 -0.1091 -0.1062
  555MOL0     C74818  10.164   5.544   5.881  0.3627  0.6937 -0.1268
  555MOL0     C74819  10.285   5.618   5.837  0.0796  1.1855  0.2530
  555MOL0     O74820  10.305   5.734   5.892  0.3425 -0.3812  0.0120
  555MOL0     C74821  10.360   5.846   5.827 -0.1104 -0.1124 -0.0701
  555MOL0     C74822  10.326   5.864   5.694  0.7285 -0.4802  0.3510
  555MOL0     C74823  10.378   5.978   5.635  0.6679  1.1590  0.2554
  555MOL0     C74824  10.469   6.071   5.695  0.5884  0.2487 -0.0099
  555MOL0     O74825  10.521   6.180   5.624  0.2448  0.5620 -0.1671
  555MOL0     C74826  10.543   6.303   5.697  1.0061  0.0299  0.0380
  555MOL0     C74827  10.587   6.411   5.606 -0.2256  0.5529 -0.4246
  555MOL0     C74828  10.465   6.473   5.543 -0.5219  0.6228  1.8928
  555MOL0     C74829  10.513   6.536   5.412 -0.8601  0.5575  0.6126
  555MOL0     C74830  10.398   6.611   5.343  0.6149  0.8951  0.5127
  555MOL0     C74831  10.449   6.677   5.206 -0.9509  0.8378  0.5104
  555MOL0     C74832  10.534   6.798   5.246 -0.4342 -0.1004  0.2420
  555MOL0     C74833  10.628   6.832   5.120 -0.0847  0.4345 -0.0618
  555MOL0    Cl74834  10.734   6.966   5.175  0.0091 -0.0561  0.1413
  555MOL0     C74835  10.500   6.043   5.828 -0.1985 -1.3553 -0.2324
  555MOL0     C74836  10.441   5.946   5.899 -0.1282  0.0095  0.1731
  555MOL0     O74837  10.374   5.555   5.780  0.4716  0.3990  0.1345
  555MOL0     C74838  10.139   5.417   5.822  0.2556 -0.3970  0.5371
  555MOL0     C74839  10.030   5.347   5.862  0.0578  0.3911  1.2537
  555MOL0     N74840  10.248   5.126   6.338 -0.3250 -1.2393 -0.3060
  555MOL0     N74841  10.353   5.158   6.273  0.5873  0.5888 -0.2123
  555MOL0     C74842  10.663   6.229   6.140  0.9586  1.1456 -0.0486
  555MOL0     C74843  10.602   6.348   6.118  0.0520 -0.0565 -0.4287
  555MOL0     C74844  10.434   6.729   5.919 -0.0129  0.2452 -0.0300
  555MOL0     C74845  10.301   6.772   5.932 -0.0960  1.5410 -0.7599
  555MOL0     C74846  10.261   6.897   5.901  1.2643 -0.3418  0.7495
  555MOL0     C74847  10.351   6.996   5.870  0.0245 -0.2206  0.3782
  555MOL0     O74848  10.295   7.120   5.847  0.3263 -0.0834 -1.4690
  555MOL0     C74849  10.383   7.228   5.850  0.0465  0.4466 -0.2219
  555MOL0     C74850  10.315   7.349   5.778 -0.7049 -0.2521 -0.3555
  555MOL0     C74851  10.302   7.341   5.629 -1.0416 -0.0973 -0.8451
  555MOL0     C74852  10.420   7.293   5.548  0.0798 -0.4062 -0.4714
  555MOL0     C74853  10.541   7.373   5.569  0.1949  0.5028 -0.6046
  555MOL0     C74854  10.635   7.440   5.580  1.1339  1.3114  0.1226
  555MOL0     C74855  10.491   6.958   5.865  0.0611  0.0957 -1.0966
  555MOL0     C74856  10.533   6.820   5.883 -0.1015 -0.4998  0.9100
  555MOL0     C74857  10.674   6.788   5.839 -0.1742  0.9638  0.4028
  555MOL0     H74858  10.804   6.436   5.852  0.7001  1.5087  0.4052
  555MOL0     H74859  10.891   6.223   5.892  0.4450 -0.8860 -0.7225
  555MOL0     H74860  10.850   5.984   5.939  1.0065  1.2709  0.3441
  555MOL0     H74861  10.989   6.030   6.021 -0.2528  0.2202 -4.7723
  555MOL0     H74862  10.924   5.812   6.182  2.9115  1.3319 -0.3817
  555MOL0     H74863  10.991   5.785   6.022 -0.6512 -1.1544 -0.0825
  555MOL0     H74864  10.758   5.768   5.921 -0.1013  1.3289  0.8991
  555MOL0     H74865  10.699   5.808   6.076 -1.8143 -2.1703 -0.7723
  555MOL0     H74866  10.864   5.552   6.014 -0.0816 -1.7424 -0.3844
  555MOL0     H74867  10.813   5.608   6.178  4.3661 -0.3912 -0.9310
  555MOL0     H74868  10.602   5.587   6.145  1.6242 -3.4114  3.5604
  555MOL0     H74869  10.615   5.565   5.961 -1.4975  2.5929  1.3067
  555MOL0     H74870  10.661   5.334   5.994 -6.7354 -0.5395 -0.4482
  555MOL0     H74871  10.743   5.358   6.144 -0.3462 -4.0081 -1.4538
  555MOL0     H74872  10.500   5.417   6.246 -0.0483  1.1529  0.2170
  555MOL0     H74873  10.573   5.258   6.224  4.2565  1.9949  0.8687
  555MOL0     H74874  10.359   5.392   6.041 -0.7207 -0.2271  1.2828
  555MOL0     H74875  10.432   5.236   5.998  0.8444  2.0420 -2.0304
  555MOL0     H74876  10.124   5.344   6.130  1.5118  2.2301  0.5160
  555MOL0     H74877  10.016   5.166   6.444 -1.3067  0.8164  0.1965
  555MOL0     H74878   9.968   5.304   6.353 -1.1153  0.1477 -2.2359
  555MOL0     H74879   9.925   5.000   6.266 -0.3474  0.8564 -4.0924
  555MOL0     H74880   9.810   5.117   6.335 -0.6706 -1.1229 -0.1799
  555MOL0     H74881   9.788   5.078   6.080 -1.3664 -1.6151  3.8298
  555MOL0     H74882   9.959   5.132   6.059 -2.1465 -0.4821 -2.9564
  555MOL0     H74883   9.875   5.356   6.181 -0.3204 -0.5858  2.3259
  555MOL0     H74884   9.715   5.276   6.141  0.0732 -2.1026 -1.1748
  555MOL0     H74885   9.884   5.579   6.067 -0.9811 -0.6160 -0.6220
  555MOL0     H74886  10.082   5.704   5.983 -2.6736  0.8883 -4.0363
  555MOL0     H74887  10.253   5.802   5.642 -1.8995  1.5593  1.3534
  555MOL0     H74888  10.344   5.990   5.532 -0.6110  1.6040  0.7109
  555MOL0     H74889  10.460   6.328   5.764  2.1330 -0.1361  1.5404
  555MOL0     H74890  10.637   6.287   5.750 -0.7561 -3.1910  2.5311
  555MOL0     H74891  10.641   6.493   5.655 -0.1334  0.3907 -0.2522
  555MOL0     H74892  10.659   6.355   5.546 -0.2575 -2.7078  2.3082
  555MOL0     H74893  10.389   6.397   5.521  2.2226 -2.1433  1.3233
  555MOL0     H74894  10.423   6.552   5.606  0.7711  1.1452  2.1171
  555MOL0     H74895  10.547   6.453   5.350  0.4456  0.5483  1.2889
  555MOL0     H74896  10.598   6.603   5.427  0.6526 -0.7593 -1.5285
  555MOL0     H74897  10.360   6.691   5.408  1.3678  0.7233  1.1890
  555MOL0     H74898  10.316   6.544   5.317  0.5662  1.6306 -1.4419
  555MOL0     H74899  10.517   6.609   5.154  0.4049  2.8271 -0.4369
  555MOL0     H74900  10.365   6.699   5.140 -0.9275  1.3336  0.6397
  555MOL0     H74901  10.581   6.786   5.343 -0.1456  1.8146  0.3827
  555MOL0     H74902  10.465   6.882   5.261 -3.3931 -2.3454  0.2205
  555MOL0     H74903  10.689   6.744   5.102 -1.0758 -0.3395  0.2748
  555MOL0     H74904  10.573   6.864   5.031  1.3161 -0.9999 -1.4926
  555MOL0     H74905  10.574   6.105   5.878 -1.6809  0.2768  0.0210
  555MOL0     H74906  10.480   5.929   5.999 -0.9562  0.6257  0.6178
  555MOL0     H74907  10.206   5.378   5.746 -0.1423 -4.0527  1.8460
  555MOL0     H74908  10.021   5.244   5.828  0.5852  0.0316  2.1745
  555MOL0     H74909  10.630   6.156   6.213  1.3695 -1.8541 -2.6667
  555MOL0     H74910  10.510   6.376   6.168 -1.0129 -0.3857 -2.0967
  555MOL0     H74911  10.224   6.704   5.968 -0.7562  0.3699 -4.0408
  555MOL0     H74912  10.160   6.925   5.933  1.3866 -0.4453  1.2403
  555MOL0     H74913  10.481   7.216   5.803 -0.8338  2.0624 -2.6999
  555MOL0     H74914  10.394   7.256   5.955 -0.9294 -1.5714  0.4780
  555MOL0     H74915  10.362   7.445   5.800 -0.0038 -0.4280 -1.0559
  555MOL0     H74916  10.214   7.358   5.820  0.4127  2.7553  2.0533
  555MOL0     H74917  10.277   7.443   5.599  0.9592  0.0020 -2.4197
  555MOL0     H74918  10.212   7.284   5.604 -1.2626  0.2960 -0.9623
  555MOL0     H74919  10.462   7.194   5.571  1.8173  0.5499  0.7075
  555MOL0     H74920  10.395   7.304   5.442  1.5240 -1.4279 -0.9595
  555MOL0     H74921  10.721   7.502   5.596  0.7551  1.9349 -0.2392
  555MOL0     H74922  10.570   7.030   5.846  1.9903 -1.4676  0.5462
  555MOL0     H74923  10.738   6.770   5.927 -1.7460 -2.2113  1.0699
  555MOL0     H74924  10.679   6.689   5.793  1.1904 -1.0798  4.3898
  555MOL0     H74925  10.713   6.868   5.776  1.0275  2.1272  2.5082
  556MOL0     O74926   5.688   0.924  10.882  0.3886  0.8884  0.0502
  556MOL0     C74927   5.627   0.816  10.866 -0.3577 -0.2255 -0.0000
  556MOL0     O74928   5.492   0.791  10.865 -0.1270  0.1669 -0.2063
  556MOL0     C74929   5.415   0.888  10.923 -0.3549  0.0515 -0.0230
  556MOL0     C74930   5.377   0.998  10.847  0.5464 -0.0498  0.5499
  556MOL0     C74931   5.316   1.107  10.910  0.7566 -0.2381 -0.2053
  556MOL0     C74932   5.287   1.109  11.051  0.1116 -0.0157 -0.3383
  556MOL0     O74933   5.227   1.220  11.106  0.1595  0.8195 -0.6108
  556MOL0     C74934   5.186   1.231  11.243 -0.5868 -0.4668  0.7134
  556MOL0     C74935   5.073   1.337  11.267  0.2775  0.2753 -0.2381
  556MOL0     C74936   5.135   1.481  11.279  0.7970  0.3557 -0.4509
  556MOL0     C74937   5.033   1.587  11.266  0.2740 -0.2444 -0.2961
  556MOL0     C74938   4.918   1.591  11.373  0.1060 -0.5267  0.0441
  556MOL0     C74939   4.815   1.712  11.342  0.1599 -0.8152  0.8215
  556MOL0     C74940   4.690   1.713  11.441  0.2192 -0.1645  1.3708
  556MOL0     C74941   4.610   1.836  11.444 -0.4844  0.3058  0.5792
  556MOL0     N74942   4.497   1.838  11.544 -0.2336  0.4522  0.2708
  556MOL0     C74943   4.477   1.925  11.645  0.4096 -0.2313 -0.3658
  556MOL0     C74944   4.356   1.897  11.693 -1.0464 -0.2044 -0.1082
  556MOL0     C74945   4.279   1.961  11.809 -0.0103 -0.2436  0.0623
  556MOL0     C74946   4.378   2.010  11.912  0.2915 -0.7431  0.0189
  556MOL0     C74947   4.320   2.092  12.031 -0.2405 -0.4305 -0.7208
  556MOL0     C74948   4.416   2.123  12.138  0.2243  0.3252 -1.2316
  556MOL0     O74949   4.362   2.206  12.240  0.3135  0.7137  0.3568
  556MOL0     C74950   4.302   2.167  12.357  0.2730 -0.7378 -0.7794
  556MOL0     C74951   4.319   2.043  12.421  0.2002 -0.5304 -0.7804
  556MOL0     C74952   4.260   2.018  12.549 -0.3019 -0.4907 -0.0223
  556MOL0     C74953   4.179   2.114  12.605  0.8687  1.2013  0.2836
  556MOL0     C74954   4.122   2.072  12.742  0.7339 -1.2724  0.4392
  556MOL0     O74955   4.048   2.175  12.795  0.8215  0.0341  0.1946
  556MOL0     C74956   3.974   2.154  12.906 -0.0155 -0.2692  0.1757
  556MOL0     C74957   3.840   2.112  12.907  0.1239  0.5724 -0.6871
  556MOL0     C74958   3.766   2.112  13.018  1.2502  0.6816 -0.6041
  556MOL0     C74959   3.819   2.152  13.145 -0.6590 -0.5015  1.2208
  556MOL0     O74960   3.742   2.163  13.256 -0.4224  0.2478 -0.7617
  556MOL0     C74961   3.621   2.086  13.258  0.1162 -0.7573 -1.4377
  556MOL0     C74962   3.582   2.068  13.408 -0.6272 -0.2925 -0.2478
  556MOL0     C74963   3.594   2.178  13.523 -0.8902 -0.0402  0.6093
  556MOL0     C74964   3.524   2.136  13.656 -0.0217  0.0898  0.0908
  556MOL0     C74965   3.523   2.244  13.771 -0.1328 -0.2653  1.4467
  556MOL0     C74966   3.663   2.275  13.828 -0.5983 -0.4864 -0.0728
  556MOL0     C74967   3.657   2.389  13.927  0.1890  0.4138  0.9314
  556MOL0     C74968   3.592   2.344  14.065 -0.4311 -0.1482  0.1944
  556MOL0    Cl74969   3.726   2.309  14.176  0.2317 -0.1090 -0.2698
  556MOL0     C74970   3.952   2.203  13.152  0.4546  0.2981  0.1571
  556MOL0     C74971   4.030   2.191  13.036 -0.2432 -0.3182 -0.1052
  556MOL0     O74972   4.163   1.974  12.807  0.7733 -0.6467  1.1251
  556MOL0     C74973   4.148   2.234  12.531  0.2687  0.3511  0.3657
  556MOL0     C74974   4.204   2.257  12.407  0.3869  0.6825  0.0410
  556MOL0     N74975   4.307   1.787  11.628 -0.0062 -0.1071  0.0063
  556MOL0     N74976   4.391   1.762  11.539 -0.1957  0.8165 -0.2781
  556MOL0     C74977   5.328   0.996  11.123  0.0219  0.1925  0.5207
  556MOL0     C74978   5.382   0.875  11.058  0.2202 -0.4042 -0.0310
  556MOL0     C74979   5.726   0.705  10.842 -0.0343 -0.0456 -0.4807
  556MOL0     C74980   5.857   0.700  10.909 -0.3080  0.1743  0.0722
  556MOL0     C74981   5.936   0.583  10.893 -0.4571  0.3503 -0.3900
  556MOL0     C74982   5.887   0.469  10.821 -0.6664  0.1279 -0.0983
  556MOL0     O74983   5.951   0.348  10.837 -0.4046  0.2445 -0.1445
  556MOL0     C74984   5.991   0.292  10.962 -0.1908  0.3200  0.0440
  556MOL0     C74985   6.037   0.141  10.944  0.5221  0.2929  0.1174
  556MOL0     C74986   6.173   0.124  10.887 -0.0283  0.7287 -0.1157
  556MOL0     C74987   6.222  -0.018  10.905 -0.6728 -0.2484  0.5001
  556MOL0     C74988   6.358  -0.008  10.860 -0.7680  0.5330 -0.0778
  556MOL0     C74989   6.479  -0.003  10.840  0.2584 -0.0964 -0.5838
  556MOL0     C74990   5.771   0.473  10.750  0.0293  0.4004 -0.5797
  556MOL0     C74991   5.693   0.598  10.757  1.3501  0.3965  0.4770
  556MOL0     C74992   5.585   0.613  10.650 -0.3132 -0.1767 -0.3510
  556MOL0     H74993   5.421   1.010  10.748  2.3852  1.2598  1.4598
  556MOL0     H74994   5.292   1.193  10.849  0.3606  0.6995  1.1999
  556MOL0     H74995   5.142   1.132  11.256 -1.3648 -0.2792 -0.3624
  556MOL0     H74996   5.268   1.232  11.315 -1.4064 -0.6302  1.6814
  556MOL0     H74997   5.037   1.308  11.367 -0.5564  2.9879  0.3154
  556MOL0     H74998   4.998   1.327  11.189  0.4021  0.9332 -0.4427
  556MOL0     H74999   5.204   1.491  11.194 -1.3280 -1.2003 -2.4859
  556MOL0     H75000   5.185   1.489  11.376 -0.2852  0.5133  0.1055
  556MOL0     H75001   5.103   1.671  11.271  1.3475 -0.8724 -3.2040
  556MOL0     H75002   4.996   1.575  11.164 -2.2704  1.1579  0.3667
  556MOL0     H75003   4.864   1.496  11.363  1.1242 -1.0966 -0.2369
  556MOL0     H75004   4.959   1.595  11.475 -0.1921 -2.6108  0.2969
  556MOL0     H75005   4.863   1.811  11.346  1.5297 -1.4680  1.2436
  556MOL0     H75006   4.785   1.704  11.237  0.1699 -0.4841  0.7924
  556MOL0     H75007   4.733   1.698  11.541  1.5415  0.9339  0.9885
  556MOL0     H75008   4.623   1.631  11.412  0.4511  0.7528 -2.0874
  556MOL0     H75009   4.678   1.921  11.439  1.0478 -0.8647  0.7901
  556MOL0     H75010   4.561   1.838  11.347 -0.0830  0.3690  0.3793
  556MOL0     H75011   4.533   2.011  11.678  0.3229 -0.4118  0.2560
  556MOL0     H75012   4.229   2.053  11.778 -3.0798 -1.3604  1.3545
  556MOL0     H75013   4.204   1.895  11.853  0.2932 -0.4578  0.2650
  556MOL0     H75014   4.431   1.924  11.955  0.4308 -1.1695 -0.9890
  556MOL0     H75015   4.448   2.082  11.869 -0.8816 -0.8458 -2.1698
  556MOL0     H75016   4.232   2.035  12.064 -1.5735  2.0355  0.2674
  556MOL0     H75017   4.279   2.191  12.006 -0.4099 -1.2559 -4.2250
  556MOL0     H75018   4.498   2.175  12.088  0.0812 -0.6243 -2.5238
  556MOL0     H75019   4.462   2.032  12.177 -1.3850  0.2974  0.7789
  556MOL0     H75020   4.383   1.967  12.377 -1.1502 -1.2626 -1.5612
  556MOL0     H75021   4.298   1.935  12.608  1.7936 -0.4824 -1.2686
  556MOL0     H75022   3.814   2.078  12.807  0.1084  1.3154 -0.9440
  556MOL0     H75023   3.667   2.068  13.006  1.1590  1.1918 -1.8884
  556MOL0     H75024   3.537   2.145  13.219  0.0726 -0.0862 -0.3812
  556MOL0     H75025   3.632   1.995  13.199  3.2189 -1.1079 -0.4629
  556MOL0     H75026   3.475   2.047  13.419 -1.0506  1.5218 -0.5916
  556MOL0     H75027   3.636   1.978  13.438 -0.4021  0.4059  1.6144
  556MOL0     H75028   3.700   2.194  13.545 -0.3497 -1.7155 -0.5873
  556MOL0     H75029   3.555   2.274  13.489 -0.8154  0.0747  0.8421
  556MOL0     H75030   3.562   2.044  13.701 -1.1861 -2.0710 -3.0084
  556MOL0     H75031   3.421   2.116  13.625 -0.3541  0.5908  0.8348
  556MOL0     H75032   3.459   2.199  13.847 -0.4897 -0.9464  0.7533
  556MOL0     H75033   3.470   2.326  13.721 -1.2098 -3.0394 -2.4067
  556MOL0     H75034   3.705   2.186  13.876 -0.5669  1.2980  3.5106
  556MOL0     H75035   3.727   2.308  13.746  0.0987 -0.7473  0.3576
  556MOL0     H75036   3.603   2.464  13.869  1.5332 -0.9456 -2.3329
  556MOL0     H75037   3.755   2.435  13.937  0.6274  1.0620 -4.0107
  556MOL0     H75038   3.541   2.431  14.107  1.0476 -0.1075  2.0728
  556MOL0     H75039   3.517   2.265  14.062 -0.6223  0.0573 -2.4074
  556MOL0     H75040   3.985   2.251  13.244 -2.1801  0.9890  0.8454
  556MOL0     H75041   4.136   2.215  13.043  0.2414 -1.7569 -1.7822
  556MOL0     H75042   4.083   2.306  12.579 -3.0347 -1.1885 -1.4721
  556MOL0     H75043   4.183   2.352  12.359 -2.0444 -0.0399 -0.4674
  556MOL0     H75044   5.294   0.994  11.226 -2.1797  1.8553 -0.0815
  556MOL0     H75045   5.413   0.788  11.114 -0.1550 -0.5481 -0.0468
  556MOL0     H75046   5.902   0.779  10.969 -2.9854  1.0141  1.1815
  556MOL0     H75047   6.031   0.573  10.944 -1.8664 -0.4177  2.2525
  556MOL0     H75048   5.923   0.331  11.038 -0.6681  0.5725 -0.5085
  556MOL0     H75049   6.084   0.344  10.985  0.7022 -0.7036 -1.1666
  556MOL0     H75050   5.967   0.092  10.875  0.1070  2.3233 -1.0040
  556MOL0     H75051   6.041   0.077  11.033  0.1623 -2.5954 -1.7913
  556MOL0     H75052   6.235   0.202  10.932  0.1077 -0.7850  2.4854
  556MOL0     H75053   6.170   0.147  10.780  2.0692 -1.2623 -0.6807
  556MOL0     H75054   6.212  -0.056  11.007 -0.1444  0.1051  0.6894
  556MOL0     H75055   6.159  -0.079  10.840 -3.2327 -0.0733  2.6696
  556MOL0     H75056   6.585   0.007  10.832  0.3859 -2.1224 -2.0094
  556MOL0     H75057   5.735   0.389  10.692 -1.2933  0.3183  0.3290
  556MOL0     H75058   5.601   0.553  10.560  3.7293  1.4756 -0.9703
  556MOL0     H75059   5.499   0.558  10.689 -0.1948 -2.8271 -3.3697
  556MOL0     H75060   5.566   0.718  10.626  3.2713 -0.0162 -3.3938
  557MOL0     O75061   5.364   0.724   7.676 -0.5410 -0.1571 -0.6746
  557MOL0     C75062   5.251   0.771   7.671 -0.3848 -0.1477 -0.3376
  557MOL0     O75063   5.196   0.840   7.774  0.4555  0.4843  0.4439
  557MOL0     C75064   5.253   0.884   7.893 -0.1040 -0.3683  0.5837
  557MOL0     C75065   5.360   0.825   7.961  0.0260  0.4933 -0.2662
  557MOL0     C75066   5.405   0.866   8.087  0.5021 -0.4479  0.8375
  557MOL0     C75067   5.341   0.975   8.146  1.4231 -0.6170  0.0729
  557MOL0     O75068   5.398   1.011   8.267  0.3092 -0.2560 -0.7060
  557MOL0     C75069   5.347   0.935   8.379 -0.0988  0.7141  0.0896
  557MOL0     C75070   5.428   0.964   8.518  0.3234  0.9005  0.5972
  557MOL0     C75071   5.557   0.886   8.544  0.3855 -0.4738  0.0008
  557MOL0     C75072   5.539   0.731   8.525  1.0295  0.4798 -0.3354
  557MOL0     C75073   5.663   0.664   8.571 -0.2364 -0.3155 -0.8783
  557MOL0     C75074   5.643   0.512   8.604 -1.2154 -0.1895 -0.0558
  557MOL0     C75075   5.594   0.420   8.490 -0.7112 -0.6457 -0.4260
  557MOL0     C75076   5.535   0.288   8.539  0.0180  0.3331  0.0674
  557MOL0     N75077   5.648   0.189   8.577  0.0376  0.2671  0.1693
  557MOL0     C75078   5.715   0.178   8.700 -1.0068  0.4662 -0.0075
  557MOL0     C75079   5.825   0.099   8.681 -0.2189 -0.8850 -0.0045
  557MOL0     C75080   5.923   0.053   8.786  0.4029  0.5313 -0.4265
  557MOL0     C75081   6.018   0.164   8.831 -0.5146 -0.6301 -0.1884
  557MOL0     C75082   6.113   0.129   8.936 -0.6835  0.1542 -0.0837
  557MOL0     C75083   6.209   0.243   8.968  0.0032  0.3495 -0.4191
  557MOL0     O75084   6.307   0.180   9.054 -0.1029  0.2630  0.6972
  557MOL0     C75085   6.429   0.238   9.062 -0.8419  0.6464  0.3816
  557MOL0     C75086   6.452   0.370   9.042  0.8497  0.5344  0.5919
  557MOL0     C75087   6.573   0.422   9.033  0.1756  0.6842  0.0848
  557MOL0     C75088   6.691   0.349   9.073 -0.3507 -0.2797 -0.1757
  557MOL0     C75089   6.823   0.408   9.083 -0.3014  0.6329  0.0306
  557MOL0     O75090   6.869   0.473   8.972 -0.2342 -0.3142  0.1779
  557MOL0     C75091   6.983   0.547   8.961  0.7960 -0.4656 -0.3533
  557MOL0     C75092   7.030   0.616   9.078 -0.4292 -0.6896  0.2814
  557MOL0     C75093   7.159   0.678   9.071  0.2343 -0.2318 -1.0254
  557MOL0     C75094   7.244   0.669   8.963  0.1083  0.8623  0.0915
  557MOL0     O75095   7.365   0.741   8.969 -0.0819  0.0496  0.3981
  557MOL0     C75096   7.483   0.684   8.917 -0.1182 -0.6926  0.2650
  557MOL0     C75097   7.570   0.783   8.845 -0.2830 -1.1979  0.5287
  557MOL0     C75098   7.501   0.859   8.736  0.5705 -0.1629 -0.6021
  557MOL0     C75099   7.592   0.949   8.652 -0.2709 -0.8560  0.3887
  557MOL0     C75100   7.537   1.022   8.529 -0.3413 -0.2809  0.4837
  557MOL0     C75101   7.663   1.082   8.449  0.6351  0.4958 -0.5076
  557MOL0     C75102   7.736   1.201   8.524 -0.7718 -0.8582  0.1861
  557MOL0     C75103   7.809   1.311   8.437  0.3596  0.4989  0.4859
  557MOL0    Cl75104   7.685   1.386   8.331 -0.3276  0.1902  0.2783
  557MOL0     C75105   7.195   0.610   8.849  0.9308  0.0150  1.0476
  557MOL0     C75106   7.073   0.535   8.854 -0.0197  0.1071  0.1541
  557MOL0     O75107   6.888   0.399   9.192  0.0462  0.4991 -0.0623
  557MOL0     C75108   6.674   0.219   9.125  0.0824  1.0726  1.7306
  557MOL0     C75109   6.543   0.160   9.109  0.4102 -0.0244  0.0862
  557MOL0     N75110   5.822   0.055   8.550 -0.1252 -0.6162 -0.1171
  557MOL0     N75111   5.712   0.105   8.486  0.1777  0.3113 -1.4375
  557MOL0     C75112   5.224   1.034   8.093  0.4450 -0.0459 -1.0129
  557MOL0     C75113   5.187   0.994   7.966 -0.7573  0.7973  0.0912
  557MOL0     C75114   5.170   0.749   7.551  0.8849 -0.7253  0.1758
  557MOL0     C75115   5.032   0.770   7.565  0.1702 -0.0274 -0.0692
  557MOL0     C75116   4.939   0.739   7.457 -1.5520  1.0506  0.8017
  557MOL0     C75117   4.981   0.679   7.337  0.0348 -0.2561 -0.4840
  557MOL0     O75118   4.900   0.634   7.237 -0.4612  0.7337 -0.3928
  557MOL0     C75119   4.763   0.670   7.233 -0.8574 -0.4482  0.2412
  557MOL0     C75120   4.707   0.644   7.089  0.3511 -0.6780 -0.4400
  557MOL0     C75121   4.684   0.497   7.060  0.9774 -0.7510  0.6248
  557MOL0     C75122   4.629   0.485   6.914 -0.2473  0.1937 -0.4864
  557MOL0     C75123   4.605   0.348   6.880 -0.2447  0.1987  1.0812
  557MOL0     C75124   4.592   0.229   6.852 -0.8538 -0.5659  0.5418
  557MOL0     C75125   5.124   0.663   7.326  0.9601  1.0544 -0.1619
  557MOL0     C75126   5.217   0.696   7.424 -0.7745 -0.3080  0.3111
  557MOL0     C75127   5.361   0.676   7.392 -0.0987 -0.0696 -0.6148
  557MOL0     H75128   5.422   0.750   7.913 -0.5423  0.9154 -1.6984
  557MOL0     H75129   5.494   0.817   8.124  0.1319 -2.2012 -0.4706
  557MOL0     H75130   5.240   0.955   8.394 -0.5168  0.4590 -2.1729
  557MOL0     H75131   5.364   0.831   8.351  2.4160  1.6618 -2.3878
  557MOL0     H75132   5.357   0.965   8.601 -2.2803  4.5759 -1.3780
  557MOL0     H75133   5.447   1.071   8.505 -0.1052  0.8353 -0.7415
  557MOL0     H75134   5.589   0.907   8.646  3.1742 -4.5179  0.1985
  557MOL0     H75135   5.640   0.922   8.483  1.1323 -0.1690  1.1746
  557MOL0     H75136   5.454   0.680   8.573  1.6350 -5.0943 -4.2080
  557MOL0     H75137   5.520   0.710   8.420 -0.1640 -0.8254  0.0918
  557MOL0     H75138   5.746   0.671   8.500  2.2415 -1.5230  1.7265
  557MOL0     H75139   5.709   0.698   8.664 -0.0075 -2.4056 -0.1968
  557MOL0     H75140   5.740   0.478   8.642 -0.0333  0.1364 -2.5549
  557MOL0     H75141   5.573   0.519   8.687  2.0454  6.2762  2.8166
  557MOL0     H75142   5.676   0.408   8.418  0.3405  1.1745  0.3804
  557MOL0     H75143   5.510   0.472   8.443 -0.2735 -0.0330 -0.5438
  557MOL0     H75144   5.460   0.287   8.618  0.1929 -4.2322  0.4702
  557MOL0     H75145   5.479   0.242   8.458  0.9353 -4.5747  1.8851
  557MOL0     H75146   5.693   0.235   8.790 -2.3154 -0.5148  0.3185
  557MOL0     H75147   5.869   0.013   8.873 -0.9128  1.3489 -0.8561
  557MOL0     H75148   5.982  -0.024   8.735 -1.1765  1.2023 -3.4799
  557MOL0     H75149   6.091   0.197   8.757  1.7528 -1.7031  1.4637
  557MOL0     H75150   5.962   0.254   8.856 -0.3602 -0.7901  0.7512
  557MOL0     H75151   6.180   0.050   8.904 -0.4180  0.2178  0.3121
  557MOL0     H75152   6.057   0.101   9.025 -0.4436  1.1274  0.3878
  557MOL0     H75153   6.166   0.339   8.998  2.4741  2.1871 -2.3168
  557MOL0     H75154   6.258   0.258   8.872  1.2704  4.0804  0.6180
  557MOL0     H75155   6.363   0.427   9.015  0.3770  0.0060  1.0359
  557MOL0     H75156   6.584   0.527   9.007 -3.0092  1.3172  0.8339
  557MOL0     H75157   6.960   0.631   9.160 -2.3413 -1.4815 -1.1237
  557MOL0     H75158   7.190   0.730   9.162 -0.5377  3.1698 -2.5353
  557MOL0     H75159   7.521   0.630   9.004  0.8933 -2.5435 -1.2480
  557MOL0     H75160   7.464   0.596   8.855 -0.3561  0.0807 -0.7995
  557MOL0     H75161   7.576   0.866   8.916  0.5774 -2.0358  1.4585
  557MOL0     H75162   7.666   0.745   8.809 -0.4764  2.0210 -4.3264
  557MOL0     H75163   7.458   0.789   8.664  1.4008 -2.3950  0.9391
  557MOL0     H75164   7.420   0.922   8.776 -1.1510 -1.6284 -1.5958
  557MOL0     H75165   7.669   0.882   8.612 -1.4416 -2.2078  0.3363
  557MOL0     H75166   7.632   1.024   8.722 -0.4925 -1.6833  1.4362
  557MOL0     H75167   7.465   1.096   8.564  0.6731 -0.1738  2.4742
  557MOL0     H75168   7.475   0.951   8.473 -1.1036  0.5150  0.3022
  557MOL0     H75169   7.738   1.003   8.443 -0.2235 -0.2963 -1.0177
  557MOL0     H75170   7.632   1.118   8.351  2.0596 -1.7184 -1.8427
  557MOL0     H75171   7.813   1.161   8.591  2.6566 -1.3520 -3.6876
  557MOL0     H75172   7.648   1.233   8.580 -1.7450 -0.2899 -1.6003
  557MOL0     H75173   7.847   1.390   8.503 -1.1516  1.6163  0.0741
  557MOL0     H75174   7.886   1.264   8.375  2.6530 -0.2351  3.6304
  557MOL0     H75175   7.246   0.622   8.754 -0.1126  2.0757  0.6692
  557MOL0     H75176   7.051   0.471   8.770  2.9045  0.2533 -0.8333
  557MOL0     H75177   6.769   0.180   9.161  0.2746  1.3017  1.4715
  557MOL0     H75178   6.518   0.056   9.128 -0.2949 -0.2357 -1.7685
  557MOL0     H75179   5.165   1.096   8.159  1.2753 -2.6894  2.5202
  557MOL0     H75180   5.095   1.033   7.925 -0.4360 -0.5279 -2.0399
  557MOL0     H75181   4.998   0.809   7.660 -0.9502  1.9584 -1.2074
  557MOL0     H75182   4.837   0.766   7.481 -2.6034 -1.3957 -0.6478
  557MOL0     H75183   4.744   0.773   7.262 -0.5629 -0.5250  0.7163
  557MOL0     H75184   4.711   0.602   7.300  0.2698  0.8455  2.5422
  557MOL0     H75185   4.775   0.677   7.010  1.4092 -0.3498  0.5867
  557MOL0     H75186   4.616   0.703   7.073  1.1262  0.1388 -2.0805
  557MOL0     H75187   4.613   0.451   7.129 -1.5760 -1.8071 -2.4702
  557MOL0     H75188   4.777   0.439   7.070  2.3462  1.2594  0.0777
  557MOL0     H75189   4.535   0.539   6.901  0.0063  1.1116  1.1723
  557MOL0     H75190   4.699   0.528   6.842 -1.2877 -0.2637 -1.8172
  557MOL0     H75191   4.569   0.125   6.835 -1.4392 -0.1161 -1.7139
  557MOL0     H75192   5.160   0.626   7.231 -0.2392  0.0214 -0.2480
  557MOL0     H75193   5.393   0.589   7.451 -1.9785  0.3985  1.1926
  557MOL0     H75194   5.382   0.663   7.285  1.7252 -1.0384 -0.1884
  557MOL0     H75195   5.422   0.762   7.421  2.1093 -2.0149  0.9228
  558MOL0     O75196   2.757   8.192  10.503 -0.1024 -0.2519  0.5109
  558MOL0     C75197   2.816   8.115  10.574 -0.2047  0.9714  0.6986
  558MOL0     O75198   2.901   8.022  10.527 -0.5435  0.0667 -0.7575
  558MOL0     C75199   2.943   8.028  10.396 -0.5372  0.5338  0.4760
  558MOL0     C75200   2.935   7.910  10.330 -0.6494 -0.1272  0.2928
  558MOL0     C75201   2.987   7.889  10.199 -0.2117  0.2324  0.4139
  558MOL0     C75202   3.033   7.997  10.127  0.1079 -0.2459  0.7024
  558MOL0     O75203   3.062   7.985   9.998  0.5967  1.0865  0.3493
  558MOL0     C75204   3.027   8.093   9.905  0.6783 -0.0949 -0.0482
  558MOL0     C75205   3.094   8.069   9.771  0.1849 -0.1355 -0.3533
  558MOL0     C75206   3.120   8.192   9.687  0.2563 -0.9034 -0.1774
  558MOL0     C75207   3.013   8.222   9.584  0.5355  0.8475  0.0943
  558MOL0     C75208   3.036   8.359   9.534 -0.3294 -0.6484  0.0155
  558MOL0     C75209   2.970   8.384   9.392  0.2748  0.1333 -0.1306
  558MOL0     C75210   2.842   8.467   9.382 -0.1642 -0.3655 -0.3194
  558MOL0     C75211   2.785   8.460   9.243 -0.2403  0.0431 -0.2273
  558MOL0     N75212   2.662   8.550   9.229 -0.6315  0.5732 -0.2765
  558MOL0     C75213   2.545   8.547   9.285  1.2273  0.0044 -0.0575
  558MOL0     C75214   2.486   8.668   9.263 -0.4591 -0.3083  0.9142
  558MOL0     C75215   2.352   8.709   9.311  0.1847  0.7811  0.8880
  558MOL0     C75216   2.322   8.677   9.459 -0.0004  0.2416 -0.5265
  558MOL0     C75217   2.193   8.726   9.513 -0.1494 -0.1290  0.2405
  558MOL0     C75218   2.085   8.774   9.408 -1.1934 -0.2680  0.1113
  558MOL0     O75219   1.972   8.816   9.489 -0.5973  0.9737  0.9540
  558MOL0     C75220   1.854   8.749   9.465  0.3793 -0.1830  0.9266
  558MOL0     C75221   1.754   8.819   9.398 -0.5475 -0.0817  0.7685
  558MOL0     C75222   1.630   8.757   9.379 -0.1430 -0.4772  0.4116
  558MOL0     C75223   1.601   8.634   9.438  0.8678 -0.9438  0.0033
  558MOL0     C75224   1.462   8.588   9.413  0.5781  0.0847 -0.1733
  558MOL0     O75225   1.381   8.659   9.320 -0.2341  0.6351  0.1256
  558MOL0     C75226   1.246   8.628   9.322 -0.8267 -0.0318  0.4740
  558MOL0     C75227   1.167   8.725   9.376 -0.0042 -0.5313 -0.3187
  558MOL0     C75228   1.029   8.722   9.363 -0.1277 -0.1897 -0.7133
  558MOL0     C75229   0.960   8.610   9.319 -0.0389  1.3944 -0.1529
  558MOL0     O75230   0.824   8.605   9.337 -0.1675  0.2045 -0.5499
  558MOL0     C75231   0.754   8.499   9.270 -0.1025 -0.6030  0.5060
  558MOL0     C75232   0.743   8.495   9.115 -0.3615  0.3563 -0.4281
  558MOL0     C75233   0.747   8.348   9.060  0.3172  0.9387 -0.7502
  558MOL0     C75234   0.819   8.354   8.923  0.4805  1.1765 -0.9767
  558MOL0     C75235   0.916   8.230   8.904  0.7523 -0.3803  0.8332
  558MOL0     C75236   1.033   8.266   8.814 -0.7068  0.8804  0.1731
  558MOL0     C75237   1.137   8.346   8.884  0.2170  0.0289 -0.5469
  558MOL0     C75238   1.276   8.338   8.817 -0.9645  0.0881 -0.4652
  558MOL0    Cl75239   1.271   8.427   8.662 -0.0306  0.3734  0.0154
  558MOL0     C75240   1.050   8.503   9.266  0.6657  0.3782 -0.9391
  558MOL0     C75241   1.188   8.515   9.261 -0.0415 -0.8009  0.5478
  558MOL0     O75242   1.414   8.506   9.493 -0.6097  0.1864 -0.3751
  558MOL0     C75243   1.703   8.565   9.495  0.1213 -0.5127  0.3548
  558MOL0     C75244   1.829   8.618   9.508 -0.9549  0.0386 -0.4260
  558MOL0     N75245   2.573   8.741   9.184 -0.0086 -0.3516 -0.6817
  558MOL0     N75246   2.678   8.673   9.167  0.1252  0.7580 -0.4302
  558MOL0     C75247   3.049   8.124  10.200 -0.5248 -0.2927  0.2540
  558MOL0     C75248   2.994   8.138  10.331 -0.4218 -0.1012  0.1425
  558MOL0     C75249   2.801   8.130  10.720  0.1072 -0.0530  0.4840
  558MOL0     C75250   2.693   8.204  10.767 -0.8459 -0.2650 -1.1380
  558MOL0     C75251   2.661   8.208  10.904  0.2691  0.8060 -0.2186
  558MOL0     C75252   2.752   8.137  10.998  1.1098  0.2771  1.0702
  558MOL0     O75253   2.731   8.130  11.131 -0.1412  0.4331  0.0190
  558MOL0     C75254   2.599   8.164  11.183 -0.3478 -0.1865  0.9173
  558MOL0     C75255   2.616   8.150  11.339 -0.5893  0.3329  0.1247
  558MOL0     C75256   2.479   8.148  11.409  0.6733 -0.8926  1.1449
  558MOL0     C75257   2.470   8.066  11.541  0.1849 -0.4436  0.2353
  558MOL0     C75258   2.547   8.131  11.651  0.1530 -0.2473  0.5607
  558MOL0     C75259   2.617   8.182  11.732  0.1826 -0.1835 -0.1376
  558MOL0     C75260   2.868   8.073  10.945 -0.4792 -1.0404  0.1581
  558MOL0     C75261   2.898   8.077  10.808 -0.1082 -0.6281  0.0857
  558MOL0     C75262   3.024   7.998  10.772 -0.0786 -0.6582  0.4466
  558MOL0     H75263   2.891   7.823  10.377  0.6198 -0.7984  0.2642
  558MOL0     H75264   2.987   7.793  10.149 -0.3408 -0.6106  2.0040
  558MOL0     H75265   2.918   8.104   9.904  0.5952 -0.6592  1.2632
  558MOL0     H75266   3.056   8.193   9.940  1.8413 -0.8223  1.1272
  558MOL0     H75267   3.031   7.998   9.717 -0.5671 -0.8772  1.3969
  558MOL0     H75268   3.189   8.019   9.791 -0.1432 -0.0240  1.7722
  558MOL0     H75269   3.220   8.189   9.644  1.7252  3.9795  2.1902
  558MOL0     H75270   3.127   8.271   9.762  0.2194 -2.6475  1.7603
  558MOL0     H75271   3.016   8.141   9.509  2.7158 -0.4826  1.5045
  558MOL0     H75272   2.915   8.221   9.631 -0.5894 -0.1329 -2.0792
  558MOL0     H75273   2.996   8.428   9.609 -0.8339 -1.0562  0.1307
  558MOL0     H75274   3.142   8.385   9.528  0.0044 -1.4153  1.9762
  558MOL0     H75275   3.040   8.439   9.328  2.4176  1.8598  3.3674
  558MOL0     H75276   2.940   8.288   9.347 -1.0845  0.9433 -1.0315
  558MOL0     H75277   2.877   8.570   9.393 -0.2253 -0.4196  0.4128
  558MOL0     H75278   2.760   8.453   9.453 -0.1348 -0.4900 -0.3094
  558MOL0     H75279   2.860   8.480   9.165 -0.9554  0.2273 -0.8820
  558MOL0     H75280   2.754   8.356   9.230  0.1094  0.0897 -1.6352
  558MOL0     H75281   2.495   8.465   9.337 -0.1282  1.6245  1.3442
  558MOL0     H75282   2.340   8.816   9.290  0.3640  0.4913 -0.7900
  558MOL0     H75283   2.282   8.666   9.239  1.2905  2.4012 -1.2623
  558MOL0     H75284   2.322   8.568   9.466  2.0091  0.0673 -2.3003
  558MOL0     H75285   2.401   8.705   9.529 -0.3491 -2.2294  0.9640
  558MOL0     H75286   2.215   8.815   9.574  0.1714  1.0017 -1.4493
  558MOL0     H75287   2.147   8.650   9.577  2.6754 -1.6044  0.6730
  558MOL0     H75288   2.061   8.694   9.337  0.5559  0.8500 -1.8746
  558MOL0     H75289   2.122   8.858   9.347 -1.2526 -1.0191 -0.9895
  558MOL0     H75290   1.779   8.921   9.369 -0.5721 -0.3803 -0.3321
  558MOL0     H75291   1.552   8.810   9.324 -0.7824  0.9950  2.5966
  558MOL0     H75292   1.215   8.815   9.414  2.2912 -2.1286  0.8384
  558MOL0     H75293   0.961   8.799   9.399  1.0593 -0.3524  2.1492
  558MOL0     H75294   0.798   8.411   9.319  1.8190  0.8795  1.6231
  558MOL0     H75295   0.652   8.500   9.308 -0.4317  1.7701 -0.2316
  558MOL0     H75296   0.650   8.536   9.076 -0.0403 -0.3370 -1.9811
  558MOL0     H75297   0.814   8.561   9.064 -0.1818 -0.0193 -0.6670
  558MOL0     H75298   0.797   8.287   9.135 -0.6776  1.9461  0.7907
  558MOL0     H75299   0.644   8.311   9.061 -0.0000  1.5972  2.6695
  558MOL0     H75300   0.888   8.439   8.935 -1.2999  2.6590 -0.7187
  558MOL0     H75301   0.752   8.365   8.838 -2.6513  0.9133  1.2787
  558MOL0     H75302   0.861   8.149   8.856 -2.6803  3.3039 -2.1590
  558MOL0     H75303   0.949   8.182   8.997  0.2909 -3.3719 -0.4428
  558MOL0     H75304   1.082   8.171   8.791 -0.4706 -0.7830  5.8709
  558MOL0     H75305   1.017   8.309   8.715  4.3123 -3.1868 -2.9592
  558MOL0     H75306   1.142   8.308   8.986  2.0063  0.8300 -0.2980
  558MOL0     H75307   1.110   8.450   8.901  0.8048  0.0305  0.4495
  558MOL0     H75308   1.352   8.376   8.885 -2.0490 -0.9261  1.3858
  558MOL0     H75309   1.299   8.235   8.787 -2.8103 -0.7883  0.8793
  558MOL0     H75310   1.018   8.402   9.242  0.7021  0.3469 -0.8544
  558MOL0     H75311   1.253   8.437   9.223  1.4574  1.4736 -1.8399
  558MOL0     H75312   1.673   8.465   9.522 -0.0048 -0.6283 -0.2021
  558MOL0     H75313   1.907   8.562   9.558 -3.8400 -4.6463 -0.6221
  558MOL0     H75314   3.059   8.209  10.133  2.4011 -1.6041 -1.2058
  558MOL0     H75315   3.001   8.238  10.373 -0.7607  0.8001 -1.8170
  558MOL0     H75316   2.622   8.256  10.704 -1.0554 -0.2952 -0.9279
  558MOL0     H75317   2.570   8.261  10.927 -0.2068  0.1827 -0.6211
  558MOL0     H75318   2.529   8.090  11.144  2.7104 -3.0681  0.4370
  558MOL0     H75319   2.572   8.267  11.163 -2.2747 -1.0483 -1.3129
  558MOL0     H75320   2.684   8.228  11.374 -0.4347 -1.0060  3.0855
  558MOL0     H75321   2.669   8.060  11.370  2.8488  1.5288 -1.8076
  558MOL0     H75322   2.400   8.107  11.344 -1.7301  2.1415  1.9128
  558MOL0     H75323   2.440   8.249  11.424 -1.0494 -1.1920 -0.7523
  558MOL0     H75324   2.368   8.055  11.579  0.7091 -3.1840  1.0851
  558MOL0     H75325   2.486   7.959  11.528  0.3911 -0.1910 -2.1148
  558MOL0     H75326   2.684   8.219  11.808 -1.6414 -0.3290  1.6342
  558MOL0     H75327   2.927   8.016  11.016  0.1228 -1.1381 -0.4122
  558MOL0     H75328   3.070   8.040  10.682 -2.3146  0.5629 -0.2070
  558MOL0     H75329   3.098   8.006  10.853 -1.3940 -1.9880  1.8386
  558MOL0     H75330   3.001   7.892  10.757 -1.5164 -0.2126 -0.6670
  559MOL0     O75331   8.026  11.407   7.012 -0.1663 -0.2637  0.0586
  559MOL0     C75332   7.943  11.325   6.971 -0.3543  0.1117 -0.6275
  559MOL0     O75333   7.968  11.198   6.952 -0.4701  0.1623  0.1627
  559MOL0     C75334   8.067  11.143   7.027  1.0447 -0.6825  0.3683
  559MOL0     C75335   8.206  11.171   6.992 -0.3203  0.0961  0.2141
  559MOL0     C75336   8.302  11.117   7.073  0.9089  0.4043  0.7437
  559MOL0     C75337   8.268  11.034   7.184 -0.3186 -0.6798 -0.9837
  559MOL0     O75338   8.349  10.988   7.275 -0.2892 -0.0088 -0.0584
  559MOL0     C75339   8.492  11.008   7.261  0.5546  0.3057 -0.4549
  559MOL0     C75340   8.571  10.956   7.383 -0.4118  0.1361  0.3593
  559MOL0     C75341   8.715  10.978   7.366 -1.0355 -0.1004  0.2627
  559MOL0     C75342   8.802  10.944   7.485  0.7721 -0.5343 -0.3451
  559MOL0     C75343   8.948  10.937   7.443 -0.7714  0.5200  0.0356
  559MOL0     C75344   9.044  10.898   7.558 -0.1801 -0.7153 -0.6143
  559MOL0     C75345   9.188  10.913   7.515  0.0361 -0.4532  0.1461
  559MOL0     C75346   9.276  10.861   7.628 -0.8637 -0.3828  1.0096
  559MOL0     N75347   9.415  10.867   7.591  0.6741 -0.3496  0.7005
  559MOL0     C75348   9.487  10.978   7.578  0.3417  0.4195 -0.3925
  559MOL0     C75349   9.614  10.944   7.577  0.8518  0.9328 -0.2615
  559MOL0     C75350   9.735  11.038   7.553 -0.0549  0.8429 -0.2715
  559MOL0     C75351   9.755  11.119   7.688 -0.1337  0.1537 -0.4199
  559MOL0     C75352   9.905  11.164   7.689 -0.2632  0.1994  0.0446
  559MOL0     C75353   9.933  11.250   7.814 -0.2921  0.0079  0.6148
  559MOL0     O75354   9.941  11.178   7.937 -0.3394 -0.3387 -0.4230
  559MOL0     C75355   9.983  11.245   8.050 -0.2811  0.2027  0.2659
  559MOL0     C75356  10.014  11.384   8.055 -0.1093  0.4248  0.7575
  559MOL0     C75357  10.057  11.446   8.173 -0.0992  0.7365  0.7523
  559MOL0     C75358  10.096  11.363   8.281 -0.1528 -0.1082  0.1300
  559MOL0     C75359  10.183  11.422   8.391 -0.5898  0.0550  0.8748
  559MOL0     O75360  10.212  11.554   8.373 -0.0148  0.1024  0.1521
  559MOL0     C75361  10.282  11.624   8.470 -0.4260 -1.0580 -0.8855
  559MOL0     C75362  10.422  11.620   8.484  0.0597  0.5643 -0.0509
  559MOL0     C75363  10.495  11.696   8.575  1.3849 -0.2684  0.2700
  559MOL0     C75364  10.426  11.789   8.659  0.1680  0.1000 -0.7566
  559MOL0     O75365  10.490  11.887   8.736 -0.0925 -0.0955  0.0028
  559MOL0     C75366  10.633  11.905   8.721  0.5685 -0.7755 -0.0906
  559MOL0     C75367  10.690  11.976   8.847 -0.0528 -0.7347  0.3848
  559MOL0     C75368  10.692  11.880   8.963 -0.4225 -0.3567 -1.6715
  559MOL0     C75369  10.719  11.950   9.095  0.0465  0.4875 -0.2265
  559MOL0     C75370  10.703  11.871   9.223  0.2094 -0.3187 -0.2536
  559MOL0     C75371  10.767  11.943   9.340  0.0484 -0.6917 -0.0578
  559MOL0     C75372  10.747  11.873   9.474  0.6257  0.6150  0.1181
  559MOL0     C75373  10.829  11.927   9.601 -0.7703  0.6048 -0.4225
  559MOL0    Cl75374  11.005  11.892   9.572  0.0865  0.1671 -0.0650
  559MOL0     C75375  10.280  11.789   8.656 -0.5293 -0.3347  1.2454
  559MOL0     C75376  10.217  11.712   8.560 -0.8318  1.4799 -0.3909
  559MOL0     O75377  10.227  11.353   8.483  0.0706  0.7209 -0.5272
  559MOL0     C75378  10.070  11.228   8.267 -0.3893 -0.3749 -0.1236
  559MOL0     C75379  10.019  11.170   8.161 -0.4204 -0.2014  0.3586
  559MOL0     N75380   9.618  10.812   7.583 -0.5603 -0.0954  0.7305
  559MOL0     N75381   9.501  10.760   7.589 -1.0151 -0.5595 -0.3816
  559MOL0     C75382   8.132  11.023   7.228  0.5311 -0.9621  0.3053
  559MOL0     C75383   8.035  11.080   7.147  0.2699 -0.0981 -0.6954
  559MOL0     C75384   7.806  11.373   6.927  0.1047  0.2838 -0.6032
  559MOL0     C75385   7.731  11.293   6.828  0.5741 -0.5431  0.3240
  559MOL0     C75386   7.602  11.328   6.798 -0.4262 -0.8862  0.2852
  559MOL0     C75387   7.546  11.442   6.851 -0.4163 -0.6563  0.1429
  559MOL0     O75388   7.425  11.477   6.798 -0.2382 -0.1734 -0.6024
  559MOL0     C75389   7.407  11.613   6.756 -0.2571 -0.9186 -0.3243
  559MOL0     C75390   7.327  11.696   6.861 -0.3782 -0.0746 -0.5608
  559MOL0     C75391   7.343  11.843   6.820  0.1097  0.7352  0.1408
  559MOL0     C75392   7.239  11.941   6.872  1.4796  0.1220  0.3807
  559MOL0     C75393   7.106  11.923   6.815  0.7649 -0.6400  0.0951
  559MOL0     C75394   6.994  11.895   6.770  0.3864 -0.2147  0.5189
  559MOL0     C75395   7.616  11.522   6.943  0.9096  0.8303  0.3462
  559MOL0     C75396   7.740  11.483   6.987  0.4771  0.1390  0.8179
  559MOL0     C75397   7.797  11.567   7.105  0.5394  0.1545 -0.0478
  559MOL0     H75398   8.240  11.237   6.913  0.1979 -1.6809 -1.1025
  559MOL0     H75399   8.407  11.126   7.045  1.4072 -2.1150  1.5144
  559MOL0     H75400   8.530  10.953   7.175  0.1773  1.3253 -1.3094
  559MOL0     H75401   8.508  11.115   7.239 -1.0795  1.3415  2.8036
  559MOL0     H75402   8.545  10.849   7.383 -2.3332  0.5543 -0.0859
  559MOL0     H75403   8.526  11.001   7.472 -0.7393 -0.0417  0.2879
  559MOL0     H75404   8.731  11.084   7.341 -0.7428 -0.1859  0.0864
  559MOL0     H75405   8.753  10.917   7.284 -3.4246 -0.4823 -0.6169
  559MOL0     H75406   8.783  11.022   7.559 -3.3118  2.5559 -4.1267
  559MOL0     H75407   8.759  10.852   7.526  0.7056 -0.3581 -0.0165
  559MOL0     H75408   8.952  10.861   7.365 -0.3954 -0.9076  1.3979
  559MOL0     H75409   8.968  11.036   7.401  0.6775 -1.0492 -3.3793
  559MOL0     H75410   9.033  10.964   7.645  0.0072  1.1927 -1.9752
  559MOL0     H75411   9.025  10.797   7.595  2.2733 -0.8452  0.4694
  559MOL0     H75412   9.209  11.019   7.498  1.4594 -0.9046 -1.2257
  559MOL0     H75413   9.213  10.862   7.422 -0.0961  2.0444 -1.3433
  559MOL0     H75414   9.263  10.918   7.720 -2.3824 -3.0191  2.5491
  559MOL0     H75415   9.252  10.756   7.644 -2.0851 -0.4430 -0.9077
  559MOL0     H75416   9.460  11.082   7.568 -1.6081  0.2696  2.2854
  559MOL0     H75417   9.829  10.988   7.532 -1.5021 -2.1954  0.0271
  559MOL0     H75418   9.707  11.109   7.475 -0.9989  1.2075  0.3682
  559MOL0     H75419   9.682  11.200   7.702 -0.0614 -0.0283  1.1976
  559MOL0     H75420   9.747  11.041   7.763 -0.7395 -1.4587 -2.0764
  559MOL0     H75421   9.926  11.215   7.595 -0.3248  0.4635  0.1731
  559MOL0     H75422   9.966  11.074   7.698  1.1100  0.9750 -1.1220
  559MOL0     H75423   9.867  11.337   7.808 -1.2269 -0.6053  1.7509
  559MOL0     H75424  10.030  11.289   7.782 -0.9575 -0.6331 -2.5545
  559MOL0     H75425   9.987  11.445   7.969  1.2854  2.6644  1.8350
  559MOL0     H75426  10.078  11.552   8.165 -0.7065  0.8146  0.0599
  559MOL0     H75427  10.489  11.562   8.421  3.2280  0.5562  3.0211
  559MOL0     H75428  10.603  11.689   8.578  1.3300 -0.8465  1.3940
  559MOL0     H75429  10.685  11.809   8.712  1.4008 -0.3301 -0.1417
  559MOL0     H75430  10.657  11.962   8.631  0.6059  0.2800  0.5700
  559MOL0     H75431  10.795  11.997   8.826 -0.2381 -0.2424 -0.0802
  559MOL0     H75432  10.633  12.066   8.869  2.5392 -0.0721  6.0665
  559MOL0     H75433  10.595  11.831   8.964 -0.6818 -0.6847  5.3211
  559MOL0     H75434  10.765  11.799   8.963 -1.5785 -1.5410  1.0105
  559MOL0     H75435  10.645  12.030   9.102 -0.6875 -0.2682  1.0854
  559MOL0     H75436  10.815  12.001   9.105 -0.4494  1.5232 -0.6294
  559MOL0     H75437  10.754  11.777   9.201  1.5647  0.6150 -1.2892
  559MOL0     H75438  10.598  11.850   9.245 -0.0198  1.4861  0.5524
  559MOL0     H75439  10.873  11.947   9.316  0.0944  0.5840  0.2826
  559MOL0     H75440  10.735  12.047   9.352 -2.1584 -1.3604  0.3829
  559MOL0     H75441  10.759  11.765   9.488  0.2641  0.6744  1.0115
  559MOL0     H75442  10.644  11.890   9.507 -0.1954 -3.1516 -0.0460
  559MOL0     H75443  10.821  12.036   9.609 -3.7957  0.3034  3.4935
  559MOL0     H75444  10.787  11.884   9.691 -3.0310  1.7527 -0.8703
  559MOL0     H75445  10.240  11.843   8.741 -1.2190  0.7898  0.2266
  559MOL0     H75446  10.109  11.703   8.567 -0.7011 -1.2064 -0.5199
  559MOL0     H75447  10.084  11.161   8.351  0.9555  2.3056  1.9346
  559MOL0     H75448  10.005  11.063   8.150  0.7912 -0.4278  0.9020
  559MOL0     H75449   8.101  10.967   7.316  0.9151 -1.2815  0.2391
  559MOL0     H75450   7.933  11.076   7.183  0.1236  1.0513 -0.9176
  559MOL0     H75451   7.771  11.203   6.782 -1.2394 -1.7096  0.9100
  559MOL0     H75452   7.563  11.262   6.722 -3.1870  0.6486  0.2474
  559MOL0     H75453   7.346  11.620   6.665  0.7768  3.5165 -0.8755
  559MOL0     H75454   7.500  11.667   6.734 -0.1848 -0.8311  0.1992
  559MOL0     H75455   7.368  11.673   6.960  0.6254 -0.3097 -1.0155
  559MOL0     H75456   7.221  11.673   6.851 -0.0865 -1.0845 -1.4985
  559MOL0     H75457   7.331  11.843   6.711 -1.3111 -0.2623  0.2535
  559MOL0     H75458   7.448  11.865   6.838  1.7214 -4.1755 -1.3925
  559MOL0     H75459   7.219  11.930   6.980 -3.3245 -0.2642 -0.3028
  559MOL0     H75460   7.269  12.043   6.847  1.6545 -0.5260 -2.3328
  559MOL0     H75461   6.909  11.859   6.716 -0.3290 -1.5802  2.4086
  559MOL0     H75462   7.562  11.610   6.978  0.4897  1.0691 -0.8493
  559MOL0     H75463   7.711  11.583   7.170 -0.3116  2.5145 -1.6190
  559MOL0     H75464   7.878  11.515   7.157  1.9447  0.1480 -2.1126
  559MOL0     H75465   7.839  11.661   7.068  0.8745  0.1032  0.2012
  560MOL0     O75466   2.606   9.064  11.073 -0.5036 -0.2711  0.8756
  560MOL0     C75467   2.632   9.138  10.975  0.4798  0.4331 -0.4113
  560MOL0     O75468   2.549   9.156  10.865 -0.1297 -0.4095 -0.7491
  560MOL0     C75469   2.456   9.059  10.858  0.2653 -0.2948  0.1428
  560MOL0     C75470   2.348   9.051  10.953 -0.0277 -0.7942  0.4193
  560MOL0     C75471   2.271   8.934  10.961 -0.3234  0.5515  0.0834
  560MOL0     C75472   2.296   8.832  10.872 -0.6988 -0.5659 -0.5666
  560MOL0     O75473   2.205   8.727  10.882  0.1188  0.2557 -0.4731
  560MOL0     C75474   2.176   8.667  10.763  0.0930  0.6844 -0.0669
  560MOL0     C75475   2.043   8.592  10.783  0.3200 -1.0472  0.9139
  560MOL0     C75476   1.916   8.666  10.824  0.7199 -0.3057  0.4921
  560MOL0     C75477   1.843   8.742  10.706 -0.2924  0.3046 -0.1495
  560MOL0     C75478   1.754   8.858  10.768  0.0511 -0.1132 -0.0350
  560MOL0     C75479   1.642   8.804  10.860  0.0558  0.3224  0.3499
  560MOL0     C75480   1.542   8.724  10.775 -0.1279 -0.2788 -0.1653
  560MOL0     C75481   1.419   8.694  10.860 -0.3037  0.3205 -0.1041
  560MOL0     N75482   1.300   8.635  10.802  0.0073 -0.4992  0.2369
  560MOL0     C75483   1.227   8.692  10.699  0.4558  0.3801 -0.1323
  560MOL0     C75484   1.150   8.595  10.642  0.1343 -0.5106  0.3057
  560MOL0     C75485   1.045   8.617  10.541 -0.6244  0.3861  0.5607
  560MOL0     C75486   1.090   8.592  10.395  0.6665  0.9437 -0.2976
  560MOL0     C75487   1.113   8.439  10.342 -0.2211  0.0030 -0.2676
  560MOL0     C75488   0.982   8.364  10.342 -1.3845 -0.4722 -0.1156
  560MOL0     O75489   0.883   8.430  10.269 -0.0540  0.2212  0.4607
  560MOL0     C75490   0.754   8.383  10.273 -0.9475 -0.0198  0.0705
  560MOL0     C75491   0.651   8.454  10.210 -0.1602  0.4108  0.2161
  560MOL0     C75492   0.519   8.427  10.221 -0.1651 -0.6022  0.2520
  560MOL0     C75493   0.483   8.305  10.281  0.4593  0.6694 -0.4181
  560MOL0     C75494   0.345   8.255  10.290  0.2410 -0.6306 -1.1438
  560MOL0     O75495   0.317   8.127  10.267 -0.6847  0.6593 -0.2288
  560MOL0     C75496   0.187   8.077  10.279 -0.4513  0.0608  0.2278
  560MOL0     C75497   0.182   7.944  10.330 -0.2454  0.8733 -0.7688
  560MOL0     C75498   0.066   7.872  10.340 -0.2772  0.7863  0.5169
  560MOL0     C75499  -0.064   7.923  10.308 -0.3707  0.3399  0.2981
  560MOL0     O75500  -0.187   7.863  10.326 -0.8262 -0.5059 -1.4599
  560MOL0     C75501  -0.179   7.718  10.340 -0.9264  0.9896 -0.0876
  560MOL0     C75502  -0.326   7.666  10.328  0.3215 -0.3228 -0.7011
  560MOL0     C75503  -0.331   7.512  10.340  0.0486  1.2139  0.4082
  560MOL0     C75504  -0.357   7.470  10.485  0.1356  0.5555  0.3343
  560MOL0     C75505  -0.340   7.322  10.491  0.8214  0.2344 -0.0852
  560MOL0     C75506  -0.355   7.268  10.639 -0.2423  0.7006 -0.6015
  560MOL0     C75507  -0.342   7.121  10.647 -0.1731  0.5596 -0.7567
  560MOL0     C75508  -0.419   7.075  10.769  0.2725  0.1893 -0.7807
  560MOL0    Cl75509  -0.385   6.912  10.812 -0.3906 -0.0339  0.2330
  560MOL0     C75510  -0.060   8.056  10.266  1.7720  0.0203 -0.1998
  560MOL0     C75511   0.059   8.130  10.245  0.2307 -0.5121 -0.5829
  560MOL0     O75512   0.257   8.342  10.308 -0.3909  0.0522  0.0544
  560MOL0     C75513   0.583   8.225  10.345  0.5939 -0.0493  0.5973
  560MOL0     C75514   0.717   8.263  10.341 -0.5211 -0.2995  0.7015
  560MOL0     N75515   1.184   8.477  10.700 -0.4811  0.2170  0.4930
  560MOL0     N75516   1.275   8.506  10.799  0.3246 -0.0371  0.5270
  560MOL0     C75517   2.401   8.835  10.776 -0.0940  0.0620  0.1307
  560MOL0     C75518   2.482   8.948  10.771  0.3817 -0.3110 -0.6567
  560MOL0     C75519   2.767   9.200  10.959 -0.0678 -0.3524 -0.1389
  560MOL0     C75520   2.800   9.235  10.821  0.1937 -0.5324  0.4632
  560MOL0     C75521   2.927   9.290  10.797 -0.7333  0.9904  0.0972
  560MOL0     C75522   3.020   9.320  10.894  0.2862 -0.6645 -0.5257
  560MOL0     O75523   3.139   9.370  10.880  0.6811  0.1773  0.5355
  560MOL0     C75524   3.193   9.411  10.762 -0.5800  0.4212  0.7892
  560MOL0     C75525   3.305   9.524  10.758 -0.8627  1.1713 -0.4898
  560MOL0     C75526   3.239   9.657  10.791 -0.0817  0.3919  0.7087
  560MOL0     C75527   3.319   9.778  10.768  0.0208  1.0562  1.0650
  560MOL0     C75528   3.380   9.843  10.881 -0.9529 -0.5396 -0.4224
  560MOL0     C75529   3.419   9.911  10.969 -0.3708  0.8802 -0.1211
  560MOL0     C75530   2.978   9.289  11.021  0.0885  0.5668 -0.0912
  560MOL0     C75531   2.858   9.227  11.063  0.3834 -0.5951 -0.0917
  560MOL0     C75532   2.836   9.205  11.206  0.6006  0.2229 -0.3892
  560MOL0     H75533   2.338   9.122  11.034  1.0791 -2.3449  1.9740
  560MOL0     H75534   2.200   8.919  11.042  1.0142 -3.8574  0.6950
  560MOL0     H75535   2.168   8.734  10.677  0.4265  1.1080  0.2319
  560MOL0     H75536   2.259   8.598  10.744  0.5426  1.2044 -0.0176
  560MOL0     H75537   2.053   8.505  10.848  2.2650 -1.9164 -0.4611
  560MOL0     H75538   2.029   8.551  10.683  1.5988  2.2796 -0.8039
  560MOL0     H75539   1.936   8.740  10.902 -2.2456  1.0347  0.1033
  560MOL0     H75540   1.843   8.604  10.877 -1.5208  0.1797 -1.8578
  560MOL0     H75541   1.917   8.791  10.642 -1.1645 -0.9421 -2.2101
  560MOL0     H75542   1.784   8.673  10.645  0.5738 -1.5470  1.0196
  560MOL0     H75543   1.819   8.926  10.823  0.1236  1.9264 -2.4746
  560MOL0     H75544   1.709   8.915  10.687  1.2181 -0.9546 -1.3173
  560MOL0     H75545   1.669   8.739  10.944  1.2588  0.8477  0.3851
  560MOL0     H75546   1.585   8.891  10.892  0.2299 -0.1105  1.9268
  560MOL0     H75547   1.583   8.626  10.747 -0.0487 -0.7077  1.3778
  560MOL0     H75548   1.518   8.790  10.691  2.3699 -0.2559 -0.9601
  560MOL0     H75549   1.449   8.612  10.927 -4.5257 -1.2994  0.1107
  560MOL0     H75550   1.375   8.779  10.914 -2.4391 -0.3656 -0.6415
  560MOL0     H75551   1.249   8.794  10.669 -2.8298  1.4076  0.5383
  560MOL0     H75552   0.977   8.536  10.570  0.4803 -0.8787 -0.2830
  560MOL0     H75553   0.989   8.711  10.550 -2.7594 -0.7736  0.0617
  560MOL0     H75554   1.020   8.633  10.321 -0.4459 -1.8685 -0.9561
  560MOL0     H75555   1.186   8.640  10.375  0.4810  1.2091 -0.5625
  560MOL0     H75556   1.172   8.382  10.415  1.9526  0.9154 -1.2226
  560MOL0     H75557   1.167   8.436  10.247  0.1950  1.5526 -0.1074
  560MOL0     H75558   0.965   8.344  10.448 -0.4245  1.8299  0.5313
  560MOL0     H75559   0.998   8.267  10.294  0.7088  0.7749 -2.1211
  560MOL0     H75560   0.684   8.547  10.164 -0.4933 -0.0740 -1.0190
  560MOL0     H75561   0.446   8.493  10.176  1.1934 -1.5057 -3.6723
  560MOL0     H75562   0.270   7.889  10.362 -1.3631 -0.4358  0.1631
  560MOL0     H75563   0.082   7.781  10.398  1.0466  1.0493  0.5906
  560MOL0     H75564  -0.113   7.671  10.267 -2.0602 -0.5487 -0.1917
  560MOL0     H75565  -0.145   7.704  10.443 -1.2193  1.1333  0.0313
  560MOL0     H75566  -0.389   7.708  10.407 -3.0016  1.1624 -3.8849
  560MOL0     H75567  -0.370   7.696  10.233 -1.7500 -1.6633 -0.2365
  560MOL0     H75568  -0.412   7.463  10.285 -0.8980  3.2968 -0.1186
  560MOL0     H75569  -0.239   7.465  10.302  0.1707  1.2385  0.6680
  560MOL0     H75570  -0.458   7.500  10.515  0.8799  2.0031  1.4616
  560MOL0     H75571  -0.296   7.525  10.557  1.2118 -1.2734  0.8908
  560MOL0     H75572  -0.242   7.286  10.460  0.0720 -2.1904  0.2107
  560MOL0     H75573  -0.419   7.276  10.430 -0.6146  4.4876 -1.8465
  560MOL0     H75574  -0.272   7.315  10.692 -0.7387  0.0995  0.7355
  560MOL0     H75575  -0.451   7.301  10.679  0.4943 -0.6400  2.5656
  560MOL0     H75576  -0.237   7.094  10.639  0.3396  2.0347  0.4924
  560MOL0     H75577  -0.388   7.087  10.554  0.9127  0.3371 -1.2312
  560MOL0     H75578  -0.379   7.138  10.849  1.0006 -1.0144 -0.1762
  560MOL0     H75579  -0.526   7.099  10.770  0.8474  3.2214  1.2899
  560MOL0     H75580  -0.149   8.117  10.252  2.3565  1.8075  2.8296
  560MOL0     H75581   0.057   8.225  10.193  0.1287 -1.6019 -2.7057
  560MOL0     H75582   0.565   8.129  10.392 -0.1310 -0.1058  0.2294
  560MOL0     H75583   0.785   8.201  10.399 -0.8992 -1.1131  0.2906
  560MOL0     H75584   2.428   8.755  10.708  1.5329  0.0974  0.6793
  560MOL0     H75585   2.564   8.949  10.700  1.5253  3.1096  0.4922
  560MOL0     H75586   2.746   9.214  10.730  1.8644 -0.4798 -0.5846
  560MOL0     H75587   2.963   9.306  10.695 -1.5512  1.9049 -0.0506
  560MOL0     H75588   3.118   9.461  10.699  0.6896  3.9660  1.8311
  560MOL0     H75589   3.230   9.329  10.700 -0.3126  0.6918  0.5845
  560MOL0     H75590   3.364   9.527  10.666  2.1792  1.5523  1.3395
  560MOL0     H75591   3.381   9.494  10.831 -3.8354 -2.2346  1.5771
  560MOL0     H75592   3.201   9.661  10.894 -1.1532  6.1190  0.3807
  560MOL0     H75593   3.154   9.661  10.723  0.6985 -4.2223 -0.9023
  560MOL0     H75594   3.380   9.760  10.680  0.6485  1.1133  1.4853
  560MOL0     H75595   3.244   9.854  10.742 -0.9479  0.6421  2.5153
  560MOL0     H75596   3.482   9.961  11.040  2.7498 -3.5626  0.6595
  560MOL0     H75597   3.038   9.313  11.108  2.2701  0.8101 -1.5635
  560MOL0     H75598   2.857   9.102  11.236 -1.2498  0.0927  0.5716
  560MOL0     H75599   2.904   9.264  11.269 -2.0212  0.2147  2.7200
  560MOL0     H75600   2.733   9.231  11.231  0.5526 -0.9648  0.7922
  561MOL0     O75601   4.803   2.482   5.500  0.1421  1.1460  0.1118
  561MOL0     C75602   4.719   2.527   5.429 -0.2099 -0.1068 -0.1096
  561MOL0     O75603   4.719   2.661   5.385  0.5411  0.1914  0.5080
  561MOL0     C75604   4.816   2.747   5.437 -0.2147 -0.8183 -0.3478
  561MOL0     C75605   4.940   2.762   5.376 -0.4239  0.6280 -0.0472
  561MOL0     C75606   5.039   2.848   5.430  0.0769 -0.5845 -0.9157
  561MOL0     C75607   5.018   2.910   5.552  0.5320 -0.1973  0.5441
  561MOL0     O75608   5.121   2.981   5.601  0.2444 -0.6763  0.5789
  561MOL0     C75609   5.130   3.057   5.725  0.1899  0.5030  0.8488
  561MOL0     C75610   5.267   3.109   5.756  0.4871  1.3611 -0.4029
  561MOL0     C75611   5.361   2.990   5.752  0.0199  0.0330 -0.0678
  561MOL0     C75612   5.497   3.042   5.799  0.1990 -0.6665  0.1059
  561MOL0     C75613   5.612   2.935   5.769  0.2566  0.2429 -0.0634
  561MOL0     C75614   5.605   2.834   5.877  0.7171 -0.8213 -0.2876
  561MOL0     C75615   5.625   2.681   5.851 -0.1682 -0.0456 -0.0469
  561MOL0     C75616   5.768   2.623   5.863 -0.5651  0.8422  0.3191
  561MOL0     N75617   5.867   2.664   5.759  1.0561 -0.1163 -0.1182
  561MOL0     C75618   5.963   2.578   5.706 -0.3130 -0.0911 -0.8515
  561MOL0     C75619   6.066   2.663   5.677  0.3745  0.1437  0.3105
  561MOL0     C75620   6.203   2.612   5.633  0.3566 -0.3708  0.2369
  561MOL0     C75621   6.281   2.740   5.593  0.7327 -0.0609  1.2332
  561MOL0     C75622   6.414   2.705   5.522 -0.4656  0.2648  0.7345
  561MOL0     C75623   6.420   2.679   5.364 -0.4731 -0.5570 -0.0823
  561MOL0     O75624   6.360   2.556   5.332 -0.3519 -0.9847  0.6117
  561MOL0     C75625   6.424   2.448   5.384 -0.5201  0.1187  0.0549
  561MOL0     C75626   6.563   2.419   5.367 -0.1431  1.0239  0.1197
  561MOL0     C75627   6.618   2.298   5.390  0.1729 -0.2755  0.2869
  561MOL0     C75628   6.530   2.190   5.427  0.4365  0.6725  0.0011
  561MOL0     C75629   6.590   2.051   5.457 -0.1483 -1.0289 -0.4881
  561MOL0     O75630   6.723   2.042   5.414  0.9207 -0.2716 -0.5402
  561MOL0     C75631   6.793   1.921   5.413  0.5434 -0.6287  0.0621
  561MOL0     C75632   6.733   1.799   5.358  0.2766  0.0753  0.1906
  561MOL0     C75633   6.810   1.686   5.351 -0.3437  0.1660 -0.3121
  561MOL0     C75634   6.938   1.688   5.400 -0.0666  0.3981  0.2805
  561MOL0     O75635   7.019   1.571   5.393  0.2107 -1.0510  0.7146
  561MOL0     C75636   6.972   1.477   5.486  0.2570 -0.2261 -0.7506
  561MOL0     C75637   7.093   1.401   5.544  0.4360 -0.1483  0.3963
  561MOL0     C75638   7.190   1.347   5.435  0.1464 -0.8140 -0.6841
  561MOL0     C75639   7.318   1.285   5.512  0.7866  0.3451  0.0351
  561MOL0     C75640   7.413   1.198   5.428 -0.3422  0.5157 -0.3261
  561MOL0     C75641   7.450   1.065   5.502 -0.6159 -0.0455 -0.5323
  561MOL0     C75642   7.339   0.959   5.489 -0.5374  0.4284 -0.1288
  561MOL0     C75643   7.307   0.912   5.349 -0.1563 -1.7084 -0.0151
  561MOL0    Cl75644   7.453   0.844   5.270 -0.2217  0.3066  0.0149
  561MOL0     C75645   6.993   1.802   5.450 -0.5750 -0.4649  1.3537
  561MOL0     C75646   6.918   1.920   5.462  0.2217 -0.7165  1.2283
  561MOL0     O75647   6.526   1.967   5.519  0.6375 -0.0230 -0.2256
  561MOL0     C75648   6.403   2.220   5.458 -0.0480  0.5746  0.0322
  561MOL0     C75649   6.343   2.344   5.436 -0.4348  0.2474  0.6298
  561MOL0     N75650   6.029   2.795   5.704  0.9842  0.1158 -0.5170
  561MOL0     N75651   5.906   2.794   5.750  0.0376 -0.0716  0.0390
  561MOL0     C75652   4.891   2.909   5.605  0.3768  0.6630  0.2238
  561MOL0     C75653   4.786   2.840   5.548  0.7243  0.1211  0.4787
  561MOL0     C75654   4.611   2.452   5.380  0.7196  0.0757  0.3512
  561MOL0     C75655   4.549   2.483   5.253 -0.1503  0.0675 -0.2053
  561MOL0     C75656   4.449   2.406   5.194  0.0786 -0.2330 -1.2623
  561MOL0     C75657   4.383   2.308   5.263 -0.3869 -0.6065 -0.8860
  561MOL0     O75658   4.270   2.241   5.226  0.4925 -1.0583 -0.6701
  561MOL0     C75659   4.209   2.276   5.104 -0.6856 -1.0799 -0.3877
  561MOL0     C75660   4.083   2.187   5.085 -0.0755 -0.1840  0.4000
  561MOL0     C75661   3.998   2.188   5.213  0.0385  0.0196  0.3783
  561MOL0     C75662   3.867   2.122   5.202  0.5170  0.5994 -0.0315
  561MOL0     C75663   3.776   2.155   5.091  0.2809 -0.5799 -0.2097
  561MOL0     C75664   3.698   2.206   5.015  0.3300 -0.0117  0.3519
  561MOL0     C75665   4.438   2.275   5.391  0.0736 -0.0465  0.1582
  561MOL0     C75666   4.556   2.340   5.454  0.6097 -0.3714  0.9748
  561MOL0     C75667   4.596   2.292   5.594 -0.7619 -0.4947 -0.6088
  561MOL0     H75668   4.939   2.694   5.291 -4.9199  1.3142 -0.7830
  561MOL0     H75669   5.133   2.854   5.376  0.0075  2.7763 -0.8648
  561MOL0     H75670   5.063   3.143   5.714 -1.3302 -0.8721 -1.7636
  561MOL0     H75671   5.092   2.997   5.809  0.0417  2.5694  2.3292
  561MOL0     H75672   5.264   3.156   5.854  3.8865 -0.4980  0.7382
  561MOL0     H75673   5.295   3.187   5.685 -1.4746  0.4466 -2.3110
  561MOL0     H75674   5.368   2.942   5.654  0.4036  1.8129 -0.9554
  561MOL0     H75675   5.324   2.916   5.823  1.9680 -1.8339 -0.8912
  561MOL0     H75676   5.524   3.129   5.738  0.1991 -1.7302 -1.4564
  561MOL0     H75677   5.501   3.062   5.907  1.2169 -2.6577  0.4806
  561MOL0     H75678   5.588   2.896   5.670 -0.2795 -2.3553  1.0160
  561MOL0     H75679   5.710   2.983   5.770  0.7802 -0.7830 -0.7792
  561MOL0     H75680   5.658   2.860   5.969  1.1774  0.0529 -0.7823
  561MOL0     H75681   5.504   2.833   5.919  0.5313 -6.7643 -0.0568
  561MOL0     H75682   5.585   2.662   5.751 -2.4461  0.2599  0.7471
  561MOL0     H75683   5.553   2.627   5.914 -0.8583 -0.8973 -1.5289
  561MOL0     H75684   5.810   2.666   5.955  0.7410 -1.1629  0.7065
  561MOL0     H75685   5.771   2.514   5.866  0.4189  0.4723 -4.8400
  561MOL0     H75686   5.960   2.471   5.689 -0.5381 -0.3449  0.6393
  561MOL0     H75687   6.255   2.566   5.717 -0.7298  2.5571  2.6931
  561MOL0     H75688   6.193   2.543   5.548 -0.6895  1.0825 -0.8742
  561MOL0     H75689   6.226   2.792   5.514 -0.5262 -3.8081 -0.6397
  561MOL0     H75690   6.289   2.804   5.681  0.7362  0.4058  0.8965
  561MOL0     H75691   6.469   2.628   5.578  2.6014 -2.3668 -5.0132
  561MOL0     H75692   6.489   2.784   5.526  3.4107 -2.8986 -1.3960
  561MOL0     H75693   6.525   2.690   5.334 -0.4557  1.3419  0.5464
  561MOL0     H75694   6.383   2.772   5.319  3.2007  2.5061  2.5630
  561MOL0     H75695   6.626   2.502   5.340  3.8363 -1.1499  1.9343
  561MOL0     H75696   6.722   2.292   5.361  0.9092 -2.3206  2.9194
  561MOL0     H75697   6.628   1.801   5.329  0.5992  0.3611 -0.9972
  561MOL0     H75698   6.764   1.595   5.314  0.7200 -0.3273 -0.4846
  561MOL0     H75699   6.917   1.514   5.573  0.0040 -1.5172 -0.3460
  561MOL0     H75700   6.917   1.396   5.437 -1.5902 -0.1764  1.1452
  561MOL0     H75701   7.145   1.464   5.616  2.2540  3.3152 -3.4954
  561MOL0     H75702   7.053   1.315   5.598 -1.5349 -0.4055 -1.3517
  561MOL0     H75703   7.145   1.281   5.360 -3.7806  0.6311  0.1760
  561MOL0     H75704   7.230   1.433   5.379  1.4932 -0.8197  0.2073
  561MOL0     H75705   7.272   1.220   5.587  0.9573 -2.2409 -1.9629
  561MOL0     H75706   7.384   1.357   5.562  0.3351  0.7685  0.0295
  561MOL0     H75707   7.509   1.245   5.405 -0.2163  2.0118  2.7428
  561MOL0     H75708   7.366   1.180   5.331  1.0196 -0.4800 -0.8253
  561MOL0     H75709   7.541   1.019   5.464 -0.0762  0.2945  0.3080
  561MOL0     H75710   7.470   1.090   5.607  2.0994 -0.0204 -0.9884
  561MOL0     H75711   7.246   1.000   5.528  0.2656  0.5705  1.7280
  561MOL0     H75712   7.367   0.874   5.552 -0.8182  0.3804 -0.0711
  561MOL0     H75713   7.225   0.841   5.342 -0.7983 -1.3492  2.6478
  561MOL0     H75714   7.276   1.004   5.299  1.3157 -0.6666  0.8814
  561MOL0     H75715   7.098   1.800   5.477  0.2951 -2.4064 -1.6725
  561MOL0     H75716   6.963   2.009   5.504 -0.7683 -0.9949  3.0073
  561MOL0     H75717   6.336   2.154   5.511  0.7686 -0.0201  0.3577
  561MOL0     H75718   6.238   2.351   5.463 -0.4920 -2.2348  1.3078
  561MOL0     H75719   4.884   2.982   5.684  2.0584  0.4320  0.6250
  561MOL0     H75720   4.689   2.860   5.591  0.4493 -0.8344  0.3386
  561MOL0     H75721   4.587   2.557   5.183 -0.5021  1.4057  0.9567
  561MOL0     H75722   4.406   2.429   5.097 -1.9798 -1.3556 -0.6596
  561MOL0     H75723   4.273   2.280   5.015 -3.7903 -0.8441 -2.7722
  561MOL0     H75724   4.173   2.378   5.116  0.1554 -0.9994  1.9481
  561MOL0     H75725   4.108   2.083   5.060 -2.7321 -0.7294 -0.4205
  561MOL0     H75726   4.030   2.222   4.995 -0.1595  0.1756  0.5884
  561MOL0     H75727   4.001   2.288   5.257  0.9422 -0.4110  1.3417
  561MOL0     H75728   4.047   2.132   5.292  0.6321 -0.4989 -0.3415
  561MOL0     H75729   3.883   2.014   5.202 -0.6252  0.4156 -0.6115
  561MOL0     H75730   3.808   2.144   5.292 -0.8466 -2.5931 -0.0144
  561MOL0     H75731   3.642   2.263   4.943 -1.0616  2.4180  3.1361
  561MOL0     H75732   4.406   2.183   5.439  2.9786 -2.4162 -1.9772
  561MOL0     H75733   4.674   2.215   5.589  0.2773  0.5940 -2.3899
  561MOL0     H75734   4.628   2.374   5.658 -0.5976 -0.5800 -0.5808
  561MOL0     H75735   4.515   2.232   5.636 -2.0946  0.6013 -1.5226
  562MOL0     O75736   1.653   3.279   6.321  0.3101 -0.2721 -0.0482
  562MOL0     C75737   1.535   3.297   6.283  0.3071 -0.9069 -0.6441
  562MOL0     O75738   1.471   3.419   6.279 -0.7282  0.3873  0.1116
  562MOL0     C75739   1.533   3.516   6.337 -0.7761 -0.7924 -0.2182
  562MOL0     C75740   1.654   3.576   6.291 -0.4781 -0.0912 -0.2301
  562MOL0     C75741   1.709   3.694   6.353  0.4519  0.0447  0.5974
  562MOL0     C75742   1.636   3.751   6.454  0.0959 -0.3791 -0.7169
  562MOL0     O75743   1.680   3.874   6.498  0.1914 -0.9742 -0.2675
  562MOL0     C75744   1.577   3.982   6.510  0.3918  0.5516  0.3814
  562MOL0     C75745   1.638   4.098   6.581  0.6201  0.1307  0.4311
  562MOL0     C75746   1.740   4.174   6.492 -1.0602  1.2417 -0.7295
  562MOL0     C75747   1.815   4.273   6.578  0.3743 -0.4803  1.5217
  562MOL0     C75748   1.899   4.364   6.487  0.8750 -0.3457  0.6565
  562MOL0     C75749   1.939   4.482   6.574 -0.0823  0.2648  0.6327
  562MOL0     C75750   2.013   4.588   6.497 -0.0437  0.8254  0.1423
  562MOL0     C75751   2.157   4.549   6.456 -0.4844  0.5125 -0.2283
  562MOL0     N75752   2.236   4.493   6.567 -0.3454 -0.1189  0.3876
  562MOL0     C75753   2.243   4.358   6.594  1.0906 -0.0709  0.0637
  562MOL0     C75754   2.332   4.346   6.695 -0.6750 -0.0139 -0.7160
  562MOL0     C75755   2.384   4.217   6.761  0.4009 -0.5921  0.4123
  562MOL0     C75756   2.278   4.174   6.871 -0.0841  0.0158 -0.8880
  562MOL0     C75757   2.148   4.152   6.803  0.3128 -0.0133 -0.1825
  562MOL0     C75758   2.053   4.068   6.880 -0.1089  0.5104  0.2556
  562MOL0     O75759   2.057   4.106   7.020  0.5145  0.3794  0.1374
  562MOL0     C75760   1.961   4.069   7.112 -0.0449  1.0290  0.2366
  562MOL0     C75761   1.847   3.988   7.082 -0.6763 -0.3147  0.8319
  562MOL0     C75762   1.750   3.966   7.176  0.5196  0.5313 -0.7693
  562MOL0     C75763   1.750   4.042   7.307  0.5346 -0.2754  0.0358
  562MOL0     C75764   1.642   4.022   7.406 -0.1442  0.9215 -0.2618
  562MOL0     O75765   1.656   4.095   7.525 -0.6506  0.4561  0.9919
  562MOL0     C75766   1.565   4.070   7.629  0.0976  0.1073 -0.5447
  562MOL0     C75767   1.478   4.166   7.652  0.0605 -0.7819 -0.8726
  562MOL0     C75768   1.382   4.139   7.747  1.1570  0.1510  0.7244
  562MOL0     C75769   1.369   4.015   7.820 -0.2926 -1.2829 -0.1304
  562MOL0     O75770   1.273   3.990   7.915  0.1665 -0.1733 -0.2230
  562MOL0     C75771   1.155   4.068   7.931 -0.5890  0.0918  0.4297
  562MOL0     C75772   1.041   3.990   7.994  0.0357  0.1768  0.1512
  562MOL0     C75773   0.913   4.069   7.961 -0.5182 -0.4305  0.4014
  562MOL0     C75774   0.784   3.997   8.018 -1.0769  0.0229  1.5695
  562MOL0     C75775   0.790   3.993   8.169  0.4183 -0.9376 -0.8124
  562MOL0     C75776   0.652   3.966   8.233 -0.5113  0.5538  0.6702
  562MOL0     C75777   0.653   3.997   8.392 -0.4392  0.0989  0.0580
  562MOL0     C75778   0.522   3.947   8.451 -0.3040  0.1873  0.7603
  562MOL0    Cl75779   0.375   4.037   8.399  0.1719  0.0974  0.4814
  562MOL0     C75780   1.466   3.918   7.793  0.1583 -0.0605 -0.5081
  562MOL0     C75781   1.572   3.949   7.706 -0.3135  0.6878 -0.3126
  562MOL0     O75782   1.554   3.940   7.389  0.7948  0.4860  0.4594
  562MOL0     C75783   1.855   4.133   7.330  0.0482 -0.2502 -0.7871
  562MOL0     C75784   1.957   4.141   7.233  0.3870 -0.8795 -0.1795
  562MOL0     N75785   2.375   4.479   6.708  0.1298  0.4832 -0.5449
  562MOL0     N75786   2.318   4.563   6.639  0.0759 -0.3003  0.9623
  562MOL0     C75787   1.526   3.682   6.515 -0.0586  0.3336  0.4704
  562MOL0     C75788   1.479   3.568   6.447 -0.7582  0.2592 -0.8947
  562MOL0     C75789   1.470   3.162   6.255  0.4011 -0.1497 -0.1927
  562MOL0     C75790   1.541   3.051   6.224  0.5354 -1.0485  1.0087
  562MOL0     C75791   1.480   2.930   6.194  0.2929 -0.2660  0.2008
  562MOL0     C75792   1.343   2.918   6.183  0.3223 -0.3986  0.0677
  562MOL0     O75793   1.269   2.815   6.121  0.2105  0.1817  0.8756
  562MOL0     C75794   1.342   2.736   6.022  0.1888  0.9768 -0.6637
  562MOL0     C75795   1.245   2.683   5.915  1.4139  0.1027  0.0067
  562MOL0     C75796   1.292   2.560   5.844 -0.5598 -0.1590 -0.1036
  562MOL0     C75797   1.209   2.496   5.736  0.4162  0.0944  0.1336
  562MOL0     C75798   1.291   2.383   5.680 -0.1203  0.0297  0.1442
  562MOL0     C75799   1.363   2.303   5.632 -0.2346 -0.3608 -0.1754
  562MOL0     C75800   1.264   3.029   6.218  0.3399  0.4759 -0.2781
  562MOL0     C75801   1.328   3.151   6.253  0.0846  0.5282 -0.8535
  562MOL0     C75802   1.238   3.273   6.277  0.3294 -0.8104  0.5600
  562MOL0     H75803   1.704   3.530   6.207  0.4817  0.6621 -0.0787
  562MOL0     H75804   1.799   3.740   6.314 -0.5579 -1.3059 -3.8597
  562MOL0     H75805   1.550   4.011   6.408  2.4793  2.9442  0.4264
  562MOL0     H75806   1.488   3.942   6.560 -1.5250 -0.9678 -3.7643
  562MOL0     H75807   1.671   4.054   6.675 -1.0764  2.3510  2.1732
  562MOL0     H75808   1.559   4.169   6.609  0.1659 -0.0807 -0.2579
  562MOL0     H75809   1.674   4.227   6.423 -1.9610  2.1294  0.7501
  562MOL0     H75810   1.823   4.118   6.449  0.8034  2.2365  1.3373
  562MOL0     H75811   1.736   4.330   6.628 -3.2090 -1.7643 -2.1577
  562MOL0     H75812   1.888   4.227   6.646  3.4635 -2.2566 -2.5692
  562MOL0     H75813   1.987   4.311   6.451  1.3697  0.5095  0.5738
  562MOL0     H75814   1.846   4.405   6.401  1.3952  1.9625  1.3552
  562MOL0     H75815   1.843   4.525   6.601 -0.9346 -0.6771 -0.7683
  562MOL0     H75816   1.984   4.449   6.669 -0.9472 -0.9573  0.6488
  562MOL0     H75817   2.012   4.688   6.542 -2.0120  0.8165  0.2012
  562MOL0     H75818   1.963   4.613   6.403  0.0370  0.5535  0.0273
  562MOL0     H75819   2.162   4.475   6.376  0.5269  0.1728  0.1208
  562MOL0     H75820   2.206   4.641   6.422  0.1519  0.5932  0.8469
  562MOL0     H75821   2.187   4.274   6.554  1.3323 -0.7797  1.1537
  562MOL0     H75822   2.388   4.149   6.675 -0.6285  2.5455 -2.3291
  562MOL0     H75823   2.483   4.222   6.809  1.5699 -1.9357 -1.6812
  562MOL0     H75824   2.315   4.084   6.922  0.4397 -1.1963 -3.2660
  562MOL0     H75825   2.261   4.250   6.948 -1.2988 -0.9442 -0.1655
  562MOL0     H75826   2.168   4.107   6.706 -0.6254  1.1682 -0.9566
  562MOL0     H75827   2.100   4.250   6.797 -1.3395 -0.6010  1.9055
  562MOL0     H75828   2.089   3.966   6.865 -3.2337 -0.3883 -2.1593
  562MOL0     H75829   1.949   4.077   6.846 -0.4939 -2.2632  0.5395
  562MOL0     H75830   1.840   3.931   6.989  1.0767  1.6990 -0.6592
  562MOL0     H75831   1.667   3.910   7.136 -1.4686  2.4785  0.4124
  562MOL0     H75832   1.475   4.263   7.604 -1.0844 -0.5642 -0.3980
  562MOL0     H75833   1.311   4.212   7.783 -0.4287 -2.8909  4.5081
  562MOL0     H75834   1.185   4.146   8.001  0.4560 -1.2524  1.5409
  562MOL0     H75835   1.133   4.110   7.832 -0.4233 -2.1399 -0.6192
  562MOL0     H75836   1.043   3.896   7.939  0.8183 -0.1430  0.7065
  562MOL0     H75837   1.059   3.975   8.101  1.0871 -0.9042 -0.1625
  562MOL0     H75838   0.938   4.169   7.998 -2.2868 -0.5495  2.0471
  562MOL0     H75839   0.891   4.078   7.854  1.8766  1.4829 -0.0385
  562MOL0     H75840   0.770   3.895   7.979 -0.3002  0.7630 -0.7905
  562MOL0     H75841   0.694   4.050   7.986 -1.0423  1.0657  3.1090
  562MOL0     H75842   0.831   4.087   8.207 -1.0961 -1.2319  1.8510
  562MOL0     H75843   0.864   3.917   8.195 -0.0529 -0.6899  1.5110
  562MOL0     H75844   0.576   4.031   8.189  0.9842  1.1870 -1.1163
  562MOL0     H75845   0.624   3.862   8.214 -1.2753  1.0636 -1.1606
  562MOL0     H75846   0.643   4.103   8.414 -4.6186  0.5088 -2.7313
  562MOL0     H75847   0.741   3.952   8.440  0.4036  0.5733 -0.9743
  562MOL0     H75848   0.510   3.840   8.431  1.0597 -0.1127  1.4756
  562MOL0     H75849   0.524   3.953   8.560  1.2135 -1.1760  0.8369
  562MOL0     H75850   1.453   3.820   7.838 -0.9611  0.3651  0.1225
  562MOL0     H75851   1.655   3.880   7.703 -2.5684 -2.3459  1.2026
  562MOL0     H75852   1.850   4.196   7.418 -3.0542 -0.4811 -0.6735
  562MOL0     H75853   2.033   4.214   7.255  0.3478 -0.9002  0.0307
  562MOL0     H75854   1.485   3.708   6.612 -1.2674  0.5220 -0.0736
  562MOL0     H75855   1.387   3.522   6.483  0.5997  0.2653  3.0417
  562MOL0     H75856   1.649   3.053   6.211  0.2654  0.1337 -1.8717
  562MOL0     H75857   1.542   2.844   6.173 -0.1531 -0.2546 -1.2222
  562MOL0     H75858   1.390   2.646   6.062  0.8263  1.8866  0.7287
  562MOL0     H75859   1.429   2.779   5.971  1.4358 -2.3738 -1.6359
  562MOL0     H75860   1.218   2.764   5.847 -2.2860 -0.4662  0.5794
  562MOL0     H75861   1.151   2.658   5.964  1.3842 -0.2946 -0.2493
  562MOL0     H75862   1.288   2.480   5.919 -0.6749 -1.8230 -1.8095
  562MOL0     H75863   1.394   2.577   5.808 -0.6416  1.2440  0.2973
  562MOL0     H75864   1.115   2.455   5.775  1.1768 -4.2779 -2.0266
  562MOL0     H75865   1.171   2.573   5.667  1.0718  0.5800  0.3134
  562MOL0     H75866   1.424   2.233   5.578 -2.7282 -2.3264 -0.6623
  562MOL0     H75867   1.156   3.015   6.212  0.5201 -1.3583 -0.0538
  562MOL0     H75868   1.237   3.345   6.194  1.3706 -0.3713  0.9252
  562MOL0     H75869   1.134   3.241   6.286 -0.3745  1.6504  2.2431
  562MOL0     H75870   1.267   3.328   6.366  4.2444  1.3437 -1.7628
  563MOL0     O75871   5.139   2.841  11.143  0.1699  0.4604 -0.0137
  563MOL0     C75872   5.089   2.764  11.226  0.2678  0.9757 -0.9813
  563MOL0     O75873   5.121   2.627  11.244  0.0355 -0.4355 -0.4258
  563MOL0     C75874   5.239   2.577  11.204  0.9538 -0.3477 -1.2237
  563MOL0     C75875   5.236   2.440  11.202 -0.6633  0.4091 -0.2001
  563MOL0     C75876   5.348   2.370  11.163 -0.0901  0.1500 -1.1032
  563MOL0     C75877   5.464   2.435  11.136 -0.3836 -0.4760 -0.0395
  563MOL0     O75878   5.586   2.359  11.116  0.2806  0.0842 -0.5199
  563MOL0     C75879   5.686   2.394  11.020 -0.0141  0.2158 -0.3455
  563MOL0     C75880   5.679   2.320  10.887  0.0869  1.0191  0.3970
  563MOL0     C75881   5.750   2.186  10.864  0.1812  1.1031 -0.2980
  563MOL0     C75882   5.745   2.080  10.983 -0.4048  0.1184  0.6074
  563MOL0     C75883   5.616   2.008  11.000  0.8231  0.4851  0.5083
  563MOL0     C75884   5.566   1.940  10.871 -0.0139 -1.0366  0.7199
  563MOL0     C75885   5.670   1.859  10.783  0.9457  0.0769 -0.1522
  563MOL0     C75886   5.722   1.747  10.881  0.9430  0.4819  0.5633
  563MOL0     N75887   5.807   1.638  10.810  0.5207  0.9205  0.3341
  563MOL0     C75888   5.839   1.507  10.853 -0.0639 -0.7048 -0.5347
  563MOL0     C75889   5.900   1.453  10.746 -0.4940  0.1419  0.5220
  563MOL0     C75890   5.933   1.299  10.747 -0.0840 -0.2075 -0.1451
  563MOL0     C75891   6.007   1.274  10.621 -0.4615 -0.6883 -0.6205
  563MOL0     C75892   6.029   1.124  10.595  0.0014  0.4283  0.0862
  563MOL0     C75893   6.118   1.063  10.704  0.1717 -0.1906 -0.6188
  563MOL0     O75894   6.112   0.920  10.685 -0.1552  0.0108 -1.3662
  563MOL0     C75895   6.200   0.822  10.740  0.7379  0.1626  0.2290
  563MOL0     C75896   6.321   0.846  10.803 -0.7875  0.0154  0.5539
  563MOL0     C75897   6.391   0.739  10.854 -0.1678 -0.3879  0.1314
  563MOL0     C75898   6.357   0.610  10.816 -0.6514 -0.9418 -0.4861
  563MOL0     C75899   6.437   0.493  10.866  0.0791  0.1966 -0.2139
  563MOL0     O75900   6.562   0.530  10.910  0.3352  0.2906 -1.1837
  563MOL0     C75901   6.635   0.442  10.979 -0.2505 -0.0267  0.0194
  563MOL0     C75902   6.674   0.319  10.919 -0.0602 -0.2415 -0.1471
  563MOL0     C75903   6.749   0.232  10.987 -1.5082  0.2957 -0.7003
  563MOL0     C75904   6.813   0.269  11.107  0.2749 -0.3021  0.4418
  563MOL0     O75905   6.913   0.178  11.150  0.7363 -0.0314  0.2838
  563MOL0     C75906   6.935   0.168  11.293  0.1927 -1.0499  1.1456
  563MOL0     C75907   7.009   0.041  11.330  0.0819 -0.0667  0.4999
  563MOL0     C75908   7.147   0.046  11.261  0.9641  0.2489  0.3061
  563MOL0     C75909   7.206  -0.098  11.269  0.2463 -0.7483  0.2634
  563MOL0     C75910   7.342  -0.089  11.211  0.9863  0.2209 -0.3757
  563MOL0     C75911   7.400  -0.228  11.183  0.0785 -0.1102  1.0668
  563MOL0     C75912   7.539  -0.204  11.128 -0.4925  0.0502  0.7483
  563MOL0     C75913   7.618  -0.334  11.101 -0.1058  0.1387 -0.5463
  563MOL0    Cl75914   7.508  -0.455  11.009  0.1375 -0.2949 -0.2601
  563MOL0     C75915   6.781   0.394  11.177  0.1040 -0.4119  0.4988
  563MOL0     C75916   6.681   0.477  11.108  0.1068  0.1587 -0.5092
  563MOL0     O75917   6.401   0.373  10.857  0.4051 -0.2201  0.1340
  563MOL0     C75918   6.247   0.580  10.739 -0.7999 -1.5137 -0.6333
  563MOL0     C75919   6.161   0.691  10.708  0.0571  0.2373 -0.6568
  563MOL0     N75920   5.905   1.543  10.647  0.3506 -0.4462 -0.5766
  563MOL0     N75921   5.840   1.649  10.678 -0.5091  0.1357 -0.9402
  563MOL0     C75922   5.468   2.573  11.143 -0.5641 -0.0965  0.6789
  563MOL0     C75923   5.358   2.643  11.177  1.1744 -0.2294  0.4363
  563MOL0     C75924   4.958   2.813  11.286  0.3092  0.5923 -0.6287
  563MOL0     C75925   4.883   2.917  11.226 -0.2782  0.1426  0.3341
  563MOL0     C75926   4.759   2.956  11.270  0.2001  0.5317 -0.7360
  563MOL0     C75927   4.700   2.896  11.381 -0.6936  0.4409 -0.4772
  563MOL0     O75928   4.576   2.942  11.416  0.5274  0.3535  0.0453
  563MOL0     C75929   4.516   2.894  11.547 -0.8726 -0.3321  0.5309
  563MOL0     C75930   4.410   2.993  11.591  0.5928 -0.2424  0.2058
  563MOL0     C75931   4.291   3.031  11.504 -0.4074 -0.2181 -0.2751
  563MOL0     C75932   4.199   3.136  11.575 -0.2780 -0.0868 -0.5832
  563MOL0     C75933   4.248   3.275  11.580 -0.1256 -0.2263 -0.4228
  563MOL0     C75934   4.284   3.393  11.582 -0.6276  0.5556 -0.7954
  563MOL0     C75935   4.769   2.794  11.450  0.1427  0.3513  1.7570
  563MOL0     C75936   4.898   2.755  11.409 -1.2838  0.0509  0.8389
  563MOL0     C75937   4.974   2.658  11.495  0.1495  0.8804  0.4060
  563MOL0     H75938   5.138   2.395  11.216  0.3171 -1.2760  1.6451
  563MOL0     H75939   5.348   2.262  11.169 -0.7192  0.1201 -1.5449
  563MOL0     H75940   5.679   2.499  10.992 -0.6121  0.3258  0.1928
  563MOL0     H75941   5.781   2.386  11.073 -2.0570 -0.5760  3.4985
  563MOL0     H75942   5.705   2.382  10.801 -1.5984 -2.0723 -2.5619
  563MOL0     H75943   5.576   2.289  10.867  0.9442  0.0127 -3.1349
  563MOL0     H75944   5.853   2.207  10.835  0.0976 -0.8492 -2.3242
  563MOL0     H75945   5.699   2.143  10.777  1.6429 -2.7469  0.5456
  563MOL0     H75946   5.831   2.013  10.974  0.0979  0.5520  1.9396
  563MOL0     H75947   5.748   2.147  11.070 -3.0823  0.9167  0.1915
  563MOL0     H75948   5.634   1.932  11.077  3.2687  2.0912  1.6636
  563MOL0     H75949   5.543   2.082  11.034  0.3136 -0.3821  1.3735
  563MOL0     H75950   5.480   1.876  10.893 -2.0214  0.9273 -0.8313
  563MOL0     H75951   5.521   2.020  10.810 -0.5519 -1.8440  0.0257
  563MOL0     H75952   5.756   1.921  10.756 -0.1059  1.9025  0.5163
  563MOL0     H75953   5.619   1.817  10.695 -0.1552  1.4312 -0.1973
  563MOL0     H75954   5.783   1.780  10.966  0.6654 -0.9840  1.3701
  563MOL0     H75955   5.632   1.694  10.915 -0.7061  1.0132 -2.6368
  563MOL0     H75956   5.834   1.457  10.949  2.2287 -0.2918 -0.1604
  563MOL0     H75957   5.999   1.283  10.833 -0.6572  0.3030  0.3985
  563MOL0     H75958   5.840   1.242  10.755  0.2948 -0.8690 -0.3514
  563MOL0     H75959   5.937   1.302  10.541  1.4351  0.3212 -1.9990
  563MOL0     H75960   6.095   1.339  10.620 -0.6278 -0.4661 -2.2551
  563MOL0     H75961   6.085   1.130  10.501  3.6221 -0.6284  1.9733
  563MOL0     H75962   5.939   1.065  10.578 -0.4845  1.3254 -0.5450
  563MOL0     H75963   6.078   1.071  10.805 -0.3469 -0.2722 -0.8119
  563MOL0     H75964   6.209   1.122  10.711 -1.3260  1.9619  3.2012
  563MOL0     H75965   6.348   0.951  10.813 -1.6487  0.2007  1.0343
  563MOL0     H75966   6.479   0.767  10.911  0.1097  2.1608 -1.4029
  563MOL0     H75967   6.645   0.287  10.819  1.5587 -1.3260 -0.3023
  563MOL0     H75968   6.778   0.138  10.942  1.0497  0.8015 -0.2668
  563MOL0     H75969   6.997   0.251  11.331 -0.1565 -0.6998  0.9593
  563MOL0     H75970   6.838   0.176  11.343 -0.2588  2.6804  0.0100
  563MOL0     H75971   7.034   0.032  11.437  1.1379 -2.2464  0.1357
  563MOL0     H75972   6.935  -0.031  11.295 -0.9643 -0.3643  3.0741
  563MOL0     H75973   7.133   0.074  11.156  2.8857 -0.1149 -0.0821
  563MOL0     H75974   7.214   0.125  11.294  1.2410 -1.0255  3.1075
  563MOL0     H75975   7.141  -0.159  11.206  0.2098  0.4780 -0.9282
  563MOL0     H75976   7.214  -0.133  11.372 -0.4263  2.9419  1.7094
  563MOL0     H75977   7.399  -0.031  11.285 -2.7534  0.1239  2.8835
  563MOL0     H75978   7.345  -0.027  11.121 -1.7199 -1.5967 -1.8697
  563MOL0     H75979   7.409  -0.287  11.275  3.6896 -2.9233 -0.8443
  563MOL0     H75980   7.328  -0.274  11.115  0.6580  1.4778 -0.6849
  563MOL0     H75981   7.590  -0.142  11.202 -1.9647 -1.1886  2.9181
  563MOL0     H75982   7.531  -0.152  11.033 -1.8496  0.1886  0.9204
  563MOL0     H75983   7.716  -0.317  11.055  3.5475 -5.7181  3.7768
  563MOL0     H75984   7.645  -0.377  11.198  1.6920  1.1669 -0.5430
  563MOL0     H75985   6.823   0.412  11.276 -1.5426  0.4256  1.0914
  563MOL0     H75986   6.645   0.563  11.162 -0.1068 -1.3843  1.9835
  563MOL0     H75987   6.215   0.481  10.708  0.8354 -2.9130  1.7771
  563MOL0     H75988   6.071   0.680  10.648  0.8860  0.8230 -2.0565
  563MOL0     H75989   5.559   2.630  11.128 -2.4447  2.2382 -4.1745
  563MOL0     H75990   5.364   2.750  11.165  0.6682  0.0729  2.5386
  563MOL0     H75991   4.924   2.967  11.138  1.1010 -0.9871  0.2978
  563MOL0     H75992   4.706   3.033  11.216 -0.0021  0.4097 -0.7131
  563MOL0     H75993   4.595   2.875  11.620  1.0176 -2.6362 -1.8695
  563MOL0     H75994   4.482   2.791  11.531 -0.7349 -0.5097  1.3475
  563MOL0     H75995   4.463   3.088  11.599 -4.2116  2.8452 -0.4465
  563MOL0     H75996   4.377   2.961  11.690  2.0889  1.0539  1.1586
  563MOL0     H75997   4.239   2.936  11.492  0.3208 -0.4809 -1.6725
  563MOL0     H75998   4.331   3.075  11.411 -0.7336  0.2114 -0.2142
  563MOL0     H75999   4.111   3.139  11.510 -0.8279  1.6445  0.2113
  563MOL0     H76000   4.164   3.116  11.676 -0.4605  1.5974 -0.2856
  563MOL0     H76001   4.324   3.493  11.585  1.2018 -0.1433  1.7011
  563MOL0     H76002   4.734   2.751  11.544  1.0218 -0.2075  1.8403
  563MOL0     H76003   5.081   2.679  11.493  0.6041 -1.2724 -0.2934
  563MOL0     H76004   4.935   2.675  11.596 -0.0957 -1.0410  0.6769
  563MOL0     H76005   4.956   2.556  11.458  2.2334  1.4387 -2.4586
  564MOL0     O76006   0.050   4.940  10.392  0.5178  0.4114 -0.0438
  564MOL0     C76007   0.028   5.058  10.406  0.3494  0.6813  0.2627
  564MOL0     O76008  -0.081   5.101  10.468 -0.3066 -0.4606  0.1587
  564MOL0     C76009  -0.163   5.017  10.531  0.1501  0.0199 -0.4067
  564MOL0     C76010  -0.293   5.042  10.526 -0.1939  0.7932  0.0550
  564MOL0     C76011  -0.381   4.948  10.591  0.5110  0.4290  1.3014
  564MOL0     C76012  -0.335   4.847  10.682  0.1340  0.8610 -0.4708
  564MOL0     O76013  -0.411   4.767  10.764 -0.2134 -0.7395  0.3258
  564MOL0     C76014  -0.545   4.812  10.805 -0.0391  0.8226  0.4483
  564MOL0     C76015  -0.589   4.701  10.909  0.0362  1.2536 -0.6174
  564MOL0     C76016  -0.523   4.724  11.048  0.1676  0.1159  0.1816
  564MOL0     C76017  -0.519   4.603  11.136 -0.2874  0.0777 -0.2044
  564MOL0     C76018  -0.431   4.482  11.094 -1.1006 -0.0812  0.3238
  564MOL0     C76019  -0.422   4.383  11.210  0.0592 -0.3314 -0.3830
  564MOL0     C76020  -0.314   4.274  11.209 -0.4060  0.0879 -0.7108
  564MOL0     C76021  -0.331   4.140  11.286 -0.1676  0.2382  0.5509
  564MOL0     N76022  -0.367   4.155  11.422  1.0469 -0.3213 -0.3717
  564MOL0     C76023  -0.293   4.118  11.529  0.6135 -0.7436  1.2470
  564MOL0     C76024  -0.383   4.126  11.629  0.0012 -1.1644  0.3250
  564MOL0     C76025  -0.350   4.094  11.770 -0.6983  0.5456  0.0282
  564MOL0     C76026  -0.432   3.986  11.826  0.1619 -0.1339 -0.7696
  564MOL0     C76027  -0.398   3.923  11.973  0.4083 -0.5353 -0.2288
  564MOL0     C76028  -0.270   3.998  12.042 -0.4734 -0.2857  0.2704
  564MOL0     O76029  -0.269   3.972  12.182 -0.3169 -0.1311 -0.2398
  564MOL0     C76030  -0.355   4.043  12.263  0.3880 -0.0560  0.1481
  564MOL0     C76031  -0.453   4.144  12.221 -0.0879 -0.8666 -0.5328
  564MOL0     C76032  -0.544   4.204  12.315 -0.2731 -0.9402 -0.6599
  564MOL0     C76033  -0.531   4.176  12.451  1.3481 -0.2687  0.0980
  564MOL0     C76034  -0.623   4.234  12.551  0.3667  0.2113  0.0562
  564MOL0     O76035  -0.606   4.205  12.681 -0.6972  1.2205 -0.1843
  564MOL0     C76036  -0.637   4.276  12.796  0.4759  0.5084  0.2763
  564MOL0     C76037  -0.638   4.413  12.793 -1.4677  0.0894 -0.4056
  564MOL0     C76038  -0.669   4.472  12.919 -0.3935 -0.2555  0.3758
  564MOL0     C76039  -0.706   4.404  13.026 -0.6589  0.5471 -0.9857
  564MOL0     O76040  -0.752   4.480  13.131  0.4483 -0.2114 -0.1175
  564MOL0     C76041  -0.775   4.435  13.274  0.2591  0.2162  0.3140
  564MOL0     C76042  -0.654   4.366  13.346 -0.2751  0.2695 -0.5728
  564MOL0     C76043  -0.517   4.418  13.320  0.0434 -0.0760  0.8816
  564MOL0     C76044  -0.448   4.302  13.264 -0.5232  0.0568  0.4517
  564MOL0     C76045  -0.294   4.310  13.230 -0.1673  0.0754 -0.7393
  564MOL0     C76046  -0.251   4.227  13.112  0.8214  0.2637 -0.6631
  564MOL0     C76047  -0.106   4.264  13.078  0.3849  0.8102 -0.4162
  564MOL0     C76048   0.001   4.225  13.186  1.2336 -0.1053 -0.3619
  564MOL0    Cl76049   0.035   4.046  13.188 -0.0792  0.2520  0.2755
  564MOL0     C76050  -0.725   4.268  13.017 -0.4917 -0.1233  0.6968
  564MOL0     C76051  -0.679   4.205  12.903  1.0179 -0.1402 -0.8636
  564MOL0     O76052  -0.706   4.314  12.503  0.7329 -0.0945 -0.4279
  564MOL0     C76053  -0.439   4.077  12.494 -0.6651  0.3228 -0.7866
  564MOL0     C76054  -0.350   4.016  12.400 -0.3407 -0.2650  0.5507
  564MOL0     N76055  -0.506   4.161  11.587  0.5958  1.0854  0.8431
  564MOL0     N76056  -0.499   4.173  11.464 -0.3475 -0.3974  0.1924
  564MOL0     C76057  -0.201   4.839  10.701  0.1200 -0.1446  0.2022
  564MOL0     C76058  -0.111   4.919  10.626 -0.7792 -0.2770 -0.4787
  564MOL0     C76059   0.107   5.168  10.356  0.0869  0.8425  0.2719
  564MOL0     C76060   0.118   5.278  10.434 -0.8035 -0.4006 -0.0132
  564MOL0     C76061   0.205   5.393  10.396  1.0922  0.0124 -0.2715
  564MOL0     C76062   0.277   5.382  10.288 -0.5620 -0.3230  0.2100
  564MOL0     O76063   0.355   5.492  10.253  0.1089  0.3624  0.0182
  564MOL0     C76064   0.475   5.463  10.184  0.2022  0.4555  0.3243
  564MOL0     C76065   0.508   5.597  10.104  1.0224 -0.0871 -0.4809
  564MOL0     C76066   0.640   5.572  10.022 -0.8730 -0.7586 -0.0174
  564MOL0     C76067   0.671   5.698   9.940 -0.2903 -0.3218 -0.2805
  564MOL0     C76068   0.707   5.816  10.023  0.1341  0.2646 -0.7480
  564MOL0     C76069   0.750   5.908  10.095 -0.1107  0.2010 -0.0061
  564MOL0     C76070   0.264   5.265  10.211  0.1341 -0.5937  0.2059
  564MOL0     C76071   0.178   5.159  10.243  0.5314  0.6100  0.0607
  564MOL0     C76072   0.181   5.036  10.143 -0.2165 -0.2463  1.1789
  564MOL0     H76073  -0.336   5.120  10.465 -0.6164  0.4274 -0.1197
  564MOL0     H76074  -0.488   4.966  10.583  0.5428  1.2544  2.4684
  564MOL0     H76075  -0.539   4.907  10.858  1.3339 -0.2851  2.3840
  564MOL0     H76076  -0.609   4.817  10.716 -1.3687 -1.2333  1.2122
  564MOL0     H76077  -0.576   4.600  10.869  0.4820  2.1856 -2.9938
  564MOL0     H76078  -0.698   4.703  10.920 -0.1751 -2.8493 -0.5441
  564MOL0     H76079  -0.573   4.803  11.105  1.4007  0.9651  0.1492
  564MOL0     H76080  -0.420   4.758  11.028  1.4307 -2.7417  1.3514
  564MOL0     H76081  -0.478   4.627  11.235  0.6880 -0.6417 -0.4263
  564MOL0     H76082  -0.621   4.571  11.159 -0.0421 -1.1978 -0.7875
  564MOL0     H76083  -0.472   4.442  11.001 -0.8549 -0.8970  0.5613
  564MOL0     H76084  -0.329   4.514  11.071 -1.3251  1.1990  0.9871
  564MOL0     H76085  -0.409   4.427  11.309  0.9350 -1.1728 -0.1019
  564MOL0     H76086  -0.517   4.329  11.203 -0.4687  0.6630 -1.2713
  564MOL0     H76087  -0.229   4.322  11.258 -3.0898 -0.3734  5.1678
  564MOL0     H76088  -0.290   4.240  11.108 -1.7465 -1.4216 -0.5627
  564MOL0     H76089  -0.413   4.085  11.238  1.1277 -1.5843  0.3346
  564MOL0     H76090  -0.242   4.078  11.276  0.4168  0.3586  3.8314
  564MOL0     H76091  -0.192   4.079  11.518  0.9362  0.1869  0.8648
  564MOL0     H76092  -0.246   4.059  11.767 -0.6432  0.4863  1.5182
  564MOL0     H76093  -0.351   4.184  11.833  1.8946  0.4704  0.3112
  564MOL0     H76094  -0.534   4.021  11.844  1.1455  1.0188  3.7669
  564MOL0     H76095  -0.422   3.907  11.751 -2.0179 -0.8467 -0.3663
  564MOL0     H76096  -0.378   3.816  11.970 -1.2407 -0.8884  0.5384
  564MOL0     H76097  -0.487   3.939  12.035 -0.0645 -2.3470 -0.4096
  564MOL0     H76098  -0.279   4.107  12.033 -1.9071 -0.4435 -0.4147
  564MOL0     H76099  -0.184   3.955  11.990 -0.6235 -1.8010  1.2254
  564MOL0     H76100  -0.459   4.177  12.117  0.1181 -3.0916 -1.3023
  564MOL0     H76101  -0.616   4.278  12.281  2.1503  1.9253  0.0604
  564MOL0     H76102  -0.620   4.478  12.708 -2.8265  0.8669 -0.1285
  564MOL0     H76103  -0.674   4.581  12.922  3.3012  0.1687 -2.1618
  564MOL0     H76104  -0.798   4.533  13.317  1.2445 -0.3185  2.1146
  564MOL0     H76105  -0.867   4.375  13.277  0.2488  0.2208  0.1200
  564MOL0     H76106  -0.666   4.386  13.453 -0.5098 -3.3060  0.1912
  564MOL0     H76107  -0.663   4.257  13.340  0.9437  0.1640 -0.8286
  564MOL0     H76108  -0.509   4.504  13.253 -3.4321 -1.4155 -1.5647
  564MOL0     H76109  -0.464   4.441  13.413  0.6637 -4.1867  1.7522
  564MOL0     H76110  -0.499   4.280  13.169  2.6854  2.6366 -2.0835
  564MOL0     H76111  -0.462   4.209  13.321 -0.3466 -0.7721 -0.8020
  564MOL0     H76112  -0.234   4.293  13.320 -2.2138 -1.9700  0.3287
  564MOL0     H76113  -0.272   4.414  13.205  2.0084 -0.1067  0.1093
  564MOL0     H76114  -0.256   4.121  13.139  2.6429  0.4169  0.4436
  564MOL0     H76115  -0.323   4.237  13.030  0.7215 -1.3846 -0.8133
  564MOL0     H76116  -0.093   4.372  13.063  2.2898  0.4360 -1.8260
  564MOL0     H76117  -0.081   4.207  12.988 -1.6589 -2.8364  1.0933
  564MOL0     H76118   0.093   4.280  13.163  0.8753  1.4008  1.5668
  564MOL0     H76119  -0.037   4.255  13.284 -0.7653  0.2488 -1.1857
  564MOL0     H76120  -0.750   4.206  13.104 -1.5042 -1.1049 -0.2547
  564MOL0     H76121  -0.702   4.099  12.900 -2.4349  0.4924 -0.6728
  564MOL0     H76122  -0.440   4.048  12.599 -1.3561  0.0405 -0.8733
  564MOL0     H76123  -0.280   3.939  12.429  1.0480  1.9207  3.6469
  564MOL0     H76124  -0.162   4.767  10.771  1.5858 -0.6177 -1.0497
  564MOL0     H76125  -0.008   4.904  10.659 -1.8902 -3.4197  2.1927
  564MOL0     H76126   0.068   5.285  10.531  0.9398  0.6716  0.8590
  564MOL0     H76127   0.215   5.486  10.452 -2.6815 -0.8392  2.1476
  564MOL0     H76128   0.474   5.376  10.118  0.6725 -0.4637  1.4996
  564MOL0     H76129   0.541   5.437  10.267 -1.1811 -3.0441  0.4828
  564MOL0     H76130   0.520   5.681  10.173 -2.4526  0.4465 -0.3165
  564MOL0     H76131   0.429   5.625  10.033  1.4576  3.6160  0.3354
  564MOL0     H76132   0.630   5.496   9.943  0.1853  0.8852 -1.8251
  564MOL0     H76133   0.719   5.558  10.096 -0.3260 -2.5502 -0.8861
  564MOL0     H76134   0.748   5.696   9.862  1.0345  1.2184  0.9216
  564MOL0     H76135   0.582   5.723   9.881 -0.4012 -0.1935 -0.0599
  564MOL0     H76136   0.784   5.999  10.140 -3.5598  2.0172 -0.7698
  564MOL0     H76137   0.310   5.251  10.114 -1.6812  0.4446 -0.8729
  564MOL0     H76138   0.088   5.015  10.090  0.4290 -2.7099  0.9137
  564MOL0     H76139   0.268   5.036  10.077  0.7292  0.4194  2.3789
  564MOL0     H76140   0.186   4.946  10.204 -0.0785  0.6952  2.6089
  565MOL0     O76141   5.453  10.812   6.177  0.3199 -1.0904 -0.3972
  565MOL0     C76142   5.476  10.697   6.173  0.6880 -0.2657  0.0808
  565MOL0     O76143   5.556  10.644   6.079 -0.1103 -0.2662  0.0704
  565MOL0     C76144   5.603  10.704   5.970  0.0172 -0.0495 -0.0748
  565MOL0     C76145   5.630  10.842   5.954 -0.2512  0.5343  0.2679
  565MOL0     C76146   5.677  10.898   5.834  0.3205 -0.4960 -0.6384
  565MOL0     C76147   5.713  10.813   5.729 -0.0967  1.1867  0.0224
  565MOL0     O76148   5.766  10.874   5.618  0.4114  0.5258  1.1086
  565MOL0     C76149   5.820  10.790   5.516 -0.3894  0.2227  0.7431
  565MOL0     C76150   5.909  10.876   5.435 -0.2731 -0.1974 -0.1919
  565MOL0     C76151   5.851  10.994   5.364  0.1121 -0.1298 -0.3544
  565MOL0     C76152   5.722  10.984   5.296  0.0189 -0.3889 -0.2682
  565MOL0     C76153   5.675  11.123   5.228  0.0586  0.5053 -1.0171
  565MOL0     C76154   5.623  11.222   5.329  0.4593 -0.4957 -0.1033
  565MOL0     C76155   5.594  11.365   5.273  0.1587  0.6096  0.7086
  565MOL0     C76156   5.583  11.379   5.117  0.2372 -0.3144  0.4153
  565MOL0     N76157   5.540  11.511   5.090 -0.1949 -0.3366 -0.5562
  565MOL0     C76158   5.427  11.578   5.138 -0.5596  0.9622 -0.0165
  565MOL0     C76159   5.443  11.705   5.101  0.7580  0.5974  0.1478
  565MOL0     C76160   5.354  11.827   5.091 -0.0088 -0.0544  0.1813
  565MOL0     C76161   5.253  11.830   5.209 -0.3197 -0.8343  0.6265
  565MOL0     C76162   5.203  11.978   5.224  0.1001  0.6328 -0.6232
  565MOL0     C76163   5.167  12.000   5.377 -0.7447 -0.0337  0.3783
  565MOL0     O76164   5.065  12.094   5.385  0.1272  0.4170 -1.3462
  565MOL0     C76165   5.096  12.231   5.389  0.4356  0.0110  0.0349
  565MOL0     C76166   5.217  12.288   5.441  0.1007  0.1077  0.8338
  565MOL0     C76167   5.236  12.423   5.461 -0.6935 -0.8626  0.6394
  565MOL0     C76168   5.123  12.511   5.438 -1.0107 -0.3106  0.3562
  565MOL0     C76169   5.122  12.648   5.491  0.0588  0.3569 -0.9689
  565MOL0     O76170   5.010  12.716   5.461  0.2462 -0.3473 -0.4093
  565MOL0     C76171   5.036  12.848   5.420 -0.2813 -0.4268  0.0458
  565MOL0     C76172   5.126  12.885   5.321 -0.5046  0.0887 -0.8887
  565MOL0     C76173   5.112  13.012   5.272  0.3693 -0.2044 -0.5822
  565MOL0     C76174   5.014  13.106   5.315 -0.1256  0.8906  0.7378
  565MOL0     O76175   5.000  13.234   5.250 -0.2476  0.1570  0.5335
  565MOL0     C76176   5.103  13.287   5.162  0.4850  0.2888 -0.0506
  565MOL0     C76177   5.061  13.289   5.016 -0.1152 -0.2219  0.8512
  565MOL0     C76178   5.179  13.328   4.940 -0.1893 -0.6514 -0.0054
  565MOL0     C76179   5.142  13.375   4.790  0.5929  0.0089 -0.6512
  565MOL0     C76180   5.259  13.448   4.708 -0.9750  0.0080  1.0300
  565MOL0     C76181   5.216  13.499   4.567 -0.4462  0.1827  0.8251
  565MOL0     C76182   5.230  13.388   4.451 -0.1936 -0.1425 -0.0655
  565MOL0     C76183   5.217  13.432   4.301  0.4984 -0.6540  0.2954
  565MOL0    Cl76184   5.182  13.306   4.193 -0.3254  0.8133  0.1788
  565MOL0     C76185   4.921  13.066   5.407 -0.1166  1.2246  0.3833
  565MOL0     C76186   4.937  12.934   5.464  1.1404 -0.1806  1.0575
  565MOL0     O76187   5.220  12.696   5.550  0.0724 -0.3901 -0.2487
  565MOL0     C76188   5.009  12.454   5.386  0.9829 -0.1824 -0.4710
  565MOL0     C76189   4.991  12.320   5.358 -0.0743 -0.1738  0.5029
  565MOL0     N76190   5.550  11.705   5.020  0.1986 -0.3906 -0.1916
  565MOL0     N76191   5.612  11.595   5.011  0.6456 -0.5634  0.6430
  565MOL0     C76192   5.704  10.674   5.749  0.2258  0.1517  0.3897
  565MOL0     C76193   5.651  10.624   5.870 -0.4616 -0.3187  0.1742
  565MOL0     C76194   5.444  10.606   6.294  0.2883 -0.2557  0.2907
  565MOL0     C76195   5.510  10.489   6.299 -0.5824  0.5938 -0.4479
  565MOL0     C76196   5.505  10.402   6.403  0.4893 -0.4467 -0.5559
  565MOL0     C76197   5.418  10.432   6.515  0.2571 -0.3099 -0.2039
  565MOL0     O76198   5.385  10.354   6.627 -0.2315  0.4033  0.0968
  565MOL0     C76199   5.436  10.224   6.624  0.2366 -0.0711  0.0689
  565MOL0     C76200   5.350  10.134   6.534  0.0151 -0.7774 -0.4137
  565MOL0     C76201   5.209  10.112   6.594 -0.1716  0.7015 -0.6988
  565MOL0     C76202   5.128   9.999   6.529 -0.1110  0.0314  0.0896
  565MOL0     C76203   5.075  10.036   6.397 -0.3862  0.4436  1.1829
  565MOL0     C76204   5.012  10.054   6.300  0.2363  1.0257  0.3648
  565MOL0     C76205   5.325  10.540   6.494 -0.6150  0.4125  0.5956
  565MOL0     C76206   5.344  10.636   6.396 -0.1866  0.4737  0.3538
  565MOL0     C76207   5.247  10.752   6.392 -0.7822  0.3730 -0.1746
  565MOL0     H76208   5.594  10.917   6.024 -3.1287  0.1542 -0.6813
  565MOL0     H76209   5.673  11.005   5.818 -1.2931 -0.5411 -0.7036
  565MOL0     H76210   5.879  10.710   5.560 -0.7961 -0.7499 -0.4161
  565MOL0     H76211   5.746  10.743   5.451 -1.8393  1.3634  1.4942
  565MOL0     H76212   5.961  10.812   5.363  0.1672 -0.4002  0.3086
  565MOL0     H76213   5.981  10.920   5.504 -1.8131 -0.8260  1.9215
  565MOL0     H76214   5.932  11.030   5.300  0.0901 -0.4299 -0.5521
  565MOL0     H76215   5.848  11.078   5.434  0.5753 -0.8054  0.4926
  565MOL0     H76216   5.731  10.907   5.218  0.7579 -0.4822 -0.0930
  565MOL0     H76217   5.650  10.951   5.372 -1.5284  0.6418 -1.2234
  565MOL0     H76218   5.761  11.171   5.179  0.9981 -0.6179 -0.5189
  565MOL0     H76219   5.594  11.110   5.156 -3.2376  3.8574  1.6321
  565MOL0     H76220   5.535  11.181   5.380 -0.4910  0.3412 -1.0154
  565MOL0     H76221   5.698  11.242   5.406 -1.0855  0.3051  1.2462
  565MOL0     H76222   5.667  11.439   5.309  3.0118 -0.4565 -2.3875
  565MOL0     H76223   5.495  11.383   5.316  0.2095 -1.0992  1.6403
  565MOL0     H76224   5.679  11.344   5.078 -0.7602 -4.0890  0.9416
  565MOL0     H76225   5.503  11.322   5.069  0.2362  0.0767 -0.0455
  565MOL0     H76226   5.345  11.535   5.194  1.0355 -0.9947  0.9955
  565MOL0     H76227   5.426  11.909   5.091  1.9985 -1.4092 -5.1739
  565MOL0     H76228   5.297  11.821   4.998  0.3774  0.2482 -0.0810
  565MOL0     H76229   5.169  11.765   5.185 -1.9045  0.7457  1.5839
  565MOL0     H76230   5.318  11.805   5.293  1.3067  2.1845  0.4199
  565MOL0     H76231   5.117  11.990   5.158  0.5961 -2.3354 -1.9633
  565MOL0     H76232   5.283  12.050   5.204  0.6702  0.1060 -0.2776
  565MOL0     H76233   5.262  12.028   5.423 -0.4224 -0.8086  0.2077
  565MOL0     H76234   5.129  11.902   5.409  0.6256 -0.5935  0.3596
  565MOL0     H76235   5.292  12.221   5.482 -0.4950 -0.9202  0.3065
  565MOL0     H76236   5.318  12.466   5.517  0.7205  0.6355 -2.3801
  565MOL0     H76237   5.188  12.806   5.282 -3.0818 -1.6607 -1.6940
  565MOL0     H76238   5.176  13.033   5.187  1.7349 -1.7328  0.0241
  565MOL0     H76239   5.113  13.391   5.194 -2.5039  0.7445 -0.2657
  565MOL0     H76240   5.198  13.234   5.173 -0.4697 -1.2603  1.0310
  565MOL0     H76241   5.031  13.191   4.978 -2.3441  0.5926  0.3680
  565MOL0     H76242   4.980  13.360   4.999 -0.6792 -1.1998 -0.8471
  565MOL0     H76243   5.231  13.405   4.998 -0.8445  1.1015 -1.6658
  565MOL0     H76244   5.242  13.239   4.933 -0.5817 -0.8142 -2.1317
  565MOL0     H76245   5.052  13.436   4.777 -0.8834 -1.5056  1.7372
  565MOL0     H76246   5.116  13.281   4.740  0.2241 -0.9121  1.1828
  565MOL0     H76247   5.343  13.380   4.690 -2.8349 -1.5674 -2.9123
  565MOL0     H76248   5.292  13.531   4.771  0.9279  0.4278 -0.4469
  565MOL0     H76249   5.116  13.541   4.582  0.8314  2.4396  4.0112
  565MOL0     H76250   5.278  13.582   4.533  2.3583 -1.7971  0.7601
  565MOL0     H76251   5.150  13.317   4.475  0.1395 -0.3818  0.3495
  565MOL0     H76252   5.319  13.326   4.456 -0.1602 -0.5585 -3.3814
  565MOL0     H76253   5.142  13.512   4.293  1.2736 -0.0641 -1.7601
  565MOL0     H76254   5.306  13.475   4.254  2.1858 -2.5582  1.6067
  565MOL0     H76255   4.839  13.130   5.440 -0.5409  0.3036  1.1369
  565MOL0     H76256   4.873  12.890   5.540 -1.7505 -1.9058 -2.0703
  565MOL0     H76257   4.920  12.507   5.355  0.0468  0.1272  2.4903
  565MOL0     H76258   4.901  12.273   5.319  1.1431 -2.2251 -0.0279
  565MOL0     H76259   5.736  10.597   5.679  0.3840  0.5790 -0.0067
  565MOL0     H76260   5.649  10.515   5.874 -0.5348 -0.3585 -0.6539
  565MOL0     H76261   5.570  10.462   6.212 -0.3239 -1.6287  0.3462
  565MOL0     H76262   5.564  10.311   6.412  0.0187 -1.0534 -2.8615
  565MOL0     H76263   5.438  10.166   6.717 -0.6842 -1.0281 -0.4852
  565MOL0     H76264   5.539  10.225   6.586 -0.3927 -1.8697 -1.8648
  565MOL0     H76265   5.402  10.038   6.528 -0.7715 -1.2279 -0.2423
  565MOL0     H76266   5.345  10.164   6.429  1.6613 -1.9135 -0.8574
  565MOL0     H76267   5.161  10.210   6.591  2.5861  2.3010  1.5957
  565MOL0     H76268   5.219  10.084   6.700 -0.6544  0.6827 -0.6577
  565MOL0     H76269   5.187   9.907   6.521 -0.5305 -0.4271  1.9263
  565MOL0     H76270   5.051   9.957   6.595  0.4229  1.9199  1.9902
  565MOL0     H76271   4.946  10.052   6.216  1.5206  2.2063 -0.7269
  565MOL0     H76272   5.244  10.550   6.565  0.6653  1.3308  1.9925
  565MOL0     H76273   5.302  10.831   6.444  0.8531 -0.1984 -0.9620
  565MOL0     H76274   5.227  10.782   6.288 -3.2587  2.8172  0.9046
  565MOL0     H76275   5.157  10.733   6.450  0.0955  0.7981  1.3712
  566MOL0     O76276   4.589  11.246   5.353 -0.2851  0.3730 -0.2029
  566MOL0     C76277   4.602  11.328   5.263 -0.1875  0.1876  0.3542
  566MOL0     O76278   4.688  11.314   5.153 -0.5427 -0.9567  0.5414
  566MOL0     C76279   4.794  11.225   5.171 -0.0863  0.2274 -0.1241
  566MOL0     C76280   4.793  11.096   5.111 -1.1535 -1.2323  0.1066
  566MOL0     C76281   4.923  11.026   5.119  0.6556  0.4406  0.4235
  566MOL0     C76282   5.040  11.083   5.182 -0.2853 -0.3784 -0.4533
  566MOL0     O76283   5.160  11.015   5.189 -0.9534  0.0203  0.0436
  566MOL0     C76284   5.197  10.938   5.075 -0.4275  0.5380  0.3457
  566MOL0     C76285   5.343  10.933   5.045  0.2065 -0.2772  1.2791
  566MOL0     C76286   5.364  10.860   4.911  0.1414 -0.2268  0.4490
  566MOL0     C76287   5.507  10.842   4.869 -0.3112  0.1392  0.3451
  566MOL0     C76288   5.518  10.755   4.743  0.1024 -0.7218 -0.0593
  566MOL0     C76289   5.495  10.608   4.767 -0.1552  0.4046  0.6227
  566MOL0     C76290   5.625  10.535   4.803 -0.2938  0.4446  0.0521
  566MOL0     C76291   5.618  10.381   4.823  0.8107 -0.5748 -0.0456
  566MOL0     N76292   5.587  10.343   4.962 -0.0743 -0.2820 -0.4469
  566MOL0     C76293   5.490  10.248   5.002  0.2956 -0.6614 -0.3860
  566MOL0     C76294   5.521  10.233   5.133  0.3274 -0.1303 -0.1775
  566MOL0     C76295   5.458  10.125   5.210 -0.3310 -0.2628  1.3178
  566MOL0     C76296   5.572  10.035   5.273 -0.4940 -1.1451 -0.0581
  566MOL0     C76297   5.648   9.934   5.179 -0.4013 -0.2865  0.4908
  566MOL0     C76298   5.723   9.827   5.254  0.3015  0.2426 -0.7561
  566MOL0     O76299   5.783   9.881   5.371 -1.5212 -0.3575 -0.3741
  566MOL0     C76300   5.768   9.811   5.488  0.2929  0.3955 -0.1419
  566MOL0     C76301   5.727   9.872   5.607 -1.1398 -0.6196  0.3709
  566MOL0     C76302   5.707   9.803   5.719  0.0858  0.4320  0.2643
  566MOL0     C76303   5.732   9.669   5.730  0.3064  0.2282  0.2578
  566MOL0     C76304   5.715   9.611   5.864  0.1656  0.1504 -1.2525
  566MOL0     O76305   5.720   9.693   5.974 -0.0614 -0.4088 -0.6479
  566MOL0     C76306   5.711   9.645   6.100  0.0729  0.5332 -0.4726
  566MOL0     C76307   5.625   9.542   6.132  0.2932 -0.2629 -0.5055
  566MOL0     C76308   5.623   9.483   6.262  0.2621  0.7946 -0.3456
  566MOL0     C76309   5.706   9.528   6.368 -0.1598 -0.3492  0.4711
  566MOL0     O76310   5.691   9.474   6.490  0.1192  0.0838  0.5564
  566MOL0     C76311   5.800   9.501   6.582  0.2551  0.8874 -0.5276
  566MOL0     C76312   5.782   9.402   6.692  0.2757  0.1637 -0.7877
  566MOL0     C76313   5.910   9.378   6.771  0.3112 -0.3652 -0.2064
  566MOL0     C76314   5.894   9.341   6.918  1.3177 -0.1466  0.3202
  566MOL0     C76315   6.019   9.342   6.990 -0.7280  0.0191 -0.8508
  566MOL0     C76316   6.016   9.275   7.131  0.3285 -0.9504  0.5957
  566MOL0     C76317   6.154   9.240   7.180  0.0991  0.4240  0.0896
  566MOL0     C76318   6.120   9.164   7.309  0.0606  0.5581 -0.2002
  566MOL0    Cl76319   6.260   9.137   7.409 -0.0028 -0.6175  0.3525
  566MOL0     C76320   5.805   9.622   6.328 -0.2583 -0.1643  0.9706
  566MOL0     C76321   5.802   9.685   6.203  0.5793 -0.7253  0.0334
  566MOL0     O76322   5.681   9.490   5.864 -0.6361  0.1432  0.2912
  566MOL0     C76323   5.773   9.600   5.608  0.2899 -0.2800  0.7643
  566MOL0     C76324   5.803   9.678   5.492 -0.0426  0.7005  0.2393
  566MOL0     N76325   5.623  10.318   5.169  0.0326 -0.7509 -0.0326
  566MOL0     N76326   5.652  10.388   5.071  0.2742 -0.5592  0.0979
  566MOL0     C76327   5.028  11.203   5.249  0.1294 -0.6276  0.4202
  566MOL0     C76328   4.903  11.275   5.239 -0.6087  0.5084  0.4587
  566MOL0     C76329   4.509  11.441   5.264  0.7868 -0.5590  0.1834
  566MOL0     C76330   4.487  11.496   5.140 -0.1076  1.6374 -0.3599
  566MOL0     C76331   4.399  11.599   5.124 -1.6393  0.1571  0.2155
  566MOL0     C76332   4.324  11.646   5.232 -1.0347  0.3320  0.1317
  566MOL0     O76333   4.235  11.744   5.202 -0.0585 -0.5789 -0.4783
  566MOL0     C76334   4.193  11.833   5.304  0.1657 -0.1847 -0.3848
  566MOL0     C76335   4.295  11.948   5.330  0.4828  0.0562  0.4199
  566MOL0     C76336   4.238  12.087   5.343 -0.4557 -0.0941  0.0012
  566MOL0     C76337   4.334  12.199   5.389  0.5941  0.2852 -0.1521
  566MOL0     C76338   4.471  12.204   5.333  0.4980 -0.1916  0.5858
  566MOL0     C76339   4.572  12.203   5.266 -0.9328 -0.0122 -0.4553
  566MOL0     C76340   4.349  11.592   5.364 -0.4509  0.1572  0.6669
  566MOL0     C76341   4.443  11.493   5.376 -0.0282 -0.0330 -0.7828
  566MOL0     C76342   4.470  11.447   5.517  0.0342 -1.0929  0.2411
  566MOL0     H76343   4.699  11.062   5.068 -0.4612 -3.2019  0.0791
  566MOL0     H76344   4.929  10.926   5.078 -2.9189 -0.1272  0.9236
  566MOL0     H76345   5.155  10.839   5.094 -1.2044  1.4337  4.1062
  566MOL0     H76346   5.142  10.981   4.990 -1.8638  2.1940  2.0094
  566MOL0     H76347   5.393  10.873   5.122  2.7673  0.4283  0.2640
  566MOL0     H76348   5.391  11.031   5.049  2.3076 -0.7636 -3.7268
  566MOL0     H76349   5.310  10.905   4.827  3.4813  2.1064 -0.6535
  566MOL0     H76350   5.324  10.764   4.945 -1.3838  1.4175  3.8494
  566MOL0     H76351   5.561  10.936   4.864  0.9862 -0.5207  1.2491
  566MOL0     H76352   5.561  10.790   4.949  1.4681 -2.1219 -2.1350
  566MOL0     H76353   5.453  10.800   4.667  2.6076 -1.6247 -2.8979
  566MOL0     H76354   5.622  10.774   4.715  0.0315  1.0886  0.7560
  566MOL0     H76355   5.426  10.603   4.852  0.2614 -0.9624  0.8911
  566MOL0     H76356   5.448  10.563   4.679  4.1300 -2.5724 -0.4336
  566MOL0     H76357   5.662  10.582   4.894 -0.2896 -0.7900  0.7026
  566MOL0     H76358   5.695  10.559   4.723  0.4893  0.7224  0.8085
  566MOL0     H76359   5.547  10.331   4.756  0.2450 -0.3524  0.3811
  566MOL0     H76360   5.717  10.341   4.799  1.1201  0.1348  0.0358
  566MOL0     H76361   5.426  10.186   4.940  1.2519 -1.9664 -0.1236
  566MOL0     H76362   5.400  10.181   5.285 -1.5285  0.0466  0.2101
  566MOL0     H76363   5.389  10.065   5.149  0.7595 -0.3553  0.1187
  566MOL0     H76364   5.643  10.088   5.336 -0.8787 -1.6759  0.8369
  566MOL0     H76365   5.514   9.968   5.337 -0.2445 -1.8061 -0.5162
  566MOL0     H76366   5.723   9.992   5.124  1.2827 -2.5506  0.2388
  566MOL0     H76367   5.581   9.899   5.100  0.8421 -1.2566 -0.1921
  566MOL0     H76368   5.801   9.788   5.188  1.7919  2.2926 -0.2918
  566MOL0     H76369   5.645   9.751   5.270 -0.9780  1.4999 -0.8625
  566MOL0     H76370   5.708   9.979   5.607 -0.9523 -0.5819 -0.2166
  566MOL0     H76371   5.684   9.866   5.805  1.9879  1.0648  0.3647
  566MOL0     H76372   5.552   9.495   6.067 -1.7037 -1.8397  2.5975
  566MOL0     H76373   5.540   9.419   6.288 -2.4931  2.7742 -3.4551
  566MOL0     H76374   5.899   9.496   6.537  1.1152  2.8078  0.9855
  566MOL0     H76375   5.786   9.599   6.630  0.6665  0.8781 -0.3860
  566MOL0     H76376   5.697   9.439   6.750 -2.2718 -1.7175 -3.0695
  566MOL0     H76377   5.740   9.308   6.657 -0.1332  0.4880 -1.1940
  566MOL0     H76378   5.980   9.307   6.726  1.1814  0.1266  0.3324
  566MOL0     H76379   5.962   9.474   6.768 -0.5141  0.1376  0.6876
  566MOL0     H76380   5.850   9.242   6.927 -1.3917  0.7564 -1.7657
  566MOL0     H76381   5.814   9.405   6.957 -1.6379 -1.8990 -2.4095
  566MOL0     H76382   6.056   9.445   6.993  1.2225 -0.6084 -1.4444
  566MOL0     H76383   6.091   9.287   6.928 -1.7892 -1.6337 -0.6787
  566MOL0     H76384   5.960   9.350   7.188 -1.0246  0.0464 -1.8460
  566MOL0     H76385   5.952   9.186   7.123 -3.5993  1.7686 -2.5885
  566MOL0     H76386   6.206   9.333   7.201  0.2296  0.2570  0.5191
  566MOL0     H76387   6.218   9.180   7.115  0.8764  0.8641  0.4469
  566MOL0     H76388   6.054   9.226   7.370 -1.1609 -0.6306 -0.2661
  566MOL0     H76389   6.081   9.063   7.296  0.6462 -0.6085  4.9219
  566MOL0     H76390   5.862   9.670   6.406 -0.5687 -1.4200  2.0066
  566MOL0     H76391   5.884   9.753   6.185  0.4348 -1.0882 -2.4749
  566MOL0     H76392   5.802   9.496   5.598 -0.5363 -0.3880 -1.1104
  566MOL0     H76393   5.832   9.624   5.402 -1.4515 -0.8245  0.6548
  566MOL0     H76394   5.108  11.260   5.295  1.8816 -1.8464 -0.9924
  566MOL0     H76395   4.906  11.374   5.283  0.0474 -0.2720  2.2730
  566MOL0     H76396   4.543  11.480   5.049  1.9705  2.9816  0.6013
  566MOL0     H76397   4.391  11.657   5.033 -0.5993  0.5467  0.3638
  566MOL0     H76398   4.169  11.789   5.402 -3.2558  0.5889 -0.7222
  566MOL0     H76399   4.096  11.875   5.275 -0.9087 -1.1418  1.5651
  566MOL0     H76400   4.358  11.950   5.240 -2.8996 -2.1552 -2.2411
  566MOL0     H76401   4.345  11.927   5.425 -0.2573  0.2336  0.8510
  566MOL0     H76402   4.151  12.086   5.409 -2.5131  0.5755 -2.5694
  566MOL0     H76403   4.212  12.116   5.241 -2.8507  0.6601  0.7520
  566MOL0     H76404   4.286  12.297   5.389 -5.9465 -2.3562 -3.2330
  566MOL0     H76405   4.356  12.183   5.495  0.6730 -0.8305 -0.3226
  566MOL0     H76406   4.661  12.191   5.208  1.3988 -0.4365  2.9265
  566MOL0     H76407   4.294  11.627   5.450  0.4963 -0.0764  1.3891
  566MOL0     H76408   4.441  11.342   5.520 -1.5463 -0.6894  0.2923
  566MOL0     H76409   4.575  11.459   5.547  0.5415  3.0209 -2.3321
  566MOL0     H76410   4.411  11.493   5.597 -1.6310 -3.7019  0.6236
  567MOL0     O76411   7.837   1.255   2.113  0.2475  0.1530 -0.1236
  567MOL0     C76412   7.940   1.322   2.083 -0.8065  0.8854  0.5976
  567MOL0     O76413   8.044   1.354   2.169  0.6166 -0.7598 -0.0727
  567MOL0     C76414   8.044   1.349   2.307  0.0002 -0.4964  0.3663
  567MOL0     C76415   7.975   1.275   2.390  0.5665  0.5703  0.3498
  567MOL0     C76416   7.990   1.279   2.532  0.2216 -0.4145  0.1133
  567MOL0     C76417   8.100   1.341   2.586  0.5447  0.6465  0.0433
  567MOL0     O76418   8.132   1.335   2.717 -0.0703  0.3209  0.1302
  567MOL0     C76419   8.035   1.295   2.816 -0.2630 -0.6513 -0.3413
  567MOL0     C76420   8.119   1.292   2.947 -0.4364 -0.2804  0.0147
  567MOL0     C76421   8.125   1.442   2.986 -0.0756 -0.0224 -0.5614
  567MOL0     C76422   8.196   1.454   3.116  0.4976 -0.2340 -0.7805
  567MOL0     C76423   8.195   1.595   3.167 -0.6979 -0.3564 -0.2757
  567MOL0     C76424   8.061   1.634   3.234 -0.9694 -0.2886  0.2896
  567MOL0     C76425   8.004   1.559   3.361  0.2613 -0.5235  0.2712
  567MOL0     C76426   8.108   1.527   3.469  0.2953  0.5328 -0.6169
  567MOL0     N76427   8.044   1.474   3.595 -0.0138  0.7690 -0.2725
  567MOL0     C76428   8.099   1.470   3.720  0.2481 -0.0689  0.4362
  567MOL0     C76429   8.007   1.416   3.805 -0.3952 -0.2841 -0.4134
  567MOL0     C76430   8.011   1.392   3.953  0.0401  0.6903  0.1802
  567MOL0     C76431   7.978   1.509   4.044 -0.2195 -0.5923  0.2681
  567MOL0     C76432   7.850   1.585   4.025  0.4436  1.4297  0.6083
  567MOL0     C76433   7.719   1.509   4.072 -0.0554 -0.1877 -0.5426
  567MOL0     O76434   7.624   1.613   4.101  0.0056  0.3551 -0.4474
  567MOL0     C76435   7.546   1.675   4.003  0.7712 -0.0913 -0.1971
  567MOL0     C76436   7.458   1.773   4.042  0.2458  0.2267 -0.7924
  567MOL0     C76437   7.373   1.844   3.953  0.6237  0.1716  0.6811
  567MOL0     C76438   7.372   1.806   3.813  0.1759 -0.3897 -0.0394
  567MOL0     C76439   7.282   1.862   3.710  0.2806 -0.4256  0.0919
  567MOL0     O76440   7.202   1.961   3.740  0.5966 -0.5399  0.4504
  567MOL0     C76441   7.133   2.011   3.633 -0.0815 -0.0525  0.1940
  567MOL0     C76442   7.011   1.961   3.578  0.2230 -0.5840  0.1365
  567MOL0     C76443   6.942   2.025   3.479  0.2017  0.8797 -0.0969
  567MOL0     C76444   6.998   2.135   3.415  0.3914 -0.5789 -0.8665
  567MOL0     O76445   6.926   2.209   3.317  0.4242 -0.0135  0.5084
  567MOL0     C76446   6.832   2.152   3.231 -0.2847 -0.7435  0.1484
  567MOL0     C76447   6.851   2.238   3.103 -0.1915  0.0692  1.1577
  567MOL0     C76448   6.763   2.190   2.982  0.8744  0.2027 -0.6696
  567MOL0     C76449   6.795   2.288   2.866  0.4017  0.0078  0.1482
  567MOL0     C76450   6.665   2.344   2.799 -0.5262  0.5393 -1.0355
  567MOL0     C76451   6.695   2.472   2.737 -0.4065 -0.1243  0.9247
  567MOL0     C76452   6.768   2.463   2.597  0.3201  0.9333 -0.3174
  567MOL0     C76453   6.757   2.587   2.511 -0.2790  0.4801  0.9547
  567MOL0    Cl76454   6.825   2.727   2.587  0.2439 -0.3148  0.5901
  567MOL0     C76455   7.126   2.191   3.459 -0.1047 -0.1502 -0.0794
  567MOL0     C76456   7.180   2.133   3.571  0.2373  0.0034  0.8353
  567MOL0     O76457   7.308   1.831   3.594  0.4602 -0.1576 -0.1321
  567MOL0     C76458   7.462   1.704   3.770  1.0997  0.2685  1.1462
  567MOL0     C76459   7.543   1.642   3.864 -0.1683  0.1004  0.4505
  567MOL0     N76460   7.898   1.402   3.730  0.1232  0.2088 -0.1043
  567MOL0     N76461   7.914   1.437   3.609 -0.1344  0.1095  0.3255
  567MOL0     C76462   8.180   1.414   2.495  0.3869 -0.1475 -0.4565
  567MOL0     C76463   8.154   1.420   2.360  0.2067  0.0700  0.0677
  567MOL0     C76464   7.955   1.379   1.944  0.0310  0.1132  0.0953
  567MOL0     C76465   8.083   1.416   1.908  0.4084 -0.0447  0.0249
  567MOL0     C76466   8.119   1.482   1.790  1.1251 -0.5422  0.0843
  567MOL0     C76467   8.012   1.505   1.706 -0.2092  0.5932 -0.0480
  567MOL0     O76468   8.039   1.548   1.581 -0.3755  0.5421  0.7249
  567MOL0     C76469   8.022   1.686   1.544  0.1643 -0.7304 -1.0487
  567MOL0     C76470   8.059   1.778   1.658 -0.2976  0.1112 -0.5670
  567MOL0     C76471   8.073   1.921   1.608  0.0834 -0.2902 -0.4495
  567MOL0     C76472   8.142   1.952   1.473 -0.8827  0.2109 -0.1839
  567MOL0     C76473   8.062   1.949   1.358 -0.0209 -0.0397  0.4657
  567MOL0     C76474   7.981   1.970   1.274 -0.7396 -0.2842  0.1692
  567MOL0     C76475   7.886   1.459   1.728  0.8829  0.3204 -0.4626
  567MOL0     C76476   7.849   1.400   1.850 -0.0448 -0.8468  0.0313
  567MOL0     C76477   7.709   1.369   1.878  0.1592  0.5429  0.4165
  567MOL0     H76478   7.887   1.221   2.356  0.6962 -1.9290  3.4858
  567MOL0     H76479   7.917   1.226   2.592  2.9723 -2.4769  1.8931
  567MOL0     H76480   7.948   1.361   2.821  0.3915  0.3197 -1.2451
  567MOL0     H76481   8.008   1.191   2.801 -0.0266 -0.3606 -3.2447
  567MOL0     H76482   8.222   1.255   2.944 -0.6655 -1.0053  0.7178
  567MOL0     H76483   8.062   1.240   3.025 -3.1053  1.6641 -0.4898
  567MOL0     H76484   8.020   1.472   2.993 -0.6868 -1.9446 -0.8781
  567MOL0     H76485   8.170   1.514   2.916 -0.7588  2.9382  1.8222
  567MOL0     H76486   8.155   1.393   3.196  0.9130  1.6858  0.9791
  567MOL0     H76487   8.302   1.438   3.093  1.1359  2.2492  0.0760
  567MOL0     H76488   8.267   1.599   3.249  1.3445 -0.5985 -1.9844
  567MOL0     H76489   8.218   1.674   3.095  1.2597 -0.3898  0.2816
  567MOL0     H76490   8.082   1.730   3.282  2.4697 -1.5778  1.7076
  567MOL0     H76491   7.972   1.646   3.172 -1.1318 -0.0659  0.5623
  567MOL0     H76492   7.956   1.467   3.325  1.4947 -0.8791 -0.5350
  567MOL0     H76493   7.916   1.614   3.394 -2.0962 -1.4793 -3.7094
  567MOL0     H76494   8.177   1.452   3.430 -1.0364 -0.3493 -1.3626
  567MOL0     H76495   8.160   1.618   3.502 -0.4295  0.8398 -0.3038
  567MOL0     H76496   8.207   1.474   3.732  0.1316  1.0687  1.2767
  567MOL0     H76497   7.945   1.310   3.980  1.9118 -1.3984 -1.2192
  567MOL0     H76498   8.110   1.349   3.973 -0.5605 -2.0525 -2.1906
  567MOL0     H76499   8.002   1.494   4.150  0.4214  2.1988  0.5928
  567MOL0     H76500   8.050   1.585   4.013 -1.7624  1.0436  0.5856
  567MOL0     H76501   7.841   1.620   3.922  1.4923 -0.6023 -0.2230
  567MOL0     H76502   7.861   1.674   4.088 -1.7101  1.3054  1.2591
  567MOL0     H76503   7.762   1.456   4.157  1.2992 -1.1190 -1.7628
  567MOL0     H76504   7.676   1.450   3.991 -0.8646  0.0637 -0.3091
  567MOL0     H76505   7.452   1.782   4.151  3.4207  0.3577 -0.5321
  567MOL0     H76506   7.316   1.924   4.001  0.5485  1.2682 -1.1539
  567MOL0     H76507   6.964   1.873   3.619  2.8206 -1.9285  0.4808
  567MOL0     H76508   6.841   1.992   3.459 -0.3863  1.6799  1.4005
  567MOL0     H76509   6.843   2.048   3.201 -2.6190 -0.9931 -0.0431
  567MOL0     H76510   6.727   2.170   3.258  0.0727  1.3416  0.3114
  567MOL0     H76511   6.848   2.347   3.115 -0.6481  0.6040 -2.5664
  567MOL0     H76512   6.953   2.223   3.066 -0.6283  4.2551 -2.7247
  567MOL0     H76513   6.787   2.090   2.945 -0.1074  0.3633 -1.7961
  567MOL0     H76514   6.662   2.217   3.016  1.1805  3.3409 -1.8962
  567MOL0     H76515   6.864   2.242   2.795  2.4957  2.0504  0.7364
  567MOL0     H76516   6.853   2.367   2.914  1.3780 -0.2233 -0.6311
  567MOL0     H76517   6.589   2.362   2.875  0.2929  2.5378 -0.5998
  567MOL0     H76518   6.607   2.281   2.732 -2.7327  1.3981 -0.0214
  567MOL0     H76519   6.604   2.533   2.730  1.3750  2.4857 -1.0863
  567MOL0     H76520   6.751   2.532   2.809  2.4038  0.6708 -1.7256
  567MOL0     H76521   6.733   2.375   2.542  2.4652  1.0443 -1.9658
  567MOL0     H76522   6.875   2.455   2.618 -0.4481  0.2079  4.6023
  567MOL0     H76523   6.808   2.571   2.416 -3.8862  1.8477 -1.4212
  567MOL0     H76524   6.652   2.598   2.481 -0.4698 -2.0574  0.5002
  567MOL0     H76525   7.156   2.289   3.422 -2.2942  1.2678  1.6466
  567MOL0     H76526   7.257   2.184   3.628 -1.5555  3.5495  0.4010
  567MOL0     H76527   7.457   1.659   3.672 -1.2279  2.3513  0.2063
  567MOL0     H76528   7.622   1.580   3.824 -0.9134  0.1001 -1.0989
  567MOL0     H76529   8.263   1.469   2.537 -0.7057 -0.0740  1.7031
  567MOL0     H76530   8.237   1.459   2.302  0.3285  3.6092  2.3641
  567MOL0     H76531   8.160   1.397   1.982 -1.1161  1.7835  2.2092
  567MOL0     H76532   8.217   1.527   1.781  0.5243  0.7078 -0.3790
  567MOL0     H76533   7.920   1.701   1.506  0.4908  1.2040 -1.2969
  567MOL0     H76534   8.096   1.702   1.465 -0.4748  2.5877 -1.1271
  567MOL0     H76535   8.153   1.756   1.709 -0.4725  2.0145  0.6850
  567MOL0     H76536   7.980   1.776   1.734 -0.5985 -0.9149 -0.8943
  567MOL0     H76537   8.129   1.974   1.685 -0.9567  1.3893 -0.7890
  567MOL0     H76538   7.979   1.975   1.623  0.7612  0.5635  0.8568
  567MOL0     H76539   8.184   2.052   1.487  1.1877 -0.8254  1.6329
  567MOL0     H76540   8.231   1.896   1.443 -0.8677  1.5753 -3.1086
  567MOL0     H76541   7.899   1.980   1.205 -0.9926 -1.0879  0.3514
  567MOL0     H76542   7.817   1.467   1.645  2.5990  0.9495 -1.9004
  567MOL0     H76543   7.668   1.421   1.965 -0.7556 -2.2902  1.8010
  567MOL0     H76544   7.652   1.396   1.788  1.6596 -2.4428 -1.6132
  567MOL0     H76545   7.700   1.261   1.890 -0.2651  0.5106 -0.1488
  568MOL0     O76546   7.687  11.051   1.134 -0.8703  0.3607 -0.4400
  568MOL0     C76547   7.732  11.069   1.245  1.3261 -0.3665 -0.2389
  568MOL0     O76548   7.759  11.190   1.305 -0.5057 -0.1020 -0.2512
  568MOL0     C76549   7.736  11.309   1.240 -0.3745  0.2283  0.1995
  568MOL0     C76550   7.644  11.385   1.310  1.3052 -0.3754  0.0518
  568MOL0     C76551   7.623  11.521   1.271 -0.0649  0.3684  0.2411
  568MOL0     C76552   7.700  11.569   1.164 -0.2571 -0.8760 -0.0696
  568MOL0     O76553   7.679  11.699   1.149 -0.4972  0.4084 -0.5196
  568MOL0     C76554   7.801  11.767   1.098  0.7473 -0.2331  0.4945
  568MOL0     C76555   7.796  11.915   1.135  0.0254  0.7053 -0.4703
  568MOL0     C76556   7.805  11.939   1.284 -0.9548 -0.7140  0.0727
  568MOL0     C76557   7.671  11.967   1.362 -0.5220 -0.0984  0.2124
  568MOL0     C76558   7.698  12.024   1.503  0.5872  0.0652 -0.1185
  568MOL0     C76559   7.562  12.087   1.560 -0.8017  0.1204  0.8627
  568MOL0     C76560   7.594  12.147   1.689 -0.1953  0.0917  0.4424
  568MOL0     C76561   7.464  12.225   1.745  0.0806  0.0210  0.3592
  568MOL0     N76562   7.347  12.145   1.754 -0.2664 -0.0503 -0.0507
  568MOL0     C76563   7.239  12.144   1.667 -0.0337 -0.3280  0.8595
  568MOL0     C76564   7.148  12.067   1.721  1.3544  0.0441  0.0677
  568MOL0     C76565   7.005  12.075   1.676  0.0097  0.1730  0.5717
  568MOL0     C76566   6.924  12.205   1.687 -0.6082  0.2847  0.6240
  568MOL0     C76567   6.909  12.253   1.833  0.5037 -0.7384  0.6261
  568MOL0     C76568   6.816  12.162   1.911  1.1653  0.5502 -0.0292
  568MOL0     O76569   6.694  12.133   1.843  0.0882  0.4937 -0.2002
  568MOL0     C76570   6.599  12.100   1.928  0.2425  0.7488 -0.0777
  568MOL0     C76571   6.538  12.194   2.015 -0.6075  0.9917 -0.1682
  568MOL0     C76572   6.439  12.153   2.104 -0.8962  0.9124  0.6975
  568MOL0     C76573   6.390  12.012   2.098 -0.7678  0.2016 -0.9058
  568MOL0     C76574   6.281  11.976   2.188 -1.2191  1.1466 -0.5740
  568MOL0     O76575   6.233  12.078   2.260  0.2816  0.4617 -0.0064
  568MOL0     C76576   6.118  12.062   2.328  1.0373  0.5652  1.2647
  568MOL0     C76577   6.115  12.120   2.456  0.3402  0.0900 -0.3440
  568MOL0     C76578   5.997  12.098   2.538  0.2591 -0.6902  0.4080
  568MOL0     C76579   5.889  12.039   2.476  1.4117 -0.1001  0.6391
  568MOL0     O76580   5.766  12.027   2.529  0.1544 -0.3258 -1.1336
  568MOL0     C76581   5.738  12.067   2.661 -0.3116 -0.1060  0.4081
  568MOL0     C76582   5.769  11.962   2.765  0.2648  0.3217  0.1090
  568MOL0     C76583   5.768  12.025   2.910  0.2638  0.4167  0.1410
  568MOL0     C76584   5.634  12.042   2.970  0.1707  0.2633  0.0824
  568MOL0     C76585   5.608  12.107   3.105 -1.8232 -0.1566  0.3935
  568MOL0     C76586   5.673  12.243   3.113  0.0477 -0.0278  0.5796
  568MOL0     C76587   5.600  12.352   3.025 -0.4570  0.6181 -0.5379
  568MOL0     C76588   5.700  12.428   2.939  0.1496 -0.6285  1.1366
  568MOL0    Cl76589   5.621  12.539   2.821  0.2730 -0.1848 -0.1299
  568MOL0     C76590   5.889  11.992   2.342 -0.1768 -0.1734  0.1565
  568MOL0     C76591   6.006  12.004   2.266  0.2650  1.1254 -0.1387
  568MOL0     O76592   6.238  11.861   2.183  0.0604 -0.8620 -0.9840
  568MOL0     C76593   6.452  11.923   2.013  0.0826  0.3333 -0.4332
  568MOL0     C76594   6.552  11.966   1.921  0.7182 -0.4584 -0.1613
  568MOL0     N76595   7.193  12.024   1.839 -0.0364  0.2310  1.3235
  568MOL0     N76596   7.304  12.080   1.862 -0.6028 -0.4273 -0.8073
  568MOL0     C76597   7.790  11.482   1.094 -0.6526  0.4742  0.4156
  568MOL0     C76598   7.814  11.346   1.131  0.7980 -0.3593 -0.1603
  568MOL0     C76599   7.771  10.947   1.318  0.2837  0.1922  0.4741
  568MOL0     C76600   7.878  10.964   1.408  0.9138  0.5848  0.2609
  568MOL0     C76601   7.913  10.863   1.502  0.3433  0.4010 -0.8875
  568MOL0     C76602   7.865  10.731   1.492  0.0345 -0.0451  0.3482
  568MOL0     O76603   7.915  10.621   1.563  0.4575  0.4305 -0.1352
  568MOL0     C76604   8.047  10.618   1.610 -0.4444  0.2213 -0.9337
  568MOL0     C76605   8.080  10.468   1.639 -0.1685  0.3420 -0.0647
  568MOL0     C76606   8.201  10.438   1.733  0.7404  0.8841  0.2730
  568MOL0     C76607   8.320  10.507   1.675  0.4284  0.0864 -0.5741
  568MOL0     C76608   8.327  10.624   1.751 -0.2520 -0.0486 -0.0102
  568MOL0     C76609   8.342  10.728   1.806 -0.0747 -0.3144  0.1578
  568MOL0     C76610   7.767  10.721   1.390  0.4460 -0.5423 -0.2148
  568MOL0     C76611   7.706  10.826   1.325  0.3785 -0.5516  0.0401
  568MOL0     C76612   7.582  10.804   1.238 -0.7322 -0.5213  0.8278
  568MOL0     H76613   7.582  11.346   1.390  0.4744 -0.2058 -0.4908
  568MOL0     H76614   7.546  11.577   1.322  0.9074  2.1238 -0.1446
  568MOL0     H76615   7.889  11.728   1.149 -0.0925  0.1328  2.2762
  568MOL0     H76616   7.795  11.752   0.989 -0.3413 -1.7377  0.7363
  568MOL0     H76617   7.702  11.956   1.098  0.0360  1.8575  0.7175
  568MOL0     H76618   7.885  11.957   1.086  1.2716 -2.8304 -1.6150
  568MOL0     H76619   7.888  12.007   1.304 -0.6419 -1.2102  0.4531
  568MOL0     H76620   7.833  11.842   1.325 -1.9088 -0.6539  0.9013
  568MOL0     H76621   7.619  12.037   1.296  1.2009  0.5818 -0.4678
  568MOL0     H76622   7.598  11.886   1.367 -0.8463  0.1725 -0.0558
  568MOL0     H76623   7.722  11.943   1.574  0.7166  1.1998  1.1726
  568MOL0     H76624   7.772  12.105   1.503  1.3017 -0.4742 -3.2401
  568MOL0     H76625   7.538  12.155   1.477  4.3790 -2.3585 -3.2877
  568MOL0     H76626   7.482  12.016   1.579 -1.6678  1.7735  4.1259
  568MOL0     H76627   7.674  12.218   1.672 -1.8188  1.7783 -0.5695
  568MOL0     H76628   7.624  12.073   1.764  1.1692 -1.2566 -1.3538
  568MOL0     H76629   7.494  12.264   1.842  1.0876  2.2125 -0.7556
  568MOL0     H76630   7.445  12.300   1.668 -0.9445  1.3084  1.8091
  568MOL0     H76631   7.218  12.202   1.578 -0.9293  1.8786  2.4026
  568MOL0     H76632   7.000  12.055   1.568 -0.7884 -2.4521  1.0100
  568MOL0     H76633   6.947  11.989   1.712  3.0455 -2.2642  0.1565
  568MOL0     H76634   6.984  12.279   1.633 -0.8267 -0.2641 -0.4064
  568MOL0     H76635   6.830  12.195   1.631  0.7585  2.7736 -2.4141
  568MOL0     H76636   6.866  12.353   1.828  0.2276 -0.5280  4.4192
  568MOL0     H76637   7.002  12.276   1.884  0.7505  0.5575 -0.3581
  568MOL0     H76638   6.797  12.214   2.005  3.8014 -1.1678  1.6008
  568MOL0     H76639   6.873  12.070   1.930  1.9096  0.5655 -2.0246
  568MOL0     H76640   6.557  12.300   2.028 -2.4693  1.3600 -0.1864
  568MOL0     H76641   6.397  12.228   2.170 -1.4248  2.2461 -1.0747
  568MOL0     H76642   6.198  12.181   2.489 -0.3090  0.3432  0.8593
  568MOL0     H76643   5.995  12.144   2.637  0.0495 -2.6282  1.3398
  568MOL0     H76644   5.801  12.155   2.682  2.6399 -1.0929 -3.3476
  568MOL0     H76645   5.634  12.100   2.669 -0.1561  1.7724 -3.3415
  568MOL0     H76646   5.691  11.885   2.758 -0.2812  0.7766  0.9522
  568MOL0     H76647   5.869  11.918   2.756 -0.7156 -1.6914 -1.9615
  568MOL0     H76648   5.834  11.962   2.971  2.9571 -0.8036 -3.7068
  568MOL0     H76649   5.825  12.118   2.902  1.7101 -0.5876 -1.9804
  568MOL0     H76650   5.584  11.947   2.989 -0.8464  0.5255 -1.1798
  568MOL0     H76651   5.582  12.084   2.884  2.2381  0.1359 -1.3274
  568MOL0     H76652   5.639  12.041   3.187 -1.0538  1.1216  1.1724
  568MOL0     H76653   5.500  12.116   3.123 -1.5814 -2.3704  3.9270
  568MOL0     H76654   5.678  12.283   3.215 -0.7421  2.2979 -0.2228
  568MOL0     H76655   5.779  12.225   3.092 -0.2756 -2.0159  0.5049
  568MOL0     H76656   5.541  12.408   3.098 -1.7675  0.1006 -1.1588
  568MOL0     H76657   5.529  12.300   2.960  0.0727 -0.8457 -0.0044
  568MOL0     H76658   5.765  12.492   3.000  1.8052  0.9541 -2.0040
  568MOL0     H76659   5.764  12.354   2.890  0.1533  0.5183 -0.7051
  568MOL0     H76660   5.807  11.945   2.288 -0.2708  0.2634 -0.0802
  568MOL0     H76661   6.017  11.981   2.160  0.5985 -0.9197  0.2932
  568MOL0     H76662   6.420  11.819   2.020  0.6739  0.0640 -1.4482
  568MOL0     H76663   6.606  11.897   1.858  0.6552  0.8041 -1.6703
  568MOL0     H76664   7.849  11.530   1.016  2.9460 -2.7560  0.8938
  568MOL0     H76665   7.889  11.291   1.075  4.3011  4.3518 -0.7361
  568MOL0     H76666   7.929  11.059   1.425 -1.1757  2.2036 -1.8167
  568MOL0     H76667   7.991  10.883   1.575  0.0306  1.2330 -0.7732
  568MOL0     H76668   8.059  10.665   1.708  2.1043 -2.6807  0.3030
  568MOL0     H76669   8.111  10.653   1.528 -1.1538 -1.9657 -2.5307
  568MOL0     H76670   8.087  10.406   1.550 -1.4435 -0.3099  0.2568
  568MOL0     H76671   7.993  10.428   1.693  1.4940 -1.7331  1.2124
  568MOL0     H76672   8.233  10.334   1.719  0.3058  0.9200 -1.2190
  568MOL0     H76673   8.169  10.454   1.836  1.1302  0.6121  0.4390
  568MOL0     H76674   8.409  10.444   1.679  0.8430  0.5890 -1.6765
  568MOL0     H76675   8.308  10.520   1.567  1.8232 -0.4886 -0.8151
  568MOL0     H76676   8.367  10.816   1.861 -3.2642  1.0017 -0.2672
  568MOL0     H76677   7.724  10.622   1.382 -2.2136  0.4626  0.5271
  568MOL0     H76678   7.508  10.881   1.261  2.9111  3.0983  1.6529
  568MOL0     H76679   7.595  10.813   1.130 -4.2451 -1.0861  0.2419
  568MOL0     H76680   7.546  10.702   1.255  2.4534 -2.0094 -0.4309
  569MOL0     O76681  10.116   0.348  10.417 -0.7129 -0.1791  0.0399
  569MOL0     C76682  10.235   0.374  10.404 -0.9455  1.6338  1.3776
  569MOL0     O76683  10.287   0.450  10.304 -0.7642 -0.2973  0.2076
  569MOL0     C76684  10.219   0.511  10.206 -0.0855 -0.0355 -0.0762
  569MOL0     C76685  10.104   0.581  10.230 -0.5075  0.6982 -0.3963
  569MOL0     C76686  10.051   0.659  10.131  0.7461 -0.4382 -0.2530
  569MOL0     C76687  10.097   0.651  10.005  1.2103  0.0565 -0.4012
  569MOL0     O76688  10.051   0.720   9.895 -0.7160  0.3104  0.5174
  569MOL0     C76689   9.937   0.797   9.906 -0.6197  0.7189 -0.7455
  569MOL0     C76690   9.884   0.849   9.764 -0.3363 -0.0236 -0.2811
  569MOL0     C76691   9.802   0.741   9.693 -0.3125 -0.1893  0.4414
  569MOL0     C76692   9.728   0.808   9.577  0.6447 -0.0077  0.3476
  569MOL0     C76693   9.575   0.835   9.595  0.3040 -0.2463  0.3796
  569MOL0     C76694   9.540   0.932   9.482  0.0021  0.7538 -0.0421
  569MOL0     C76695   9.541   0.871   9.343 -0.2041  0.3311  0.5202
  569MOL0     C76696   9.583   0.975   9.230 -0.1284  0.4893  0.0108
  569MOL0     N76697   9.703   0.936   9.156 -0.0519  0.0461 -0.8505
  569MOL0     C76698   9.810   0.888   9.225  0.3346 -0.9448 -0.0176
  569MOL0     C76699   9.892   0.843   9.128 -0.3017 -0.0912  0.5134
  569MOL0     C76700  10.027   0.780   9.155 -0.4246 -1.4705  0.9350
  569MOL0     C76701  10.126   0.837   9.042 -0.6375 -0.0102 -0.9429
  569MOL0     C76702  10.156   0.975   9.085 -0.0737  0.5112  0.5723
  569MOL0     C76703  10.257   1.041   8.991 -0.2477  0.1917 -0.5607
  569MOL0     O76704  10.280   1.174   9.032  0.2345  0.1450  0.9531
  569MOL0     C76705  10.404   1.210   9.009 -0.5164  0.1005  0.4531
  569MOL0     C76706  10.462   1.207   8.883  0.0946  0.3232 -0.9974
  569MOL0     C76707  10.593   1.236   8.861 -0.4822  1.3404 -0.1694
  569MOL0     C76708  10.676   1.261   8.965 -0.3580 -1.0019  0.8824
  569MOL0     C76709  10.819   1.293   8.925 -0.2148  0.3412  0.1421
  569MOL0     O76710  10.906   1.330   9.037 -0.5216  0.4350  0.6487
  569MOL0     C76711  11.037   1.341   9.000 -0.2566 -0.2823 -0.3704
  569MOL0     C76712  11.118   1.237   9.049 -0.5899 -0.8421  0.2607
  569MOL0     C76713  11.255   1.246   9.032  0.0666 -0.1681 -0.0634
  569MOL0     C76714  11.315   1.357   8.967  0.1108 -0.0235 -0.4722
  569MOL0     O76715  11.449   1.375   8.947 -0.2504  0.3295  0.0135
  569MOL0     C76716  11.521   1.268   8.893 -0.8208  0.2097  0.1510
  569MOL0     C76717  11.653   1.314   8.826  0.3577  0.2982  0.4045
  569MOL0     C76718  11.618   1.400   8.700 -0.0774  1.0326 -1.0776
  569MOL0     C76719  11.544   1.327   8.594 -0.3647  0.3708  0.2150
  569MOL0     C76720  11.515   1.434   8.487  0.5724 -0.0253 -0.5012
  569MOL0     C76721  11.432   1.377   8.368  0.6897  0.5992  0.7639
  569MOL0     C76722  11.276   1.366   8.401  0.0968 -0.6997  0.5440
  569MOL0     C76723  11.222   1.506   8.358 -0.3627  1.5496 -0.6222
  569MOL0    Cl76724  11.081   1.532   8.449  0.2255  0.3555 -0.1564
  569MOL0     C76725  11.230   1.452   8.911 -0.8689 -0.5285  0.7895
  569MOL0     C76726  11.096   1.452   8.940 -0.7172 -0.6564 -0.1770
  569MOL0     O76727  10.854   1.276   8.810  0.7623 -0.3272  0.4161
  569MOL0     C76728  10.622   1.285   9.090  0.7632 -0.6007 -1.0125
  569MOL0     C76729  10.478   1.255   9.110 -0.8380  0.4893 -0.7099
  569MOL0     N76730   9.829   0.861   9.005 -0.4194  0.0052 -0.6205
  569MOL0     N76731   9.709   0.910   9.026  0.4384  0.6935  0.8217
  569MOL0     C76732  10.201   0.573   9.978 -0.1200 -0.3854  0.2796
  569MOL0     C76733  10.275   0.505  10.071  0.9973 -0.0296 -0.6445
  569MOL0     C76734  10.327   0.309  10.494 -0.8141  0.1496  0.3077
  569MOL0     C76735  10.290   0.265  10.616 -0.1768 -0.0475 -0.1449
  569MOL0     C76736  10.383   0.212  10.707  0.1776  0.0545 -0.4050
  569MOL0     C76737  10.510   0.190  10.666 -0.2360 -0.0078 -0.2456
  569MOL0     O76738  10.596   0.125  10.750  0.5838  0.6695 -0.4140
  569MOL0     C76739  10.650  -0.004  10.715  0.5110 -0.4602  0.0494
  569MOL0     C76740  10.571  -0.126  10.759  0.5746  0.1346 -0.2387
  569MOL0     C76741  10.620  -0.260  10.702  1.0010  0.2683 -0.3236
  569MOL0     C76742  10.520  -0.375  10.704  0.4044 -0.3663  0.8897
  569MOL0     C76743  10.505  -0.413  10.841  1.3390 -0.6565 -0.5460
  569MOL0     C76744  10.494  -0.437  10.954  0.7550  0.7559 -0.2892
  569MOL0     C76745  10.553   0.226  10.545  0.5972 -0.5267  0.4724
  569MOL0     C76746  10.459   0.279  10.450 -0.1427 -0.5498 -0.7248
  569MOL0     C76747  10.516   0.288  10.310  0.3169  0.1037 -0.3370
  569MOL0     H76748  10.074   0.586  10.334 -0.2343  1.6882 -0.3481
  569MOL0     H76749   9.970   0.720  10.171  2.1080  1.4206 -0.2151
  569MOL0     H76750   9.866   0.724   9.945  2.8985 -2.6079  0.0407
  569MOL0     H76751   9.948   0.879   9.978 -0.8755 -0.5535  0.8147
  569MOL0     H76752   9.969   0.891   9.711  1.3363 -1.9928  0.7104
  569MOL0     H76753   9.808   0.923   9.792 -0.2290 -0.6626  1.9352
  569MOL0     H76754   9.729   0.702   9.765 -2.5837  0.9695 -1.1101
  569MOL0     H76755   9.863   0.661   9.651  1.3703 -0.2581  2.7949
  569MOL0     H76756   9.772   0.902   9.541 -1.9889  0.7977 -1.0692
  569MOL0     H76757   9.731   0.738   9.493  0.0792  0.2071  0.1410
  569MOL0     H76758   9.519   0.741   9.605  0.7378 -0.3405  2.1259
  569MOL0     H76759   9.553   0.891   9.686 -0.0936  0.7624 -0.3091
  569MOL0     H76760   9.435   0.961   9.492 -0.9871 -1.5039 -2.5129
  569MOL0     H76761   9.588   1.029   9.485  1.8361 -0.1322  0.6888
  569MOL0     H76762   9.439   0.830   9.333 -0.6205  1.0373  1.7336
  569MOL0     H76763   9.602   0.780   9.339 -0.2311  0.3480 -2.3398
  569MOL0     H76764   9.507   0.987   9.153  0.6317  1.5945 -0.6002
  569MOL0     H76765   9.607   1.070   9.280  1.6187 -0.0963  0.3805
  569MOL0     H76766   9.836   0.876   9.330  0.0642 -1.6885 -0.0279
  569MOL0     H76767  10.073   0.811   9.248  2.6992  3.0566 -1.7517
  569MOL0     H76768  10.009   0.672   9.148 -0.9415 -1.2737 -2.2212
  569MOL0     H76769  10.220   0.782   9.033  0.4242  0.8080  3.1873
  569MOL0     H76770  10.074   0.845   8.946  0.9811  0.1307 -1.8410
  569MOL0     H76771  10.191   0.974   9.188 -1.3442 -1.4548  1.0365
  569MOL0     H76772  10.069   1.041   9.076 -0.3354  0.1216  0.1671
  569MOL0     H76773  10.217   1.038   8.889 -0.0364  0.2533 -0.6462
  569MOL0     H76774  10.350   0.983   9.000  0.0701  0.2536 -2.7164
  569MOL0     H76775  10.409   1.180   8.792  2.2853 -0.7632 -2.0160
  569MOL0     H76776  10.624   1.229   8.757 -1.7429  2.8609 -0.6845
  569MOL0     H76777  11.061   1.155   9.092  0.9562 -2.3780 -0.4375
  569MOL0     H76778  11.322   1.167   9.064  1.8377  0.6003 -1.7335
  569MOL0     H76779  11.559   1.203   8.973 -0.0634 -2.9187 -2.5329
  569MOL0     H76780  11.462   1.200   8.831 -1.1563  0.4806  0.1736
  569MOL0     H76781  11.717   1.375   8.890 -2.0405  0.4205  2.8695
  569MOL0     H76782  11.717   1.228   8.802 -0.9047 -0.5005 -0.1867
  569MOL0     H76783  11.554   1.484   8.729  2.7040  2.5428  1.1814
  569MOL0     H76784  11.707   1.448   8.657 -0.5747  1.2624 -1.8859
  569MOL0     H76785  11.447   1.291   8.631 -0.6943  0.3711 -0.6135
  569MOL0     H76786  11.626   1.259   8.568  0.9176  2.3110 -1.0638
  569MOL0     H76787  11.606   1.478   8.448  0.1568  1.3498  0.0353
  569MOL0     H76788  11.449   1.515   8.520  0.4574  0.0888 -1.0126
  569MOL0     H76789  11.448   1.436   8.278  0.3858 -0.7043 -0.1693
  569MOL0     H76790  11.465   1.277   8.339 -2.8095 -0.5066  0.1347
  569MOL0     H76791  11.257   1.358   8.509 -1.1958  5.9093  1.2475
  569MOL0     H76792  11.230   1.286   8.343  2.4154 -0.4642 -1.8428
  569MOL0     H76793  11.292   1.589   8.367  2.1968 -0.5706  0.3203
  569MOL0     H76794  11.192   1.508   8.253 -0.9170 -2.1180 -0.6763
  569MOL0     H76795  11.276   1.540   8.868 -1.1968 -1.1727 -0.9549
  569MOL0     H76796  11.036   1.539   8.917  0.1567 -0.1919 -0.7333
  569MOL0     H76797  10.691   1.319   9.167  0.3820  1.0589 -1.3613
  569MOL0     H76798  10.436   1.271   9.209 -0.9832  0.2242 -0.7268
  569MOL0     H76799  10.225   0.573   9.872 -1.8938 -0.8163 -0.1681
  569MOL0     H76800  10.357   0.441  10.041  0.2320 -0.4032 -2.0248
  569MOL0     H76801  10.189   0.284  10.651  0.2543  0.5707  0.8095
  569MOL0     H76802  10.350   0.177  10.804  2.8575 -0.6398  0.3327
  569MOL0     H76803  10.745   0.003  10.768 -0.1543  1.6886  1.0883
  569MOL0     H76804  10.675  -0.005  10.609  1.8744  1.0710  0.3047
  569MOL0     H76805  10.468  -0.102  10.730  0.1312 -0.4589  0.8101
  569MOL0     H76806  10.567  -0.138  10.867  0.3043  1.0193 -0.1393
  569MOL0     H76807  10.709  -0.293  10.756  0.7524  1.3563  0.7966
  569MOL0     H76808  10.642  -0.234  10.598  0.5620  2.5922  0.1087
  569MOL0     H76809  10.431  -0.348  10.646  0.1415 -0.9068  1.0368
  569MOL0     H76810  10.567  -0.461  10.655  4.5811  0.7397  2.5655
  569MOL0     H76811  10.485  -0.453  11.060 -0.2199 -1.0138 -0.5962
  569MOL0     H76812  10.653   0.203  10.510 -0.3993 -1.7920 -1.7901
  569MOL0     H76813  10.552   0.387  10.278  0.3928  0.3941  0.6027
  569MOL0     H76814  10.597   0.215  10.303 -1.1750 -1.5824 -0.6922
  569MOL0     H76815  10.445   0.246  10.239 -0.2194 -0.4508  0.5101
  570MOL0     O76816   5.265   7.907   1.209 -0.3369 -0.7921 -0.5204
  570MOL0     C76817   5.179   7.979   1.153 -0.4815  0.3577  0.2270
  570MOL0     O76818   5.210   8.090   1.077 -0.2755 -0.1210 -0.8559
  570MOL0     C76819   5.336   8.115   1.023  0.4641  0.7834  0.4981
  570MOL0     C76820   5.350   8.147   0.882 -0.8474 -0.0890 -0.3897
  570MOL0     C76821   5.470   8.186   0.822  0.1219  0.6753 -0.5441
  570MOL0     C76822   5.580   8.206   0.910  0.2066 -0.1970  0.0840
  570MOL0     O76823   5.687   8.261   0.842  0.1534  0.0709  0.4218
  570MOL0     C76824   5.773   8.355   0.914  0.1419  0.0256  0.4429
  570MOL0     C76825   5.714   8.495   0.920 -0.1680  0.3211  0.3721
  570MOL0     C76826   5.659   8.528   0.778  0.0800 -0.4037 -0.5395
  570MOL0     C76827   5.622   8.678   0.755 -1.0275 -0.1467 -0.6066
  570MOL0     C76828   5.590   8.688   0.604  0.2638  0.2228  0.5565
  570MOL0     C76829   5.537   8.826   0.573  0.1899 -0.0118 -0.5790
  570MOL0     C76830   5.492   8.832   0.428 -0.3251  0.2595  0.2738
  570MOL0     C76831   5.352   8.773   0.414 -0.3599 -0.3080 -0.9405
  570MOL0     N76832   5.310   8.773   0.271  0.3594  0.5218  1.0836
  570MOL0     C76833   5.303   8.662   0.188  0.5783 -0.9864 -0.5130
  570MOL0     C76834   5.310   8.705   0.062  0.3941  0.4030  0.0666
  570MOL0     C76835   5.312   8.604  -0.051  0.3486 -0.0157 -0.6186
  570MOL0     C76836   5.204   8.503  -0.053  0.1533 -0.3052 -1.1881
  570MOL0     C76837   5.272   8.367  -0.066  0.4340 -0.2315 -0.0589
  570MOL0     C76838   5.152   8.264  -0.077 -0.1436  0.6354 -0.0221
  570MOL0     O76839   5.193   8.131  -0.056 -0.1844  0.3865  0.1239
  570MOL0     C76840   5.129   8.056   0.040 -0.0790  0.3824  0.1312
  570MOL0     C76841   5.045   8.098   0.144  0.4195 -0.1612 -0.0851
  570MOL0     C76842   5.000   8.018   0.241  0.4087  0.5664  0.0869
  570MOL0     C76843   5.024   7.883   0.234 -0.1168 -0.2258  0.1018
  570MOL0     C76844   4.969   7.790   0.337  0.8107 -0.6806  0.1381
  570MOL0     O76845   4.892   7.853   0.430 -0.2400 -0.3028 -0.4208
  570MOL0     C76846   4.916   7.788   0.551 -0.2483  0.0938 -0.5238
  570MOL0     C76847   4.822   7.699   0.612  0.7849  0.3798  0.2765
  570MOL0     C76848   4.848   7.642   0.742  0.1377 -0.3295  0.9074
  570MOL0     C76849   4.954   7.702   0.814  0.5363  1.0361 -0.4228
  570MOL0     O76850   4.955   7.654   0.942 -0.2285  0.0145 -0.7399
  570MOL0     C76851   5.077   7.654   1.017  0.8240  0.1608  0.2328
  570MOL0     C76852   5.163   7.540   0.976 -0.5585  0.3424 -0.1294
  570MOL0     C76853   5.296   7.551   1.057 -0.6117  0.4217 -0.1466
  570MOL0     C76854   5.407   7.445   1.009 -0.4862  0.2877  0.6121
  570MOL0     C76855   5.373   7.312   1.070 -1.6982 -0.7913 -0.2872
  570MOL0     C76856   5.453   7.194   1.025  0.3019  0.0715  0.3457
  570MOL0     C76857   5.504   7.097   1.136  0.4754 -0.2670 -0.1825
  570MOL0     C76858   5.549   6.963   1.073  0.7890 -0.8394  0.1952
  570MOL0    Cl76859   5.607   6.850   1.203 -0.2960 -0.3187 -0.2668
  570MOL0     C76860   5.043   7.795   0.758 -0.6448  0.5233 -0.2411
  570MOL0     C76861   5.025   7.834   0.623 -0.0769 -0.0155  0.3818
  570MOL0     O76862   4.993   7.667   0.332 -0.5061 -0.7525 -0.5286
  570MOL0     C76863   5.101   7.832   0.125  0.9771  0.6324  0.4805
  570MOL0     C76864   5.147   7.921   0.034 -0.2693  0.2626  0.6272
  570MOL0     N76865   5.302   8.843   0.060  0.3527 -0.3166 -0.3187
  570MOL0     N76866   5.318   8.880   0.186 -0.1901 -0.0094  0.4925
  570MOL0     C76867   5.565   8.166   1.044  0.1562 -0.6687 -0.0145
  570MOL0     C76868   5.447   8.115   1.100 -0.6224  0.0603 -0.6200
  570MOL0     C76869   5.031   7.947   1.168 -1.3017  0.5044 -0.0391
  570MOL0     C76870   4.943   7.967   1.063  0.1286 -0.1388  0.2384
  570MOL0     C76871   4.813   7.919   1.065  0.8541 -0.6488  0.5888
  570MOL0     C76872   4.759   7.873   1.183 -0.0782  0.1695  0.4488
  570MOL0     O76873   4.625   7.825   1.174 -1.1584  0.5473  0.1791
  570MOL0     C76874   4.584   7.713   1.252 -0.2440  0.0891 -0.0001
  570MOL0     C76875   4.665   7.589   1.205 -0.5462  0.3880 -0.1988
  570MOL0     C76876   4.610   7.450   1.249  0.5345 -0.0116 -0.5958
  570MOL0     C76877   4.677   7.338   1.165  0.0525  0.5595 -0.5869
  570MOL0     C76878   4.667   7.204   1.228  0.1447 -0.1450  0.4594
  570MOL0     C76879   4.660   7.096   1.274  0.2467  0.5086 -0.8485
  570MOL0     C76880   4.840   7.862   1.299 -0.5188 -0.5236 -0.9173
  570MOL0     C76881   4.975   7.900   1.291 -0.5256 -0.3260  0.0898
  570MOL0     C76882   5.043   7.895   1.429  0.2326  0.0790  0.0009
  570MOL0     H76883   5.268   8.132   0.813 -0.4430  1.5504 -1.2831
  570MOL0     H76884   5.473   8.213   0.717 -1.0352  0.5073 -0.6384
  570MOL0     H76885   5.779   8.314   1.015 -2.3850 -1.4496  0.0738
  570MOL0     H76886   5.875   8.371   0.877  0.8858  1.5938  2.8710
  570MOL0     H76887   5.799   8.559   0.946  3.6899 -3.2670 -2.1510
  570MOL0     H76888   5.632   8.491   0.992 -1.6863 -1.2465 -1.3280
  570MOL0     H76889   5.566   8.472   0.765 -0.6381  0.6647 -0.2040
  570MOL0     H76890   5.737   8.504   0.705  1.3340 -2.7401  1.4249
  570MOL0     H76891   5.533   8.704   0.813 -0.8321 -2.0568  0.6723
  570MOL0     H76892   5.706   8.744   0.775  0.0833 -1.6304 -0.1298
  570MOL0     H76893   5.687   8.678   0.554  0.6266 -0.2150  1.3193
  570MOL0     H76894   5.531   8.602   0.572  0.4237  0.4092 -0.2552
  570MOL0     H76895   5.450   8.860   0.630  0.3478  2.2370 -1.5939
  570MOL0     H76896   5.613   8.904   0.589 -1.5589  2.4036 -3.1183
  570MOL0     H76897   5.568   8.775   0.374  2.1548  1.0027  2.7143
  570MOL0     H76898   5.495   8.939   0.401  0.0715  1.2315  3.7259
  570MOL0     H76899   5.346   8.667   0.442 -1.5601 -0.3690 -1.3550
  570MOL0     H76900   5.280   8.840   0.462  0.1774 -1.6575  1.9553
  570MOL0     H76901   5.312   8.559   0.222  1.6866 -1.1925 -1.3806
  570MOL0     H76902   5.301   8.674  -0.135 -1.3794  2.2199  1.3380
  570MOL0     H76903   5.409   8.553  -0.049  1.6105  2.2541  1.2361
  570MOL0     H76904   5.155   8.502   0.045  2.9185  0.0574  0.3277
  570MOL0     H76905   5.140   8.516  -0.140  0.2241 -3.2042 -1.7700
  570MOL0     H76906   5.334   8.340   0.020 -3.1150 -2.3692  2.0993
  570MOL0     H76907   5.326   8.354  -0.160 -1.5648 -0.2365 -1.2681
  570MOL0     H76908   5.120   8.258  -0.181  1.3814 -0.9467 -0.4634
  570MOL0     H76909   5.064   8.291  -0.018 -0.2282 -0.4117  0.3581
  570MOL0     H76910   5.010   8.199   0.158 -4.6649 -1.7518  0.4638
  570MOL0     H76911   4.935   8.056   0.318 -0.9354 -2.1497  0.4219
  570MOL0     H76912   4.731   7.685   0.553  0.9728 -0.0624  0.0875
  570MOL0     H76913   4.774   7.575   0.784 -0.5518  0.7982  1.5326
  570MOL0     H76914   5.120   7.753   1.001 -0.2470  1.2151  3.1065
  570MOL0     H76915   5.063   7.639   1.125  0.1191 -0.8266  0.0075
  570MOL0     H76916   5.110   7.446   0.996 -0.7970 -0.0694 -2.4608
  570MOL0     H76917   5.181   7.534   0.868  0.7429  0.4357  0.0666
  570MOL0     H76918   5.337   7.648   1.027  1.0180 -0.0321  0.4857
  570MOL0     H76919   5.263   7.532   1.160 -1.3685  0.5924 -0.3537
  570MOL0     H76920   5.508   7.471   1.041 -1.0434 -0.7735  3.5807
  570MOL0     H76921   5.412   7.440   0.900  0.5303  1.5317  0.5889
  570MOL0     H76922   5.269   7.287   1.049 -2.3508 -0.0612  1.8140
  570MOL0     H76923   5.389   7.323   1.178 -2.7795 -0.2198 -0.1749
  570MOL0     H76924   5.402   7.149   0.939  0.3831  0.3486  0.1520
  570MOL0     H76925   5.545   7.236   0.984  1.5449  1.4364  4.1462
  570MOL0     H76926   5.425   7.080   1.210  1.6235 -3.4442  0.5108
  570MOL0     H76927   5.594   7.146   1.174 -0.0533  0.7088 -0.1668
  570MOL0     H76928   5.458   6.928   1.023  0.4445  2.1731 -1.5424
  570MOL0     H76929   5.635   6.993   1.012  1.7535  2.8831  3.0322
  570MOL0     H76930   5.130   7.836   0.809  0.8480  1.0271 -2.9978
  570MOL0     H76931   5.087   7.913   0.583 -1.8218  1.1194 -0.1703
  570MOL0     H76932   5.129   7.730   0.101  1.8065  1.4741 -2.5810
  570MOL0     H76933   5.208   7.881  -0.046  2.7473 -0.1203  2.9372
  570MOL0     H76934   5.652   8.162   1.109  1.3301  0.9385 -1.3724
  570MOL0     H76935   5.434   8.085   1.203  0.7025 -0.1264 -0.4861
  570MOL0     H76936   4.971   8.008   0.966  1.4011 -1.2355  0.1184
  570MOL0     H76937   4.741   7.938   0.987 -0.0693  2.9443  2.1018
  570MOL0     H76938   4.479   7.698   1.225 -0.3608  1.3168 -0.2553
  570MOL0     H76939   4.594   7.729   1.359  0.7270  1.9014 -0.3356
  570MOL0     H76940   4.767   7.596   1.244 -0.9731  0.0984  0.9982
  570MOL0     H76941   4.673   7.590   1.095 -1.0522  0.1589 -0.2404
  570MOL0     H76942   4.503   7.450   1.229  0.4122  1.2549 -0.0588
  570MOL0     H76943   4.633   7.438   1.355  2.5173  2.3976 -0.6419
  570MOL0     H76944   4.655   7.341   1.058  0.2248  0.5449 -0.6234
  570MOL0     H76945   4.785   7.356   1.167  0.7657 -2.8228 -1.6173
  570MOL0     H76946   4.637   6.998   1.311  3.9469 -2.1918 -4.7355
  570MOL0     H76947   4.787   7.823   1.385 -3.6709  2.5704 -1.2233
  570MOL0     H76948   5.063   8.000   1.453  1.9069 -0.0505 -0.6993
  570MOL0     H76949   4.974   7.850   1.501 -1.4077 -2.7810 -3.0965
  570MOL0     H76950   5.137   7.840   1.430 -0.9316 -2.0703 -1.1976
  571MOL0     O76951   6.284   4.388   1.155  0.1996  0.0800  0.5722
  571MOL0     C76952   6.368   4.473   1.169 -0.6286  0.1298 -0.2159
  571MOL0     O76953   6.492   4.465   1.105 -0.3697 -0.2517  0.1302
  571MOL0     C76954   6.536   4.359   1.033 -0.4134  0.0460  1.0540
  571MOL0     C76955   6.507   4.218   1.061  0.1500 -0.3829  0.0407
  571MOL0     C76956   6.550   4.110   0.981  0.4109  0.2645  0.3887
  571MOL0     C76957   6.605   4.145   0.849 -0.5915 -0.5039  0.3830
  571MOL0     O76958   6.636   4.061   0.745 -0.7931  0.2414  0.2377
  571MOL0     C76959   6.642   3.919   0.772  0.0683  0.2951 -0.1321
  571MOL0     C76960   6.763   3.889   0.862 -0.0687 -0.1384  0.2125
  571MOL0     C76961   6.901   3.939   0.822  0.7917 -0.8236  0.0784
  571MOL0     C76962   6.984   3.926   0.943 -0.8192 -0.7081 -0.7744
  571MOL0     C76963   7.131   3.978   0.910  0.1688 -0.5392  0.0063
  571MOL0     C76964   7.193   3.891   0.802 -0.1641  0.1926 -0.3400
  571MOL0     C76965   7.335   3.918   0.775  0.0224  0.3429  0.3723
  571MOL0     C76966   7.350   4.043   0.694 -0.3700  0.8075  0.6655
  571MOL0     N76967   7.474   4.038   0.617 -0.1975 -0.1492 -0.7943
  571MOL0     C76968   7.492   3.989   0.488  0.9066 -0.4236  0.1644
  571MOL0     C76969   7.620   3.987   0.463  0.8258  0.1646  0.7471
  571MOL0     C76970   7.690   3.939   0.335 -0.0858  0.3433  0.1801
  571MOL0     C76971   7.636   3.807   0.293  0.5979 -0.4754  0.2504
  571MOL0     C76972   7.744   3.701   0.292 -0.0255 -0.1927 -0.3106
  571MOL0     C76973   7.699   3.583   0.204  0.1509  0.2024  0.3042
  571MOL0     O76974   7.800   3.477   0.210  0.1813  0.8380 -0.3710
  571MOL0     C76975   7.781   3.366   0.142  1.1836 -1.0200  0.4939
  571MOL0     C76976   7.686   3.346   0.042 -0.3010 -0.4752  0.6110
  571MOL0     C76977   7.676   3.218  -0.019  0.0467  0.4896 -1.0572
  571MOL0     C76978   7.736   3.103   0.032  0.3486 -0.8929 -0.0763
  571MOL0     C76979   7.711   2.973  -0.032  0.2976  0.3797  0.1612
  571MOL0     O76980   7.773   2.857   0.021 -0.4125  0.0611  0.4049
  571MOL0     C76981   7.705   2.735   0.026 -0.0080 -0.4381 -0.8984
  571MOL0     C76982   7.563   2.713   0.028 -0.4211  0.8254 -0.3114
  571MOL0     C76983   7.514   2.582   0.048  0.3828  0.3097  0.6934
  571MOL0     C76984   7.599   2.474   0.055  0.0953  0.4352  0.6439
  571MOL0     O76985   7.537   2.348   0.071 -0.8540 -0.2564  0.5031
  571MOL0     C76986   7.594   2.235   0.007  0.1290  0.3662 -0.2777
  571MOL0     C76987   7.600   2.126   0.121  0.2037  0.8099  0.9083
  571MOL0     C76988   7.696   2.156   0.235 -0.4740  1.0841 -0.8109
  571MOL0     C76989   7.647   2.236   0.361  0.0164 -0.3718  0.8236
  571MOL0     C76990   7.751   2.237   0.467  0.5506 -0.9526 -0.3057
  571MOL0     C76991   7.691   2.291   0.605  0.3422  0.1466 -0.2408
  571MOL0     C76992   7.612   2.200   0.692  0.7376  0.2992 -0.4768
  571MOL0     C76993   7.534   2.277   0.793 -0.1838  0.2406 -0.2028
  571MOL0    Cl76994   7.471   2.158   0.902 -0.1928 -0.0122  0.1598
  571MOL0     C76995   7.731   2.487   0.030  0.3587  0.1180 -0.3256
  571MOL0     C76996   7.787   2.621   0.014 -0.0288 -0.0748 -0.5104
  571MOL0     O76997   7.635   2.970  -0.126  0.7269 -0.1358 -0.5772
  571MOL0     C76998   7.828   3.125   0.139  0.4895 -0.7909  0.1797
  571MOL0     C76999   7.852   3.252   0.185  0.8191 -0.3079 -0.9453
  571MOL0     N77000   7.686   4.044   0.572 -0.3287  1.1618  0.1705
  571MOL0     N77001   7.601   4.067   0.660 -1.0955  0.2119  0.2098
  571MOL0     C77002   6.636   4.285   0.820  0.5089 -0.2206  0.6426
  571MOL0     C77003   6.600   4.385   0.907 -0.6839  0.6759 -0.6498
  571MOL0     C77004   6.344   4.575   1.271 -0.1749  0.1277  1.4962
  571MOL0     C77005   6.456   4.659   1.310 -0.2795  1.3427 -0.9895
  571MOL0     C77006   6.444   4.754   1.404  0.9645 -0.9838  0.8014
  571MOL0     C77007   6.324   4.784   1.460 -1.1873  0.7478  0.1056
  571MOL0     O77008   6.300   4.871   1.565  0.3541 -0.0714  0.1113
  571MOL0     C77009   6.402   4.967   1.602 -0.1839 -0.0857  0.0187
  571MOL0     C77010   6.347   5.067   1.713  0.1278  0.0723  1.0624
  571MOL0     C77011   6.461   5.165   1.760 -0.8307 -0.0434 -0.2707
  571MOL0     C77012   6.404   5.240   1.882 -0.3484  0.2398  0.5051
  571MOL0     C77013   6.506   5.340   1.930 -0.0028  0.4099 -0.3795
  571MOL0     C77014   6.590   5.419   1.951 -0.0316  0.2756  0.3529
  571MOL0     C77015   6.209   4.714   1.414 -0.4546  0.1995 -0.3876
  571MOL0     C77016   6.219   4.612   1.331  0.0784  0.3113  0.1988
  571MOL0     C77017   6.085   4.539   1.295  0.1393  0.8741  0.7670
  571MOL0     H77018   6.445   4.189   1.146 -2.9827  0.0780 -1.9302
  571MOL0     H77019   6.523   4.008   1.009  1.0215  0.2349  0.8931
  571MOL0     H77020   6.547   3.901   0.823  1.6090 -1.1341  2.4383
  571MOL0     H77021   6.657   3.876   0.672  2.6624  4.6624 -1.8967
  571MOL0     H77022   6.759   3.783   0.885  1.1264 -0.9486 -2.8895
  571MOL0     H77023   6.747   3.937   0.960  0.9987 -2.9901  1.9116
  571MOL0     H77024   6.894   4.047   0.802  0.5085 -0.2525  2.8391
  571MOL0     H77025   6.934   3.895   0.728  0.2493 -1.8524  0.3548
  571MOL0     H77026   6.931   3.973   1.027 -1.3131 -0.2666 -1.3225
  571MOL0     H77027   6.993   3.820   0.971  1.5964 -1.0241 -2.4968
  571MOL0     H77028   7.117   4.084   0.889  1.1548 -0.4989 -0.5163
  571MOL0     H77029   7.187   3.965   1.004 -0.9104 -3.5066  0.3506
  571MOL0     H77030   7.192   3.791   0.845 -1.1128  0.2114 -0.2949
  571MOL0     H77031   7.142   3.896   0.706 -1.2848  0.2430  0.2462
  571MOL0     H77032   7.364   3.829   0.718 -3.3272 -2.1166  2.1390
  571MOL0     H77033   7.381   3.936   0.872 -1.4046  1.6587  0.8539
  571MOL0     H77034   7.263   4.063   0.631 -0.7376 -0.8577  0.5984
  571MOL0     H77035   7.363   4.123   0.768  1.0108 -0.2308  1.6043
  571MOL0     H77036   7.416   3.970   0.413 -2.0138  2.5073  2.0979
  571MOL0     H77037   7.672   4.021   0.264 -0.8221  2.1006  2.2870
  571MOL0     H77038   7.799   3.939   0.344  0.2201 -0.7083 -2.3651
  571MOL0     H77039   7.560   3.770   0.362 -1.9453 -2.8575 -3.4927
  571MOL0     H77040   7.589   3.826   0.196  0.3511 -1.0527  0.2547
  571MOL0     H77041   7.745   3.675   0.398  1.9373  1.8694  0.2478
  571MOL0     H77042   7.841   3.731   0.252  0.3474  0.9022  1.3181
  571MOL0     H77043   7.694   3.624   0.103  1.2939 -2.0357 -0.7344
  571MOL0     H77044   7.604   3.534   0.226  0.4001 -1.2421 -1.6344
  571MOL0     H77045   7.654   3.431  -0.017 -2.0204 -1.6750 -0.2805
  571MOL0     H77046   7.609   3.222  -0.104 -0.8797 -0.1584 -0.3845
  571MOL0     H77047   7.503   2.803   0.022  0.2945  1.2160 -3.8771
  571MOL0     H77048   7.407   2.570   0.061  0.4489  0.4604  1.4260
  571MOL0     H77049   7.533   2.196  -0.075  2.9522 -1.6381 -1.5756
  571MOL0     H77050   7.684   2.250  -0.054  0.3860 -0.5506 -0.1370
  571MOL0     H77051   7.500   2.101   0.156 -0.2440  1.9068  0.4580
  571MOL0     H77052   7.637   2.026   0.095  0.9334  0.4916  2.9928
  571MOL0     H77053   7.719   2.055   0.271 -2.5098  1.1988  0.9971
  571MOL0     H77054   7.784   2.205   0.193  0.1862  2.6418  2.1419
  571MOL0     H77055   7.562   2.182   0.403  0.4720 -1.4020  0.4502
  571MOL0     H77056   7.622   2.337   0.327  2.4450  0.4081  1.1584
  571MOL0     H77057   7.823   2.310   0.428  1.0285 -2.1318 -1.7327
  571MOL0     H77058   7.810   2.146   0.481  2.3494  0.1887 -0.1466
  571MOL0     H77059   7.781   2.316   0.662  0.1799  1.9675 -0.7314
  571MOL0     H77060   7.627   2.378   0.587  1.3589  1.0271  0.2879
  571MOL0     H77061   7.668   2.117   0.736 -0.5850 -0.5408 -0.3078
  571MOL0     H77062   7.534   2.150   0.634  0.5542 -0.0127  0.0310
  571MOL0     H77063   7.611   2.327   0.853  0.2682  1.0704 -1.4417
  571MOL0     H77064   7.453   2.347   0.772 -1.0671 -0.4551  0.7913
  571MOL0     H77065   7.802   2.405   0.018  2.7291  1.9218  0.6493
  571MOL0     H77066   7.894   2.615   0.032 -0.1994  1.5704  1.3043
  571MOL0     H77067   7.891   3.042   0.170  2.3686  0.0387 -1.2045
  571MOL0     H77068   7.922   3.283   0.263  0.8876  0.5053 -1.3245
  571MOL0     H77069   6.688   4.308   0.728 -1.1776  2.4400  0.2536
  571MOL0     H77070   6.636   4.487   0.906 -4.2943  2.1045  0.1359
  571MOL0     H77071   6.546   4.636   1.253  0.0797  1.7923 -0.6073
  571MOL0     H77072   6.517   4.833   1.418 -1.0252  0.8960  1.0534
  571MOL0     H77073   6.420   5.032   1.515 -1.0994  1.5247  0.9761
  571MOL0     H77074   6.494   4.922   1.641 -0.6215 -3.4979 -2.4348
  571MOL0     H77075   6.325   5.005   1.800  0.2996 -0.3445  0.8105
  571MOL0     H77076   6.254   5.118   1.688 -0.7931 -1.3816  1.4282
  571MOL0     H77077   6.477   5.239   1.681 -0.8539  2.8760  2.2845
  571MOL0     H77078   6.549   5.107   1.786 -1.0697 -1.3097 -2.0453
  571MOL0     H77079   6.312   5.291   1.853 -0.8359  1.7206  4.1363
  571MOL0     H77080   6.373   5.170   1.960 -2.7682  0.3802 -0.2667
  571MOL0     H77081   6.670   5.489   1.962 -0.6159  1.6713 -3.1245
  571MOL0     H77082   6.111   4.730   1.458 -0.4586  0.0758 -0.3523
  571MOL0     H77083   6.086   4.534   1.186  1.0387 -0.2539  0.8048
  571MOL0     H77084   6.086   4.437   1.334 -1.2944 -0.4851 -2.4157
  571MOL0     H77085   5.993   4.591   1.320 -0.0368  1.6206 -1.2418
  572MOL0     O77086   9.417   5.249   0.195  0.0809  0.0334 -0.4752
  572MOL0     C77087   9.378   5.221   0.079 -0.4398 -0.4968  0.6229
  572MOL0     O77088   9.467   5.214  -0.021 -0.3135 -0.1536 -0.1742
  572MOL0     C77089   9.594   5.270  -0.012 -0.5072  0.1335  0.2885
  572MOL0     C77090   9.625   5.379   0.081 -0.1197  0.1317 -0.3931
  572MOL0     C77091   9.748   5.435   0.073  0.8489 -0.6309 -0.0836
  572MOL0     C77092   9.853   5.385  -0.012  0.4236  0.5643 -0.2188
  572MOL0     O77093   9.975   5.446  -0.034 -0.2417  0.1760  0.2825
  572MOL0     C77094   9.986   5.579   0.011 -0.1406 -1.2162 -0.3808
  572MOL0     C77095  10.131   5.633  -0.035 -0.6790 -0.1990 -0.7451
  572MOL0     C77096  10.153   5.783   0.020  0.3129  0.5148  0.4982
  572MOL0     C77097  10.298   5.826   0.029 -0.5439  0.3509  0.4282
  572MOL0     C77098  10.370   5.848  -0.108  0.1253 -0.2449 -0.4199
  572MOL0     C77099  10.521   5.893  -0.093  0.3816  0.3750  1.0749
  572MOL0     C77100  10.540   6.031  -0.031 -0.2390  0.0727  0.6286
  572MOL0     C77101  10.493   6.142  -0.127  0.4656  0.0876  0.0104
  572MOL0     N77102  10.362   6.205  -0.101  0.0886 -0.4665  0.1817
  572MOL0     C77103  10.301   6.237   0.014 -0.0551  0.4901 -0.2129
  572MOL0     C77104  10.169   6.264  -0.018  1.0259  0.3735  0.2382
  572MOL0     C77105  10.050   6.302   0.061 -0.0005  0.9188  0.7074
  572MOL0     C77106  10.035   6.456   0.086  0.2058  0.1034 -0.1482
  572MOL0     C77107   9.975   6.532  -0.028 -0.2481  0.1444  0.0105
  572MOL0     C77108   9.829   6.504  -0.036 -0.6778 -0.1355 -0.0749
  572MOL0     O77109   9.763   6.567   0.083  0.3837  0.7009  0.0367
  572MOL0     C77110   9.625   6.556   0.088 -0.1972 -0.1195 -1.5784
  572MOL0     C77111   9.551   6.458   0.027  1.2788 -0.5413  0.9305
  572MOL0     C77112   9.403   6.459   0.041 -1.7121  0.9488 -1.0427
  572MOL0     C77113   9.340   6.543   0.136 -0.4848 -0.5956  0.2891
  572MOL0     C77114   9.197   6.571   0.138  0.5661 -0.0321  0.0150
  572MOL0     O77115   9.123   6.533   0.027  0.9376 -0.4700  0.4529
  572MOL0     C77116   8.979   6.543   0.017 -0.1705 -0.3945  0.4087
  572MOL0     C77117   8.884   6.533   0.120  1.2620  0.3252  0.5502
  572MOL0     C77118   8.739   6.542   0.087 -0.3397 -0.0398  0.1966
  572MOL0     C77119   8.693   6.548  -0.046  0.4785  0.3222  0.4037
  572MOL0     O77120   8.566   6.529  -0.097 -0.5712 -0.4952 -0.3435
  572MOL0     C77121   8.481   6.449  -0.015 -0.1869 -0.2439 -0.6079
  572MOL0     C77122   8.381   6.377  -0.103 -0.0515  0.1126  0.3846
  572MOL0     C77123   8.250   6.468  -0.132  0.9740 -0.3872  1.1752
  572MOL0     C77124   8.212   6.431  -0.277  0.4546  1.0793 -0.7849
  572MOL0     C77125   8.103   6.522  -0.322  0.1873 -0.3788 -0.5474
  572MOL0     C77126   8.068   6.491  -0.469  0.5307 -0.0860  0.7659
  572MOL0     C77127   7.943   6.563  -0.528  0.8999 -0.6947 -0.4572
  572MOL0     C77128   7.930   6.568  -0.682 -0.3007  0.2941 -0.0492
  572MOL0    Cl77129   7.785   6.651  -0.747 -0.2554  0.0642  1.0203
  572MOL0     C77130   8.793   6.568  -0.143  0.1571 -0.3910  0.4097
  572MOL0     C77131   8.932   6.559  -0.113  0.7918  0.2508  0.4858
  572MOL0     O77132   9.148   6.621   0.242 -0.1388 -0.1191  0.5188
  572MOL0     C77133   9.425   6.631   0.204  0.5584 -0.0317  0.3638
  572MOL0     C77134   9.557   6.638   0.179 -1.5227  1.0474 -0.1861
  572MOL0     N77135  10.159   6.253  -0.158  0.2935  0.6016 -0.2282
  572MOL0     N77136  10.274   6.208  -0.210  0.1488 -0.1816 -0.9932
  572MOL0     C77137   9.818   5.276  -0.096 -0.5554  0.1539  0.5737
  572MOL0     C77138   9.693   5.230  -0.103  0.2271  0.5175  0.5047
  572MOL0     C77139   9.228   5.188   0.050  0.0213 -1.0757 -0.4104
  572MOL0     C77140   9.196   5.196  -0.082  0.1374 -0.1797  0.9601
  572MOL0     C77141   9.060   5.182  -0.128 -0.2215 -0.2048  0.4977
  572MOL0     C77142   8.961   5.163  -0.028  0.6247  0.6459  0.3462
  572MOL0     O77143   8.831   5.131  -0.071 -0.5492  0.4886 -0.2903
  572MOL0     C77144   8.729   5.227  -0.040 -0.2225 -0.2982  0.3249
  572MOL0     C77145   8.666   5.295  -0.161 -0.1039 -0.2836  0.0366
  572MOL0     C77146   8.564   5.411  -0.131 -0.0487  0.1234 -0.3485
  572MOL0     C77147   8.557   5.502  -0.249 -0.2157  0.0752  0.5432
  572MOL0     C77148   8.434   5.573  -0.235  0.0849 -0.1031 -0.1087
  572MOL0     C77149   8.323   5.610  -0.204  0.0580 -0.3704  0.8093
  572MOL0     C77150   8.995   5.172   0.112 -0.1612  0.1461  0.1135
  572MOL0     C77151   9.129   5.181   0.148 -0.3262  1.3878 -0.4206
  572MOL0     C77152   9.165   5.185   0.296 -0.6591 -1.2910 -0.4727
  572MOL0     H77153   9.556   5.421   0.153 -0.4385  2.3306 -1.8741
  572MOL0     H77154   9.754   5.525   0.134  0.0248 -0.7835  0.2306
  572MOL0     H77155   9.911   5.640  -0.038  1.9087  2.2713  0.4961
  572MOL0     H77156   9.970   5.581   0.119  1.2278 -0.3347 -0.1677
  572MOL0     H77157  10.138   5.631  -0.144 -0.7112 -0.2865 -0.7452
  572MOL0     H77158  10.206   5.562   0.001 -1.1617 -0.5074 -0.3395
  572MOL0     H77159  10.110   5.789   0.121 -1.2942 -0.9387 -0.0515
  572MOL0     H77160  10.104   5.849  -0.052 -1.9315 -1.4073  0.1505
  572MOL0     H77161  10.305   5.920   0.084 -4.4258  2.7562 -2.6067
  572MOL0     H77162  10.363   5.752   0.078 -0.2995 -1.4306 -2.3707
  572MOL0     H77163  10.361   5.754  -0.164 -0.5302 -1.1277  1.0939
  572MOL0     H77164  10.324   5.934  -0.156 -0.5022  0.5307  1.4832
  572MOL0     H77165  10.570   5.812  -0.039  1.0298  0.3400  0.4614
  572MOL0     H77166  10.561   5.896  -0.195 -1.8313  0.9988  0.1652
  572MOL0     H77167  10.649   6.041  -0.020 -0.2327  2.4412 -0.9580
  572MOL0     H77168  10.503   6.044   0.071 -0.3644  0.0280  0.5884
  572MOL0     H77169  10.576   6.213  -0.131  1.7024 -1.3062  0.0028
  572MOL0     H77170  10.485   6.099  -0.228  1.1949 -1.0444  0.4157
  572MOL0     H77171  10.340   6.215   0.113 -0.6968  0.1606 -0.0221
  572MOL0     H77172   9.969   6.260   0.000  1.7165 -2.3250  0.4546
  572MOL0     H77173  10.052   6.250   0.157 -0.6804  0.4053  0.4493
  572MOL0     H77174   9.981   6.469   0.180 -0.8081  1.8977 -0.9257
  572MOL0     H77175  10.135   6.499   0.098 -0.7169  2.4267 -0.3229
  572MOL0     H77176  10.033   6.516  -0.119  1.4745  1.4901  0.7915
  572MOL0     H77177   9.992   6.640  -0.017 -2.2946  0.3677  1.5268
  572MOL0     H77178   9.816   6.396  -0.039  0.8513 -0.6809  4.9761
  572MOL0     H77179   9.787   6.534  -0.133 -1.3737 -3.8347 -1.0690
  572MOL0     H77180   9.598   6.378  -0.030  0.1325 -0.7053  0.1885
  572MOL0     H77181   9.351   6.377  -0.009 -1.4523  2.3062 -3.7018
  572MOL0     H77182   8.901   6.517   0.226  0.6141 -2.0928  0.3584
  572MOL0     H77183   8.663   6.526   0.163 -0.9919  2.5321  0.1695
  572MOL0     H77184   8.548   6.380   0.036  1.4010  0.5196 -1.5930
  572MOL0     H77185   8.436   6.515   0.061  0.6140  1.0891 -1.2716
  572MOL0     H77186   8.432   6.339  -0.191 -2.1763 -2.6350  0.2177
  572MOL0     H77187   8.351   6.290  -0.044  2.3588 -1.9667 -1.2598
  572MOL0     H77188   8.166   6.442  -0.066 -0.1603  0.3484  0.0630
  572MOL0     H77189   8.282   6.571  -0.120 -0.3732  0.3889 -1.2249
  572MOL0     H77190   8.176   6.328  -0.281 -0.6046  1.3919  0.2555
  572MOL0     H77191   8.297   6.445  -0.345  0.8646 -0.2706 -0.5846
  572MOL0     H77192   8.140   6.623  -0.305  0.1487 -0.0090 -2.4114
  572MOL0     H77193   8.012   6.507  -0.263 -0.4854  2.4079 -0.7287
  572MOL0     H77194   8.157   6.518  -0.527 -0.4840 -0.3224 -0.9358
  572MOL0     H77195   8.056   6.385  -0.493  1.9798 -0.4757  1.6183
  572MOL0     H77196   7.949   6.666  -0.492  1.3054 -0.3421 -1.4980
  572MOL0     H77197   7.849   6.518  -0.493  0.2468  3.3605  4.0226
  572MOL0     H77198   8.009   6.616  -0.741 -1.8085  0.6823 -1.8269
  572MOL0     H77199   7.917   6.468  -0.725  0.0881  1.6081 -3.5349
  572MOL0     H77200   8.763   6.572  -0.247  3.6657  0.4947 -0.7205
  572MOL0     H77201   8.993   6.562  -0.203 -1.4793  1.1488 -1.1186
  572MOL0     H77202   9.377   6.713   0.257 -0.7873  0.2640 -1.2298
  572MOL0     H77203   9.615   6.710   0.235  0.3682 -0.9982  0.6493
  572MOL0     H77204   9.897   5.249  -0.165  0.0460 -1.3487  1.7869
  572MOL0     H77205   9.668   5.145  -0.166  1.0584 -0.8293  1.9208
  572MOL0     H77206   9.274   5.218  -0.155  0.4925 -3.0399  0.3504
  572MOL0     H77207   9.018   5.199  -0.226 -3.5847 -0.7065  1.7092
  572MOL0     H77208   8.768   5.311   0.017 -1.6629  2.6565 -2.6698
  572MOL0     H77209   8.646   5.172   0.005  0.0714 -0.9299  0.1223
  572MOL0     H77210   8.623   5.210  -0.215  2.7449 -1.2456 -0.9122
  572MOL0     H77211   8.745   5.334  -0.226  0.7374  0.4142  1.4392
  572MOL0     H77212   8.581   5.472  -0.042 -0.6559 -1.2795  0.7798
  572MOL0     H77213   8.468   5.363  -0.108 -1.1269  0.8136 -3.0295
  572MOL0     H77214   8.639   5.575  -0.252  0.4308 -0.6713 -0.4795
  572MOL0     H77215   8.548   5.443  -0.340 -0.1614 -1.4267  1.4840
  572MOL0     H77216   8.232   5.665  -0.199  0.2739 -0.1077  2.8364
  572MOL0     H77217   8.918   5.153   0.185  0.3590  0.9722  0.9078
  572MOL0     H77218   9.086   5.133   0.350 -2.1251  1.9859  0.7831
  572MOL0     H77219   9.262   5.141   0.319 -0.0145 -0.4300 -1.4310
  572MOL0     H77220   9.160   5.288   0.331  0.2523 -1.6084  0.6525
  573MOL0     O77221   1.810   2.398   4.629 -0.0261  0.0783 -0.3534
  573MOL0     C77222   1.866   2.493   4.574 -0.2703 -0.1982 -0.7418
  573MOL0     O77223   1.951   2.495   4.463 -0.0850 -0.8856  0.1470
  573MOL0     C77224   2.028   2.387   4.421  0.9251 -0.5393  0.3917
  573MOL0     C77225   2.005   2.254   4.464  0.3154  0.5231  0.0006
  573MOL0     C77226   2.092   2.152   4.403 -0.8571 -0.7743 -0.6344
  573MOL0     C77227   2.196   2.193   4.313  0.2868  1.0816 -0.5675
  573MOL0     O77228   2.281   2.089   4.260 -0.2963 -0.1283  0.6408
  573MOL0     C77229   2.304   2.091   4.117 -0.2936  0.2905 -0.1346
  573MOL0     C77230   2.374   1.963   4.076  0.9322 -1.3821  0.4368
  573MOL0     C77231   2.397   1.965   3.928 -0.6475 -0.2655  1.1810
  573MOL0     C77232   2.542   2.011   3.897  1.0511  0.6516 -0.4969
  573MOL0     C77233   2.564   1.991   3.750 -1.4001 -0.8145 -0.4475
  573MOL0     C77234   2.703   2.049   3.684  1.3479 -1.2516 -1.1672
  573MOL0     C77235   2.821   1.967   3.724  0.6438  0.3690 -0.2773
  573MOL0     C77236   2.961   2.027   3.676  0.6568  0.3939  1.4252
  573MOL0     N77237   3.086   1.960   3.698  1.2298  0.5775 -1.2470
  573MOL0     C77238   3.181   1.999   3.780  0.3296  0.4874 -0.7083
  573MOL0     C77239   3.268   1.898   3.777  0.7328  0.3528 -0.8747
  573MOL0     C77240   3.409   1.913   3.829  0.0653 -0.0156 -0.8427
  573MOL0     C77241   3.511   1.877   3.721 -0.1481  0.1652  0.2927
  573MOL0     C77242   3.540   1.989   3.623 -0.5752 -0.2621  1.1840
  573MOL0     C77243   3.428   2.039   3.520  0.4675  0.3542 -0.6023
  573MOL0     O77244   3.371   2.171   3.558 -0.3485  0.7212  0.6782
  573MOL0     C77245   3.288   2.242   3.474 -0.2504 -0.3576  0.4701
  573MOL0     C77246   3.232   2.186   3.359 -0.3984 -0.7545  0.1161
  573MOL0     C77247   3.157   2.276   3.281  0.2069  0.0955  0.2705
  573MOL0     C77248   3.129   2.408   3.321 -0.3277 -0.1300  0.2050
  573MOL0     C77249   3.057   2.502   3.238  0.3270 -0.1976 -0.6926
  573MOL0     O77250   3.032   2.465   3.112 -0.6034 -0.0149  0.6733
  573MOL0     C77251   2.968   2.551   3.031 -0.2352 -0.2143  0.5849
  573MOL0     C77252   3.036   2.656   2.960 -1.4642  0.5265  0.0161
  573MOL0     C77253   2.970   2.750   2.879  0.1225 -1.0321 -0.5785
  573MOL0     C77254   2.831   2.740   2.858 -0.1336  0.1254  0.0160
  573MOL0     O77255   2.762   2.843   2.793  0.2191  0.1799 -0.4237
  573MOL0     C77256   2.803   2.978   2.826  0.0179  0.3510  0.1048
  573MOL0     C77257   2.685   3.084   2.821  0.4227 -0.5174  0.4948
  573MOL0     C77258   2.621   3.073   2.679 -0.4040 -0.3380 -0.1319
  573MOL0     C77259   2.485   3.013   2.691  0.4040  0.5601  0.4183
  573MOL0     C77260   2.433   2.984   2.553  0.3835  0.0646  0.0887
  573MOL0     C77261   2.299   2.910   2.557 -0.5045 -0.2620 -0.0107
  573MOL0     C77262   2.244   2.886   2.410 -0.2398 -0.4760 -0.2797
  573MOL0     C77263   2.103   2.828   2.437  0.3518  0.1631  0.9976
  573MOL0    Cl77264   2.118   2.677   2.540 -0.4341 -0.0471 -0.0262
  573MOL0     C77265   2.766   2.636   2.912  0.0527  1.5401  0.0102
  573MOL0     C77266   2.831   2.536   2.994  0.2724  0.2535 -0.5023
  573MOL0     O77267   3.029   2.616   3.282 -0.3088  0.1085 -0.3921
  573MOL0     C77268   3.183   2.450   3.443  0.1203  0.2448 -0.0178
  573MOL0     C77269   3.269   2.376   3.518 -0.6543  0.9005 -0.9101
  573MOL0     N77270   3.210   1.795   3.707 -0.3236  0.6001  0.5340
  573MOL0     N77271   3.103   1.831   3.647 -0.7580  0.0578  0.9100
  573MOL0     C77272   2.220   2.324   4.289 -0.2642 -0.5736  0.4519
  573MOL0     C77273   2.140   2.420   4.346  0.6530 -0.7419  0.3475
  573MOL0     C77274   1.849   2.624   4.643 -0.3551  0.7139  0.0104
  573MOL0     C77275   1.947   2.725   4.649 -0.3424 -1.6718 -0.4278
  573MOL0     C77276   1.929   2.846   4.714 -0.2818 -0.0369 -0.0829
  573MOL0     C77277   1.808   2.878   4.770  0.1755 -0.0745 -0.6352
  573MOL0     O77278   1.786   3.004   4.820  0.3442  0.1598 -0.5620
  573MOL0     C77279   1.650   3.051   4.868 -0.0154  0.1532  0.4765
  573MOL0     C77280   1.612   2.996   5.008  0.4069 -1.0051 -0.2179
  573MOL0     C77281   1.710   3.051   5.113 -0.4066  0.2200 -1.2904
  573MOL0     C77282   1.666   3.000   5.246  0.1534 -0.0024 -0.5351
  573MOL0     C77283   1.746   3.053   5.355  0.6456 -0.2748 -0.6049
  573MOL0     C77284   1.806   3.093   5.450  1.1318 -0.5002 -0.0952
  573MOL0     C77285   1.707   2.784   4.748  0.1590 -0.0806 -0.1507
  573MOL0     C77286   1.722   2.666   4.682  1.0515 -0.1562 -0.5311
  573MOL0     C77287   1.590   2.579   4.676 -0.2948  0.1041 -0.0942
  573MOL0     H77288   1.910   2.231   4.510  0.2834  3.0067  1.3183
  573MOL0     H77289   2.061   2.053   4.433  0.6022 -0.4304  2.3039
  573MOL0     H77290   2.214   2.095   4.055  0.2408  0.8579 -0.8944
  573MOL0     H77291   2.363   2.180   4.094 -1.7353  1.7121  1.3551
  573MOL0     H77292   2.304   1.884   4.106  0.6782 -1.0448  0.7397
  573MOL0     H77293   2.466   1.949   4.135  0.5311 -3.0598  0.7148
  573MOL0     H77294   2.317   2.023   3.881  0.0576  0.6335  1.0606
  573MOL0     H77295   2.395   1.865   3.882 -0.4892  1.5205 -3.2165
  573MOL0     H77296   2.556   2.114   3.932 -2.5380  1.7452 -1.7766
  573MOL0     H77297   2.616   1.954   3.953 -0.1941 -0.6717 -0.1318
  573MOL0     H77298   2.560   1.887   3.718  1.1361 -0.2767 -2.8806
  573MOL0     H77299   2.482   2.036   3.693 -1.0098 -1.6187 -1.6701
  573MOL0     H77300   2.682   2.059   3.577 -1.7618 -0.0367 -0.5407
  573MOL0     H77301   2.705   2.153   3.718  0.0602 -1.4556 -0.4069
  573MOL0     H77302   2.796   1.869   3.684 -0.4514  0.2195  0.7403
  573MOL0     H77303   2.835   1.951   3.831 -0.1610  2.4254  0.1879
  573MOL0     H77304   2.951   2.047   3.569 -2.2637 -3.2487  0.8280
  573MOL0     H77305   2.965   2.126   3.722  1.1273  2.6374 -2.9146
  573MOL0     H77306   3.197   2.096   3.826 -0.7681 -0.0214  0.8341
  573MOL0     H77307   3.427   2.016   3.860  2.0917 -0.4409 -0.4459
  573MOL0     H77308   3.413   1.834   3.905  1.9928  1.0803  0.2436
  573MOL0     H77309   3.606   1.850   3.768  0.6062  0.8565 -0.7976
  573MOL0     H77310   3.463   1.796   3.666 -1.1650 -0.6626  2.3075
  573MOL0     H77311   3.619   1.951   3.557 -1.3562 -1.1490  0.7327
  573MOL0     H77312   3.577   2.078   3.675  0.5042  0.9905 -1.5054
  573MOL0     H77313   3.348   1.966   3.506 -0.0687  0.3793  1.8811
  573MOL0     H77314   3.481   2.041   3.424 -0.2253 -0.2713 -1.0080
  573MOL0     H77315   3.235   2.083   3.325 -2.0399 -0.3482 -1.3933
  573MOL0     H77316   3.120   2.236   3.188  0.8853  0.6813 -0.2621
  573MOL0     H77317   3.141   2.653   2.986 -1.2565  2.0922 -0.5745
  573MOL0     H77318   3.028   2.836   2.848  0.8327 -1.7980 -1.3992
  573MOL0     H77319   2.854   2.976   2.923 -0.3395 -1.0022  0.2894
  573MOL0     H77320   2.887   3.002   2.760  0.2674 -0.8007 -0.0299
  573MOL0     H77321   2.604   3.072   2.893 -1.2688 -0.1076 -1.2665
  573MOL0     H77322   2.736   3.178   2.847 -0.2758  0.1220 -0.3994
  573MOL0     H77323   2.600   3.158   2.613 -2.4110 -0.5103  0.2030
  573MOL0     H77324   2.676   3.007   2.611 -1.2112  0.2081 -1.3547
  573MOL0     H77325   2.427   3.089   2.745 -0.1731  0.0230  0.5585
  573MOL0     H77326   2.494   2.935   2.767 -0.5246  0.8748  0.8754
  573MOL0     H77327   2.510   2.929   2.497 -0.5426  0.2062 -1.3828
  573MOL0     H77328   2.416   3.076   2.498  0.7449 -0.2218 -0.5109
  573MOL0     H77329   2.315   2.820   2.618 -0.9189 -0.2176  0.1623
  573MOL0     H77330   2.228   2.973   2.611  0.6569  1.6917 -0.6489
  573MOL0     H77331   2.310   2.822   2.350  0.5600 -0.7154  0.8265
  573MOL0     H77332   2.236   2.984   2.362 -0.7827  0.4737  1.6615
  573MOL0     H77333   2.050   2.890   2.510 -2.6655 -0.5790 -0.4203
  573MOL0     H77334   2.042   2.807   2.349  0.2590 -0.1771  1.1426
  573MOL0     H77335   2.660   2.624   2.890  0.5172 -0.3775 -1.4401
  573MOL0     H77336   2.777   2.449   3.030 -1.8650  0.0612 -3.8016
  573MOL0     H77337   3.166   2.553   3.474 -0.5118  0.4155 -0.8902
  573MOL0     H77338   3.315   2.412   3.610 -0.7907  0.7330 -0.7738
  573MOL0     H77339   2.300   2.352   4.222 -0.0406  1.8872  1.6411
  573MOL0     H77340   2.145   2.528   4.332  2.2662 -0.0718  4.5291
  573MOL0     H77341   2.044   2.712   4.603  0.4535 -5.2248  1.9118
  573MOL0     H77342   2.012   2.916   4.711 -0.0979 -0.1469  1.7253
  573MOL0     H77343   1.569   3.026   4.799 -0.5789 -0.2284  1.2792
  573MOL0     H77344   1.651   3.160   4.853 -0.1664  0.0474 -0.3524
  573MOL0     H77345   1.622   2.887   5.011 -0.3084 -1.0503  0.6533
  573MOL0     H77346   1.513   3.025   5.042  1.0659  0.2341  0.7042
  573MOL0     H77347   1.688   3.158   5.121 -3.0872 -0.4075  2.7266
  573MOL0     H77348   1.815   3.025   5.102 -0.8031 -0.7998 -3.1852
  573MOL0     H77349   1.565   3.039   5.267 -0.1230  0.5349 -2.6612
  573MOL0     H77350   1.670   2.891   5.260 -0.8934  0.3500  4.3028
  573MOL0     H77351   1.861   3.137   5.531 -2.4909  4.6870  0.0788
  573MOL0     H77352   1.606   2.804   4.783  0.6189  1.0270  0.6047
  573MOL0     H77353   1.569   2.560   4.571 -2.1157  0.3361  0.2057
  573MOL0     H77354   1.584   2.485   4.732 -1.4118 -0.2299 -0.7494
  573MOL0     H77355   1.504   2.636   4.710 -1.6775 -0.4837 -2.4294
  574MOL0     O77356   0.441   0.271   5.264  0.1797 -0.4737  0.0745
  574MOL0     C77357   0.523   0.334   5.328  0.0036 -0.1950 -0.0458
  574MOL0     O77358   0.490   0.430   5.423  0.4242 -0.3005 -0.0094
  574MOL0     C77359   0.359   0.474   5.434  0.1586  0.0291  0.7072
  574MOL0     C77360   0.239   0.392   5.439  0.5028  0.0501 -0.2432
  574MOL0     C77361   0.115   0.452   5.453  0.7240  0.7702  0.7234
  574MOL0     C77362   0.092   0.588   5.470 -1.5955 -0.1032  0.5338
  574MOL0     O77363  -0.033   0.642   5.487 -0.4666  0.5386  0.6188
  574MOL0     C77364  -0.074   0.697   5.358 -0.0478 -0.5064  0.7569
  574MOL0     C77365  -0.219   0.670   5.322 -0.4152 -0.0249  0.1451
  574MOL0     C77366  -0.237   0.523   5.291  0.4424  0.4193  1.0315
  574MOL0     C77367  -0.373   0.490   5.233 -0.0659 -1.0079  0.1011
  574MOL0     C77368  -0.396   0.336   5.224 -0.5886 -0.0444 -0.4214
  574MOL0     C77369  -0.366   0.250   5.353 -0.0896  0.3042  0.5604
  574MOL0     C77370  -0.447   0.296   5.475  0.0485 -0.6621 -0.8604
  574MOL0     C77371  -0.394   0.239   5.605  0.6752  0.1023 -0.3647
  574MOL0     N77372  -0.490   0.160   5.676 -0.4742 -0.4553 -0.3960
  574MOL0     C77373  -0.517   0.041   5.642 -0.0364  0.9330  0.2509
  574MOL0     C77374  -0.581  -0.019   5.751 -0.1866 -0.1636  0.1796
  574MOL0     C77375  -0.631  -0.171   5.772  0.0855 -1.1256  0.3545
  574MOL0     C77376  -0.680  -0.226   5.643 -0.0587  0.1562  0.7469
  574MOL0     C77377  -0.825  -0.177   5.611  0.1725  0.0839 -0.9560
  574MOL0     C77378  -0.913  -0.278   5.537 -0.5446 -0.1911  0.0276
  574MOL0     O77379  -0.961  -0.358   5.636  0.1865  0.9813 -0.0346
  574MOL0     C77380  -1.061  -0.441   5.598  0.4620  0.3780  0.0332
  574MOL0     C77381  -1.097  -0.469   5.467 -0.4972  0.3335  0.4560
  574MOL0     C77382  -1.185  -0.568   5.432 -0.0611 -0.4238  0.1277
  574MOL0     C77383  -1.257  -0.629   5.533  0.7068 -1.1005 -0.8683
  574MOL0     C77384  -1.361  -0.727   5.488  0.4507  0.3626 -0.2259
  574MOL0     O77385  -1.453  -0.770   5.574  0.8451  0.5088 -0.3332
  574MOL0     C77386  -1.567  -0.840   5.537  0.2761  0.3134  0.1559
  574MOL0     C77387  -1.578  -0.944   5.443 -0.6035 -0.1349 -0.6588
  574MOL0     C77388  -1.700  -1.000   5.424  0.4418 -0.0664 -0.5870
  574MOL0     C77389  -1.817  -0.972   5.487  0.3451 -0.7571  0.0789
  574MOL0     O77390  -1.939  -1.035   5.456 -0.3984 -0.6998 -0.4170
  574MOL0     C77391  -1.974  -1.083   5.324  0.2815 -0.0883 -0.5009
  574MOL0     C77392  -1.940  -1.231   5.302  0.5128  0.1416 -0.6978
  574MOL0     C77393  -1.995  -1.283   5.170 -1.4031  0.4431  0.2296
  574MOL0     C77394  -2.153  -1.270   5.164 -0.7997  0.3703  0.2555
  574MOL0     C77395  -2.211  -1.344   5.044  0.2148  0.5381  0.9877
  574MOL0     C77396  -2.365  -1.371   5.066  0.6087 -0.4082  0.1022
  574MOL0     C77397  -2.417  -1.458   4.954 -0.7262  0.1281  0.2614
  574MOL0     C77398  -2.566  -1.494   4.950 -0.6009  0.4857 -0.4569
  574MOL0    Cl77399  -2.634  -1.576   4.806 -0.1799  0.1300 -0.0621
  574MOL0     C77400  -1.804  -0.880   5.584 -0.3883 -0.0961 -0.4616
  574MOL0     C77401  -1.675  -0.826   5.617  1.3605 -0.6440  0.1751
  574MOL0     O77402  -1.351  -0.769   5.377 -0.1927 -0.4847  0.1936
  574MOL0     C77403  -1.232  -0.596   5.668 -0.2600  0.8880 -0.0713
  574MOL0     C77404  -1.130  -0.505   5.700  0.2869 -0.3523  0.3293
  574MOL0     N77405  -0.590   0.074   5.850  0.1510  0.1593  0.0158
  574MOL0     N77406  -0.535   0.179   5.806 -0.7931 -0.0213 -0.2237
  574MOL0     C77407   0.208   0.669   5.478  0.5704 -0.0452  0.0799
  574MOL0     C77408   0.334   0.616   5.452 -0.6710  1.1430  0.8246
  574MOL0     C77409   0.672   0.321   5.294  1.2661 -0.2575 -0.1873
  574MOL0     C77410   0.765   0.381   5.394  0.2217  0.1824  1.3022
  574MOL0     C77411   0.902   0.365   5.385 -0.5609 -0.5542 -0.1976
  574MOL0     C77412   0.960   0.308   5.276 -0.3039 -0.0647  0.4697
  574MOL0     O77413   1.089   0.280   5.257 -0.0553 -0.3804  0.6945
  574MOL0     C77414   1.188   0.304   5.360 -0.0045 -0.1640 -0.0622
  574MOL0     C77415   1.333   0.290   5.314  0.1415 -0.0147  0.5060
  574MOL0     C77416   1.347   0.162   5.228 -0.1306 -0.3452  0.1944
  574MOL0     C77417   1.496   0.128   5.192  0.3039  0.3420 -1.1424
  574MOL0     C77418   1.552   0.220   5.105 -0.9312 -0.7362  0.3782
  574MOL0     C77419   1.588   0.320   5.039  0.0213 -0.6968  0.0149
  574MOL0     C77420   0.874   0.259   5.172 -0.0088 -0.1402 -1.4261
  574MOL0     C77421   0.733   0.270   5.176 -0.3107  0.3505  0.4638
  574MOL0     C77422   0.667   0.204   5.061  0.0362  0.8265 -0.6362
  574MOL0     H77423   0.252   0.285   5.445  3.0393  0.3454  1.1444
  574MOL0     H77424   0.028   0.387   5.461  1.3141  0.0244  1.1316
  574MOL0     H77425  -0.060   0.805   5.362  3.4000 -0.8296  0.8140
  574MOL0     H77426  -0.007   0.673   5.276  3.0447  2.0129  2.3166
  574MOL0     H77427  -0.250   0.730   5.236  0.3023  0.4520  0.2128
  574MOL0     H77428  -0.280   0.699   5.408 -1.9645  1.5280 -1.3782
  574MOL0     H77429  -0.220   0.464   5.382  0.1556 -0.6748  0.3958
  574MOL0     H77430  -0.164   0.502   5.213 -1.8054  1.7081 -1.5748
  574MOL0     H77431  -0.455   0.536   5.289  0.2149  0.1966 -0.4469
  574MOL0     H77432  -0.386   0.536   5.135 -2.7010 -2.7065 -0.4371
  574MOL0     H77433  -0.492   0.319   5.174 -0.2888 -4.0955  0.0762
  574MOL0     H77434  -0.330   0.291   5.150 -1.8702 -3.1123  0.1352
  574MOL0     H77435  -0.384   0.145   5.328  0.8929  0.0016  1.0760
  574MOL0     H77436  -0.257   0.248   5.364  0.0410 -0.5561 -0.7139
  574MOL0     H77437  -0.545   0.265   5.440 -0.4266  0.7729 -0.8745
  574MOL0     H77438  -0.445   0.406   5.481 -1.0035 -0.7157  1.8870
  574MOL0     H77439  -0.308   0.177   5.579  1.2401  1.4875 -2.0433
  574MOL0     H77440  -0.350   0.324   5.659  1.9604 -0.3988 -0.5904
  574MOL0     H77441  -0.484  -0.014   5.555  0.5717  1.2073  0.3055
  574MOL0     H77442  -0.550  -0.231   5.813  0.4281 -1.9231 -1.4006
  574MOL0     H77443  -0.708  -0.171   5.850  0.1885  2.2914  0.5806
  574MOL0     H77444  -0.612  -0.200   5.561  1.3433 -1.0244  1.5035
  574MOL0     H77445  -0.672  -0.335   5.642  1.9384  0.2264  2.5289
  574MOL0     H77446  -0.805  -0.089   5.550  4.6688 -1.0293 -1.4568
  574MOL0     H77447  -0.865  -0.158   5.711  4.0305  0.3792  0.7275
  574MOL0     H77448  -0.844  -0.331   5.471  0.0646 -0.2160  0.6698
  574MOL0     H77449  -0.996  -0.225   5.489 -0.2583  0.4424  0.2160
  574MOL0     H77450  -1.039  -0.420   5.389  4.0161 -0.3629  3.0190
  574MOL0     H77451  -1.209  -0.578   5.327 -3.7634 -1.3849  0.9371
  574MOL0     H77452  -1.493  -0.968   5.380 -1.2409 -0.1611 -1.5178
  574MOL0     H77453  -1.690  -1.082   5.353 -0.0952 -0.9791  0.3741
  574MOL0     H77454  -2.081  -1.077   5.304 -0.4380 -0.3672  2.7903
  574MOL0     H77455  -1.929  -1.012   5.254  0.7677  0.7443  0.6368
  574MOL0     H77456  -1.831  -1.238   5.306  0.5304  0.8489  0.3482
  574MOL0     H77457  -1.980  -1.290   5.385  1.3259 -0.2368 -0.5619
  574MOL0     H77458  -1.958  -1.232   5.080 -5.3018  3.2831 -0.0138
  574MOL0     H77459  -1.969  -1.388   5.155 -0.1288  1.1620 -3.9723
  574MOL0     H77460  -2.186  -1.165   5.163 -1.8672  0.0481 -0.4139
  574MOL0     H77461  -2.196  -1.312   5.255 -0.3814  1.0603  0.7772
  574MOL0     H77462  -2.167  -1.444   5.042  1.7453  1.1295  2.3955
  574MOL0     H77463  -2.180  -1.295   4.951 -0.9474 -0.8423 -0.1587
  574MOL0     H77464  -2.387  -1.426   5.158 -1.5549  0.6059  0.2283
  574MOL0     H77465  -2.413  -1.273   5.075  1.3550 -0.0903  0.8055
  574MOL0     H77466  -2.363  -1.551   4.976  0.9881  0.6353 -1.4923
  574MOL0     H77467  -2.371  -1.421   4.862  1.3262  1.4363  1.7305
  574MOL0     H77468  -2.596  -1.557   5.034  0.1230 -1.7356 -1.7652
  574MOL0     H77469  -2.624  -1.402   4.957 -3.5109 -1.3388  1.3718
  574MOL0     H77470  -1.888  -0.844   5.642 -1.5257  0.4840 -2.3502
  574MOL0     H77471  -1.671  -0.747   5.692  0.7705 -2.0629  1.7596
  574MOL0     H77472  -1.296  -0.644   5.741  1.4221  0.3790  1.1347
  574MOL0     H77473  -1.127  -0.463   5.800  2.8447 -0.0429  0.1898
  574MOL0     H77474   0.209   0.769   5.519  0.6229 -1.2138  3.2486
  574MOL0     H77475   0.425   0.675   5.451 -0.4601  0.8484  1.5808
  574MOL0     H77476   0.729   0.445   5.473 -2.1424  2.1097 -1.1548
  574MOL0     H77477   0.964   0.386   5.471 -1.0604 -1.6905  0.4705
  574MOL0     H77478   1.173   0.229   5.439  1.7313  0.0985  0.5669
  574MOL0     H77479   1.174   0.399   5.413 -1.8378 -0.4043 -0.0482
  574MOL0     H77480   1.402   0.290   5.399 -0.8377  2.3280  1.3957
  574MOL0     H77481   1.359   0.375   5.251  0.3413  0.0140  0.6294
  574MOL0     H77482   1.305   0.177   5.128 -2.5594 -1.2836  0.9961
  574MOL0     H77483   1.300   0.075   5.274 -0.4540 -2.5986 -3.8664
  574MOL0     H77484   1.564   0.110   5.276 -0.5804 -0.0193 -0.4887
  574MOL0     H77485   1.482   0.032   5.141 -1.3345 -1.6550  2.6327
  574MOL0     H77486   1.596   0.407   4.976  2.7719 -0.1028  1.0530
  574MOL0     H77487   0.916   0.202   5.090 -2.0933 -1.8369 -1.3873
  574MOL0     H77488   0.563   0.234   5.047 -1.3604 -1.9551  2.3891
  574MOL0     H77489   0.714   0.222   4.964  1.0497  1.8670  0.0230
  574MOL0     H77490   0.664   0.100   5.096 -3.2658  1.0140 -0.0150
  575MOL0     O77491   4.074   6.341   1.071 -0.0858 -0.0449  0.3074
  575MOL0     C77492   3.950   6.355   1.068  0.2320 -0.2530  0.1604
  575MOL0     O77493   3.885   6.451   1.136 -0.4180 -0.3464 -0.2326
  575MOL0     C77494   3.913   6.482   1.269  0.5175  0.4416 -0.4042
  575MOL0     C77495   3.801   6.515   1.345 -0.7039  0.7110  0.0732
  575MOL0     C77496   3.808   6.526   1.493 -0.0009  1.1504 -0.0929
  575MOL0     C77497   3.931   6.514   1.558 -1.0829  0.2651  0.7060
  575MOL0     O77498   3.923   6.562   1.679 -0.5933  0.2328 -0.6303
  575MOL0     C77499   4.031   6.557   1.764 -0.3895  0.2432 -0.7470
  575MOL0     C77500   4.000   6.637   1.892 -0.6035 -0.5597 -0.9015
  575MOL0     C77501   4.131   6.629   1.990 -0.4931 -0.1578  0.4357
  575MOL0     C77502   4.230   6.746   1.945 -0.0568  0.1826 -0.1734
  575MOL0     C77503   4.338   6.775   2.038 -0.1409 -0.8284 -0.9319
  575MOL0     C77504   4.295   6.880   2.153  0.5864  0.3327  0.2387
  575MOL0     C77505   4.395   6.989   2.188  0.2193  0.2719 -0.8221
  575MOL0     C77506   4.504   6.914   2.275  0.1573 -0.1414  0.0446
  575MOL0     N77507   4.617   7.005   2.296 -0.3352 -0.2583 -0.8589
  575MOL0     C77508   4.730   7.009   2.221  0.0118  1.3549 -0.4022
  575MOL0     C77509   4.824   7.072   2.298 -0.9512 -0.3189  0.1684
  575MOL0     C77510   4.962   7.110   2.254 -0.2960  0.5545 -0.2142
  575MOL0     C77511   4.982   7.119   2.106 -0.0533 -0.0143  0.9104
  575MOL0     C77512   5.107   7.177   2.045 -0.1498  0.0052 -0.0392
  575MOL0     C77513   5.140   7.312   2.110 -0.6699 -1.3230  0.0683
  575MOL0     O77514   5.042   7.418   2.071 -0.4036 -0.0772  0.1747
  575MOL0     C77515   5.076   7.542   2.116  0.5716 -0.8198 -0.0905
  575MOL0     C77516   5.177   7.566   2.216  0.9364  0.9499  0.0206
  575MOL0     C77517   5.191   7.695   2.256 -0.8428 -1.2217 -0.0191
  575MOL0     C77518   5.111   7.802   2.216  0.7539 -0.3487  0.3102
  575MOL0     C77519   5.113   7.933   2.280  0.2077  0.0368 -0.4061
  575MOL0     O77520   5.023   8.017   2.239 -0.2082 -0.1494 -0.3254
  575MOL0     C77521   5.013   8.146   2.300  0.4244  0.4132 -0.6162
  575MOL0     C77522   5.120   8.228   2.312 -0.5582  0.6977 -1.1404
  575MOL0     C77523   5.111   8.353   2.369 -0.2989  0.3676  0.4159
  575MOL0     C77524   4.990   8.394   2.431 -0.0564 -0.4252 -0.1163
  575MOL0     O77525   4.985   8.514   2.502 -0.3584  1.0347  0.8152
  575MOL0     C77526   4.864   8.563   2.563 -0.1146  0.0509 -0.5755
  575MOL0     C77527   4.767   8.654   2.479 -0.1304  0.2372 -0.2879
  575MOL0     C77528   4.642   8.682   2.570 -0.8036 -0.2209 -0.4836
  575MOL0     C77529   4.588   8.825   2.538  0.4840  0.3374  0.3202
  575MOL0     C77530   4.563   8.852   2.381  0.3239 -0.3558 -0.6530
  575MOL0     C77531   4.457   8.775   2.298  0.9035  0.3279 -0.0340
  575MOL0     C77532   4.311   8.817   2.349  0.6053 -0.2113  0.7728
  575MOL0     C77533   4.211   8.715   2.287  0.0484 -1.0653 -0.7051
  575MOL0    Cl77534   4.073   8.668   2.393  0.0351  0.4522 -0.0044
  575MOL0     C77535   4.877   8.309   2.422 -0.3719  0.7976 -0.3626
  575MOL0     C77536   4.887   8.187   2.348 -0.9540  1.1582  0.4270
  575MOL0     O77537   5.203   7.957   2.356 -0.2894  0.3103 -0.1067
  575MOL0     C77538   5.015   7.770   2.119 -0.0817 -0.4388  0.7486
  575MOL0     C77539   4.988   7.647   2.062 -0.6597 -0.3579 -0.4459
  575MOL0     N77540   4.773   7.107   2.423 -0.5637 -0.2240 -0.0575
  575MOL0     N77541   4.646   7.071   2.416  1.3976 -1.1087  0.0495
  575MOL0     C77542   4.049   6.485   1.486  0.0813 -0.1283 -0.1248
  575MOL0     C77543   4.035   6.470   1.338  0.2251  0.5638  0.3319
  575MOL0     C77544   3.869   6.275   0.976 -0.4523 -0.8275 -0.6422
  575MOL0     C77545   3.726   6.291   0.978 -0.1081  0.6349 -0.4029
  575MOL0     C77546   3.636   6.202   0.905 -0.2766 -0.2102 -0.5290
  575MOL0     C77547   3.695   6.109   0.818  0.2069  0.3927  0.4224
  575MOL0     O77548   3.612   6.009   0.758 -0.1131 -0.0770 -0.7861
  575MOL0     C77549   3.621   5.883   0.820 -0.0047  1.0717 -0.0044
  575MOL0     C77550   3.500   5.819   0.762 -0.0479 -0.0313 -0.4558
  575MOL0     C77551   3.546   5.708   0.664  1.1077 -0.0003 -0.3012
  575MOL0     C77552   3.423   5.664   0.588  0.2154  0.0158  0.5464
  575MOL0     C77553   3.323   5.616   0.684  0.3007  0.3033  0.5305
  575MOL0     C77554   3.252   5.561   0.762  0.1374 -0.1070  0.1571
  575MOL0     C77555   3.838   6.109   0.806  0.2170 -0.6923  0.0809
  575MOL0     C77556   3.925   6.188   0.882 -0.6777 -0.0016 -0.3142
  575MOL0     C77557   4.074   6.154   0.865  0.5622 -0.3328 -0.2025
  575MOL0     H77558   3.703   6.519   1.297 -1.0712  2.5287  0.8991
  575MOL0     H77559   3.718   6.524   1.553  0.2750 -0.8135  0.3071
  575MOL0     H77560   4.047   6.451   1.785  1.3871  0.5389 -0.4412
  575MOL0     H77561   4.113   6.611   1.715  0.5836 -2.1755 -1.9399
  575MOL0     H77562   3.908   6.598   1.937 -1.0035  0.4883 -0.7797
  575MOL0     H77563   3.978   6.742   1.871 -5.1490 -1.0270  0.4922
  575MOL0     H77564   4.169   6.526   1.991 -1.9812 -0.7313  0.2894
  575MOL0     H77565   4.093   6.655   2.089 -1.4911  2.1673 -0.4896
  575MOL0     H77566   4.268   6.716   1.847  0.9743  0.4218  0.1392
  575MOL0     H77567   4.169   6.835   1.931  0.7019  0.7275 -0.0761
  575MOL0     H77568   4.363   6.680   2.085 -3.6152 -0.7548  1.4485
  575MOL0     H77569   4.416   6.816   1.973 -1.6813  0.8625 -1.8042
  575MOL0     H77570   4.213   6.936   2.108  1.4682 -0.2600 -2.2781
  575MOL0     H77571   4.268   6.824   2.243  1.2506 -0.4389 -0.0294
  575MOL0     H77572   4.345   7.066   2.248  1.8956 -0.3865  1.5831
  575MOL0     H77573   4.439   7.042   2.103 -3.4007  2.7351 -1.3922
  575MOL0     H77574   4.476   6.878   2.374 -0.6587 -0.5672 -0.3264
  575MOL0     H77575   4.541   6.828   2.219 -0.9951  2.0467 -4.5336
  575MOL0     H77576   4.745   6.970   2.121  1.7702  2.2856 -0.5482
  575MOL0     H77577   4.972   7.211   2.294  3.9336  0.0958  0.2727
  575MOL0     H77578   5.033   7.036   2.291 -0.2066 -0.2244 -1.8457
  575MOL0     H77579   4.989   7.024   2.052 -0.8251  0.7017 -0.5107
  575MOL0     H77580   4.899   7.176   2.064  1.7582  2.5707  0.6214
  575MOL0     H77581   5.111   7.173   1.936  1.2454 -0.1002 -0.0078
  575MOL0     H77582   5.192   7.116   2.080 -1.5376 -2.1298 -0.2177
  575MOL0     H77583   5.241   7.329   2.072 -0.7936 -0.3456  0.1639
  575MOL0     H77584   5.148   7.311   2.219 -0.5451  3.4122  0.3067
  575MOL0     H77585   5.234   7.489   2.266 -0.5896 -0.4355 -0.2777
  575MOL0     H77586   5.241   7.704   2.352 -0.7445  2.1437 -0.2938
  575MOL0     H77587   5.209   8.187   2.265 -1.1181  0.3894 -1.9591
  575MOL0     H77588   5.203   8.411   2.375 -1.5634  2.4028  1.7711
  575MOL0     H77589   4.806   8.478   2.600 -0.2445 -0.0299 -0.9556
  575MOL0     H77590   4.889   8.621   2.652 -0.2322  2.1116 -1.8254
  575MOL0     H77591   4.812   8.749   2.449 -1.2928  1.1212  0.6955
  575MOL0     H77592   4.739   8.607   2.385  1.1198  0.4401 -0.7863
  575MOL0     H77593   4.557   8.619   2.539 -1.8046  0.9016 -0.1103
  575MOL0     H77594   4.664   8.686   2.677  1.6344  1.0957 -0.9622
  575MOL0     H77595   4.658   8.903   2.571 -0.1433 -0.1144  2.9656
  575MOL0     H77596   4.495   8.838   2.594  0.0305 -0.2714 -0.2761
  575MOL0     H77597   4.657   8.842   2.326  1.0346 -1.9109  0.7801
  575MOL0     H77598   4.532   8.957   2.373  0.5942 -0.2190  0.0628
  575MOL0     H77599   4.472   8.801   2.193 -0.4093  1.6941  0.0903
  575MOL0     H77600   4.476   8.667   2.301  1.2192  0.3879  0.1900
  575MOL0     H77601   4.284   8.913   2.304 -1.3005 -2.1060 -2.5485
  575MOL0     H77602   4.295   8.832   2.456 -1.2491  2.3947  0.2283
  575MOL0     H77603   4.187   8.740   2.184  0.6080  3.8957  0.1288
  575MOL0     H77604   4.265   8.620   2.277  1.8276 -0.1568 -0.2918
  575MOL0     H77605   4.777   8.336   2.455 -0.3223  0.8558 -0.2609
  575MOL0     H77606   4.816   8.105   2.335 -0.8424  1.1241  0.0277
  575MOL0     H77607   4.951   7.849   2.080  0.6403 -1.2600 -2.3876
  575MOL0     H77608   4.918   7.641   1.980  1.8683 -1.8479 -2.6597
  575MOL0     H77609   4.146   6.476   1.535 -0.4137 -3.2634  0.4456
  575MOL0     H77610   4.128   6.461   1.283  1.9539 -1.1962  3.2628
  575MOL0     H77611   3.667   6.356   1.042  0.2175 -1.7228  2.4950
  575MOL0     H77612   3.528   6.217   0.905 -0.4879 -1.5881 -0.6345
  575MOL0     H77613   3.609   5.882   0.929  2.8025 -1.1687  0.3958
  575MOL0     H77614   3.718   5.838   0.800 -0.3081  0.7938 -0.8616
  575MOL0     H77615   3.434   5.884   0.703 -0.6072 -2.1370 -2.2827
  575MOL0     H77616   3.447   5.793   0.854  2.2240  0.3077  1.0443
  575MOL0     H77617   3.599   5.638   0.730  2.7499  2.1929  0.8648
  575MOL0     H77618   3.630   5.742   0.602  2.9386 -3.1278  0.2680
  575MOL0     H77619   3.388   5.749   0.527  2.5771  0.1592 -0.7090
  575MOL0     H77620   3.458   5.593   0.513  1.7162 -0.6672  1.8389
  575MOL0     H77621   3.186   5.503   0.824  0.1703  0.4093  0.6795
  575MOL0     H77622   3.880   6.025   0.751 -2.3455 -1.4872 -0.8396
  575MOL0     H77623   4.108   6.079   0.937  0.3666 -0.4467 -0.2262
  575MOL0     H77624   4.104   6.114   0.768  2.6473 -1.9764  1.0367
  575MOL0     H77625   4.145   6.235   0.881 -1.3709  1.2154  0.9736
  576MOL0     O77626   1.296  10.300   3.335  0.2613 -0.4881  0.1744
  576MOL0     C77627   1.381  10.236   3.401  0.7358  0.2635  0.4123
  576MOL0     O77628   1.375  10.098   3.424 -0.7971 -0.5315 -0.0851
  576MOL0     C77629   1.282  10.015   3.366 -0.1659 -0.0039 -1.0590
  576MOL0     C77630   1.310   9.888   3.310 -0.0826 -1.2005 -0.4428
  576MOL0     C77631   1.207   9.801   3.272  0.2037 -1.1448 -0.2110
  576MOL0     C77632   1.074   9.826   3.283  0.0971  0.1537  0.0764
  576MOL0     O77633   0.988   9.731   3.241 -0.4392  0.1722 -0.2229
  576MOL0     C77634   0.853   9.732   3.288  0.6497  0.5663  0.2356
  576MOL0     C77635   0.791   9.596   3.251 -0.1638  0.3421 -0.6474
  576MOL0     C77636   0.647   9.598   3.307  0.2978 -0.4117  0.5533
  576MOL0     C77637   0.592   9.458   3.343  0.5174  0.5222 -0.1506
  576MOL0     C77638   0.446   9.463   3.388  0.2132 -0.8532  0.0918
  576MOL0     C77639   0.391   9.330   3.450 -0.0897 -0.0180  0.5065
  576MOL0     C77640   0.377   9.218   3.343  0.1685 -0.7689 -0.3854
  576MOL0     C77641   0.305   9.088   3.397  0.4215 -0.0683 -0.5213
  576MOL0     N77642   0.159   9.107   3.396 -0.3061  0.5463 -0.0351
  576MOL0     C77643   0.079   9.017   3.460 -0.3002 -1.1892 -0.2848
  576MOL0     C77644  -0.046   9.048   3.409 -0.1473 -0.4480  0.1034
  576MOL0     C77645  -0.186   9.009   3.455 -0.2123  0.0071 -0.7391
  576MOL0     C77646  -0.204   8.861   3.434 -0.9760 -0.0375 -0.4820
  576MOL0     C77647  -0.242   8.823   3.287  0.1782 -0.2845 -0.0521
  576MOL0     C77648  -0.363   8.901   3.236  0.2060 -0.8178 -1.0011
  576MOL0     O77649  -0.372   8.864   3.095  0.0427 -0.2738 -0.7684
  576MOL0     C77650  -0.448   8.949   3.025 -0.4129  0.0629  0.4575
  576MOL0     C77651  -0.397   9.030   2.929 -1.0889 -0.1487 -0.8205
  576MOL0     C77652  -0.464   9.131   2.865 -0.2371 -0.6102 -0.3850
  576MOL0     C77653  -0.604   9.147   2.873  0.7123 -0.3711 -0.8948
  576MOL0     C77654  -0.680   9.253   2.801 -0.3425  0.5272 -0.7188
  576MOL0     O77655  -0.618   9.304   2.691 -0.4165  0.3890  0.3899
  576MOL0     C77656  -0.680   9.414   2.633  0.3792  0.7860  0.0304
  576MOL0     C77657  -0.753   9.395   2.520  0.4862 -0.1163  0.0421
  576MOL0     C77658  -0.800   9.495   2.441 -0.8736  0.3890 -0.0394
  576MOL0     C77659  -0.779   9.630   2.474  0.5220 -0.4918 -0.1020
  576MOL0     O77660  -0.829   9.727   2.386  0.8261  0.3375 -0.1170
  576MOL0     C77661  -0.794   9.863   2.411 -0.7158 -0.2469 -0.2357
  576MOL0     C77662  -0.899   9.935   2.497 -0.6878  0.5060  0.7705
  576MOL0     C77663  -0.842  10.075   2.545  0.3408 -0.5084  0.7995
  576MOL0     C77664  -0.953  10.158   2.606 -0.4055 -1.1534  0.3082
  576MOL0     C77665  -0.913  10.306   2.633 -0.7469  0.4624 -0.1819
  576MOL0     C77666  -0.819  10.324   2.761 -0.0118  0.1887 -0.5147
  576MOL0     C77667  -0.768  10.470   2.775 -0.2940  0.1594  1.1801
  576MOL0     C77668  -0.621  10.488   2.758 -0.6872  0.1486 -0.2021
  576MOL0    Cl77669  -0.575  10.661   2.763  0.2790  0.0745  0.5178
  576MOL0     C77670  -0.705   9.655   2.594  0.6461  0.6053 -0.7219
  576MOL0     C77671  -0.654   9.552   2.673  0.4246  0.4996 -1.2760
  576MOL0     O77672  -0.786   9.290   2.852  0.1485  0.4625  0.3628
  576MOL0     C77673  -0.664   9.052   2.972 -0.1477 -0.4407  0.1598
  576MOL0     C77674  -0.584   8.960   3.044 -0.0088  0.0439  0.3704
  576MOL0     N77675  -0.044   9.153   3.319 -0.5856  0.3567 -0.3803
  576MOL0     N77676   0.081   9.187   3.307 -0.2563  0.3352 -0.2185
  576MOL0     C77677   1.047   9.953   3.330 -0.0539 -0.1622  0.9441
  576MOL0     C77678   1.145  10.048   3.373  0.4814 -0.7915  1.6718
  576MOL0     C77679   1.497  10.304   3.456 -0.2652  0.3653  0.5776
  576MOL0     C77680   1.616  10.226   3.487  0.2818  0.7794 -0.2400
  576MOL0     C77681   1.723  10.289   3.542 -0.4470  0.0982 -0.2737
  576MOL0     C77682   1.733  10.424   3.560  0.6386  0.0497  0.3259
  576MOL0     O77683   1.845  10.475   3.619 -1.3845 -0.6773  1.3927
  576MOL0     C77684   1.867  10.617   3.618 -0.8242  0.4112 -0.0410
  576MOL0     C77685   2.001  10.641   3.696 -0.9102  0.0867 -0.1296
  576MOL0     C77686   2.131  10.566   3.664  0.1377 -0.3280  0.1158
  576MOL0     C77687   2.159  10.577   3.509 -0.1005 -0.5382  0.0877
  576MOL0     C77688   2.275  10.499   3.468 -0.7986  0.6888  0.0080
  576MOL0     C77689   2.363  10.426   3.416  0.1179 -0.7774  0.3249
  576MOL0     C77690   1.618  10.501   3.545 -0.1982  0.4417  0.0992
  576MOL0     C77691   1.504  10.437   3.493  0.1406 -0.7682  0.2390
  576MOL0     C77692   1.382  10.527   3.499  0.0686  0.9529  0.6382
  576MOL0     H77693   1.411   9.853   3.292  0.3478 -0.5462  0.5918
  576MOL0     H77694   1.239   9.701   3.243 -0.5715 -2.0251  1.8114
  576MOL0     H77695   0.859   9.727   3.397  2.7468 -4.7043  0.2033
  576MOL0     H77696   0.795   9.822   3.267 -1.2315 -0.4926  0.6679
  576MOL0     H77697   0.851   9.508   3.278  0.2876  0.3596 -1.5301
  576MOL0     H77698   0.774   9.586   3.143  0.0309 -0.6736 -0.5933
  576MOL0     H77699   0.578   9.638   3.232  2.5159  0.7089 -1.0030
  576MOL0     H77700   0.634   9.666   3.393 -1.1987  0.1325 -0.0696
  576MOL0     H77701   0.602   9.405   3.248  1.7157  1.0190 -0.3267
  576MOL0     H77702   0.655   9.417   3.423 -1.7440 -1.0139  0.9395
  576MOL0     H77703   0.425   9.538   3.464  0.0305  0.2581 -1.0159
  576MOL0     H77704   0.385   9.485   3.299 -0.0559 -3.8524 -0.5851
  576MOL0     H77705   0.461   9.299   3.527  0.3585  0.2650  0.2187
  576MOL0     H77706   0.298   9.338   3.508  0.3524 -2.0031  1.5927
  576MOL0     H77707   0.475   9.190   3.303  0.2589 -0.4338 -0.4011
  576MOL0     H77708   0.320   9.268   3.264  1.0800  1.4069  0.2738
  576MOL0     H77709   0.342   9.001   3.342  0.4437 -0.8699  0.7319
  576MOL0     H77710   0.324   9.079   3.504 -2.9696  0.1267  0.2260
  576MOL0     H77711   0.103   8.955   3.545 -0.1405 -2.0427 -0.9411
  576MOL0     H77712  -0.186   9.022   3.564  0.3942 -1.6736 -0.5004
  576MOL0     H77713  -0.255   9.073   3.400  0.1864 -0.9077 -2.3667
  576MOL0     H77714  -0.102   8.821   3.439 -1.6698 -1.8853 -0.4901
  576MOL0     H77715  -0.263   8.819   3.516  1.3159  0.8027  1.7469
  576MOL0     H77716  -0.272   8.720   3.268  0.3743 -0.1689 -1.0689
  576MOL0     H77717  -0.148   8.837   3.232  1.9592 -4.2949  1.5888
  576MOL0     H77718  -0.349   9.009   3.249  2.6332 -1.3635  2.1079
  576MOL0     H77719  -0.448   8.865   3.293  1.0464 -2.4387 -0.7030
  576MOL0     H77720  -0.289   9.040   2.918 -1.3473  4.3187 -1.3943
  576MOL0     H77721  -0.410   9.197   2.798  0.9929 -4.0091 -3.0419
  576MOL0     H77722  -0.761   9.293   2.485  0.2704  0.7458 -2.6507
  576MOL0     H77723  -0.838   9.473   2.342  1.8955 -1.1887 -0.8555
  576MOL0     H77724  -0.693   9.865   2.451  0.0995 -2.1772 -1.9758
  576MOL0     H77725  -0.803   9.898   2.307 -2.5975  1.2502  0.3784
  576MOL0     H77726  -0.995   9.942   2.444  0.3674  0.6745 -1.1885
  576MOL0     H77727  -0.912   9.870   2.584 -0.1337 -2.5980 -1.3069
  576MOL0     H77728  -0.755  10.057   2.609  3.0467  1.9624 -1.9071
  576MOL0     H77729  -0.801  10.127   2.458 -1.8961  1.4191  0.7932
  576MOL0     H77730  -0.969  10.110   2.703 -0.2484  0.3353  1.1014
  576MOL0     H77731  -1.048  10.153   2.552 -1.9668  1.6794  2.4670
  576MOL0     H77732  -1.005  10.358   2.663 -0.9064 -0.1732  0.4665
  576MOL0     H77733  -0.864  10.351   2.546  0.3154  2.8451  1.5234
  576MOL0     H77734  -0.868  10.293   2.854  1.4825 -1.1228 -0.0980
  576MOL0     H77735  -0.724  10.269   2.758  1.8616  3.2166 -0.2520
  576MOL0     H77736  -0.796  10.498   2.877 -0.9206 -2.0118  1.6619
  576MOL0     H77737  -0.825  10.522   2.697  2.5625 -2.7041 -3.3114
  576MOL0     H77738  -0.573  10.423   2.832  0.8766  1.7047  0.2306
  576MOL0     H77739  -0.584  10.445   2.664 -0.4514  0.5934 -0.3199
  576MOL0     H77740  -0.683   9.753   2.636 -2.3158 -0.0794  2.8878
  576MOL0     H77741  -0.579   9.572   2.749  1.9138  0.5412 -2.7030
  576MOL0     H77742  -0.772   9.046   2.981 -0.8809  2.5802 -3.9766
  576MOL0     H77743  -0.633   8.902   3.121  0.4323 -2.0941 -0.8637
  576MOL0     H77744   0.945   9.989   3.334 -0.2652  0.1101 -2.9901
  576MOL0     H77745   1.117  10.145   3.414  2.5175 -0.6187  2.7749
  576MOL0     H77746   1.614  10.117   3.478  0.4377  0.6654  0.9712
  576MOL0     H77747   1.805  10.221   3.563 -0.4947 -0.9338 -3.1248
  576MOL0     H77748   1.787  10.677   3.664 -1.0489 -0.6154  0.9465
  576MOL0     H77749   1.890  10.650   3.516  1.0912 -0.5889  0.0189
  576MOL0     H77750   1.994  10.619   3.803  2.1537  1.4025  0.4659
  576MOL0     H77751   2.032  10.746   3.700  4.8595 -1.2922  2.4648
  576MOL0     H77752   2.124  10.462   3.696  1.5583 -0.8100 -0.9949
  576MOL0     H77753   2.205  10.623   3.721  0.3344  0.5807 -1.0181
  576MOL0     H77754   2.079  10.532   3.451 -0.7148  1.5511 -0.7963
  576MOL0     H77755   2.148  10.678   3.468 -0.6877 -1.6110 -2.6291
  576MOL0     H77756   2.433  10.375   3.353 -0.1555  0.8657 -1.3955
  576MOL0     H77757   1.621  10.602   3.584  2.2174  0.5528 -0.2248
  576MOL0     H77758   1.351  10.550   3.397  0.8796  2.9674  0.8076
  576MOL0     H77759   1.297  10.474   3.543  1.4121 -1.0916  0.9016
  576MOL0     H77760   1.390  10.618   3.560 -0.7508 -0.3391  2.7951
  577MOL0     O77761   9.703  10.794   1.269 -0.2880  0.5210 -1.2555
  577MOL0     C77762   9.603  10.749   1.324 -0.0432  0.8037 -0.4259
  577MOL0     O77763   9.511  10.821   1.398  0.9615  0.4230  0.4155
  577MOL0     C77764   9.539  10.945   1.420 -0.0849 -0.3361  0.3545
  577MOL0     C77765   9.527  11.040   1.320  0.1747 -0.1041  0.1299
  577MOL0     C77766   9.563  11.174   1.338 -0.3630 -0.9717 -0.4509
  577MOL0     C77767   9.614  11.211   1.463 -0.5921 -0.4424 -1.3964
  577MOL0     O77768   9.675  11.338   1.483  0.4097 -0.2001 -0.2316
  577MOL0     C77769   9.607  11.453   1.448 -0.3128 -0.0192  0.0731
  577MOL0     C77770   9.505  11.503   1.544 -0.3595  0.5342 -0.2218
  577MOL0     C77771   9.400  11.405   1.594  0.5734  0.1713 -0.8456
  577MOL0     C77772   9.305  11.374   1.482  0.3266 -1.4840  0.3001
  577MOL0     C77773   9.218  11.251   1.500  0.1304  0.1929 -0.0607
  577MOL0     C77774   9.119  11.232   1.378 -0.3138 -0.4478 -1.1602
  577MOL0     C77775   9.033  11.113   1.400  1.0606 -0.7966 -0.3290
  577MOL0     C77776   9.096  10.979   1.365 -0.8973 -0.1493  0.3473
  577MOL0     N77777   8.994  10.872   1.379 -0.8305  0.4112 -0.2287
  577MOL0     C77778   8.863  10.887   1.409 -1.9564 -0.4231 -0.3554
  577MOL0     C77779   8.808  10.762   1.384  0.6138 -0.4461  0.3767
  577MOL0     C77780   8.665  10.717   1.400  0.9641  0.1602 -0.0533
  577MOL0     C77781   8.593  10.786   1.523 -0.1999  0.4771  1.2483
  577MOL0     C77782   8.675  10.786   1.657  0.3870  0.9314 -0.7199
  577MOL0     C77783   8.732  10.644   1.689  0.1846 -0.2990  1.0410
  577MOL0     O77784   8.798  10.645   1.814  0.0525  0.0155  0.2978
  577MOL0     C77785   8.923  10.712   1.829  0.9942  0.2446  0.3233
  577MOL0     C77786   8.965  10.756   1.952 -0.4251  0.3319  0.3031
  577MOL0     C77787   9.074  10.842   1.971 -0.3292  0.4679 -0.2788
  577MOL0     C77788   9.144  10.891   1.859 -0.1459  1.3062 -0.2093
  577MOL0     C77789   9.244  10.993   1.886 -0.6375  1.1151 -1.4491
  577MOL0     O77790   9.261  11.030   2.025 -0.6554 -1.0692  0.4322
  577MOL0     C77791   9.378  11.087   2.068  0.3330 -0.2481  0.5641
  577MOL0     C77792   9.377  11.161   2.189 -0.1012 -0.6852  0.1558
  577MOL0     C77793   9.490  11.241   2.229 -0.5492  0.2652 -0.0628
  577MOL0     C77794   9.613  11.235   2.161  0.8107 -0.6389  0.0901
  577MOL0     O77795   9.733  11.299   2.192 -0.0111  0.6207  0.5063
  577MOL0     C77796   9.741  11.409   2.277 -0.5351  0.4682  0.1105
  577MOL0     C77797   9.885  11.445   2.324  0.2531 -0.0429 -0.3284
  577MOL0     C77798   9.965  11.338   2.385  0.2880 -0.0675  0.4695
  577MOL0     C77799  10.115  11.373   2.390 -0.1211 -0.0082  0.1851
  577MOL0     C77800  10.201  11.341   2.265 -0.2900  0.3661  0.4502
  577MOL0     C77801  10.350  11.379   2.272 -0.0137 -0.5725 -0.2284
  577MOL0     C77802  10.366  11.498   2.190 -0.4412 -0.1118  0.2107
  577MOL0     C77803  10.506  11.543   2.161  0.1148 -0.3076 -0.4042
  577MOL0    Cl77804  10.587  11.589   2.312 -0.3890  0.2811  0.2216
  577MOL0     C77805   9.614  11.139   2.061  0.0606  0.5253  0.5938
  577MOL0     C77806   9.501  11.071   2.013  0.0784 -0.6087 -0.1309
  577MOL0     O77807   9.282  11.057   1.787  0.4841  0.2476  0.0459
  577MOL0     C77808   9.112  10.845   1.729 -1.5296  0.0812 -1.1802
  577MOL0     C77809   9.001  10.757   1.722  0.7933  0.2489  0.1978
  577MOL0     N77810   8.902  10.688   1.329 -0.3855  1.1167 -0.3928
  577MOL0     N77811   9.013  10.742   1.332  1.5028 -0.1563 -0.7734
  577MOL0     C77812   9.613  11.119   1.573  0.4691 -0.6503  0.2642
  577MOL0     C77813   9.577  10.989   1.550 -0.8896  0.5398  0.0510
  577MOL0     C77814   9.586  10.604   1.324  0.1436  0.3468  0.1776
  577MOL0     C77815   9.706  10.527   1.317  0.6544  0.5992 -0.8804
  577MOL0     C77816   9.687  10.388   1.328 -0.4901 -0.1804  0.8042
  577MOL0     C77817   9.567  10.328   1.330  0.4809 -0.8919 -0.0419
  577MOL0     O77818   9.551  10.190   1.331  0.7234  0.1467  0.1952
  577MOL0     C77819   9.660  10.105   1.360 -1.2214 -0.0149  0.0082
  577MOL0     C77820   9.618   9.952   1.360  0.0879 -0.3815  0.1900
  577MOL0     C77821   9.576   9.915   1.497  0.2862 -0.6032 -0.1794
  577MOL0     C77822   9.533   9.763   1.502 -0.9569  0.2311  0.1444
  577MOL0     C77823   9.527   9.713   1.638  0.6756 -1.0931  0.0589
  577MOL0     C77824   9.535   9.681   1.752 -0.0491 -0.8178 -0.3411
  577MOL0     C77825   9.454  10.407   1.328  0.2810 -0.0517 -0.6393
  577MOL0     C77826   9.459  10.549   1.338 -0.4380  0.1084  0.3602
  577MOL0     C77827   9.326  10.619   1.343 -1.5913 -0.2728  0.6195
  577MOL0     H77828   9.492  11.006   1.223 -3.1425 -1.2682  1.5891
  577MOL0     H77829   9.559  11.237   1.250  0.6672 -1.3702 -0.8028
  577MOL0     H77830   9.688  11.526   1.432  0.9619 -1.5801 -0.9156
  577MOL0     H77831   9.566  11.445   1.347 -0.6518 -1.9909  0.3345
  577MOL0     H77832   9.451  11.583   1.493 -0.4631  1.2713  0.9924
  577MOL0     H77833   9.558  11.540   1.633 -0.1748 -0.5510  0.1392
  577MOL0     H77834   9.337  11.438   1.677 -1.0864 -1.2327 -1.4818
  577MOL0     H77835   9.448  11.314   1.632 -4.8317 -2.4009  0.9136
  577MOL0     H77836   9.232  11.453   1.465 -0.3286 -2.4618 -1.8291
  577MOL0     H77837   9.361  11.359   1.389 -2.1076  2.9757 -2.2221
  577MOL0     H77838   9.272  11.159   1.522  0.3173  0.2421 -0.3070
  577MOL0     H77839   9.154  11.280   1.584 -1.2129  0.9198 -1.2931
  577MOL0     H77840   9.060  11.323   1.383 -0.9014 -0.8283 -1.0188
  577MOL0     H77841   9.169  11.221   1.281 -1.3792 -0.2718 -1.7413
  577MOL0     H77842   8.947  11.140   1.337 -1.6584  1.4771  3.8494
  577MOL0     H77843   8.981  11.125   1.496 -0.3540  2.3074 -1.3577
  577MOL0     H77844   9.121  10.978   1.258  0.8721  0.0554  0.7247
  577MOL0     H77845   9.187  10.965   1.423 -0.1354  1.6843 -0.3296
  577MOL0     H77846   8.820  10.974   1.458 -0.8827 -1.3016  2.3375
  577MOL0     H77847   8.605  10.733   1.310 -1.0119 -0.1163  1.1648
  577MOL0     H77848   8.669  10.608   1.412 -0.1867  0.2218  1.0834
  577MOL0     H77849   8.566  10.889   1.496 -1.3968  0.1985  1.3261
  577MOL0     H77850   8.492  10.745   1.530  0.2468 -0.9719 -0.2635
  577MOL0     H77851   8.608  10.806   1.742  1.1115  0.0218  0.0867
  577MOL0     H77852   8.750  10.865   1.651  2.0856 -0.6072 -0.3359
  577MOL0     H77853   8.800  10.615   1.609 -2.5291  0.5740 -1.8007
  577MOL0     H77854   8.652  10.570   1.682  1.6195 -1.9133  1.0455
  577MOL0     H77855   8.899  10.726   2.033  3.0611 -3.5203  2.0642
  577MOL0     H77856   9.094  10.869   2.074 -1.0278 -1.6939  0.4751
  577MOL0     H77857   9.281  11.190   2.231  0.5479  0.3938  0.9601
  577MOL0     H77858   9.474  11.317   2.304 -1.8019  2.7938 -2.7039
  577MOL0     H77859   9.692  11.491   2.224 -0.7676  1.4860  1.8111
  577MOL0     H77860   9.683  11.390   2.369 -3.4002  1.8477 -1.2695
  577MOL0     H77861   9.943  11.491   2.243  0.2441  3.4709  1.4456
  577MOL0     H77862   9.873  11.521   2.402  1.4632  0.9261 -1.0459
  577MOL0     H77863   9.926  11.313   2.484 -3.1870 -1.7260 -1.1596
  577MOL0     H77864   9.941  11.248   2.328 -0.6158 -1.1425  2.4882
  577MOL0     H77865  10.165  11.313   2.467 -1.2836 -0.8049  0.3359
  577MOL0     H77866  10.128  11.477   2.420  1.2772 -0.4498  1.2714
  577MOL0     H77867  10.142  11.384   2.183  0.2251 -2.3874 -1.5081
  577MOL0     H77868  10.187  11.236   2.240  3.3184  0.6560 -4.1688
  577MOL0     H77869  10.374  11.405   2.375 -2.2954  1.4187 -0.0967
  577MOL0     H77870  10.420  11.300   2.243 -0.3034 -1.1822  0.7045
  577MOL0     H77871  10.318  11.579   2.246 -3.7439 -0.3560 -1.9722
  577MOL0     H77872  10.310  11.488   2.096 -1.7716  1.1930  0.8293
  577MOL0     H77873  10.557  11.459   2.113  1.2281 -1.3238  2.3474
  577MOL0     H77874  10.509  11.632   2.098 -1.6076  2.3682  2.9386
  577MOL0     H77875   9.709  11.120   2.014  0.8659 -0.4111  2.4709
  577MOL0     H77876   9.511  11.024   1.916  0.1475  0.5314 -0.6855
  577MOL0     H77877   9.161  10.888   1.642  1.3955  0.1608  0.3943
  577MOL0     H77878   8.977  10.723   1.621  2.1157 -1.0250  0.2818
  577MOL0     H77879   9.644  11.152   1.672  1.4321  0.6172 -0.4202
  577MOL0     H77880   9.572  10.915   1.629  1.2365  0.9887  0.6752
  577MOL0     H77881   9.804  10.573   1.328 -0.4797  2.9629 -0.0987
  577MOL0     H77882   9.770  10.319   1.325  1.9087  2.5510  0.2724
  577MOL0     H77883   9.712  10.126   1.455  1.8095  4.8066 -2.3062
  577MOL0     H77884   9.726  10.125   1.275 -1.4307  1.0940  0.0928
  577MOL0     H77885   9.710   9.899   1.336  1.9109  2.8231 -0.4727
  577MOL0     H77886   9.539   9.921   1.290  1.1029 -1.5768 -0.4720
  577MOL0     H77887   9.491   9.973   1.535  2.3348  1.4100  1.6945
  577MOL0     H77888   9.652   9.932   1.575  0.3029 -0.1180 -0.2994
  577MOL0     H77889   9.436   9.755   1.452 -0.6335  0.4077 -0.5225
  577MOL0     H77890   9.605   9.698   1.452 -1.2430 -3.1775  3.6850
  577MOL0     H77891   9.530   9.641   1.851  2.0487  1.6721  0.8831
  577MOL0     H77892   9.359  10.355   1.326 -0.6238  1.5692 -1.2938
  577MOL0     H77893   9.317  10.675   1.437 -0.2455 -0.2381  0.7433
  577MOL0     H77894   9.328  10.701   1.270  1.8698 -1.9092 -1.3434
  577MOL0     H77895   9.236  10.560   1.324  0.6595 -2.9460 -2.9983
  578MOL0     O77896   3.067   9.600   4.854 -0.6588 -0.4147  0.6951
  578MOL0     C77897   3.019   9.495   4.818  1.0529 -0.2479 -0.2421
  578MOL0     O77898   2.902   9.474   4.749 -0.7088 -0.7983 -0.0464
  578MOL0     C77899   2.839   9.579   4.694  0.1646  0.6235  0.1355
  578MOL0     C77900   2.803   9.592   4.559 -0.2103 -0.2193 -0.0295
  578MOL0     C77901   2.741   9.706   4.511  0.3406 -0.3078  0.7595
  578MOL0     C77902   2.698   9.808   4.592 -0.3599 -0.2939  0.8751
  578MOL0     O77903   2.652   9.926   4.546  0.0027  0.4915 -0.4170
  578MOL0     C77904   2.545   9.922   4.442  0.4512  0.2553 -0.8256
  578MOL0     C77905   2.509  10.068   4.415 -0.2618  0.2385  0.0991
  578MOL0     C77906   2.420  10.153   4.504 -0.5322 -0.7175 -0.0620
  578MOL0     C77907   2.397  10.296   4.452  0.7905  1.0134 -0.1467
  578MOL0     C77908   2.326  10.376   4.556  0.2601 -0.6187  0.0032
  578MOL0     C77909   2.424  10.444   4.659  1.0229  0.9518  0.5247
  578MOL0     C77910   2.369  10.571   4.728 -0.2402 -0.1546  0.6792
  578MOL0     C77911   2.231  10.538   4.791  0.2664 -1.7618  0.3609
  578MOL0     N77912   2.182  10.635   4.893  0.4328 -0.6477  0.6219
  578MOL0     C77913   2.143  10.759   4.863 -0.8324  0.2678 -0.1988
  578MOL0     C77914   2.072  10.810   4.966  0.0229  0.6987 -0.2852
  578MOL0     C77915   2.027  10.953   4.980  0.0857 -0.5209 -0.7075
  578MOL0     C77916   2.090  11.018   5.111  1.0763 -0.0543  0.8645
  578MOL0     C77917   2.025  11.151   5.155  0.4362  0.4137  0.2940
  578MOL0     C77918   1.864  11.151   5.155  0.1134 -0.1824 -0.2457
  578MOL0     O77919   1.816  11.251   5.253  0.3664  0.1475  1.3093
  578MOL0     C77920   1.678  11.268   5.270 -0.2153  0.0489  0.6000
  578MOL0     C77921   1.592  11.267   5.164  0.4917  0.6030 -0.5648
  578MOL0     C77922   1.450  11.265   5.181  0.0163  0.8475  0.1695
  578MOL0     C77923   1.394  11.268   5.313  0.3932 -0.0993  0.7395
  578MOL0     C77924   1.249  11.281   5.341 -0.0970 -0.8057  0.3079
  578MOL0     O77925   1.167  11.303   5.230 -0.1723 -0.0551 -0.4390
  578MOL0     C77926   1.036  11.340   5.253  0.0495 -0.0083 -0.5745
  578MOL0     C77927   1.005  11.459   5.326  0.4349  0.7726  0.0797
  578MOL0     C77928   0.871  11.491   5.345 -0.1813 -0.4806 -0.2514
  578MOL0     C77929   0.764  11.412   5.292  0.5476  0.6448  0.8814
  578MOL0     O77930   0.624  11.432   5.316  0.3978  0.6014 -0.6404
  578MOL0     C77931   0.589  11.483   5.440 -0.6133 -1.1512  1.0129
  578MOL0     C77932   0.455  11.427   5.482 -0.2529 -0.6837 -0.3848
  578MOL0     C77933   0.437  11.436   5.635  0.6482  0.4133 -1.6963
  578MOL0     C77934   0.490  11.305   5.708 -0.0975 -0.0350 -0.6683
  578MOL0     C77935   0.433  11.304   5.857  0.3821  0.4737  0.3297
  578MOL0     C77936   0.531  11.276   5.964 -0.0852  0.2258 -0.4262
  578MOL0     C77937   0.468  11.289   6.110  0.1970  0.0080 -0.5291
  578MOL0     C77938   0.576  11.310   6.215 -0.0191 -0.1404 -0.1844
  578MOL0    Cl77939   0.511  11.264   6.374 -0.0892  0.2268 -0.0473
  578MOL0     C77940   0.801  11.303   5.203  0.0578  0.2261 -1.3272
  578MOL0     C77941   0.940  11.260   5.194  0.3950 -0.2349  0.1525
  578MOL0     O77942   1.210  11.282   5.457  0.5999 -0.0951 -0.5984
  578MOL0     C77943   1.485  11.259   5.422 -0.3265  0.2425  0.2734
  578MOL0     C77944   1.627  11.266   5.400  0.3719  0.1026 -0.2643
  578MOL0     N77945   2.057  10.698   5.056  0.0540 -0.2792  0.7943
  578MOL0     N77946   2.122  10.594   5.010  0.3525 -0.2950  0.1267
  578MOL0     C77947   2.724   9.797   4.732  0.0653 -1.1223  0.1510
  578MOL0     C77948   2.788   9.685   4.776 -0.8920  1.0319 -0.1559
  578MOL0     C77949   3.094   9.375   4.863  1.0037  0.1764  0.5081
  578MOL0     C77950   3.039   9.286   4.955  0.8107 -0.1499 -0.3000
  578MOL0     C77951   3.121   9.183   5.006  0.1596  0.1161 -0.9840
  578MOL0     C77952   3.251   9.167   4.957 -0.4140  0.1429  0.0790
  578MOL0     O77953   3.319   9.070   5.016  0.6493 -0.0510  0.4228
  578MOL0     C77954   3.462   9.061   4.988 -0.3013 -0.2426 -0.2816
  578MOL0     C77955   3.472   8.977   4.859  0.5483  0.5208 -0.7244
  578MOL0     C77956   3.348   8.881   4.823 -0.6361 -0.6002  0.0187
  578MOL0     C77957   3.337   8.766   4.936  0.7908 -1.2145  0.4961
  578MOL0     C77958   3.208   8.773   5.006 -0.1886  0.0778 -0.3331
  578MOL0     C77959   3.127   8.794   5.087 -0.3484  0.3696 -0.5276
  578MOL0     C77960   3.295   9.249   4.855 -0.8750 -0.1042  0.1142
  578MOL0     C77961   3.220   9.358   4.800 -0.8790  0.5463 -0.4806
  578MOL0     C77962   3.288   9.439   4.683 -0.0187  0.2234 -0.2423
  578MOL0     H77963   2.846   9.520   4.489  0.7463  1.6611 -1.4708
  578MOL0     H77964   2.733   9.721   4.404  0.2611  0.0254  0.8129
  578MOL0     H77965   2.589   9.873   4.354  0.8789 -0.8164 -0.0410
  578MOL0     H77966   2.457   9.863   4.467  0.9259  0.4814  1.5790
  578MOL0     H77967   2.468  10.073   4.314 -0.1913  0.8523  0.0960
  578MOL0     H77968   2.601  10.127   4.408  1.6481 -2.5286 -0.0093
  578MOL0     H77969   2.471  10.146   4.600 -0.6724 -3.3270 -0.1060
  578MOL0     H77970   2.321  10.109   4.513 -0.2261 -1.2148  1.0611
  578MOL0     H77971   2.493  10.337   4.419  1.5161  0.0519  0.6977
  578MOL0     H77972   2.330  10.281   4.367 -0.0385  1.8947  0.3403
  578MOL0     H77973   2.287  10.459   4.496 -2.2092 -1.6255  0.0904
  578MOL0     H77974   2.242  10.328   4.606  1.1205 -1.1588  0.9568
  578MOL0     H77975   2.446  10.372   4.738 -0.8246 -2.9721 -2.2112
  578MOL0     H77976   2.516  10.461   4.602  0.0337 -0.2793 -1.5419
  578MOL0     H77977   2.351  10.654   4.659  1.4461  0.9188  1.4510
  578MOL0     H77978   2.443  10.603   4.802 -2.6769  1.7739  2.4244
  578MOL0     H77979   2.156  10.547   4.712  1.7022 -1.3445 -1.0140
  578MOL0     H77980   2.227  10.443   4.844 -0.4560 -1.8884  0.0893
  578MOL0     H77981   2.185  10.818   4.782  2.6029 -0.8300  0.6207
  578MOL0     H77982   2.062  11.016   4.898  2.2354 -0.9423 -0.1843
  578MOL0     H77983   1.919  10.942   4.996  0.3995 -2.3486  0.3654
  578MOL0     H77984   2.070  10.943   5.188 -1.2065  0.4821  0.8662
  578MOL0     H77985   2.199  11.022   5.109  1.0409  2.3341 -0.1519
  578MOL0     H77986   2.034  11.228   5.078  0.8658  0.0331 -0.0412
  578MOL0     H77987   2.063  11.185   5.251  2.2874  1.8851 -0.8851
  578MOL0     H77988   1.825  11.056   5.192 -1.5521  0.6757  0.2895
  578MOL0     H77989   1.829  11.176   5.055  2.3458  0.4232 -0.9306
  578MOL0     H77990   1.620  11.275   5.059 -2.8115  0.1508 -1.5800
  578MOL0     H77991   1.384  11.255   5.096 -0.3509 -2.5503  0.7348
  578MOL0     H77992   1.084  11.516   5.375  0.9237 -1.4618  2.0716
  578MOL0     H77993   0.834  11.574   5.405  0.6991 -1.1790  1.3406
  578MOL0     H77994   0.665  11.443   5.509 -0.5979 -4.0924 -0.5490
  578MOL0     H77995   0.588  11.592   5.431  3.0590 -1.1911 -2.9865
  578MOL0     H77996   0.380  11.488   5.432 -1.6559 -2.4016 -0.4960
  578MOL0     H77997   0.436  11.327   5.442  1.4238 -1.3227  0.3060
  578MOL0     H77998   0.486  11.528   5.669  1.6446 -1.5040  2.6834
  578MOL0     H77999   0.329  11.445   5.654  0.9341  1.0374 -0.2309
  578MOL0     H78000   0.598  11.318   5.707  0.1388 -0.7282  2.9358
  578MOL0     H78001   0.455  11.210   5.666  0.5720 -1.1851  1.2715
  578MOL0     H78002   0.349  11.235   5.862  1.9172 -1.5410 -0.0710
  578MOL0     H78003   0.392  11.403   5.877 -3.6094 -0.7865 -0.7766
  578MOL0     H78004   0.586  11.183   5.950 -0.1432 -0.0002  0.7666
  578MOL0     H78005   0.615  11.345   5.953  1.8488 -2.1614 -1.3651
  578MOL0     H78006   0.409  11.198   6.126 -0.3179  0.7273  2.0542
  578MOL0     H78007   0.398  11.373   6.115  0.4447  0.2549 -1.0896
  578MOL0     H78008   0.658  11.238   6.203 -0.6601 -1.1199  1.0899
  578MOL0     H78009   0.620  11.411   6.219  1.8101 -0.8964 -0.0871
  578MOL0     H78010   0.734  11.231   5.156  0.8490  0.1246 -2.3483
  578MOL0     H78011   0.969  11.169   5.143 -0.3833 -0.1775 -0.4179
  578MOL0     H78012   1.449  11.255   5.524  0.7890 -1.0892  0.6356
  578MOL0     H78013   1.693  11.261   5.486 -0.4144 -0.6199  0.3150
  578MOL0     H78014   2.701   9.885   4.791 -2.2036 -2.8251  2.0066
  578MOL0     H78015   2.809   9.675   4.882  2.7627  3.4284 -0.4862
  578MOL0     H78016   2.936   9.303   4.985 -0.2010 -2.3792 -2.1559
  578MOL0     H78017   3.083   9.104   5.069 -1.2792  0.4928 -1.3529
  578MOL0     H78018   3.510   9.017   5.075 -1.0267  2.6435  1.7356
  578MOL0     H78019   3.512   9.158   4.983  0.2704 -0.5390 -0.4102
  578MOL0     H78020   3.563   8.919   4.876 -0.8948 -1.4202  0.9078
  578MOL0     H78021   3.491   9.033   4.768 -2.2706  0.4297 -1.4797
  578MOL0     H78022   3.372   8.835   4.727  0.5945  1.2468 -0.6237
  578MOL0     H78023   3.260   8.943   4.804  0.0454  0.8550  1.3356
  578MOL0     H78024   3.330   8.672   4.881 -0.9060  0.1877 -1.8756
  578MOL0     H78025   3.425   8.756   5.000  0.4776 -0.6776  1.0320
  578MOL0     H78026   3.043   8.807   5.153  1.4093 -0.8541  2.0998
  578MOL0     H78027   3.390   9.236   4.804 -0.5156  2.6866 -0.0854
  578MOL0     H78028   3.309   9.542   4.713  0.2961  0.8046 -2.3317
  578MOL0     H78029   3.390   9.404   4.663 -0.7868 -1.2616 -1.8875
  578MOL0     H78030   3.227   9.434   4.592  0.6371 -0.7000 -0.6513
  579MOL0     O78031   6.505   0.720   5.840 -0.0597 -0.2318 -0.6235
  579MOL0     C78032   6.497   0.602   5.870  0.3704  0.7606  0.0219
  579MOL0     O78033   6.534   0.544   5.988 -0.1124  0.2032  0.2432
  579MOL0     C78034   6.543   0.638   6.086 -0.2760  0.0588 -0.9497
  579MOL0     C78035   6.434   0.681   6.167  0.0485  0.7274  0.3207
  579MOL0     C78036   6.455   0.791   6.258  0.4944  0.8908 -0.5511
  579MOL0     C78037   6.588   0.839   6.286 -0.3278  0.4276  0.3674
  579MOL0     O78038   6.612   0.936   6.372 -0.4386 -0.5423  0.5076
  579MOL0     C78039   6.538   0.927   6.501  0.1157  0.4733  0.5618
  579MOL0     C78040   6.594   1.015   6.624 -0.1798  0.2486  0.6620
  579MOL0     C78041   6.678   0.936   6.719  0.6587 -0.4279  0.0561
  579MOL0     C78042   6.736   1.023   6.828  0.1795 -1.2788 -0.7355
  579MOL0     C78043   6.856   1.103   6.779 -0.1094 -0.0281 -0.6261
  579MOL0     C78044   6.898   1.202   6.897  0.3463 -0.1123 -0.2641
  579MOL0     C78045   6.959   1.138   7.016  0.2177  0.0218 -0.1629
  579MOL0     C78046   6.981   1.251   7.110 -0.1029 -0.0225 -0.2286
  579MOL0     N78047   7.042   1.196   7.237  0.1659  0.3651  0.7556
  579MOL0     C78048   7.152   1.113   7.244  0.0798 -0.8481 -0.1644
  579MOL0     C78049   7.183   1.109   7.375  0.4412 -0.1770 -0.0543
  579MOL0     C78050   7.302   1.043   7.435  0.5935  0.1060  0.1775
  579MOL0     C78051   7.255   0.951   7.554 -0.3845  1.3561  0.2503
  579MOL0     C78052   7.330   0.822   7.542 -1.0350 -0.0584  0.1390
  579MOL0     C78053   7.270   0.724   7.434 -0.4902 -0.7305 -0.1661
  579MOL0     O78054   7.140   0.687   7.487 -0.9049 -0.3586  0.5991
  579MOL0     C78055   7.056   0.684   7.383  1.5710  0.3568  0.2255
  579MOL0     C78056   7.024   0.554   7.343  0.2227 -0.2364  0.3908
  579MOL0     C78057   6.914   0.533   7.257  0.1285  0.3479  0.4032
  579MOL0     C78058   6.859   0.645   7.188  0.2433  0.9151 -0.9703
  579MOL0     C78059   6.739   0.629   7.098  0.9153  0.5771  0.9406
  579MOL0     O78060   6.735   0.515   7.032  0.2847 -0.4599 -1.3407
  579MOL0     C78061   6.655   0.490   6.928 -0.2704  0.2904 -0.8423
  579MOL0     C78062   6.577   0.379   6.925 -0.9209  1.0314  1.3276
  579MOL0     C78063   6.488   0.344   6.828  0.3625  0.0516  0.1584
  579MOL0     C78064   6.480   0.432   6.718 -0.5946 -0.2205  0.7060
  579MOL0     O78065   6.383   0.421   6.621  0.2221 -0.3569  0.1772
  579MOL0     C78066   6.252   0.357   6.654 -0.4029  1.0690 -0.8387
  579MOL0     C78067   6.149   0.418   6.565  0.5178  0.3747 -0.3092
  579MOL0     C78068   6.173   0.401   6.416  0.4587  0.8969  0.0925
  579MOL0     C78069   6.155   0.255   6.362  0.3400  1.1169 -0.0594
  579MOL0     C78070   6.149   0.232   6.211 -0.1518  0.3358  0.4953
  579MOL0     C78071   6.022   0.281   6.148  0.0404 -0.2813  0.5197
  579MOL0     C78072   6.023   0.303   5.994 -0.1168  1.0841  0.0919
  579MOL0     C78073   6.113   0.410   5.957  0.0751 -0.3690  0.7592
  579MOL0    Cl78074   6.048   0.562   6.028  0.0688  0.0129  0.0203
  579MOL0     C78075   6.568   0.550   6.710 -0.4522 -0.0680  0.1766
  579MOL0     C78076   6.663   0.565   6.810 -0.1394 -0.1265 -1.1497
  579MOL0     O78077   6.668   0.729   7.071  0.1228  0.1084  0.1814
  579MOL0     C78078   6.889   0.774   7.223 -0.2563  0.2184  0.0881
  579MOL0     C78079   6.990   0.788   7.325  0.8272 -0.7872  0.0437
  579MOL0     N78080   7.102   1.197   7.438  0.1666  0.7767  0.0401
  579MOL0     N78081   7.016   1.249   7.363  0.2536 -0.2720 -0.2041
  579MOL0     C78082   6.695   0.797   6.202 -0.4090 -0.5414 -0.6913
  579MOL0     C78083   6.669   0.706   6.097 -1.0484  0.8534 -0.4464
  579MOL0     C78084   6.452   0.511   5.758  0.2409 -0.3445  0.1182
  579MOL0     C78085   6.436   0.568   5.628  0.2654  0.3879 -0.6784
  579MOL0     C78086   6.399   0.487   5.520  0.3810  0.1556 -0.1914
  579MOL0     C78087   6.367   0.360   5.539 -0.3454  0.6429  1.0268
  579MOL0     O78088   6.317   0.285   5.438  1.2530 -0.0293 -0.7187
  579MOL0     C78089   6.198   0.335   5.373 -0.5883  0.7422 -0.2267
  579MOL0     C78090   6.102   0.216   5.349 -0.2843  0.1228 -0.3307
  579MOL0     C78091   5.969   0.256   5.287 -0.2272 -0.1846 -0.7309
  579MOL0     C78092   5.980   0.334   5.162 -0.4211  0.6764 -0.4140
  579MOL0     C78093   6.022   0.477   5.178 -0.0821  0.2601 -0.1420
  579MOL0     C78094   6.057   0.596   5.202 -0.2573 -0.0167  0.0608
  579MOL0     C78095   6.390   0.295   5.662 -0.2197  0.2220  0.5409
  579MOL0     C78096   6.425   0.368   5.772 -0.8274  0.0396  0.7624
  579MOL0     C78097   6.453   0.285   5.889 -0.2611  0.2885 -0.3921
  579MOL0     H78098   6.334   0.642   6.151  0.2912  0.5631 -0.9145
  579MOL0     H78099   6.362   0.821   6.304  0.2595 -0.5308 -0.0476
  579MOL0     H78100   6.433   0.954   6.494 -1.0905 -3.8065 -1.9964
  579MOL0     H78101   6.533   0.823   6.534  1.5991 -0.6120 -2.2454
  579MOL0     H78102   6.512   1.064   6.677  0.7521  1.4486  1.0266
  579MOL0     H78103   6.650   1.104   6.594 -1.4025  0.6701 -0.4660
  579MOL0     H78104   6.761   0.889   6.666  3.6108 -1.7076  5.1524
  579MOL0     H78105   6.616   0.859   6.765  2.2284 -0.8080  1.6360
  579MOL0     H78106   6.647   1.077   6.862  0.3210 -0.5667 -1.4627
  579MOL0     H78107   6.776   0.955   6.904 -1.4378 -1.9883 -0.4831
  579MOL0     H78108   6.943   1.037   6.775 -0.2264 -1.1557  5.4670
  579MOL0     H78109   6.840   1.157   6.685 -1.7794  1.8568  0.6378
  579MOL0     H78110   6.974   1.271   6.858 -0.1466  2.1108  2.3681
  579MOL0     H78111   6.813   1.268   6.916  1.4720  1.9131 -1.8442
  579MOL0     H78112   7.042   1.074   6.982  0.5333  1.3477 -2.0462
  579MOL0     H78113   6.884   1.074   7.062  0.6399  1.0495  2.0938
  579MOL0     H78114   7.042   1.330   7.065  0.3457  0.5721  1.3497
  579MOL0     H78115   6.885   1.298   7.130  0.5760  1.3974 -0.1982
  579MOL0     H78116   7.202   1.058   7.165  1.7640  0.4763 -0.0764
  579MOL0     H78117   7.363   0.991   7.360  0.8145 -0.7094  0.9031
  579MOL0     H78118   7.371   1.119   7.472  0.1852  0.7257 -0.3312
  579MOL0     H78119   7.294   1.001   7.643  1.0552  3.3073 -1.3829
  579MOL0     H78120   7.146   0.939   7.550 -0.3089  0.9269 -2.1527
  579MOL0     H78121   7.319   0.775   7.640  3.0061  1.0696  1.3168
  579MOL0     H78122   7.438   0.838   7.534 -0.5595  0.1252  4.5169
  579MOL0     H78123   7.335   0.636   7.447 -0.7211 -0.7497  0.9392
  579MOL0     H78124   7.280   0.748   7.327 -1.5015 -0.6908 -0.2533
  579MOL0     H78125   7.078   0.472   7.390  1.2212 -0.1153 -0.5036
  579MOL0     H78126   6.880   0.434   7.226  0.0454  0.5069 -0.0240
  579MOL0     H78127   6.588   0.323   7.018 -0.2966 -0.8054  0.2132
  579MOL0     H78128   6.430   0.257   6.858  2.3309 -1.3529  0.0574
  579MOL0     H78129   6.260   0.249   6.641 -0.0395  0.6613  2.0859
  579MOL0     H78130   6.241   0.383   6.760  2.2658  5.0630 -1.3147
  579MOL0     H78131   6.052   0.373   6.589  0.3535  0.7566 -0.2608
  579MOL0     H78132   6.133   0.525   6.576  0.6766  0.6771 -2.4838
  579MOL0     H78133   6.101   0.466   6.365  1.8716  1.5697 -1.1009
  579MOL0     H78134   6.273   0.440   6.400  1.2742 -0.7181  0.9463
  579MOL0     H78135   6.067   0.210   6.407 -0.7826 -0.6098 -3.5831
  579MOL0     H78136   6.241   0.199   6.400 -0.1669 -0.1910 -0.7891
  579MOL0     H78137   6.161   0.126   6.185  2.3495  0.4547  0.9506
  579MOL0     H78138   6.242   0.272   6.171  1.1816 -0.6689  2.4125
  579MOL0     H78139   5.946   0.207   6.175 -2.1857  2.3030  1.8240
  579MOL0     H78140   5.987   0.370   6.201 -1.0934 -0.7894  0.6609
  579MOL0     H78141   5.921   0.326   5.963 -1.9022 -4.8203  0.4657
  579MOL0     H78142   6.059   0.213   5.943  2.3241  0.7868  2.1315
  579MOL0     H78143   6.212   0.383   5.993 -0.0668 -2.3524 -0.2174
  579MOL0     H78144   6.128   0.423   5.849  5.2496  3.7971  1.5674
  579MOL0     H78145   6.567   0.623   6.630 -1.1545 -3.0913 -2.7757
  579MOL0     H78146   6.733   0.647   6.801 -0.1617 -0.1865 -1.9419
  579MOL0     H78147   6.841   0.864   7.185 -0.6615  0.3847  0.9713
  579MOL0     H78148   7.030   0.880   7.364  0.8717 -0.7630 -0.0585
  579MOL0     H78149   6.787   0.854   6.205 -2.3164  2.9036 -1.5697
  579MOL0     H78150   6.745   0.702   6.019 -2.4920 -0.4806 -1.8498
  579MOL0     H78151   6.465   0.672   5.616 -1.0933  0.8822  0.1037
  579MOL0     H78152   6.384   0.535   5.424 -0.3055  3.1492  1.3041
  579MOL0     H78153   6.221   0.375   5.273 -1.6245  1.0434 -0.3543
  579MOL0     H78154   6.150   0.411   5.434  1.1151  1.7869 -0.1118
  579MOL0     H78155   6.065   0.166   5.439  0.5211 -0.1572 -0.1474
  579MOL0     H78156   6.160   0.143   5.293 -0.0936 -1.6814  2.0535
  579MOL0     H78157   5.914   0.314   5.361 -0.3510  0.9213 -1.6580
  579MOL0     H78158   5.913   0.164   5.267 -0.4438 -0.0706 -0.6440
  579MOL0     H78159   6.050   0.278   5.100 -1.4206  0.5321 -1.4438
  579MOL0     H78160   5.881   0.341   5.115  0.9572  1.1192 -3.4771
  579MOL0     H78161   6.092   0.697   5.213 -2.0083  0.3567  4.4689
  579MOL0     H78162   6.370   0.188   5.664  0.6193 -0.0448 -1.8440
  579MOL0     H78163   6.554   0.301   5.927  0.3364 -1.0078 -1.3769
  579MOL0     H78164   6.374   0.292   5.965 -2.3428  1.6069 -2.5490
  579MOL0     H78165   6.451   0.180   5.861  0.4824  0.6561 -1.9118
  580MOL0     O78166   4.055   1.006   9.067 -0.3330  0.6927  0.0803
  580MOL0     C78167   4.005   1.076   9.152  0.3161 -0.3532 -0.4041
  580MOL0     O78168   4.037   1.208   9.172  0.1782 -0.0073  0.3493
  580MOL0     C78169   4.164   1.244   9.135 -0.2378 -0.3955 -0.7856
  580MOL0     C78170   4.265   1.232   9.227 -0.7363  0.5111 -0.6489
  580MOL0     C78171   4.399   1.264   9.203 -0.4264  0.5351  0.4469
  580MOL0     C78172   4.426   1.334   9.090 -0.0881  1.1671 -0.4217
  580MOL0     O78173   4.559   1.366   9.059 -0.3983  0.0002 -0.2457
  580MOL0     C78174   4.648   1.261   9.032  0.5006  0.1175 -0.2207
  580MOL0     C78175   4.758   1.312   8.933  0.1578 -0.0662 -0.0046
  580MOL0     C78176   4.851   1.213   8.857  0.4013  0.0257 -0.0445
  580MOL0     C78177   4.970   1.161   8.947 -0.4779 -0.1964  0.2653
  580MOL0     C78178   5.057   1.059   8.875 -0.6444 -0.0742 -0.2854
  580MOL0     C78179   5.127   0.960   8.972  0.9106 -0.1550  0.6724
  580MOL0     C78180   5.195   0.839   8.898 -0.4807  0.5543 -0.9460
  580MOL0     C78181   5.107   0.712   8.869 -0.3458  0.3386  0.2411
  580MOL0     N78182   5.146   0.646   8.746 -0.5318  0.2320  0.8389
  580MOL0     C78183   5.063   0.621   8.642  0.5024 -0.9166 -0.4862
  580MOL0     C78184   5.126   0.532   8.567 -0.2778 -0.1055 -0.2818
  580MOL0     C78185   5.085   0.477   8.440 -0.0900  0.3191  0.2023
  580MOL0     C78186   5.193   0.503   8.334 -0.5001  0.7858 -0.7400
  580MOL0     C78187   5.149   0.473   8.192  0.2063 -0.8330  0.0278
  580MOL0     C78188   5.058   0.580   8.131 -0.4932  0.1549 -0.4521
  580MOL0     O78189   5.001   0.521   8.012  0.1353  0.1483 -0.0266
  580MOL0     C78190   4.932   0.614   7.928  0.5875 -0.6478  0.5044
  580MOL0     C78191   4.850   0.549   7.832 -0.6037  0.1969 -0.5507
  580MOL0     C78192   4.746   0.625   7.765 -1.0433 -0.0070 -0.2738
  580MOL0     C78193   4.733   0.767   7.777 -0.6318 -0.8182 -0.4368
  580MOL0     C78194   4.630   0.853   7.714  0.6051  1.1198  0.4090
  580MOL0     O78195   4.609   0.974   7.765 -0.9059 -0.5116 -0.8599
  580MOL0     C78196   4.525   1.063   7.700 -0.5955  0.3894  0.9268
  580MOL0     C78197   4.579   1.177   7.644 -0.3283  0.1588  0.1992
  580MOL0     C78198   4.490   1.260   7.569 -1.6444  0.5699  0.2570
  580MOL0     C78199   4.357   1.239   7.570 -0.1867  0.0029  0.1027
  580MOL0     O78200   4.285   1.326   7.487  0.4049  0.0382  0.1896
  580MOL0     C78201   4.155   1.367   7.536  0.7840 -0.2389  0.5480
  580MOL0     C78202   4.076   1.398   7.412  0.5362 -0.1307  0.9457
  580MOL0     C78203   3.949   1.475   7.444 -0.3272  0.0782 -0.8123
  580MOL0     C78204   3.872   1.477   7.312 -0.1190 -0.3473 -0.1818
  580MOL0     C78205   3.751   1.573   7.326  0.9589 -0.1367 -0.5958
  580MOL0     C78206   3.761   1.729   7.322  0.3289  0.3432  0.4527
  580MOL0     C78207   3.620   1.795   7.284  0.1935  0.4367 -0.3100
  580MOL0     C78208   3.671   1.939   7.248 -0.1524 -0.0683  0.6733
  580MOL0    Cl78209   3.762   1.948   7.087  0.1023 -0.1215 -0.3218
  580MOL0     C78210   4.301   1.122   7.624  0.1366  0.2675  0.2974
  580MOL0     C78211   4.392   1.031   7.686  1.3143 -0.4458  0.5655
  580MOL0     O78212   4.582   0.809   7.611 -0.0636 -0.0094 -0.1611
  580MOL0     C78213   4.813   0.824   7.876  0.6762 -0.4499  0.5908
  580MOL0     C78214   4.913   0.756   7.949  0.0936 -0.3992  0.6391
  580MOL0     N78215   5.253   0.509   8.619 -0.1333 -0.1376  0.1301
  580MOL0     N78216   5.262   0.580   8.726  0.0606 -1.2888  0.1037
  580MOL0     C78217   4.322   1.363   8.999  0.2690 -0.9720 -0.3660
  580MOL0     C78218   4.187   1.317   9.017  0.2281  0.7726  0.2926
  580MOL0     C78219   3.898   1.031   9.242 -0.2628  0.0769  0.4953
  580MOL0     C78220   3.788   1.108   9.257  0.8291 -1.0484 -0.3331
  580MOL0     C78221   3.681   1.081   9.342  0.1532 -0.0962  0.0046
  580MOL0     C78222   3.692   0.968   9.429  1.4585 -0.3167  0.1138
  580MOL0     O78223   3.592   0.928   9.514  0.6691  0.4880  0.1467
  580MOL0     C78224   3.520   1.038   9.582  0.3596  0.1076 -0.4663
  580MOL0     C78225   3.530   1.027   9.730 -0.8444  0.7446  0.3511
  580MOL0     C78226   3.440   1.139   9.781  0.9355 -0.9744  0.0114
  580MOL0     C78227   3.454   1.152   9.934 -0.8084  0.4443  0.1799
  580MOL0     C78228   3.391   1.041  10.008 -0.1001  0.1101  0.2159
  580MOL0     C78229   3.328   0.963  10.087 -0.4676 -0.5568  0.2859
  580MOL0     C78230   3.807   0.889   9.415  0.5125 -0.4544  0.5722
  580MOL0     C78231   3.900   0.917   9.318 -0.7626  0.0452 -0.2656
  580MOL0     C78232   4.022   0.826   9.312 -0.0961  0.6321 -0.0498
  580MOL0     H78233   4.235   1.194   9.324  0.7927  2.6389  0.7689
  580MOL0     H78234   4.479   1.246   9.275 -0.9279 -2.0611  0.4600
  580MOL0     H78235   4.693   1.236   9.128  0.8253  0.5453 -0.2575
  580MOL0     H78236   4.588   1.178   8.995  0.1510 -0.4531  1.5393
  580MOL0     H78237   4.813   1.381   8.997  2.6322 -0.5240 -1.5221
  580MOL0     H78238   4.698   1.353   8.850  0.4215 -2.6545 -1.6074
  580MOL0     H78239   4.896   1.266   8.773  3.3980  1.5544  2.3357
  580MOL0     H78240   4.795   1.129   8.815 -1.6599  1.4703 -0.3839
  580MOL0     H78241   5.022   1.245   8.995 -2.0817  0.4382  0.9380
  580MOL0     H78242   4.917   1.103   9.022 -1.8494 -2.4176 -2.2588
  580MOL0     H78243   5.003   1.007   8.796 -0.1552  1.4148 -1.6603
  580MOL0     H78244   5.138   1.121   8.836 -1.3826  0.1952 -1.4095
  580MOL0     H78245   5.200   1.015   9.033  1.4006 -0.3493  0.2662
  580MOL0     H78246   5.056   0.917   9.043  2.7975 -1.4100  1.8834
  580MOL0     H78247   5.271   0.803   8.968 -0.1301  1.2843 -0.9435
  580MOL0     H78248   5.251   0.873   8.811  0.9333 -0.7772 -0.5806
  580MOL0     H78249   5.092   0.647   8.956  0.3691 -0.9356 -0.5501
  580MOL0     H78250   5.006   0.755   8.872 -0.1236  1.1208  5.0614
  580MOL0     H78251   4.961   0.656   8.627  0.0847 -1.7651  0.2672
  580MOL0     H78252   5.066   0.369   8.451  1.5900 -0.1375 -1.0125
  580MOL0     H78253   4.999   0.534   8.404  0.8281 -0.3380 -3.4246
  580MOL0     H78254   5.216   0.609   8.330  2.9871  0.1292 -1.4837
  580MOL0     H78255   5.277   0.435   8.355 -1.9242 -1.5775 -2.1562
  580MOL0     H78256   5.101   0.375   8.189  0.1203 -0.7683 -2.3916
  580MOL0     H78257   5.232   0.468   8.122 -0.6761  3.3852 -1.6354
  580MOL0     H78258   5.108   0.677   8.130 -1.1643  0.5480  1.2990
  580MOL0     H78259   4.971   0.586   8.197 -0.7125 -1.5724 -0.5192
  580MOL0     H78260   4.873   0.443   7.824  0.3528  0.0078  2.8686
  580MOL0     H78261   4.687   0.576   7.688 -0.4879  0.6493 -1.1389
  580MOL0     H78262   4.683   1.205   7.627 -0.0692 -0.2065  1.1174
  580MOL0     H78263   4.537   1.339   7.513  1.5126 -1.6428 -0.4825
  580MOL0     H78264   4.105   1.291   7.596  0.9879 -1.2391 -0.5121
  580MOL0     H78265   4.160   1.456   7.600  0.1555  0.7707 -0.7528
  580MOL0     H78266   4.137   1.453   7.339  0.3736 -1.1192  0.0254
  580MOL0     H78267   4.053   1.300   7.367 -2.1060  0.1149  1.6221
  580MOL0     H78268   3.893   1.416   7.518 -0.8598 -0.9350 -1.9836
  580MOL0     H78269   3.975   1.578   7.470  3.3166 -0.8187 -0.3901
  580MOL0     H78270   3.831   1.382   7.277  0.6578 -1.3935  1.5695
  580MOL0     H78271   3.928   1.515   7.227 -3.0226  1.3635 -1.4740
  580MOL0     H78272   3.693   1.531   7.409  0.5500 -1.3711 -1.4827
  580MOL0     H78273   3.686   1.545   7.243  1.8822  1.3549 -1.8763
  580MOL0     H78274   3.801   1.775   7.413  2.5171 -0.9616  0.2241
  580MOL0     H78275   3.842   1.746   7.250  1.3996  1.7597  1.9212
  580MOL0     H78276   3.561   1.805   7.375  1.7644 -0.4982  0.8515
  580MOL0     H78277   3.573   1.732   7.209  0.8496  1.8870 -2.0223
  580MOL0     H78278   3.589   2.012   7.246  0.5631  0.8276 -2.5805
  580MOL0     H78279   3.734   1.984   7.325  2.7122 -2.7110  0.0567
  580MOL0     H78280   4.201   1.086   7.607  1.1338 -0.6415 -6.6972
  580MOL0     H78281   4.369   0.934   7.730 -0.0100  0.3812  1.7542
  580MOL0     H78282   4.794   0.928   7.903 -2.4101 -0.4777 -1.0103
  580MOL0     H78283   4.970   0.817   8.018 -0.3570  2.5668 -1.4429
  580MOL0     H78284   4.352   1.428   8.918 -2.1767 -2.7995 -2.9525
  580MOL0     H78285   4.102   1.321   8.949  2.3808  1.7727 -2.5243
  580MOL0     H78286   3.784   1.203   9.205 -2.2721 -0.7859  0.1638
  580MOL0     H78287   3.595   1.147   9.340  0.9002  0.9630 -2.9307
  580MOL0     H78288   3.413   1.025   9.562  0.2592  1.8845 -1.3205
  580MOL0     H78289   3.553   1.141   9.563  0.1782  0.0782 -0.9727
  580MOL0     H78290   3.625   1.054   9.778 -0.6955  2.4257 -0.8109
  580MOL0     H78291   3.491   0.928   9.759 -1.0765  1.1900  1.6316
  580MOL0     H78292   3.336   1.114   9.757  1.3548 -0.0195 -3.1842
  580MOL0     H78293   3.465   1.234   9.733 -2.2185 -0.3286 -0.6256
  580MOL0     H78294   3.557   1.165   9.968 -0.8283 -1.6901  1.2524
  580MOL0     H78295   3.395   1.241   9.957  0.8849  1.1322  2.0772
  580MOL0     H78296   3.263   0.908  10.152 -1.6946 -2.4724 -2.3266
  580MOL0     H78297   3.812   0.799   9.476 -0.4655 -0.5716  0.4957
  580MOL0     H78298   4.013   0.731   9.364  1.8632  1.5638  2.1553
  580MOL0     H78299   4.041   0.796   9.208 -0.1223 -0.6645  0.3095
  580MOL0     H78300   4.117   0.863   9.351  0.5980 -1.4276  0.3481
  581MOL0     O78301   3.799   1.226   3.299  0.0193  0.4170  0.1669
  581MOL0     C78302   3.734   1.167   3.215 -0.6778 -0.2330  0.8486
  581MOL0     O78303   3.602   1.129   3.227 -0.8296  0.4052  0.0058
  581MOL0     C78304   3.539   1.160   3.338 -0.0615  0.0203 -0.3003
  581MOL0     C78305   3.489   1.293   3.358  0.4812 -0.1246  0.6602
  581MOL0     C78306   3.393   1.313   3.459  1.0600 -0.4510 -1.0084
  581MOL0     C78307   3.347   1.204   3.539 -0.9928 -0.3194  0.1394
  581MOL0     O78308   3.256   1.245   3.639 -0.2907  0.5243  0.8207
  581MOL0     C78309   3.134   1.173   3.650 -0.3003 -0.3199  0.0734
  581MOL0     C78310   3.034   1.235   3.552 -0.5177 -0.2633  0.5567
  581MOL0     C78311   2.973   1.384   3.567 -0.8821  0.6076 -0.7660
  581MOL0     C78312   2.882   1.430   3.457  0.0849  1.2216 -0.6298
  581MOL0     C78313   2.833   1.571   3.483  0.3425 -0.4195  0.6753
  581MOL0     C78314   2.747   1.624   3.364 -0.9840 -0.6725 -0.3751
  581MOL0     C78315   2.701   1.766   3.384  0.4252 -0.2824  0.7087
  581MOL0     C78316   2.785   1.859   3.296  0.6566 -0.6072  0.4294
  581MOL0     N78317   2.758   2.001   3.309  0.5037  0.1228 -0.5722
  581MOL0     C78318   2.641   2.070   3.310 -0.8120  0.3341  0.3439
  581MOL0     C78319   2.664   2.197   3.274  0.3494 -0.3843 -0.4075
  581MOL0     C78320   2.556   2.300   3.253  0.7215 -0.1484 -0.2365
  581MOL0     C78321   2.578   2.402   3.364  0.3368  0.3103  0.9743
  581MOL0     C78322   2.686   2.506   3.317 -0.3969 -0.1611 -0.4552
  581MOL0     C78323   2.691   2.619   3.420 -0.0350  0.1399  0.4657
  581MOL0     O78324   2.563   2.693   3.415  0.3589  0.5440  0.1266
  581MOL0     C78325   2.507   2.726   3.536 -0.6543  0.4485 -0.0168
  581MOL0     C78326   2.571   2.806   3.631  0.2453  0.1231 -1.0607
  581MOL0     C78327   2.499   2.859   3.742  0.5258  1.1161  0.4524
  581MOL0     C78328   2.359   2.833   3.761  0.3746  0.1882  0.1263
  581MOL0     C78329   2.283   2.874   3.876 -0.7142  1.0920 -1.0299
  581MOL0     O78330   2.353   2.907   3.988 -0.6257 -0.7832 -0.0317
  581MOL0     C78331   2.277   2.935   4.099 -0.4228  0.2095 -0.1971
  581MOL0     C78332   2.257   2.834   4.198  0.6216 -0.2943  0.9056
  581MOL0     C78333   2.177   2.859   4.306 -0.0394 -0.0114  0.1550
  581MOL0     C78334   2.128   2.991   4.333  0.4900 -0.3995 -1.0996
  581MOL0     O78335   2.073   3.011   4.461 -0.5927  0.4249 -0.1306
  581MOL0     C78336   1.980   3.125   4.476 -0.0045 -0.6454  0.3661
  581MOL0     C78337   2.058   3.247   4.535 -0.0447 -0.3512 -1.4415
  581MOL0     C78338   2.016   3.262   4.688 -0.9592  0.1658  0.4586
  581MOL0     C78339   2.090   3.379   4.759 -0.7847  0.0471  0.1895
  581MOL0     C78340   2.014   3.414   4.882  0.5314  0.3502 -0.0717
  581MOL0     C78341   2.019   3.310   4.986  0.3231  0.5939 -0.1542
  581MOL0     C78342   2.011   3.371   5.135  0.0653  0.8244  0.5723
  581MOL0     C78343   2.046   3.277   5.244  0.7875 -0.0754  0.4332
  581MOL0    Cl78344   2.049   3.361   5.399  0.2116  0.5014 -0.2806
  581MOL0     C78345   2.125   3.085   4.228 -1.0006 -0.1306 -0.4513
  581MOL0     C78346   2.207   3.056   4.113  0.0578 -0.4058 -0.4003
  581MOL0     O78347   2.164   2.877   3.862  0.9756  0.0655 -0.3323
  581MOL0     C78348   2.303   2.753   3.663 -0.3840  0.8025  0.4643
  581MOL0     C78349   2.373   2.701   3.555  0.0757 -0.2853  0.6412
  581MOL0     N78350   2.801   2.205   3.263  0.1882  0.1714 -1.1592
  581MOL0     N78351   2.855   2.089   3.281 -0.7868  0.5608  0.1041
  581MOL0     C78352   3.394   1.075   3.519 -0.4536 -0.5660  0.4880
  581MOL0     C78353   3.482   1.054   3.411 -0.0104  0.2475  0.4762
  581MOL0     C78354   3.814   1.146   3.086  0.0053  0.3136  1.5547
  581MOL0     C78355   3.944   1.208   3.084  0.2136  0.0573 -0.2460
  581MOL0     C78356   4.031   1.202   2.967 -0.6025 -0.5896 -0.4395
  581MOL0     C78357   3.976   1.150   2.849  0.4354  0.0711  0.2221
  581MOL0     O78358   4.050   1.141   2.729  0.6875  0.2165 -0.3267
  581MOL0     C78359   4.177   1.204   2.714  0.0680  0.2371 -0.5657
  581MOL0     C78360   4.286   1.110   2.762  0.7515 -0.3677  0.1697
  581MOL0     C78361   4.423   1.177   2.775  0.7024  0.5438  0.3150
  581MOL0     C78362   4.484   1.148   2.913  0.1072 -1.2471  0.0540
  581MOL0     C78363   4.505   1.009   2.951  0.2064 -2.1934  0.3655
  581MOL0     C78364   4.517   0.894   2.973 -0.1771  0.6683  0.4549
  581MOL0     C78365   3.852   1.094   2.855  0.1833  0.1887  0.7443
  581MOL0     C78366   3.774   1.092   2.966  0.5351  0.1552 -0.0383
  581MOL0     C78367   3.641   1.009   2.958  0.3082  0.7412  0.0674
  581MOL0     H78368   3.517   1.380   3.301 -2.4370  0.1726 -0.4765
  581MOL0     H78369   3.347   1.408   3.480  0.8750 -0.3055 -2.0288
  581MOL0     H78370   3.148   1.065   3.652 -2.6451 -0.6677  0.1098
  581MOL0     H78371   3.091   1.194   3.748 -0.2339 -2.7650  0.6744
  581MOL0     H78372   2.946   1.170   3.554 -0.3828 -0.4375  2.1452
  581MOL0     H78373   3.073   1.229   3.450  1.0220  1.6119  0.9891
  581MOL0     H78374   3.061   1.448   3.562  0.0965 -0.5349  0.7437
  581MOL0     H78375   2.936   1.392   3.669 -0.0590 -1.3412 -0.2725
  581MOL0     H78376   2.947   1.422   3.369  1.0560 -1.7585  0.2203
  581MOL0     H78377   2.798   1.361   3.446 -0.2940  0.9250  2.9141
  581MOL0     H78378   2.764   1.562   3.568 -2.0865 -1.0708 -1.2307
  581MOL0     H78379   2.922   1.630   3.507 -1.4094  1.5161  2.9182
  581MOL0     H78380   2.803   1.606   3.272  0.9689  2.2224  0.1134
  581MOL0     H78381   2.652   1.571   3.357 -1.5579  0.3173 -0.3340
  581MOL0     H78382   2.711   1.797   3.488 -0.4803  1.2888  0.3611
  581MOL0     H78383   2.600   1.785   3.346  1.3139  6.0432  0.5361
  581MOL0     H78384   2.890   1.829   3.301  1.0074 -0.0951 -2.5784
  581MOL0     H78385   2.757   1.840   3.193  3.7300  1.8336 -1.0194
  581MOL0     H78386   2.546   2.018   3.316 -0.3788 -1.0424 -2.7208
  581MOL0     H78387   2.571   2.348   3.156  4.1630  0.5315  0.4880
  581MOL0     H78388   2.457   2.256   3.263  0.8503 -0.3892 -0.0083
  581MOL0     H78389   2.478   2.446   3.368 -0.6141 -0.5458 -4.8220
  581MOL0     H78390   2.613   2.362   3.460  1.3318  0.8104  0.8323
  581MOL0     H78391   2.675   2.549   3.217  3.8504  0.0898 -1.0110
  581MOL0     H78392   2.782   2.455   3.303 -1.7324 -3.1577  0.5715
  581MOL0     H78393   2.772   2.686   3.392 -0.9350  0.0394 -2.8382
  581MOL0     H78394   2.715   2.569   3.515 -0.1228 -0.4255  0.1991
  581MOL0     H78395   2.678   2.824   3.621  0.7514  0.7249  3.3190
  581MOL0     H78396   2.568   2.914   3.806 -0.3965 -0.3206  2.8084
  581MOL0     H78397   2.294   2.737   4.166  0.6510  0.6638 -2.3321
  581MOL0     H78398   2.159   2.782   4.380 -0.3821 -1.2303 -1.1638
  581MOL0     H78399   1.934   3.140   4.377  1.7636  0.4352 -0.3374
  581MOL0     H78400   1.896   3.101   4.542 -1.0826  0.4033 -0.5599
  581MOL0     H78401   2.165   3.227   4.523 -0.1598 -1.8419 -0.3342
  581MOL0     H78402   2.025   3.333   4.477 -3.6387 -0.1963  0.5204
  581MOL0     H78403   1.909   3.281   4.697 -0.9974  1.5702 -2.0714
  581MOL0     H78404   2.040   3.174   4.749 -4.4672 -0.2950  1.3538
  581MOL0     H78405   2.091   3.461   4.686 -1.0466 -1.9349 -2.2080
  581MOL0     H78406   2.194   3.348   4.770 -0.4773  0.6569 -0.8623
  581MOL0     H78407   1.908   3.432   4.863  0.8519  1.1672 -1.1713
  581MOL0     H78408   2.057   3.507   4.920 -0.8082  0.8700  0.2222
  581MOL0     H78409   1.945   3.230   4.971  1.2515 -0.1894 -0.7126
  581MOL0     H78410   2.108   3.245   4.981 -0.9408 -1.2348  0.1083
  581MOL0     H78411   1.910   3.412   5.129 -0.7887 -1.2736 -0.4217
  581MOL0     H78412   2.081   3.455   5.146 -0.5479  1.1403  2.5175
  581MOL0     H78413   1.984   3.187   5.237  0.0402  0.5481 -1.5953
  581MOL0     H78414   2.149   3.243   5.228 -0.1264 -3.5076  0.9776
  581MOL0     H78415   2.092   3.187   4.245 -2.4946 -0.9771  2.4095
  581MOL0     H78416   2.223   3.125   4.031  1.6251 -3.1197 -2.5520
  581MOL0     H78417   2.196   2.739   3.677 -0.1260 -2.9357 -0.2684
  581MOL0     H78418   2.320   2.645   3.478 -0.3133 -1.1754  1.5476
  581MOL0     H78419   3.365   0.982   3.567 -0.8759 -2.4870 -3.1142
  581MOL0     H78420   3.502   0.950   3.388  3.9869  1.2730 -1.4319
  581MOL0     H78421   3.989   1.250   3.173 -0.3259 -1.4136  0.7661
  581MOL0     H78422   4.137   1.228   2.974 -0.5468 -0.8407 -0.3451
  581MOL0     H78423   4.188   1.300   2.766 -0.4226  0.1480 -0.3008
  581MOL0     H78424   4.188   1.241   2.611  1.7847  3.5850  0.6401
  581MOL0     H78425   4.304   1.038   2.682  0.4983 -0.7202  0.4301
  581MOL0     H78426   4.247   1.062   2.852 -1.5183  2.0599  0.6250
  581MOL0     H78427   4.409   1.284   2.760  0.2146  0.3928 -0.3597
  581MOL0     H78428   4.483   1.130   2.697 -1.7699 -1.9258 -0.2691
  581MOL0     H78429   4.570   1.206   2.947 -2.2430  1.5559  1.6368
  581MOL0     H78430   4.408   1.181   2.984  1.6238  2.2022  0.2785
  581MOL0     H78431   4.546   0.797   3.009  0.9019  1.5378  2.0591
  581MOL0     H78432   3.830   1.034   2.767  0.3230  0.6358  0.3991
  581MOL0     H78433   3.559   1.081   2.969 -0.8808 -0.2520 -1.8556
  581MOL0     H78434   3.614   0.970   2.859 -2.7296 -0.7755  1.3936
  581MOL0     H78435   3.641   0.938   3.041  3.5743 -0.6145 -0.9035
  582MOL0     O78436   4.795   5.224  10.771 -0.5480 -0.8053 -0.3980
  582MOL0     C78437   4.710   5.285  10.709  0.3625 -1.2063  0.4284
  582MOL0     O78438   4.685   5.273  10.576  0.5009  0.3587  0.3997
  582MOL0     C78439   4.732   5.158  10.508  0.2812  0.3338 -0.2075
  582MOL0     C78440   4.702   5.029  10.554 -0.0132 -0.2826 -0.5941
  582MOL0     C78441   4.768   4.918  10.490 -0.1144  0.7700  1.7743
  582MOL0     C78442   4.833   4.941  10.365  0.8202 -0.9717  0.0056
  582MOL0     O78443   4.880   4.850  10.277  0.1194  0.9295 -0.7110
  582MOL0     C78444   4.924   4.724  10.341 -0.6867  0.8209 -0.1040
  582MOL0     C78445   4.998   4.634  10.224  0.1484 -0.1757  0.0452
  582MOL0     C78446   5.055   4.505  10.281 -0.7616 -0.1428 -0.0385
  582MOL0     C78447   5.124   4.429  10.165  0.4015 -0.0991 -0.1813
  582MOL0     C78448   5.217   4.314  10.206 -0.1535 -0.2461 -0.0891
  582MOL0     C78449   5.290   4.256  10.085 -0.0173  0.0438 -1.0443
  582MOL0     C78450   5.311   4.104  10.100  0.0352 -0.8902  0.1085
  582MOL0     C78451   5.437   4.040  10.027  0.2690 -0.0934 -0.4095
  582MOL0     N78452   5.550   4.024  10.129  0.2429 -0.0306  0.4183
  582MOL0     C78453   5.620   4.131  10.183  0.2703 -0.2405 -0.2556
  582MOL0     C78454   5.704   4.073  10.271  0.1216 -0.5281 -0.5201
  582MOL0     C78455   5.807   4.143  10.344  0.0494  0.4664 -0.2318
  582MOL0     C78456   5.737   4.214  10.464  0.0657  0.6390  0.4981
  582MOL0     C78457   5.836   4.250  10.563 -0.2546  0.0801 -0.3408
  582MOL0     C78458   5.786   4.341  10.672 -0.1046  0.0576 -0.1524
  582MOL0     O78459   5.682   4.274  10.743 -0.1224  0.4386 -0.1516
  582MOL0     C78460   5.567   4.346  10.750 -0.7211 -0.3291 -0.1975
  582MOL0     C78461   5.464   4.309  10.669  0.0478  0.5212 -0.0289
  582MOL0     C78462   5.353   4.387  10.662 -1.2162 -0.3793  0.4576
  582MOL0     C78463   5.330   4.499  10.748 -0.9353 -0.5054 -0.3431
  582MOL0     C78464   5.202   4.575  10.754 -0.7131 -0.4382 -0.2560
  582MOL0     O78465   5.172   4.624  10.880  0.6860 -0.3370  0.5314
  582MOL0     C78466   5.042   4.672  10.887  0.4853 -0.0213  0.3457
  582MOL0     C78467   4.933   4.581  10.910 -0.0563  0.1531  0.2483
  582MOL0     C78468   4.812   4.640  10.932  0.5366  1.2437 -0.5820
  582MOL0     C78469   4.793   4.781  10.925  0.3892 -0.1998 -0.4051
  582MOL0     O78470   4.669   4.836  10.925 -0.2036  0.7705  0.4711
  582MOL0     C78471   4.558   4.775  11.006  0.2863 -0.1324  1.0225
  582MOL0     C78472   4.431   4.865  11.029 -0.8428 -0.5257  0.2464
  582MOL0     C78473   4.464   4.994  11.085 -0.0431  0.2040  0.4587
  582MOL0     C78474   4.341   5.089  11.092  0.5969  0.2646 -0.0938
  582MOL0     C78475   4.365   5.215  11.187 -0.4604 -0.0186  0.4259
  582MOL0     C78476   4.247   5.304  11.215 -0.6514 -0.2059  0.7824
  582MOL0     C78477   4.136   5.338  11.107  0.8732  0.4833  0.0947
  582MOL0     C78478   4.213   5.407  10.999  0.4611 -0.3842 -0.2637
  582MOL0    Cl78479   4.092   5.485  10.889  0.1343 -0.3388  0.2335
  582MOL0     C78480   4.907   4.865  10.918  0.8012 -0.0454  0.0844
  582MOL0     C78481   5.032   4.811  10.895 -0.0144 -0.1083  0.3782
  582MOL0     O78482   5.138   4.589  10.644 -0.3342 -0.3697  0.5216
  582MOL0     C78483   5.439   4.533  10.834  0.5630  0.0904 -0.4172
  582MOL0     C78484   5.555   4.458  10.830  0.2014 -0.8997 -0.3407
  582MOL0     N78485   5.671   3.937  10.269  0.2122  0.3103  1.0794
  582MOL0     N78486   5.587   3.906  10.179 -0.4167  0.2592 -0.3427
  582MOL0     C78487   4.861   5.073  10.329 -0.1614  0.3756 -0.3002
  582MOL0     C78488   4.809   5.177  10.401 -0.3058 -0.4874 -0.6982
  582MOL0     C78489   4.637   5.400  10.782  0.4662 -0.7767  0.1758
  582MOL0     C78490   4.539   5.468  10.701  0.3238  0.3421 -0.9466
  582MOL0     C78491   4.466   5.577  10.752 -0.1667 -0.1188 -0.0280
  582MOL0     C78492   4.496   5.639  10.873 -0.7151  0.0873 -1.2631
  582MOL0     O78493   4.411   5.737  10.920 -0.5938 -0.4489 -0.4052
  582MOL0     C78494   4.403   5.763  11.058 -0.3666  0.1249 -0.4923
  582MOL0     C78495   4.278   5.845  11.079  0.2904  0.1533 -0.7299
  582MOL0     C78496   4.239   5.958  10.974 -0.0651  0.6240  0.3627
  582MOL0     C78497   4.103   6.036  11.005  0.0864  0.3124  0.3215
  582MOL0     C78498   4.080   6.130  10.891 -0.0395  0.0439 -0.8085
  582MOL0     C78499   4.066   6.208  10.807 -0.5579  0.7904 -0.0229
  582MOL0     C78500   4.582   5.569  10.954  0.7096 -1.1343  0.4573
  582MOL0     C78501   4.653   5.454  10.911  0.7621 -0.4078 -0.5680
  582MOL0     C78502   4.746   5.399  11.018  0.7365  0.6398  0.8861
  582MOL0     H78503   4.651   5.000  10.646  1.4829  1.5332  0.9037
  582MOL0     H78504   4.759   4.813  10.517  3.1531  0.3194  1.5354
  582MOL0     H78505   4.993   4.741  10.424  0.6397  0.0359 -1.0091
  582MOL0     H78506   4.844   4.660  10.380  2.3337 -3.7514 -0.6560
  582MOL0     H78507   5.079   4.701  10.196  0.8697  0.5261  3.3979
  582MOL0     H78508   4.931   4.598  10.146 -0.7425 -1.7757  1.4631
  582MOL0     H78509   4.969   4.447  10.313 -0.9183  1.0648  1.9099
  582MOL0     H78510   5.133   4.521  10.356 -1.7330  1.1745  0.7256
  582MOL0     H78511   5.051   4.403  10.088  2.1176  2.8433 -3.0930
  582MOL0     H78512   5.181   4.512  10.122 -1.0641  0.4286 -1.1920
  582MOL0     H78513   5.292   4.346  10.279  2.9438 -1.3377 -2.5706
  582MOL0     H78514   5.161   4.228  10.244 -1.2530  0.9605  1.1268
  582MOL0     H78515   5.237   4.276   9.992 -0.1608  0.2019 -0.9300
  582MOL0     H78516   5.386   4.307  10.083  1.2419 -2.2180 -1.5255
  582MOL0     H78517   5.220   4.055  10.063  0.5013 -2.8320  1.3603
  582MOL0     H78518   5.326   4.082  10.206 -2.8957  0.2793  0.8658
  582MOL0     H78519   5.432   3.939   9.986  0.7311  0.3777 -1.6829
  582MOL0     H78520   5.474   4.107   9.949 -1.6083 -0.1851 -1.4461
  582MOL0     H78521   5.621   4.237  10.162  0.8818  0.4686  2.8503
  582MOL0     H78522   5.875   4.063  10.375  0.1085  0.9605  0.9858
  582MOL0     H78523   5.851   4.210  10.270 -3.2283 -1.0764 -3.9715
  582MOL0     H78524   5.677   4.296  10.424  0.4176  1.0902  0.8884
  582MOL0     H78525   5.659   4.154  10.513 -1.1578  2.5601  1.0099
  582MOL0     H78526   5.916   4.300  10.508  0.0862 -0.7076 -0.5769
  582MOL0     H78527   5.889   4.168  10.613  0.7337  1.3139  0.7154
  582MOL0     H78528   5.742   4.428  10.621 -1.1650 -0.7501 -0.6640
  582MOL0     H78529   5.861   4.388  10.736 -1.3367  0.7250  0.8550
  582MOL0     H78530   5.457   4.218  10.611 -0.9282  1.2567 -1.1344
  582MOL0     H78531   5.276   4.379  10.586 -1.3372  3.5718 -0.0180
  582MOL0     H78532   4.941   4.473  10.911 -0.4236  0.0282 -2.4093
  582MOL0     H78533   4.725   4.575  10.940  1.0714  0.7106  1.6867
  582MOL0     H78534   4.517   4.692  10.948  1.2180 -0.4118  0.7484
  582MOL0     H78535   4.611   4.737  11.093  2.7744 -0.3292 -0.5004
  582MOL0     H78536   4.384   4.868  10.930 -1.2187  0.7720  0.4411
  582MOL0     H78537   4.368   4.815  11.103  0.8047 -2.8116  0.2136
  582MOL0     H78538   4.521   4.982  11.178  2.5378  1.1909 -0.8854
  582MOL0     H78539   4.538   5.036  11.016 -1.0005  0.2950 -0.5380
  582MOL0     H78540   4.270   5.034  11.155  0.4999  2.3295  1.7141
  582MOL0     H78541   4.292   5.114  10.998 -4.2862 -2.6703  1.3113
  582MOL0     H78542   4.431   5.277  11.126 -2.1176 -1.4803 -3.1496
  582MOL0     H78543   4.410   5.192  11.284  0.2589 -1.3597 -0.1905
  582MOL0     H78544   4.181   5.262  11.291 -1.2357 -1.2255 -0.2484
  582MOL0     H78545   4.291   5.398  11.250 -0.5647  0.0947 -0.0888
  582MOL0     H78546   4.051   5.398  11.141 -0.5243 -0.3467 -1.7089
  582MOL0     H78547   4.087   5.244  11.078  0.4043 -0.3344  3.2024
  582MOL0     H78548   4.272   5.484  11.048 -0.9822  2.1508 -2.2460
  582MOL0     H78549   4.273   5.335  10.941 -1.5250 -1.4685 -1.0689
  582MOL0     H78550   4.885   4.970  10.931 -3.9622 -1.1826  5.1122
  582MOL0     H78551   5.124   4.867  10.906 -1.8402  3.2145 -0.0484
  582MOL0     H78552   5.445   4.616  10.904 -0.6907  0.8956 -1.2422
  582MOL0     H78553   5.646   4.497  10.874  0.4030 -0.5699 -1.0326
  582MOL0     H78554   4.933   5.088  10.249  3.4793  2.4193  2.9985
  582MOL0     H78555   4.827   5.279  10.367  2.8715 -1.5395 -2.5703
  582MOL0     H78556   4.531   5.454  10.594 -0.6007  0.3049 -0.8809
  582MOL0     H78557   4.388   5.629  10.697  0.9506  1.7684  0.0793
  582MOL0     H78558   4.481   5.829  11.097 -1.4323  2.2914 -1.8424
  582MOL0     H78559   4.397   5.670  11.116 -2.3097 -0.0922 -0.9955
  582MOL0     H78560   4.296   5.905  11.169 -2.1710  2.1817 -1.4445
  582MOL0     H78561   4.197   5.774  11.100 -0.5775  1.5145  0.8412
  582MOL0     H78562   4.237   5.915  10.874 -0.5735  1.8863 -0.2009
  582MOL0     H78563   4.313   6.038  10.962 -0.2078  0.6708 -0.2265
  582MOL0     H78564   4.024   5.961  11.020  1.7932 -0.9019  4.5208
  582MOL0     H78565   4.115   6.085  11.102  3.2065  0.6261 -0.1267
  582MOL0     H78566   4.054   6.277  10.726  1.1019  2.7190  1.2976
  582MOL0     H78567   4.602   5.599  11.057 -1.6360  3.5478 -0.2000
  582MOL0     H78568   4.753   5.290  11.011  0.8925  0.6730  0.4231
  582MOL0     H78569   4.841   5.454  11.011 -0.2956  2.7328  2.5650
  582MOL0     H78570   4.721   5.418  11.122 -1.3231 -3.0151  1.2099
  583MOL0     O78571   3.012   1.115   7.719  0.0562 -0.1469 -0.3298
  583MOL0     C78572   3.001   1.020   7.800  0.7162 -1.0100 -0.7947
  583MOL0     O78573   2.883   0.947   7.823 -0.2125 -0.1993 -0.1278
  583MOL0     C78574   2.790   0.953   7.723  0.7051  0.8077  0.2674
  583MOL0     C78575   2.676   1.036   7.729 -0.2608  0.0114 -0.3487
  583MOL0     C78576   2.575   1.038   7.622 -0.4691 -0.4096 -0.4197
  583MOL0     C78577   2.596   0.946   7.520  0.1039 -0.0540 -0.0089
  583MOL0     O78578   2.497   0.940   7.426  0.1655 -0.1676  0.7096
  583MOL0     C78579   2.495   0.810   7.344  0.8114 -0.8579 -0.1536
  583MOL0     C78580   2.360   0.791   7.265 -0.8615 -0.5336  0.7287
  583MOL0     C78581   2.278   0.678   7.326  0.5961  0.2545 -0.3246
  583MOL0     C78582   2.227   0.678   7.474 -0.5062  0.0466  0.4216
  583MOL0     C78583   2.187   0.539   7.513 -1.1259 -0.3831 -0.5726
  583MOL0     C78584   2.296   0.455   7.582 -0.4362 -0.5389 -0.1638
  583MOL0     C78585   2.271   0.309   7.568 -0.3990 -0.7114  0.1938
  583MOL0     C78586   2.339   0.235   7.686  0.0976  0.1100  0.3832
  583MOL0     N78587   2.475   0.176   7.649  0.1897 -0.3479 -0.8023
  583MOL0     C78588   2.568   0.142   7.744  0.4548  0.2246 -0.2235
  583MOL0     C78589   2.676   0.115   7.671  0.2847  1.1098 -0.3758
  583MOL0     C78590   2.813   0.058   7.725 -0.2287 -0.1714  0.2361
  583MOL0     C78591   2.834  -0.076   7.653  0.2539 -0.1623  0.6998
  583MOL0     C78592   2.952  -0.155   7.710  0.3689 -0.4928  0.3118
  583MOL0     C78593   3.031  -0.265   7.630  0.5847  0.9172 -0.2796
  583MOL0     O78594   2.934  -0.365   7.574  0.3122 -0.0238 -0.5563
  583MOL0     C78595   2.979  -0.491   7.560  0.1376 -0.2474  0.1439
  583MOL0     C78596   2.947  -0.584   7.663 -0.2553  0.1803  0.2790
  583MOL0     C78597   2.980  -0.720   7.650 -0.3184 -0.3492  0.2217
  583MOL0     C78598   3.067  -0.763   7.561  0.6118  0.2984  0.5350
  583MOL0     C78599   3.097  -0.905   7.562 -0.5121  0.8111  0.2413
  583MOL0     O78600   3.028  -0.987   7.644 -0.2958 -0.3933  0.2507
  583MOL0     C78601   3.021  -1.120   7.615  0.3875 -0.2623  0.7826
  583MOL0     C78602   2.892  -1.175   7.587  0.4236  0.3266 -0.6401
  583MOL0     C78603   2.877  -1.308   7.548 -1.0490 -0.4228  0.1111
  583MOL0     C78604   2.988  -1.398   7.548 -0.5899  0.3918  0.8281
  583MOL0     O78605   2.966  -1.528   7.515  0.0812 -0.2301 -0.0507
  583MOL0     C78606   3.082  -1.610   7.536 -0.1528 -0.0084 -0.7402
  583MOL0     C78607   3.061  -1.757   7.514  0.2117  0.5497  0.7310
  583MOL0     C78608   2.977  -1.790   7.383  0.6946 -0.1596  0.0151
  583MOL0     C78609   3.068  -1.775   7.255 -0.2078 -0.2551  0.2798
  583MOL0     C78610   2.993  -1.728   7.133  0.3084 -0.6511 -0.2027
  583MOL0     C78611   3.091  -1.714   7.010  1.7591  0.5118 -0.3539
  583MOL0     C78612   3.012  -1.653   6.888 -0.6554  0.6841 -0.4022
  583MOL0     C78613   3.085  -1.645   6.755 -0.3855 -0.3519 -0.4088
  583MOL0    Cl78614   3.250  -1.582   6.777  0.0854 -0.0394 -0.1192
  583MOL0     C78615   3.110  -1.340   7.594 -0.8862  0.2229  0.4436
  583MOL0     C78616   3.128  -1.211   7.635  0.7085  0.0499 -0.0555
  583MOL0     O78617   3.178  -0.949   7.473 -0.6803  0.1558 -0.3846
  583MOL0     C78618   3.113  -0.676   7.458  0.1746  0.2271  0.6324
  583MOL0     C78619   3.063  -0.541   7.461 -0.5750 -0.5817  0.2174
  583MOL0     N78620   2.659   0.150   7.539  0.0495 -0.3218 -0.5323
  583MOL0     N78621   2.528   0.178   7.523  0.4503 -0.2593  0.7325
  583MOL0     C78622   2.713   0.865   7.514 -0.9975 -0.0009  0.0410
  583MOL0     C78623   2.808   0.865   7.616 -1.1007 -0.1483  0.5894
  583MOL0     C78624   3.107   0.981   7.897 -0.3873  0.1571  0.3747
  583MOL0     C78625   3.241   1.002   7.836  0.7119 -0.2137 -0.6639
  583MOL0     C78626   3.343   1.000   7.920 -0.0877  0.4432  0.7810
  583MOL0     C78627   3.334   0.967   8.054  0.4347  0.1092 -0.0305
  583MOL0     O78628   3.450   0.956   8.133  0.5796  0.7303 -0.8389
  583MOL0     C78629   3.448   0.837   8.212  0.4010  0.5247  0.0527
  583MOL0     C78630   3.594   0.798   8.244  0.4891 -1.0841 -0.8300
  583MOL0     C78631   3.672   0.757   8.116  0.4007  0.7633 -0.4849
  583MOL0     C78632   3.800   0.681   8.134 -0.3975  0.5793  0.1817
  583MOL0     C78633   3.908   0.739   8.053  0.0300  1.1922  0.8459
  583MOL0     C78634   3.990   0.807   7.990  0.3961 -0.6995  0.3054
  583MOL0     C78635   3.207   0.928   8.098 -0.0557 -0.3293 -1.2639
  583MOL0     C78636   3.089   0.946   8.030  1.1225 -0.2048 -0.0310
  583MOL0     C78637   2.963   0.929   8.104 -0.7550 -0.3414 -0.1752
  583MOL0     H78638   2.653   1.096   7.817 -0.4566 -2.0494  1.0715
  583MOL0     H78639   2.482   1.092   7.607 -1.9413 -2.4293  0.9331
  583MOL0     H78640   2.583   0.800   7.279  3.0198  2.8848  1.8956
  583MOL0     H78641   2.511   0.722   7.407 -0.4934  0.7549  2.6286
  583MOL0     H78642   2.379   0.774   7.159  0.0610 -0.4817  0.8762
  583MOL0     H78643   2.309   0.886   7.276  0.2714  0.3576 -1.1013
  583MOL0     H78644   2.343   0.591   7.315  0.7124  0.2498  0.3260
  583MOL0     H78645   2.188   0.674   7.263  1.1615 -0.1198 -1.1205
  583MOL0     H78646   2.307   0.726   7.530  0.2431  0.6764 -1.1261
  583MOL0     H78647   2.143   0.748   7.478 -1.6518 -1.1479 -1.1659
  583MOL0     H78648   2.112   0.563   7.589 -0.2512 -2.1335  0.9497
  583MOL0     H78649   2.135   0.479   7.437 -0.5887 -1.7099  0.0688
  583MOL0     H78650   2.395   0.464   7.537 -1.4137  1.4402 -2.1083
  583MOL0     H78651   2.302   0.481   7.689 -1.3407  0.8677 -0.4237
  583MOL0     H78652   2.297   0.265   7.471 -1.8713 -0.0163 -0.5572
  583MOL0     H78653   2.166   0.289   7.591 -0.2956 -0.6555  0.7108
  583MOL0     H78654   2.364   0.304   7.767  1.7198  0.4066 -0.3313
  583MOL0     H78655   2.267   0.159   7.718  0.6718 -0.6518 -0.0727
  583MOL0     H78656   2.546   0.132   7.849 -4.3290 -3.0289 -1.2164
  583MOL0     H78657   2.897   0.121   7.696 -1.5408  1.2712 -0.6435
  583MOL0     H78658   2.809   0.036   7.832  3.2925 -2.6695  0.0010
  583MOL0     H78659   2.742  -0.135   7.657 -0.1171  0.4889  3.0512
  583MOL0     H78660   2.845  -0.064   7.545  1.0292  1.0312  0.8958
  583MOL0     H78661   2.915  -0.207   7.798 -2.9918 -3.5963 -2.6347
  583MOL0     H78662   3.012  -0.072   7.749 -1.8072  0.4397  1.8719
  583MOL0     H78663   3.088  -0.312   7.711  2.9027  2.8346 -0.6844
  583MOL0     H78664   3.101  -0.245   7.548  1.1301 -4.5906 -1.5604
  583MOL0     H78665   2.867  -0.553   7.730 -2.1775 -2.0468 -0.8176
  583MOL0     H78666   2.931  -0.789   7.717  2.1100 -1.3485  1.0561
  583MOL0     H78667   2.804  -1.112   7.589 -1.5145 -2.2482  1.2223
  583MOL0     H78668   2.778  -1.349   7.532 -1.0702  0.6716 -3.2934
  583MOL0     H78669   3.150  -1.576   7.457  0.9325 -3.2731 -1.3682
  583MOL0     H78670   3.110  -1.592   7.640 -0.6514  1.5005 -0.8444
  583MOL0     H78671   3.149  -1.820   7.531 -0.2157  0.0020  0.9789
  583MOL0     H78672   3.005  -1.796   7.600 -1.7069 -1.8363 -1.4112
  583MOL0     H78673   2.927  -1.887   7.377  1.0223 -0.2951 -0.5890
  583MOL0     H78674   2.897  -1.715   7.379 -0.4885 -1.4554 -2.1988
  583MOL0     H78675   3.102  -1.871   7.215 -1.4264 -0.9785  0.9497
  583MOL0     H78676   3.153  -1.714   7.287  0.4985 -1.0362 -0.0690
  583MOL0     H78677   2.954  -1.628   7.157  3.6583  1.0159 -1.1334
  583MOL0     H78678   2.910  -1.796   7.114  0.9681 -1.4092 -0.3965
  583MOL0     H78679   3.165  -1.637   7.032  1.0399  1.6006 -1.6528
  583MOL0     H78680   3.127  -1.817   6.997 -3.7014 -2.1834  2.2841
  583MOL0     H78681   2.967  -1.555   6.911 -2.3035 -0.7357  3.2621
  583MOL0     H78682   2.927  -1.717   6.862  2.9911 -4.8658 -0.3948
  583MOL0     H78683   3.091  -1.740   6.703  0.9388 -1.4151  1.5456
  583MOL0     H78684   3.031  -1.570   6.697 -2.7323  0.4306  2.5089
  583MOL0     H78685   3.203  -1.397   7.595  1.0640  2.9957 -2.2980
  583MOL0     H78686   3.217  -1.166   7.679  1.4904  0.4267 -1.8781
  583MOL0     H78687   3.173  -0.710   7.374 -2.7868  1.3624 -2.2055
  583MOL0     H78688   3.077  -0.489   7.367 -0.7263 -1.7736 -0.4876
  583MOL0     H78689   2.734   0.802   7.427 -2.1937  2.0145 -1.8174
  583MOL0     H78690   2.894   0.799   7.608  1.4507  3.0184 -0.5529
  583MOL0     H78691   3.244   1.032   7.732  1.7901  1.1167 -0.2822
  583MOL0     H78692   3.437   1.030   7.875 -0.3165 -1.4003 -1.0944
  583MOL0     H78693   3.398   0.763   8.148 -1.5175  4.1266 -2.9768
  583MOL0     H78694   3.382   0.843   8.299 -2.1851  0.4058 -1.7851
  583MOL0     H78695   3.586   0.713   8.312 -1.7567 -0.8016 -0.6568
  583MOL0     H78696   3.647   0.875   8.301 -0.8514 -0.6505 -0.1288
  583MOL0     H78697   3.697   0.846   8.057  0.7941  0.2833 -1.0525
  583MOL0     H78698   3.603   0.686   8.069  0.5797 -0.4089  0.9769
  583MOL0     H78699   3.838   0.690   8.236  0.4598 -1.5250  0.0830
  583MOL0     H78700   3.788   0.575   8.110 -1.7177  0.5706  0.7970
  583MOL0     H78701   4.061   0.843   7.918  0.8645  0.5697  1.3540
  583MOL0     H78702   3.198   0.908   8.205 -1.4513  2.9334 -0.6308
  583MOL0     H78703   2.921   1.016   8.155  0.1220 -0.4062  0.7120
  583MOL0     H78704   2.887   0.877   8.045 -2.3179  0.8609  0.7160
  583MOL0     H78705   2.983   0.858   8.186  0.7077  0.4534  0.1923
  584MOL0     O78706   9.812   3.093   2.337  0.5750  0.0590  0.1285
  584MOL0     C78707   9.853   3.020   2.248 -0.6771 -0.4990 -0.0257
  584MOL0     O78708   9.785   2.930   2.173 -0.5117  0.4985 -0.2412
  584MOL0     C78709   9.665   2.898   2.231  0.0627  0.7212 -0.7836
  584MOL0     C78710   9.658   2.814   2.346 -0.4922 -0.5025 -0.4401
  584MOL0     C78711   9.533   2.798   2.399 -0.9027  0.9418 -0.2977
  584MOL0     C78712   9.410   2.848   2.342 -0.6201 -0.5202 -0.1373
  584MOL0     O78713   9.287   2.832   2.401  0.4042 -0.1587 -0.2019
  584MOL0     C78714   9.268   2.713   2.469 -1.2313 -0.0712  0.8417
  584MOL0     C78715   9.116   2.697   2.469  0.5708 -0.2134 -0.0878
  584MOL0     C78716   9.046   2.809   2.533 -0.1189 -0.9708 -0.5181
  584MOL0     C78717   8.894   2.808   2.512 -0.4224 -0.4022  0.9510
  584MOL0     C78718   8.832   2.922   2.595 -0.4447  1.4454 -0.5904
  584MOL0     C78719   8.681   2.925   2.576 -0.3744 -0.5795 -0.7154
  584MOL0     C78720   8.616   2.966   2.711 -0.3343  0.2002  0.5014
  584MOL0     C78721   8.462   2.969   2.696  0.9469  0.0548  0.7217
  584MOL0     N78722   8.384   2.841   2.706 -0.0767 -0.4162  0.5877
  584MOL0     C78723   8.262   2.827   2.762 -0.5759  0.2939  0.7815
  584MOL0     C78724   8.214   2.708   2.717  1.0524  0.5991 -0.0004
  584MOL0     C78725   8.087   2.647   2.778 -0.3703 -0.1391 -1.1266
  584MOL0     C78726   8.137   2.527   2.866 -0.1833  0.6414  0.7803
  584MOL0     C78727   8.013   2.457   2.918 -0.8122  0.2269  0.3381
  584MOL0     C78728   8.049   2.327   3.000  1.1084  0.2659 -0.4556
  584MOL0     O78729   8.149   2.367   3.102 -0.2395 -0.0766 -0.4668
  584MOL0     C78730   8.216   2.258   3.148  1.0619  0.1533  0.4912
  584MOL0     C78731   8.146   2.193   3.249 -0.2382 -0.1702  0.4162
  584MOL0     C78732   8.197   2.073   3.301  0.4506 -0.3155  0.7386
  584MOL0     C78733   8.311   2.014   3.237 -0.2282  0.5096 -0.3605
  584MOL0     C78734   8.357   1.887   3.287  0.0958  0.0574 -0.7032
  584MOL0     O78735   8.462   1.826   3.218 -0.1475  0.4466  0.2080
  584MOL0     C78736   8.542   1.739   3.290 -0.6851  0.7469 -0.3492
  584MOL0     C78737   8.563   1.617   3.233 -1.0647  0.7241  0.1251
  584MOL0     C78738   8.654   1.531   3.292  0.7422 -0.1269 -0.4334
  584MOL0     C78739   8.727   1.575   3.406  1.0335 -0.6533 -0.6522
  584MOL0     O78740   8.824   1.491   3.454  0.7663 -0.2973 -0.0300
  584MOL0     C78741   8.941   1.480   3.369  0.9225  0.5939 -0.0111
  584MOL0     C78742   9.022   1.607   3.350 -0.5562 -0.3634 -0.8282
  584MOL0     C78743   8.976   1.703   3.246 -0.1507 -0.6413  1.2510
  584MOL0     C78744   9.075   1.702   3.124  0.2021 -0.2301  0.1553
  584MOL0     C78745   9.034   1.801   3.011 -0.1036  0.7762  0.3984
  584MOL0     C78746   9.143   1.805   2.905 -1.0095  0.9873  0.6355
  584MOL0     C78747   9.100   1.881   2.770 -0.5625 -0.6293  0.9132
  584MOL0     C78748   9.174   1.805   2.661  0.8158  0.2410 -0.0062
  584MOL0    Cl78749   9.104   1.636   2.630  0.1940 -0.3471  0.3484
  584MOL0     C78750   8.695   1.693   3.471 -0.7565  1.2217 -0.0938
  584MOL0     C78751   8.611   1.786   3.408 -0.2378  0.6349 -0.1847
  584MOL0     O78752   8.309   1.840   3.389 -0.8091  0.4390  0.3175
  584MOL0     C78753   8.385   2.084   3.141 -0.1820 -0.1659 -0.8248
  584MOL0     C78754   8.340   2.214   3.102  0.1576 -0.6821 -0.2566
  584MOL0     N78755   8.309   2.649   2.640  0.3833  0.1607  0.4908
  584MOL0     N78756   8.406   2.732   2.629 -0.1542 -0.4724  0.8792
  584MOL0     C78757   9.431   2.929   2.225  0.2975  0.3636 -0.0299
  584MOL0     C78758   9.551   2.955   2.179 -0.2011  0.2259  0.6323
  584MOL0     C78759   9.996   3.032   2.203  0.0356 -0.3218 -0.7248
  584MOL0     C78760  10.057   2.920   2.143 -0.2047 -0.6105 -0.1213
  584MOL0     C78761  10.189   2.907   2.101 -0.5465  0.1205 -1.2034
  584MOL0     C78762  10.275   3.015   2.129 -0.1513 -0.3043  0.5888
  584MOL0     O78763  10.403   2.987   2.082 -0.2750  0.0818  0.5470
  584MOL0     C78764  10.515   3.022   2.160  0.6365 -0.6221 -0.5381
  584MOL0     C78765  10.503   2.954   2.300 -0.0921  0.3031 -0.5489
  584MOL0     C78766  10.634   2.967   2.379  0.0924 -0.6964  0.6810
  584MOL0     C78767  10.660   3.114   2.419  0.1324 -0.4094 -0.9886
  584MOL0     C78768  10.570   3.164   2.520 -0.0627 -0.6040 -0.5715
  584MOL0     C78769  10.512   3.201   2.608  0.0872  0.2404  0.3760
  584MOL0     C78770  10.228   3.133   2.183  0.1029  0.1219 -0.8475
  584MOL0     C78771  10.088   3.139   2.235  0.2267 -1.2286  0.1334
  584MOL0     C78772  10.043   3.258   2.307 -0.2125  0.1130 -0.5958
  584MOL0     H78773   9.755   2.787   2.386  0.2619  1.9174 -0.5177
  584MOL0     H78774   9.523   2.741   2.491 -1.4758 -3.8692 -2.9744
  584MOL0     H78775   9.311   2.626   2.417 -1.8167 -0.1724  0.5120
  584MOL0     H78776   9.305   2.719   2.572  0.5039 -1.8060  0.3876
  584MOL0     H78777   9.090   2.607   2.527 -0.3718  0.5416  0.7091
  584MOL0     H78778   9.077   2.685   2.368 -0.8688 -3.0884  0.7056
  584MOL0     H78779   9.090   2.897   2.484  2.3198 -2.5723 -1.3647
  584MOL0     H78780   9.074   2.821   2.638 -0.8968  0.9709 -0.4799
  584MOL0     H78781   8.870   2.830   2.408  1.9614  0.4831  0.5285
  584MOL0     H78782   8.847   2.713   2.539 -3.4192 -0.0525 -2.3082
  584MOL0     H78783   8.853   2.912   2.701  1.0854  0.7397 -0.9319
  584MOL0     H78784   8.866   3.020   2.559  0.6428  1.3730  0.1959
  584MOL0     H78785   8.664   3.006   2.505  2.1317  0.5940 -0.1112
  584MOL0     H78786   8.646   2.826   2.545  2.3280 -0.8979 -3.1748
  584MOL0     H78787   8.658   3.063   2.736 -0.4451  0.9325 -1.9634
  584MOL0     H78788   8.650   2.903   2.794  1.1451  0.0828 -0.1704
  584MOL0     H78789   8.452   3.023   2.790  2.2127 -0.8451  1.4142
  584MOL0     H78790   8.424   3.030   2.614  0.3272  2.7657  2.8831
  584MOL0     H78791   8.213   2.894   2.832 -0.7271 -0.1597  1.1134
  584MOL0     H78792   8.046   2.726   2.841  0.2028 -1.5535  1.1272
  584MOL0     H78793   8.003   2.624   2.712 -1.9933  4.2714 -0.9281
  584MOL0     H78794   8.203   2.465   2.804 -0.1839  1.4639 -0.0800
  584MOL0     H78795   8.189   2.567   2.953 -1.3603  0.1638  1.7282
  584MOL0     H78796   7.959   2.421   2.830  0.4613 -1.7388  0.2806
  584MOL0     H78797   7.943   2.522   2.972 -0.3317  1.7021 -0.7420
  584MOL0     H78798   8.084   2.250   2.930 -1.9596 -0.3457 -1.4765
  584MOL0     H78799   7.961   2.284   3.049  1.1246 -1.8174 -2.1119
  584MOL0     H78800   8.053   2.231   3.290 -0.3473  0.0916 -0.0710
  584MOL0     H78801   8.143   2.025   3.382  1.9247 -2.6044  0.4708
  584MOL0     H78802   8.512   1.579   3.145  0.7953 -0.3012 -0.5582
  584MOL0     H78803   8.672   1.433   3.248  5.9689  0.3975 -0.1285
  584MOL0     H78804   9.008   1.410   3.419 -0.3772  0.0100  0.9870
  584MOL0     H78805   8.918   1.446   3.268 -1.4522 -0.2948  0.7658
  584MOL0     H78806   9.021   1.662   3.445  2.1312 -1.0123 -0.3449
  584MOL0     H78807   9.127   1.576   3.347 -0.3700 -1.7882  5.5663
  584MOL0     H78808   8.879   1.670   3.207  0.9739 -0.8724 -1.6531
  584MOL0     H78809   8.962   1.801   3.292 -0.6156 -0.5706  0.9639
  584MOL0     H78810   9.087   1.603   3.079  2.4147  0.1753 -0.2510
  584MOL0     H78811   9.178   1.712   3.159 -0.0531  0.5761  0.7040
  584MOL0     H78812   9.017   1.900   3.055  0.2471  1.6269 -1.3004
  584MOL0     H78813   8.942   1.773   2.960  1.3581 -0.6055 -1.6242
  584MOL0     H78814   9.237   1.845   2.944  0.2159 -1.1917  0.0768
  584MOL0     H78815   9.174   1.702   2.884 -0.2628  1.1936  0.7214
  584MOL0     H78816   9.141   1.982   2.763  0.9071 -1.2857 -0.6256
  584MOL0     H78817   8.993   1.874   2.750 -0.0766  1.2187 -3.2981
  584MOL0     H78818   9.159   1.862   2.568 -3.7473  1.8094  1.4051
  584MOL0     H78819   9.282   1.808   2.677  0.5453 -0.0223  2.0938
  584MOL0     H78820   8.766   1.731   3.544  1.7357 -2.1213 -0.5680
  584MOL0     H78821   8.614   1.889   3.442  3.0740  1.0420 -1.4117
  584MOL0     H78822   8.484   2.062   3.103 -0.9760 -1.6437 -2.2035
  584MOL0     H78823   8.401   2.259   3.025  0.0492 -1.8923 -1.0853
  584MOL0     H78824   9.339   2.962   2.177  1.5695  0.4164 -2.5650
  584MOL0     H78825   9.567   3.024   2.097  3.5432 -0.1136  0.8714
  584MOL0     H78826  10.000   2.827   2.137 -0.3666 -0.4448 -1.4987
  584MOL0     H78827  10.237   2.813   2.074  2.9393  0.0926  3.7738
  584MOL0     H78828  10.524   3.130   2.168 -2.2705 -0.2233 -1.3064
  584MOL0     H78829  10.602   2.994   2.100  1.2085  2.8217 -1.5559
  584MOL0     H78830  10.480   2.847   2.291  1.7686 -0.1004 -0.9071
  584MOL0     H78831  10.425   3.011   2.351  1.3372  2.0128 -0.1564
  584MOL0     H78832  10.715   2.950   2.307 -0.9067  1.1461 -0.9872
  584MOL0     H78833  10.651   2.892   2.457 -0.1152 -2.2329 -0.7090
  584MOL0     H78834  10.764   3.109   2.453  0.3896  1.2753 -1.4476
  584MOL0     H78835  10.652   3.184   2.336  1.8053  1.6513  0.4472
  584MOL0     H78836  10.451   3.210   2.696 -2.7753 -2.5515 -1.1184
  584MOL0     H78837  10.300   3.209   2.214  0.6481 -1.4948  2.2658
  584MOL0     H78838   9.986   3.233   2.396 -0.2778 -2.0078 -1.1801
  584MOL0     H78839  10.140   3.297   2.339  0.9245  0.7806 -4.3141
  584MOL0     H78840   9.983   3.323   2.242 -1.0908 -0.3274 -0.2500
  585MOL0     O78841   3.530  11.173   9.761  0.4448  0.1653  0.1924
  585MOL0     C78842   3.523  11.290   9.754 -0.7992 -0.2833 -0.5134
  585MOL0     O78843   3.458  11.369   9.848  0.1300 -0.2230 -0.0063
  585MOL0     C78844   3.373  11.314   9.939  0.2980  0.0217  0.0674
  585MOL0     C78845   3.277  11.219   9.901  0.2820  0.2348 -0.5471
  585MOL0     C78846   3.176  11.176   9.987  0.3460  0.6924 -0.5603
  585MOL0     C78847   3.162  11.217  10.111 -0.3880 -0.2871  0.8591
  585MOL0     O78848   3.063  11.153  10.188  0.3090 -0.1330  0.4756
  585MOL0     C78849   3.034  11.182  10.328  0.1056 -0.0856 -0.3343
  585MOL0     C78850   2.886  11.223  10.341 -0.7885 -0.5794 -0.5770
  585MOL0     C78851   2.825  11.221  10.487  0.6262  0.0253 -0.3826
  585MOL0     C78852   2.682  11.162  10.476  0.5875 -0.6703  0.4169
  585MOL0     C78853   2.600  11.183  10.605  0.3088  0.2956 -0.1817
  585MOL0     C78854   2.581  11.332  10.651 -0.2085 -0.4037  0.2063
  585MOL0     C78855   2.503  11.350  10.789 -0.0576 -0.0463 -0.8753
  585MOL0     C78856   2.530  11.239  10.892  0.4402  0.4523 -1.1481
  585MOL0     N78857   2.475  11.280  11.017  0.3877 -0.7664 -0.0294
  585MOL0     C78858   2.541  11.335  11.121 -0.9175 -0.2525 -0.1046
  585MOL0     C78859   2.449  11.366  11.213  0.0773  0.5937 -0.2617
  585MOL0     C78860   2.470  11.441  11.341 -0.3113  0.5990 -0.0237
  585MOL0     C78861   2.573  11.550  11.318 -0.1374  0.3521 -0.6285
  585MOL0     C78862   2.510  11.674  11.233 -0.2653 -0.6503 -0.5033
  585MOL0     C78863   2.619  11.778  11.197 -0.3778  0.4775  0.1210
  585MOL0     O78864   2.742  11.705  11.150  0.7027 -0.4085  0.8632
  585MOL0     C78865   2.772  11.714  11.013 -0.9021  0.3512 -0.2756
  585MOL0     C78866   2.682  11.712  10.913  0.7808 -0.2568  0.2891
  585MOL0     C78867   2.717  11.725  10.776 -0.6557 -0.7375 -1.0200
  585MOL0     C78868   2.855  11.751  10.739  1.0953  1.3552  0.0050
  585MOL0     C78869   2.900  11.766  10.597  0.7556  0.7018 -0.4418
  585MOL0     O78870   2.798  11.750  10.509  0.2267 -0.6455 -0.1345
  585MOL0     C78871   2.816  11.742  10.364 -0.2113 -0.0213  0.6055
  585MOL0     C78872   2.770  11.636  10.294 -0.1617 -0.1695 -0.0875
  585MOL0     C78873   2.797  11.622  10.155  0.0574 -0.9582 -0.1962
  585MOL0     C78874   2.858  11.725  10.090  0.7525 -0.3001 -0.4954
  585MOL0     O78875   2.864  11.712   9.955  0.6151 -0.2094  0.2710
  585MOL0     C78876   2.986  11.642   9.912  0.0383 -0.4088  0.3854
  585MOL0     C78877   3.001  11.669   9.772  0.7903 -0.3720 -0.0442
  585MOL0     C78878   3.130  11.631   9.710 -0.2962 -0.3497 -0.1387
  585MOL0     C78879   3.130  11.639   9.559 -0.2904 -0.1629 -0.0696
  585MOL0     C78880   3.275  11.659   9.505  0.0226 -0.0153 -0.4211
  585MOL0     C78881   3.296  11.624   9.350 -0.4644  0.6452 -0.1862
  585MOL0     C78882   3.213  11.715   9.263  0.0247 -0.2599  0.0123
  585MOL0     C78883   3.208  11.671   9.119 -0.0430  0.6446  0.1828
  585MOL0    Cl78884   3.094  11.541   9.114  0.0510  0.1180 -0.2966
  585MOL0     C78885   2.889  11.851  10.157 -0.1464  0.5974 -0.1923
  585MOL0     C78886   2.867  11.851  10.300 -0.8128 -1.1464  0.2270
  585MOL0     O78887   3.018  11.760  10.575 -0.8559  0.2596  0.0380
  585MOL0     C78888   2.944  11.750  10.851 -0.2873 -0.3179 -0.2825
  585MOL0     C78889   2.907  11.739  10.986 -0.4733  0.0034 -0.3728
  585MOL0     N78890   2.325  11.323  11.169  0.2114 -0.6685  0.4538
  585MOL0     N78891   2.341  11.274  11.051 -0.4803 -0.2383  0.3816
  585MOL0     C78892   3.244  11.321  10.153 -0.4693  0.5154 -0.2447
  585MOL0     C78893   3.341  11.371  10.060 -1.0894  0.3466 -1.4663
  585MOL0     C78894   3.593  11.362   9.650  1.1514  0.6593  0.0929
  585MOL0     C78895   3.696  11.449   9.689 -0.4452 -0.4547  0.0353
  585MOL0     C78896   3.788  11.506   9.606 -0.1473  0.6992 -0.3976
  585MOL0     C78897   3.769  11.493   9.465  0.4480 -0.5310 -0.8587
  585MOL0     O78898   3.861  11.543   9.379  0.2927  0.6250 -0.4419
  585MOL0     C78899   3.926  11.661   9.420  0.7541 -0.7356  0.6550
  585MOL0     C78900   3.976  11.711   9.294  0.4476  0.5264  0.5556
  585MOL0     C78901   4.097  11.809   9.319  0.4097  0.4755  0.8143
  585MOL0     C78902   4.178  11.868   9.193 -0.5101  0.1356 -0.7014
  585MOL0     C78903   4.258  11.990   9.224 -0.0976  0.1836 -0.2595
  585MOL0     C78904   4.326  12.085   9.243 -0.0388  0.4370  0.6989
  585MOL0     C78905   3.668  11.413   9.423  0.2848  0.3546  0.5636
  585MOL0     C78906   3.576  11.345   9.514  0.1905 -0.0794 -0.0432
  585MOL0     C78907   3.457  11.273   9.451 -0.5520 -0.5445 -1.5976
  585MOL0     H78908   3.276  11.181   9.799 -0.6946 -1.0717 -0.0737
  585MOL0     H78909   3.099  11.107   9.954 -1.2458  1.5221  1.2380
  585MOL0     H78910   3.049  11.086  10.378  0.6541 -0.3478 -0.9840
  585MOL0     H78911   3.104  11.259  10.360  0.7239  0.5091 -2.8750
  585MOL0     H78912   2.839  11.152  10.271  2.7336 -2.5689 -1.1521
  585MOL0     H78913   2.860  11.324  10.307 -2.0503 -0.5668  0.3351
  585MOL0     H78914   2.815  11.325  10.519  0.9687 -0.0225 -0.1201
  585MOL0     H78915   2.889  11.160  10.552 -0.1142 -1.0547 -0.6384
  585MOL0     H78916   2.632  11.210  10.392  1.0828 -1.0174 -0.0811
  585MOL0     H78917   2.689  11.054  10.458  2.1542 -0.2747 -1.6243
  585MOL0     H78918   2.502  11.141  10.580  0.1960  0.8535 -0.7166
  585MOL0     H78919   2.645  11.113  10.676  2.7189 -0.6519 -2.4581
  585MOL0     H78920   2.680  11.378  10.663  0.0052 -1.3014  2.3171
  585MOL0     H78921   2.519  11.375  10.572 -1.2225 -2.4233 -0.1679
  585MOL0     H78922   2.397  11.358  10.762  0.0404  1.2565 -0.9754
  585MOL0     H78923   2.530  11.442  10.841  3.1227 -2.4131  2.0480
  585MOL0     H78924   2.477  11.147  10.866  0.8252  0.2308 -1.1655
  585MOL0     H78925   2.637  11.217  10.897  0.0338 -1.4632  0.0205
  585MOL0     H78926   2.650  11.342  11.129 -0.4910 -4.1520 -0.7850
  585MOL0     H78927   2.379  11.486  11.383  0.4381  0.0935  2.3104
  585MOL0     H78928   2.510  11.378  11.421 -3.6127  1.1384  2.2664
  585MOL0     H78929   2.578  11.596  11.418 -0.5013 -2.7845  0.9454
  585MOL0     H78930   2.673  11.516  11.289  0.2426 -0.5840  1.5742
  585MOL0     H78931   2.430  11.723  11.289  0.8201 -1.5879  2.0036
  585MOL0     H78932   2.463  11.632  11.144  1.0775 -0.1350 -1.5099
  585MOL0     H78933   2.644  11.835  11.287 -1.6268  3.3674 -1.2233
  585MOL0     H78934   2.574  11.849  11.126 -3.1741 -0.8196  0.4668
  585MOL0     H78935   2.578  11.696  10.937  0.9741  0.2726  1.5503
  585MOL0     H78936   2.636  11.726  10.704 -1.5661 -0.7437 -0.0252
  585MOL0     H78937   2.706  11.565  10.345 -1.7898  2.0018  1.0686
  585MOL0     H78938   2.765  11.527  10.113 -2.1602 -0.4368  0.1787
  585MOL0     H78939   3.073  11.675   9.969 -1.0789 -0.8006  2.4210
  585MOL0     H78940   2.989  11.534   9.932 -2.0884 -0.7154 -0.7325
  585MOL0     H78941   2.918  11.608   9.732 -0.5808  0.6251  1.1743
  585MOL0     H78942   2.971  11.773   9.757  1.0200 -0.4189 -0.8918
  585MOL0     H78943   3.214  11.674   9.764 -1.2048  1.3259  0.0093
  585MOL0     H78944   3.134  11.522   9.726  2.1994 -0.6225 -2.0969
  585MOL0     H78945   3.068  11.723   9.525 -1.1031 -0.6961  0.0881
  585MOL0     H78946   3.090  11.555   9.502  0.3366 -1.7159  1.6789
  585MOL0     H78947   3.353  11.605   9.560  3.0252  2.1535 -2.1812
  585MOL0     H78948   3.296  11.765   9.522  2.0831 -0.8227  2.9451
  585MOL0     H78949   3.402  11.640   9.331  0.6832 -1.9433  3.1245
  585MOL0     H78950   3.267  11.520   9.332 -2.8208  1.5332 -2.0223
  585MOL0     H78951   3.254  11.816   9.266 -0.6497 -0.0071  2.1376
  585MOL0     H78952   3.110  11.734   9.295 -0.9184  0.5727 -3.1406
  585MOL0     H78953   3.193  11.743   9.038  4.0179 -2.8743 -4.2693
  585MOL0     H78954   3.299  11.631   9.075  0.4511  1.9775 -0.0564
  585MOL0     H78955   2.936  11.938  10.113 -4.1247  3.0586 -0.0612
  585MOL0     H78956   2.869  11.950  10.345  3.4868 -1.0453  0.2342
  585MOL0     H78957   3.047  11.757  10.816 -0.4480 -0.8427 -0.8739
  585MOL0     H78958   2.985  11.755  11.060  1.1584 -0.1575 -1.9697
  585MOL0     H78959   3.241  11.371  10.250 -0.8270  3.3785 -1.6373
  585MOL0     H78960   3.408  11.448  10.098 -1.3017 -0.2559  0.2227
  585MOL0     H78961   3.707  11.439   9.796 -2.9278 -1.3734  0.2768
  585MOL0     H78962   3.865  11.568   9.653 -0.0006 -0.1835  0.5506
  585MOL0     H78963   4.012  11.644   9.486  0.8835 -0.3380  0.5952
  585MOL0     H78964   3.868  11.736   9.474 -0.9659  1.0994 -3.3123
  585MOL0     H78965   3.893  11.757   9.240  1.0017  0.3528 -0.4676
  585MOL0     H78966   4.012  11.627   9.234 -1.3735  0.5591 -0.6579
  585MOL0     H78967   4.179  11.767   9.378 -0.8176 -0.8969  1.6424
  585MOL0     H78968   4.046  11.896   9.361  0.0316  1.6314 -1.8435
  585MOL0     H78969   4.254  11.800   9.154 -0.4060  0.6491 -1.4295
  585MOL0     H78970   4.111  11.897   9.111 -0.9422  0.2297 -0.3156
  585MOL0     H78971   4.389  12.170   9.259 -0.0066  1.0684 -2.2142
  585MOL0     H78972   3.667  11.411   9.314  2.4652  0.0686  0.5175
  585MOL0     H78973   3.454  11.278   9.342  1.9758 -2.4671 -1.8285
  585MOL0     H78974   3.455  11.166   9.472 -4.2550 -0.4434 -0.6824
  585MOL0     H78975   3.365  11.320   9.487  0.7098  0.8107  0.0578
  586MOL0     O78976   1.325   6.914   2.349  0.1237  0.4561 -0.4164
  586MOL0     C78977   1.428   6.884   2.412  0.7906 -0.3404  0.1743
  586MOL0     O78978   1.557   6.917   2.379 -0.1259 -0.1581  0.1009
  586MOL0     C78979   1.585   7.031   2.310  0.3105 -0.5040  0.1098
  586MOL0     C78980   1.500   7.143   2.308 -0.0228  0.2211  0.6248
  586MOL0     C78981   1.525   7.254   2.226  0.1846 -0.4936  0.0376
  586MOL0     C78982   1.651   7.259   2.150  0.5479  0.9170  0.5747
  586MOL0     O78983   1.660   7.360   2.052 -0.6793  0.1450  0.0825
  586MOL0     C78984   1.786   7.401   2.003  0.0225  0.4914  0.2666
  586MOL0     C78985   1.826   7.320   1.880 -0.4108  0.2595  0.0604
  586MOL0     C78986   1.713   7.335   1.768 -0.5941 -0.5262 -0.4352
  586MOL0     C78987   1.766   7.258   1.637  1.3134 -0.9116  0.0040
  586MOL0     C78988   1.680   7.287   1.510 -0.4296 -0.5644  0.1269
  586MOL0     C78989   1.714   7.177   1.405  0.1294 -0.8180  0.1540
  586MOL0     C78990   1.615   7.158   1.281 -1.2763  0.0530 -1.1003
  586MOL0     C78991   1.601   7.278   1.193 -1.0962 -0.6477 -0.0884
  586MOL0     N78992   1.721   7.308   1.118 -0.1239 -0.1181  0.4346
  586MOL0     C78993   1.817   7.394   1.161  0.3766 -0.4408  1.0459
  586MOL0     C78994   1.908   7.404   1.056 -0.4070  0.6302 -1.0779
  586MOL0     C78995   2.016   7.501   1.068 -0.4544 -0.4613 -0.4499
  586MOL0     C78996   2.141   7.446   1.141  0.0055  0.2745 -0.6278
  586MOL0     C78997   2.138   7.453   1.291 -0.3818  0.3719 -0.4905
  586MOL0     C78998   2.271   7.396   1.358  0.1471 -0.1580 -0.0581
  586MOL0     O78999   2.235   7.405   1.498 -0.2448 -0.4696  0.0275
  586MOL0     C79000   2.168   7.295   1.549 -0.1794  0.3035  0.2178
  586MOL0     C79001   2.151   7.287   1.683 -0.1855 -0.2238 -0.8255
  586MOL0     C79002   2.111   7.170   1.741  0.4934  0.2608 -0.5501
  586MOL0     C79003   2.064   7.068   1.671 -0.4829 -0.0717  0.5284
  586MOL0     C79004   2.013   6.942   1.743 -0.7581 -0.1599 -0.6742
  586MOL0     O79005   2.033   6.928   1.875 -0.6807 -0.5499  0.5211
  586MOL0     C79006   2.000   6.808   1.932  0.0169  0.0683 -0.1933
  586MOL0     C79007   2.050   6.681   1.890  1.1031 -0.9689  0.0221
  586MOL0     C79008   2.010   6.559   1.957 -1.0339 -0.2889 -0.2837
  586MOL0     C79009   1.913   6.563   2.059 -0.3606  0.2613 -0.5853
  586MOL0     O79010   1.867   6.437   2.105 -0.5492 -0.2902 -0.1351
  586MOL0     C79011   1.768   6.430   2.214  0.2550  0.1606 -1.2977
  586MOL0     C79012   1.730   6.283   2.252  0.7453 -0.7233  0.5725
  586MOL0     C79013   1.695   6.208   2.117 -0.0642 -0.7423  0.6241
  586MOL0     C79014   1.624   6.079   2.143  0.5344  0.4893 -0.3579
  586MOL0     C79015   1.624   5.989   2.019  0.4747  0.8238  0.5030
  586MOL0     C79016   1.771   5.935   2.002  0.6238  0.4822  0.0318
  586MOL0     C79017   1.799   5.846   1.879 -0.2922 -0.4457  0.3185
  586MOL0     C79018   1.693   5.730   1.872 -0.6618  0.5105 -0.1309
  586MOL0    Cl79019   1.738   5.629   1.723  0.2513  0.2100  0.0350
  586MOL0     C79020   1.874   6.682   2.120  0.3544 -0.5631 -0.5878
  586MOL0     C79021   1.921   6.807   2.057 -0.3678  1.2182 -1.8959
  586MOL0     O79022   1.944   6.866   1.677 -0.1085 -0.1327 -0.2849
  586MOL0     C79023   2.078   7.072   1.529  0.4917 -0.4515 -0.2819
  586MOL0     C79024   2.135   7.185   1.468 -0.5383  0.4956  0.5206
  586MOL0     N79025   1.867   7.329   0.950  0.3865 -0.1584 -0.9680
  586MOL0     N79026   1.759   7.277   0.985  0.3288  0.2313 -0.2250
  586MOL0     C79027   1.738   7.153   2.163  0.0861  0.0314  0.2870
  586MOL0     C79028   1.713   7.044   2.249  0.5207 -0.2941 -0.3755
  586MOL0     C79029   1.416   6.791   2.523 -0.1057 -0.6641 -0.9313
  586MOL0     C79030   1.411   6.856   2.646 -0.7416  0.3189  0.6493
  586MOL0     C79031   1.393   6.787   2.768 -0.1265 -0.2577 -0.1749
  586MOL0     C79032   1.380   6.649   2.764 -0.2915 -1.3995 -1.1317
  586MOL0     O79033   1.353   6.581   2.878  0.4919 -0.7086  0.0945
  586MOL0     C79034   1.212   6.560   2.904  0.8659  0.1598 -0.3448
  586MOL0     C79035   1.161   6.424   2.858 -0.1442  0.4042 -0.4947
  586MOL0     C79036   1.043   6.439   2.759  0.1743  0.6756 -0.3510
  586MOL0     C79037   0.992   6.302   2.703  0.5958 -0.4072 -0.6107
  586MOL0     C79038   0.903   6.321   2.591  0.0781  0.3512  0.1264
  586MOL0     C79039   0.826   6.305   2.495  0.8507 -0.2058 -0.1254
  586MOL0     C79040   1.378   6.583   2.637 -0.3718 -0.7828  0.2931
  586MOL0     C79041   1.392   6.648   2.519  0.0096 -0.3540  0.6066
  586MOL0     C79042   1.373   6.580   2.385 -0.4397  0.2106 -0.7254
  586MOL0     H79043   1.405   7.147   2.361  0.9846 -0.1950  2.5456
  586MOL0     H79044   1.444   7.327   2.229  0.0657 -0.6650  2.4022
  586MOL0     H79045   1.789   7.510   1.993  0.5790  0.5150  0.6334
  586MOL0     H79046   1.870   7.382   2.071 -0.4036  0.0062  0.6619
  586MOL0     H79047   1.851   7.214   1.891  2.8472  0.8463 -0.6957
  586MOL0     H79048   1.923   7.359   1.849 -1.1045  0.4953 -1.9732
  586MOL0     H79049   1.696   7.443   1.760 -0.6300 -0.0733  3.6646
  586MOL0     H79050   1.612   7.306   1.799  0.2436 -0.1114  3.0813
  586MOL0     H79051   1.867   7.297   1.619  2.3673 -2.1931  2.5721
  586MOL0     H79052   1.750   7.152   1.659 -0.9957 -0.5566  0.2867
  586MOL0     H79053   1.577   7.279   1.546 -0.0747 -2.5691  0.8267
  586MOL0     H79054   1.694   7.389   1.475 -0.9441 -0.4144  0.3493
  586MOL0     H79055   1.812   7.203   1.364  0.7901 -0.8538  1.6284
  586MOL0     H79056   1.719   7.081   1.458  0.6782 -0.2603  1.1578
  586MOL0     H79057   1.514   7.144   1.321 -0.7952  2.2756  1.1587
  586MOL0     H79058   1.633   7.065   1.227 -3.9058  0.0732 -2.1498
  586MOL0     H79059   1.522   7.243   1.126 -2.9811 -0.0282  1.7004
  586MOL0     H79060   1.574   7.369   1.248 -1.7883 -0.7109 -0.3087
  586MOL0     H79061   1.813   7.445   1.256 -1.7944  2.2418 -0.3249
  586MOL0     H79062   2.047   7.536   0.970  0.4569  1.1124  0.3628
  586MOL0     H79063   1.978   7.588   1.122 -0.0425 -0.3789 -0.2873
  586MOL0     H79064   2.178   7.346   1.116  2.8652  1.3687 -1.1602
  586MOL0     H79065   2.228   7.502   1.105 -0.6408  0.5704 -1.7472
  586MOL0     H79066   2.048   7.400   1.326 -1.6151  3.1801  0.9341
  586MOL0     H79067   2.132   7.559   1.317 -2.0237 -0.2938  2.3714
  586MOL0     H79068   2.357   7.458   1.334  1.7985 -1.6442  1.7365
  586MOL0     H79069   2.301   7.295   1.327 -1.0601  0.0922 -2.3239
  586MOL0     H79070   2.169   7.374   1.746 -0.7622 -0.4746 -0.3040
  586MOL0     H79071   2.113   7.182   1.849 -2.7204  0.9866 -0.4878
  586MOL0     H79072   2.122   6.662   1.811  2.5538  0.5295  0.9033
  586MOL0     H79073   2.032   6.463   1.911  0.3650 -0.5199  0.8175
  586MOL0     H79074   1.805   6.486   2.300 -0.7597  1.2889 -1.5539
  586MOL0     H79075   1.676   6.480   2.181 -0.2985 -0.1041 -0.2008
  586MOL0     H79076   1.808   6.232   2.309  0.3408 -0.9257  0.9505
  586MOL0     H79077   1.640   6.273   2.314  0.6158  0.0541  0.5170
  586MOL0     H79078   1.621   6.260   2.054 -0.4790 -0.3286  1.4315
  586MOL0     H79079   1.788   6.192   2.062 -0.6118 -0.6736 -0.3391
  586MOL0     H79080   1.520   6.102   2.167 -0.3968 -0.7460 -2.9287
  586MOL0     H79081   1.667   6.027   2.229 -1.0287 -2.0165 -1.0074
  586MOL0     H79082   1.598   6.045   1.929  0.1275  3.3822  2.1139
  586MOL0     H79083   1.544   5.914   2.025 -1.5101  2.6962 -1.0355
  586MOL0     H79084   1.848   6.011   1.990  1.1742 -0.3773 -2.6007
  586MOL0     H79085   1.793   5.870   2.087  2.1083  0.3189 -0.4507
  586MOL0     H79086   1.900   5.804   1.876  0.7618  2.0032 -1.7037
  586MOL0     H79087   1.778   5.914   1.796  0.0433  1.4772  1.7550
  586MOL0     H79088   1.687   5.656   1.953 -0.0410  2.1274  1.4713
  586MOL0     H79089   1.592   5.771   1.866 -0.5469  0.7657 -0.3068
  586MOL0     H79090   1.811   6.682   2.208 -2.7674 -2.3787 -2.6469
  586MOL0     H79091   1.911   6.891   2.125  4.9186 -1.4355  3.0541
  586MOL0     H79092   2.070   6.981   1.470  0.6924 -0.4378 -0.3328
  586MOL0     H79093   2.133   7.181   1.360 -1.3341  1.6595  0.4771
  586MOL0     H79094   1.829   7.160   2.105  0.0560 -0.0073  0.2348
  586MOL0     H79095   1.785   6.967   2.272  0.8137 -1.0702 -3.4448
  586MOL0     H79096   1.420   6.964   2.649 -3.0189  0.5544  0.7332
  586MOL0     H79097   1.388   6.852   2.855  0.1801  2.3448 -1.9613
  586MOL0     H79098   1.154   6.641   2.860 -0.6439 -0.2560  0.8066
  586MOL0     H79099   1.184   6.557   3.010 -4.7007  0.1957 -1.5073
  586MOL0     H79100   1.125   6.361   2.940 -0.9366  1.5292  0.0474
  586MOL0     H79101   1.233   6.361   2.805 -2.0682 -1.9445 -0.4831
  586MOL0     H79102   1.067   6.502   2.673 -3.3454 -1.0561 -2.8636
  586MOL0     H79103   0.955   6.487   2.802 -0.1293 -2.1714  2.5582
  586MOL0     H79104   1.074   6.238   2.668  0.7457 -0.8478  0.4991
  586MOL0     H79105   0.924   6.252   2.772 -0.2860 -0.4038 -1.4506
  586MOL0     H79106   0.765   6.298   2.407  3.5077 -1.4086 -2.0065
  586MOL0     H79107   1.359   6.477   2.632  5.2250 -2.0530 -1.0183
  586MOL0     H79108   1.353   6.476   2.410  4.2742 -0.6783  0.2720
  586MOL0     H79109   1.297   6.635   2.328 -2.2076 -0.3573  0.9544
  586MOL0     H79110   1.461   6.572   2.321 -1.3524 -1.3013 -1.8470
  587MOL0     O79111   4.538   8.054   9.945 -0.0040 -0.3567 -0.3297
  587MOL0     C79112   4.529   8.010   9.833 -0.0955  0.2477  0.9176
  587MOL0     O79113   4.624   7.947   9.765 -1.2238 -0.6981 -0.3229
  587MOL0     C79114   4.734   7.917   9.839  0.2528  0.3072  0.2184
  587MOL0     C79115   4.827   8.015   9.851  0.7366  0.0183 -0.1665
  587MOL0     C79116   4.949   7.995   9.929 -0.6811  0.3142 -0.0573
  587MOL0     C79117   4.971   7.867   9.986  0.3292 -0.4721 -1.6483
  587MOL0     O79118   5.065   7.836  10.082 -0.6482 -0.1533  0.3215
  587MOL0     C79119   5.171   7.927  10.102 -0.3612  0.3942 -0.1461
  587MOL0     C79120   5.251   7.884  10.221  0.3344 -0.1729  0.1189
  587MOL0     C79121   5.320   7.747  10.223  0.4606  0.1953  1.3014
  587MOL0     C79122   5.401   7.718  10.090 -0.6389  0.2727 -0.4919
  587MOL0     C79123   5.529   7.635  10.116 -0.4434 -0.1727  0.7670
  587MOL0     C79124   5.506   7.485  10.138  0.3443  0.1870  0.1444
  587MOL0     C79125   5.455   7.414  10.009 -0.2092  0.0448  0.2445
  587MOL0     C79126   5.456   7.256  10.023  0.5258  0.9199  0.1658
  587MOL0     N79127   5.418   7.179   9.903 -0.0013 -0.0690 -0.4334
  587MOL0     C79128   5.357   7.228   9.792  0.5063 -0.1584 -0.1214
  587MOL0     C79129   5.343   7.130   9.702 -0.1585 -0.0884  0.7550
  587MOL0     C79130   5.282   7.137   9.562 -0.5944  0.1596  0.3306
  587MOL0     C79131   5.318   7.030   9.464  1.1750 -0.4553 -0.6623
  587MOL0     C79132   5.204   6.933   9.442  0.8996 -0.6519  0.4312
  587MOL0     C79133   5.234   6.834   9.336  0.1147 -0.5238  0.0524
  587MOL0     O79134   5.205   6.706   9.385  0.1037  1.1460  0.4232
  587MOL0     C79135   5.265   6.592   9.337 -0.1909 -0.3750  0.8642
  587MOL0     C79136   5.260   6.470   9.405  0.3223 -0.8317  0.2900
  587MOL0     C79137   5.334   6.355   9.368  1.1559 -0.6704  0.0649
  587MOL0     C79138   5.412   6.363   9.258 -0.0851 -0.2816 -0.5689
  587MOL0     C79139   5.466   6.237   9.207 -0.0925 -0.3217  0.4829
  587MOL0     O79140   5.394   6.118   9.246  0.6191  0.4765  0.2622
  587MOL0     C79141   5.438   6.000   9.193  0.0857 -0.0443  0.0009
  587MOL0     C79142   5.475   5.899   9.287  1.2717  0.1959  0.2805
  587MOL0     C79143   5.501   5.769   9.230  0.1058  0.9500 -0.4330
  587MOL0     C79144   5.503   5.736   9.093  0.1228  0.7789 -0.7840
  587MOL0     O79145   5.535   5.611   9.055 -0.7822 -0.3490 -0.0194
  587MOL0     C79146   5.634   5.538   9.124  0.2176  0.7152  0.6954
  587MOL0     C79147   5.676   5.413   9.040 -0.2180  0.1200 -0.8357
  587MOL0     C79148   5.790   5.329   9.111  0.4617 -0.1022  0.3332
  587MOL0     C79149   5.830   5.199   9.036  0.2459  0.1178 -1.0100
  587MOL0     C79150   5.916   5.106   9.122  0.3144  0.9150  0.0348
  587MOL0     C79151   5.987   4.985   9.046 -0.2522  0.6247  0.4458
  587MOL0     C79152   5.894   4.869   9.025  0.0179 -0.4576  0.3329
  587MOL0     C79153   5.985   4.748   8.979  0.7918  0.3371  0.7269
  587MOL0    Cl79154   6.087   4.788   8.832 -0.2161 -0.0386 -0.0604
  587MOL0     C79155   5.478   5.845   9.001  0.4060 -0.3195 -0.8719
  587MOL0     C79156   5.433   5.969   9.052  0.0327  0.0157  0.3711
  587MOL0     O79157   5.572   6.241   9.148  0.0618  0.3986  0.2533
  587MOL0     C79158   5.417   6.484   9.187 -0.8038 -0.5811 -0.4444
  587MOL0     C79159   5.347   6.592   9.227  0.6838  0.2970 -0.2337
  587MOL0     N79160   5.394   7.015   9.766 -0.8011 -0.0304  0.0699
  587MOL0     N79161   5.438   7.050   9.889  0.3136 -0.0285 -0.2032
  587MOL0     C79162   4.881   7.768   9.956  0.6312 -0.1393  0.1018
  587MOL0     C79163   4.768   7.793   9.875 -0.8576 -0.1530 -0.9885
  587MOL0     C79164   4.410   8.062   9.750 -1.1205 -0.3281 -0.1332
  587MOL0     C79165   4.347   8.187   9.788 -0.2605  0.7791 -0.6340
  587MOL0     C79166   4.246   8.236   9.713  0.3434  0.2120 -0.0008
  587MOL0     C79167   4.210   8.181   9.587  0.7068 -0.5887 -0.5791
  587MOL0     O79168   4.107   8.238   9.520  0.2383  0.0337  1.2190
  587MOL0     C79169   4.083   8.186   9.385  0.1638 -0.4316  0.3195
  587MOL0     C79170   3.999   8.290   9.311  0.0496  0.7831  0.6653
  587MOL0     C79171   3.971   8.248   9.171  0.7953 -0.0751 -0.3100
  587MOL0     C79172   3.904   8.356   9.086 -0.4695  0.4624  0.1927
  587MOL0     C79173   4.003   8.468   9.073 -0.5631 -0.1303 -0.4237
  587MOL0     C79174   4.068   8.571   9.054 -0.0045 -0.5462 -0.8660
  587MOL0     C79175   4.272   8.056   9.552 -0.7899  0.4695  0.0819
  587MOL0     C79176   4.368   7.996   9.626  0.2185 -0.2613  0.0895
  587MOL0     C79177   4.407   7.856   9.600  0.2043 -0.7708 -0.2381
  587MOL0     H79178   4.808   8.115   9.813 -1.8698  0.5750  2.2229
  587MOL0     H79179   5.028   8.066   9.948  1.9179 -2.3416 -0.1587
  587MOL0     H79180   5.225   7.922  10.007  0.2834 -0.8468  0.2579
  587MOL0     H79181   5.139   8.030  10.121  1.9926  1.8275 -3.0092
  587MOL0     H79182   5.187   7.878  10.309  1.7979  1.9077  1.4255
  587MOL0     H79183   5.324   7.964  10.241 -1.4575  1.4837  0.2920
  587MOL0     H79184   5.234   7.679  10.229 -2.7649  3.3306 -3.1756
  587MOL0     H79185   5.395   7.735  10.302  0.9990 -0.3302  0.7161
  587MOL0     H79186   5.345   7.675  10.006 -1.2274  2.1140 -1.0889
  587MOL0     H79187   5.433   7.814  10.049 -1.7721  1.2383  0.8106
  587MOL0     H79188   5.592   7.640  10.027  0.1154  0.7252  1.1951
  587MOL0     H79189   5.577   7.681  10.203 -2.7752  2.2552  0.8901
  587MOL0     H79190   5.597   7.440  10.179  1.1804  1.1692 -0.5996
  587MOL0     H79191   5.423   7.462  10.206 -1.9739  0.7077 -2.3162
  587MOL0     H79192   5.503   7.454   9.919  0.3295 -2.4252 -0.6562
  587MOL0     H79193   5.349   7.437  10.000 -0.6470 -2.1220 -0.9888
  587MOL0     H79194   5.558   7.236  10.056  0.6664  0.5803 -0.4544
  587MOL0     H79195   5.387   7.221  10.100  0.0039  0.4905 -0.4867
  587MOL0     H79196   5.302   7.320   9.782  1.5330  0.3802 -1.0905
  587MOL0     H79197   5.173   7.150   9.559 -0.7435 -1.1008 -2.5384
  587MOL0     H79198   5.318   7.232   9.522  3.9149 -1.6203 -0.4340
  587MOL0     H79199   5.339   7.079   9.369 -1.5315  0.6028 -0.7943
  587MOL0     H79200   5.409   6.971   9.479  0.6873 -1.9441 -3.0957
  587MOL0     H79201   5.113   6.985   9.411 -0.3505 -1.4887  2.4603
  587MOL0     H79202   5.191   6.888   9.541  3.5771 -0.1547  1.0967
  587MOL0     H79203   5.333   6.848   9.292 -0.6800  0.9443 -1.3812
  587MOL0     H79204   5.166   6.841   9.251  0.7547  0.9106 -0.3663
  587MOL0     H79205   5.192   6.452   9.487 -0.2829  1.8418  0.4452
  587MOL0     H79206   5.316   6.272   9.436 -2.9535  1.0241  1.3974
  587MOL0     H79207   5.475   5.913   9.395 -2.1601 -2.1163  0.7458
  587MOL0     H79208   5.521   5.695   9.307 -1.2678  1.6258  0.6226
  587MOL0     H79209   5.720   5.604   9.134 -0.3336  1.5797 -0.0488
  587MOL0     H79210   5.586   5.500   9.214  2.0615 -0.3203  1.2810
  587MOL0     H79211   5.581   5.361   9.032 -1.5667  2.4080 -0.6179
  587MOL0     H79212   5.717   5.445   8.943 -1.4663  2.1612 -0.7336
  587MOL0     H79213   5.882   5.389   9.113  1.1089 -1.0498 -0.0315
  587MOL0     H79214   5.760   5.301   9.212  1.6425 -2.2610  0.1564
  587MOL0     H79215   5.881   5.206   8.939 -2.1330 -0.7507 -2.4255
  587MOL0     H79216   5.735   5.147   9.020  0.2424 -1.0215  2.1024
  587MOL0     H79217   5.855   5.071   9.206  1.3713  3.7870  2.1582
  587MOL0     H79218   6.000   5.160   9.167 -0.1117 -0.0667  2.1295
  587MOL0     H79219   6.035   5.025   8.956  0.4408 -1.0566  0.0300
  587MOL0     H79220   6.074   4.958   9.106  1.5158 -1.6784 -2.8430
  587MOL0     H79221   5.816   4.889   8.951 -1.3479 -0.1361  1.7965
  587MOL0     H79222   5.841   4.851   9.119  0.4731  3.0429  1.3882
  587MOL0     H79223   6.054   4.727   9.062  0.1960  1.8956  1.6646
  587MOL0     H79224   5.933   4.654   8.957  3.2347 -0.5868 -1.7263
  587MOL0     H79225   5.495   5.830   8.895  2.1634 -1.9005 -0.4284
  587MOL0     H79226   5.395   6.037   8.976  0.4139 -1.0477 -0.8290
  587MOL0     H79227   5.470   6.483   9.092  1.1210 -2.0924  0.5777
  587MOL0     H79228   5.340   6.682   9.168 -0.3363  2.1008  2.4484
  587MOL0     H79229   4.893   7.667   9.992 -1.5468 -0.4335  0.1126
  587MOL0     H79230   4.703   7.707   9.866  0.9629 -2.4429  4.0064
  587MOL0     H79231   4.379   8.247   9.872 -1.2888  2.1417 -1.1784
  587MOL0     H79232   4.187   8.320   9.749 -0.1285  0.3508 -1.0657
  587MOL0     H79233   4.028   8.091   9.391  1.3272 -1.0505  1.8153
  587MOL0     H79234   4.170   8.166   9.322 -0.6754 -6.3934  0.4728
  587MOL0     H79235   4.057   8.383   9.319  1.7633 -0.1912  0.1980
  587MOL0     H79236   3.906   8.292   9.369 -0.7477  0.3633 -0.5702
  587MOL0     H79237   3.910   8.157   9.164  1.2107 -0.5074  1.2069
  587MOL0     H79238   4.067   8.215   9.133  1.7507  1.8441  0.2976
  587MOL0     H79239   3.870   8.315   8.990  3.0742  1.4441 -1.6594
  587MOL0     H79240   3.812   8.396   9.129 -1.9160 -1.1087 -1.3059
  587MOL0     H79241   4.120   8.660   9.024 -0.8139  0.3114  0.1608
  587MOL0     H79242   4.239   7.998   9.466 -1.1869 -2.5485  2.1133
  587MOL0     H79243   4.436   7.812   9.696 -4.7682 -1.0532  1.4303
  587MOL0     H79244   4.326   7.803   9.548  1.8016  0.4486 -4.3237
  587MOL0     H79245   4.486   7.859   9.524 -1.1059 -2.3241 -1.7851
  588MOL0     O79246   1.454   2.282   1.121  0.6913 -0.4830 -0.2110
  588MOL0     C79247   1.523   2.192   1.077  0.5527  0.3075 -0.1638
  588MOL0     O79248   1.481   2.073   1.022 -0.2542 -0.0194  0.2533
  588MOL0     C79249   1.355   2.029   1.043  0.3766  0.4990 -0.1266
  588MOL0     C79250   1.295   1.940   0.948 -0.9024 -0.4843 -0.7445
  588MOL0     C79251   1.181   1.862   0.977  0.2270 -0.2554  0.0422
  588MOL0     C79252   1.109   1.889   1.094  0.4191  1.0388 -1.0619
  588MOL0     O79253   0.997   1.823   1.127  0.2078 -0.4805 -0.1620
  588MOL0     C79254   0.917   1.778   1.012 -0.0872  0.2197 -1.0628
  588MOL0     C79255   0.775   1.768   1.058 -0.2135 -0.1778 -0.2514
  588MOL0     C79256   0.705   1.901   1.085 -0.7492  0.0441  0.3155
  588MOL0     C79257   0.678   2.001   0.967 -0.0891 -0.4938  0.0197
  588MOL0     C79258   0.563   2.095   0.980  0.0264  1.2668  0.2290
  588MOL0     C79259   0.546   2.222   0.889  0.5546  0.6346  0.0412
  588MOL0     C79260   0.428   2.313   0.920 -0.5487  0.1471 -0.1670
  588MOL0     C79261   0.467   2.461   0.879  0.4495  0.0637  0.4573
  588MOL0     N79262   0.368   2.549   0.937 -0.1532 -0.0860  0.2392
  588MOL0     C79263   0.236   2.550   0.905  0.8487 -0.7632  0.2750
  588MOL0     C79264   0.169   2.645   0.979 -0.2007 -0.0552  0.4094
  588MOL0     C79265   0.027   2.674   0.986  1.4098  0.4262  0.6646
  588MOL0     C79266  -0.034   2.659   0.848  0.3415 -0.5225 -0.1183
  588MOL0     C79267  -0.175   2.708   0.846  0.0262  0.7120  0.0302
  588MOL0     C79268  -0.279   2.613   0.916 -1.0806  0.8601  1.4246
  588MOL0     O79269  -0.300   2.517   0.813  0.4932  0.0448  0.6726
  588MOL0     C79270  -0.363   2.396   0.836 -0.0108  0.7411  0.5932
  588MOL0     C79271  -0.345   2.294   0.743  0.8964  0.2153  0.3471
  588MOL0     C79272  -0.408   2.166   0.766  0.6685  1.0006  0.3842
  588MOL0     C79273  -0.509   2.147   0.861  0.1395 -0.0271  0.1036
  588MOL0     C79274  -0.588   2.028   0.860  0.0688  0.4385  0.6333
  588MOL0     O79275  -0.729   2.034   0.890 -0.2609 -0.2555 -0.2882
  588MOL0     C79276  -0.796   1.915   0.890 -0.0339 -0.7873  0.1295
  588MOL0     C79277  -0.860   1.861   1.007  0.7123 -1.3481 -0.1994
  588MOL0     C79278  -0.920   1.735   1.012  0.3366 -0.0089 -0.7317
  588MOL0     C79279  -0.920   1.661   0.891  0.2558 -0.5792  0.5909
  588MOL0     O79280  -0.992   1.545   0.881 -0.0166 -0.4928  0.2556
  588MOL0     C79281  -1.130   1.549   0.916 -0.1388 -0.7331 -1.2218
  588MOL0     C79282  -1.222   1.456   0.831  0.3970  0.2484 -0.2554
  588MOL0     C79283  -1.358   1.411   0.906  0.2880 -0.4784  0.1108
  588MOL0     C79284  -1.336   1.305   1.022 -0.3817 -0.4162  1.5227
  588MOL0     C79285  -1.459   1.262   1.088  0.5774 -0.4698 -0.8632
  588MOL0     C79286  -1.528   1.355   1.183 -0.2893 -0.3300 -0.4542
  588MOL0     C79287  -1.653   1.286   1.244  0.6513  0.4235 -0.0790
  588MOL0     C79288  -1.759   1.393   1.292  0.0405 -0.1838  0.5342
  588MOL0    Cl79289  -1.684   1.466   1.433  0.0958  0.0598 -0.2955
  588MOL0     C79290  -0.855   1.710   0.784  0.9542  1.1087  0.8161
  588MOL0     C79291  -0.805   1.836   0.774  0.3729 -0.5278  0.0393
  588MOL0     O79292  -0.522   1.918   0.858  0.3851 -0.3995  0.1872
  588MOL0     C79293  -0.532   2.257   0.947  0.0113 -0.4778 -0.0130
  588MOL0     C79294  -0.463   2.372   0.941 -1.2224 -0.6142 -0.0106
  588MOL0     N79295   0.265   2.707   1.055  0.6694 -0.0734  0.3632
  588MOL0     N79296   0.380   2.650   1.034  0.6450 -0.0694  0.3417
  588MOL0     C79297   1.161   1.977   1.190  0.5979 -0.2465 -0.0282
  588MOL0     C79298   1.274   2.048   1.158 -0.6061  0.2309 -0.7491
  588MOL0     C79299   1.675   2.199   1.079  0.2857 -0.1381 -0.0933
  588MOL0     C79300   1.742   2.248   1.198 -0.8646  0.1785  1.0747
  588MOL0     C79301   1.884   2.238   1.205 -0.5535  0.2823 -0.9061
  588MOL0     C79302   1.965   2.188   1.100  1.0003 -0.6982 -0.2268
  588MOL0     O79303   2.101   2.174   1.106  0.4290 -0.1686 -0.5879
  588MOL0     C79304   2.166   2.292   1.157  0.9665 -0.4395  0.8584
  588MOL0     C79305   2.314   2.266   1.169 -0.5206 -0.1967 -0.6124
  588MOL0     C79306   2.359   2.387   1.262 -0.0427  0.1907  0.6094
  588MOL0     C79307   2.510   2.414   1.264  0.5549  0.2409 -1.1491
  588MOL0     C79308   2.593   2.296   1.298  0.2499 -0.5372  0.0714
  588MOL0     C79309   2.649   2.192   1.336  1.2991  0.3612 -0.9652
  588MOL0     C79310   1.891   2.158   0.987 -0.0057 -0.3452  0.3937
  588MOL0     C79311   1.755   2.152   0.973 -0.7643 -0.2815  0.0937
  588MOL0     C79312   1.703   2.116   0.840 -0.2474 -0.0019  0.4254
  588MOL0     H79313   1.351   1.917   0.857  3.8224  0.7565  1.5403
  588MOL0     H79314   1.136   1.784   0.916 -2.3940 -0.0064  1.5512
  588MOL0     H79315   0.914   1.858   0.937  1.6936  0.9341 -0.4397
  588MOL0     H79316   0.957   1.689   0.961  1.8932  1.1469 -1.2198
  588MOL0     H79317   0.767   1.692   1.137 -1.4791  2.4980  2.3588
  588MOL0     H79318   0.728   1.730   0.967 -1.2677 -1.5407  0.8174
  588MOL0     H79319   0.770   1.956   1.154  0.7213  0.3995 -1.2796
  588MOL0     H79320   0.607   1.864   1.116  1.0867 -3.8890  2.1676
  588MOL0     H79321   0.772   2.054   0.953  0.0977 -0.4362  1.3144
  588MOL0     H79322   0.650   1.955   0.872 -1.2778 -0.2897  0.2555
  588MOL0     H79323   0.472   2.035   0.973 -0.0581  1.4335 -0.1604
  588MOL0     H79324   0.572   2.128   1.084  1.2512 -2.2930  1.3987
  588MOL0     H79325   0.636   2.284   0.887 -0.7588  2.6850  1.0549
  588MOL0     H79326   0.537   2.181   0.788  0.5856  0.8641 -0.0566
  588MOL0     H79327   0.411   2.321   1.028 -0.2838 -0.0132 -0.1124
  588MOL0     H79328   0.338   2.281   0.867 -1.1156  0.0092  0.8517
  588MOL0     H79329   0.565   2.501   0.908 -0.5386  2.7916  0.3290
  588MOL0     H79330   0.469   2.469   0.770  1.3133 -2.9127  0.1696
  588MOL0     H79331   0.186   2.474   0.846 -0.0895 -1.1917  1.5735
  588MOL0     H79332  -0.026   2.602   1.049 -2.5364  1.0800 -1.5457
  588MOL0     H79333   0.006   2.774   1.024 -2.8583  0.2734 -0.7328
  588MOL0     H79334   0.014   2.730   0.780  0.1170  2.7159  2.8047
  588MOL0     H79335  -0.034   2.557   0.811  1.2846 -0.7915  0.5950
  588MOL0     H79336  -0.202   2.717   0.741 -0.7548 -0.0460  0.1563
  588MOL0     H79337  -0.186   2.805   0.896 -5.9341  0.1187  0.6340
  588MOL0     H79338  -0.371   2.672   0.925 -1.6799  0.5046 -1.4779
  588MOL0     H79339  -0.244   2.570   1.011  0.0261  1.1568  1.1679
  588MOL0     H79340  -0.274   2.310   0.663  0.2710 -0.3269 -0.3270
  588MOL0     H79341  -0.393   2.082   0.699 -0.3162 -1.2630  2.8463
  588MOL0     H79342  -0.875   1.930   1.090 -2.4499  1.1817 -2.6274
  588MOL0     H79343  -0.966   1.693   1.101 -2.2940 -2.4879 -3.0491
  588MOL0     H79344  -1.146   1.534   1.023 -1.7250 -1.2995 -1.5003
  588MOL0     H79345  -1.163   1.651   0.897 -1.1041 -1.1104 -1.6783
  588MOL0     H79346  -1.253   1.516   0.745  0.7254  0.2046 -0.4073
  588MOL0     H79347  -1.169   1.365   0.804 -0.7828 -0.7328  0.6452
  588MOL0     H79348  -1.399   1.501   0.954 -1.5662 -2.2095  1.9380
  588MOL0     H79349  -1.420   1.359   0.832  2.4631 -2.1976 -0.5875
  588MOL0     H79350  -1.271   1.350   1.098  2.2359 -2.3032  0.5553
  588MOL0     H79351  -1.288   1.222   0.969 -1.2526  0.5417 -0.9380
  588MOL0     H79352  -1.445   1.164   1.136  0.2969  0.7396  1.8176
  588MOL0     H79353  -1.534   1.236   1.013  0.4657 -0.1655 -0.8567
  588MOL0     H79354  -1.458   1.382   1.262 -0.7794 -1.9235  0.5705
  588MOL0     H79355  -1.554   1.440   1.119  1.3019 -2.5014 -4.3814
  588MOL0     H79356  -1.631   1.230   1.335  2.5435  0.1621 -0.6638
  588MOL0     H79357  -1.691   1.219   1.167  0.3645  2.0022 -1.3685
  588MOL0     H79358  -1.779   1.478   1.226 -2.9169 -1.6633 -0.6617
  588MOL0     H79359  -1.856   1.355   1.325  0.5621 -0.0543  2.3191
  588MOL0     H79360  -0.839   1.649   0.696  0.7433  3.8844 -1.2719
  588MOL0     H79361  -0.764   1.867   0.679 -1.9936  1.5833 -0.3883
  588MOL0     H79362  -0.617   2.262   1.015 -1.0287  0.9429 -1.3316
  588MOL0     H79363  -0.478   2.448   1.017  0.6838  0.1640 -0.3644
  588MOL0     H79364   1.102   1.991   1.280 -1.7303  2.9238 -1.8430
  588MOL0     H79365   1.295   2.125   1.232  1.9092 -0.1432 -0.9873
  588MOL0     H79366   1.682   2.273   1.285 -0.6384  0.8146  1.0510
  588MOL0     H79367   1.931   2.255   1.302 -2.1301 -0.0422 -0.0504
  588MOL0     H79368   2.130   2.323   1.255  0.8877  3.8043 -0.2882
  588MOL0     H79369   2.142   2.372   1.086  1.0319 -2.1025 -1.1069
  588MOL0     H79370   2.350   2.248   1.068 -2.2768  1.2329 -1.5497
  588MOL0     H79371   2.349   2.174   1.218 -1.1532  0.2019  0.6418
  588MOL0     H79372   2.331   2.363   1.365 -0.8432  0.6420  0.4999
  588MOL0     H79373   2.306   2.482   1.252  1.1246  1.0046  1.7525
  588MOL0     H79374   2.541   2.466   1.173  1.5235  2.2151  0.2466
  588MOL0     H79375   2.527   2.495   1.335  0.1438  0.9187 -1.8110
  588MOL0     H79376   2.690   2.098   1.364  1.8661  0.6741 -0.7412
  588MOL0     H79377   1.935   2.117   0.897 -3.1676 -0.7376 -1.1075
  588MOL0     H79378   1.655   2.018   0.847  0.1675 -0.1761  0.8714
  588MOL0     H79379   1.634   2.195   0.808  1.8292  0.8735 -2.2805
  588MOL0     H79380   1.777   2.127   0.760 -0.7988  2.7217  0.2007
  589MOL0     O79381   2.829   3.794  10.313 -0.7802  0.0640 -0.4914
  589MOL0     C79382   2.903   3.883  10.276 -0.5847  0.6155  0.0639
  589MOL0     O79383   2.863   4.015  10.246  0.3907  0.8682  0.2262
  589MOL0     C79384   2.729   4.043  10.239  0.1402  0.4879 -0.5484
  589MOL0     C79385   2.630   3.954  10.190  0.3726 -0.7299  0.3884
  589MOL0     C79386   2.494   3.986  10.206  0.2854  0.0735 -0.0703
  589MOL0     C79387   2.447   4.100  10.264 -0.3153  0.3663 -0.9140
  589MOL0     O79388   2.312   4.104  10.290 -0.3969 -0.5711 -0.6831
  589MOL0     C79389   2.282   4.018  10.393  0.1483  0.1763  0.5133
  589MOL0     C79390   2.138   4.048  10.424  0.1624  0.0842  0.2875
  589MOL0     C79391   2.043   4.005  10.314  0.5841  0.2594  0.2279
  589MOL0     C79392   1.963   3.887  10.353 -0.2117 -1.2211  0.8101
  589MOL0     C79393   1.891   3.826  10.225 -0.0998 -0.0879  0.2726
  589MOL0     C79394   1.785   3.918  10.160 -0.1098 -0.5998 -0.5459
  589MOL0     C79395   1.656   3.906  10.243  0.0874  0.2699 -0.5956
  589MOL0     C79396   1.546   3.984  10.184 -0.1940  0.4009 -0.3530
  589MOL0     N79397   1.501   3.919  10.052  0.4532 -0.3046  0.3176
  589MOL0     C79398   1.516   3.994   9.934 -0.6108  0.5126  1.3956
  589MOL0     C79399   1.451   3.912   9.845 -0.0653 -0.2763 -0.4132
  589MOL0     C79400   1.446   3.940   9.701  0.0616 -0.4356  1.0066
  589MOL0     C79401   1.504   3.833   9.608  0.1273  0.2930  0.0097
  589MOL0     C79402   1.414   3.717   9.564 -0.2038 -0.6818 -0.6242
  589MOL0     C79403   1.309   3.767   9.460  1.2314  0.8794  0.4230
  589MOL0     O79404   1.292   3.666   9.357  0.4081 -0.3466 -0.4419
  589MOL0     C79405   1.404   3.635   9.281  0.3867  0.1700  0.0347
  589MOL0     C79406   1.412   3.507   9.226 -0.1750 -0.3144  0.4728
  589MOL0     C79407   1.519   3.469   9.134 -0.0146  0.1999  1.0964
  589MOL0     C79408   1.615   3.569   9.105  0.3300 -0.4511  0.2986
  589MOL0     C79409   1.725   3.548   9.003 -0.4228 -0.3996 -0.3465
  589MOL0     O79410   1.836   3.629   9.008 -0.5489  0.3603 -0.0452
  589MOL0     C79411   1.961   3.599   8.946  0.5396 -0.0512  0.3363
  589MOL0     C79412   2.040   3.706   8.910  0.1100  0.6029 -0.2870
  589MOL0     C79413   2.169   3.686   8.858 -0.7075  0.0086  0.1170
  589MOL0     C79414   2.222   3.558   8.825  0.9255 -0.3041  0.0941
  589MOL0     O79415   2.354   3.537   8.782 -0.7550  0.1920  0.1871
  589MOL0     C79416   2.419   3.660   8.752 -1.1528 -0.7112 -0.0220
  589MOL0     C79417   2.540   3.626   8.657  0.1206  0.3363  0.3330
  589MOL0     C79418   2.631   3.750   8.649  0.7471 -0.2764  0.6246
  589MOL0     C79419   2.773   3.715   8.605 -0.3490 -0.1416  0.2708
  589MOL0     C79420   2.853   3.839   8.585 -0.3110  0.1157 -0.2482
  589MOL0     C79421   2.974   3.823   8.495  0.8738  0.1455  0.5514
  589MOL0     C79422   3.081   3.725   8.545 -0.1737  0.1012  0.3273
  589MOL0     C79423   3.193   3.707   8.443  0.2087 -0.2780 -0.0086
  589MOL0    Cl79424   3.140   3.591   8.308  0.6735 -0.0255 -0.0696
  589MOL0     C79425   2.136   3.453   8.854 -1.0251  0.7906  0.6448
  589MOL0     C79426   2.014   3.468   8.919  0.5619 -0.2934 -0.8318
  589MOL0     O79427   1.711   3.449   8.934 -0.6153 -0.2050 -0.4622
  589MOL0     C79428   1.612   3.698   9.162  0.2417 -0.0864 -0.4619
  589MOL0     C79429   1.509   3.725   9.252 -0.5582  0.0924 -0.4488
  589MOL0     N79430   1.388   3.803   9.905 -0.0811 -0.0090 -0.5569
  589MOL0     N79431   1.418   3.812  10.037  0.6172  0.0217 -0.2948
  589MOL0     C79432   2.547   4.197  10.292  0.2111  0.4692 -0.9424
  589MOL0     C79433   2.690   4.171  10.285  0.0894  0.6163 -0.5211
  589MOL0     C79434   3.039   3.867  10.248  0.1285 -1.2831  0.3408
  589MOL0     C79435   3.114   3.966  10.182 -0.0593  0.3478 -0.6579
  589MOL0     C79436   3.249   3.941  10.164  0.2101  0.0815  0.1392
  589MOL0     C79437   3.313   3.829  10.197  0.2347 -0.2215  0.9543
  589MOL0     O79438   3.448   3.786  10.186 -0.2005  0.5056  0.3883
  589MOL0     C79439   3.512   3.830  10.065 -0.5283 -1.1337 -0.3950
  589MOL0     C79440   3.590   3.717  10.014 -0.0425 -0.1853 -0.2897
  589MOL0     C79441   3.503   3.603   9.946  0.3083 -0.3954 -0.3717
  589MOL0     C79442   3.605   3.503   9.887 -1.3205  0.4823 -0.1093
  589MOL0     C79443   3.544   3.366   9.872 -1.1600  0.0324  0.6676
  589MOL0     C79444   3.504   3.250   9.862  0.3111 -0.4662 -0.3352
  589MOL0     C79445   3.241   3.735  10.250 -0.2197  0.9876  0.7238
  589MOL0     C79446   3.105   3.748  10.277  0.2667  0.7146  0.5775
  589MOL0     C79447   3.050   3.618  10.341  0.8992  0.6481 -0.7617
  589MOL0     H79448   2.660   3.858  10.150  1.5162 -1.0625  1.9574
  589MOL0     H79449   2.423   3.909  10.179 -0.3856 -0.0348  1.8816
  589MOL0     H79450   2.311   3.913  10.383 -2.1571 -0.3659 -1.3147
  589MOL0     H79451   2.333   4.064  10.478 -0.7647 -0.9630  1.7138
  589MOL0     H79452   2.129   4.157  10.430 -0.4054  0.1449 -1.1529
  589MOL0     H79453   2.108   4.011  10.522  1.4676  0.6775  0.9338
  589MOL0     H79454   2.097   3.980  10.222  1.7224  0.6212  0.7655
  589MOL0     H79455   1.976   4.087  10.288 -0.1206 -0.8119 -1.4501
  589MOL0     H79456   2.034   3.811  10.385  0.3861 -2.3727 -2.7970
  589MOL0     H79457   1.893   3.914  10.433  1.7989  3.7174  1.2436
  589MOL0     H79458   1.966   3.796  10.150 -0.7700 -1.6436  0.1945
  589MOL0     H79459   1.840   3.733  10.250 -1.8878  0.4496 -1.1162
  589MOL0     H79460   1.807   4.025  10.151  0.2922 -0.6290  0.0338
  589MOL0     H79461   1.777   3.887  10.055  0.3933  3.2014 -1.8692
  589MOL0     H79462   1.664   3.936  10.348  0.6841 -0.5868 -0.3864
  589MOL0     H79463   1.622   3.802  10.251 -0.2090  0.0128 -3.8121
  589MOL0     H79464   1.470   3.970  10.263 -0.2898 -0.2794 -0.5530
  589MOL0     H79465   1.580   4.087  10.174 -1.0966  0.9642  1.7352
  589MOL0     H79466   1.570   4.080   9.894  1.8248 -1.6075 -0.2653
  589MOL0     H79467   1.346   3.965   9.664  1.0272  0.2680 -1.3261
  589MOL0     H79468   1.507   4.029   9.683  1.3500 -1.0144  2.3122
  589MOL0     H79469   1.551   3.889   9.526 -0.4438  3.1603  1.5126
  589MOL0     H79470   1.572   3.770   9.666 -0.6043 -1.7040 -1.2143
  589MOL0     H79471   1.363   3.678   9.652  1.0638 -0.2628  0.3260
  589MOL0     H79472   1.484   3.639   9.531  1.2007  0.5045 -0.5661
  589MOL0     H79473   1.342   3.858   9.408 -0.8216  2.3645  1.5568
  589MOL0     H79474   1.216   3.792   9.511 -0.3119 -2.4801 -0.4976
  589MOL0     H79475   1.327   3.444   9.249 -0.9832  0.8714  0.7716
  589MOL0     H79476   1.511   3.377   9.076  1.7398 -0.3662  1.6699
  589MOL0     H79477   2.006   3.809   8.913 -3.5178 -0.4424 -0.4547
  589MOL0     H79478   2.215   3.783   8.839  0.2328 -0.4540 -0.0273
  589MOL0     H79479   2.347   3.722   8.698 -1.3574 -2.2222 -1.5690
  589MOL0     H79480   2.447   3.695   8.852  1.0011 -0.0728 -0.7973
  589MOL0     H79481   2.589   3.539   8.701 -2.2459 -1.2782 -0.0728
  589MOL0     H79482   2.513   3.614   8.551  1.3620  0.9808 -0.0814
  589MOL0     H79483   2.595   3.839   8.596  0.9008 -0.5278  0.0947
  589MOL0     H79484   2.632   3.780   8.754 -1.5633 -0.9308  0.8906
  589MOL0     H79485   2.760   3.671   8.506  1.4039  1.9341 -0.9776
  589MOL0     H79486   2.821   3.645   8.674  1.7764  1.1701  0.2288
  589MOL0     H79487   2.881   3.870   8.686  2.7611 -2.0265 -0.2950
  589MOL0     H79488   2.795   3.915   8.533 -1.5939  0.4342  1.5537
  589MOL0     H79489   2.942   3.786   8.397 -0.0276 -1.5991  1.4731
  589MOL0     H79490   3.032   3.915   8.484  1.0714 -0.2472 -3.0785
  589MOL0     H79491   3.043   3.624   8.561  2.9474 -1.1420  0.6722
  589MOL0     H79492   3.121   3.757   8.642 -3.1695 -1.4979  2.2332
  589MOL0     H79493   3.209   3.803   8.394 -0.7384 -0.3906 -0.5563
  589MOL0     H79494   3.288   3.679   8.490  2.7834  1.5888 -3.7013
  589MOL0     H79495   2.177   3.354   8.835 -0.9262  0.7730  0.9352
  589MOL0     H79496   1.969   3.373   8.946  0.8321  0.4976  2.9881
  589MOL0     H79497   1.681   3.774   9.128 -1.8369  1.6755 -0.9851
  589MOL0     H79498   1.514   3.830   9.276  0.7128  0.0350 -0.3928
  589MOL0     H79499   2.512   4.294  10.329  0.4912  0.9049 -1.7964
  589MOL0     H79500   2.763   4.244  10.318 -1.8094  0.6208  4.5332
  589MOL0     H79501   3.085   4.056  10.128 -1.1752 -2.2244 -4.8700
  589MOL0     H79502   3.319   4.015  10.126 -0.4678 -1.0940 -3.8825
  589MOL0     H79503   3.577   3.913  10.096  0.5952 -2.0140 -0.3292
  589MOL0     H79504   3.447   3.862   9.984 -4.8479  0.7982  3.3984
  589MOL0     H79505   3.642   3.659  10.090  0.5609  0.8384  0.0971
  589MOL0     H79506   3.665   3.765   9.950 -0.1542  0.4828  0.0661
  589MOL0     H79507   3.439   3.649   9.871  2.4254  2.2790 -0.7055
  589MOL0     H79508   3.434   3.552  10.013  0.2118 -0.8290 -0.8020
  589MOL0     H79509   3.664   3.539   9.802  3.0831 -0.4747  2.2110
  589MOL0     H79510   3.690   3.475   9.950  0.3366  1.8323 -1.6457
  589MOL0     H79511   3.471   3.152   9.835 -0.5979  0.4143 -2.6313
  589MOL0     H79512   3.290   3.639  10.269 -4.3383 -1.7733 -1.2050
  589MOL0     H79513   3.123   3.537  10.333  0.1940 -0.6767  3.5174
  589MOL0     H79514   3.036   3.646  10.446  0.6931  1.1329 -0.9193
  589MOL0     H79515   2.952   3.583  10.305  0.2540 -0.2552  1.6823
  590MOL0     O79516   1.219   8.411   6.309  0.1330 -0.2484 -0.3593
  590MOL0     C79517   1.259   8.324   6.389  0.1308 -0.3118 -0.1678
  590MOL0     O79518   1.357   8.235   6.368  1.0509 -0.2207 -0.0117
  590MOL0     C79519   1.425   8.259   6.253  0.2183  0.1817  0.1262
  590MOL0     C79520   1.411   8.162   6.150 -0.1790  0.1502 -0.9265
  590MOL0     C79521   1.475   8.193   6.027 -1.4909  0.8652 -0.1369
  590MOL0     C79522   1.571   8.305   6.018 -0.2176 -0.2278  0.6062
  590MOL0     O79523   1.646   8.326   5.905  0.4458  0.1574  0.7109
  590MOL0     C79524   1.662   8.462   5.863 -0.6240 -1.0426 -0.6797
  590MOL0     C79525   1.732   8.471   5.719 -0.6135 -0.5360  0.1332
  590MOL0     C79526   1.875   8.411   5.729  0.0139  0.8391  0.7190
  590MOL0     C79527   1.959   8.457   5.608  0.3053 -0.0916  0.8551
  590MOL0     C79528   2.111   8.435   5.632  0.0158  0.4290 -1.1192
  590MOL0     C79529   2.192   8.477   5.508  0.5635 -0.8931 -0.2201
  590MOL0     C79530   2.340   8.447   5.523 -0.0171 -0.1854 -0.7612
  590MOL0     C79531   2.421   8.552   5.614  0.0619  0.6026  0.2030
  590MOL0     N79532   2.567   8.538   5.605  0.1541 -0.9657  0.2429
  590MOL0     C79533   2.652   8.554   5.714 -0.5154 -0.9151 -0.2032
  590MOL0     C79534   2.777   8.520   5.669  0.5187  0.4413 -0.0945
  590MOL0     C79535   2.906   8.509   5.753 -0.6355 -0.7904 -0.7472
  590MOL0     C79536   2.980   8.641   5.739 -0.3659  0.1423  0.5422
  590MOL0     C79537   3.039   8.683   5.603 -0.5599 -0.7464  0.6291
  590MOL0     C79538   3.103   8.572   5.513 -0.1504 -1.1719  0.6237
  590MOL0     O79539   3.206   8.505   5.588  0.1252 -0.5073 -0.1911
  590MOL0     C79540   3.238   8.373   5.557 -0.4175 -1.2539 -0.2878
  590MOL0     C79541   3.207   8.304   5.439 -0.0485  0.2855  0.8658
  590MOL0     C79542   3.275   8.185   5.393  0.8933  0.0851 -0.0272
  590MOL0     C79543   3.358   8.129   5.485  0.4732 -0.5455  0.1298
  590MOL0     C79544   3.436   8.006   5.436  0.1149 -0.7283 -0.3527
  590MOL0     O79545   3.419   7.957   5.309 -0.1931  0.5337 -0.0376
  590MOL0     C79546   3.467   7.829   5.278  0.4259 -0.2084 -0.4992
  590MOL0     C79547   3.431   7.719   5.356 -0.5326 -0.3878  0.6824
  590MOL0     C79548   3.466   7.597   5.308 -0.6777 -0.8681 -0.0026
  590MOL0     C79549   3.537   7.579   5.193  0.0076 -0.6358 -1.3668
  590MOL0     O79550   3.551   7.463   5.130 -1.0121 -0.4071  0.5587
  590MOL0     C79551   3.481   7.347   5.167  0.6424  0.6953 -0.0103
  590MOL0     C79552   3.460   7.243   5.055  0.1345 -0.4108  0.6565
  590MOL0     C79553   3.374   7.132   5.088  0.7090  0.0520 -0.5168
  590MOL0     C79554   3.403   7.006   5.001 -0.3317 -0.2191  1.1370
  590MOL0     C79555   3.314   6.891   5.057 -0.1928  0.2794 -0.7960
  590MOL0     C79556   3.308   6.775   4.954 -0.0760  0.2217 -0.1765
  590MOL0     C79557   3.194   6.790   4.848 -0.0295 -0.7572  1.0679
  590MOL0     C79558   3.146   6.656   4.803  0.5222  0.3767 -0.0465
  590MOL0    Cl79559   3.102   6.565   4.957 -0.1090  0.5868  0.2231
  590MOL0     C79560   3.585   7.692   5.119 -0.3515 -0.1966  0.5822
  590MOL0     C79561   3.546   7.817   5.167 -1.1395  0.5140  0.3027
  590MOL0     O79562   3.511   7.961   5.524  0.2842  0.5659  0.4752
  590MOL0     C79563   3.376   8.184   5.612  1.5684  0.3396  0.9793
  590MOL0     C79564   3.315   8.299   5.650 -0.5054  0.4013 -0.5956
  590MOL0     N79565   2.770   8.488   5.533  0.3774 -0.8651 -0.1057
  590MOL0     N79566   2.645   8.499   5.494  0.4362  0.5070  0.1140
  590MOL0     C79567   1.593   8.390   6.137  0.1949  0.2668  0.7624
  590MOL0     C79568   1.523   8.369   6.249  0.5878  0.1756 -0.3238
  590MOL0     C79569   1.207   8.320   6.533  0.1634  0.0883 -0.0644
  590MOL0     C79570   1.234   8.215   6.620  0.4530  0.2466  0.3367
  590MOL0     C79571   1.202   8.215   6.760  0.9680 -0.1163 -0.7244
  590MOL0     C79572   1.116   8.309   6.799 -0.3790  1.6820  0.0380
  590MOL0     O79573   1.039   8.316   6.913  0.5460 -0.0869 -0.6220
  590MOL0     C79574   1.081   8.240   7.030 -0.2192 -0.2329  0.1310
  590MOL0     C79575   1.194   8.305   7.099 -0.6779 -0.6061 -0.2949
  590MOL0     C79576   1.268   8.223   7.202 -0.3944 -1.0718 -0.1398
  590MOL0     C79577   1.383   8.141   7.164 -1.0184 -0.5308  0.7016
  590MOL0     C79578   1.411   8.032   7.252 -0.1034 -0.2363  0.8855
  590MOL0     C79579   1.429   7.948   7.335  1.2300 -0.1044 -0.1809
  590MOL0     C79580   1.082   8.411   6.715 -0.0034  0.3692  0.0224
  590MOL0     C79581   1.126   8.418   6.587  0.5294 -0.2251 -1.0891
  590MOL0     C79582   1.087   8.527   6.505 -0.2820 -0.7941  0.1429
  590MOL0     H79583   1.347   8.074   6.159  0.7291 -0.3072  2.3994
  590MOL0     H79584   1.450   8.132   5.940  1.3573  1.2814 -1.3559
  590MOL0     H79585   1.567   8.516   5.857  0.1923  1.1873  3.0384
  590MOL0     H79586   1.727   8.519   5.930 -3.4948  1.8966 -0.1462
  590MOL0     H79587   1.743   8.578   5.698  2.1144 -0.4552  1.4446
  590MOL0     H79588   1.670   8.434   5.637 -1.9662 -0.6535  1.1829
  590MOL0     H79589   1.865   8.302   5.731  2.7495  0.4543 -1.0757
  590MOL0     H79590   1.928   8.446   5.818 -0.6439  1.6248  0.8115
  590MOL0     H79591   1.935   8.416   5.510 -0.9193  0.0689  1.0633
  590MOL0     H79592   1.938   8.562   5.585 -1.1818 -0.7758 -1.1600
  590MOL0     H79593   2.141   8.500   5.715 -3.1903  0.5043  0.1290
  590MOL0     H79594   2.133   8.331   5.657 -0.6717  0.6193  0.4348
  590MOL0     H79595   2.160   8.430   5.414 -0.7753 -0.5563  0.0509
  590MOL0     H79596   2.177   8.581   5.479  1.5628 -0.5088  0.6225
  590MOL0     H79597   2.370   8.459   5.419  0.7634  3.2053 -0.2729
  590MOL0     H79598   2.353   8.346   5.561 -1.4694  1.0224  3.6271
  590MOL0     H79599   2.386   8.649   5.580 -1.4627 -0.1521 -0.4741
  590MOL0     H79600   2.377   8.555   5.714 -1.3071  4.7257 -0.3550
  590MOL0     H79601   2.634   8.586   5.816  1.1144 -3.6577  1.0884
  590MOL0     H79602   2.875   8.481   5.854  1.4161  0.0841  0.1775
  590MOL0     H79603   2.975   8.430   5.721  1.5905  1.5446 -2.0971
  590MOL0     H79604   2.908   8.716   5.774 -0.6232 -0.5428  1.5012
  590MOL0     H79605   3.065   8.644   5.808  1.2502  1.0870 -1.3627
  590MOL0     H79606   3.114   8.759   5.627 -0.4651  1.4207 -4.9231
  590MOL0     H79607   2.967   8.742   5.545 -0.3813  0.8521  1.9636
  590MOL0     H79608   3.148   8.619   5.426  0.4324  3.4864  3.1063
  590MOL0     H79609   3.032   8.500   5.470  1.3551  0.6892 -6.1853
  590MOL0     H79610   3.144   8.343   5.359  2.2741  1.6326 -0.4161
  590MOL0     H79611   3.245   8.141   5.298 -0.4616 -1.3343  1.0061
  590MOL0     H79612   3.370   7.724   5.446 -0.6741  0.4523  0.5470
  590MOL0     H79613   3.419   7.512   5.357 -2.4627 -1.6063 -2.8094
  590MOL0     H79614   3.540   7.297   5.245 -1.7940 -3.1510 -0.3662
  590MOL0     H79615   3.384   7.365   5.216  2.0081  0.4686  3.0078
  590MOL0     H79616   3.409   7.298   4.975  1.3967  0.1892  0.2307
  590MOL0     H79617   3.550   7.204   5.008 -1.0768 -0.1745 -2.0657
  590MOL0     H79618   3.390   7.105   5.193  1.7127 -0.7636 -0.8712
  590MOL0     H79619   3.269   7.163   5.087 -0.1173 -2.4074  1.3802
  590MOL0     H79620   3.505   6.975   5.026 -0.1700 -0.7184 -0.0791
  590MOL0     H79621   3.387   7.023   4.894 -1.4711 -3.5797  0.6335
  590MOL0     H79622   3.210   6.921   5.074 -0.3394 -0.5184 -0.1710
  590MOL0     H79623   3.350   6.857   5.155 -1.2092 -0.2986 -0.5952
  590MOL0     H79624   3.406   6.752   4.912 -1.2453  1.5760 -4.0708
  590MOL0     H79625   3.293   6.686   5.016 -0.7754 -0.9151 -1.9027
  590MOL0     H79626   3.243   6.851   4.772 -1.0528 -0.0801  0.9378
  590MOL0     H79627   3.110   6.851   4.882 -0.7360 -0.2156 -1.4595
  590MOL0     H79628   3.064   6.654   4.731 -1.6427  0.1757  2.2990
  590MOL0     H79629   3.225   6.610   4.743 -1.1875 -0.7132 -1.5690
  590MOL0     H79630   3.653   7.688   5.034  1.2738 -1.0490  1.8661
  590MOL0     H79631   3.576   7.901   5.106 -2.0199  1.8916  1.6858
  590MOL0     H79632   3.431   8.140   5.694 -1.6586 -2.2903  1.9801
  590MOL0     H79633   3.310   8.338   5.751 -2.8531  0.5667 -0.7323
  590MOL0     H79634   1.668   8.469   6.139  2.0813 -1.4553  0.8115
  590MOL0     H79635   1.538   8.431   6.337 -0.6965  3.7293 -2.3806
  590MOL0     H79636   1.294   8.137   6.575 -2.1594 -1.8356  0.2772
  590MOL0     H79637   1.223   8.128   6.822  1.1448  0.8227  0.5739
  590MOL0     H79638   1.109   8.140   6.996 -0.5290  0.8253 -3.6819
  590MOL0     H79639   1.004   8.229   7.107 -0.7421  2.1164  0.0236
  590MOL0     H79640   1.135   8.376   7.157 -2.0836 -2.4546  0.6297
  590MOL0     H79641   1.257   8.352   7.023 -1.2377 -0.3420 -0.6035
  590MOL0     H79642   1.195   8.156   7.248 -1.2656 -0.5293 -0.6973
  590MOL0     H79643   1.319   8.292   7.270  3.8403 -0.0590 -3.9018
  590MOL0     H79644   1.357   8.101   7.066 -0.7428  1.2310 -0.1189
  590MOL0     H79645   1.474   8.199   7.150  0.3633 -2.5585  0.8935
  590MOL0     H79646   1.457   7.876   7.410  3.1995  2.2504  1.5388
  590MOL0     H79647   1.024   8.496   6.748 -0.5755  0.7482 -1.8774
  590MOL0     H79648   1.039   8.611   6.557  0.3846  0.6602 -1.4895
  590MOL0     H79649   1.158   8.582   6.443 -1.5957 -1.3456 -1.9630
  590MOL0     H79650   1.007   8.491   6.440  0.3223 -1.7367 -0.0961
  591MOL0     O79651   1.768   5.229  10.727 -0.1178 -0.0700 -0.5158
  591MOL0     C79652   1.799   5.212  10.844 -0.6642  0.4970  0.4391
  591MOL0     O79653   1.715   5.189  10.949 -0.7177 -0.7203  0.0581
  591MOL0     C79654   1.580   5.185  10.929 -0.1879  1.0090 -0.5293
  591MOL0     C79655   1.500   5.279  11.000 -0.0418  0.3650  0.4344
  591MOL0     C79656   1.366   5.284  10.976 -0.7932  0.5820  0.1627
  591MOL0     C79657   1.300   5.215  10.878 -0.3870  0.6647 -0.4699
  591MOL0     O79658   1.165   5.223  10.857  0.2974  1.0039  0.3406
  591MOL0     C79659   1.081   5.183  10.965 -0.4786 -0.0273 -0.6162
  591MOL0     C79660   0.942   5.131  10.915 -1.0401 -0.8191  0.4644
  591MOL0     C79661   0.846   5.102  11.026 -0.0682 -0.2508 -0.3502
  591MOL0     C79662   0.735   5.007  10.972 -0.7740  0.4302 -1.4083
  591MOL0     C79663   0.633   4.989  11.087 -0.2999  0.2916 -0.7367
  591MOL0     C79664   0.547   5.117  11.100 -0.1871  0.1460  0.1048
  591MOL0     C79665   0.443   5.096  11.204 -0.8516 -0.5292 -0.9140
  591MOL0     C79666   0.485   5.062  11.348 -0.8730 -0.5664 -1.1825
  591MOL0     N79667   0.583   5.151  11.414  0.7514  0.0816 -0.2655
  591MOL0     C79668   0.722   5.147  11.392  0.1774 -0.0360  0.0446
  591MOL0     C79669   0.772   5.250  11.475  0.0689 -0.5030 -1.0837
  591MOL0     C79670   0.910   5.274  11.487  0.6614 -0.5126  0.1444
  591MOL0     C79671   0.932   5.418  11.434  0.1823  0.3932 -0.2211
  591MOL0     C79672   1.080   5.459  11.419  0.5635  0.0801  0.9632
  591MOL0     C79673   1.161   5.370  11.317  0.1940 -0.9483 -0.4377
  591MOL0     O79674   1.274   5.440  11.276 -0.8718  0.9523 -0.0458
  591MOL0     C79675   1.393   5.459  11.354 -0.0016 -0.2280 -0.2865
  591MOL0     C79676   1.465   5.578  11.334 -0.0826 -0.1152  0.2523
  591MOL0     C79677   1.589   5.597  11.392 -0.1666  0.3468 -0.7128
  591MOL0     C79678   1.631   5.512  11.492  0.4658  0.2099  0.7624
  591MOL0     C79679   1.753   5.541  11.559  0.1193  0.8209 -0.3238
  591MOL0     O79680   1.819   5.647  11.504  0.7679 -0.0138 -0.0169
  591MOL0     C79681   1.927   5.703  11.567 -0.7498 -0.1053  0.5019
  591MOL0     C79682   2.037   5.726  11.494 -0.4241 -0.7279 -0.0886
  591MOL0     C79683   2.146   5.780  11.552 -0.7238 -0.5849  0.5150
  591MOL0     C79684   2.129   5.840  11.681 -0.0913  0.6117 -0.3285
  591MOL0     O79685   2.231   5.923  11.730 -1.0380 -0.2682  0.0028
  591MOL0     C79686   2.324   5.837  11.797  0.4764 -0.7997  0.1466
  591MOL0     C79687   2.283   5.775  11.928  0.6748 -0.3290  0.7025
  591MOL0     C79688   2.390   5.682  11.979 -0.4209  0.2514  0.1336
  591MOL0     C79689   2.513   5.744  12.032  0.6896  0.2078  0.1932
  591MOL0     C79690   2.617   5.648  12.118  0.3057  0.5668  0.4094
  591MOL0     C79691   2.720   5.730  12.185  0.3709 -0.4232 -0.1320
  591MOL0     C79692   2.781   5.661  12.306  0.4121  1.0401 -0.7036
  591MOL0     C79693   2.868   5.764  12.389 -0.6992  0.7272 -0.5180
  591MOL0    Cl79694   2.995   5.809  12.265 -0.1807  0.0057 -0.2682
  591MOL0     C79695   2.009   5.830  11.744 -0.8014  0.1097  0.1427
  591MOL0     C79696   1.909   5.755  11.689  0.5678 -0.9708 -1.0346
  591MOL0     O79697   1.774   5.488  11.673  0.0661  0.1011 -1.0359
  591MOL0     C79698   1.555   5.398  11.518 -0.4290  0.1432  0.8344
  591MOL0     C79699   1.440   5.372  11.445 -0.3182 -1.0246 -1.0253
  591MOL0     N79700   0.659   5.317  11.535  0.0774 -0.2866  0.1728
  591MOL0     N79701   0.551   5.261  11.493 -0.6619 -0.1720 -0.7181
  591MOL0     C79702   1.378   5.133  10.801 -0.3682  0.3048  0.5304
  591MOL0     C79703   1.517   5.121  10.811  0.4000 -0.2899 -0.4128
  591MOL0     C79704   1.941   5.178  10.872 -0.1351 -0.1667 -0.8137
  591MOL0     C79705   1.973   5.146  11.006  0.2112  0.3438  1.2497
  591MOL0     C79706   2.095   5.133  11.064 -0.0789 -0.0315 -0.7171
  591MOL0     C79707   2.198   5.169  10.981  0.2275 -0.1201  0.2981
  591MOL0     O79708   2.329   5.164  11.028 -0.6578 -0.4583  0.4799
  591MOL0     C79709   2.359   5.272  11.115  0.5917 -0.2166 -0.4089
  591MOL0     C79710   2.514   5.288  11.135 -0.2371  0.4074  0.2347
  591MOL0     C79711   2.582   5.310  10.997 -1.2260  0.3181  0.2678
  591MOL0     C79712   2.729   5.332  11.022 -0.4890  0.0820 -0.3293
  591MOL0     C79713   2.811   5.310  10.903 -0.8661 -0.1046  0.6388
  591MOL0     C79714   2.886   5.282  10.808  0.0172 -0.2626  0.0341
  591MOL0     C79715   2.180   5.211  10.848 -0.3863 -0.1048 -0.1102
  591MOL0     C79716   2.055   5.205  10.787  0.6015 -0.3039 -0.3258
  591MOL0     C79717   2.035   5.237  10.646  0.0371  0.0522  0.5669
  591MOL0     H79718   1.537   5.347  11.076 -0.9194  0.9374  0.3512
  591MOL0     H79719   1.301   5.345  11.039 -2.7168  3.2895 -4.0259
  591MOL0     H79720   1.125   5.112  11.035 -0.0984  2.8044  2.1972
  591MOL0     H79721   1.068   5.262  11.039  2.2058  0.0051 -0.0748
  591MOL0     H79722   0.968   5.032  10.876 -1.0715 -0.2744 -0.9588
  591MOL0     H79723   0.904   5.195  10.835  2.1104  1.5148  0.6552
  591MOL0     H79724   0.799   5.193  11.063  0.0845 -1.1676  2.2779
  591MOL0     H79725   0.897   5.048  11.107 -1.2268 -3.1083 -1.4041
  591MOL0     H79726   0.687   5.047  10.882  2.1950  3.2070 -1.9303
  591MOL0     H79727   0.779   4.910  10.947  1.1609  0.1484  2.2764
  591MOL0     H79728   0.573   4.898  11.072  1.9312 -1.5063  0.5301
  591MOL0     H79729   0.689   4.975  11.180  0.6159 -0.7742 -1.4270
  591MOL0     H79730   0.612   5.200  11.131 -0.8184 -0.1575  2.4803
  591MOL0     H79731   0.512   5.132  10.998  0.3785  0.4750 -0.0489
  591MOL0     H79732   0.382   5.014  11.165  0.2749 -1.0127 -1.7058
  591MOL0     H79733   0.381   5.186  11.207  0.5576  0.4658 -0.2285
  591MOL0     H79734   0.397   5.067  11.412  0.5237  1.2829  0.6800
  591MOL0     H79735   0.532   4.964  11.355  0.1881 -0.0335 -0.7872
  591MOL0     H79736   0.781   5.071  11.341  0.1986 -0.9215  1.3373
  591MOL0     H79737   0.932   5.252  11.592 -0.4138 -1.8446  0.1194
  591MOL0     H79738   0.962   5.187  11.446 -0.2663 -1.1163  0.1928
  591MOL0     H79739   0.890   5.437  11.335 -0.1858  5.4113  0.6488
  591MOL0     H79740   0.886   5.497  11.494  2.6163  1.0684  0.8997
  591MOL0     H79741   1.129   5.453  11.518  0.5573 -1.1582  0.9180
  591MOL0     H79742   1.076   5.567  11.406  2.1676  0.3128  2.1303
  591MOL0     H79743   1.096   5.369  11.229  0.3342  1.5101 -0.6428
  591MOL0     H79744   1.183   5.270  11.353  2.4589 -0.8230 -1.3014
  591MOL0     H79745   1.437   5.667  11.279  0.8768  0.6056  0.8870
  591MOL0     H79746   1.644   5.684  11.360 -0.3492  0.3511 -1.0210
  591MOL0     H79747   2.042   5.699  11.389  0.8437  0.4146 -0.3612
  591MOL0     H79748   2.242   5.800  11.505 -0.8084  0.5264  0.7831
  591MOL0     H79749   2.364   5.756  11.735  2.0386 -1.0259  1.3779
  591MOL0     H79750   2.417   5.894  11.811 -0.1721 -0.1640  2.3142
  591MOL0     H79751   2.260   5.856  11.998  2.0408  0.0137  0.7759
  591MOL0     H79752   2.186   5.726  11.911 -0.1913  2.1355 -2.4607
  591MOL0     H79753   2.345   5.614  12.051  2.0199  1.2546  2.7923
  591MOL0     H79754   2.415   5.616  11.895  0.5158  0.3106  0.3472
  591MOL0     H79755   2.474   5.826  12.093 -0.4755 -1.9910  2.5979
  591MOL0     H79756   2.572   5.773  11.944  1.2726 -0.8582  0.2188
  591MOL0     H79757   2.669   5.571  12.060  1.0022 -0.5398  2.3838
  591MOL0     H79758   2.569   5.579  12.188  1.9720 -1.4948 -0.3517
  591MOL0     H79759   2.790   5.757  12.105 -0.6907 -0.9146 -1.2623
  591MOL0     H79760   2.667   5.813  12.231 -1.2976 -0.9403 -1.0473
  591MOL0     H79761   2.841   5.573  12.281 -0.5351  0.4398 -0.9018
  591MOL0     H79762   2.704   5.614  12.367  0.8013 -1.2574 -1.8688
  591MOL0     H79763   2.814   5.848  12.434 -0.9610  1.2537 -1.7882
  591MOL0     H79764   2.909   5.712  12.477  0.8685 -0.1373 -1.7116
  591MOL0     H79765   1.996   5.894  11.831 -2.6607 -0.2047  0.1292
  591MOL0     H79766   1.822   5.736  11.751 -0.5050  1.1728 -1.7859
  591MOL0     H79767   1.575   5.327  11.598  2.8220  1.7750  1.6373
  591MOL0     H79768   1.375   5.294  11.483 -1.2229  0.0789 -0.1945
  591MOL0     H79769   1.326   5.079  10.722  1.6104  0.0038 -0.6301
  591MOL0     H79770   1.568   5.058  10.739 -1.9951 -1.9379 -0.7919
  591MOL0     H79771   1.888   5.120  11.067 -0.5339  0.6539  0.3611
  591MOL0     H79772   2.115   5.114  11.169  2.2026 -1.7207 -1.3763
  591MOL0     H79773   2.309   5.257  11.212 -2.8559  0.6589 -1.8845
  591MOL0     H79774   2.315   5.368  11.085  0.0376 -0.3942 -0.1902
  591MOL0     H79775   2.555   5.197  11.181 -1.3476  0.8256  2.1270
  591MOL0     H79776   2.541   5.367  11.205 -0.8155  0.1313  0.7791
  591MOL0     H79777   2.537   5.396  10.946 -1.2425 -0.7171 -1.5821
  591MOL0     H79778   2.574   5.227  10.925  0.3466 -0.3358  0.8019
  591MOL0     H79779   2.744   5.436  11.054  1.1482 -0.1564 -0.2332
  591MOL0     H79780   2.767   5.262  11.097  0.4160 -2.6618 -3.1148
  591MOL0     H79781   2.947   5.255  10.724  1.9270  0.4051  1.1446
  591MOL0     H79782   2.262   5.249  10.788 -3.1129  1.4559 -3.2355
  591MOL0     H79783   2.130   5.262  10.597  1.5588 -0.5465  3.0451
  591MOL0     H79784   2.002   5.146  10.595 -0.4579  0.2955  0.4499
  591MOL0     H79785   1.958   5.311  10.621 -1.6637 -2.0726 -0.8809
  592MOL0     O79786   9.800   9.541  10.352 -0.3875  0.1945 -0.1364
  592MOL0     C79787   9.812   9.595  10.462 -0.0587  0.3927  0.6533
  592MOL0     O79788   9.923   9.606  10.536 -0.2024 -0.4584 -0.4661
  592MOL0     C79789  10.027   9.523  10.505  0.4477 -0.6440  0.2972
  592MOL0     C79790  10.044   9.422  10.595 -0.7841  0.4650 -0.5052
  592MOL0     C79791  10.154   9.339  10.580  0.6592  0.6514 -0.4886
  592MOL0     C79792  10.245   9.354  10.477  0.0933 -0.2275  0.2146
  592MOL0     O79793  10.346   9.257  10.469 -0.0382 -0.4660  0.4599
  592MOL0     C79794  10.479   9.281  10.516  1.0816 -0.3381 -0.9045
  592MOL0     C79795  10.563   9.371  10.429  0.4430 -0.0153 -0.0502
  592MOL0     C79796  10.696   9.387  10.488  0.1944  0.3019 -0.1623
  592MOL0     C79797  10.784   9.459  10.388 -0.0828 -0.0359 -0.4906
  592MOL0     C79798  10.935   9.432  10.422 -0.3862 -0.3955  0.0180
  592MOL0     C79799  11.037   9.501  10.337 -0.2224 -0.8246  0.1953
  592MOL0     C79800  11.050   9.458  10.197  0.3623  0.3664 -0.7324
  592MOL0     C79801  11.132   9.538  10.110 -0.7256 -0.3593  0.3399
  592MOL0     N79802  11.101   9.499   9.971  0.0382  0.2984  0.6268
  592MOL0     C79803  11.159   9.395   9.909  0.4549 -0.1513  0.4886
  592MOL0     C79804  11.110   9.398   9.778  0.1000  0.2357  1.3693
  592MOL0     C79805  11.166   9.302   9.679  0.7009 -0.0699 -0.0879
  592MOL0     C79806  11.063   9.241   9.584 -0.4787 -0.2701  0.0384
  592MOL0     C79807  10.972   9.135   9.655  0.3346  0.0570 -0.2681
  592MOL0     C79808  11.015   9.072   9.794  0.2990  0.5254 -0.3173
  592MOL0     O79809  10.919   8.980   9.838 -0.1054 -0.3136 -0.8758
  592MOL0     C79810  10.868   8.993   9.965 -0.5035  0.1113  0.3630
  592MOL0     C79811  10.804   8.893  10.018 -0.1038  0.6599  0.2385
  592MOL0     C79812  10.747   8.891  10.147 -0.0163  0.2442  0.3681
  592MOL0     C79813  10.759   9.005  10.222 -0.6595 -1.0059 -0.1491
  592MOL0     C79814  10.733   9.000  10.368 -0.1253 -0.0114 -1.4976
  592MOL0     O79815  10.634   8.912  10.421 -0.0905 -0.3198  0.0305
  592MOL0     C79816  10.602   8.908  10.555  0.4413  0.5785  0.5427
  592MOL0     C79817  10.698   8.891  10.663  0.0531  0.5661 -0.3218
  592MOL0     C79818  10.643   8.879  10.794  1.1084  0.2145  0.2434
  592MOL0     C79819  10.508   8.889  10.821  0.1849 -0.0308 -0.0942
  592MOL0     O79820  10.477   8.907  10.958  0.1234 -0.0519  0.2342
  592MOL0     C79821  10.377   8.826  11.012  0.9943 -0.5251  0.8473
  592MOL0     C79822  10.343   8.869  11.152 -0.1305 -0.2535 -0.4747
  592MOL0     C79823  10.263   8.767  11.231  0.1849  0.1388 -0.3433
  592MOL0     C79824  10.347   8.648  11.281  0.4859  0.0747  1.0365
  592MOL0     C79825  10.260   8.556  11.375  0.5239 -0.0548 -0.2315
  592MOL0     C79826  10.285   8.403  11.351  0.8045 -0.7006 -0.3250
  592MOL0     C79827  10.186   8.315  11.427  0.7430 -0.3778 -0.4065
  592MOL0     C79828  10.248   8.192  11.490  0.5608  0.2361 -0.2054
  592MOL0    Cl79829  10.251   8.053  11.386  0.6252  0.3449 -0.4505
  592MOL0     C79830  10.422   8.892  10.711 -0.1907  0.4016  0.6441
  592MOL0     C79831  10.470   8.899  10.581  0.0806 -0.6210  0.6510
  592MOL0     O79832  10.807   9.073  10.436  0.1912  0.6593  0.1205
  592MOL0     C79833  10.812   9.129  10.156 -1.2563  0.3939 -0.8447
  592MOL0     C79834  10.859   9.114  10.027  0.3021  0.2747  0.5219
  592MOL0     N79835  11.036   9.511   9.750  0.0193 -0.0668 -0.5347
  592MOL0     N79836  11.029   9.553   9.868  0.3066  0.4755 -0.2365
  592MOL0     C79837  10.227   9.455  10.384  0.4704  0.0780  0.1143
  592MOL0     C79838  10.114   9.542  10.404  1.5219 -0.3860 -0.5399
  592MOL0     C79839   9.695   9.653  10.531  1.6234 -0.3534 -0.0728
  592MOL0     C79840   9.694   9.639  10.674 -0.2415  1.0881  0.5990
  592MOL0     C79841   9.594   9.685  10.752 -0.7120 -0.2358  0.1549
  592MOL0     C79842   9.494   9.760  10.688 -0.9947 -0.3055  0.7983
  592MOL0     O79843   9.385   9.807  10.756  0.4997 -0.0047  0.6920
  592MOL0     C79844   9.400   9.843  10.897 -0.4735 -0.5596  0.3530
  592MOL0     C79845   9.278   9.926  10.944 -0.0983 -0.0339  0.1015
  592MOL0     C79846   9.305  10.012  11.072 -0.1486 -0.2317 -0.6852
  592MOL0     C79847   9.346   9.923  11.183 -0.1696  0.5912 -1.2522
  592MOL0     C79848   9.296   9.980  11.311  0.8604  0.5279 -0.5982
  592MOL0     C79849   9.254  10.030  11.411 -0.0458  0.1454 -0.4215
  592MOL0     C79850   9.496   9.775  10.546 -0.4133 -0.3467  0.1615
  592MOL0     C79851   9.601   9.729  10.474 -0.1156 -1.7809  0.7579
  592MOL0     C79852   9.611   9.782  10.329 -0.0495  0.3435 -0.6619
  592MOL0     H79853   9.979   9.411  10.682  0.6231  0.4070  0.5701
  592MOL0     H79854  10.154   9.256  10.650  1.4567  0.1731 -1.0353
  592MOL0     H79855  10.477   9.322  10.617  2.1625  3.3759 -2.2249
  592MOL0     H79856  10.519   9.179  10.520  0.3519 -0.5788  1.4153
  592MOL0     H79857  10.516   9.470  10.421  0.1644 -0.2268 -1.2691
  592MOL0     H79858  10.585   9.322  10.334  3.6623  2.0812 -0.5482
  592MOL0     H79859  10.727   9.284  10.511 -1.8213 -0.4736 -0.7317
  592MOL0     H79860  10.688   9.434  10.586  1.6011  2.9405 -1.2205
  592MOL0     H79861  10.760   9.433  10.284  1.5366  2.4412 -1.5792
  592MOL0     H79862  10.760   9.564  10.411 -2.2742 -0.5890  0.0062
  592MOL0     H79863  10.959   9.456  10.526 -0.3806 -1.1369  0.1905
  592MOL0     H79864  10.946   9.323  10.420 -2.0004 -0.5766 -1.7592
  592MOL0     H79865  11.008   9.606  10.326  1.2334 -0.5465 -1.3682
  592MOL0     H79866  11.136   9.502  10.385  0.5533 -2.7845 -1.2348
  592MOL0     H79867  10.948   9.458  10.158 -0.9265 -1.6132  2.2666
  592MOL0     H79868  11.093   9.358  10.187  2.2703  1.2113 -1.4478
  592MOL0     H79869  11.109   9.644  10.127  0.0621  0.3787 -2.6440
  592MOL0     H79870  11.240   9.532  10.123 -0.4355 -1.3264 -2.0884
  592MOL0     H79871  11.225   9.325   9.960 -1.3353 -2.6557 -0.4389
  592MOL0     H79872  11.253   9.345   9.629  1.6081  0.1908  1.6423
  592MOL0     H79873  11.214   9.220   9.733  1.2385 -0.8775 -1.7265
  592MOL0     H79874  11.002   9.312   9.526 -0.1899 -2.8006 -3.7044
  592MOL0     H79875  11.121   9.201   9.501 -0.2115  2.4526 -1.1848
  592MOL0     H79876  10.946   9.061   9.579 -0.3365 -0.5254  0.5128
  592MOL0     H79877  10.879   9.184   9.684 -0.1566 -2.2044  2.3486
  592MOL0     H79878  11.044   9.155   9.858  2.3966 -0.1042 -0.3687
  592MOL0     H79879  11.104   9.010   9.778 -0.4291 -1.5685  2.8823
  592MOL0     H79880  10.798   8.802   9.959 -2.1932  0.8590  0.0515
  592MOL0     H79881  10.690   8.806  10.182 -0.4329  0.1970 -0.3917
  592MOL0     H79882  10.801   8.884  10.628  0.6635  0.1402  1.4602
  592MOL0     H79883  10.710   8.885  10.880 -0.5596  1.2693  1.5365
  592MOL0     H79884  10.286   8.830  10.951 -0.1821  0.4621  2.5567
  592MOL0     H79885  10.408   8.722  11.025  2.5952 -0.1414  0.2530
  592MOL0     H79886  10.433   8.900  11.206 -0.2037 -0.1525 -0.4102
  592MOL0     H79887  10.277   8.955  11.140 -1.5213 -1.4579 -1.9499
  592MOL0     H79888  10.210   8.816  11.313 -0.6252  1.1640 -1.4499
  592MOL0     H79889  10.183   8.742  11.161  1.7117  1.6662 -2.7711
  592MOL0     H79890  10.439   8.677  11.332  1.0447  0.9744 -0.4263
  592MOL0     H79891  10.373   8.585  11.196  0.8171  2.2163 -0.5310
  592MOL0     H79892  10.157   8.561  11.336  0.4463 -2.3221 -0.4792
  592MOL0     H79893  10.257   8.593  11.478 -0.4190  2.8137 -1.1990
  592MOL0     H79894  10.290   8.381  11.244 -1.3867 -1.5998 -0.2948
  592MOL0     H79895  10.385   8.389  11.395 -0.3329 -1.3207  2.2655
  592MOL0     H79896  10.091   8.289  11.381 -0.0049 -2.9081  2.2456
  592MOL0     H79897  10.153   8.384  11.506 -1.3536 -0.8910 -0.7754
  592MOL0     H79898  10.346   8.221  11.530 -0.8861  1.0842  3.1066
  592MOL0     H79899  10.192   8.163  11.580  2.0698  0.0505  0.7234
  592MOL0     H79900  10.314   8.902  10.719 -0.4072 -0.3562 -1.0100
  592MOL0     H79901  10.411   8.916  10.491 -0.0695  0.1006  0.8816
  592MOL0     H79902  10.830   9.212  10.223  1.2190 -2.0582  1.8498
  592MOL0     H79903  10.875   9.206   9.972 -4.0162  1.3963  0.8083
  592MOL0     H79904  10.305   9.463  10.309  1.1199 -4.3870  0.0520
  592MOL0     H79905  10.070   9.612  10.334  2.4810  2.6181  1.6432
  592MOL0     H79906   9.769   9.584  10.729  0.7823  1.1684 -0.6624
  592MOL0     H79907   9.602   9.677  10.860 -0.7169 -1.3971  0.0906
  592MOL0     H79908   9.488   9.908  10.903  1.0479 -2.5660  1.2993
  592MOL0     H79909   9.422   9.764  10.970  2.3395  0.8956  1.2325
  592MOL0     H79910   9.204   9.848  10.965 -0.2665  0.6880  2.4944
  592MOL0     H79911   9.249   9.999  10.868 -1.3888 -1.1470 -0.5314
  592MOL0     H79912   9.202  10.040  11.098  0.1322 -2.9173  4.4622
  592MOL0     H79913   9.384  10.086  11.057  0.2716 -0.4304  0.4334
  592MOL0     H79914   9.302   9.824  11.169 -0.8790  0.6020  0.5997
  592MOL0     H79915   9.454   9.908  11.188 -0.4614 -1.4650  0.1934
  592MOL0     H79916   9.226  10.071  11.506  0.7349 -1.6140  0.6254
  592MOL0     H79917   9.415   9.835  10.505  0.1212 -0.0705 -0.5255
  592MOL0     H79918   9.700   9.845  10.317 -1.8598  3.5766  1.2669
  592MOL0     H79919   9.623   9.690  10.272  2.1846 -0.3571  0.8081
  592MOL0     H79920   9.527   9.843  10.293  0.3525  0.7972 -0.8509
  593MOL0     O79921  10.021   5.499   6.483  0.1413 -0.3957 -0.4766
  593MOL0     C79922  10.008   5.554   6.592  0.8160  0.4716  0.1040
  593MOL0     O79923   9.887   5.585   6.651 -0.5516  0.5339  0.7469
  593MOL0     C79924   9.778   5.531   6.601 -0.8558 -0.5698  0.2205
  593MOL0     C79925   9.750   5.495   6.471 -0.1521  0.1042  0.0371
  593MOL0     C79926   9.616   5.448   6.448 -0.3246 -0.1966 -0.8120
  593MOL0     C79927   9.517   5.447   6.546 -0.3956 -0.2150 -0.0910
  593MOL0     O79928   9.385   5.407   6.519 -0.1757 -0.3966 -0.0556
  593MOL0     C79929   9.334   5.282   6.555 -1.0802  0.1124 -0.0326
  593MOL0     C79930   9.351   5.185   6.447  0.4729  0.3059 -0.3252
  593MOL0     C79931   9.248   5.081   6.433  0.7781 -0.3772 -0.3441
  593MOL0     C79932   9.267   4.988   6.314  0.0578 -0.2330  0.6065
  593MOL0     C79933   9.172   4.876   6.284 -0.9714 -0.8198  0.0289
  593MOL0     C79934   9.205   4.749   6.371 -0.2676  0.2230  0.0363
  593MOL0     C79935   9.130   4.621   6.331 -0.7400  0.1324 -0.1670
  593MOL0     C79936   9.200   4.501   6.408 -1.0535 -1.0779  0.2592
  593MOL0     N79937   9.152   4.362   6.364 -0.2045 -0.0781  0.4198
  593MOL0     C79938   9.163   4.310   6.237 -0.2336  0.7681 -0.7614
  593MOL0     C79939   9.120   4.180   6.244  0.3757 -0.0391  0.3761
  593MOL0     C79940   9.120   4.079   6.132  0.8809  0.8617 -0.5448
  593MOL0     C79941   9.247   4.002   6.116 -0.4978  0.3275  0.7284
  593MOL0     C79942   9.234   3.899   6.009 -0.4416 -0.5534 -0.9631
  593MOL0     C79943   9.356   3.909   5.921  0.5229  0.2346 -0.7641
  593MOL0     O79944   9.350   3.817   5.816  0.4239 -0.1575  0.0584
  593MOL0     C79945   9.447   3.728   5.793 -1.0065 -0.4404  0.0482
  593MOL0     C79946   9.398   3.604   5.729 -0.2677 -0.7268  0.1604
  593MOL0     C79947   9.490   3.501   5.703 -0.8605 -0.3155  0.2896
  593MOL0     C79948   9.631   3.514   5.727 -0.4804 -0.8195  0.4159
  593MOL0     C79949   9.724   3.422   5.664 -0.0669 -0.7210 -0.2298
  593MOL0     O79950   9.851   3.452   5.687 -0.2276  0.9936 -0.2651
  593MOL0     C79951   9.944   3.360   5.664  0.0881  0.7562  0.3667
  593MOL0     C79952   9.970   3.320   5.528  0.8554  0.3421 -0.2428
  593MOL0     C79953  10.080   3.240   5.500  0.4212  0.7568 -0.5745
  593MOL0     C79954  10.163   3.185   5.591  0.1227  0.0041  0.7953
  593MOL0     O79955  10.275   3.113   5.550 -0.2583 -0.0604 -0.0439
  593MOL0     C79956  10.243   3.004   5.463 -0.1528  0.4730  0.1459
  593MOL0     C79957  10.327   2.884   5.479 -0.2471  0.5978  0.4741
  593MOL0     C79958  10.280   2.746   5.422 -0.0811 -0.5952  0.2702
  593MOL0     C79959  10.164   2.675   5.489 -0.1391 -0.6612  0.1417
  593MOL0     C79960  10.110   2.548   5.431 -1.2040  0.2215  0.6255
  593MOL0     C79961  10.193   2.421   5.460 -0.4732  0.4395 -0.5026
  593MOL0     C79962  10.188   2.371   5.605  0.8291  0.3409 -0.4840
  593MOL0     C79963  10.198   2.217   5.628  0.8127  0.3248  0.4145
  593MOL0    Cl79964  10.365   2.155   5.597 -0.6879 -0.5615 -0.1101
  593MOL0     C79965  10.131   3.219   5.724  0.0742  0.7804 -1.1377
  593MOL0     C79966  10.022   3.300   5.765  0.7513 -0.2638 -0.8413
  593MOL0     O79967   9.681   3.323   5.612  0.3793  0.3802  0.1909
  593MOL0     C79968   9.673   3.630   5.799 -0.3026  0.3609  0.1560
  593MOL0     C79969   9.588   3.731   5.841  0.6944 -0.3091  1.2042
  593MOL0     N79970   9.053   4.167   6.362 -0.4868  0.4014 -0.8042
  593MOL0     N79971   9.078   4.273   6.427  0.3540  0.4320 -0.3741
  593MOL0     C79972   9.558   5.473   6.672 -0.4083 -0.3624 -0.0753
  593MOL0     C79973   9.680   5.534   6.699  0.5256  0.4617  0.4980
  593MOL0     C79974  10.130   5.592   6.659 -1.2822  0.2171 -0.1594
  593MOL0     C79975  10.119   5.683   6.760 -0.2076  0.1238 -0.0793
  593MOL0     C79976  10.230   5.724   6.841 -0.6762  0.8110  0.1015
  593MOL0     C79977  10.348   5.654   6.829 -0.3934 -0.1810  0.6571
  593MOL0     O79978  10.457   5.679   6.911  0.6293  0.1197  1.0801
  593MOL0     C79979  10.490   5.820   6.938 -0.0591 -0.0327 -0.3190
  593MOL0     C79980  10.639   5.836   6.983 -0.5273 -0.3037  0.8862
  593MOL0     C79981  10.702   5.720   7.052 -0.7680  0.2969 -0.9676
  593MOL0     C79982  10.623   5.648   7.168  0.7434  0.4561 -0.2182
  593MOL0     C79983  10.608   5.722   7.286  0.5777 -0.6523  0.5760
  593MOL0     C79984  10.580   5.779   7.388 -1.7094  0.0430 -0.6684
  593MOL0     C79985  10.362   5.563   6.725 -0.9662 -0.1512 -0.2611
  593MOL0     C79986  10.255   5.528   6.638 -0.0725 -0.1894 -0.3178
  593MOL0     C79987  10.277   5.412   6.552  0.8156  0.0252  0.2582
  593MOL0     H79988   9.824   5.497   6.393 -1.4799 -0.9088 -1.3011
  593MOL0     H79989   9.571   5.420   6.354  2.3233 -0.1302 -2.2013
  593MOL0     H79990   9.376   5.233   6.643 -5.1701 -1.7908  1.0894
  593MOL0     H79991   9.231   5.300   6.584 -1.7523 -1.8341 -1.0079
  593MOL0     H79992   9.442   5.133   6.478  0.2840 -1.3890 -2.4006
  593MOL0     H79993   9.356   5.229   6.347 -0.8864  1.6915  0.1732
  593MOL0     H79994   9.146   5.119   6.422  0.9453 -0.2650 -1.6940
  593MOL0     H79995   9.252   5.016   6.521 -1.0786  1.0429  0.8627
  593MOL0     H79996   9.261   5.051   6.225  1.0020 -0.8437  0.0937
  593MOL0     H79997   9.368   4.946   6.327  1.3662  2.8830  1.4561
  593MOL0     H79998   9.068   4.908   6.295 -0.2971  1.3754  0.5704
  593MOL0     H79999   9.180   4.844   6.179 -0.2915 -1.3790  0.2413
  593MOL0     H80000   9.313   4.738   6.358 -0.1750  1.6675 -0.6856
  593MOL0     H80001   9.191   4.776   6.476 -0.1239  0.2582  0.0471
  593MOL0     H80002   9.133   4.601   6.224 -1.5154 -2.4519  0.2309
  593MOL0     H80003   9.025   4.633   6.357 -0.3126 -1.9254  3.2438
  593MOL0     H80004   9.310   4.500   6.406 -0.9811  1.4450 -1.3910
  593MOL0     H80005   9.163   4.515   6.510  1.7171  1.2349  1.1144
  593MOL0     H80006   9.213   4.361   6.155  3.4936 -0.2370  0.6551
  593MOL0     H80007   9.033   4.015   6.153 -0.9791  3.0129 -1.2829
  593MOL0     H80008   9.091   4.129   6.039 -0.5979  1.1271  0.0264
  593MOL0     H80009   9.317   4.083   6.092 -1.1667  0.1686 -2.2334
  593MOL0     H80010   9.275   3.957   6.211 -2.1931  1.8160  1.9807
  593MOL0     H80011   9.140   3.919   5.957 -1.7782 -1.3791  1.0355
  593MOL0     H80012   9.234   3.802   6.060  2.2865 -0.8786 -1.4050
  593MOL0     H80013   9.448   3.892   5.977  0.3240 -0.9312 -0.7650
  593MOL0     H80014   9.351   4.009   5.877 -3.6186 -0.1210 -1.5523
  593MOL0     H80015   9.292   3.601   5.710  0.3167 -0.8770 -3.9337
  593MOL0     H80016   9.457   3.413   5.648  1.8495  1.0632 -4.0097
  593MOL0     H80017   9.913   3.365   5.447  0.4032  1.3963  0.6386
  593MOL0     H80018  10.095   3.214   5.396 -0.3557 -2.4748  0.0040
  593MOL0     H80019  10.140   2.966   5.472  0.7847 -2.8738 -1.3667
  593MOL0     H80020  10.253   3.030   5.357 -0.0091 -0.2210 -0.0185
  593MOL0     H80021  10.428   2.902   5.440 -0.0057  2.4901  1.8425
  593MOL0     H80022  10.353   2.868   5.584  2.4354 -6.0208 -0.6424
  593MOL0     H80023  10.250   2.778   5.321  0.9337 -1.3784 -0.2997
  593MOL0     H80024  10.357   2.668   5.427  0.3585 -0.2796 -1.0233
  593MOL0     H80025  10.080   2.742   5.471  2.6967  2.6620 -2.3376
  593MOL0     H80026  10.181   2.661   5.596  1.8683 -2.5744 -0.3583
  593MOL0     H80027  10.100   2.556   5.322  1.6496 -5.7287 -0.5288
  593MOL0     H80028  10.009   2.537   5.471 -1.2415 -0.0854  0.4542
  593MOL0     H80029  10.145   2.341   5.403  0.8483  0.4559 -1.6803
  593MOL0     H80030  10.295   2.416   5.420 -0.0313 -1.6255  0.7111
  593MOL0     H80031  10.089   2.395   5.646  0.4208 -2.6823  0.5379
  593MOL0     H80032  10.254   2.417   5.679 -0.9516 -0.9707  2.0831
  593MOL0     H80033  10.165   2.206   5.731 -1.8873 -0.8096 -0.5003
  593MOL0     H80034  10.122   2.157   5.577  0.9348 -1.3293  2.1087
  593MOL0     H80035  10.184   3.161   5.798 -1.0592  0.9303 -0.1739
  593MOL0     H80036  10.021   3.316   5.872  3.7425  0.4858 -0.8404
  593MOL0     H80037   9.779   3.647   5.814  0.6868 -4.2397 -0.0592
  593MOL0     H80038   9.633   3.814   5.894  3.6023 -1.1693  0.2643
  593MOL0     H80039   9.497   5.451   6.759  1.8014 -0.6457  1.4988
  593MOL0     H80040   9.708   5.568   6.798 -2.4456 -4.5094  3.4200
  593MOL0     H80041  10.026   5.738   6.759 -0.3245 -0.0508 -1.8881
  593MOL0     H80042  10.221   5.797   6.920  0.8457  0.1205  0.9497
  593MOL0     H80043  10.432   5.861   7.022 -1.5001 -1.9427 -0.3193
  593MOL0     H80044  10.477   5.883   6.850 -1.8873 -0.5890 -0.4970
  593MOL0     H80045  10.646   5.918   7.055  1.4068 -0.6188  1.1151
  593MOL0     H80046  10.697   5.870   6.896 -1.7269  0.4902  0.3717
  593MOL0     H80047  10.802   5.755   7.078  0.2810 -0.7614 -3.2802
  593MOL0     H80048  10.732   5.642   6.981  1.5022 -0.2489  0.4873
  593MOL0     H80049  10.524   5.611   7.140  1.0451 -3.0877  2.6962
  593MOL0     H80050  10.680   5.561   7.201 -2.5608 -2.9837 -2.7193
  593MOL0     H80051  10.538   5.826   7.475 -3.2996 -1.9687 -0.2942
  593MOL0     H80052  10.465   5.529   6.720 -0.4316  1.3454 -0.1657
  593MOL0     H80053  10.288   5.434   6.446  1.7310  0.8756  0.5216
  593MOL0     H80054  10.362   5.349   6.580  1.9138  1.0260 -0.7565
  593MOL0     H80055  10.190   5.345   6.557  1.1466 -0.4439 -0.1740
  594MOL0     O80056   2.593   7.302   8.697 -0.0644 -0.1695 -0.2038
  594MOL0     C80057   2.654   7.372   8.615  1.0953 -0.4689  0.1694
  594MOL0     O80058   2.724   7.327   8.514 -0.3486  0.1132  0.8944
  594MOL0     C80059   2.780   7.199   8.533  0.3874  0.0365 -0.0465
  594MOL0     C80060   2.796   7.109   8.423  0.6453 -0.4491 -0.7056
  594MOL0     C80061   2.881   6.995   8.440  0.0352  0.8622  0.3414
  594MOL0     C80062   2.922   6.967   8.567  0.0794  0.2551  1.0425
  594MOL0     O80063   3.009   6.866   8.584 -0.7007  0.5213 -0.1925
  594MOL0     C80064   3.142   6.900   8.596 -0.3861  1.5193 -0.1989
  594MOL0     C80065   3.222   6.826   8.476  0.4000 -0.2382  0.8814
  594MOL0     C80066   3.246   6.677   8.512 -1.0483 -0.4005  0.3593
  594MOL0     C80067   3.390   6.663   8.573  0.2286  0.4556  0.0696
  594MOL0     C80068   3.403   6.514   8.605  0.9915 -0.7795 -0.2650
  594MOL0     C80069   3.521   6.493   8.687 -1.4612  0.5849  0.7591
  594MOL0     C80070   3.546   6.345   8.709  0.0551  0.2971 -0.9187
  594MOL0     C80071   3.650   6.293   8.812  0.5305 -0.7081 -0.1707
  594MOL0     N80072   3.783   6.323   8.780  0.4368 -0.3346 -0.2649
  594MOL0     C80073   3.838   6.444   8.786 -0.1993 -0.1364  0.0194
  594MOL0     C80074   3.958   6.425   8.723 -0.0380 -0.9879  0.0719
  594MOL0     C80075   4.049   6.528   8.667  0.7423  0.8649 -1.2273
  594MOL0     C80076   4.191   6.474   8.630  0.1764  0.3988 -0.1071
  594MOL0     C80077   4.198   6.407   8.486 -0.9192 -0.9448  0.3604
  594MOL0     C80078   4.206   6.502   8.360  0.3619  0.3264 -0.4118
  594MOL0     O80079   4.320   6.591   8.376  0.8876  0.0068 -0.9205
  594MOL0     C80080   4.288   6.712   8.332  0.0812  0.2329  0.7646
  594MOL0     C80081   4.333   6.821   8.406 -0.2934  0.3257  0.7321
  594MOL0     C80082   4.325   6.955   8.360 -0.6905 -0.2722 -0.3370
  594MOL0     C80083   4.261   6.986   8.241  0.3875  0.5958 -1.2040
  594MOL0     C80084   4.258   7.118   8.188  0.3858 -0.2813 -0.0872
  594MOL0     O80085   4.373   7.195   8.197  0.0622  1.1607  1.0454
  594MOL0     C80086   4.362   7.325   8.154  0.4951  0.0602  0.6044
  594MOL0     C80087   4.430   7.376   8.040  0.0200  0.1006 -0.9858
  594MOL0     C80088   4.428   7.509   8.006 -0.2486  0.8425 -0.7716
  594MOL0     C80089   4.372   7.605   8.094 -0.4025 -0.2214  0.6824
  594MOL0     O80090   4.388   7.742   8.067  0.1812 -0.3305 -0.2960
  594MOL0     C80091   4.375   7.831   8.182  0.0604  0.3265  0.2031
  594MOL0     C80092   4.435   7.962   8.132 -0.3975 -0.0605  0.6021
  594MOL0     C80093   4.433   8.061   8.238  0.1017 -0.5307 -0.2678
  594MOL0     C80094   4.335   8.174   8.220  0.0521 -0.2188  0.4644
  594MOL0     C80095   4.186   8.131   8.223 -0.8923  0.3150  0.0867
  594MOL0     C80096   4.110   8.244   8.159  0.3830 -0.7736 -0.2008
  594MOL0     C80097   3.959   8.214   8.155 -0.4903  0.6606  0.0173
  594MOL0     C80098   3.859   8.330   8.144  0.6657  0.4727 -1.0241
  594MOL0    Cl80099   3.706   8.250   8.192  0.2126  0.3596 -0.0416
  594MOL0     C80100   4.300   7.560   8.200 -0.2954  0.6038 -0.6836
  594MOL0     C80101   4.290   7.418   8.232  0.5311 -0.7015 -0.0034
  594MOL0     O80102   4.150   7.161   8.143  0.1711 -0.8667  0.1897
  594MOL0     C80103   4.218   6.878   8.160  0.5186 -0.0741  0.2793
  594MOL0     C80104   4.227   6.745   8.209  0.1315  0.3728 -0.7654
  594MOL0     N80105   3.988   6.293   8.706  0.6209 -0.6010  0.0812
  594MOL0     N80106   3.878   6.232   8.737 -0.6251  0.1727  1.3959
  594MOL0     C80107   2.887   7.036   8.677 -0.7490 -0.2951 -0.2470
  594MOL0     C80108   2.816   7.153   8.664 -0.0511  0.2461  0.3464
  594MOL0     C80109   2.645   7.517   8.625  1.5660 -0.9150  0.0631
  594MOL0     C80110   2.643   7.595   8.507 -0.5626 -0.4867 -0.0084
  594MOL0     C80111   2.625   7.735   8.504 -0.8285  0.5278  0.3108
  594MOL0     C80112   2.590   7.797   8.621 -0.9165 -0.2626  0.0789
  594MOL0     O80113   2.556   7.931   8.640 -0.9052  0.1210  0.2740
  594MOL0     C80114   2.584   8.041   8.553  0.3672  0.1937  0.5823
  594MOL0     C80115   2.704   8.121   8.600 -0.1575  0.7111 -1.0123
  594MOL0     C80116   2.841   8.041   8.594 -0.1286 -0.7834 -0.9542
  594MOL0     C80117   2.897   8.035   8.451  0.3403  0.2897 -0.5139
  594MOL0     C80118   3.024   7.955   8.459  0.0787 -0.2992  0.0051
  594MOL0     C80119   3.100   7.862   8.473  0.5238  0.7960 -0.7058
  594MOL0     C80120   2.588   7.719   8.739  0.1330  0.1991 -0.3720
  594MOL0     C80121   2.620   7.583   8.749 -0.0488  0.3300 -0.0487
  594MOL0     C80122   2.628   7.520   8.880 -0.6556 -0.2383 -0.0505
  594MOL0     H80123   2.766   7.142   8.325 -0.2059  4.6776  0.9740
  594MOL0     H80124   2.899   6.922   8.362 -0.3680  1.5482 -0.4116
  594MOL0     H80125   3.147   7.008   8.586  1.3027  1.5014  0.0992
  594MOL0     H80126   3.194   6.870   8.687  3.7477  4.4065 -1.3127
  594MOL0     H80127   3.311   6.887   8.455 -0.3003  0.0831 -1.5152
  594MOL0     H80128   3.164   6.818   8.383 -1.6634  0.1134  2.0687
  594MOL0     H80129   3.248   6.622   8.417  1.4834  1.0158 -0.5243
  594MOL0     H80130   3.164   6.633   8.569 -1.3048  0.8986  1.0341
  594MOL0     H80131   3.457   6.677   8.488 -3.5890  0.6092 -3.2088
  594MOL0     H80132   3.408   6.725   8.661  2.6121  0.5768 -0.4605
  594MOL0     H80133   3.309   6.491   8.657  0.9956  0.0752  0.1365
  594MOL0     H80134   3.408   6.455   8.513 -1.4681  0.9765 -1.6372
  594MOL0     H80135   3.603   6.547   8.639  0.4399  0.7876  3.9240
  594MOL0     H80136   3.519   6.539   8.786  2.2775  0.0645  1.2359
  594MOL0     H80137   3.571   6.290   8.618  1.1427 -0.3937 -0.2311
  594MOL0     H80138   3.457   6.295   8.747  0.5513 -1.3811 -1.8792
  594MOL0     H80139   3.623   6.331   8.911 -1.4017 -3.2736  0.4078
  594MOL0     H80140   3.646   6.183   8.812 -2.6224 -0.7247 -1.9886
  594MOL0     H80141   3.783   6.533   8.814  1.1125  1.5638 -2.4304
  594MOL0     H80142   4.011   6.587   8.584  0.5887  3.8221  0.7684
  594MOL0     H80143   4.063   6.612   8.737  1.7083  0.8791 -1.4198
  594MOL0     H80144   4.268   6.551   8.643 -0.3549  1.4456 -2.6216
  594MOL0     H80145   4.213   6.395   8.702  0.9433 -0.2677 -1.0548
  594MOL0     H80146   4.115   6.338   8.467  0.2133 -2.5177  0.8850
  594MOL0     H80147   4.295   6.355   8.489  0.3533  1.2804  0.0548
  594MOL0     H80148   4.110   6.555   8.362  1.0996  1.7091 -0.3059
  594MOL0     H80149   4.218   6.446   8.267 -1.5603  2.5234 -2.0990
  594MOL0     H80150   4.371   6.793   8.503 -2.2562 -1.4573  1.0537
  594MOL0     H80151   4.381   7.028   8.418 -0.7300 -0.5073  0.0040
  594MOL0     H80152   4.484   7.310   7.973  0.2738  0.3679 -1.0499
  594MOL0     H80153   4.472   7.555   7.918 -0.9881  2.0668 -0.5279
  594MOL0     H80154   4.273   7.842   8.221 -0.6219 -0.6167 -1.2386
  594MOL0     H80155   4.430   7.780   8.262 -3.4265 -2.5017  1.0462
  594MOL0     H80156   4.529   7.939   8.082  0.4822 -0.9751  2.5793
  594MOL0     H80157   4.364   7.995   8.055 -3.0262 -2.1507  1.9411
  594MOL0     H80158   4.410   8.006   8.329 -1.0864 -1.5289 -1.1476
  594MOL0     H80159   4.535   8.102   8.237  0.0461 -0.3654  0.6574
  594MOL0     H80160   4.359   8.229   8.129  0.6084 -0.4617  0.4568
  594MOL0     H80161   4.350   8.246   8.302 -4.4518  0.5706  0.8360
  594MOL0     H80162   4.164   8.122   8.330 -0.7688 -1.3476  0.0016
  594MOL0     H80163   4.156   8.045   8.162 -3.0964  0.6687  0.5839
  594MOL0     H80164   4.135   8.343   8.199  2.0098 -1.0658 -0.3937
  594MOL0     H80165   4.142   8.256   8.055 -1.5145 -0.2401 -0.7573
  594MOL0     H80166   3.940   8.154   8.244  0.0110  1.0684  0.4093
  594MOL0     H80167   3.949   8.147   8.069  0.1044  0.1475  0.3405
  594MOL0     H80168   3.884   8.414   8.208  1.3344  0.8292 -1.7437
  594MOL0     H80169   3.849   8.370   8.043 -0.1179 -0.4804 -1.3481
  594MOL0     H80170   4.238   7.623   8.262  1.5182  0.1845  1.7216
  594MOL0     H80171   4.235   7.388   8.320  1.9079 -0.4888  0.9558
  594MOL0     H80172   4.179   6.896   8.060 -1.7125  0.8323  1.2321
  594MOL0     H80173   4.177   6.671   8.147 -2.8198  2.3278 -0.8819
  594MOL0     H80174   2.915   7.003   8.777  0.6189  2.3424  0.3350
  594MOL0     H80175   2.805   7.213   8.754 -1.8611 -1.1436  1.1233
  594MOL0     H80176   2.674   7.561   8.409 -2.1752 -0.3490 -0.5917
  594MOL0     H80177   2.637   7.785   8.409 -0.3519  1.0994  0.6612
  594MOL0     H80178   2.500   8.110   8.556  0.0095 -0.0542 -1.5623
  594MOL0     H80179   2.585   8.004   8.449 -2.7539  2.0765 -0.2461
  594MOL0     H80180   2.694   8.148   8.706  3.5736  1.8935 -0.8082
  594MOL0     H80181   2.719   8.207   8.535 -0.3451  0.7020 -1.0683
  594MOL0     H80182   2.828   7.938   8.628 -1.5601 -0.8882 -1.7369
  594MOL0     H80183   2.909   8.095   8.660  2.0333 -1.4482 -2.5268
  594MOL0     H80184   2.824   7.996   8.379  0.3434 -0.6654 -0.0099
  594MOL0     H80185   2.923   8.135   8.415  1.2878  1.3880  2.8737
  594MOL0     H80186   3.167   7.779   8.463  1.5774  0.9830  3.1771
  594MOL0     H80187   2.571   7.769   8.834  1.8834  1.3519 -0.6092
  594MOL0     H80188   2.528   7.487   8.909 -0.8125  1.4047  1.4757
  594MOL0     H80189   2.696   7.435   8.876 -1.2949 -0.7505 -0.2070
  594MOL0     H80190   2.681   7.588   8.947  0.0180 -3.1931  2.6704
  595MOL0     O80191   3.152  11.272   6.510 -0.3726  0.2165  0.1376
  595MOL0     C80192   3.237  11.350   6.547 -0.4119  0.4699  0.3529
  595MOL0     O80193   3.216  11.474   6.584 -0.3395  0.4701  0.0395
  595MOL0     C80194   3.107  11.552   6.558 -0.4585  0.7563 -0.6803
  595MOL0     C80195   3.081  11.657   6.650 -0.1063 -1.0015  0.5449
  595MOL0     C80196   2.962  11.737   6.631 -0.1527 -0.3984 -0.3793
  595MOL0     C80197   2.883  11.729   6.520  0.3726 -0.2381 -0.0295
  595MOL0     O80198   2.763  11.798   6.489  0.1470  0.3155 -0.0013
  595MOL0     C80199   2.703  11.894   6.577 -0.7337  0.0009 -0.4412
  595MOL0     C80200   2.574  11.938   6.518  0.2348  0.1012  0.4541
  595MOL0     C80201   2.572  12.062   6.419  1.2168  0.4737 -1.0933
  595MOL0     C80202   2.702  12.062   6.326  0.1380 -0.5297 -0.4971
  595MOL0     C80203   2.720  12.209   6.270 -1.0197 -0.2613  0.3646
  595MOL0     C80204   2.605  12.269   6.207  0.1626  0.0053 -0.2625
  595MOL0     C80205   2.550  12.171   6.085  0.0866 -0.1424 -0.4572
  595MOL0     C80206   2.485  12.262   5.986 -0.4693  0.0606  1.1041
  595MOL0     N80207   2.418  12.176   5.887  0.9890 -0.5111 -0.2497
  595MOL0     C80208   2.411  12.192   5.753 -0.6252 -0.3999  0.2168
  595MOL0     C80209   2.320  12.103   5.700  0.4326 -0.2458  0.0881
  595MOL0     C80210   2.282  12.085   5.556  0.2506 -0.4643  0.4615
  595MOL0     C80211   2.330  11.955   5.484 -0.2341 -0.0424 -1.3762
  595MOL0     C80212   2.284  11.814   5.543  0.0217 -0.3910  0.0608
  595MOL0     C80213   2.380  11.735   5.646 -0.7947 -0.1441  0.2551
  595MOL0     O80214   2.513  11.726   5.589 -0.3976  0.1260 -0.2776
  595MOL0     C80215   2.606  11.757   5.686 -0.6467  0.7726 -0.2568
  595MOL0     C80216   2.632  11.887   5.735 -0.0098  0.1749  1.0729
  595MOL0     C80217   2.736  11.920   5.822  0.4496 -0.6381 -0.0060
  595MOL0     C80218   2.816  11.819   5.880  0.3962 -1.3748  0.3143
  595MOL0     C80219   2.928  11.852   5.968  0.0321  0.9272  0.9597
  595MOL0     O80220   3.008  11.747   6.019 -0.2219  0.2638  0.2501
  595MOL0     C80221   3.087  11.779   6.128 -0.2517  0.2150  0.0513
  595MOL0     C80222   3.049  11.855   6.238  0.6301 -0.0876 -0.4724
  595MOL0     C80223   3.139  11.871   6.342  0.5263  0.2878 -0.8622
  595MOL0     C80224   3.265  11.827   6.328  0.3575 -0.0408  0.1778
  595MOL0     O80225   3.351  11.843   6.439 -0.2905  0.6534 -0.9974
  595MOL0     C80226   3.379  11.970   6.506  1.2424  0.0971 -0.4841
  595MOL0     C80227   3.530  11.987   6.526  0.3436 -0.7555  0.0206
  595MOL0     C80228   3.589  11.875   6.614 -0.2207  0.7482 -0.7621
  595MOL0     C80229   3.734  11.902   6.655  0.6161  0.5739 -0.0761
  595MOL0     C80230   3.819  11.774   6.624 -0.2810  0.4663 -0.7974
  595MOL0     C80231   3.971  11.802   6.642 -0.1680  0.9592 -0.4762
  595MOL0     C80232   4.024  11.810   6.790 -0.2881  0.6186 -0.1005
  595MOL0     C80233   4.178  11.779   6.791  0.3290  0.7078 -0.5500
  595MOL0    Cl80234   4.255  11.901   6.689 -0.1492 -0.0767  0.1628
  595MOL0     C80235   3.309  11.760   6.216 -0.1610  0.1737 -0.8717
  595MOL0     C80236   3.217  11.728   6.122  0.0688  0.4663  0.5458
  595MOL0     O80237   2.952  11.972   5.983 -0.1250  0.2132  0.2334
  595MOL0     C80238   2.790  11.684   5.834  0.3727  0.0671  0.3889
  595MOL0     C80239   2.685  11.651   5.737 -1.2216  0.3629  0.0428
  595MOL0     N80240   2.272  12.026   5.811 -1.0984  0.8767  0.1735
  595MOL0     N80241   2.328  12.076   5.918  0.3488  0.1545 -0.1497
  595MOL0     C80242   2.917  11.625   6.431  0.2586 -1.0190 -0.6321
  595MOL0     C80243   3.021  11.533   6.450 -0.1622 -0.3761  0.1597
  595MOL0     C80244   3.374  11.308   6.542 -0.6428  0.5905  0.4458
  595MOL0     C80245   3.417  11.198   6.600 -0.1462  0.5827 -0.8186
  595MOL0     C80246   3.553  11.169   6.619  0.4680  0.1076 -0.2955
  595MOL0     C80247   3.656  11.255   6.572  0.4738 -0.7870 -0.1098
  595MOL0     O80248   3.788  11.211   6.587  0.3454  0.2433 -0.2264
  595MOL0     C80249   3.897  11.275   6.512  0.3276 -0.6634  0.1004
  595MOL0     C80250   3.946  11.401   6.583  0.3139 -0.3560  0.1514
  595MOL0     C80251   3.966  11.394   6.732 -0.0581  0.5480 -0.0928
  595MOL0     C80252   4.086  11.300   6.754  0.9971 -0.3789 -1.2329
  595MOL0     C80253   4.135  11.318   6.893  0.5341 -0.3678  0.7962
  595MOL0     C80254   4.175  11.328   7.009 -0.4168  0.4058  0.0955
  595MOL0     C80255   3.610  11.370   6.504 -0.0971 -0.5876 -0.5864
  595MOL0     C80256   3.478  11.406   6.498 -0.1188  1.0627  0.6800
  595MOL0     C80257   3.445  11.532   6.409 -1.2176  0.3598  0.2979
  595MOL0     H80258   3.145  11.667   6.737  2.5742 -1.7533 -1.2001
  595MOL0     H80259   2.936  11.811   6.706 -0.1061  0.2596 -1.0011
  595MOL0     H80260   2.681  11.835   6.667 -2.3541  2.1094  0.6318
  595MOL0     H80261   2.777  11.971   6.601 -0.2327 -1.0264  1.5990
  595MOL0     H80262   2.507  11.958   6.602  0.3101 -0.3744  0.6321
  595MOL0     H80263   2.539  11.854   6.457  2.8452 -1.1116  0.4792
  595MOL0     H80264   2.561  12.157   6.472 -0.8165  0.7997 -2.0078
  595MOL0     H80265   2.482  12.046   6.358  1.8311 -0.4982 -1.7753
  595MOL0     H80266   2.795  12.037   6.379 -1.1463 -0.1648  2.0911
  595MOL0     H80267   2.686  11.996   6.241 -2.0070  0.5816 -1.0265
  595MOL0     H80268   2.760  12.275   6.348 -2.5400 -2.1258  2.9150
  595MOL0     H80269   2.798  12.206   6.194 -0.1356  2.6980  1.0158
  595MOL0     H80270   2.521  12.270   6.277 -0.2623 -1.2466 -0.7094
  595MOL0     H80271   2.631  12.369   6.173 -0.5075 -0.2672 -1.6424
  595MOL0     H80272   2.486  12.094   6.128 -1.7410  1.5186 -0.0737
  595MOL0     H80273   2.646  12.134   6.046  0.8263  0.6655  0.5273
  595MOL0     H80274   2.409  12.317   6.042 -1.2431 -1.0495  1.1812
  595MOL0     H80275   2.556  12.331   5.939 -1.2141  0.1277  0.0406
  595MOL0     H80276   2.463  12.263   5.690  1.2414 -0.6741  1.3575
  595MOL0     H80277   2.176  12.103   5.536  1.0903  1.3816 -3.1261
  595MOL0     H80278   2.329  12.161   5.493 -1.4965  0.9558  0.8044
  595MOL0     H80279   2.293  11.966   5.382  1.7572  0.4033 -2.0892
  595MOL0     H80280   2.439  11.951   5.482 -0.1892 -1.0309  0.7911
  595MOL0     H80281   2.258  11.750   5.458  0.2853 -2.0923  1.2159
  595MOL0     H80282   2.188  11.819   5.596 -0.6754  0.7057 -1.2123
  595MOL0     H80283   2.336  11.638   5.669  2.5642 -1.4770  1.6735
  595MOL0     H80284   2.390  11.791   5.740  1.8066  2.0245 -1.1821
  595MOL0     H80285   2.565  11.963   5.697  2.5315  1.4833 -1.1377
  595MOL0     H80286   2.746  12.027   5.839 -1.7277 -0.5163  0.8015
  595MOL0     H80287   2.945  11.887   6.235  0.6339 -0.1305 -1.6874
  595MOL0     H80288   3.106  11.936   6.423  0.3920  0.3475 -0.9652
  595MOL0     H80289   3.341  12.051   6.443 -1.3399 -1.1130 -0.6084
  595MOL0     H80290   3.315  11.972   6.595  0.6851 -0.0469 -0.8780
  595MOL0     H80291   3.588  11.988   6.433 -1.7561 -1.5368 -1.3701
  595MOL0     H80292   3.543  12.079   6.584 -2.1750 -1.6966  2.2904
  595MOL0     H80293   3.528  11.878   6.705  0.0807  0.2666 -0.5415
  595MOL0     H80294   3.589  11.775   6.571  2.5327  0.5795 -0.5619
  595MOL0     H80295   3.745  11.930   6.760  0.5478 -0.5839  0.2585
  595MOL0     H80296   3.771  11.985   6.595 -0.7086  0.0480 -1.7042
  595MOL0     H80297   3.816  11.754   6.517  0.6401  1.8985 -1.1195
  595MOL0     H80298   3.784  11.683   6.674 -1.7585  1.3402 -0.1799
  595MOL0     H80299   4.025  11.724   6.587 -2.7957 -0.0212 -1.8697
  595MOL0     H80300   3.984  11.897   6.590 -0.2835  1.0606 -0.3237
  595MOL0     H80301   3.974  11.733   6.849  2.0164  0.4086  1.7009
  595MOL0     H80302   4.013  11.917   6.810  0.4243  1.0862 -1.9879
  595MOL0     H80303   4.205  11.794   6.896 -1.4899  1.5728 -0.1696
  595MOL0     H80304   4.207  11.675   6.775  0.2136  0.5113  0.4778
  595MOL0     H80305   3.410  11.721   6.208  0.1603  0.4680  1.0898
  595MOL0     H80306   3.251  11.679   6.032 -0.4953  2.3262 -0.7449
  595MOL0     H80307   2.868  11.614   5.864  0.3613 -1.5972 -2.9534
  595MOL0     H80308   2.666  11.545   5.719  2.4064 -0.6483  1.3248
  595MOL0     H80309   2.854  11.618   6.342 -0.4544 -1.0266 -0.1352
  595MOL0     H80310   3.025  11.447   6.383 -0.8999 -1.6438  1.6669
  595MOL0     H80311   3.345  11.124   6.632  0.2447  1.0123  1.2154
  595MOL0     H80312   3.576  11.069   6.654  1.7885 -0.4525 -2.5829
  595MOL0     H80313   3.868  11.305   6.411 -0.3962  1.3115  0.8507
  595MOL0     H80314   3.983  11.208   6.505  2.5922  2.2136 -1.4713
  595MOL0     H80315   3.866  11.473   6.561 -1.1061 -2.0781 -0.5813
  595MOL0     H80316   4.040  11.418   6.530 -0.2257 -2.3241 -1.5751
  595MOL0     H80317   3.868  11.368   6.773  0.6726 -0.1033  1.2899
  595MOL0     H80318   3.983  11.492   6.777  2.0705 -0.4090  1.2794
  595MOL0     H80319   4.056  11.195   6.744 -0.9859  0.0229 -0.1363
  595MOL0     H80320   4.158  11.308   6.673 -0.8275 -6.1133 -4.0126
  595MOL0     H80321   4.194  11.327   7.114  3.4896 -1.2595 -0.4617
  595MOL0     H80322   3.679  11.443   6.462  1.1333 -0.7762  1.0208
  595MOL0     H80323   3.493  11.616   6.460  1.1993 -2.2140  2.6310
  595MOL0     H80324   3.486  11.523   6.308 -2.4312  0.1890 -0.1935
  595MOL0     H80325   3.339  11.550   6.394 -1.2720 -2.0863 -3.9272
  596MOL0     O80326   7.550   4.301   8.058 -0.0583 -0.6551 -0.3311
  596MOL0     C80327   7.627   4.391   8.026  0.2096 -1.0278 -0.7208
  596MOL0     O80328   7.656   4.428   7.894 -0.3247 -0.1064  0.4689
  596MOL0     C80329   7.590   4.375   7.782 -0.3646  0.4749 -0.0264
  596MOL0     C80330   7.502   4.262   7.770  0.6121  0.2232  0.1815
  596MOL0     C80331   7.446   4.221   7.646 -0.0112 -1.0033  0.0071
  596MOL0     C80332   7.463   4.307   7.529 -0.3174 -0.5802 -0.2836
  596MOL0     O80333   7.407   4.292   7.406 -0.3493  0.7011  0.0796
  596MOL0     C80334   7.331   4.173   7.379 -0.6985  0.2917  0.0549
  596MOL0     C80335   7.411   4.083   7.289  0.1976 -0.0530 -0.4816
  596MOL0     C80336   7.326   3.955   7.270 -0.6694 -0.3336  0.0368
  596MOL0     C80337   7.419   3.859   7.188 -0.3388  0.2409 -0.0857
  596MOL0     C80338   7.484   3.761   7.285 -0.5322  0.3031  0.4459
  596MOL0     C80339   7.540   3.642   7.194  0.0921 -0.6662 -0.9915
  596MOL0     C80340   7.630   3.552   7.283 -0.8608  1.0079 -0.0453
  596MOL0     C80341   7.568   3.505   7.417 -1.1967 -0.0993 -0.8896
  596MOL0     N80342   7.662   3.412   7.489  0.3396 -0.2823  0.5603
  596MOL0     C80343   7.797   3.418   7.514 -0.5929 -0.7822 -1.2612
  596MOL0     C80344   7.827   3.306   7.582 -0.1732 -0.2060 -0.1332
  596MOL0     C80345   7.960   3.258   7.630  0.5815  0.0804 -0.5540
  596MOL0     C80346   8.044   3.362   7.710 -0.6085 -0.1813 -0.3674
  596MOL0     C80347   7.995   3.410   7.850  0.4643 -0.0365  0.1255
  596MOL0     C80348   8.108   3.373   7.944 -0.2821 -0.0671 -0.0758
  596MOL0     O80349   8.207   3.475   7.932  0.0377  1.1167 -0.5330
  596MOL0     C80350   8.270   3.499   8.046 -0.1591 -0.2684  0.6274
  596MOL0     C80351   8.367   3.405   8.087 -0.1195  0.5353 -0.2489
  596MOL0     C80352   8.439   3.425   8.205  0.6893  0.5909  1.3295
  596MOL0     C80353   8.407   3.527   8.282 -0.2576  0.5386  0.2908
  596MOL0     C80354   8.472   3.537   8.420  0.3856 -0.5445  0.6932
  596MOL0     O80355   8.583   3.455   8.449  0.6304 -0.3832  0.5343
  596MOL0     C80356   8.644   3.436   8.574  0.0106  0.1154  0.8965
  596MOL0     C80357   8.773   3.383   8.579 -0.6644  0.6835 -0.4574
  596MOL0     C80358   8.832   3.351   8.702 -0.0374 -0.7183  0.3358
  596MOL0     C80359   8.758   3.360   8.819  1.6513  0.0941 -0.1592
  596MOL0     O80360   8.802   3.301   8.931 -0.2739  0.0781 -0.4028
  596MOL0     C80361   8.783   3.356   9.063  0.6168  0.2832 -0.0680
  596MOL0     C80362   8.879   3.302   9.177  0.5239 -0.4009 -0.1762
  596MOL0     C80363   8.836   3.349   9.312 -0.1754  0.0075  0.8659
  596MOL0     C80364   8.864   3.501   9.340 -0.2154 -0.6875  0.9387
  596MOL0     C80365   8.741   3.589   9.287  0.2486  1.0480  0.1642
  596MOL0     C80366   8.749   3.729   9.336  0.4148 -0.2152  0.1118
  596MOL0     C80367   8.863   3.819   9.289 -0.3321 -0.4641  0.8375
  596MOL0     C80368   8.930   3.902   9.394 -0.4912  0.8046 -0.4351
  596MOL0    Cl80369   9.025   3.801   9.497  0.1527 -0.2713  0.4380
  596MOL0     C80370   8.624   3.398   8.812 -0.8129 -0.0044 -0.0560
  596MOL0     C80371   8.570   3.443   8.693  1.5535  0.5216 -0.0633
  596MOL0     O80372   8.422   3.620   8.500 -0.2048 -0.2968 -0.6126
  596MOL0     C80373   8.302   3.625   8.246 -0.4655 -0.2384 -0.4426
  596MOL0     C80374   8.242   3.618   8.121 -0.5800  0.5917  0.7442
  596MOL0     N80375   7.713   3.232   7.605 -0.0660 -1.0664  1.1852
  596MOL0     N80376   7.617   3.307   7.564  0.2966  0.6972  0.0896
  596MOL0     C80377   7.556   4.413   7.547 -0.3675  0.5076  1.0188
  596MOL0     C80378   7.616   4.437   7.665  0.5599  1.2208 -0.2302
  596MOL0     C80379   7.729   4.444   8.128  0.6443 -0.7173 -0.0212
  596MOL0     C80380   7.725   4.390   8.256  0.4112 -0.3673 -0.2212
  596MOL0     C80381   7.810   4.428   8.354  0.5803  0.2383  0.8683
  596MOL0     C80382   7.894   4.538   8.335  0.0203  0.9960  0.3326
  596MOL0     O80383   7.995   4.580   8.430  0.3623 -0.6872  0.3929
  596MOL0     C80384   8.007   4.530   8.559 -0.5043 -0.0928 -0.1569
  596MOL0     C80385   7.893   4.573   8.648 -0.3828  0.0188 -0.5895
  596MOL0     C80386   7.889   4.514   8.788  0.5634  0.4886 -0.5399
  596MOL0     C80387   8.003   4.528   8.891 -0.5259 -0.3580  0.1896
  596MOL0     C80388   8.034   4.658   8.930 -0.3078 -0.7655 -0.7145
  596MOL0     C80389   8.075   4.767   8.944 -0.5391 -0.0946  0.3788
  596MOL0     C80390   7.887   4.592   8.211  0.3708 -0.2069  0.7441
  596MOL0     C80391   7.812   4.547   8.104  0.4485 -0.7210  0.2624
  596MOL0     C80392   7.824   4.631   7.981  0.3383 -0.0531 -0.0361
  596MOL0     H80393   7.478   4.206   7.859 -2.2081  1.5025  0.3346
  596MOL0     H80394   7.382   4.134   7.643  1.7177 -2.3074 -1.5403
  596MOL0     H80395   7.292   4.128   7.472  2.1941  2.2621  2.4039
  596MOL0     H80396   7.248   4.193   7.311 -0.0535 -0.7812 -1.0663
  596MOL0     H80397   7.502   4.060   7.346 -1.6356 -1.6423  2.0190
  596MOL0     H80398   7.445   4.131   7.197  3.1099 -1.5404 -0.3077
  596MOL0     H80399   7.235   3.979   7.212  0.6397  0.5410 -1.7666
  596MOL0     H80400   7.277   3.912   7.358  0.7930  2.4353  2.3574
  596MOL0     H80401   7.357   3.798   7.122  0.9632 -1.4169  0.1440
  596MOL0     H80402   7.499   3.911   7.135 -0.3421  0.3138 -0.0184
  596MOL0     H80403   7.560   3.817   7.339 -2.9696  3.2981  1.0236
  596MOL0     H80404   7.415   3.727   7.364 -0.3228  5.8938  3.5233
  596MOL0     H80405   7.450   3.590   7.159  1.1165 -3.1194 -0.2128
  596MOL0     H80406   7.608   3.686   7.121  1.8006  0.5592  1.2267
  596MOL0     H80407   7.729   3.597   7.294 -0.5463  0.1260  0.9431
  596MOL0     H80408   7.653   3.459   7.229  1.7397  2.2517 -1.2646
  596MOL0     H80409   7.557   3.596   7.477  1.2559 -0.9635  1.0569
  596MOL0     H80410   7.473   3.453   7.402  0.2085 -2.4317 -2.3881
  596MOL0     H80411   7.868   3.499   7.500  1.8815 -2.4434  0.8646
  596MOL0     H80412   7.954   3.165   7.687  0.4689  0.2526 -0.2814
  596MOL0     H80413   8.011   3.234   7.536 -0.1407  2.2241 -1.5656
  596MOL0     H80414   8.139   3.307   7.720  0.0930  0.5280 -2.6657
  596MOL0     H80415   8.051   3.447   7.642 -1.7049  1.4976  1.5369
  596MOL0     H80416   7.907   3.356   7.885 -0.9659  1.0309 -1.6314
  596MOL0     H80417   7.970   3.517   7.844  0.8778 -0.0308 -2.1649
  596MOL0     H80418   8.154   3.275   7.928 -0.8055 -0.5187  1.1190
  596MOL0     H80419   8.073   3.364   8.047 -0.3192 -0.4588 -0.1209
  596MOL0     H80420   8.382   3.317   8.026  2.3992  1.9470 -1.8370
  596MOL0     H80421   8.511   3.351   8.239  0.5598  0.6089  1.6502
  596MOL0     H80422   8.829   3.397   8.487  1.8224 -1.5059  0.6030
  596MOL0     H80423   8.925   3.296   8.710  0.4461  0.2745  1.8427
  596MOL0     H80424   8.798   3.465   9.064 -1.4282  0.6096  0.9177
  596MOL0     H80425   8.680   3.356   9.100  1.4940 -0.7447  2.5684
  596MOL0     H80426   8.870   3.194   9.184 -0.0203 -0.2574  1.7516
  596MOL0     H80427   8.977   3.350   9.166 -0.1279  1.0632  0.2029
  596MOL0     H80428   8.727   3.340   9.314 -0.4790  2.6815  0.9257
  596MOL0     H80429   8.880   3.296   9.397 -2.0113  1.7003  3.0098
  596MOL0     H80430   8.957   3.537   9.296  0.1105 -3.3335 -0.7874
  596MOL0     H80431   8.868   3.516   9.448 -2.3530 -1.3707  1.1636
  596MOL0     H80432   8.652   3.539   9.325 -0.0195  2.5696  1.6585
  596MOL0     H80433   8.738   3.604   9.179 -0.5585 -3.0072 -0.5129
  596MOL0     H80434   8.650   3.770   9.316  0.3468  0.5667  1.8365
  596MOL0     H80435   8.745   3.732   9.446 -1.2961  1.9127  0.0607
  596MOL0     H80436   8.821   3.884   9.211 -0.2071 -1.3166  0.0467
  596MOL0     H80437   8.934   3.762   9.228 -0.0802  2.5688 -2.0105
  596MOL0     H80438   8.984   3.991   9.359 -1.8881  1.1000 -1.9695
  596MOL0     H80439   8.852   3.951   9.454  0.9650  0.6516  1.6631
  596MOL0     H80440   8.571   3.380   8.904  0.1889 -1.3939  0.2820
  596MOL0     H80441   8.465   3.472   8.695  0.7517 -2.0281 -0.5804
  596MOL0     H80442   8.267   3.701   8.316 -2.3224 -0.0193 -1.5280
  596MOL0     H80443   8.164   3.684   8.085 -0.2233  0.9768  0.6682
  596MOL0     H80444   7.574   4.476   7.460  0.6377  0.2456  1.0256
  596MOL0     H80445   7.696   4.509   7.652  1.4827  0.5371  1.4025
  596MOL0     H80446   7.672   4.297   8.273  2.6851 -1.1435  3.9822
  596MOL0     H80447   7.816   4.360   8.438  1.1336 -0.8115  0.0079
  596MOL0     H80448   8.095   4.578   8.602 -0.6267 -2.5651  3.3300
  596MOL0     H80449   8.017   4.421   8.554  3.5287  0.1985 -1.6559
  596MOL0     H80450   7.801   4.555   8.591  0.5171 -0.8372 -1.8311
  596MOL0     H80451   7.907   4.681   8.662 -0.8171 -0.0838  0.7905
  596MOL0     H80452   7.881   4.406   8.770  1.3255  0.2493  0.4817
  596MOL0     H80453   7.814   4.559   8.853 -0.3817 -3.1795  1.1870
  596MOL0     H80454   7.984   4.474   8.984  1.5273 -1.4775  0.0079
  596MOL0     H80455   8.094   4.476   8.861  0.7889  1.0379  1.5798
  596MOL0     H80456   8.127   4.861   8.935  0.5806 -0.8814 -2.5521
  596MOL0     H80457   7.958   4.672   8.189 -1.8295  1.2957 -1.6162
  596MOL0     H80458   7.872   4.582   7.896  0.3850  0.8926 -0.5807
  596MOL0     H80459   7.731   4.669   7.939  1.0178  0.2692 -1.3056
  596MOL0     H80460   7.892   4.715   8.002  0.2950  0.7171 -2.5706
  597MOL0     O80461   0.200   7.474   8.054 -0.2430 -0.0841  0.3520
  597MOL0     C80462   0.268   7.532   7.970 -0.1992 -0.5833 -0.2193
  597MOL0     O80463   0.348   7.464   7.870 -0.8257  0.1327 -0.0869
  597MOL0     C80464   0.356   7.330   7.898  0.1756 -0.2225 -0.0975
  597MOL0     C80465   0.282   7.251   7.809  0.5208  0.0430  0.9689
  597MOL0     C80466   0.292   7.111   7.817 -0.3440 -0.0206  0.6694
  597MOL0     C80467   0.381   7.054   7.907 -0.5955  0.2652 -0.4941
  597MOL0     O80468   0.413   6.925   7.919 -0.4035  0.1609 -0.6763
  597MOL0     C80469   0.436   6.862   7.792 -0.5865  0.5194  0.0874
  597MOL0     C80470   0.506   6.722   7.826  0.4786 -0.4437 -0.5819
  597MOL0     C80471   0.651   6.754   7.846  0.4250  0.2375 -0.6130
  597MOL0     C80472   0.725   6.614   7.853 -0.5778 -0.2307  0.0868
  597MOL0     C80473   0.861   6.623   7.919 -0.8815  0.4417  0.2075
  597MOL0     C80474   0.958   6.698   7.828 -0.1911  0.1460  0.9175
  597MOL0     C80475   1.101   6.676   7.879 -0.6877 -0.4590 -0.9587
  597MOL0     C80476   1.204   6.710   7.767  0.0914  0.3147 -0.4340
  597MOL0     N80477   1.344   6.687   7.809  0.2939 -0.2153  0.1358
  597MOL0     C80478   1.404   6.754   7.918 -0.0117  1.4331 -0.4087
  597MOL0     C80479   1.530   6.701   7.926  0.3692  0.4942  0.3175
  597MOL0     C80480   1.640   6.736   8.022  1.5419  0.0288 -0.0088
  597MOL0     C80481   1.777   6.720   7.956  0.2423  0.0140  0.2969
  597MOL0     C80482   1.888   6.729   8.050 -0.9219 -0.0030 -0.8666
  597MOL0     C80483   2.028   6.712   7.998 -0.6727  0.7525 -0.3579
  597MOL0     O80484   2.052   6.570   7.992  0.6133 -0.3745  0.1520
  597MOL0     C80485   2.185   6.532   7.987 -0.1690 -0.4946 -0.5869
  597MOL0     C80486   2.216   6.395   8.003  0.2629 -0.0223  0.0510
  597MOL0     C80487   2.344   6.342   7.992  0.4932 -1.2085 -0.0916
  597MOL0     C80488   2.449   6.430   7.968  0.0006  0.9515  1.0280
  597MOL0     C80489   2.590   6.379   7.961 -0.0132  0.8909  0.1787
  597MOL0     O80490   2.666   6.421   7.852  0.5736 -0.3425  0.3143
  597MOL0     C80491   2.789   6.366   7.825 -1.2517  0.2931  0.6710
  597MOL0     C80492   2.842   6.408   7.704 -0.2467 -1.1729  0.4316
  597MOL0     C80493   2.967   6.361   7.664 -0.0902  0.2292 -0.4759
  597MOL0     C80494   3.041   6.268   7.732 -0.3264  0.1320 -0.5736
  597MOL0     O80495   3.164   6.243   7.682  0.0274 -0.1702  0.3984
  597MOL0     C80496   3.240   6.117   7.706 -0.7676 -0.1608  0.0723
  597MOL0     C80497   3.388   6.139   7.669  1.2758 -0.7309 -0.0460
  597MOL0     C80498   3.446   6.004   7.656 -0.7243  0.0423 -0.2913
  597MOL0     C80499   3.590   6.009   7.609 -0.0340  0.3561 -0.4760
  597MOL0     C80500   3.657   5.870   7.642 -0.1963  1.3241  0.2434
  597MOL0     C80501   3.812   5.877   7.605  0.4126 -0.5928 -1.1047
  597MOL0     C80502   3.903   5.754   7.636  0.1779  0.3312  0.0384
  597MOL0     C80503   3.920   5.736   7.786  0.2333  0.9127 -0.5861
  597MOL0    Cl80504   4.007   5.572   7.791 -0.0212  0.0465  0.1973
  597MOL0     C80505   2.990   6.219   7.857  0.9065 -0.2910  0.0301
  597MOL0     C80506   2.862   6.267   7.899 -0.7800  0.0051 -0.5537
  597MOL0     O80507   2.614   6.288   8.041 -0.5229 -0.5893  0.1031
  597MOL0     C80508   2.426   6.567   7.966  0.1173 -0.0389 -0.8224
  597MOL0     C80509   2.293   6.616   7.982  0.2992 -0.5295 -0.5821
  597MOL0     N80510   1.543   6.604   7.835  0.2132  0.0884  0.8302
  597MOL0     N80511   1.434   6.593   7.763  0.2152 -0.9285 -0.4182
  597MOL0     C80512   0.444   7.144   8.005  0.5689  0.2764 -0.1253
  597MOL0     C80513   0.442   7.277   7.988  0.3582 -0.1991 -0.4706
  597MOL0     C80514   0.283   7.678   7.972  0.5393  0.1218 -0.8625
  597MOL0     C80515   0.349   7.741   7.872  0.5950 -0.4833  1.4979
  597MOL0     C80516   0.394   7.874   7.879  0.5140  0.0651 -0.7584
  597MOL0     C80517   0.388   7.942   8.004 -0.9142 -0.3447 -0.8700
  597MOL0     O80518   0.453   8.059   8.047 -0.4985 -0.0749  0.0885
  597MOL0     C80519   0.508   8.148   7.941 -0.1362  0.5200  0.4678
  597MOL0     C80520   0.406   8.218   7.854  0.1953  0.0642  0.6702
  597MOL0     C80521   0.458   8.345   7.783  0.0287  0.4359 -0.8017
  597MOL0     C80522   0.357   8.431   7.707 -1.0968  0.0429  0.4374
  597MOL0     C80523   0.414   8.536   7.625  0.4379 -0.9032 -0.9598
  597MOL0     C80524   0.436   8.631   7.558 -0.7794  0.6128 -0.7881
  597MOL0     C80525   0.326   7.879   8.110 -0.5615 -0.4320 -0.7342
  597MOL0     C80526   0.261   7.754   8.094  0.7638  0.0416 -0.0434
  597MOL0     C80527   0.192   7.713   8.212  0.3820  0.3999 -0.4834
  597MOL0     H80528   0.217   7.296   7.735  2.2159  0.0214 -0.6040
  597MOL0     H80529   0.223   7.047   7.764 -0.9950  3.1122 -2.6402
  597MOL0     H80530   0.337   6.848   7.747 -0.3118 -0.0939 -0.3352
  597MOL0     H80531   0.502   6.929   7.736 -0.0366 -0.4760 -0.4663
  597MOL0     H80532   0.489   6.656   7.740  2.0382 -1.8292  0.1217
  597MOL0     H80533   0.470   6.678   7.920 -0.8271  1.6785 -0.0106
  597MOL0     H80534   0.664   6.800   7.945 -2.1797 -1.6960  0.7536
  597MOL0     H80535   0.696   6.815   7.767 -0.7350 -1.6450 -2.8418
  597MOL0     H80536   0.664   6.540   7.905  4.0555 -2.6596  2.7123
  597MOL0     H80537   0.746   6.579   7.751 -0.1556  1.9071 -0.6086
  597MOL0     H80538   0.857   6.667   8.019  1.1646  0.5630  0.2819
  597MOL0     H80539   0.896   6.523   7.944 -1.2122  0.8727  2.6639
  597MOL0     H80540   0.953   6.654   7.728 -0.2872  0.2106  0.8932
  597MOL0     H80541   0.946   6.804   7.802 -1.1704 -0.0892  0.3426
  597MOL0     H80542   1.104   6.573   7.915  2.6151  0.3837  1.6527
  597MOL0     H80543   1.125   6.735   7.967  0.4531 -0.7689 -1.0431
  597MOL0     H80544   1.189   6.634   7.690 -0.4097 -0.1785  0.1437
  597MOL0     H80545   1.190   6.801   7.708 -1.3527 -0.3531 -1.1784
  597MOL0     H80546   1.342   6.819   7.979 -1.7273 -2.8842  3.0361
  597MOL0     H80547   1.631   6.844   8.037 -4.2212 -0.3591  1.6098
  597MOL0     H80548   1.624   6.677   8.113 -0.8280  1.1291  0.3739
  597MOL0     H80549   1.778   6.624   7.904 -3.5335 -1.5010  2.6036
  597MOL0     H80550   1.795   6.790   7.874 -0.6558 -1.0916 -0.8860
  597MOL0     H80551   1.876   6.665   8.138  2.0530  2.6566  1.7269
  597MOL0     H80552   1.890   6.826   8.100  1.9888  1.1449 -2.9368
  597MOL0     H80553   2.095   6.765   8.066  4.5021 -3.9618 -1.1475
  597MOL0     H80554   2.043   6.767   7.905  1.8744 -1.3495 -1.3228
  597MOL0     H80555   2.137   6.321   8.011 -0.0023  0.2255 -0.2386
  597MOL0     H80556   2.352   6.234   7.997  0.6898 -1.1411  1.3340
  597MOL0     H80557   2.780   6.476   7.646 -2.4451 -3.1185  0.3048
  597MOL0     H80558   3.007   6.391   7.568  0.0453 -0.0459 -0.5078
  597MOL0     H80559   3.229   6.076   7.806 -2.1189  1.3303  0.5793
  597MOL0     H80560   3.202   6.045   7.633 -2.6028 -0.8836  1.6524
  597MOL0     H80561   3.392   6.186   7.570  0.0577  1.7021  0.9874
  597MOL0     H80562   3.432   6.206   7.743 -1.1151  2.0575 -0.9367
  597MOL0     H80563   3.452   5.948   7.750  1.4690 -3.1631 -2.1814
  597MOL0     H80564   3.394   5.936   7.589  0.4894  0.1017 -1.3355
  597MOL0     H80565   3.640   6.088   7.666 -1.8870  1.7701 -0.6730
  597MOL0     H80566   3.603   6.049   7.507  1.1413  1.3762  0.0496
  597MOL0     H80567   3.598   5.795   7.590 -0.1371  1.3599  0.1233
  597MOL0     H80568   3.641   5.850   7.749  1.4357 -0.8733  0.1355
  597MOL0     H80569   3.808   5.897   7.498  2.2167  0.5426 -0.9999
  597MOL0     H80570   3.850   5.968   7.652  2.7770 -1.8930 -0.3518
  597MOL0     H80571   4.001   5.749   7.588 -0.0111 -1.6979 -0.2523
  597MOL0     H80572   3.851   5.665   7.598  0.7153  0.3504 -0.7689
  597MOL0     H80573   3.980   5.813   7.837 -0.3554  0.7188  0.4250
  597MOL0     H80574   3.824   5.728   7.838  1.9343  2.7376  3.3038
  597MOL0     H80575   3.045   6.145   7.913 -0.7133 -1.0161  0.7143
  597MOL0     H80576   2.830   6.239   7.999  0.6158  1.4934  0.3586
  597MOL0     H80577   2.502   6.642   7.954  0.5529 -0.4240 -0.5079
  597MOL0     H80578   2.277   6.724   7.980  0.0259 -0.5540 -3.4722
  597MOL0     H80579   0.489   7.112   8.099 -3.5592  1.0825  2.3799
  597MOL0     H80580   0.488   7.352   8.051  2.9746 -0.4133 -1.9845
  597MOL0     H80581   0.382   7.687   7.784 -0.9639 -0.1828  0.7071
  597MOL0     H80582   0.462   7.904   7.800 -0.4878  0.4236 -1.5120
  597MOL0     H80583   0.581   8.100   7.876 -0.2004 -1.1717  1.6013
  597MOL0     H80584   0.557   8.233   7.991  1.3276 -1.4341  2.5734
  597MOL0     H80585   0.324   8.249   7.919 -1.5473 -3.2000  0.2178
  597MOL0     H80586   0.363   8.145   7.785 -0.5293  2.9712 -2.2208
  597MOL0     H80587   0.533   8.312   7.710 -0.5661 -1.9135 -0.4111
  597MOL0     H80588   0.511   8.407   7.857  0.6369 -1.7617  0.6898
  597MOL0     H80589   0.298   8.363   7.644 -0.0366 -0.1608 -0.3658
  597MOL0     H80590   0.283   8.469   7.778 -1.4535  1.1534 -0.4842
  597MOL0     H80591   0.462   8.715   7.497  4.7588 -0.6803 -0.7835
  597MOL0     H80592   0.337   7.933   8.204  0.5318 -2.3357  0.2951
  597MOL0     H80593   0.253   7.640   8.265  0.2060 -0.1575 -1.0379
  597MOL0     H80594   0.180   7.796   8.283 -2.9826  0.0321 -0.4493
  597MOL0     H80595   0.092   7.674   8.191  0.2378  1.4490 -1.8527
  598MOL0     O80596   9.474   1.367   1.650  0.5412 -0.2400  0.2132
  598MOL0     C80597   9.434   1.458   1.728 -0.5509  0.5638  0.8070
  598MOL0     O80598   9.430   1.439   1.866  0.5099 -0.2594 -0.3554
  598MOL0     C80599   9.469   1.329   1.928 -0.4019  0.4585 -0.1065
  598MOL0     C80600   9.600   1.274   1.920  0.1739 -0.7063  0.3342
  598MOL0     C80601   9.625   1.149   1.978 -0.0892 -0.3436 -0.2996
  598MOL0     C80602   9.530   1.078   2.046 -0.2014 -0.8397 -0.5966
  598MOL0     O80603   9.578   0.962   2.106 -0.6703 -0.4944 -0.0879
  598MOL0     C80604   9.620   0.975   2.248 -0.1420 -0.4665  0.3285
  598MOL0     C80605   9.729   0.877   2.300  0.5825  0.2542 -0.2409
  598MOL0     C80606   9.861   0.918   2.227 -0.4866  0.4659  0.3740
  598MOL0     C80607   9.968   0.813   2.246 -0.7547 -0.0608 -0.5562
  598MOL0     C80608  10.091   0.844   2.166 -0.6155  0.3885  0.8348
  598MOL0     C80609  10.186   0.720   2.165 -0.3289 -0.0438  0.2407
  598MOL0     C80610  10.263   0.694   2.293  0.0450 -0.5995 -0.1777
  598MOL0     C80611  10.360   0.809   2.329  0.5761 -0.4596 -0.2936
  598MOL0     N80612  10.408   0.795   2.465  0.1447  0.8576  0.4768
  598MOL0     C80613  10.518   0.720   2.499 -0.4100  0.2235 -1.3078
  598MOL0     C80614  10.538   0.754   2.626  0.0781  0.7607 -0.0584
  598MOL0     C80615  10.652   0.697   2.713 -0.1635  0.3144  0.4038
  598MOL0     C80616  10.708   0.805   2.808 -0.0736  0.3471 -1.0763
  598MOL0     C80617  10.837   0.780   2.882  0.2696  0.4423  0.2148
  598MOL0     C80618  10.826   0.679   3.003 -0.6303 -0.6216 -0.3440
  598MOL0     O80619  10.964   0.637   3.037 -0.1743 -0.7377  0.0011
  598MOL0     C80620  10.980   0.579   3.156  0.5763  0.7981  0.4106
  598MOL0     C80621  11.104   0.581   3.214 -1.0777  0.5169 -0.6743
  598MOL0     C80622  11.128   0.521   3.341 -0.4928  0.2059  0.6381
  598MOL0     C80623  11.041   0.425   3.392  1.0718  0.6165  0.2843
  598MOL0     C80624  11.085   0.340   3.501 -0.2063  0.5081 -0.2236
  598MOL0     O80625  11.220   0.329   3.531  0.0797  0.4693  0.1724
  598MOL0     C80626  11.261   0.288   3.653  0.0279 -0.9392 -0.2298
  598MOL0     C80627  11.194   0.300   3.778 -0.3797  0.7833 -0.2934
  598MOL0     C80628  11.272   0.285   3.900  0.0091  1.0830  0.5336
  598MOL0     C80629  11.408   0.257   3.888 -0.6608 -0.6177  0.4679
  598MOL0     O80630  11.488   0.229   3.997 -0.2152  0.3690  0.0654
  598MOL0     C80631  11.441   0.189   4.121  0.4527 -0.5841 -0.0633
  598MOL0     C80632  11.520   0.279   4.218 -0.1019 -0.4319 -0.1639
  598MOL0     C80633  11.508   0.250   4.372  0.1836  0.2999  0.6518
  598MOL0     C80634  11.580   0.119   4.433  0.7169  0.5280 -0.2575
  598MOL0     C80635  11.527   0.081   4.574 -0.0068 -1.2870 -0.1734
  598MOL0     C80636  11.593  -0.043   4.616 -0.7543  0.5639  0.2614
  598MOL0     C80637  11.532  -0.103   4.734 -0.4800 -0.6438  1.0618
  598MOL0     C80638  11.609  -0.228   4.779  0.7357 -0.1059  0.2247
  598MOL0    Cl80639  11.536  -0.313   4.921 -0.6235 -0.3613 -0.5332
  598MOL0     C80640  11.468   0.230   3.761  0.5151 -0.7060  0.3070
  598MOL0     C80641  11.397   0.246   3.642  0.2171 -0.1632 -0.3707
  598MOL0     O80642  10.993   0.278   3.551 -0.2843  0.4007  0.1653
  598MOL0     C80643  10.915   0.414   3.327 -0.7497 -0.0703  0.3290
  598MOL0     C80644  10.882   0.493   3.216  0.3334 -0.6490  0.4847
  598MOL0     N80645  10.436   0.841   2.662 -1.3636 -0.0093 -0.5150
  598MOL0     N80646  10.362   0.873   2.568 -0.2856 -0.0263  0.4309
  598MOL0     C80647   9.396   1.131   2.063 -0.7310  0.3604 -0.0894
  598MOL0     C80648   9.374   1.261   2.006  0.4558  0.6284  0.2126
  598MOL0     C80649   9.362   1.576   1.667  0.4481  0.7256 -1.0352
  598MOL0     C80650   9.282   1.658   1.753 -0.7197 -0.8590 -0.2473
  598MOL0     C80651   9.206   1.769   1.704 -0.5011  0.4757 -0.0075
  598MOL0     C80652   9.229   1.812   1.574  0.0804  0.1471 -0.2818
  598MOL0     O80653   9.165   1.927   1.539 -0.7232 -1.2120 -0.4681
  598MOL0     C80654   9.081   1.926   1.432 -0.1481  0.3213 -0.2835
  598MOL0     C80655   9.136   2.029   1.332  0.0640  1.5026  0.0218
  598MOL0     C80656   9.071   2.014   1.195  0.9728 -0.4195 -0.0439
  598MOL0     C80657   8.912   2.031   1.203  0.0781  0.6011  0.3433
  598MOL0     C80658   8.855   2.027   1.072 -0.4156  0.1494  0.1405
  598MOL0     C80659   8.809   2.007   0.961  0.1164  0.3393  0.3175
  598MOL0     C80660   9.307   1.742   1.490  0.2269 -0.0354 -0.3951
  598MOL0     C80661   9.374   1.624   1.533 -0.1558 -0.3325 -0.1292
  598MOL0     C80662   9.452   1.552   1.430  0.5856  0.0465 -0.0080
  598MOL0     H80663   9.670   1.331   1.860 -0.1436  1.0678  1.5662
  598MOL0     H80664   9.725   1.108   1.973 -1.1455 -3.3667  1.0027
  598MOL0     H80665   9.655   1.078   2.257  1.1613 -0.8882  0.4372
  598MOL0     H80666   9.538   0.959   2.318  0.9912  1.7673  2.2909
  598MOL0     H80667   9.701   0.773   2.282  0.1702  0.0456  1.4174
  598MOL0     H80668   9.746   0.871   2.408  1.4804  0.6542 -0.3523
  598MOL0     H80669   9.899   1.011   2.270 -0.8463  1.7422 -1.9061
  598MOL0     H80670   9.845   0.956   2.125 -1.5936 -1.7826 -0.3648
  598MOL0     H80671   9.991   0.798   2.352 -1.6579 -4.3336 -0.7614
  598MOL0     H80672   9.929   0.716   2.214  1.0695 -0.9843 -0.1219
  598MOL0     H80673  10.052   0.871   2.067  0.2758  1.7206  0.8223
  598MOL0     H80674  10.139   0.939   2.192 -1.9735  1.4724 -0.4305
  598MOL0     H80675  10.132   0.628   2.140 -3.1288  0.6546  3.1225
  598MOL0     H80676  10.263   0.735   2.088  0.3252  2.4573  1.2773
  598MOL0     H80677  10.322   0.604   2.275 -0.9080 -0.8239 -2.5514
  598MOL0     H80678  10.206   0.678   2.385  0.0336  2.0121  0.3523
  598MOL0     H80679  10.443   0.807   2.258  1.9773  3.3996  0.9827
  598MOL0     H80680  10.314   0.906   2.309  0.2664 -0.3836  0.7326
  598MOL0     H80681  10.576   0.648   2.443  0.1893 -1.7225  1.5627
  598MOL0     H80682  10.619   0.609   2.769  2.1650 -0.7005  0.3033
  598MOL0     H80683  10.726   0.656   2.643 -0.1877  3.2803 -1.5511
  598MOL0     H80684  10.706   0.908   2.771 -2.0639  0.1172 -1.7449
  598MOL0     H80685  10.645   0.825   2.895  1.9236  0.2687  0.4318
  598MOL0     H80686  10.878   0.874   2.921  0.8826  0.5028 -0.5492
  598MOL0     H80687  10.908   0.746   2.807 -0.8747 -2.1760  0.1903
  598MOL0     H80688  10.765   0.594   2.973  1.1496 -1.9703 -0.3510
  598MOL0     H80689  10.785   0.731   3.090 -2.0948 -1.1512 -0.6995
  598MOL0     H80690  11.180   0.642   3.165  1.8237 -0.7552  1.9006
  598MOL0     H80691  11.226   0.532   3.386  1.1982 -2.3066 -2.0413
  598MOL0     H80692  11.086   0.313   3.773 -0.6533 -0.4223  1.2946
  598MOL0     H80693  11.231   0.319   3.995  1.4149  2.4127  0.7115
  598MOL0     H80694  11.335   0.208   4.139  0.0348 -0.6715 -2.1454
  598MOL0     H80695  11.447   0.081   4.141 -2.9616 -0.7485  0.6663
  598MOL0     H80696  11.623   0.290   4.184 -0.0872 -0.2008 -0.0478
  598MOL0     H80697  11.473   0.376   4.198  0.9810 -0.0556 -0.9728
  598MOL0     H80698  11.546   0.338   4.425  1.8327 -0.8798  1.5009
  598MOL0     H80699  11.403   0.235   4.400  0.6483  1.7565  3.6670
  598MOL0     H80700  11.688   0.135   4.440  0.5040  2.0186 -0.2136
  598MOL0     H80701  11.566   0.038   4.360 -2.7773  1.6012 -0.9091
  598MOL0     H80702  11.418   0.068   4.581  0.0207 -0.7285  4.3584
  598MOL0     H80703  11.555   0.152   4.652  1.4023 -2.4097  0.3905
  598MOL0     H80704  11.586  -0.127   4.547  0.9022 -2.2778  3.2958
  598MOL0     H80705  11.699  -0.024   4.636  0.0433  0.2183 -3.0322
  598MOL0     H80706  11.439  -0.149   4.700  0.2157 -2.0944  1.0550
  598MOL0     H80707  11.508  -0.031   4.813 -2.0959  0.3846 -0.2920
  598MOL0     H80708  11.618  -0.299   4.696 -0.2926 -3.6396  2.8628
  598MOL0     H80709  11.711  -0.195   4.798  0.3555  1.5891 -0.4534
  598MOL0     H80710  11.574   0.206   3.755  0.1979 -1.7978 -1.7669
  598MOL0     H80711  11.441   0.240   3.543 -3.1593  1.1673 -2.1428
  598MOL0     H80712  10.840   0.345   3.364 -1.5943  0.5902 -0.1159
  598MOL0     H80713  10.791   0.485   3.158  0.9595 -1.9896 -0.3468
  598MOL0     H80714   9.332   1.089   2.140  0.2583  1.8077  1.6203
  598MOL0     H80715   9.275   1.299   2.030  0.3680  0.5536 -0.0331
  598MOL0     H80716   9.290   1.645   1.860  0.2128 -2.7214 -0.5015
  598MOL0     H80717   9.136   1.829   1.763 -0.0487 -0.6889  1.7881
  598MOL0     H80718   8.986   1.961   1.473  0.7165 -2.2385  4.5838
  598MOL0     H80719   9.083   1.823   1.394 -0.5667  0.4814 -0.7540
  598MOL0     H80720   9.239   2.008   1.301 -0.6683 -1.3098 -0.8065
  598MOL0     H80721   9.132   2.129   1.378  0.7989  0.6988  1.9608
  598MOL0     H80722   9.085   1.914   1.151  4.4191 -1.1214  2.2323
  598MOL0     H80723   9.114   2.085   1.125 -1.9125  2.1634  0.5631
  598MOL0     H80724   8.854   1.956   1.258 -1.1459  2.0497  1.0862
  598MOL0     H80725   8.879   2.123   1.252 -1.8711 -0.7663  1.7796
  598MOL0     H80726   8.779   1.993   0.860  0.9486 -1.6530  0.2981
  598MOL0     H80727   9.325   1.774   1.388 -0.1154 -2.8876 -1.4627
  598MOL0     H80728   9.422   1.450   1.407  0.4303  0.6232 -2.6642
  598MOL0     H80729   9.458   1.610   1.337  2.6571  0.8158  0.5274
  598MOL0     H80730   9.559   1.550   1.454 -0.0098  1.5309  3.3995
  599MOL0     O80731   3.779   2.290   9.528  0.8096  0.4942  0.6903
  599MOL0     C80732   3.725   2.180   9.527  0.5342  0.3484  0.2255
  599MOL0     O80733   3.588   2.170   9.494  0.1586  0.5874 -0.7875
  599MOL0     C80734   3.522   2.281   9.432  0.2125 -0.0074 -0.3312
  599MOL0     C80735   3.398   2.336   9.493 -1.6239 -0.1408  0.2111
  599MOL0     C80736   3.343   2.453   9.429 -1.1380 -1.1871 -0.5730
  599MOL0     C80737   3.407   2.515   9.311 -0.5928 -1.6962 -0.3464
  599MOL0     O80738   3.371   2.640   9.264  0.3017  0.2996 -0.1243
  599MOL0     C80739   3.278   2.721   9.341  0.5069  0.2428 -0.0763
  599MOL0     C80740   3.205   2.824   9.262 -0.0434 -0.7823  0.6077
  599MOL0     C80741   3.143   2.766   9.145 -0.7400  0.0193  0.3028
  599MOL0     C80742   3.024   2.847   9.095 -0.0362  0.0958  0.1539
  599MOL0     C80743   2.970   2.788   8.964 -0.4873  0.2875 -0.4753
  599MOL0     C80744   2.834   2.862   8.930  0.3651  0.3942 -0.0553
  599MOL0     C80745   2.762   2.824   8.807 -0.0645  0.7330 -0.5083
  599MOL0     C80746   2.830   2.857   8.674  0.0670 -0.5730  0.0447
  599MOL0     N80747   2.845   2.997   8.667  0.1458 -0.6496  0.4003
  599MOL0     C80748   2.958   3.062   8.627 -0.4260  0.6522  1.1534
  599MOL0     C80749   2.941   3.195   8.655 -0.6740  0.4597  1.4445
  599MOL0     C80750   3.040   3.308   8.636 -0.1432 -0.3821 -0.3317
  599MOL0     C80751   3.117   3.326   8.766 -0.3614  0.0381  0.5864
  599MOL0     C80752   3.031   3.337   8.896 -1.0961 -0.4070  0.1634
  599MOL0     C80753   3.112   3.383   9.018  0.2742 -0.0251 -1.5646
  599MOL0     O80754   3.106   3.528   9.022  0.2116  0.3243  0.1777
  599MOL0     C80755   2.984   3.577   9.058  0.3616  0.2474  0.1852
  599MOL0     C80756   2.934   3.546   9.187 -0.3122  0.0228  0.1435
  599MOL0     C80757   2.808   3.590   9.223  0.7750  0.0222  0.0615
  599MOL0     C80758   2.734   3.674   9.137 -0.4331  0.2387 -0.2036
  599MOL0     C80759   2.606   3.720   9.186  0.3748 -0.3560  0.0338
  599MOL0     O80760   2.530   3.801   9.096  0.1670  0.2882 -0.8247
  599MOL0     C80761   2.398   3.828   9.121 -1.0564  0.2726 -0.4575
  599MOL0     C80762   2.313   3.728   9.158  0.6757  0.0519 -0.1337
  599MOL0     C80763   2.192   3.764   9.202  0.8524 -0.2748 -0.5005
  599MOL0     C80764   2.139   3.890   9.211 -0.3322 -0.1603  0.0532
  599MOL0     O80765   2.013   3.919   9.240  0.8436 -0.0316  0.2472
  599MOL0     C80766   1.962   3.875   9.371 -0.5362  0.8412 -0.6119
  599MOL0     C80767   1.827   3.931   9.404 -0.7506 -0.7375  0.1227
  599MOL0     C80768   1.821   4.089   9.392  0.0574 -0.8264 -0.2521
  599MOL0     C80769   1.688   4.150   9.437  1.6856  0.0856  0.2593
  599MOL0     C80770   1.688   4.293   9.491  0.6270  0.0344  0.4842
  599MOL0     C80771   1.550   4.317   9.566 -0.3495  0.0370  0.5590
  599MOL0     C80772   1.552   4.448   9.643 -0.7271 -0.3733  0.2603
  599MOL0     C80773   1.560   4.577   9.555 -0.1471 -0.4433  0.8940
  599MOL0    Cl80774   1.509   4.728   9.646 -0.3524  0.4896 -0.3400
  599MOL0     C80775   2.221   3.989   9.154 -0.4246  0.3537  0.3580
  599MOL0     C80776   2.348   3.955   9.120 -0.2827 -0.1201 -0.4891
  599MOL0     O80777   2.570   3.680   9.298  0.0155 -0.1287  0.3251
  599MOL0     C80778   2.792   3.714   9.016  0.1971  0.6659 -0.1912
  599MOL0     C80779   2.908   3.659   8.975 -0.4406 -0.6590 -0.0912
  599MOL0     N80780   2.812   3.199   8.701 -1.4023 -0.9214 -0.2176
  599MOL0     N80781   2.755   3.088   8.691 -0.0187  0.6811  0.7125
  599MOL0     C80782   3.516   2.445   9.252 -0.4222 -0.0407 -0.1049
  599MOL0     C80783   3.568   2.334   9.312  0.2714  1.4168 -0.2331
  599MOL0     C80784   3.805   2.081   9.599  0.0936 -1.1877 -0.3884
  599MOL0     C80785   3.920   2.112   9.672  0.3804 -0.2455 -0.6638
  599MOL0     C80786   3.998   2.014   9.737 -0.4666  0.2644 -1.1239
  599MOL0     C80787   3.975   1.882   9.717  0.5370  1.3544  0.3928
  599MOL0     O80788   4.048   1.783   9.778  0.1509 -0.5148  0.4480
  599MOL0     C80789   4.125   1.706   9.684 -0.1672  0.5507 -0.6858
  599MOL0     C80790   4.240   1.644   9.771 -0.7824  0.5098  0.2570
  599MOL0     C80791   4.177   1.538   9.864  0.5129  0.2195 -0.4092
  599MOL0     C80792   4.268   1.446   9.951  0.3879  0.1953  0.5162
  599MOL0     C80793   4.371   1.375   9.877 -0.9942 -0.8842 -0.1440
  599MOL0     C80794   4.467   1.334   9.813  0.8082  0.0098 -0.0880
  599MOL0     C80795   3.873   1.844   9.639  0.5827 -0.2691 -0.6503
  599MOL0     C80796   3.783   1.937   9.587 -0.0066 -0.4970 -0.2386
  599MOL0     C80797   3.681   1.870   9.500 -0.1843  0.2817  0.2890
  599MOL0     H80798   3.354   2.286   9.579 -0.0031 -1.1428  0.4973
  599MOL0     H80799   3.263   2.503   9.483  0.0961 -0.8752  1.0267
  599MOL0     H80800   3.198   2.666   9.390  1.7941 -0.7109  1.0381
  599MOL0     H80801   3.325   2.780   9.421 -0.9474 -0.4663  1.3596
  599MOL0     H80802   3.259   2.913   9.228  0.4960 -0.4243  2.2876
  599MOL0     H80803   3.121   2.865   9.320 -0.3040  4.3123 -2.6887
  599MOL0     H80804   3.106   2.668   9.178  1.7754 -0.5976  1.5484
  599MOL0     H80805   3.214   2.758   9.062 -0.7007 -2.4545  0.4987
  599MOL0     H80806   2.948   2.840   9.173 -1.9206  0.1740 -1.5994
  599MOL0     H80807   3.044   2.953   9.077 -0.1202 -0.2566 -2.3530
  599MOL0     H80808   3.050   2.807   8.891  1.5417  0.0082  1.5623
  599MOL0     H80809   2.964   2.680   8.979  0.5305  0.5706  2.6390
  599MOL0     H80810   2.769   2.857   9.018 -0.1954 -2.0690 -0.5291
  599MOL0     H80811   2.858   2.967   8.912  0.5225  0.4022  0.2065
  599MOL0     H80812   2.656   2.851   8.799 -1.5126 -3.5702  0.9503
  599MOL0     H80813   2.755   2.715   8.814 -2.8803  0.6584 -2.7932
  599MOL0     H80814   2.925   2.806   8.658  1.6128  2.6186 -1.9456
  599MOL0     H80815   2.769   2.821   8.590 -0.9624  0.5919  0.2646
  599MOL0     H80816   3.057   3.025   8.602  1.0541  4.6730  0.3606
  599MOL0     H80817   3.099   3.307   8.544  0.1693 -1.1518 -0.1338
  599MOL0     H80818   2.972   3.392   8.621  0.0016 -0.2270 -0.1134
  599MOL0     H80819   3.188   3.245   8.783  1.2855  1.4755  0.7899
  599MOL0     H80820   3.173   3.420   8.765  0.4959 -0.4663  0.3514
  599MOL0     H80821   2.995   3.236   8.919 -3.6947  0.8705  2.1624
  599MOL0     H80822   2.943   3.401   8.890 -0.2608  0.9962  1.8670
  599MOL0     H80823   3.216   3.350   9.009 -0.3107 -1.6783 -2.7315
  599MOL0     H80824   3.063   3.334   9.103  1.2649  0.8515 -0.4515
  599MOL0     H80825   2.994   3.491   9.259  1.9305  1.4332 -0.5393
  599MOL0     H80826   2.792   3.571   9.329  1.7812 -0.5341  0.1289
  599MOL0     H80827   2.338   3.623   9.171  1.4893  0.4288  1.5229
  599MOL0     H80828   2.123   3.685   9.228 -1.6308  2.1700  0.8893
  599MOL0     H80829   1.964   3.768   9.391  0.3158  1.1606  1.2453
  599MOL0     H80830   2.029   3.900   9.453  1.7678  0.3874 -2.2578
  599MOL0     H80831   1.762   3.892   9.325 -0.3368  2.5416 -2.0290
  599MOL0     H80832   1.790   3.896   9.501  1.0979  0.0773  1.1771
  599MOL0     H80833   1.894   4.129   9.463  0.2852 -2.9668  0.7883
  599MOL0     H80834   1.842   4.123   9.290  3.1498 -0.6634  0.3278
  599MOL0     H80835   1.642   4.092   9.517 -0.8384  1.6496  0.0192
  599MOL0     H80836   1.622   4.143   9.350  2.8511  1.8100 -0.8418
  599MOL0     H80837   1.700   4.369   9.413  0.7290  1.7036  2.0632
  599MOL0     H80838   1.765   4.313   9.565  1.1680  2.2451 -0.5843
  599MOL0     H80839   1.460   4.312   9.505 -0.2272  0.1667  0.3655
  599MOL0     H80840   1.533   4.233   9.634 -1.6162 -0.7930 -0.7120
  599MOL0     H80841   1.637   4.457   9.711  0.0952  0.2987 -0.8204
  599MOL0     H80842   1.460   4.448   9.702 -1.0412 -2.4965 -0.1224
  599MOL0     H80843   1.658   4.595   9.510 -1.8536  4.3053 -1.7004
  599MOL0     H80844   1.501   4.565   9.464 -1.9822 -2.2435  2.2311
  599MOL0     H80845   2.187   4.091   9.164  0.8655  0.8862 -0.5454
  599MOL0     H80846   2.406   4.040   9.083  3.8577 -1.7920  1.5062
  599MOL0     H80847   2.755   3.796   8.955 -0.8430  1.3442  1.3063
  599MOL0     H80848   2.951   3.682   8.877  1.2266 -0.6480  0.6034
  599MOL0     H80849   3.574   2.496   9.176 -1.4615  2.5485  0.7199
  599MOL0     H80850   3.657   2.291   9.267  0.9163  3.0804 -0.6116
  599MOL0     H80851   3.961   2.210   9.698  2.4806 -1.1646 -0.2677
  599MOL0     H80852   4.087   2.039   9.793 -1.5305  0.8166  0.3805
  599MOL0     H80853   4.180   1.764   9.609  0.0404  1.3899  0.1010
  599MOL0     H80854   4.068   1.630   9.630 -0.0398  1.7871 -2.6607
  599MOL0     H80855   4.291   1.725   9.826  0.9866  1.9044 -3.1149
  599MOL0     H80856   4.316   1.594   9.710 -0.2565 -0.3513  1.5823
  599MOL0     H80857   4.132   1.465   9.797  0.5987  0.3959 -0.6564
  599MOL0     H80858   4.098   1.579   9.928 -1.5273 -2.1389 -1.2774
  599MOL0     H80859   4.318   1.517  10.018  1.0586  2.0128 -1.7864
  599MOL0     H80860   4.212   1.368  10.004 -2.0059  0.7566 -1.0142
  599MOL0     H80861   4.552   1.279   9.780  0.3314 -1.1540  0.5636
  599MOL0     H80862   3.871   1.736   9.631  0.7864 -0.2303 -1.3751
  599MOL0     H80863   3.684   1.761   9.503  1.1137  0.1923 -2.0504
  599MOL0     H80864   3.580   1.897   9.534  0.7582  1.4679  2.3294
  599MOL0     H80865   3.702   1.909   9.400 -1.3089 -2.4225 -1.1090
  600MOL0     O80866  10.266   6.238   4.719 -1.1936  0.4585 -0.2518
  600MOL0     C80867  10.193   6.235   4.816 -0.2399  0.7570 -0.7220
  600MOL0     O80868  10.063   6.278   4.821  0.0536  0.4632 -0.6621
  600MOL0     C80869   9.996   6.307   4.698 -0.1857  0.2888 -1.0832
  600MOL0     C80870   9.958   6.204   4.614 -0.2723  0.8324 -0.2168
  600MOL0     C80871   9.891   6.242   4.491 -0.0334  0.2570 -0.3288
  600MOL0     C80872   9.863   6.373   4.456  0.6788  1.1916 -0.8660
  600MOL0     O80873   9.781   6.392   4.347 -0.3347  0.3852  0.1622
  600MOL0     C80874   9.759   6.522   4.314 -0.0674 -0.7235 -0.1675
  600MOL0     C80875   9.673   6.522   4.195  0.1393 -0.9040  0.0124
  600MOL0     C80876   9.653   6.665   4.136 -0.4858  0.3979  0.7556
  600MOL0     C80877   9.505   6.703   4.151  0.3491  0.0716  0.1538
  600MOL0     C80878   9.462   6.816   4.049  0.2701 -0.2628 -0.3383
  600MOL0     C80879   9.543   6.944   4.074 -0.3302 -0.9420  0.0668
  600MOL0     C80880   9.470   7.072   4.024 -0.8749 -0.3251  0.0453
  600MOL0     C80881   9.476   7.060   3.870  0.0334 -0.6493 -1.3254
  600MOL0     N80882   9.602   7.098   3.811  0.9840  0.2625  0.5693
  600MOL0     C80883   9.665   7.031   3.706  0.2696 -0.4948  0.1564
  600MOL0     C80884   9.753   7.125   3.668  0.7651 -0.3058  0.2270
  600MOL0     C80885   9.860   7.109   3.563 -0.6152  0.1236 -0.2086
  600MOL0     C80886   9.824   7.122   3.420  0.4343  0.0734 -0.4801
  600MOL0     C80887   9.714   7.227   3.396 -1.0540  0.2200 -0.1907
  600MOL0     C80888   9.658   7.211   3.253 -0.0955 -1.1722 -0.9156
  600MOL0     O80889   9.570   7.108   3.226  0.1589 -0.5162  0.1584
  600MOL0     C80890   9.432   7.132   3.223 -0.1371 -0.3646  0.3304
  600MOL0     C80891   9.356   7.034   3.160  0.5274 -0.0022  0.2334
  600MOL0     C80892   9.223   7.049   3.138  0.5810  0.5300 -0.5521
  600MOL0     C80893   9.145   7.154   3.190  0.5049 -0.6540 -0.0120
  600MOL0     C80894   9.002   7.176   3.161  0.0033  0.7382  0.0788
  600MOL0     O80895   8.932   7.087   3.079 -0.3401 -0.4827 -0.2188
  600MOL0     C80896   8.805   7.107   3.039  0.4807 -0.2460  0.7347
  600MOL0     C80897   8.779   7.089   2.905  0.2036 -0.8259  0.1053
  600MOL0     C80898   8.649   7.091   2.857  0.6770  0.1439 -0.4800
  600MOL0     C80899   8.543   7.135   2.942 -0.6759  0.1445  0.8870
  600MOL0     O80900   8.417   7.117   2.883 -0.2052 -0.7127 -0.4653
  600MOL0     C80901   8.309   7.153   2.974  0.5275 -0.3460 -0.5544
  600MOL0     C80902   8.168   7.130   2.901  0.0538  0.1641  0.2782
  600MOL0     C80903   8.115   6.989   2.922 -0.1580  0.8438  0.6272
  600MOL0     C80904   8.198   6.876   2.846  0.2745 -0.4546  0.3254
  600MOL0     C80905   8.184   6.745   2.927 -0.0314  0.3295 -0.6487
  600MOL0     C80906   8.051   6.689   2.974  0.3755 -0.3914 -0.1203
  600MOL0     C80907   8.061   6.549   3.028  0.2250 -0.1224 -0.1237
  600MOL0     C80908   7.925   6.494   3.057 -0.2378 -0.7804 -0.1456
  600MOL0    Cl80909   7.833   6.418   2.925 -0.4194 -0.2146 -0.0511
  600MOL0     C80910   8.571   7.181   3.072 -0.9846 -0.4081 -0.0698
  600MOL0     C80911   8.707   7.158   3.118 -0.3190 -0.4466 -0.3584
  600MOL0     O80912   8.952   7.266   3.230  0.1635  0.2545 -0.1362
  600MOL0     C80913   9.217   7.258   3.259 -0.4037 -0.6176  0.4556
  600MOL0     C80914   9.361   7.245   3.270 -0.4259  0.2363  0.5868
  600MOL0     N80915   9.741   7.238   3.746  0.5498  0.1524  0.4063
  600MOL0     N80916   9.644   7.223   3.826 -0.1276  0.1602  0.1876
  600MOL0     C80917   9.914   6.471   4.542  0.3723  0.4461  0.4508
  600MOL0     C80918   9.970   6.438   4.664  0.1344  0.7880  0.0026
  600MOL0     C80919  10.264   6.164   4.924  0.5735 -0.6840 -0.2049
  600MOL0     C80920  10.320   6.042   4.897 -0.1963  0.0036  0.2347
  600MOL0     C80921  10.391   5.973   4.995 -0.4278  0.1495  0.6729
  600MOL0     C80922  10.399   6.027   5.124 -0.4895 -0.3022 -0.9137
  600MOL0     O80923  10.466   5.963   5.234 -0.2581 -0.4649 -0.0058
  600MOL0     C80924  10.564   5.855   5.199  0.8207  0.8176 -0.3359
  600MOL0     C80925  10.654   5.809   5.313 -0.1789  1.0818  0.5025
  600MOL0     C80926  10.585   5.753   5.435  1.1343  0.7660 -0.4439
  600MOL0     C80927  10.650   5.774   5.575 -0.7842  0.1062 -0.1997
  600MOL0     C80928  10.764   5.688   5.597  0.6819 -0.6027 -0.0529
  600MOL0     C80929  10.857   5.612   5.607  0.2224 -0.6107 -0.7469
  600MOL0     C80930  10.337   6.149   5.150 -0.7675  0.1683  0.5196
  600MOL0     C80931  10.266   6.216   5.050 -0.8752  0.2230  0.1854
  600MOL0     C80932  10.201   6.350   5.094  0.7403  0.5853  0.0583
  600MOL0     H80933   9.965   6.096   4.617 -1.0662  0.7533 -0.8149
  600MOL0     H80934   9.838   6.167   4.433  1.9202 -0.7730 -0.8762
  600MOL0     H80935   9.711   6.572   4.399 -1.0803 -1.3768 -0.3456
  600MOL0     H80936   9.850   6.578   4.289 -1.3680  1.6916  0.1451
  600MOL0     H80937   9.578   6.469   4.207 -0.2785 -0.1391  0.1404
  600MOL0     H80938   9.732   6.468   4.121  0.5173 -1.0999  0.4480
  600MOL0     H80939   9.675   6.656   4.029 -1.0491 -0.9928  0.7446
  600MOL0     H80940   9.721   6.740   4.177 -0.2047  1.2005 -1.0599
  600MOL0     H80941   9.442   6.619   4.119 -0.6866  2.0153 -3.4066
  600MOL0     H80942   9.482   6.719   4.257 -1.9225 -2.1574  0.1009
  600MOL0     H80943   9.469   6.794   3.942 -6.1948  1.6260 -1.5822
  600MOL0     H80944   9.357   6.845   4.060  1.1977  3.0917  1.1230
  600MOL0     H80945   9.555   6.957   4.182 -1.5249  1.0713  0.0142
  600MOL0     H80946   9.639   6.933   4.023 -0.3579  1.9740 -0.7767
  600MOL0     H80947   9.525   7.162   4.054  2.5898 -1.7310 -1.5589
  600MOL0     H80948   9.371   7.079   4.069 -0.0385  0.8026  1.8162
  600MOL0     H80949   9.461   6.957   3.835  2.1733 -1.3722 -0.2535
  600MOL0     H80950   9.397   7.121   3.825 -2.2211 -0.0122  2.9932
  600MOL0     H80951   9.639   6.931   3.672  2.3779 -0.3784 -2.0156
  600MOL0     H80952   9.938   7.181   3.587  0.5398 -0.0048 -3.2117
  600MOL0     H80953   9.910   7.015   3.585 -0.3296 -0.3108 -2.4857
  600MOL0     H80954   9.913   7.150   3.364 -0.2562 -0.1589 -1.7162
  600MOL0     H80955   9.791   7.024   3.383  1.0454  0.0584 -0.9942
  600MOL0     H80956   9.761   7.321   3.423  0.1252 -0.6380  0.8196
  600MOL0     H80957   9.630   7.212   3.465 -1.7796 -0.9281 -1.2800
  600MOL0     H80958   9.740   7.192   3.182 -0.6000 -3.4106 -0.9460
  600MOL0     H80959   9.612   7.306   3.223  0.8878 -0.5740 -0.5956
  600MOL0     H80960   9.416   6.955   3.115 -0.4729 -0.0238 -1.1598
  600MOL0     H80961   9.178   6.967   3.081 -2.3354  0.8486  1.1083
  600MOL0     H80962   8.861   7.060   2.840 -1.1995 -3.9228 -0.4372
  600MOL0     H80963   8.627   7.072   2.753 -0.8695  3.2778 -0.8578
  600MOL0     H80964   8.307   7.099   3.069  0.9027  1.4489  0.5115
  600MOL0     H80965   8.323   7.259   2.997 -0.2011  0.1313 -2.1250
  600MOL0     H80966   8.081   7.193   2.922 -1.3736 -2.1475  1.9063
  600MOL0     H80967   8.178   7.145   2.793 -0.5593 -1.5239 -0.0539
  600MOL0     H80968   8.123   6.964   3.029 -0.3686 -1.3604  0.1894
  600MOL0     H80969   8.008   6.983   2.903 -0.0498  1.6648 -0.2830
  600MOL0     H80970   8.304   6.902   2.832  0.6763 -2.2769 -0.2946
  600MOL0     H80971   8.169   6.853   2.743 -0.0982  0.9212  0.0959
  600MOL0     H80972   8.243   6.758   3.018  0.0855 -0.2002 -0.6443
  600MOL0     H80973   8.239   6.661   2.883  3.1893 -0.3198  3.8672
  600MOL0     H80974   8.005   6.752   3.051 -2.5340 -1.7297 -0.6157
  600MOL0     H80975   7.975   6.699   2.896  2.0905  0.6411 -1.7354
  600MOL0     H80976   8.125   6.547   3.117 -1.5141 -1.1380  1.1706
  600MOL0     H80977   8.107   6.476   2.962  1.9663 -0.6186  1.5396
  600MOL0     H80978   7.943   6.411   3.125  1.5344 -0.3973 -0.1090
  600MOL0     H80979   7.855   6.569   3.094 -0.5670 -1.2532  0.2088
  600MOL0     H80980   8.499   7.232   3.135  0.5017  0.9373  0.6148
  600MOL0     H80981   8.723   7.197   3.219 -0.4585  1.9591 -1.1995
  600MOL0     H80982   9.164   7.340   3.307  0.5292  0.0182  0.4434
  600MOL0     H80983   9.427   7.304   3.332  0.1517 -0.6617  0.8535
  600MOL0     H80984   9.902   6.577   4.519 -0.1570  0.2287 -0.3004
  600MOL0     H80985   9.996   6.517   4.734  1.9510 -1.4017  1.9668
  600MOL0     H80986  10.318   5.992   4.801  1.9990  0.3229 -0.0194
  600MOL0     H80987  10.439   5.880   4.965 -1.0305  0.3315 -0.9741
  600MOL0     H80988  10.615   5.879   5.105 -0.7736 -2.1061 -2.1133
  600MOL0     H80989  10.509   5.765   5.169 -0.8178  1.5481  0.3843
  600MOL0     H80990  10.707   5.898   5.345 -2.5920  3.0549 -0.6253
  600MOL0     H80991  10.727   5.738   5.274 -1.4548  0.4259 -0.8042
  600MOL0     H80992  10.574   5.646   5.414  0.2536  0.8687 -0.5125
  600MOL0     H80993  10.484   5.794   5.434  1.1078  0.8742  1.7723
  600MOL0     H80994  10.675   5.880   5.585  2.1309 -0.6341  1.5457
  600MOL0     H80995  10.581   5.742   5.653 -0.6660  0.5491  0.0861
  600MOL0     H80996  10.931   5.537   5.622  0.9079  0.0169 -0.9639
  600MOL0     H80997  10.351   6.185   5.251  1.0352 -1.7375  1.0123
  600MOL0     H80998  10.266   6.431   5.057  0.1679  0.5177 -1.1592
  600MOL0     H80999  10.099   6.371   5.061 -0.4917  1.5824  4.0358
  600MOL0     H81000  10.203   6.355   5.203  0.2959 -2.4226  0.2780
  601MOL0     O81001  10.801   7.210   5.884 -0.2916 -0.5189 -0.6871
  601MOL0     C81002  10.860   7.281   5.803 -0.8922  0.7215 -0.2382
  601MOL0     O81003  10.938   7.228   5.701  0.3568  0.0196 -0.2982
  601MOL0     C81004  10.940   7.092   5.673 -0.0646  0.0915 -0.2064
  601MOL0     C81005  10.985   6.996   5.760 -0.5956  0.2431  0.1695
  601MOL0     C81006  11.006   6.860   5.728 -0.5709 -0.0488  0.6142
  601MOL0     C81007  10.964   6.814   5.603 -0.1554 -0.6355 -0.3980
  601MOL0     O81008  10.994   6.685   5.582 -0.1915  0.3668  0.2657
  601MOL0     C81009  11.008   6.652   5.442 -0.6264 -0.0403  0.1636
  601MOL0     C81010  11.080   6.520   5.434 -0.4503  0.3926 -0.7532
  601MOL0     C81011  11.224   6.513   5.492  0.5489  0.1528  0.7586
  601MOL0     C81012  11.319   6.525   5.367 -0.9409 -0.5805 -0.3318
  601MOL0     C81013  11.460   6.504   5.416  0.4010 -0.2471 -0.7341
  601MOL0     C81014  11.547   6.556   5.306  0.4129  0.1470 -0.7247
  601MOL0     C81015  11.570   6.706   5.306 -0.2751  0.2673 -0.0065
  601MOL0     C81016  11.657   6.769   5.421  0.2775  0.8065  1.2937
  601MOL0     N81017  11.800   6.717   5.414 -0.2674  0.5359  0.6236
  601MOL0     C81018  11.893   6.717   5.310  1.5051  0.8759 -0.3379
  601MOL0     C81019  12.012   6.682   5.371  0.0736 -0.7950 -0.8429
  601MOL0     C81020  12.130   6.643   5.294  0.4218  0.2667  0.2238
  601MOL0     C81021  12.201   6.766   5.228 -0.1138  1.1410  0.4899
  601MOL0     C81022  12.344   6.736   5.172  1.2629 -0.6675 -0.6187
  601MOL0     C81023  12.419   6.865   5.167  0.9472  0.5809  0.2342
  601MOL0     O81024  12.554   6.850   5.123 -0.1666 -0.1612  0.1651
  601MOL0     C81025  12.647   6.949   5.156 -0.4600 -0.3277  0.6034
  601MOL0     C81026  12.764   6.947   5.076  0.6644  0.3737 -0.2821
  601MOL0     C81027  12.869   7.048   5.074 -0.1147  0.3505 -0.6868
  601MOL0     C81028  12.846   7.157   5.157 -0.0044 -0.9694  0.6189
  601MOL0     C81029  12.940   7.267   5.157 -0.5915 -0.5179 -0.6717
  601MOL0     O81030  12.911   7.377   5.242  0.9391 -0.0716  0.0094
  601MOL0     C81031  13.001   7.471   5.248 -0.1005 -0.1944  0.3476
  601MOL0     C81032  13.088   7.487   5.354  0.4477  0.9632 -0.5246
  601MOL0     C81033  13.198   7.575   5.343 -0.0670 -0.1237  0.3268
  601MOL0     C81034  13.209   7.662   5.233  1.0264 -0.3314 -0.1975
  601MOL0     O81035  13.306   7.763   5.233 -0.1812  0.6202 -0.9983
  601MOL0     C81036  13.337   7.831   5.125  0.6897  0.0235 -0.7491
  601MOL0     C81037  13.484   7.874   5.120  0.3640 -0.2217  0.2336
  601MOL0     C81038  13.584   7.770   5.069  0.6681  0.7244 -0.3199
  601MOL0     C81039  13.729   7.832   5.070 -0.0099  0.5756  0.3648
  601MOL0     C81040  13.834   7.721   5.037  0.1822 -0.3995 -0.3249
  601MOL0     C81041  13.860   7.721   4.889  1.2944 -1.2642  0.0603
  601MOL0     C81042  13.955   7.605   4.848 -0.1107  0.5154  0.1545
  601MOL0     C81043  13.956   7.585   4.694 -0.0021 -0.2428  0.2173
  601MOL0    Cl81044  14.037   7.734   4.617 -0.1884  0.2917  0.3293
  601MOL0     C81045  13.109   7.658   5.138  0.9032 -0.7252 -0.5938
  601MOL0     C81046  13.005   7.570   5.142  0.6343  0.3592 -0.2484
  601MOL0     O81047  13.038   7.269   5.088 -0.9974  0.8237  0.1840
  601MOL0     C81048  12.718   7.166   5.223 -0.6422 -0.3562 -0.0378
  601MOL0     C81049  12.624   7.071   5.214  0.0577  0.2549 -0.2366
  601MOL0     N81050  12.005   6.669   5.505 -0.1992 -0.2675  0.9639
  601MOL0     N81051  11.873   6.690   5.527  0.0255 -0.4667  0.7106
  601MOL0     C81052  10.901   6.900   5.518 -0.0010  0.8998  0.1552
  601MOL0     C81053  10.897   7.038   5.550  0.7264 -0.0416  0.3523
  601MOL0     C81054  10.879   7.422   5.846 -0.4242 -1.3191  0.5040
  601MOL0     C81055  10.992   7.491   5.795 -0.5024 -0.3761 -0.2306
  601MOL0     C81056  11.039   7.620   5.838  0.0366  0.3157 -0.3678
  601MOL0     C81057  10.946   7.695   5.920 -0.5863  0.6445 -1.3115
  601MOL0     O81058  10.980   7.824   5.960 -0.0044 -0.2372 -0.6804
  601MOL0     C81059  11.114   7.870   5.946  0.5675  0.0029 -0.2583
  601MOL0     C81060  11.128   7.997   6.034 -0.8410 -0.3437 -0.1689
  601MOL0     C81061  11.160   7.965   6.185  0.5844  0.6066  0.4990
  601MOL0     C81062  11.282   7.878   6.212  0.1925 -0.4076 -0.2296
  601MOL0     C81063  11.345   7.893   6.338 -0.1115  0.4561  0.2529
  601MOL0     C81064  11.382   7.886   6.455  0.3135 -0.2391  0.8859
  601MOL0     C81065  10.829   7.626   5.966 -0.0492 -0.2970  0.5345
  601MOL0     C81066  10.792   7.492   5.934  0.6127 -0.8646  0.2540
  601MOL0     C81067  10.665   7.435   5.983 -0.0224 -0.2083  0.1231
  601MOL0     H81068  11.026   7.024   5.857  1.9253 -0.9858 -0.4566
  601MOL0     H81069  11.053   6.788   5.794 -1.4989 -2.4801 -1.2218
  601MOL0     H81070  10.907   6.636   5.401 -0.9024  1.5238  0.1706
  601MOL0     H81071  11.061   6.734   5.393 -2.9369  2.0831  0.9937
  601MOL0     H81072  11.077   6.489   5.329 -3.4702 -1.0676 -0.3699
  601MOL0     H81073  11.029   6.446   5.497 -0.0403  1.3093  0.7166
  601MOL0     H81074  11.256   6.418   5.535 -2.2837 -2.5712 -2.6225
  601MOL0     H81075  11.231   6.599   5.560 -1.5446  2.3285 -1.5444
  601MOL0     H81076  11.283   6.443   5.304 -2.4594 -0.7272  0.6664
  601MOL0     H81077  11.301   6.625   5.327  2.7119  1.0724  1.6313
  601MOL0     H81078  11.479   6.568   5.502  0.2198  0.4697 -1.2139
  601MOL0     H81079  11.472   6.400   5.448  0.3535  0.1012  0.4349
  601MOL0     H81080  11.640   6.505   5.331 -0.4180 -1.3996 -0.6984
  601MOL0     H81081  11.507   6.521   5.210 -1.4106 -1.4359  0.5436
  601MOL0     H81082  11.478   6.766   5.310  0.2754  1.1100  2.8911
  601MOL0     H81083  11.619   6.730   5.211 -2.2733 -0.0302 -1.1677
  601MOL0     H81084  11.645   6.876   5.402 -4.0311  0.4987  1.3079
  601MOL0     H81085  11.611   6.746   5.517 -1.4498  1.6869  0.7211
  601MOL0     H81086  11.870   6.724   5.204  0.9304 -3.6776 -0.7006
  601MOL0     H81087  12.206   6.611   5.366 -1.3849  0.0213  2.1237
  601MOL0     H81088  12.104   6.569   5.218  0.4036  1.5383 -1.0497
  601MOL0     H81089  12.141   6.807   5.146  1.3487  0.4465 -0.9730
  601MOL0     H81090  12.197   6.842   5.307 -1.4231  0.0955  1.4651
  601MOL0     H81091  12.334   6.688   5.074 -0.0734  2.0007 -1.9019
  601MOL0     H81092  12.393   6.671   5.245 -2.1298  1.0817  3.5987
  601MOL0     H81093  12.412   6.902   5.270 -0.5631 -3.7181  1.8759
  601MOL0     H81094  12.375   6.932   5.092  1.0411 -0.2397 -0.5763
  601MOL0     H81095  12.787   6.867   5.006  0.1453  0.6531 -0.7822
  601MOL0     H81096  12.959   7.025   5.017  0.5207 -0.5146  0.6139
  601MOL0     H81097  13.076   7.420   5.438 -1.0034  0.4742 -1.0767
  601MOL0     H81098  13.261   7.591   5.430  0.3588  4.0131 -0.5343
  601MOL0     H81099  13.336   7.776   5.030  0.4541  0.4650 -1.0085
  601MOL0     H81100  13.272   7.918   5.112  1.3968  0.3692 -2.2581
  601MOL0     H81101  13.494   7.969   5.066 -0.3077  0.4727  1.2856
  601MOL0     H81102  13.524   7.911   5.215  1.3709  2.1018 -1.0096
  601MOL0     H81103  13.579   7.686   5.139 -1.7114 -1.6116 -3.0536
  601MOL0     H81104  13.551   7.731   4.972  0.5106 -1.3719  0.5306
  601MOL0     H81105  13.754   7.882   5.164 -0.4961  3.2363 -0.8204
  601MOL0     H81106  13.724   7.909   4.992 -3.1523  1.0319  0.8624
  601MOL0     H81107  13.793   7.625   5.068 -0.5310 -0.3082 -0.9613
  601MOL0     H81108  13.918   7.735   5.107 -0.3093  1.4699 -0.0594
  601MOL0     H81109  13.761   7.717   4.842  1.1261 -0.8608  0.3682
  601MOL0     H81110  13.897   7.820   4.861 -0.4458 -1.4428 -3.2680
  601MOL0     H81111  13.928   7.507   4.889  1.5312 -1.1004 -2.3567
  601MOL0     H81112  14.050   7.630   4.896  0.8076 -0.5499 -1.0529
  601MOL0     H81113  13.993   7.488   4.659  1.8353  0.4945  0.0105
  601MOL0     H81114  13.855   7.577   4.653  0.8727  0.7955 -2.3500
  601MOL0     H81115  13.125   7.732   5.060 -3.6166 -1.1106 -2.1472
  601MOL0     H81116  12.937   7.564   5.057 -0.3113 -0.8478  0.5514
  601MOL0     H81117  12.695   7.265   5.260  0.9854 -0.0665  0.2789
  601MOL0     H81118  12.527   7.088   5.260  0.6021 -2.4037  2.2078
  601MOL0     H81119  10.870   6.863   5.422  0.4766 -1.2030  0.7666
  601MOL0     H81120  10.863   7.120   5.488  0.9131 -0.4879 -0.3570
  601MOL0     H81121  11.063   7.431   5.739 -0.9002 -2.0284  0.9439
  601MOL0     H81122  11.137   7.658   5.810  0.1025  1.4285  1.2248
  601MOL0     H81123  11.135   7.896   5.842  0.8810  2.4180  0.3493
  601MOL0     H81124  11.189   7.801   5.985  1.5969  0.7738 -0.8238
  601MOL0     H81125  11.042   8.065   6.025  0.1607  1.0472  0.4534
  601MOL0     H81126  11.214   8.054   5.999 -1.1120  0.1320 -0.0738
  601MOL0     H81127  11.076   7.908   6.226 -1.7453  3.1765 -0.4402
  601MOL0     H81128  11.166   8.055   6.247  0.2183  0.9446  0.0493
  601MOL0     H81129  11.247   7.775   6.198  0.8054 -1.3633  3.8080
  601MOL0     H81130  11.353   7.903   6.133  0.4550 -1.3112 -0.2915
  601MOL0     H81131  11.422   7.875   6.554  5.0010  1.0487 -0.5703
  601MOL0     H81132  10.748   7.681   6.012 -0.6449  0.3000 -1.1385
  601MOL0     H81133  10.600   7.403   5.901  0.6700 -2.2188  0.3040
  601MOL0     H81134  10.691   7.346   6.041  1.2275 -0.7976 -1.2766
  601MOL0     H81135  10.601   7.495   6.048  1.0294  2.2474 -1.0007
  602MOL0     O81136   0.298   1.825   7.227 -0.0324 -0.0533  0.6166
  602MOL0     C81137   0.406   1.769   7.245 -0.3806 -0.5456 -0.5565
  602MOL0     O81138   0.463   1.671   7.161  0.0676 -0.7111 -0.6523
  602MOL0     C81139   0.386   1.610   7.075 -0.6929  0.4028  0.0607
  602MOL0     C81140   0.385   1.468   7.079  0.8265 -0.2685 -0.5022
  602MOL0     C81141   0.316   1.387   6.974  0.3852  0.0789 -0.0602
  602MOL0     C81142   0.260   1.450   6.867  0.8731 -0.2912  0.7531
  602MOL0     O81143   0.190   1.370   6.774 -0.0026 -0.1289  0.4475
  602MOL0     C81144   0.203   1.412   6.638 -0.3651 -0.1496 -1.4421
  602MOL0     C81145   0.146   1.301   6.550 -0.1743 -0.0215 -0.0959
  602MOL0     C81146   0.233   1.183   6.563  0.5040 -0.0453 -0.2333
  602MOL0     C81147   0.192   1.072   6.468 -0.0619  1.4316 -0.0976
  602MOL0     C81148   0.278   0.942   6.471  0.0101 -1.0859 -0.2508
  602MOL0     C81149   0.266   0.883   6.613 -0.1976  0.4312 -0.2949
  602MOL0     C81150   0.122   0.856   6.668 -0.4304  0.3371  0.0430
  602MOL0     C81151   0.059   0.734   6.604 -0.1377  0.2046  0.7341
  602MOL0     N81152  -0.050   0.770   6.507  0.5168  0.0256 -0.5299
  602MOL0     C81153  -0.186   0.773   6.559 -0.3269 -0.5308  0.1841
  602MOL0     C81154  -0.257   0.815   6.448  0.1705  0.5385 -0.6716
  602MOL0     C81155  -0.409   0.825   6.447 -0.0093 -0.0391 -0.0639
  602MOL0     C81156  -0.479   0.703   6.376  0.1032 -0.0619  0.1818
  602MOL0     C81157  -0.632   0.741   6.365 -0.3216 -0.1677  0.3364
  602MOL0     C81158  -0.714   0.606   6.330 -0.7314 -0.3908  0.4987
  602MOL0     O81159  -0.683   0.565   6.195  0.7601 -0.8938  0.1612
  602MOL0     C81160  -0.780   0.593   6.099 -0.7088  0.4798 -0.4370
  602MOL0     C81161  -0.741   0.685   6.004 -0.4107  0.5068  0.3743
  602MOL0     C81162  -0.828   0.723   5.901 -0.5125  1.5074 -0.8094
  602MOL0     C81163  -0.942   0.640   5.871 -0.0793 -0.6969  2.0897
  602MOL0     C81164  -1.018   0.679   5.748  0.5380  0.5854  0.4911
  602MOL0     O81165  -1.134   0.605   5.722  0.4377 -0.5711 -0.1781
  602MOL0     C81166  -1.221   0.670   5.637  1.0766  0.0254 -0.2369
  602MOL0     C81167  -1.290   0.589   5.549  0.5584  0.7767  0.6256
  602MOL0     C81168  -1.379   0.636   5.460 -0.3011  0.6910  0.6644
  602MOL0     C81169  -1.405   0.770   5.450  0.5427 -0.0504 -0.0722
  602MOL0     O81170  -1.506   0.807   5.370  0.0698 -0.2770 -0.1414
  602MOL0     C81171  -1.461   0.900   5.274 -0.3522 -0.0152  0.3552
  602MOL0     C81172  -1.570   0.923   5.170 -1.1935 -1.4179 -0.2152
  602MOL0     C81173  -1.619   1.069   5.157  0.1439 -0.7408  0.5537
  602MOL0     C81174  -1.690   1.090   5.018 -0.0071 -0.0120  0.0480
  602MOL0     C81175  -1.784   1.206   5.033  0.2783  0.3978  0.1611
  602MOL0     C81176  -1.876   1.213   4.920  0.3257  0.4121  0.1077
  602MOL0     C81177  -1.959   1.340   4.942  0.5604 -1.1308 -1.4146
  602MOL0     C81178  -1.939   1.448   4.845  0.1539  0.1072  1.5256
  602MOL0    Cl81179  -2.001   1.389   4.688  0.3704  0.0309 -0.2048
  602MOL0     C81180  -1.339   0.863   5.534  0.3052  0.5789  0.6628
  602MOL0     C81181  -1.244   0.808   5.623 -0.7572  0.3795 -1.0142
  602MOL0     O81182  -0.962   0.749   5.657 -0.5028  0.5129 -0.0954
  602MOL0     C81183  -0.979   0.540   5.969 -0.1616  0.0481 -0.1517
  602MOL0     C81184  -0.891   0.518   6.080  1.1699  0.6739 -0.2677
  602MOL0     N81185  -0.172   0.820   6.350 -0.9081 -0.5183 -0.5617
  602MOL0     N81186  -0.051   0.802   6.379 -0.0056  0.0690 -0.1175
  602MOL0     C81187   0.267   1.591   6.862 -0.9018  0.3532 -0.1377
  602MOL0     C81188   0.335   1.671   6.958  1.2192  0.5708  0.6645
  602MOL0     C81189   0.491   1.805   7.365 -0.1061  1.0626  0.0821
  602MOL0     C81190   0.545   1.695   7.447  0.3761 -0.2884  0.3141
  602MOL0     C81191   0.638   1.717   7.549  0.9552 -0.0217 -0.6201
  602MOL0     C81192   0.684   1.846   7.565  0.6837  0.4551 -0.7522
  602MOL0     O81193   0.780   1.893   7.643 -0.7972  0.6411  0.0280
  602MOL0     C81194   0.864   1.804   7.717 -1.0290 -0.4390 -0.1398
  602MOL0     C81195   0.968   1.711   7.646 -0.2514 -0.1774  0.3332
  602MOL0     C81196   1.021   1.772   7.518 -0.6545 -0.2280  0.1013
  602MOL0     C81197   1.123   1.888   7.530  0.2655  0.7288  0.2523
  602MOL0     C81198   1.238   1.857   7.602 -0.7447  0.2200  0.4110
  602MOL0     C81199   1.344   1.839   7.658  0.1252 -0.1605 -0.1301
  602MOL0     C81200   0.622   1.956   7.496 -0.4908 -0.5537  0.2267
  602MOL0     C81201   0.524   1.938   7.399 -0.8581 -0.8326 -0.6326
  602MOL0     C81202   0.462   2.058   7.330  0.4373  0.4739  0.2688
  602MOL0     H81203   0.446   1.430   7.161  1.4968  4.2520  1.3685
  602MOL0     H81204   0.320   1.279   6.982 -0.9080  0.0663  0.5678
  602MOL0     H81205   0.133   1.495   6.628  0.3297  0.4262 -1.6164
  602MOL0     H81206   0.303   1.446   6.612 -0.8251  1.0782 -1.6672
  602MOL0     H81207   0.131   1.338   6.448 -0.4509  0.7690  0.2245
  602MOL0     H81208   0.050   1.286   6.600 -0.3628  2.7421  0.5095
  602MOL0     H81209   0.228   1.150   6.667  1.7842  1.5650  0.3764
  602MOL0     H81210   0.336   1.211   6.541 -0.6591  3.9612 -1.5402
  602MOL0     H81211   0.087   1.047   6.487  0.1660 -0.4323 -1.0163
  602MOL0     H81212   0.202   1.107   6.365  0.7528  3.5168  0.6516
  602MOL0     H81213   0.231   0.875   6.399 -1.8071  0.4231 -0.5338
  602MOL0     H81214   0.381   0.958   6.437 -0.6894  0.7069 -1.6164
  602MOL0     H81215   0.333   0.797   6.620  2.4118  2.4358  0.8164
  602MOL0     H81216   0.314   0.953   6.682 -2.9939 -0.1676  2.5163
  602MOL0     H81217   0.070   0.952   6.656  0.8862  1.0393 -0.2140
  602MOL0     H81218   0.129   0.840   6.776  0.5024  4.2273  0.7059
  602MOL0     H81219   0.136   0.676   6.553 -1.0549  1.8272 -2.8425
  602MOL0     H81220   0.014   0.676   6.685 -1.2700  2.0349  1.4928
  602MOL0     H81221  -0.213   0.731   6.655  2.7962  0.4256  1.6393
  602MOL0     H81222  -0.432   0.833   6.553  3.1228 -0.8581  0.7813
  602MOL0     H81223  -0.439   0.915   6.392 -0.1475  0.8413  1.4228
  602MOL0     H81224  -0.441   0.675   6.277 -0.6237 -1.0579  0.1678
  602MOL0     H81225  -0.468   0.611   6.434  1.8669 -1.1115 -1.6727
  602MOL0     H81226  -0.647   0.822   6.294  2.7779  2.3830  2.3067
  602MOL0     H81227  -0.670   0.792   6.454 -0.3540  2.0914 -0.9060
  602MOL0     H81228  -0.820   0.622   6.351 -0.1407  1.0471  2.8004
  602MOL0     H81229  -0.695   0.522   6.396  1.6714 -1.1591 -1.0546
  602MOL0     H81230  -0.642   0.729   6.012 -0.1856  0.0359  0.2079
  602MOL0     H81231  -0.785   0.797   5.835 -0.3427  2.3964  0.2569
  602MOL0     H81232  -1.278   0.482   5.563 -1.0645  0.0319 -2.6625
  602MOL0     H81233  -1.428   0.567   5.392  1.1674  2.1429 -2.0849
  602MOL0     H81234  -1.443   0.980   5.346  0.5865 -3.4306  4.2563
  602MOL0     H81235  -1.367   0.876   5.224 -0.5324 -1.3589  0.6189
  602MOL0     H81236  -1.524   0.903   5.073  3.1621  0.0280  1.3058
  602MOL0     H81237  -1.663   0.869   5.190 -1.7111  0.2194  2.3979
  602MOL0     H81238  -1.695   1.084   5.235 -0.3647  0.3445 -0.1196
  602MOL0     H81239  -1.545   1.148   5.172  2.1172 -2.6066  1.1294
  602MOL0     H81240  -1.747   0.997   5.006  3.2455 -2.5973  2.3849
  602MOL0     H81241  -1.625   1.099   4.930 -0.0215 -0.0961  0.0277
  602MOL0     H81242  -1.730   1.301   5.027  0.1323  0.3888 -2.4883
  602MOL0     H81243  -1.846   1.202   5.123 -1.7762 -0.4495 -1.2256
  602MOL0     H81244  -1.824   1.221   4.824 -0.6624 -0.9153 -0.5859
  602MOL0     H81245  -1.941   1.125   4.927  0.5586  0.3251  1.3193
  602MOL0     H81246  -1.944   1.371   5.046  2.0752 -3.5281 -0.8203
  602MOL0     H81247  -2.064   1.317   4.961  1.6574 -2.8839  4.9442
  602MOL0     H81248  -1.990   1.544   4.855 -2.4072 -0.9513 -0.2703
  602MOL0     H81249  -1.832   1.467   4.830 -0.6492  2.8367 -2.2881
  602MOL0     H81250  -1.362   0.969   5.540 -0.0817  0.4846  0.8700
  602MOL0     H81251  -1.198   0.873   5.696 -1.4405  0.7581 -0.9153
  602MOL0     H81252  -1.071   0.483   5.957  1.4869 -3.2031  1.4144
  602MOL0     H81253  -0.920   0.444   6.154 -2.7113  0.8556 -1.3914
  602MOL0     H81254   0.213   1.637   6.780 -0.1170 -1.0985 -1.5128
  602MOL0     H81255   0.329   1.780   6.953 -2.7450  0.4596 -1.9251
  602MOL0     H81256   0.510   1.599   7.414 -3.5944  1.8690 -2.5563
  602MOL0     H81257   0.686   1.636   7.603  1.7960 -0.0125 -1.3235
  602MOL0     H81258   0.796   1.747   7.781 -2.1217  0.2606 -0.6529
  602MOL0     H81259   0.924   1.868   7.782 -0.0958  0.3335 -1.7099
  602MOL0     H81260   0.903   1.631   7.608 -2.8272  1.6086  0.6718
  602MOL0     H81261   1.046   1.671   7.711  0.9570  1.8181  0.1942
  602MOL0     H81262   0.941   1.807   7.451  0.3020  1.2462 -0.3174
  602MOL0     H81263   1.069   1.691   7.462  2.0408  0.6990  0.9387
  602MOL0     H81264   1.149   1.932   7.433 -0.4410 -0.5134 -0.5286
  602MOL0     H81265   1.077   1.972   7.583 -0.5003  1.5274 -1.5847
  602MOL0     H81266   1.443   1.828   7.695  0.3757  0.8922 -0.4443
  602MOL0     H81267   0.663   2.056   7.507  0.5870 -0.6255 -2.3931
  602MOL0     H81268   0.479   2.147   7.391 -4.5929  0.6118  1.8962
  602MOL0     H81269   0.483   2.070   7.224  2.3908 -0.4259  0.5066
  602MOL0     H81270   0.355   2.037   7.328  0.3479  0.9665 -2.2518
  603MOL0     O81271   5.648   8.998   2.065  0.4759  0.9410  0.7095
  603MOL0     C81272   5.633   9.112   2.108  0.3379  0.1460  0.1236
  603MOL0     O81273   5.638   9.153   2.241  0.9522  0.0943  0.2148
  603MOL0     C81274   5.658   9.061   2.338  0.7278 -0.3775  0.9238
  603MOL0     C81275   5.797   9.027   2.355 -0.2708  0.1475  0.3255
  603MOL0     C81276   5.842   8.940   2.459  0.5302 -0.2475  0.8385
  603MOL0     C81277   5.736   8.904   2.552 -0.0376 -0.4666 -0.4181
  603MOL0     O81278   5.758   8.833   2.673  0.6879  0.3687  0.9235
  603MOL0     C81279   5.888   8.794   2.712 -0.0504  0.5750  0.3068
  603MOL0     C81280   5.888   8.733   2.852  0.1385  0.6044 -0.3350
  603MOL0     C81281   5.857   8.576   2.849 -0.1958  0.8089 -0.5785
  603MOL0     C81282   5.722   8.555   2.777  0.2440  0.0334 -0.4632
  603MOL0     C81283   5.680   8.408   2.795 -0.0549  0.1996 -0.0161
  603MOL0     C81284   5.532   8.398   2.744 -0.6720 -0.6428 -0.2797
  603MOL0     C81285   5.469   8.263   2.764 -0.1895  0.1898  0.5706
  603MOL0     C81286   5.332   8.257   2.695  0.0545  0.2906  0.6425
  603MOL0     N81287   5.243   8.362   2.744 -0.2593 -0.3348  0.3251
  603MOL0     C81288   5.239   8.492   2.690 -0.2457 -0.2933 -0.6852
  603MOL0     C81289   5.155   8.559   2.772 -0.6003 -0.1918  0.1331
  603MOL0     C81290   5.115   8.711   2.757 -1.0747 -0.5523 -0.1905
  603MOL0     C81291   5.247   8.803   2.773 -0.1063 -0.3997  0.3389
  603MOL0     C81292   5.297   8.771   2.911 -0.3895  0.8134 -0.1776
  603MOL0     C81293   5.386   8.881   2.975  0.1388 -0.6402 -0.1510
  603MOL0     O81294   5.328   9.013   2.987  0.0637 -0.4476 -0.6136
  603MOL0     C81295   5.419   9.105   2.961  0.1477  0.6998 -0.6779
  603MOL0     C81296   5.488   9.161   3.059 -0.2906 -0.1210  0.0838
  603MOL0     C81297   5.590   9.255   3.028  0.5836 -0.2492 -1.0448
  603MOL0     C81298   5.622   9.295   2.902  0.6010  0.2234  0.1302
  603MOL0     C81299   5.732   9.398   2.879  0.1435 -0.1619 -1.0417
  603MOL0     O81300   5.791   9.441   2.996 -0.5081 -0.5739 -0.6230
  603MOL0     C81301   5.868   9.560   2.995 -0.3141 -0.0815 -0.9775
  603MOL0     C81302   5.805   9.689   3.000  0.1298  0.7763 -0.1817
  603MOL0     C81303   5.870   9.806   3.017 -0.4971  0.6954  0.9379
  603MOL0     C81304   6.004   9.809   3.028 -1.1096  0.4984 -0.0103
  603MOL0     O81305   6.066   9.934   3.023 -0.2054 -0.1619 -0.4083
  603MOL0     C81306   6.087   9.994   3.156  0.5139  0.5367  0.6269
  603MOL0     C81307   6.139  10.138   3.154  0.3240 -0.1902  0.4444
  603MOL0     C81308   6.035  10.245   3.099  1.0139  0.6103 -0.7505
  603MOL0     C81309   6.105  10.381   3.057  0.6962 -0.4238 -0.4586
  603MOL0     C81310   6.011  10.469   2.977  0.5462 -0.2828 -0.0690
  603MOL0     C81311   6.090  10.591   2.921 -0.9860  0.2222 -0.6165
  603MOL0     C81312   6.098  10.704   3.019  0.4714  0.3868 -0.3524
  603MOL0     C81313   6.129  10.837   2.953  1.2728 -0.3175  0.3762
  603MOL0    Cl81314   6.285  10.822   2.885 -0.1510  0.6293  0.4236
  603MOL0     C81315   6.072   9.679   3.020  0.2701 -0.2010 -0.4275
  603MOL0     C81316   6.005   9.556   3.007  0.2199 -0.6849  0.7629
  603MOL0     O81317   5.764   9.430   2.766  0.3527 -0.6733  0.5626
  603MOL0     C81318   5.535   9.247   2.798 -0.9254  0.2923 -0.4818
  603MOL0     C81319   5.438   9.156   2.834 -0.8822  0.4914  0.0865
  603MOL0     N81320   5.117   8.474   2.873 -0.6449 -0.5444 -0.5098
  603MOL0     N81321   5.185   8.362   2.869  0.0669 -0.8984  1.0956
  603MOL0     C81322   5.601   8.949   2.541  0.2487 -0.7190 -0.3040
  603MOL0     C81323   5.559   9.031   2.434 -0.4189  0.3827 -0.5892
  603MOL0     C81324   5.598   9.210   2.000  0.0733  0.2384  0.3269
  603MOL0     C81325   5.549   9.158   1.881  0.7191  0.4938  0.3960
  603MOL0     C81326   5.508   9.243   1.770  0.3953  0.2522 -0.0256
  603MOL0     C81327   5.531   9.383   1.771  0.5707  0.3014  0.3389
  603MOL0     O81328   5.491   9.462   1.672  0.2932 -0.3579  0.3426
  603MOL0     C81329   5.505   9.606   1.673  0.5102 -0.5650 -0.2466
  603MOL0     C81330   5.613   9.634   1.577  0.1969  0.4530  0.3176
  603MOL0     C81331   5.574   9.771   1.507  0.0336  0.0482 -0.3198
  603MOL0     C81332   5.703   9.805   1.434 -0.1899 -0.5231 -0.7614
  603MOL0     C81333   5.682   9.926   1.362 -0.6347 -0.1729 -0.2224
  603MOL0     C81334   5.660  10.024   1.301 -0.6097 -0.0185  0.2059
  603MOL0     C81335   5.592   9.427   1.892  0.3485  0.2432  0.3330
  603MOL0     C81336   5.622   9.346   2.006 -0.6784  0.3110  0.3333
  603MOL0     C81337   5.676   9.423   2.132  0.2204 -0.3528  0.4047
  603MOL0     H81338   5.862   9.075   2.283 -1.3866  1.3649  0.0932
  603MOL0     H81339   5.946   8.915   2.476  1.0430  0.8075 -0.5939
  603MOL0     H81340   5.934   8.722   2.644 -1.8391 -3.4162  2.9006
  603MOL0     H81341   5.941   8.889   2.716 -2.5556  2.2203 -2.1390
  603MOL0     H81342   5.820   8.787   2.918  1.2682 -2.2151  3.5312
  603MOL0     H81343   5.990   8.743   2.892  0.5727  0.4406 -1.3707
  603MOL0     H81344   5.841   8.537   2.950 -2.0078  0.1171 -1.0809
  603MOL0     H81345   5.940   8.517   2.811 -0.3902  1.5544 -2.2997
  603MOL0     H81346   5.650   8.626   2.819  1.1274  0.3077  0.6562
  603MOL0     H81347   5.725   8.563   2.668 -2.8542  3.5291 -0.4756
  603MOL0     H81348   5.750   8.344   2.741  3.0398  2.5409  0.9551
  603MOL0     H81349   5.706   8.380   2.897  0.6047  0.3259 -0.1418
  603MOL0     H81350   5.479   8.474   2.801 -0.3003 -0.6794  0.1200
  603MOL0     H81351   5.531   8.414   2.636  1.2905 -0.0932 -0.2660
  603MOL0     H81352   5.462   8.247   2.872 -2.6802  1.6692  0.7222
  603MOL0     H81353   5.532   8.182   2.728  0.7453  0.8516  0.6798
  603MOL0     H81354   5.333   8.268   2.586 -1.6377  0.9237  0.6726
  603MOL0     H81355   5.299   8.156   2.723  0.2041 -0.0006 -0.1987
  603MOL0     H81356   5.290   8.539   2.607  2.7614  0.1471  1.2719
  603MOL0     H81357   5.071   8.739   2.661  0.5105  1.2345 -0.4615
  603MOL0     H81358   5.049   8.734   2.840  1.9974  0.0205  2.2951
  603MOL0     H81359   5.324   8.771   2.702  2.5610 -0.9686  3.2839
  603MOL0     H81360   5.237   8.912   2.766  2.3469 -0.2024 -1.3919
  603MOL0     H81361   5.356   8.681   2.890 -2.4655 -0.1230 -2.5395
  603MOL0     H81362   5.215   8.745   2.979 -1.5671 -2.7140 -2.6781
  603MOL0     H81363   5.483   8.879   2.925  1.6015 -2.6820  2.4622
  603MOL0     H81364   5.418   8.853   3.076  1.2675 -0.8344 -0.5515
  603MOL0     H81365   5.478   9.139   3.165  2.0695  2.6177  1.0228
  603MOL0     H81366   5.635   9.298   3.118  1.8375 -1.1246 -1.2255
  603MOL0     H81367   5.698   9.693   2.983  0.4617  1.0406 -2.7104
  603MOL0     H81368   5.820   9.902   3.020  0.8051  1.5087 -1.1413
  603MOL0     H81369   5.994   9.993   3.212  1.7966  0.5080  2.8745
  603MOL0     H81370   6.156   9.926   3.207  0.4356  0.2239  0.3194
  603MOL0     H81371   6.160  10.168   3.257  0.6532  1.4151 -0.0585
  603MOL0     H81372   6.235  10.133   3.102  1.9180  0.7681  3.1215
  603MOL0     H81373   6.001  10.216   2.999 -2.4602 -0.9533  0.7153
  603MOL0     H81374   5.949  10.254   3.166  0.4821  1.6208 -1.5490
  603MOL0     H81375   6.189  10.362   2.988  1.0949  0.6147 -0.2787
  603MOL0     H81376   6.135  10.435   3.147 -0.0121  0.2418 -0.6114
  603MOL0     H81377   5.924  10.502   3.035 -2.1677 -0.6210 -3.6034
  603MOL0     H81378   5.971  10.409   2.895 -1.2512  0.5572  0.1458
  603MOL0     H81379   6.184  10.573   2.869 -1.0141  1.1491 -0.9954
  603MOL0     H81380   6.029  10.626   2.837 -0.6471 -0.3368 -1.1029
  603MOL0     H81381   6.187  10.684   3.079  1.8872  2.2108 -1.7058
  603MOL0     H81382   6.003  10.701   3.073  0.1166 -1.2571 -1.0113
  603MOL0     H81383   6.048  10.860   2.884 -0.7823 -1.8113  2.1387
  603MOL0     H81384   6.127  10.914   3.031 -0.5333 -1.2830  1.3680
  603MOL0     H81385   6.178   9.675   3.042 -0.1745  1.2740  2.5328
  603MOL0     H81386   6.056   9.460   3.008  1.2287 -0.2012 -1.1415
  603MOL0     H81387   5.562   9.262   2.694  0.7788 -5.2268 -1.1338
  603MOL0     H81388   5.390   9.098   2.756 -0.1661 -0.0048  0.0131
  603MOL0     H81389   5.521   8.905   2.600  0.5740 -0.6572  0.1878
  603MOL0     H81390   5.455   9.060   2.416 -1.3278 -1.2857  1.5897
  603MOL0     H81391   5.539   9.053   1.856 -1.0715  0.6856  0.1952
  603MOL0     H81392   5.461   9.204   1.680  1.9540  0.1464 -0.8460
  603MOL0     H81393   5.515   9.639   1.777  1.9327 -2.4404  0.2503
  603MOL0     H81394   5.410   9.650   1.639 -0.2241 -1.5058  0.5331
  603MOL0     H81395   5.610   9.546   1.512 -0.6126 -1.8007  3.2128
  603MOL0     H81396   5.716   9.630   1.613  1.4018 -0.2808 -2.8931
  603MOL0     H81397   5.560   9.847   1.584  2.7765  1.8422 -1.4184
  603MOL0     H81398   5.483   9.759   1.448 -1.1079  0.0490  1.3776
  603MOL0     H81399   5.784   9.828   1.503 -1.2841  0.0709  0.3649
  603MOL0     H81400   5.734   9.726   1.364 -2.9364  0.6213 -3.5413
  603MOL0     H81401   5.653  10.103   1.230  1.1442  1.0081  1.0858
  603MOL0     H81402   5.624   9.527   1.920 -1.1495  0.3432  1.8359
  603MOL0     H81403   5.758   9.369   2.181  0.6646 -0.2942 -0.2516
  603MOL0     H81404   5.695   9.526   2.101 -2.4593 -0.1986 -1.0267
  603MOL0     H81405   5.587   9.440   2.193  1.5424 -1.4557  2.7628
  604MOL0     O81406   4.259   6.984   9.540  0.6097  0.5828 -0.2451
  604MOL0     C81407   4.376   7.007   9.536 -0.2764 -0.3292  0.4502
  604MOL0     O81408   4.432   7.133   9.564 -0.0928  0.5825 -0.0234
  604MOL0     C81409   4.362   7.234   9.619  0.7859 -0.6123 -0.8398
  604MOL0     C81410   4.404   7.360   9.586  0.7184  0.8770  0.5013
  604MOL0     C81411   4.344   7.474   9.628 -0.0284  0.4333 -0.5136
  604MOL0     C81412   4.241   7.465   9.724  0.7527  0.5314 -1.0713
  604MOL0     O81413   4.164   7.563   9.784 -0.0489 -0.1619  0.2547
  604MOL0     C81414   4.226   7.691   9.790 -0.1352 -0.3042 -1.1202
  604MOL0     C81415   4.196   7.754   9.926 -1.3130  1.0621 -0.3431
  604MOL0     C81416   4.312   7.704  10.019  0.7105 -0.4186  0.2457
  604MOL0     C81417   4.288   7.755  10.160 -1.1829  0.9007 -1.6203
  604MOL0     C81418   4.427   7.766  10.239  0.6657 -0.0522  0.6366
  604MOL0     C81419   4.405   7.731  10.378 -0.1367  0.4086 -1.0445
  604MOL0     C81420   4.328   7.848  10.446 -0.2750  0.1134  0.2551
  604MOL0     C81421   4.315   7.839  10.602  0.8404  0.5202  0.0631
  604MOL0     N81422   4.451   7.826  10.666 -0.0331  0.5413  0.4978
  604MOL0     C81423   4.514   7.716  10.702  0.3910  0.2002 -0.2487
  604MOL0     C81424   4.620   7.757  10.772 -0.5256  0.8679 -0.2967
  604MOL0     C81425   4.733   7.688  10.829  0.1050  0.3192  0.5776
  604MOL0     C81426   4.698   7.604  10.942 -0.4214 -0.3145 -0.3401
  604MOL0     C81427   4.803   7.494  10.966 -0.8421  0.2015  0.8150
  604MOL0     C81428   4.783   7.417  11.099 -0.1734  0.3915 -0.2901
  604MOL0     O81429   4.907   7.371  11.145  0.2016 -0.4241 -0.2541
  604MOL0     C81430   4.948   7.245  11.102 -1.3214  0.0338  0.3616
  604MOL0     C81431   5.052   7.202  11.181 -0.4051  0.1668 -0.3947
  604MOL0     C81432   5.129   7.082  11.145  0.1384 -0.1576  0.9063
  604MOL0     C81433   5.096   7.010  11.029  0.0133 -0.2537 -0.4032
  604MOL0     C81434   5.160   6.889  10.983  0.2400 -0.4406 -0.1572
  604MOL0     O81435   5.269   6.851  11.055 -0.1670 -0.4773 -0.4791
  604MOL0     C81436   5.329   6.724  11.047 -0.8693  0.1810  0.7684
  604MOL0     C81437   5.471   6.725  11.055 -0.4323  0.3612  0.1763
  604MOL0     C81438   5.537   6.603  11.055  0.0371  0.5162  0.6846
  604MOL0     C81439   5.477   6.482  11.023 -0.5075 -0.4895  0.0295
  604MOL0     O81440   5.561   6.373  11.016  0.1247  0.6813  0.6361
  604MOL0     C81441   5.523   6.266  10.928  0.2664 -0.1415 -0.3073
  604MOL0     C81442   5.640   6.181  10.895  0.2589  0.4319 -0.2880
  604MOL0     C81443   5.759   6.244  10.830  0.0820 -0.3004  0.6388
  604MOL0     C81444   5.889   6.186  10.880  0.2522  0.2076  0.0536
  604MOL0     C81445   5.911   6.044  10.832  0.1397 -0.1018 -0.5468
  604MOL0     C81446   6.060   6.005  10.827 -0.1447 -0.7602 -0.6294
  604MOL0     C81447   6.077   5.857  10.797 -0.2634 -0.3911  0.4165
  604MOL0     C81448   6.211   5.806  10.842  0.2731  0.1990  0.2716
  604MOL0    Cl81449   6.207   5.626  10.825  0.1221 -0.1281  0.1705
  604MOL0     C81450   5.339   6.475  11.011 -0.1438  0.1341 -0.8120
  604MOL0     C81451   5.261   6.599  11.019  1.0914  0.2318 -0.2837
  604MOL0     O81452   5.121   6.828  10.884 -0.5628 -0.1590  0.2416
  604MOL0     C81453   4.980   7.060  10.959 -0.3447  0.3485 -0.4511
  604MOL0     C81454   4.911   7.174  10.989  0.2208  0.5301  0.1182
  604MOL0     N81455   4.623   7.901  10.762 -0.4412  0.3422 -0.1571
  604MOL0     N81456   4.517   7.938  10.704 -0.3867 -0.5399 -0.4469
  604MOL0     C81457   4.207   7.332   9.766 -0.4898  0.0101  0.2146
  604MOL0     C81458   4.256   7.225   9.712 -0.0262 -0.1725  0.0414
  604MOL0     C81459   4.462   6.888   9.528  0.0202  0.0461  0.3117
  604MOL0     C81460   4.428   6.781   9.446  0.1338 -0.5767  0.4091
  604MOL0     C81461   4.517   6.677   9.431 -0.6937 -0.0037 -1.1603
  604MOL0     C81462   4.641   6.668   9.501 -0.0316  1.5077 -0.0153
  604MOL0     O81463   4.711   6.545   9.473 -0.2176 -0.7664  0.1150
  604MOL0     C81464   4.826   6.535   9.548 -0.7420  1.1707 -0.1395
  604MOL0     C81465   4.877   6.396   9.497 -0.8625 -0.0708 -1.7250
  604MOL0     C81466   4.828   6.284   9.581  0.9360 -0.4505  1.0752
  604MOL0     C81467   4.855   6.156   9.500  0.0826  0.2237 -0.0141
  604MOL0     C81468   4.992   6.109   9.512 -0.2058  0.4582  0.7885
  604MOL0     C81469   5.092   6.044   9.520 -0.1319  0.9081 -0.5189
  604MOL0     C81470   4.664   6.765   9.597 -0.8040  0.7583  0.7601
  604MOL0     C81471   4.582   6.878   9.602 -0.3882 -0.1135 -0.0610
  604MOL0     C81472   4.631   6.979   9.701  0.1418 -0.2086 -0.7987
  604MOL0     H81473   4.488   7.368   9.518 -0.2067 -0.7646 -0.9396
  604MOL0     H81474   4.362   7.570   9.580 -1.0102  0.7057 -0.3768
  604MOL0     H81475   4.335   7.690   9.785 -0.0499  1.0179 -0.1309
  604MOL0     H81476   4.175   7.738   9.706 -1.1876 -0.2323 -0.4566
  604MOL0     H81477   4.101   7.720   9.968 -0.8471  0.3203  0.1373
  604MOL0     H81478   4.199   7.863   9.923 -0.3205  1.2698  3.2335
  604MOL0     H81479   4.413   7.720   9.979  0.4799 -3.2126 -1.8283
  604MOL0     H81480   4.314   7.594  10.020 -2.0938 -0.5403  1.5853
  604MOL0     H81481   4.240   7.853  10.155 -1.7223  0.5896 -2.8172
  604MOL0     H81482   4.220   7.679  10.202 -1.2753  3.0505  2.6873
  604MOL0     H81483   4.505   7.702  10.197  0.4800 -1.0212  1.7271
  604MOL0     H81484   4.474   7.864  10.224  4.5041 -1.4456  2.1539
  604MOL0     H81485   4.336   7.646  10.384 -0.9509  1.0569 -1.0131
  604MOL0     H81486   4.493   7.707  10.438 -1.3149 -0.3996  0.4212
  604MOL0     H81487   4.229   7.860  10.402  0.2569 -0.9471 -1.3606
  604MOL0     H81488   4.383   7.940  10.424 -1.3063  0.5151 -0.7580
  604MOL0     H81489   4.273   7.932  10.641 -1.1890 -0.4398  0.2811
  604MOL0     H81490   4.240   7.762  10.623  0.6518  0.6785 -0.0265
  604MOL0     H81491   4.494   7.612  10.679  2.2137 -0.3953  0.6682
  604MOL0     H81492   4.783   7.623  10.756 -1.0123 -1.1881  1.1031
  604MOL0     H81493   4.808   7.763  10.856  1.2637 -0.5418 -0.1026
  604MOL0     H81494   4.676   7.665  11.030  0.2165  0.7815 -0.9154
  604MOL0     H81495   4.604   7.552  10.922 -1.0140  0.1172  1.1751
  604MOL0     H81496   4.907   7.529  10.967 -0.1675 -1.7083  1.9996
  604MOL0     H81497   4.807   7.430  10.877 -1.3958  0.7476  0.3876
  604MOL0     H81498   4.719   7.330  11.082  0.1011  0.2717 -0.7467
  604MOL0     H81499   4.736   7.486  11.170 -2.2923  0.8532 -2.0228
  604MOL0     H81500   5.061   7.255  11.275  0.8854  3.0631 -2.0229
  604MOL0     H81501   5.209   7.042  11.207  0.2944 -4.9380 -1.9232
  604MOL0     H81502   5.524   6.810  11.097 -0.4085 -0.6906  2.4214
  604MOL0     H81503   5.643   6.607  11.081 -0.2143 -1.4891  2.2980
  604MOL0     H81504   5.456   6.205  10.988 -0.5246  0.0702 -0.9556
  604MOL0     H81505   5.467   6.296  10.839 -3.7837 -2.7571  1.0608
  604MOL0     H81506   5.669   6.125  10.985  1.7142 -1.9500 -2.1069
  604MOL0     H81507   5.596   6.107  10.828 -2.0800  2.9403 -1.7457
  604MOL0     H81508   5.751   6.246  10.721 -3.2283 -0.8607  0.7806
  604MOL0     H81509   5.743   6.350  10.854 -2.4128 -0.1475 -1.2772
  604MOL0     H81510   5.897   6.192  10.989 -0.1972 -0.2916  0.1184
  604MOL0     H81511   5.964   6.247  10.829 -2.0748  1.1297 -2.5592
  604MOL0     H81512   5.873   6.030  10.730 -0.8888 -1.6515  0.0158
  604MOL0     H81513   5.856   5.989  10.909 -0.7113  3.9144  1.9985
  604MOL0     H81514   6.112   6.063  10.750 -2.2947  1.4230 -0.5633
  604MOL0     H81515   6.114   6.025  10.920  1.4374  1.3793 -1.8898
  604MOL0     H81516   6.071   5.846  10.688  1.5617  1.2074  0.1145
  604MOL0     H81517   5.997   5.797  10.841 -0.2255  1.7318  3.7182
  604MOL0     H81518   6.287   5.854  10.781 -2.1121  4.0716 -0.0267
  604MOL0     H81519   6.222   5.821  10.950 -2.6048  0.5540  0.6154
  604MOL0     H81520   5.278   6.388  10.986 -0.5844 -0.7008  2.6356
  604MOL0     H81521   5.153   6.600  11.017  1.0682 -0.5134  0.0964
  604MOL0     H81522   4.951   6.997  10.875 -1.8536  3.1628 -2.2032
  604MOL0     H81523   4.831   7.198  10.920  0.8184  2.4383  0.0361
  604MOL0     H81524   4.139   7.307   9.847 -0.1712 -2.4719 -0.1998
  604MOL0     H81525   4.234   7.125   9.747  1.3772  0.5700  3.4117
  604MOL0     H81526   4.339   6.795   9.385  0.6584 -1.7605 -0.6836
  604MOL0     H81527   4.500   6.598   9.358  1.7285 -1.0051 -0.7490
  604MOL0     H81528   4.801   6.536   9.655 -1.3746  2.3213 -0.2783
  604MOL0     H81529   4.905   6.607   9.524 -0.5766  0.4252 -2.0335
  604MOL0     H81530   4.986   6.388   9.489 -0.5944 -0.3336  1.3021
  604MOL0     H81531   4.850   6.384   9.391 -0.1453 -1.0211 -1.8203
  604MOL0     H81532   4.720   6.301   9.584  1.0620  1.2931 -1.2119
  604MOL0     H81533   4.863   6.278   9.684  0.7820 -1.9200  1.0701
  604MOL0     H81534   4.794   6.073   9.535 -0.2009  0.0527 -0.8706
  604MOL0     H81535   4.833   6.179   9.395  0.9712  2.9755  0.3279
  604MOL0     H81536   5.189   6.001   9.536 -0.7440 -0.8539 -1.2511
  604MOL0     H81537   4.749   6.744   9.661 -2.9603  0.8291  3.8963
  604MOL0     H81538   4.637   7.073   9.645 -1.3204 -0.8225 -2.0590
  604MOL0     H81539   4.560   6.988   9.783  3.2169  2.2042  1.8239
  604MOL0     H81540   4.726   6.955   9.750 -0.3305 -0.0841  0.1951
  605MOL0     O81541  10.306   9.078  11.407  0.2495  0.1505  0.2964
  605MOL0     C81542  10.371   9.180  11.396 -1.3537 -0.4604 -1.3781
  605MOL0     O81543  10.344   9.277  11.303 -0.7959  0.4244  0.1616
  605MOL0     C81544  10.245   9.259  11.213 -0.9368  0.4026  0.5990
  605MOL0     C81545  10.280   9.200  11.086  0.0008 -0.7916 -1.0360
  605MOL0     C81546  10.175   9.179  10.993 -0.2746 -0.8585  0.3004
  605MOL0     C81547  10.044   9.230  11.013  0.1692  0.4212  0.3934
  605MOL0     O81548   9.952   9.227  10.906  0.6293  0.0714  0.0874
  605MOL0     C81549   9.811   9.242  10.935 -0.2390 -0.0689 -0.1208
  605MOL0     C81550   9.744   9.230  10.794 -0.5121 -0.3309 -0.6532
  605MOL0     C81551   9.598   9.247  10.820  1.0200  0.4711  0.5618
  605MOL0     C81552   9.522   9.240  10.692 -0.0879  0.0351 -0.3775
  605MOL0     C81553   9.363   9.239  10.715  0.0892  0.3716  1.3725
  605MOL0     C81554   9.276   9.160  10.610  0.4402 -0.0389 -0.1055
  605MOL0     C81555   9.126   9.188  10.649 -0.5132 -0.0525 -0.3204
  605MOL0     C81556   9.021   9.136  10.547  0.0088  0.9130 -0.0888
  605MOL0     N81557   9.020   9.216  10.426 -1.0939  0.7863 -0.0326
  605MOL0     C81558   8.934   9.316  10.403 -0.1739 -0.1756  0.1519
  605MOL0     C81559   8.964   9.361  10.274 -0.0000 -0.5403  0.0289
  605MOL0     C81560   8.894   9.466  10.187  0.4693 -0.5775 -0.3546
  605MOL0     C81561   8.742   9.445  10.156  0.5527 -0.0758 -0.5649
  605MOL0     C81562   8.702   9.324  10.074  0.9340  0.0545 -0.1485
  605MOL0     C81563   8.786   9.306   9.948 -0.2299  0.2966  0.4816
  605MOL0     O81564   8.769   9.413   9.851  0.2108  0.0612  0.1486
  605MOL0     C81565   8.860   9.424   9.750  0.7194 -0.0375 -0.5725
  605MOL0     C81566   8.848   9.546   9.678  0.4898 -0.1104  0.2654
  605MOL0     C81567   8.925   9.557   9.555  0.9559  0.3780  1.1126
  605MOL0     C81568   9.019   9.459   9.521 -0.3410  0.0526 -0.6834
  605MOL0     C81569   9.097   9.480   9.400  0.1584 -0.6965 -1.4388
  605MOL0     O81570   9.189   9.371   9.379  0.5324  0.5552 -0.5504
  605MOL0     C81571   9.244   9.340   9.254 -0.3453  0.1517  0.6385
  605MOL0     C81572   9.327   9.226   9.251  0.0775 -0.2682  0.4027
  605MOL0     C81573   9.383   9.182   9.124  0.4450  0.0271 -0.6999
  605MOL0     C81574   9.355   9.237   9.003  0.3680  0.6641 -0.7819
  605MOL0     O81575   9.401   9.190   8.888 -0.1568 -0.3230  1.1539
  605MOL0     C81576   9.307   9.175   8.767  0.2875  0.3403 -0.3000
  605MOL0     C81577   9.309   9.030   8.722 -0.5618  0.0341 -0.6195
  605MOL0     C81578   9.434   8.951   8.757  0.1377 -0.4210 -0.5968
  605MOL0     C81579   9.421   8.803   8.695  0.7931 -0.6236  0.6499
  605MOL0     C81580   9.542   8.710   8.725  0.0325  0.4346  0.2014
  605MOL0     C81581   9.520   8.562   8.681  0.2239  0.0928 -1.2163
  605MOL0     C81582   9.649   8.478   8.688 -0.2478 -0.7011  0.0769
  605MOL0     C81583   9.625   8.337   8.638  0.8091 -0.1957 -0.2897
  605MOL0    Cl81584   9.779   8.250   8.638 -0.5551 -0.4807  0.0231
  605MOL0     C81585   9.260   9.338   9.010 -0.3922 -0.1588  1.0360
  605MOL0     C81586   9.204   9.394   9.125  0.1301 -0.8659 -0.3763
  605MOL0     O81587   9.071   9.578   9.332 -0.7265 -0.4661  0.2863
  605MOL0     C81588   9.021   9.333   9.597 -0.8164 -0.9089 -0.8432
  605MOL0     C81589   8.952   9.323   9.709  0.9311 -0.1752  0.4674
  605MOL0     N81590   9.076   9.285  10.236 -0.5813 -0.3944 -0.0987
  605MOL0     N81591   9.103   9.196  10.323  0.6678 -0.3173  0.7990
  605MOL0     C81592  10.019   9.282  11.138  0.5568  0.0785  0.4597
  605MOL0     C81593  10.115   9.295  11.236 -0.5387  0.5334  0.1711
  605MOL0     C81594  10.489   9.223  11.486  0.2385  0.2421  1.3175
  605MOL0     C81595  10.512   9.350  11.526  0.0287 -0.4863 -1.3811
  605MOL0     C81596  10.619   9.382  11.606 -0.2450  1.3628 -0.3891
  605MOL0     C81597  10.707   9.283  11.646  0.3659 -0.6458 -0.3915
  605MOL0     O81598  10.806   9.338  11.729 -0.0996  0.3153 -0.2424
  605MOL0     C81599  10.881   9.245  11.813 -0.6743  0.0585 -0.3545
  605MOL0     C81600  10.933   9.333  11.937  0.2299  1.1815  0.2461
  605MOL0     C81601  11.001   9.465  11.905 -0.1286 -0.6015  0.5329
  605MOL0     C81602  11.115   9.451  11.801  0.8588  0.0920  0.9757
  605MOL0     C81603  11.203   9.337  11.819 -0.5545 -0.1835  0.5317
  605MOL0     C81604  11.271   9.241  11.840  0.5227  0.7185  0.4240
  605MOL0     C81605  10.692   9.155  11.597  0.1888 -0.7715  0.7913
  605MOL0     C81606  10.588   9.120  11.514  0.5882  0.0652 -0.0477
  605MOL0     C81607  10.586   8.973  11.470  0.1866 -0.3144  0.3317
  605MOL0     H81608  10.381   9.172  11.058 -0.1733 -0.1135 -2.4262
  605MOL0     H81609  10.198   9.134  10.897 -2.0493 -0.3572 -0.4014
  605MOL0     H81610   9.776   9.167  11.007 -0.4051  0.8763  0.7992
  605MOL0     H81611   9.789   9.343  10.970  1.5099  0.8868 -1.6136
  605MOL0     H81612   9.772   9.138  10.743 -0.3484  0.9589 -3.0123
  605MOL0     H81613   9.790   9.298  10.722  0.9400 -1.0137 -0.4114
  605MOL0     H81614   9.577   9.337  10.879 -2.5467  1.6736 -2.2020
  605MOL0     H81615   9.562   9.157  10.871 -0.8956 -1.1518 -3.2767
  605MOL0     H81616   9.540   9.336  10.644  0.8326  0.2180  0.3111
  605MOL0     H81617   9.556   9.153  10.635  1.4971  0.4604 -0.1207
  605MOL0     H81618   9.332   9.198  10.812 -1.7573 -1.6997  0.0142
  605MOL0     H81619   9.326   9.341  10.705  0.7981  0.4886 -0.3889
  605MOL0     H81620   9.301   9.203  10.512  2.4848 -1.5398 -0.3311
  605MOL0     H81621   9.302   9.054  10.599 -1.5262 -0.3543 -2.6690
  605MOL0     H81622   9.120   9.296  10.660  2.6850  0.0935  1.0533
  605MOL0     H81623   9.104   9.146  10.748 -1.1940  1.2302  0.0969
  605MOL0     H81624   9.052   9.031  10.534  1.3352  1.4402 -1.4649
  605MOL0     H81625   8.924   9.133  10.597  0.4665  0.1619  0.7844
  605MOL0     H81626   8.852   9.342  10.469 -1.6663  1.2476 -2.1077
  605MOL0     H81627   8.907   9.555  10.250  3.0637  0.5736 -2.3464
  605MOL0     H81628   8.950   9.472  10.094  1.9144 -0.2618  0.5103
  605MOL0     H81629   8.701   9.434  10.257  1.2572 -1.1983 -0.3862
  605MOL0     H81630   8.698   9.534  10.110  2.2276  0.7493 -0.6289
  605MOL0     H81631   8.595   9.338  10.053  0.3166  0.2937  2.7307
  605MOL0     H81632   8.708   9.235  10.138 -1.1264  1.1044  1.6489
  605MOL0     H81633   8.772   9.207   9.902  3.1080  0.0244 -0.2722
  605MOL0     H81634   8.890   9.309   9.983 -0.3151  0.6110  0.7064
  605MOL0     H81635   8.772   9.619   9.702  1.5242  1.6024 -1.3282
  605MOL0     H81636   8.904   9.638   9.486 -0.7500 -0.1880  0.9148
  605MOL0     H81637   9.367   9.197   9.348  2.1312  1.4688  0.1595
  605MOL0     H81638   9.457   9.103   9.121 -0.2655 -1.1494  4.0187
  605MOL0     H81639   9.203   9.207   8.777  0.6132  1.2808  0.2373
  605MOL0     H81640   9.351   9.233   8.685  3.9281 -0.4370  0.9309
  605MOL0     H81641   9.230   8.975   8.774 -0.6315 -1.1841 -1.9599
  605MOL0     H81642   9.288   9.020   8.615 -3.0498 -4.2035  0.0190
  605MOL0     H81643   9.515   9.013   8.719 -2.1638  2.9534 -0.4157
  605MOL0     H81644   9.446   8.948   8.866  0.8901 -1.4006 -0.6941
  605MOL0     H81645   9.409   8.822   8.588 -0.0845  3.3297  1.2939
  605MOL0     H81646   9.327   8.756   8.723  2.0294 -1.2143  4.3669
  605MOL0     H81647   9.576   8.713   8.829  2.1664  0.3408 -0.4442
  605MOL0     H81648   9.626   8.753   8.669 -0.8861  3.8691  1.2143
  605MOL0     H81649   9.449   8.526   8.756  0.5899 -1.2375 -1.4880
  605MOL0     H81650   9.469   8.565   8.585 -2.8834  3.9859  0.2274
  605MOL0     H81651   9.687   8.476   8.791 -3.3691 -2.7625  1.3554
  605MOL0     H81652   9.717   8.534   8.624 -1.4313  1.4581  0.6053
  605MOL0     H81653   9.556   8.286   8.706 -3.0701  4.6878 -0.0036
  605MOL0     H81654   9.584   8.339   8.536  5.3739  0.2033 -2.3534
  605MOL0     H81655   9.228   9.387   8.918  0.1206 -0.4446  0.6932
  605MOL0     H81656   9.116   9.457   9.121  1.0587  0.4601 -0.6412
  605MOL0     H81657   9.097   9.261   9.567  0.9290  0.4277  0.1406
  605MOL0     H81658   8.943   9.223   9.752 -1.3877 -0.4644 -0.5853
  605MOL0     H81659   9.919   9.321  11.155  1.4071  1.2416  3.3141
  605MOL0     H81660  10.088   9.352  11.324 -0.9033  0.0988  0.3454
  605MOL0     H81661  10.446   9.428  11.488 -1.0400 -0.9265 -0.4879
  605MOL0     H81662  10.635   9.488  11.623  1.3605  1.4632 -2.1573
  605MOL0     H81663  10.963   9.212  11.748  1.6222 -1.6478  3.1407
  605MOL0     H81664  10.831   9.157  11.854 -0.1256 -1.4398 -2.6801
  605MOL0     H81665  11.004   9.266  11.986  0.3323  0.2503 -1.1331
  605MOL0     H81666  10.851   9.353  12.007  2.5810  1.1033  3.2374
  605MOL0     H81667  11.037   9.502  12.002 -0.0022 -1.3939  0.7932
  605MOL0     H81668  10.925   9.535  11.869  3.1978  2.1567 -1.8119
  605MOL0     H81669  11.068   9.427  11.706  0.8398  0.6641  0.8379
  605MOL0     H81670  11.173   9.543  11.791  1.7404 -0.6133 -0.8573
  605MOL0     H81671  11.334   9.158  11.865  1.5720  1.0048 -1.1339
  605MOL0     H81672  10.767   9.083  11.626  2.0733  0.1264 -1.4722
  605MOL0     H81673  10.619   8.979  11.365 -1.9429 -0.1277 -0.3862
  605MOL0     H81674  10.654   8.912  11.529  0.6514 -0.2747 -0.1504
  605MOL0     H81675  10.485   8.933  11.481  0.5037 -0.7191  1.9001
  606MOL0     O81676   9.047   0.440   4.883  0.0687  0.6610 -0.4851
  606MOL0     C81677   9.064   0.319   4.865  0.2401  0.4977 -0.5006
  606MOL0     O81678   9.154   0.243   4.927  0.5915  0.2445 -0.6185
  606MOL0     C81679   9.188   0.267   5.061 -0.2344  0.2378 -0.0794
  606MOL0     C81680   9.109   0.348   5.148 -0.0825 -0.1139  0.7861
  606MOL0     C81681   9.142   0.358   5.284  0.1967 -0.6495  0.5553
  606MOL0     C81682   9.257   0.299   5.334  0.7769 -0.3689  0.7218
  606MOL0     O81683   9.307   0.307   5.463  0.2380  0.7286 -0.5026
  606MOL0     C81684   9.269   0.425   5.532 -0.5454 -0.1256  0.0024
  606MOL0     C81685   9.345   0.431   5.664  0.6867 -0.1239  0.4596
  606MOL0     C81686   9.295   0.545   5.758  0.6796 -0.6967 -0.5753
  606MOL0     C81687   9.388   0.555   5.885 -0.9061  0.3083 -0.2401
  606MOL0     C81688   9.353   0.675   5.979 -0.4644 -0.2211 -0.4950
  606MOL0     C81689   9.412   0.810   5.921  1.1686  1.2431 -1.3599
  606MOL0     C81690   9.388   0.941   6.004  0.0459 -0.7342  0.2757
  606MOL0     C81691   9.455   0.956   6.140 -0.3832 -1.1955  0.0023
  606MOL0     N81692   9.597   0.954   6.120 -0.0001  0.1668 -0.3518
  606MOL0     C81693   9.662   0.835   6.116  0.4643  0.1397 -0.0527
  606MOL0     C81694   9.784   0.870   6.058  0.0018  0.0152  0.2260
  606MOL0     C81695   9.887   0.790   6.011 -0.9601 -0.3047 -0.2001
  606MOL0     C81696   9.891   0.766   5.848  0.0357 -0.7837  0.4350
  606MOL0     C81697   9.805   0.650   5.818  0.0677 -0.5106  0.2405
  606MOL0     C81698   9.805   0.628   5.671 -0.0877  0.0933  0.7687
  606MOL0     O81699   9.679   0.571   5.623 -0.6086  0.2900 -0.1322
  606MOL0     C81700   9.617   0.621   5.516 -0.4616  0.5444  0.2147
  606MOL0     C81701   9.580   0.529   5.414 -0.0310 -0.0352 -0.5008
  606MOL0     C81702   9.526   0.570   5.291  0.0477 -0.1183 -0.7665
  606MOL0     C81703   9.523   0.703   5.261  0.1521 -0.3429  0.0802
  606MOL0     C81704   9.486   0.742   5.123  0.1361  0.0523  0.4379
  606MOL0     O81705   9.498   0.642   5.024 -0.5496 -0.7168 -0.2228
  606MOL0     C81706   9.450   0.673   4.898 -0.1924 -0.4458 -0.0962
  606MOL0     C81707   9.331   0.618   4.846  0.3906 -0.3302 -0.4251
  606MOL0     C81708   9.287   0.641   4.722 -0.8479 -0.2180 -0.9107
  606MOL0     C81709   9.351   0.742   4.652 -0.5488 -0.3234  0.7743
  606MOL0     O81710   9.314   0.791   4.523  0.4241 -0.0691 -0.3840
  606MOL0     C81711   9.277   0.690   4.426  1.0601 -0.0596 -0.7177
  606MOL0     C81712   9.339   0.743   4.296 -0.6627  0.1776  0.5094
  606MOL0     C81713   9.256   0.696   4.173 -0.2168  0.2871 -0.6200
  606MOL0     C81714   9.326   0.718   4.042  0.6833 -0.3036 -0.9040
  606MOL0     C81715   9.219   0.709   3.930 -0.8160 -0.4207 -0.3055
  606MOL0     C81716   9.297   0.695   3.788  0.1522  0.2697  0.2368
  606MOL0     C81717   9.209   0.683   3.664 -0.0486 -0.0686 -0.2391
  606MOL0     C81718   9.278   0.734   3.536 -0.4186 -0.3181 -0.0654
  606MOL0    Cl81719   9.316   0.900   3.539 -0.0645 -0.3081 -0.2662
  606MOL0     C81720   9.468   0.808   4.695 -0.2426  0.1221 -0.5653
  606MOL0     C81721   9.520   0.770   4.818 -0.6517  1.7914 -0.0217
  606MOL0     O81722   9.461   0.859   5.109  0.1084  0.1576  0.3684
  606MOL0     C81723   9.563   0.801   5.356  0.3753  0.5370  0.7643
  606MOL0     C81724   9.602   0.761   5.483 -0.7781 -0.0444 -0.3318
  606MOL0     N81725   9.787   1.005   6.033  0.5011  0.0163  0.0745
  606MOL0     N81726   9.683   1.053   6.080  0.0138  0.5755 -0.2896
  606MOL0     C81727   9.336   0.223   5.251  0.4647 -0.3709  0.1042
  606MOL0     C81728   9.301   0.211   5.117  1.4931  0.1421  0.7433
  606MOL0     C81729   9.050   0.278   4.723  0.2830 -0.2792 -0.0033
  606MOL0     C81730   9.145   0.196   4.665  1.0513 -0.5592  0.8468
  606MOL0     C81731   9.139   0.152   4.535 -1.0893 -0.1842  0.8382
  606MOL0     C81732   9.033   0.191   4.452  0.9537 -0.2831  0.0741
  606MOL0     O81733   9.025   0.162   4.310 -0.0101  0.0319 -0.0304
  606MOL0     C81734   9.121   0.228   4.220 -0.6657 -0.6898  0.3372
  606MOL0     C81735   9.071   0.367   4.183 -0.1770 -0.9491  0.1128
  606MOL0     C81736   8.914   0.382   4.152 -0.3532  0.2268  0.2752
  606MOL0     C81737   8.907   0.479   4.025  0.1517  1.1362  0.3273
  606MOL0     C81738   8.764   0.493   3.983 -0.5696  0.2666  0.4326
  606MOL0     C81739   8.648   0.490   3.961  0.9829  0.4854 -0.4228
  606MOL0     C81740   8.933   0.273   4.501  1.0877 -0.5015 -0.0757
  606MOL0     C81741   8.940   0.303   4.641  0.8221 -1.6602 -0.2360
  606MOL0     C81742   8.828   0.397   4.684  0.6833  0.4713 -0.1689
  606MOL0     H81743   9.016   0.392   5.113  1.4004  1.7179 -1.0480
  606MOL0     H81744   9.074   0.412   5.349 -1.3940 -0.9469 -0.7974
  606MOL0     H81745   9.286   0.519   5.478 -1.4334  0.1219  0.1437
  606MOL0     H81746   9.161   0.422   5.551 -0.4398 -0.8332  0.5041
  606MOL0     H81747   9.453   0.438   5.647  0.9353 -0.7551  1.7008
  606MOL0     H81748   9.318   0.344   5.725 -1.6293  1.2199  1.4852
  606MOL0     H81749   9.191   0.532   5.788 -0.1428  2.2798 -1.8025
  606MOL0     H81750   9.301   0.643   5.709  0.1120  0.4323  1.4858
  606MOL0     H81751   9.378   0.463   5.943  1.1806  0.2667  0.1267
  606MOL0     H81752   9.492   0.560   5.851 -1.7422 -1.2405 -3.3568
  606MOL0     H81753   9.245   0.682   5.990 -0.7880 -3.6442 -0.5511
  606MOL0     H81754   9.397   0.673   6.079 -1.6440 -1.1140  0.0307
  606MOL0     H81755   9.519   0.803   5.895  1.1664  3.1020 -2.0374
  606MOL0     H81756   9.359   0.831   5.827  0.3181  1.4299 -0.8451
  606MOL0     H81757   9.279   0.950   6.016  0.0267 -1.6251  0.8903
  606MOL0     H81758   9.412   1.031   5.947  0.7141  0.8141  2.8956
  606MOL0     H81759   9.424   1.052   6.184 -3.9340 -1.5032 -1.5200
  606MOL0     H81760   9.416   0.881   6.209 -1.5967 -2.5386 -2.0436
  606MOL0     H81761   9.621   0.736   6.134  1.3063 -0.3735 -0.8198
  606MOL0     H81762   9.984   0.826   6.049 -0.3694  0.0177 -1.9390
  606MOL0     H81763   9.875   0.694   6.061 -2.4489 -0.0243  0.0408
  606MOL0     H81764   9.847   0.859   5.813  1.6180  0.3457  1.3096
  606MOL0     H81765   9.990   0.761   5.800 -0.8648 -2.7809 -1.3996
  606MOL0     H81766   9.706   0.662   5.864  0.0903  0.8592 -0.0186
  606MOL0     H81767   9.846   0.563   5.870 -2.3435 -1.2376  1.0581
  606MOL0     H81768   9.889   0.570   5.634 -1.2311 -0.1866 -1.5875
  606MOL0     H81769   9.823   0.721   5.615 -2.6486 -0.2566 -0.7985
  606MOL0     H81770   9.589   0.422   5.429 -0.9651 -0.0080  0.4163
  606MOL0     H81771   9.505   0.494   5.216 -1.1323 -0.8355  0.2469
  606MOL0     H81772   9.285   0.540   4.905  0.2635  0.4348  0.4892
  606MOL0     H81773   9.205   0.581   4.685 -0.3000 -3.1908  2.2426
  606MOL0     H81774   9.310   0.586   4.437  0.6306 -0.3072 -1.6211
  606MOL0     H81775   9.168   0.694   4.417  0.8772 -2.0206  0.1454
  606MOL0     H81776   9.353   0.852   4.293  0.0169  0.0826 -2.2096
  606MOL0     H81777   9.443   0.711   4.296 -1.0127 -1.0273  1.0603
  606MOL0     H81778   9.230   0.590   4.179  1.0441  0.0436  2.4551
  606MOL0     H81779   9.164   0.756   4.170 -0.9992 -0.8609 -4.2478
  606MOL0     H81780   9.409   0.649   4.022  0.2668 -1.2167  0.3576
  606MOL0     H81781   9.375   0.815   4.043 -0.5917  0.3642 -0.3860
  606MOL0     H81782   9.151   0.794   3.936 -2.5092 -1.7524  0.3987
  606MOL0     H81783   9.154   0.624   3.955 -1.4732  0.4262  1.0200
  606MOL0     H81784   9.370   0.777   3.783  0.7177 -0.2606 -0.5466
  606MOL0     H81785   9.361   0.606   3.795  1.9075  1.4573 -0.1058
  606MOL0     H81786   9.121   0.744   3.684  1.9053  1.6879  4.3252
  606MOL0     H81787   9.172   0.581   3.653 -1.1837  0.4110 -1.1008
  606MOL0     H81788   9.370   0.680   3.513  0.5998  1.2481  0.2156
  606MOL0     H81789   9.206   0.720   3.455  0.2591 -0.5340 -0.6407
  606MOL0     H81790   9.510   0.897   4.649 -1.4536  1.6799  1.2196
  606MOL0     H81791   9.594   0.840   4.854 -0.7411  2.6098 -1.3305
  606MOL0     H81792   9.563   0.908   5.335  0.3288  0.3631 -0.1954
  606MOL0     H81793   9.617   0.834   5.562  1.2613 -0.6464 -0.0989
  606MOL0     H81794   9.424   0.169   5.282  2.1911  2.1144 -0.2099
  606MOL0     H81795   9.339   0.138   5.047  1.0500  1.0485 -0.4807
  606MOL0     H81796   9.239   0.183   4.717  2.9736  3.7600 -1.0416
  606MOL0     H81797   9.220   0.094   4.492 -1.3670 -0.5051  0.7423
  606MOL0     H81798   9.148   0.168   4.132  0.8117  1.3877 -0.7154
  606MOL0     H81799   9.215   0.243   4.275 -1.4869  0.3048  1.5315
  606MOL0     H81800   9.132   0.393   4.096  0.2166 -1.3922  0.2491
  606MOL0     H81801   9.102   0.448   4.250 -1.4826 -0.0183 -0.3742
  606MOL0     H81802   8.860   0.423   4.238  1.1519 -1.3443  2.0659
  606MOL0     H81803   8.866   0.286   4.128 -0.7377  0.8289 -1.5196
  606MOL0     H81804   8.949   0.577   4.049  1.3060  1.3563 -2.3556
  606MOL0     H81805   8.974   0.436   3.951 -0.8237 -1.1126  0.6317
  606MOL0     H81806   8.542   0.490   3.944  0.8984 -0.2936  0.0527
  606MOL0     H81807   8.857   0.321   4.440  3.4089  3.2130 -0.3383
  606MOL0     H81808   8.734   0.386   4.628 -0.6123  1.6740  1.6436
  606MOL0     H81809   8.794   0.370   4.784 -0.9845 -1.1722 -1.1105
  606MOL0     H81810   8.849   0.503   4.670 -1.3749  0.8085 -1.0682
  607MOL0     O81811  11.215   3.703  11.209 -0.5955  0.0391 -0.4811
  607MOL0     C81812  11.279   3.620  11.144  0.6767  0.0924  1.0547
  607MOL0     O81813  11.240   3.568  11.018 -0.4569 -0.2618 -0.1710
  607MOL0     C81814  11.110   3.546  10.976 -0.6495  0.2625 -0.4305
  607MOL0     C81815  11.072   3.534  10.838 -0.5336 -0.1572  0.6952
  607MOL0     C81816  10.939   3.509  10.799  0.1140  0.0354 -1.2410
  607MOL0     C81817  10.837   3.509  10.894 -0.2146 -0.4561 -0.5377
  607MOL0     O81818  10.705   3.512  10.866 -0.6030 -0.0841  0.1423
  607MOL0     C81819  10.647   3.634  10.822 -0.4346 -0.0725  0.1654
  607MOL0     C81820  10.501   3.625  10.843  0.0554 -0.0001 -0.7352
  607MOL0     C81821  10.435   3.746  10.783  0.6437  0.8295 -0.5413
  607MOL0     C81822  10.292   3.759  10.835 -0.2366 -0.5905  0.2892
  607MOL0     C81823  10.223   3.880  10.764 -0.8473  0.0164  0.0780
  607MOL0     C81824  10.079   3.904  10.794  1.0443  0.5564 -0.0258
  607MOL0     C81825  10.030   4.029  10.710 -0.6343 -0.6605 -0.0780
  607MOL0     C81826   9.880   4.053  10.735  0.1037 -0.2888  0.6183
  607MOL0     N81827   9.840   4.189  10.691  0.2556  0.0479 -0.1400
  607MOL0     C81828   9.857   4.305  10.765  0.0610  0.5127 -0.4589
  607MOL0     C81829   9.819   4.403  10.681 -0.6382  0.6736  0.1813
  607MOL0     C81830   9.833   4.548  10.700  0.3237 -1.2429  0.0795
  607MOL0     C81831   9.737   4.636  10.617  0.5593  0.3404  0.2968
  607MOL0     C81832   9.585   4.593  10.642 -1.9515  0.0485 -0.0812
  607MOL0     C81833   9.494   4.708  10.582 -0.2161  0.7874  0.4695
  607MOL0     O81834   9.348   4.691  10.603 -0.3668  0.3490  0.0135
  607MOL0     C81835   9.261   4.728  10.501 -0.1931  0.2904 -0.0713
  607MOL0     C81836   9.227   4.633  10.409 -0.8501 -0.4347  0.5907
  607MOL0     C81837   9.160   4.667  10.295  0.7441  0.6571 -0.3832
  607MOL0     C81838   9.097   4.801  10.287 -0.8558  0.0295  0.2433
  607MOL0     C81839   9.010   4.840  10.165  0.0550  0.5600  0.1230
  607MOL0     O81840   8.998   4.757  10.062  0.1478 -0.3027  0.1517
  607MOL0     C81841   8.912   4.791   9.960 -0.1320  0.6618  0.2978
  607MOL0     C81842   8.973   4.851   9.842  0.2400  0.1973  0.2350
  607MOL0     C81843   8.895   4.879   9.731 -0.4639 -0.2524  0.1290
  607MOL0     C81844   8.759   4.849   9.732  0.2274 -0.5199 -0.2636
  607MOL0     O81845   8.688   4.868   9.612  0.6740 -0.1841 -0.0249
  607MOL0     C81846   8.565   4.951   9.633  0.0799  1.1112 -1.0272
  607MOL0     C81847   8.475   4.948   9.505  0.6578  0.1399 -0.2059
  607MOL0     C81848   8.350   5.030   9.538  0.7912  0.9577 -1.3899
  607MOL0     C81849   8.266   5.065   9.405 -0.6647  0.5866  0.0924
  607MOL0     C81850   8.142   4.966   9.362 -0.2858 -0.6888 -0.5111
  607MOL0     C81851   8.037   4.964   9.473 -0.9422  0.5529  0.4258
  607MOL0     C81852   7.907   4.890   9.445  0.1825 -0.0697 -0.1765
  607MOL0     C81853   7.812   4.889   9.563 -0.5044 -0.9889  0.2917
  607MOL0    Cl81854   7.669   4.803   9.511 -0.0656  0.0416 -0.3503
  607MOL0     C81855   8.702   4.783   9.849  0.4574  0.3304  0.3419
  607MOL0     C81856   8.778   4.750   9.963  0.2874 -0.2920  0.3645
  607MOL0     O81857   8.952   4.950  10.178 -0.9676  0.1498 -0.4052
  607MOL0     C81858   9.116   4.886  10.392  0.4067  1.0100 -0.3765
  607MOL0     C81859   9.199   4.852  10.499  0.0352  0.4782  1.0880
  607MOL0     N81860   9.794   4.346  10.555  0.9009 -0.8138  0.3009
  607MOL0     N81861   9.803   4.223  10.567 -1.1679 -0.7697  0.4597
  607MOL0     C81862  10.865   3.525  11.031  0.2033  0.4336  0.1722
  607MOL0     C81863  10.998   3.544  11.070  0.3253  1.2444  0.0353
  607MOL0     C81864  11.402   3.571  11.201 -0.0692 -0.2049  0.0300
  607MOL0     C81865  11.442   3.445  11.147 -0.8401  0.2860  0.2312
  607MOL0     C81866  11.541   3.374  11.214 -1.0990 -0.0225  0.3272
  607MOL0     C81867  11.609   3.438  11.319 -0.6027  0.5269 -0.2461
  607MOL0     O81868  11.709   3.375  11.383 -0.9433 -0.7630 -0.0108
  607MOL0     C81869  11.681   3.305  11.505  0.1251  0.6866 -0.9941
  607MOL0     C81870  11.794   3.212  11.543 -0.2482 -0.0111  0.3522
  607MOL0     C81871  11.916   3.283  11.591 -0.8670  0.3826  0.9699
  607MOL0     C81872  11.918   3.373  11.712 -0.6927 -0.7797  1.0336
  607MOL0     C81873  11.866   3.289  11.814  1.1745 -0.1152  1.3126
  607MOL0     C81874  11.796   3.230  11.889 -0.1094 -0.1047  0.0937
  607MOL0     C81875  11.574   3.567  11.364 -0.9641 -0.0168  0.2834
  607MOL0     C81876  11.472   3.633  11.303  0.3800 -0.2461  0.2817
  607MOL0     C81877  11.449   3.780  11.345 -0.0707  0.7930  1.3471
  607MOL0     H81878  11.155   3.542  10.769 -1.3160 -2.0639 -0.5374
  607MOL0     H81879  10.900   3.489  10.700 -2.4269 -3.2968  0.2003
  607MOL0     H81880  10.688   3.715  10.883 -0.8410 -1.5797  2.5491
  607MOL0     H81881  10.664   3.645  10.714 -0.0771 -0.6268  0.1663
  607MOL0     H81882  10.466   3.598  10.943 -2.1435 -0.9063 -1.6702
  607MOL0     H81883  10.466   3.539  10.784 -1.7021 -2.2600  3.2011
  607MOL0     H81884  10.445   3.746  10.674 -0.0657 -1.3199 -0.6463
  607MOL0     H81885  10.485   3.829  10.834  0.2230  0.1108  1.1017
  607MOL0     H81886  10.236   3.670  10.803  2.5747 -2.5592  0.4017
  607MOL0     H81887  10.298   3.771  10.944 -2.2329  2.6397  0.1596
  607MOL0     H81888  10.274   3.975  10.778 -0.3823 -0.4866  2.1745
  607MOL0     H81889  10.234   3.852  10.658 -0.8822 -2.5883  0.6828
  607MOL0     H81890  10.019   3.827  10.745  1.6291  1.1047 -1.7111
  607MOL0     H81891  10.055   3.918  10.899 -2.1156  0.4921 -0.6411
  607MOL0     H81892  10.044   4.016  10.602  0.1636 -1.4554  0.1040
  607MOL0     H81893  10.091   4.118  10.732 -1.2825 -0.4424  0.8849
  607MOL0     H81894   9.806   3.990  10.686 -1.1388  3.4557 -2.8667
  607MOL0     H81895   9.869   4.032  10.842  0.1496 -3.5315  0.0750
  607MOL0     H81896   9.882   4.312  10.870 -1.8711  1.8531 -0.0360
  607MOL0     H81897   9.818   4.578  10.804  0.2126 -2.2174  0.3548
  607MOL0     H81898   9.934   4.569  10.664  1.0094 -0.8693  2.1176
  607MOL0     H81899   9.752   4.738  10.651 -2.6317  0.6608  1.0259
  607MOL0     H81900   9.749   4.656  10.510 -3.0056  3.8982  0.3558
  607MOL0     H81901   9.567   4.573  10.748  4.0621  1.3471  1.4972
  607MOL0     H81902   9.558   4.508  10.578  0.7660  0.3727 -1.8213
  607MOL0     H81903   9.500   4.699  10.473  1.7987 -4.3865  0.7332
  607MOL0     H81904   9.533   4.808  10.604  1.7647  0.6179 -1.8932
  607MOL0     H81905   9.259   4.531  10.425 -2.8104 -1.2928 -0.6037
  607MOL0     H81906   9.164   4.590  10.219  1.7033  0.6896 -0.3769
  607MOL0     H81907   9.079   4.872   9.836 -0.1962  2.8842  0.6647
  607MOL0     H81908   8.943   4.922   9.643 -0.4731 -1.1211 -0.3070
  607MOL0     H81909   8.501   4.920   9.716  2.3680  0.5572  0.6487
  607MOL0     H81910   8.596   5.053   9.656  1.9046  0.4112 -0.1224
  607MOL0     H81911   8.515   4.983   9.410 -1.2817 -1.4441 -1.6777
  607MOL0     H81912   8.445   4.844   9.490  0.5890 -0.3501  2.6404
  607MOL0     H81913   8.292   4.978   9.615  2.7723  1.7343  0.7240
  607MOL0     H81914   8.391   5.118   9.588  2.2604 -0.4959  0.1192
  607MOL0     H81915   8.336   5.073   9.321 -0.2581 -0.5888  0.2938
  607MOL0     H81916   8.216   5.159   9.427  1.0397  1.4015  0.6734
  607MOL0     H81917   8.183   4.865   9.353 -2.3769 -1.6855  0.4724
  607MOL0     H81918   8.089   4.997   9.272 -0.8590 -4.5630 -1.6760
  607MOL0     H81919   8.073   4.913   9.562  3.5582  0.0818 -1.4033
  607MOL0     H81920   8.009   5.062   9.513  2.0301  1.8672 -0.3980
  607MOL0     H81921   7.942   4.788   9.431  1.1606  0.4161 -1.4986
  607MOL0     H81922   7.847   4.931   9.363 -0.3507  0.1902  0.3296
  607MOL0     H81923   7.857   4.852   9.655  1.3261 -1.0197 -0.5551
  607MOL0     H81924   7.782   4.991   9.587  2.7717  0.6084 -1.5621
  607MOL0     H81925   8.601   4.741   9.842  0.2127  0.1984  3.2741
  607MOL0     H81926   8.742   4.693  10.048 -0.7990  2.1851  1.7088
  607MOL0     H81927   9.064   4.981  10.404 -2.0228 -0.2949  0.1345
  607MOL0     H81928   9.215   4.923  10.579 -2.5611 -0.8266  2.9103
  607MOL0     H81929  10.786   3.535  11.105  0.9742 -0.1592  1.1016
  607MOL0     H81930  10.988   3.567  11.175 -1.5965  2.9228 -0.4466
  607MOL0     H81931  11.404   3.402  11.055 -3.6327 -1.6682  2.1462
  607MOL0     H81932  11.579   3.281  11.173 -4.2541 -1.5420  0.5675
  607MOL0     H81933  11.597   3.239  11.481 -0.2137  0.3977  0.8159
  607MOL0     H81934  11.656   3.378  11.582  0.2432 -1.1279  0.8472
  607MOL0     H81935  11.820   3.156  11.453  2.2255  1.5822 -0.0186
  607MOL0     H81936  11.762   3.148  11.626  0.4185 -0.2575  0.4239
  607MOL0     H81937  11.959   3.337  11.506  2.3765 -0.9720  1.6049
  607MOL0     H81938  11.984   3.199  11.605 -2.1449 -1.6092 -3.1479
  607MOL0     H81939  12.024   3.399  11.723  0.3044 -2.5989 -2.6313
  607MOL0     H81940  11.863   3.467  11.704  1.7491  0.7215  0.7025
  607MOL0     H81941  11.724   3.181  11.952 -0.6308 -1.8196 -1.7246
  607MOL0     H81942  11.623   3.628  11.440  0.3444  0.2740 -0.7589
  607MOL0     H81943  11.446   3.847  11.258 -0.2199 -0.3900  0.4131
  607MOL0     H81944  11.357   3.794  11.402 -0.6519 -0.5292  0.7750
  607MOL0     H81945  11.520   3.821  11.418  2.1437  2.0429 -1.2890
  608MOL0     O81946   5.852   8.314  11.175  0.1871 -0.1515 -0.4849
  608MOL0     C81947   5.883   8.360  11.284  1.3819 -1.1915  0.0109
  608MOL0     O81948   5.857   8.295  11.397  0.2183 -0.1883  0.6844
  608MOL0     C81949   5.763   8.186  11.402  0.1667  0.6346  0.8999
  608MOL0     C81950   5.791   8.058  11.367 -0.3452 -0.6797 -0.0866
  608MOL0     C81951   5.707   7.946  11.384 -0.2050  0.4094  0.7944
  608MOL0     C81952   5.584   7.970  11.444 -0.1112 -0.4809 -0.6992
  608MOL0     O81953   5.496   7.868  11.468  0.1410  0.6111  0.0275
  608MOL0     C81954   5.553   7.757  11.539 -0.2656  0.5816 -0.2501
  608MOL0     C81955   5.454   7.683  11.624  0.4170  0.1712 -0.1002
  608MOL0     C81956   5.522   7.551  11.665 -0.1290  0.5532 -0.3253
  608MOL0     C81957   5.430   7.464  11.741 -0.1021 -0.1136  0.0614
  608MOL0     C81958   5.374   7.529  11.871  0.4073  0.2148  0.4750
  608MOL0     C81959   5.279   7.427  11.925  0.0862 -1.0514 -0.0016
  608MOL0     C81960   5.194   7.477  12.040 -0.2535  0.8625  0.3645
  608MOL0     C81961   5.078   7.373  12.060 -0.5122 -1.1336  0.0152
  608MOL0     N81962   5.112   7.250  12.140  0.4294 -0.5565  0.3880
  608MOL0     C81963   5.143   7.118  12.086  0.3775  0.4787 -0.9051
  608MOL0     C81964   5.136   7.034  12.191  0.4210  0.4145 -0.0111
  608MOL0     C81965   5.167   6.891  12.197  0.0126 -0.0384 -0.7270
  608MOL0     C81966   5.166   6.840  12.351  0.1670 -0.3914  0.4541
  608MOL0     C81967   5.223   6.700  12.346 -0.5791 -0.1068  0.8320
  608MOL0     C81968   5.218   6.640  12.482 -0.1010  0.3030 -0.0855
  608MOL0     O81969   5.252   6.505  12.468  0.1535 -0.3759  0.0336
  608MOL0     C81970   5.383   6.466  12.447  0.9928  0.0409  0.0454
  608MOL0     C81971   5.493   6.542  12.460  0.3077  0.6182 -0.4781
  608MOL0     C81972   5.630   6.499  12.454  0.5961 -0.0480  1.0529
  608MOL0     C81973   5.653   6.357  12.421  0.7183  0.0814 -0.0744
  608MOL0     C81974   5.786   6.299  12.406 -0.3145  0.6356 -0.3862
  608MOL0     O81975   5.792   6.161  12.385 -0.9368 -0.5206  0.0095
  608MOL0     C81976   5.910   6.095  12.360  0.2304  0.2123 -0.7500
  608MOL0     C81977   6.036   6.129  12.405  1.0816 -0.3570 -0.2889
  608MOL0     C81978   6.141   6.048  12.356 -0.6649  0.4534 -0.2327
  608MOL0     C81979   6.122   5.928  12.290  0.1583  0.0932 -0.0440
  608MOL0     O81980   6.229   5.839  12.277  0.0082  0.2742  0.5736
  608MOL0     C81981   6.200   5.695  12.260 -0.3672 -0.2041 -1.0538
  608MOL0     C81982   6.224   5.640  12.121 -0.2126  0.3372  0.3556
  608MOL0     C81983   6.359   5.657  12.066  0.6760  0.4426 -0.0354
  608MOL0     C81984   6.365   5.585  11.928 -0.3848 -0.1601 -0.3085
  608MOL0     C81985   6.420   5.446  11.953  0.3988 -0.0713 -0.7078
  608MOL0     C81986   6.439   5.356  11.833  0.2524  0.3231  0.3514
  608MOL0     C81987   6.567   5.397  11.752  0.2902  0.9482 -0.8491
  608MOL0     C81988   6.606   5.284  11.655 -0.6699 -0.1045  0.0064
  608MOL0    Cl81989   6.683   5.143  11.730  0.0090 -0.1848 -0.1214
  608MOL0     C81990   5.998   5.891  12.254 -0.4373 -0.1081 -0.2364
  608MOL0     C81991   5.894   5.975  12.284 -0.2492  0.5380 -0.0557
  608MOL0     O81992   5.880   6.375  12.402  0.4633  0.4319 -0.5166
  608MOL0     C81993   5.538   6.282  12.406 -0.6292 -0.3258  0.4343
  608MOL0     C81994   5.405   6.331  12.413 -0.2001 -0.3084  0.3673
  608MOL0     N81995   5.129   7.118  12.304 -0.3502  0.5211  0.1573
  608MOL0     N81996   5.108   7.236  12.275 -0.4450 -0.3058  0.0366
  608MOL0     C81997   5.541   8.103  11.460  0.3803  0.0698 -0.1002
  608MOL0     C81998   5.630   8.216  11.444  1.2933  0.0813 -0.0523
  608MOL0     C81999   5.960   8.481  11.285  0.1984 -0.3354 -0.1887
  608MOL0     C82000   6.072   8.488  11.366 -0.3680  0.4814  0.0812
  608MOL0     C82001   6.149   8.601  11.376  0.2544  0.6625 -0.0802
  608MOL0     C82002   6.119   8.707  11.283 -0.6600  0.4186  0.7417
  608MOL0     O82003   6.190   8.823  11.270  0.1014 -0.1783  0.4262
  608MOL0     C82004   6.251   8.879  11.383 -0.4819  0.2060 -0.2751
  608MOL0     C82005   6.172   8.959  11.483 -0.0364 -0.3509  0.4610
  608MOL0     C82006   6.090   9.079  11.426 -0.7206  0.1879  0.5077
  608MOL0     C82007   6.023   9.151  11.534 -0.3558 -0.5225 -0.7048
  608MOL0     C82008   5.891   9.184  11.482 -0.1915  0.4992  0.2339
  608MOL0     C82009   5.777   9.194  11.440 -0.8825  0.2137  0.2744
  608MOL0     C82010   6.018   8.690  11.181 -1.5355  0.4821 -0.5197
  608MOL0     C82011   5.936   8.581  11.190 -0.1050  0.8214  1.0250
  608MOL0     C82012   5.817   8.580  11.106  0.4029 -0.1216  0.6429
  608MOL0     H82013   5.883   8.047  11.310 -2.1604  0.7044 -3.5086
  608MOL0     H82014   5.731   7.846  11.348 -1.6530  0.4500 -0.3587
  608MOL0     H82015   5.616   7.697  11.474 -1.5323 -1.0364 -0.0350
  608MOL0     H82016   5.628   7.796  11.608  1.6040 -0.5041 -1.6048
  608MOL0     H82017   5.369   7.652  11.562  0.5447  2.4807 -1.5468
  608MOL0     H82018   5.420   7.744  11.708 -0.2361  1.8134 -1.4912
  608MOL0     H82019   5.605   7.582  11.729 -1.6132  3.1138  0.4829
  608MOL0     H82020   5.559   7.496  11.577 -1.9639  0.1975 -0.9043
  608MOL0     H82021   5.351   7.442  11.668 -0.1399 -0.1133  0.1022
  608MOL0     H82022   5.476   7.368  11.765  1.1521  0.6794  0.9646
  608MOL0     H82023   5.454   7.566  11.936 -1.1488  2.8482  1.0583
  608MOL0     H82024   5.321   7.621  11.845  1.0528  0.1880 -1.0479
  608MOL0     H82025   5.217   7.396  11.841  1.8383  0.3063 -1.8900
  608MOL0     H82026   5.325   7.333  11.959  0.4774 -0.9419 -0.2243
  608MOL0     H82027   5.144   7.569  12.007 -1.4228  0.6022  1.3373
  608MOL0     H82028   5.248   7.484  12.134  3.6306 -0.6172 -1.5300
  608MOL0     H82029   5.000   7.430  12.111  0.0371 -0.6257  0.3040
  608MOL0     H82030   5.030   7.334  11.970 -1.3177 -2.3523  0.9428
  608MOL0     H82031   5.148   7.086  11.983  1.0899  1.4712 -1.1936
  608MOL0     H82032   5.086   6.837  12.147  0.3177 -1.5638  0.3499
  608MOL0     H82033   5.261   6.874  12.145  0.5357  1.0051 -0.1500
  608MOL0     H82034   5.236   6.908  12.401  0.1376  1.8417 -2.3034
  608MOL0     H82035   5.061   6.837  12.380  0.4242  0.5826  1.5725
  608MOL0     H82036   5.323   6.709  12.303 -1.3009 -0.3663 -0.9558
  608MOL0     H82037   5.163   6.646  12.272  1.6013  3.9148 -4.4964
  608MOL0     H82038   5.114   6.633  12.516  0.2986 -1.1256  0.9242
  608MOL0     H82039   5.277   6.683  12.563 -0.3417 -5.3991  3.6465
  608MOL0     H82040   5.487   6.650  12.469  0.3744  0.9748 -3.6298
  608MOL0     H82041   5.713   6.569  12.452  0.3100  0.2854 -0.8001
  608MOL0     H82042   6.049   6.226  12.453 -5.1069  0.5415  0.4480
  608MOL0     H82043   6.240   6.089  12.369 -1.2497  1.1077  3.0461
  608MOL0     H82044   6.263   5.636  12.327  0.7820  1.1839 -0.8503
  608MOL0     H82045   6.102   5.669  12.302  0.0788  0.0404  0.1838
  608MOL0     H82046   6.199   5.534  12.117  0.3931  0.2338 -1.4402
  608MOL0     H82047   6.162   5.699  12.053  1.0454  0.3192 -0.8600
  608MOL0     H82048   6.380   5.764  12.059  1.4816  0.2557 -0.6776
  608MOL0     H82049   6.435   5.610  12.129  2.8999 -0.4819 -3.1507
  608MOL0     H82050   6.426   5.631  11.849 -2.8244 -3.2270 -4.4258
  608MOL0     H82051   6.268   5.599  11.878 -1.2562  5.0966  2.1894
  608MOL0     H82052   6.358   5.390  12.024  1.8641  1.0526  1.5748
  608MOL0     H82053   6.518   5.463  11.999  1.3486 -0.8692 -2.3323
  608MOL0     H82054   6.457   5.257  11.875 -1.2575 -1.1671 -2.2643
  608MOL0     H82055   6.355   5.361  11.762 -1.0581 -2.7606  1.4932
  608MOL0     H82056   6.648   5.411  11.824 -0.3649  0.2203  0.0571
  608MOL0     H82057   6.540   5.491  11.703 -2.1966 -0.2568 -1.9438
  608MOL0     H82058   6.524   5.248  11.593 -0.4503  2.0567 -1.6867
  608MOL0     H82059   6.680   5.310  11.579  0.2956 -1.7215  0.3380
  608MOL0     H82060   5.966   5.807  12.194 -0.9322  0.0636 -0.2223
  608MOL0     H82061   5.798   5.946  12.241  0.6439 -0.8511 -1.2223
  608MOL0     H82062   5.527   6.176  12.384  0.7508 -0.7964  1.8653
  608MOL0     H82063   5.325   6.259  12.405  0.9260 -1.6402  0.6397
  608MOL0     H82064   5.435   8.117  11.482  0.2705  0.9815 -1.1696
  608MOL0     H82065   5.609   8.318  11.475  1.8047 -0.3084  1.7089
  608MOL0     H82066   6.108   8.401  11.419 -1.5642 -1.8325 -2.5932
  608MOL0     H82067   6.237   8.604  11.439 -0.6316 -1.9230  1.4105
  608MOL0     H82068   6.332   8.945  11.352  0.4108 -0.7364  0.0182
  608MOL0     H82069   6.304   8.796  11.430 -0.6297  1.2831  1.8773
  608MOL0     H82070   6.228   8.998  11.569 -2.5973  0.7556  1.7307
  608MOL0     H82071   6.088   8.900  11.520 -1.0994  0.2998 -0.8195
  608MOL0     H82072   6.023   9.031  11.354 -1.2481  2.7545 -0.8481
  608MOL0     H82073   6.161   9.148  11.380  3.2419 -2.9078  1.3993
  608MOL0     H82074   6.018   9.099  11.630  0.4391  2.8457  1.3323
  608MOL0     H82075   6.078   9.242  11.560  0.4741 -1.8014  2.4760
  608MOL0     H82076   5.675   9.216  11.414 -1.3879 -1.8273  0.3472
  608MOL0     H82077   6.011   8.750  11.091 -0.0814  1.0249 -0.2997
  608MOL0     H82078   5.817   8.501  11.030 -0.3973 -2.7853  3.2324
  608MOL0     H82079   5.725   8.561  11.162 -1.6167  1.3727 -1.9108
  608MOL0     H82080   5.807   8.678  11.058 -0.3171  0.5460  2.0997
  609MOL0     O82081  10.877   8.084  10.004 -0.0943 -0.5043 -0.2769
  609MOL0     C82082  10.802   8.117  10.095  0.1460  0.2729 -0.3687
  609MOL0     O82083  10.749   8.241  10.115 -0.2342 -0.2771 -0.3777
  609MOL0     C82084  10.781   8.342  10.027 -0.0888 -0.1924 -0.4265
  609MOL0     C82085  10.695   8.363   9.925 -0.8259 -0.0855 -0.4494
  609MOL0     C82086  10.725   8.468   9.833  0.4750 -0.2698  0.2113
  609MOL0     C82087  10.842   8.541   9.838  0.2025  0.0926 -0.1516
  609MOL0     O82088  10.858   8.633   9.740 -0.3262  0.0083  0.2212
  609MOL0     C82089  10.991   8.691   9.728  0.1626  0.4664  0.9238
  609MOL0     C82090  11.000   8.748   9.591  0.1083 -0.3857 -0.1437
  609MOL0     C82091  10.972   8.640   9.486  0.1346 -1.3190  0.1750
  609MOL0     C82092  11.037   8.683   9.353  1.0988  1.2255  0.2297
  609MOL0     C82093  10.952   8.611   9.242  0.2244 -0.8464 -0.0872
  609MOL0     C82094  11.027   8.618   9.107 -0.1658 -0.8281 -0.0188
  609MOL0     C82095  11.044   8.756   9.045 -0.3209  0.5720  0.8055
  609MOL0     C82096  10.915   8.804   8.989  0.3051 -0.3749  0.3585
  609MOL0     N82097  10.873   8.726   8.867  0.0712 -0.1336  0.4101
  609MOL0     C82098  10.742   8.697   8.836  0.3621 -0.0297  0.3243
  609MOL0     C82099  10.741   8.606   8.739 -0.3948  1.5654 -0.6597
  609MOL0     C82100  10.615   8.541   8.688  0.5769  0.0136  0.0170
  609MOL0     C82101  10.634   8.399   8.634  0.3474  0.4274 -0.7972
  609MOL0     C82102  10.670   8.405   8.489  0.3993  0.5423 -0.1645
  609MOL0     C82103  10.636   8.276   8.409 -0.5240 -0.4744  0.0877
  609MOL0     O82104  10.492   8.258   8.437 -0.6000  0.5067 -0.4230
  609MOL0     C82105  10.417   8.334   8.354 -1.0153  0.6422 -0.2599
  609MOL0     C82106  10.411   8.323   8.215 -0.0959 -0.0936 -0.4708
  609MOL0     C82107  10.311   8.391   8.142 -0.8696 -1.1246  0.0373
  609MOL0     C82108  10.230   8.479   8.206  0.4466 -0.6322  0.3966
  609MOL0     C82109  10.121   8.555   8.125 -0.0353 -0.2713  0.1139
  609MOL0     O82110  10.070   8.485   8.019 -0.4287  0.5057  0.4522
  609MOL0     C82111   9.995   8.539   7.913 -0.6797  0.1688 -0.6845
  609MOL0     C82112  10.050   8.630   7.821 -0.5735 -0.6704 -0.1815
  609MOL0     C82113   9.967   8.690   7.723 -0.0092  0.2325 -0.4413
  609MOL0     C82114   9.841   8.641   7.704  0.4960  0.0282  0.4153
  609MOL0     O82115   9.775   8.701   7.599  0.1019  0.3762  0.3060
  609MOL0     C82116   9.680   8.616   7.525 -0.3441  0.1567  0.4451
  609MOL0     C82117   9.574   8.695   7.453 -0.7959 -0.3539 -0.0063
  609MOL0     C82118   9.451   8.622   7.401  0.9502 -0.7819  0.4330
  609MOL0     C82119   9.344   8.577   7.501 -0.0708 -0.4348 -1.0613
  609MOL0     C82120   9.230   8.484   7.445 -0.0033 -0.3479 -0.0944
  609MOL0     C82121   9.142   8.546   7.348  0.4783 -0.4885  0.5070
  609MOL0     C82122   9.017   8.461   7.321 -0.9069 -0.5324  0.2663
  609MOL0     C82123   8.921   8.529   7.227  0.2850 -0.6308 -0.1136
  609MOL0    Cl82124   8.784   8.411   7.188 -0.0836 -0.0718  0.1150
  609MOL0     C82125   9.790   8.540   7.785 -0.0597  0.1960  0.4846
  609MOL0     C82126   9.863   8.486   7.889 -0.3073  0.1929  0.4773
  609MOL0     O82127  10.099   8.670   8.150  0.3205 -0.1006  0.2165
  609MOL0     C82128  10.232   8.503   8.346 -0.2245  0.7358  0.4361
  609MOL0     C82129  10.323   8.425   8.411 -0.1141 -0.5123 -0.2565
  609MOL0     N82130  10.875   8.577   8.705  0.1374 -0.1281 -0.4915
  609MOL0     N82131  10.949   8.651   8.784  0.1593  0.0124 -0.0708
  609MOL0     C82132  10.934   8.513   9.946  0.5061  0.1988  0.3279
  609MOL0     C82133  10.908   8.409  10.041 -0.1520 -0.7761 -0.6259
  609MOL0     C82134  10.755   8.016  10.198  0.1617 -1.5141 -0.1742
  609MOL0     C82135  10.627   8.014  10.242 -0.3396  0.6082  0.0796
  609MOL0     C82136  10.575   7.929  10.344 -0.4116 -0.9148 -1.1961
  609MOL0     C82137  10.673   7.865  10.421 -0.8294 -0.5644  0.0454
  609MOL0     O82138  10.625   7.791  10.527  0.5936  0.1305  0.1842
  609MOL0     C82139  10.679   7.816  10.656 -0.4947 -0.2907 -0.9640
  609MOL0     C82140  10.694   7.690  10.729  0.1850 -1.0576 -0.6979
  609MOL0     C82141  10.814   7.610  10.674  0.4858 -1.1673  0.5858
  609MOL0     C82142  10.785   7.458  10.669  0.4314  0.2938 -0.1720
  609MOL0     C82143  10.743   7.402  10.800 -0.0175  0.5136 -0.1710
  609MOL0     C82144  10.723   7.370  10.911  0.9769  0.0428 -0.4581
  609MOL0     C82145  10.804   7.856  10.384  0.3522 -0.4122  0.2939
  609MOL0     C82146  10.846   7.937  10.274 -0.7516  0.7532 -0.2472
  609MOL0     C82147  10.991   7.953  10.267 -0.5992  0.9613  0.0399
  609MOL0     H82148  10.598   8.316   9.920  0.9327 -4.0461 -1.1993
  609MOL0     H82149  10.648   8.481   9.758 -0.6823  2.5956  1.7247
  609MOL0     H82150  11.007   8.772   9.800  1.6938 -0.6485  1.8975
  609MOL0     H82151  11.066   8.613   9.739 -0.9375 -0.5588  1.4877
  609MOL0     H82152  11.102   8.786   9.583  1.2814 -2.2639  3.4933
  609MOL0     H82153  10.930   8.832   9.592 -0.0404 -0.4849 -1.4232
  609MOL0     H82154  10.863   8.631   9.477 -0.4633  4.0580 -1.9270
  609MOL0     H82155  11.024   8.549   9.516  2.2231 -0.4012 -0.5362
  609MOL0     H82156  11.022   8.791   9.338  0.2390  0.7966 -2.5771
  609MOL0     H82157  11.140   8.646   9.344  0.1250 -1.6751  0.0773
  609MOL0     H82158  10.936   8.510   9.279  3.8488 -0.4397  3.2188
  609MOL0     H82159  10.852   8.652   9.227  1.1837  1.2744 -1.3670
  609MOL0     H82160  11.128   8.582   9.130  0.7734  1.7343  0.1454
  609MOL0     H82161  10.979   8.550   9.035  2.7937 -1.5020 -1.5636
  609MOL0     H82162  11.119   8.747   8.966 -0.9337 -1.4389  0.3805
  609MOL0     H82163  11.081   8.835   9.110  0.8488  1.8157 -1.2860
  609MOL0     H82164  10.830   8.795   9.057 -1.6977 -1.4473 -2.1166
  609MOL0     H82165  10.915   8.907   8.951 -3.7231 -0.5206 -0.4752
  609MOL0     H82166  10.660   8.746   8.889  0.3299  1.8509 -1.3809
  609MOL0     H82167  10.536   8.546   8.763  0.4893  0.4243 -0.0959
  609MOL0     H82168  10.561   8.599   8.613 -1.9539  0.8899  2.3546
  609MOL0     H82169  10.718   8.349   8.685  0.0505 -3.4077 -3.6439
  609MOL0     H82170  10.540   8.345   8.645  1.4117 -1.1300  1.7126
  609MOL0     H82171  10.777   8.426   8.479  0.2653  0.4001 -2.4374
  609MOL0     H82172  10.619   8.495   8.451 -1.5718  0.7650  2.6945
  609MOL0     H82173  10.703   8.196   8.440 -0.1473  0.6213  2.2572
  609MOL0     H82174  10.661   8.286   8.303 -1.1704 -2.6255 -0.3240
  609MOL0     H82175  10.478   8.251   8.170  2.1339  1.0094  0.9229
  609MOL0     H82176  10.301   8.362   8.038  1.1739  0.1800 -0.5797
  609MOL0     H82177  10.152   8.664   7.825 -0.3143 -1.5409  2.3544
  609MOL0     H82178  10.004   8.768   7.657  1.8976 -0.9469 -0.8347
  609MOL0     H82179   9.742   8.569   7.449 -1.0642  2.0310 -1.4227
  609MOL0     H82180   9.628   8.549   7.593  1.8999 -1.6478  0.4939
  609MOL0     H82181   9.550   8.786   7.509  1.4554  1.2599 -1.4392
  609MOL0     H82182   9.629   8.735   7.367 -1.0222 -2.1071 -1.0058
  609MOL0     H82183   9.408   8.669   7.313  3.7381 -4.0726 -3.0464
  609MOL0     H82184   9.493   8.531   7.357  0.4223 -0.3150 -1.0896
  609MOL0     H82185   9.293   8.665   7.543  0.4078 -1.0321  0.8649
  609MOL0     H82186   9.380   8.529   7.592 -0.2195  1.9689  0.3525
  609MOL0     H82187   9.169   8.473   7.535  0.8875 -0.1666  0.5478
  609MOL0     H82188   9.286   8.398   7.407 -0.2417 -1.7557  2.5208
  609MOL0     H82189   9.133   8.653   7.370 -1.3710 -0.1835 -1.3755
  609MOL0     H82190   9.186   8.544   7.248 -1.0083 -0.6437 -0.1675
  609MOL0     H82191   8.970   8.439   7.418 -0.6477  1.1804  0.8123
  609MOL0     H82192   9.056   8.371   7.273  0.9722 -0.1297  0.9361
  609MOL0     H82193   8.875   8.612   7.280 -1.0100 -1.6367  0.3822
  609MOL0     H82194   8.966   8.568   7.136 -2.9651  0.4805 -1.3706
  609MOL0     H82195   9.697   8.490   7.762 -0.3005  1.2334 -0.9311
  609MOL0     H82196   9.815   8.413   7.954  0.8415  0.1835  1.3658
  609MOL0     H82197  10.160   8.564   8.399  1.0961  1.6805  1.2231
  609MOL0     H82198  10.326   8.425   8.519 -0.9387  3.8295 -0.0381
  609MOL0     H82199  11.028   8.567   9.953 -0.5083  2.3987 -1.7272
  609MOL0     H82200  10.973   8.392  10.126 -0.9417 -0.1540  0.1220
  609MOL0     H82201  10.551   8.068  10.187 -0.6639 -1.9363 -2.1857
  609MOL0     H82202  10.477   7.930  10.390  1.9488 -0.2101  4.5926
  609MOL0     H82203  10.607   7.875  10.713 -0.4226  0.1477 -1.3206
  609MOL0     H82204  10.770   7.875  10.649  0.7053 -0.9930  4.6007
  609MOL0     H82205  10.595   7.644  10.732 -0.0764 -0.5142  2.2623
  609MOL0     H82206  10.712   7.710  10.835 -2.2184 -0.4108 -0.3695
  609MOL0     H82207  10.903   7.650  10.724 -1.3702  4.5862 -0.0587
  609MOL0     H82208  10.820   7.635  10.568 -0.8764 -1.8780  0.3244
  609MOL0     H82209  10.709   7.441  10.592  2.3777 -2.7540 -1.6172
  609MOL0     H82210  10.879   7.421  10.628 -0.5129 -1.6899 -0.6683
  609MOL0     H82211  10.713   7.362  11.018  0.2415  0.8914 -0.4595
  609MOL0     H82212  10.884   7.812  10.443  0.7061  1.4826  1.3055
  609MOL0     H82213  11.031   7.896  10.183  1.4495  0.2205  1.4252
  609MOL0     H82214  11.025   8.056  10.257 -0.2955  0.6577 -2.9862
  609MOL0     H82215  11.043   7.926  10.360 -2.7177 -0.7014  0.8477
  610MOL0     O82216   5.386   3.155   8.848 -0.5405 -0.0379 -1.0559
  610MOL0     C82217   5.462   3.074   8.804  0.3784  0.8649  0.4511
  610MOL0     O82218   5.585   3.051   8.852  0.8957  0.6034 -0.4379
  610MOL0     C82219   5.645   3.117   8.962 -0.0740  0.1339 -0.2318
  610MOL0     C82220   5.766   3.070   9.008 -0.4516 -0.1276  0.4416
  610MOL0     C82221   5.836   3.111   9.120  0.3481  0.2557  0.2626
  610MOL0     C82222   5.785   3.229   9.191  0.3735 -1.0940  0.2064
  610MOL0     O82223   5.848   3.299   9.296 -0.0123 -0.7176  0.3498
  610MOL0     C82224   5.988   3.284   9.311  0.5894  0.2820 -0.3298
  610MOL0     C82225   6.031   3.366   9.426  0.2574  0.1906 -0.0525
  610MOL0     C82226   6.177   3.331   9.480 -0.0940 -0.4893 -1.0005
  610MOL0     C82227   6.186   3.376   9.630  0.1582 -0.1065 -1.0405
  610MOL0     C82228   6.339   3.398   9.644  0.5563  1.0649 -0.3994
  610MOL0     C82229   6.367   3.456   9.782  0.1401 -0.8068 -0.8232
  610MOL0     C82230   6.514   3.504   9.798 -0.2479 -0.2061 -0.4687
  610MOL0     C82231   6.548   3.543   9.946 -0.0314  0.5454  0.6406
  610MOL0     N82232   6.457   3.638  10.000 -0.3147 -0.5728  1.1418
  610MOL0     C82233   6.359   3.616  10.098  0.3562  0.3662 -0.1665
  610MOL0     C82234   6.314   3.734  10.138 -0.1324 -0.8479  0.7066
  610MOL0     C82235   6.216   3.778  10.240 -0.0754  0.4332  0.1310
  610MOL0     C82236   6.070   3.770  10.189  0.3841  0.3568  0.8058
  610MOL0     C82237   6.016   3.629  10.221  0.6545  0.0888  0.3776
  610MOL0     C82238   5.867   3.624  10.181 -0.2969  0.5213  0.7475
  610MOL0     O82239   5.833   3.661  10.043  0.4431 -0.2904  0.0341
  610MOL0     C82240   5.705   3.664  10.002 -0.7371 -0.1247 -0.0434
  610MOL0     C82241   5.601   3.598  10.062 -0.3227  0.0630 -0.0842
  610MOL0     C82242   5.469   3.616  10.022  0.4301 -0.0188  0.6530
  610MOL0     C82243   5.436   3.707   9.919  1.1983  1.1261  0.8593
  610MOL0     C82244   5.297   3.730   9.877  0.6177  0.6299 -2.1814
  610MOL0     O82245   5.282   3.802   9.755  0.3290  0.4466 -0.6315
  610MOL0     C82246   5.160   3.810   9.696 -0.3047  0.0086  0.0663
  610MOL0     C82247   5.028   3.818   9.752 -0.4256  0.4016 -0.4503
  610MOL0     C82248   4.915   3.816   9.671 -0.5352 -0.6095  0.2623
  610MOL0     C82249   4.928   3.836   9.529  0.4912 -0.5849 -0.5403
  610MOL0     O82250   4.816   3.815   9.460  0.7414  0.5955 -0.6641
  610MOL0     C82251   4.813   3.863   9.323  0.4804 -0.4615  0.8565
  610MOL0     C82252   4.679   3.811   9.271 -0.7759  0.2176 -0.0430
  610MOL0     C82253   4.550   3.858   9.343 -0.8866  0.2313 -0.1649
  610MOL0     C82254   4.416   3.801   9.283 -0.5113 -0.2753 -0.5670
  610MOL0     C82255   4.300   3.850   9.364  0.0022  0.1183 -0.1382
  610MOL0     C82256   4.269   4.005   9.336 -0.2325  0.6323  0.1144
  610MOL0     C82257   4.167   4.053   9.439  0.5425 -0.5291 -0.5166
  610MOL0     C82258   4.221   4.118   9.568  0.0261 -0.4822 -0.5140
  610MOL0    Cl82259   4.083   4.152   9.668  0.0200 -0.0588 -0.1784
  610MOL0     C82260   5.057   3.853   9.473  0.8927  0.5890 -0.4998
  610MOL0     C82261   5.173   3.830   9.554  1.0196 -0.6656  0.3416
  610MOL0     O82262   5.206   3.687   9.953 -0.8153  0.3784 -0.0692
  610MOL0     C82263   5.540   3.763   9.844 -0.8388  0.0250 -0.6798
  610MOL0     C82264   5.672   3.748   9.885  0.2711  0.2734  0.1681
  610MOL0     N82265   6.383   3.832  10.062 -0.2117 -0.0319 -1.0801
  610MOL0     N82266   6.476   3.774   9.979  0.2206 -0.6155  0.4129
  610MOL0     C82267   5.663   3.278   9.149 -0.3699  0.3718 -0.9248
  610MOL0     C82268   5.592   3.224   9.039  0.3539 -0.1083  0.1316
  610MOL0     C82269   5.405   3.009   8.679 -0.8625 -0.2549 -0.0122
  610MOL0     C82270   5.269   2.970   8.679 -0.1202 -0.1135  0.0925
  610MOL0     C82271   5.211   2.915   8.564 -0.4710  1.4345  0.2381
  610MOL0     C82272   5.287   2.890   8.449  1.3948  0.0573 -0.0258
  610MOL0     O82273   5.230   2.827   8.341 -0.0078  0.1586  0.1929
  610MOL0     C82274   5.258   2.678   8.340 -0.5295 -0.4634  0.6381
  610MOL0     C82275   5.226   2.613   8.207 -0.1353 -0.8867 -0.1399
  610MOL0     C82276   5.093   2.665   8.139  0.4737 -0.7080  0.3922
  610MOL0     C82277   5.011   2.549   8.082 -1.1718 -0.9305  0.1274
  610MOL0     C82278   4.878   2.602   8.043  0.0971  0.6864 -0.4520
  610MOL0     C82279   4.768   2.643   8.039  0.4223  0.0492  0.4664
  610MOL0     C82280   5.411   2.944   8.441 -0.8363  0.8581 -0.2586
  610MOL0     C82281   5.476   3.002   8.557 -1.2109  0.8239  0.3287
  610MOL0     C82282   5.623   3.042   8.556 -0.9878  0.0431 -0.2574
  610MOL0     H82283   5.805   2.986   8.952 -1.1786 -0.6723  0.7374
  610MOL0     H82284   5.931   3.064   9.145  0.4551 -0.9740 -2.2481
  610MOL0     H82285   6.016   3.182   9.339  0.2196  0.1109 -0.5706
  610MOL0     H82286   6.046   3.308   9.221  1.4939  1.0253  0.4367
  610MOL0     H82287   5.974   3.354   9.518  1.3630  0.4544  0.6864
  610MOL0     H82288   6.026   3.471   9.395 -3.6391 -0.0966 -0.8140
  610MOL0     H82289   6.255   3.373   9.416  1.7875 -1.0130  0.8344
  610MOL0     H82290   6.200   3.224   9.474  2.2275 -0.0431 -0.8258
  610MOL0     H82291   6.132   3.469   9.651 -2.0041 -1.9973  3.2222
  610MOL0     H82292   6.146   3.306   9.704  1.2536 -0.0324 -0.3597
  610MOL0     H82293   6.388   3.300   9.638  0.0428  0.7710  0.0895
  610MOL0     H82294   6.392   3.457   9.568  2.0388  0.9046  0.4762
  610MOL0     H82295   6.306   3.539   9.817 -0.9646 -3.3080  4.0633
  610MOL0     H82296   6.345   3.381   9.858  2.0176  0.5258  1.1397
  610MOL0     H82297   6.541   3.584   9.728  0.3066 -1.5723 -1.8755
  610MOL0     H82298   6.577   3.420   9.767 -0.8827 -0.6492 -0.5811
  610MOL0     H82299   6.552   3.452  10.008 -3.4542  0.2387  0.5835
  610MOL0     H82300   6.649   3.585   9.944  1.4537 -2.6830 -0.4781
  610MOL0     H82301   6.334   3.515  10.130 -1.2928  0.7163 -0.2565
  610MOL0     H82302   6.232   3.723  10.333  2.1423 -0.2920 -0.6175
  610MOL0     H82303   6.236   3.883  10.262 -1.8438  1.6015 -3.1577
  610MOL0     H82304   6.023   3.852  10.245  0.6385  1.0199  0.0742
  610MOL0     H82305   6.050   3.789  10.083  0.5183  1.6419  0.9910
  610MOL0     H82306   6.025   3.606  10.327  0.6535 -1.6332  0.0411
  610MOL0     H82307   6.067   3.557  10.155  0.5712  0.0657  0.3386
  610MOL0     H82308   5.820   3.704  10.238  1.6085  2.0576  0.2629
  610MOL0     H82309   5.830   3.527  10.214 -0.2294 -0.4617 -1.8668
  610MOL0     H82310   5.612   3.526  10.143  2.6795  0.2787 -0.1982
  610MOL0     H82311   5.396   3.546  10.061  0.9636 -0.2250  1.2920
  610MOL0     H82312   5.002   3.814   9.858 -1.9904 -1.5087 -0.8337
  610MOL0     H82313   4.826   3.808   9.732 -0.0733  2.9806  1.6901
  610MOL0     H82314   4.821   3.972   9.323  2.7061 -0.5885  0.4266
  610MOL0     H82315   4.883   3.819   9.252  0.8601  1.1018  0.2284
  610MOL0     H82316   4.679   3.841   9.165  2.4613 -0.1732 -0.2643
  610MOL0     H82317   4.682   3.702   9.280 -1.0880  0.2561  0.5869
  610MOL0     H82318   4.555   3.821   9.445 -2.1093  1.8430  0.5160
  610MOL0     H82319   4.547   3.967   9.352 -0.6518  0.1636  0.8499
  610MOL0     H82320   4.407   3.694   9.262 -0.0874 -0.8119  1.6735
  610MOL0     H82321   4.394   3.845   9.185 -0.3622 -0.3585 -0.6376
  610MOL0     H82322   4.305   3.827   9.471 -3.2597  0.7155  0.2684
  610MOL0     H82323   4.212   3.796   9.327 -0.2825  0.4986 -0.0289
  610MOL0     H82324   4.360   4.066   9.341  0.3201  0.0829 -2.2608
  610MOL0     H82325   4.224   4.015   9.237  2.0451 -1.0921 -1.2101
  610MOL0     H82326   4.129   3.965   9.491  2.0293 -1.0067 -0.2074
  610MOL0     H82327   4.081   4.102   9.393 -0.1033 -2.9113 -2.0071
  610MOL0     H82328   4.290   4.049   9.618  0.3805  0.1693 -0.0927
  610MOL0     H82329   4.279   4.208   9.546 -1.9301  0.2704 -3.0578
  610MOL0     H82330   5.079   3.853   9.367  1.4143 -1.9242 -0.4564
  610MOL0     H82331   5.277   3.837   9.524  1.5903 -0.7488  2.1654
  610MOL0     H82332   5.525   3.848   9.777  1.3656 -1.2384 -2.9457
  610MOL0     H82333   5.753   3.806   9.841  0.9622  0.5920  1.7790
  610MOL0     H82334   5.622   3.363   9.203  0.7834  0.2473  0.1759
  610MOL0     H82335   5.490   3.259   9.030  0.9846  1.9568  0.3912
  610MOL0     H82336   5.194   2.978   8.756 -0.5145  2.8917 -0.4792
  610MOL0     H82337   5.109   2.877   8.555  1.0031 -2.7300 -1.1189
  610MOL0     H82338   5.222   2.624   8.428  1.5154  0.2499  1.9952
  610MOL0     H82339   5.367   2.672   8.340 -0.5020 -0.5946 -1.2336
  610MOL0     H82340   5.231   2.504   8.215  1.3305 -0.7866  0.6865
  610MOL0     H82341   5.311   2.620   8.139 -1.4750 -3.9306 -2.3719
  610MOL0     H82342   5.111   2.729   8.052 -3.3885  0.8311  0.5491
  610MOL0     H82343   5.034   2.730   8.204  0.2885  0.2203 -0.6790
  610MOL0     H82344   5.071   2.519   7.996 -0.6924  1.6006 -0.5148
  610MOL0     H82345   5.005   2.469   8.156  2.5226 -2.7464 -1.2785
  610MOL0     H82346   4.665   2.669   8.034  0.1899 -1.0240 -0.9426
  610MOL0     H82347   5.470   2.945   8.350 -3.1048 -3.2045 -2.0546
  610MOL0     H82348   5.672   3.033   8.458 -0.1642 -0.2143  0.1648
  610MOL0     H82349   5.616   3.147   8.587  1.0878 -0.4560  2.2068
  610MOL0     H82350   5.680   2.984   8.629 -0.8098  3.4268  2.5595
  611MOL0     O82351   2.093   7.377   6.063  0.1339  0.5980  0.3960
  611MOL0     C82352   2.074   7.302   5.965  0.2989  0.1480 -0.0025
  611MOL0     O82353   1.966   7.291   5.885  0.0175 -0.6192  0.2860
  611MOL0     C82354   1.863   7.390   5.884 -0.1882 -1.1640  0.8939
  611MOL0     C82355   1.821   7.482   5.979 -0.3740 -0.6837 -0.8666
  611MOL0     C82356   1.721   7.588   5.964  0.4619 -0.3963 -0.4708
  611MOL0     C82357   1.652   7.580   5.845  0.7551 -0.6761 -0.1622
  611MOL0     O82358   1.529   7.637   5.805 -0.2179  0.0738  0.4391
  611MOL0     C82359   1.441   7.701   5.900  0.0012  0.7965 -0.2989
  611MOL0     C82360   1.314   7.756   5.847 -0.5729  0.2492 -0.1491
  611MOL0     C82361   1.205   7.793   5.955 -0.4593 -1.1154 -0.1129
  611MOL0     C82362   1.095   7.882   5.883  0.3395 -0.2928  0.0511
  611MOL0     C82363   1.138   8.020   5.834 -0.2829 -0.0169  0.6394
  611MOL0     C82364   1.013   8.100   5.810  0.3094 -0.2741 -1.3174
  611MOL0     C82365   0.949   8.161   5.936 -0.2071  0.0757 -0.7950
  611MOL0     C82366   1.033   8.270   6.003  0.1746 -0.3526 -0.2235
  611MOL0     N82367   0.994   8.409   5.963 -0.0333  0.2269  0.2433
  611MOL0     C82368   1.009   8.459   5.838  0.3079  0.7643 -0.2755
  611MOL0     C82369   0.974   8.591   5.839 -0.0089 -0.1331 -0.3145
  611MOL0     C82370   0.966   8.679   5.709 -1.2880 -0.4433  0.7436
  611MOL0     C82371   0.828   8.669   5.635  0.0326 -0.1655 -0.5098
  611MOL0     C82372   0.766   8.807   5.590  0.0371  0.5290  0.3788
  611MOL0     C82373   0.863   8.879   5.498  0.2060 -0.6080 -0.1752
  611MOL0     O82374   0.853   8.816   5.367 -0.6217  1.1498  0.7168
  611MOL0     C82375   0.955   8.847   5.271  0.2746  0.0101 -0.4893
  611MOL0     C82376   1.037   8.962   5.268 -0.4096 -0.1000  0.0084
  611MOL0     C82377   1.147   8.967   5.178 -0.4317 -0.6124 -0.0686
  611MOL0     C82378   1.176   8.874   5.080  0.3353  0.1949 -0.7683
  611MOL0     C82379   1.273   8.903   4.964 -0.1766 -0.6184 -0.6087
  611MOL0     O82380   1.253   8.824   4.849 -0.3534  0.2950 -0.2685
  611MOL0     C82381   1.330   8.852   4.736 -0.4179  0.5811 -0.2102
  611MOL0     C82382   1.384   8.745   4.660  0.3900  0.2470  0.5580
  611MOL0     C82383   1.468   8.770   4.551 -0.0739  0.3925 -0.6981
  611MOL0     C82384   1.514   8.900   4.529  0.2993  0.6911 -0.1211
  611MOL0     O82385   1.603   8.905   4.432 -0.7613  0.7356  0.0382
  611MOL0     C82386   1.587   9.013   4.341 -0.5326  0.0098  0.9674
  611MOL0     C82387   1.692   9.126   4.384  0.1756  0.6001  0.3194
  611MOL0     C82388   1.829   9.063   4.384  0.7769  0.0329 -0.7196
  611MOL0     C82389   1.930   9.150   4.467 -0.5521 -0.8383 -0.6674
  611MOL0     C82390   2.069   9.126   4.424 -0.8903 -0.0533  1.3165
  611MOL0     C82391   2.169   9.211   4.494 -0.0989 -0.9923 -0.0339
  611MOL0     C82392   2.287   9.252   4.400  0.0825 -0.0786  0.0396
  611MOL0     C82393   2.415   9.276   4.486 -0.8076 -0.2558  1.3220
  611MOL0    Cl82394   2.555   9.252   4.383 -0.1361 -0.1212  0.1054
  611MOL0     C82395   1.466   9.004   4.605  0.6034  0.1114 -0.0006
  611MOL0     C82396   1.372   8.981   4.703 -0.8062  0.3404  0.4757
  611MOL0     O82397   1.360   8.984   4.983 -0.1615 -0.7833  0.3591
  611MOL0     C82398   1.095   8.759   5.084 -0.1920 -0.0286 -0.5038
  611MOL0     C82399   0.979   8.752   5.174 -0.6357  0.5742  0.2044
  611MOL0     N82400   0.942   8.624   5.968  0.8300  0.0154 -0.6763
  611MOL0     N82401   0.944   8.514   6.042 -1.0711  0.1235  0.2349
  611MOL0     C82402   1.692   7.487   5.743  0.4381  0.3041  0.0813
  611MOL0     C82403   1.796   7.393   5.766  0.0068  1.5370  0.4136
  611MOL0     C82404   2.180   7.208   5.936  0.4668 -0.5270 -0.5020
  611MOL0     C82405   2.139   7.083   5.901  0.2331 -0.1402 -0.3295
  611MOL0     C82406   2.241   6.977   5.879 -0.6082 -0.7310 -0.4028
  611MOL0     C82407   2.373   6.998   5.907 -1.0214  0.3439  0.1810
  611MOL0     O82408   2.480   6.913   5.905 -0.0339  0.0766  0.1678
  611MOL0     C82409   2.453   6.781   5.942 -0.6621  0.0611 -0.4073
  611MOL0     C82410   2.586   6.694   5.946 -0.1605  0.8913 -0.7187
  611MOL0     C82411   2.638   6.658   5.806  0.2036  0.1289 -1.4494
  611MOL0     C82412   2.749   6.551   5.804  0.3442  0.1756  1.4126
  611MOL0     C82413   2.831   6.585   5.690 -0.1227  0.5061  0.0424
  611MOL0     C82414   2.912   6.602   5.603  0.0747 -0.6325 -0.2229
  611MOL0     C82415   2.405   7.128   5.942  0.5792 -0.5934  0.0620
  611MOL0     C82416   2.313   7.229   5.965 -0.1239  0.9066  0.1363
  611MOL0     C82417   2.373   7.362   5.994  0.9046 -0.4843 -0.1241
  611MOL0     H82418   1.874   7.486   6.074 -0.2240 -1.5306 -0.9079
  611MOL0     H82419   1.692   7.657   6.042  2.1129  0.0573 -0.2262
  611MOL0     H82420   1.413   7.625   5.974 -0.9189  1.7264  0.3387
  611MOL0     H82421   1.494   7.784   5.948 -1.5816  1.9173 -0.4258
  611MOL0     H82422   1.267   7.683   5.780 -1.4496  0.8660 -0.2377
  611MOL0     H82423   1.346   7.842   5.787  3.5837 -2.7891 -2.8500
  611MOL0     H82424   1.250   7.852   6.036 -1.8956  1.8720 -1.3446
  611MOL0     H82425   1.171   7.701   6.003 -0.1335 -1.2435 -0.1237
  611MOL0     H82426   1.058   7.834   5.792  0.8687  0.7771 -0.7378
  611MOL0     H82427   1.016   7.881   5.959  2.1818 -2.8695  2.1433
  611MOL0     H82428   1.215   8.065   5.897 -0.5394 -1.2453  1.8768
  611MOL0     H82429   1.183   8.009   5.734 -0.0529 -0.1427  0.7562
  611MOL0     H82430   1.035   8.179   5.737  3.8881 -0.8405 -1.0214
  611MOL0     H82431   0.941   8.030   5.768  0.8158 -0.3479 -2.0795
  611MOL0     H82432   0.931   8.073   5.999 -1.9237  0.2091 -1.0407
  611MOL0     H82433   0.851   8.201   5.907 -0.0321  1.3161  0.2559
  611MOL0     H82434   1.027   8.271   6.112 -1.6208 -1.9110 -0.2614
  611MOL0     H82435   1.139   8.262   5.979  0.3000  2.3400 -0.9125
  611MOL0     H82436   1.034   8.399   5.751 -2.1758 -1.1475  0.2152
  611MOL0     H82437   0.989   8.782   5.738 -1.9653 -0.3277  0.8728
  611MOL0     H82438   1.044   8.644   5.640 -0.5506  1.0927  0.7496
  611MOL0     H82439   0.842   8.604   5.548  1.6789 -0.1295 -0.3131
  611MOL0     H82440   0.759   8.616   5.701 -1.5093  1.5593 -0.6823
  611MOL0     H82441   0.760   8.858   5.686 -3.5922  4.0833 -1.4200
  611MOL0     H82442   0.664   8.792   5.555  0.0026 -4.4116  1.8372
  611MOL0     H82443   0.965   8.865   5.536  0.3405 -2.5587 -1.1358
  611MOL0     H82444   0.841   8.986   5.493 -0.1028 -0.7204 -2.7372
  611MOL0     H82445   1.019   9.055   5.322 -2.3883  0.0671 -0.8527
  611MOL0     H82446   1.195   9.063   5.163 -2.0341  0.5137  1.6737
  611MOL0     H82447   1.358   8.643   4.685 -0.3580  0.8219  2.3341
  611MOL0     H82448   1.506   8.689   4.490  3.2452 -0.5454  2.2545
  611MOL0     H82449   1.603   8.985   4.236 -0.0212  1.6313  0.5854
  611MOL0     H82450   1.488   9.057   4.348 -0.4218  0.5439 -0.4319
  611MOL0     H82451   1.674   9.209   4.316  2.1173  0.3336 -0.5871
  611MOL0     H82452   1.674   9.151   4.489  0.5375 -4.4169  1.8408
  611MOL0     H82453   1.828   8.963   4.427 -1.1662  1.1252  2.1305
  611MOL0     H82454   1.857   9.070   4.279 -0.2854  2.5172 -0.9127
  611MOL0     H82455   1.911   9.135   4.574  1.1056 -2.4702 -0.5558
  611MOL0     H82456   1.905   9.254   4.444 -0.4387 -0.4924  0.6950
  611MOL0     H82457   2.077   9.134   4.316 -0.8431 -0.1009  1.3159
  611MOL0     H82458   2.088   9.018   4.430 -0.6344 -0.1619 -0.8275
  611MOL0     H82459   2.118   9.301   4.532 -0.7869 -2.2462  2.2301
  611MOL0     H82460   2.193   9.155   4.585 -0.4224 -0.7366  0.2159
  611MOL0     H82461   2.261   9.341   4.342 -0.6063 -0.1889  0.1714
  611MOL0     H82462   2.311   9.167   4.335 -1.8867  0.2416 -1.1914
  611MOL0     H82463   2.424   9.375   4.532  0.4144 -0.9687  2.6935
  611MOL0     H82464   2.430   9.196   4.559  0.3077 -1.8055 -0.5128
  611MOL0     H82465   1.496   9.108   4.590  2.5610 -0.6083 -1.4120
  611MOL0     H82466   1.333   9.068   4.756  1.1933  1.7054 -0.1744
  611MOL0     H82467   1.100   8.676   5.014 -1.0460 -0.3953 -0.1402
  611MOL0     H82468   0.907   8.672   5.159 -2.1770  2.1228 -1.0894
  611MOL0     H82469   1.640   7.474   5.649 -0.0880  0.3764  0.3597
  611MOL0     H82470   1.816   7.326   5.683 -0.7670  2.6125 -0.6808
  611MOL0     H82471   2.039   7.041   5.895  0.2999 -0.1758 -1.3674
  611MOL0     H82472   2.211   6.875   5.859 -2.6973 -0.1094 -0.7020
  611MOL0     H82473   2.388   6.734   5.868 -1.2326  3.4815 -2.2935
  611MOL0     H82474   2.411   6.782   6.043  1.2257 -0.4699  0.4295
  611MOL0     H82475   2.561   6.602   5.999 -0.1556  1.7424  0.8193
  611MOL0     H82476   2.660   6.748   6.006 -0.5800  1.6565 -0.8722
  611MOL0     H82477   2.681   6.750   5.768  2.9925 -0.0668  0.8999
  611MOL0     H82478   2.564   6.629   5.731 -0.6898  0.9881 -0.9244
  611MOL0     H82479   2.819   6.570   5.886  1.5110  1.3020  0.2141
  611MOL0     H82480   2.711   6.449   5.802  1.6348 -0.3786 -1.9209
  611MOL0     H82481   2.984   6.617   5.525  1.8176 -1.0733  1.2256
  611MOL0     H82482   2.510   7.138   5.970  0.9098 -0.4619 -1.1768
  611MOL0     H82483   2.482   7.366   5.994  0.9155  1.8472 -1.9620
  611MOL0     H82484   2.343   7.433   5.916 -0.1099 -2.0019 -1.1606
  611MOL0     H82485   2.347   7.408   6.090  2.5518  0.9958 -0.3431
  612MOL0     O82486   5.595   4.947   5.330 -0.1467  0.3861 -0.5081
  612MOL0     C82487   5.518   4.946   5.231  0.9097 -0.3407  0.4449
  612MOL0     O82488   5.423   5.041   5.195  0.4533  0.3930  0.1396
  612MOL0     C82489   5.370   5.125   5.280  0.5228  0.4451 -0.4888
  612MOL0     C82490   5.262   5.204   5.225  0.6565 -0.4529  0.9299
  612MOL0     C82491   5.191   5.300   5.297 -0.1037  0.2843  0.0371
  612MOL0     C82492   5.228   5.319   5.431  0.0017 -1.0420  0.1660
  612MOL0     O82493   5.157   5.413   5.500  0.2789  0.4526 -0.4289
  612MOL0     C82494   5.040   5.371   5.574 -0.0822  0.4088 -0.1406
  612MOL0     C82495   4.967   5.482   5.639  0.4301  0.0951 -0.3081
  612MOL0     C82496   4.914   5.586   5.540  0.8097 -0.0320  0.4195
  612MOL0     C82497   4.828   5.691   5.616 -0.0780  0.1348  0.7753
  612MOL0     C82498   4.722   5.767   5.526  0.0160  0.6121 -0.3689
  612MOL0     C82499   4.779   5.869   5.435 -0.4726  0.4526 -0.5595
  612MOL0     C82500   4.662   5.977   5.395 -0.6293 -0.2684  0.0864
  612MOL0     C82501   4.665   6.086   5.492 -0.2842 -0.4640 -0.1944
  612MOL0     N82502   4.786   6.166   5.487 -0.0897 -0.4971 -0.2346
  612MOL0     C82503   4.821   6.255   5.382  0.3477  0.0006  0.4190
  612MOL0     C82504   4.904   6.346   5.442  1.0908 -0.6200 -0.0402
  612MOL0     C82505   4.971   6.453   5.368 -0.1265 -0.5544 -0.6975
  612MOL0     C82506   4.994   6.573   5.468 -0.5289 -0.0157 -0.6539
  612MOL0     C82507   5.072   6.698   5.408  0.0849 -0.2836 -0.0926
  612MOL0     C82508   4.998   6.776   5.300 -0.5053  0.2254  1.0055
  612MOL0     O82509   4.861   6.805   5.331  0.3695 -0.4296 -0.0046
  612MOL0     C82510   4.831   6.925   5.408 -0.2395  0.4979  0.0929
  612MOL0     C82511   4.696   6.963   5.438  0.6082  0.4412  0.2912
  612MOL0     C82512   4.664   7.076   5.513 -1.2638 -0.5308 -0.0870
  612MOL0     C82513   4.770   7.152   5.566 -0.0631 -0.4700  0.3976
  612MOL0     C82514   4.756   7.281   5.625 -0.7547  0.0512  0.4663
  612MOL0     O82515   4.854   7.349   5.689 -0.3086  1.0609 -0.3724
  612MOL0     C82516   4.838   7.484   5.705 -0.3713  0.2501  0.6351
  612MOL0     C82517   4.843   7.564   5.587  0.2349  0.2307  0.4087
  612MOL0     C82518   4.832   7.703   5.608  0.0229 -0.2052  0.1363
  612MOL0     C82519   4.783   7.761   5.721 -0.3376 -0.5012 -0.0799
  612MOL0     O82520   4.732   7.891   5.727  0.3074 -0.2814  0.3482
  612MOL0     C82521   4.809   7.991   5.661 -0.3601  0.4701 -0.5853
  612MOL0     C82522   4.769   8.123   5.717 -0.5896  0.4769 -0.4057
  612MOL0     C82523   4.620   8.145   5.691 -0.8636 -0.4167 -0.3255
  612MOL0     C82524   4.577   8.287   5.687 -0.5144 -0.2536 -0.2002
  612MOL0     C82525   4.598   8.366   5.811  0.1877 -0.4277 -0.3080
  612MOL0     C82526   4.493   8.476   5.807  0.2523  0.1775 -0.0382
  612MOL0     C82527   4.513   8.596   5.705  0.0294 -0.2523  0.3666
  612MOL0     C82528   4.401   8.702   5.695 -0.2469  0.1170 -0.4140
  612MOL0    Cl82529   4.445   8.851   5.777  0.0144  0.0780 -0.2522
  612MOL0     C82530   4.757   7.671   5.824  1.5264  0.2584  0.2813
  612MOL0     C82531   4.795   7.540   5.824  0.9099 -0.4375  0.3685
  612MOL0     O82532   4.638   7.319   5.634 -0.4680 -0.2261  0.6076
  612MOL0     C82533   4.906   7.112   5.546  0.2645  0.5171 -0.4257
  612MOL0     C82534   4.931   7.009   5.459  0.4084 -0.0969 -0.6013
  612MOL0     N82535   4.922   6.307   5.574  0.5452 -0.2375 -0.9387
  612MOL0     N82536   4.844   6.205   5.598 -0.0080 -0.0058  0.3467
  612MOL0     C82537   5.335   5.242   5.483  0.0850  0.3479 -0.6363
  612MOL0     C82538   5.405   5.147   5.411  0.8291 -0.3968 -0.1467
  612MOL0     C82539   5.555   4.843   5.128  0.0568  0.0180  0.0988
  612MOL0     C82540   5.528   4.871   4.991 -0.3604 -0.2803  0.8454
  612MOL0     C82541   5.545   4.776   4.894  0.5238  0.5525  0.4653
  612MOL0     C82542   5.609   4.656   4.910 -1.1324  0.2881  0.1425
  612MOL0     O82543   5.634   4.572   4.802 -0.5205 -0.0751 -0.6040
  612MOL0     C82544   5.776   4.545   4.777  0.3529  0.4538 -0.0577
  612MOL0     C82545   5.812   4.591   4.633  0.1568  0.0103  0.9370
  612MOL0     C82546   5.730   4.528   4.517 -0.4510 -0.5128 -0.2488
  612MOL0     C82547   5.788   4.542   4.378 -0.4418 -0.0104  0.3518
  612MOL0     C82548   5.850   4.667   4.353 -0.1327  0.2027 -0.0888
  612MOL0     C82549   5.896   4.774   4.307  0.0587  0.4380 -0.1787
  612MOL0     C82550   5.637   4.622   5.047 -1.6327  0.3942 -0.3564
  612MOL0     C82551   5.628   4.721   5.154 -0.1735 -0.2729 -0.5865
  612MOL0     C82552   5.682   4.664   5.293  0.1694 -0.1617  0.2650
  612MOL0     H82553   5.233   5.176   5.124 -0.8060  0.6287  1.0218
  612MOL0     H82554   5.101   5.344   5.256 -2.1806 -1.6020  2.3057
  612MOL0     H82555   4.975   5.299   5.523 -0.5562  0.4659  0.3658
  612MOL0     H82556   5.077   5.307   5.655 -2.9417 -1.2721 -0.0218
  612MOL0     H82557   5.020   5.528   5.723  0.8821  0.8973 -1.0195
  612MOL0     H82558   4.883   5.429   5.686  0.4349 -0.4770 -0.9243
  612MOL0     H82559   4.849   5.530   5.472  1.6269  1.7880 -2.0100
  612MOL0     H82560   4.988   5.645   5.486 -0.1540  3.1069  2.2461
  612MOL0     H82561   4.773   5.641   5.696 -1.3800  0.1139 -0.1155
  612MOL0     H82562   4.890   5.768   5.663 -2.0974  3.1745 -1.1405
  612MOL0     H82563   4.664   5.694   5.469  0.6584  2.9305 -4.4027
  612MOL0     H82564   4.663   5.825   5.597  1.3950  1.4664  0.1260
  612MOL0     H82565   4.864   5.915   5.486  0.2181 -1.0982 -0.2626
  612MOL0     H82566   4.808   5.819   5.342 -0.5184 -0.1864 -0.2332
  612MOL0     H82567   4.559   5.941   5.392 -0.5836 -0.3610 -0.7257
  612MOL0     H82568   4.685   6.007   5.292 -1.5972  0.1083 -0.0270
  612MOL0     H82569   4.577   6.148   5.475 -0.2187  0.2163  1.7080
  612MOL0     H82570   4.659   6.050   5.596  3.1026 -0.5703  0.0772
  612MOL0     H82571   4.789   6.252   5.278  1.8856 -1.4311 -0.0456
  612MOL0     H82572   5.068   6.421   5.330 -0.1147 -0.1632 -1.0027
  612MOL0     H82573   4.918   6.485   5.278  2.3742  2.2852 -1.3083
  612MOL0     H82574   4.904   6.611   5.516  0.8121  1.4676  0.8066
  612MOL0     H82575   5.056   6.539   5.552 -2.8755  3.6966  2.9698
  612MOL0     H82576   5.168   6.672   5.363  2.2773  2.7589  2.3620
  612MOL0     H82577   5.096   6.775   5.482 -0.9417 -0.5793  0.5639
  612MOL0     H82578   4.999   6.713   5.211  0.7385  1.0146  0.4289
  612MOL0     H82579   5.061   6.861   5.270 -2.8513  0.7499 -3.0886
  612MOL0     H82580   4.628   6.889   5.397  2.4893 -0.1195 -2.0922
  612MOL0     H82581   4.562   7.112   5.524 -3.4631 -5.4842 -1.1825
  612MOL0     H82582   4.868   7.524   5.490 -2.2247  1.5873 -0.8822
  612MOL0     H82583   4.854   7.760   5.518  1.1664  0.3750  0.7699
  612MOL0     H82584   4.915   7.965   5.664 -0.2407  0.6579  3.9328
  612MOL0     H82585   4.785   8.001   5.555 -0.5065 -2.5313 -0.9013
  612MOL0     H82586   4.784   8.131   5.825 -2.9781  3.0304 -0.1397
  612MOL0     H82587   4.828   8.200   5.665 -1.1421  1.2848  0.1414
  612MOL0     H82588   4.583   8.101   5.599 -1.0043  0.1600 -0.5522
  612MOL0     H82589   4.578   8.093   5.778  1.4267 -1.6592  0.1038
  612MOL0     H82590   4.472   8.277   5.659 -0.4408 -0.1014 -0.5274
  612MOL0     H82591   4.633   8.346   5.614  3.6344  0.9711  3.5171
  612MOL0     H82592   4.695   8.417   5.804 -0.4915  0.8635 -0.6907
  612MOL0     H82593   4.598   8.307   5.903  2.7492  2.0435  1.4528
  612MOL0     H82594   4.396   8.432   5.783  0.0881  1.0378 -1.0116
  612MOL0     H82595   4.476   8.514   5.908  1.0272  1.6276 -0.4235
  612MOL0     H82596   4.539   8.572   5.602 -0.4207  3.0106 -0.5948
  612MOL0     H82597   4.605   8.641   5.744 -0.0935 -2.0935  3.1178
  612MOL0     H82598   4.391   8.726   5.588  3.7986 -0.9945 -1.2168
  612MOL0     H82599   4.311   8.658   5.738 -0.1840  1.9145  1.6817
  612MOL0     H82600   4.689   7.699   5.903 -1.1893 -1.9089 -1.0895
  612MOL0     H82601   4.769   7.475   5.908 -3.5156 -1.7281 -1.7167
  612MOL0     H82602   4.991   7.178   5.561 -1.2088  2.6001 -0.7294
  612MOL0     H82603   5.036   6.995   5.434  0.0776 -1.2549 -1.4492
  612MOL0     H82604   5.363   5.249   5.588 -1.7311  1.4260 -0.1915
  612MOL0     H82605   5.476   5.094   5.475 -2.8660 -1.7341  3.2486
  612MOL0     H82606   5.478   4.966   4.972  2.7510  2.3039  4.1696
  612MOL0     H82607   5.527   4.805   4.792  2.9943 -0.5593 -0.3758
  612MOL0     H82608   5.796   4.439   4.794  2.5694  1.0149  1.2090
  612MOL0     H82609   5.840   4.598   4.848  0.5272 -1.1400  1.0431
  612MOL0     H82610   5.915   4.588   4.597 -0.1590  1.1924 -0.1438
  612MOL0     H82611   5.785   4.697   4.630  0.4609  0.0796  0.5205
  612MOL0     H82612   5.631   4.575   4.516  0.4134  1.7827  3.3294
  612MOL0     H82613   5.716   4.426   4.554  0.7553 -1.0205 -1.1189
  612MOL0     H82614   5.862   4.466   4.354  0.8655  1.2916  0.1584
  612MOL0     H82615   5.705   4.525   4.309  0.0929  1.7031 -0.7819
  612MOL0     H82616   5.927   4.867   4.263  4.6265 -0.5649  0.4104
  612MOL0     H82617   5.692   4.528   5.053 -0.1458  1.3120  1.3065
  612MOL0     H82618   5.713   4.751   5.351 -0.2005 -0.8761  1.5692
  612MOL0     H82619   5.615   4.598   5.350 -1.6240  2.3962  1.3006
  612MOL0     H82620   5.773   4.606   5.275 -0.3119 -0.4478 -1.4091
  613MOL0     O82621   3.364  11.144   7.491  0.5406  0.1129  0.1339
  613MOL0     C82622   3.465  11.204   7.462  0.1146  1.0117 -0.4488
  613MOL0     O82623   3.477  11.321   7.392  0.0625 -0.6465 -0.2434
  613MOL0     C82624   3.374  11.379   7.334 -1.2011  0.1265  0.1790
  613MOL0     C82625   3.393  11.517   7.304  1.0385  1.3054 -0.9941
  613MOL0     C82626   3.276  11.584   7.256 -0.5457 -0.6039  0.1420
  613MOL0     C82627   3.151  11.514   7.235 -0.2051 -0.3100  0.8308
  613MOL0     O82628   3.043  11.599   7.194  0.2571 -0.5085  0.6426
  613MOL0     C82629   2.910  11.547   7.195 -0.6932  0.8297  0.1781
  613MOL0     C82630   2.810  11.651   7.132 -0.5998  0.1382  0.4617
  613MOL0     C82631   2.666  11.628   7.175 -0.4018 -0.6228  0.5617
  613MOL0     C82632   2.575  11.716   7.095 -0.7243 -0.1553  0.2415
  613MOL0     C82633   2.435  11.709   7.167 -0.3036 -0.7388  0.3195
  613MOL0     C82634   2.328  11.772   7.077  0.2583  0.6437 -0.1925
  613MOL0     C82635   2.209  11.803   7.164  0.7512  0.1482 -0.0287
  613MOL0     C82636   2.098  11.709   7.107  0.8741 -0.5414 -0.0842
  613MOL0     N82637   1.975  11.732   7.190  0.2685  0.2340  0.3451
  613MOL0     C82638   1.904  11.851   7.194  0.3596 -1.3137 -0.0990
  613MOL0     C82639   1.772  11.811   7.197  0.3772 -0.0072  1.0959
  613MOL0     C82640   1.651  11.905   7.189 -0.8648 -0.5059  0.1116
  613MOL0     C82641   1.654  11.974   7.321  0.4024  0.2765 -1.3246
  613MOL0     C82642   1.536  12.074   7.339  0.3739  0.2269  0.4905
  613MOL0     C82643   1.507  12.113   7.494  0.4744  0.2357  0.1010
  613MOL0     O82644   1.375  12.160   7.527  0.4712  0.7102  0.2951
  613MOL0     C82645   1.275  12.066   7.502  0.5818 -1.1468  0.0636
  613MOL0     C82646   1.147  12.127   7.506 -0.2383  0.5691 -0.1562
  613MOL0     C82647   1.033  12.058   7.474  0.6985  0.3076  0.1592
  613MOL0     C82648   1.048  11.925   7.428 -0.6413  0.4681  0.6965
  613MOL0     C82649   0.933  11.856   7.363 -0.0039 -0.6434  0.3156
  613MOL0     O82650   0.951  11.715   7.338 -0.5041 -0.4467 -0.1318
  613MOL0     C82651   0.854  11.629   7.282  0.0746  0.0449  0.0258
  613MOL0     C82652   0.719  11.632   7.321  0.1274 -0.2866 -0.5744
  613MOL0     C82653   0.624  11.535   7.296  0.3254 -0.4748 -0.5499
  613MOL0     C82654   0.655  11.425   7.220 -0.6527 -0.4329 -0.4443
  613MOL0     O82655   0.565  11.329   7.183  0.3821  0.5082 -0.0318
  613MOL0     C82656   0.440  11.378   7.137 -0.3785 -0.2607  0.3276
  613MOL0     C82657   0.340  11.357   7.254  1.6075  0.3888 -0.0066
  613MOL0     C82658   0.296  11.211   7.276 -0.4254 -0.8233 -1.0096
  613MOL0     C82659   0.366  11.114   7.373  0.1808 -0.3478 -0.2777
  613MOL0     C82660   0.309  10.970   7.377 -0.0869  0.1410  0.4602
  613MOL0     C82661   0.370  10.867   7.473  0.4681 -0.1039 -0.0612
  613MOL0     C82662   0.321  10.861   7.616 -0.2322 -0.2012  0.7918
  613MOL0     C82663   0.354  10.727   7.680  0.3513  0.7787  0.7123
  613MOL0    Cl82664   0.238  10.598   7.625 -0.1726 -0.3581  0.6495
  613MOL0     C82665   0.795  11.413   7.185 -0.0074 -0.2103 -0.1677
  613MOL0     C82666   0.888  11.513   7.217  0.4207 -0.0006  0.5664
  613MOL0     O82667   0.835  11.930   7.322  0.2160 -0.2873 -0.4852
  613MOL0     C82668   1.173  11.859   7.429 -0.0961  0.0543 -0.4841
  613MOL0     C82669   1.285  11.930   7.471 -0.8007  0.5818  0.8532
  613MOL0     N82670   1.767  11.673   7.197 -0.1453 -1.0399 -0.6554
  613MOL0     N82671   1.888  11.626   7.195  0.5026 -0.4215 -0.4237
  613MOL0     C82672   3.141  11.381   7.262 -0.3057 -1.2141  0.2953
  613MOL0     C82673   3.254  11.317   7.301 -0.2677  0.7093 -0.6421
  613MOL0     C82674   3.581  11.155   7.542  0.2021  0.4491  0.0776
  613MOL0     C82675   3.636  11.242   7.632 -0.5502  0.2905  0.1438
  613MOL0     C82676   3.751  11.213   7.707  1.2358  0.0752  0.7984
  613MOL0     C82677   3.798  11.081   7.698 -0.6557 -0.2281 -0.0319
  613MOL0     O82678   3.896  11.047   7.774  0.3826 -0.2843  1.0127
  613MOL0     C82679   4.006  10.964   7.726 -0.7500  0.4899 -0.4705
  613MOL0     C82680   4.059  10.861   7.828  0.6155 -0.5736  0.2402
  613MOL0     C82681   3.943  10.806   7.914 -0.6213 -0.0999  0.1474
  613MOL0     C82682   3.983  10.679   8.007 -0.4928 -0.2012  0.8845
  613MOL0     C82683   4.030  10.561   7.933 -0.2862  0.0932 -0.4478
  613MOL0     C82684   4.045  10.443   7.897 -0.5072  0.8869  1.0788
  613MOL0     C82685   3.731  10.984   7.619  0.2768 -0.1998 -0.0007
  613MOL0     C82686   3.625  11.023   7.532  0.7330  0.3501  0.6001
  613MOL0     C82687   3.560  10.925   7.443 -0.5184 -0.3675 -1.1380
  613MOL0     H82688   3.481  11.578   7.322  2.1565 -0.2427 -1.1049
  613MOL0     H82689   3.284  11.690   7.233 -0.4579 -1.0426 -1.9807
  613MOL0     H82690   2.919  11.460   7.129 -1.6535  1.9351 -1.5001
  613MOL0     H82691   2.886  11.522   7.298 -0.7078  3.2440  0.8229
  613MOL0     H82692   2.811  11.644   7.023  0.3155 -3.4506  0.5724
  613MOL0     H82693   2.834  11.752   7.164 -0.7688 -0.2958  2.0515
  613MOL0     H82694   2.663  11.663   7.279 -0.0829  0.6782  0.1518
  613MOL0     H82695   2.646  11.520   7.171  1.4232 -1.0039  0.6577
  613MOL0     H82696   2.616  11.816   7.083 -3.8115  1.0548 -1.2057
  613MOL0     H82697   2.560  11.668   6.998 -0.3871  1.1899 -0.5029
  613MOL0     H82698   2.416  11.602   7.183  1.5824 -0.7935  2.6830
  613MOL0     H82699   2.442  11.756   7.266  0.7312  0.0635 -0.1185
  613MOL0     H82700   2.366  11.869   7.043  1.1034  0.2740 -0.3255
  613MOL0     H82701   2.311  11.701   6.996  4.1722 -0.3361 -0.3769
  613MOL0     H82702   2.186  11.909   7.150  1.0501  0.6982  2.9753
  613MOL0     H82703   2.226  11.798   7.272 -2.7737 -0.5567  0.6274
  613MOL0     H82704   2.063  11.746   7.010 -1.3061  3.6268  1.9972
  613MOL0     H82705   2.135  11.606   7.109  1.2176 -0.4459  2.3698
  613MOL0     H82706   1.944  11.952   7.188 -1.6549 -0.4300  0.5953
  613MOL0     H82707   1.660  11.975   7.105 -1.2188 -1.3918 -0.6823
  613MOL0     H82708   1.561  11.844   7.175 -0.9472 -0.3174 -0.1915
  613MOL0     H82709   1.649  11.895   7.397  4.0730 -0.5371 -1.7308
  613MOL0     H82710   1.748  12.029   7.333 -0.4329  1.0539  3.5144
  613MOL0     H82711   1.450  12.026   7.292  0.6416  0.5093 -0.2989
  613MOL0     H82712   1.568  12.162   7.283  2.5385 -0.2633  0.8527
  613MOL0     H82713   1.569  12.198   7.526 -0.1632  0.0985  1.8094
  613MOL0     H82714   1.541  12.035   7.562  0.4643  0.6612  0.6045
  613MOL0     H82715   1.134  12.234   7.524 -1.3424  0.4868 -0.3984
  613MOL0     H82716   0.939  12.110   7.487  0.8806  1.0106 -1.1532
  613MOL0     H82717   0.691  11.722   7.376  1.4762  0.4845 -1.1158
  613MOL0     H82718   0.525  11.553   7.337  1.5028 -1.9310  3.4152
  613MOL0     H82719   0.450  11.484   7.114 -1.2242 -0.3274 -0.4198
  613MOL0     H82720   0.405  11.328   7.046 -1.8420  0.7634  0.2927
  613MOL0     H82721   0.376  11.400   7.348  1.1049  3.1423 -0.9830
  613MOL0     H82722   0.248  11.411   7.229  2.0241  1.4422  0.6612
  613MOL0     H82723   0.191  11.207   7.307  0.0457 -0.5601  0.7309
  613MOL0     H82724   0.304  11.167   7.176  0.0169 -1.3930 -0.7231
  613MOL0     H82725   0.373  11.166   7.469  3.5560  1.1673 -1.2068
  613MOL0     H82726   0.474  11.111   7.356  0.0281 -0.0660 -1.4053
  613MOL0     H82727   0.332  10.942   7.274 -0.7637  0.6904  0.1538
  613MOL0     H82728   0.201  10.963   7.396  0.2844  0.0360  2.9486
  613MOL0     H82729   0.341  10.774   7.424 -1.4241  1.4219 -2.0299
  613MOL0     H82730   0.479  10.877   7.478  0.4883  0.7208 -1.5371
  613MOL0     H82731   0.214  10.871   7.596  0.0762  2.8989  0.1537
  613MOL0     H82732   0.350  10.948   7.677 -4.1436  3.5711 -2.0787
  613MOL0     H82733   0.449  10.682   7.649 -0.1551 -0.0811  0.3895
  613MOL0     H82734   0.358  10.738   7.788  0.9776 -0.2075  0.8040
  613MOL0     H82735   0.841  11.334   7.126  2.1030 -0.3296  1.5284
  613MOL0     H82736   0.986  11.480   7.185  0.5638  1.7040 -0.9540
  613MOL0     H82737   1.183  11.759   7.389 -0.5107  0.4624 -1.6426
  613MOL0     H82738   1.386  11.892   7.462  0.8240  3.9044  2.9594
  613MOL0     H82739   3.040  11.342   7.259 -2.2045  3.1520 -2.1944
  613MOL0     H82740   3.240  11.209   7.311  0.9124  0.7499  2.4533
  613MOL0     H82741   3.587  11.334   7.663 -0.2073 -0.2963  2.6395
  613MOL0     H82742   3.783  11.284   7.783 -0.4994  1.7346  0.0669
  613MOL0     H82743   4.088  11.034   7.708  1.1569 -1.1125  1.4351
  613MOL0     H82744   3.984  10.905   7.637  0.8852 -4.1588  1.8725
  613MOL0     H82745   4.132  10.906   7.896  0.9030  0.3354 -0.6505
  613MOL0     H82746   4.115  10.784   7.775 -1.1480 -1.4619 -0.3941
  613MOL0     H82747   3.856  10.781   7.851 -0.7637  1.1857 -0.1963
  613MOL0     H82748   3.909  10.873   7.993  0.5227  1.7972 -0.8758
  613MOL0     H82749   4.062  10.710   8.076  0.3634 -0.7386  0.1670
  613MOL0     H82750   3.896  10.650   8.067 -0.0560  0.4336  1.8630
  613MOL0     H82751   4.074  10.346   7.863  0.7658  0.7172  2.4975
  613MOL0     H82752   3.761  10.882   7.638  1.7606  0.3821  1.0335
  613MOL0     H82753   3.503  10.971   7.362 -0.4008 -0.0221 -1.0244
  613MOL0     H82754   3.623  10.846   7.402  1.1200  1.2598 -1.8615
  613MOL0     H82755   3.480  10.869   7.493 -2.3640  1.1915 -2.2086
  614MOL0     O82756   2.042   4.965   7.849  0.3642 -0.7166 -0.8206
  614MOL0     C82757   2.038   4.858   7.907 -0.3893  0.1459 -0.6987
  614MOL0     O82758   1.984   4.834   8.025  0.4575  0.3980 -0.1477
  614MOL0     C82759   1.889   4.914   8.084  0.7403 -0.6275  0.6264
  614MOL0     C82760   1.796   4.983   8.009  0.4407  0.0039  0.1697
  614MOL0     C82761   1.694   5.058   8.082 -0.4832 -1.1151 -0.5267
  614MOL0     C82762   1.704   5.083   8.223  1.0138  0.7802  0.3404
  614MOL0     O82763   1.610   5.164   8.272 -0.0641 -0.6257  0.2653
  614MOL0     C82764   1.640   5.206   8.410  0.2090  0.4292 -0.3712
  614MOL0     C82765   1.556   5.328   8.464 -0.6799  0.8827  0.1726
  614MOL0     C82766   1.568   5.362   8.610  0.5412  0.0646 -0.7669
  614MOL0     C82767   1.633   5.506   8.631 -0.2641  0.7845  0.2713
  614MOL0     C82768   1.789   5.514   8.624  0.3384  0.0094 -0.0608
  614MOL0     C82769   1.849   5.651   8.621  0.3433 -1.2617 -0.0849
  614MOL0     C82770   1.999   5.644   8.593  0.0583  0.1454 -0.6176
  614MOL0     C82771   2.057   5.777   8.578  0.8008 -0.3094 -0.7673
  614MOL0     N82772   2.023   5.836   8.444  0.0799  1.0285 -0.3548
  614MOL0     C82773   1.932   5.929   8.414  0.1982 -0.6179  0.4651
  614MOL0     C82774   1.935   5.947   8.283 -0.5332 -0.7510 -0.5811
  614MOL0     C82775   1.863   6.048   8.201 -0.2684 -0.5023  0.0187
  614MOL0     C82776   1.875   6.195   8.247 -1.3390 -0.1139 -0.6930
  614MOL0     C82777   1.850   6.301   8.137  0.4904 -0.0146 -0.9762
  614MOL0     C82778   1.704   6.315   8.109 -0.0503 -0.4223 -0.7232
  614MOL0     O82779   1.664   6.394   8.222  0.0921 -0.5222 -0.1758
  614MOL0     C82780   1.530   6.422   8.233 -0.2506 -0.2876  0.0544
  614MOL0     C82781   1.488   6.465   8.347 -0.7793  0.6979  0.3123
  614MOL0     C82782   1.353   6.493   8.375 -1.4208  0.5414 -0.5305
  614MOL0     C82783   1.258   6.463   8.280 -0.3376  0.0675 -0.2741
  614MOL0     C82784   1.114   6.474   8.309  0.7694 -0.0387  0.5113
  614MOL0     O82785   1.035   6.448   8.198  0.2669  0.1628 -0.2602
  614MOL0     C82786   0.895   6.456   8.208 -0.7115 -0.0532 -0.0680
  614MOL0     C82787   0.817   6.373   8.138 -0.1151  0.2740  0.9885
  614MOL0     C82788   0.674   6.367   8.144  0.1525  0.1069 -0.1182
  614MOL0     C82789   0.610   6.478   8.208 -0.7361  0.4169  0.7745
  614MOL0     O82790   0.474   6.487   8.205 -0.7177 -0.0846 -0.0369
  614MOL0     C82791   0.420   6.608   8.243 -1.1856 -0.2036  0.3236
  614MOL0     C82792   0.271   6.632   8.219 -0.2987 -0.2528  0.6517
  614MOL0     C82793   0.179   6.527   8.289 -0.6512  0.5985  0.2071
  614MOL0     C82794   0.164   6.535   8.447 -0.4824  0.2838  0.6638
  614MOL0     C82795   0.133   6.677   8.506  0.1914  0.6544  0.5222
  614MOL0     C82796  -0.006   6.730   8.442  0.2671  0.3658 -0.8725
  614MOL0     C82797  -0.064   6.837   8.529 -0.0067 -0.2011 -0.3383
  614MOL0     C82798  -0.211   6.863   8.498 -0.3761 -1.4007  1.1390
  614MOL0    Cl82799  -0.270   7.005   8.588 -0.2864 -0.1823 -0.0914
  614MOL0     C82800   0.690   6.572   8.277 -0.8718 -0.6161 -0.1231
  614MOL0     C82801   0.835   6.557   8.281  0.8718 -0.3505 -0.6218
  614MOL0     O82802   1.070   6.507   8.422  0.3672  0.3576  0.6649
  614MOL0     C82803   1.305   6.430   8.150  0.3114 -0.2503 -0.2394
  614MOL0     C82804   1.436   6.404   8.123  0.2111  0.1750 -0.8305
  614MOL0     N82805   2.022   5.854   8.233  0.5775  0.9197  0.4232
  614MOL0     N82806   2.081   5.792   8.326 -0.5897  0.0478  0.2891
  614MOL0     C82807   1.799   5.005   8.291  0.6494  0.2811 -0.6146
  614MOL0     C82808   1.890   4.915   8.221  1.0385  0.0592  0.2261
  614MOL0     C82809   2.137   4.752   7.867 -0.2964  0.1979 -0.7683
  614MOL0     C82810   2.144   4.633   7.951 -0.5994  0.1201  0.5185
  614MOL0     C82811   2.238   4.529   7.923 -0.3560 -0.2960 -1.1943
  614MOL0     C82812   2.317   4.540   7.808 -0.1842 -0.4746  0.0574
  614MOL0     O82813   2.410   4.439   7.792 -0.0627 -1.1919 -0.4402
  614MOL0     C82814   2.514   4.457   7.701 -0.6568  0.1744  0.4823
  614MOL0     C82815   2.590   4.328   7.685 -0.1188 -0.7823  0.5598
  614MOL0     C82816   2.508   4.194   7.658 -0.2847  0.4151  0.3990
  614MOL0     C82817   2.603   4.070   7.643  0.9621 -0.4044 -0.0689
  614MOL0     C82818   2.672   4.039   7.769  0.5298  0.2099 -0.3625
  614MOL0     C82819   2.691   4.028   7.891  0.4412 -0.6503  0.3590
  614MOL0     C82820   2.304   4.651   7.726  0.3043  0.4485  0.2555
  614MOL0     C82821   2.203   4.747   7.749  0.5620  0.0139 -0.1397
  614MOL0     C82822   2.191   4.857   7.636  0.5504  0.5362 -0.3836
  614MOL0     H82823   1.780   4.957   7.905  2.2058 -0.2672 -0.0608
  614MOL0     H82824   1.607   5.089   8.024 -0.4527 -1.1282 -0.5793
  614MOL0     H82825   1.631   5.125   8.483 -2.1513  1.8278  1.0316
  614MOL0     H82826   1.742   5.246   8.410  0.6105 -0.1979  3.4875
  614MOL0     H82827   1.450   5.322   8.435 -0.4069 -0.6756 -0.5976
  614MOL0     H82828   1.589   5.417   8.411  0.7504 -0.1394 -0.7095
  614MOL0     H82829   1.635   5.288   8.654 -0.0174 -1.8669 -3.0078
  614MOL0     H82830   1.474   5.354   8.666  1.7523 -0.5445  1.3034
  614MOL0     H82831   1.596   5.583   8.563  1.0580  1.9263  0.8006
  614MOL0     H82832   1.611   5.529   8.735 -0.0037  1.2922  0.2152
  614MOL0     H82833   1.837   5.448   8.698  2.5877  1.6765  0.0545
  614MOL0     H82834   1.815   5.477   8.525 -2.7486  3.0856 -2.2488
  614MOL0     H82835   1.804   5.720   8.548  1.7196  1.4761  1.4904
  614MOL0     H82836   1.844   5.699   8.719  5.1835 -1.6998  0.6332
  614MOL0     H82837   2.030   5.591   8.503  1.3612 -0.5477  0.2227
  614MOL0     H82838   2.045   5.592   8.677 -0.3135  1.9946  0.7969
  614MOL0     H82839   2.022   5.838   8.662 -0.1943 -2.5180  0.5352
  614MOL0     H82840   2.165   5.766   8.594  0.6466 -0.9882 -0.0564
  614MOL0     H82841   1.861   5.981   8.478 -0.7070 -0.6942 -0.4495
  614MOL0     H82842   1.911   6.038   8.103 -0.0117 -0.9332  0.1876
  614MOL0     H82843   1.755   6.031   8.189 -0.4753  1.2462 -0.9541
  614MOL0     H82844   1.810   6.218   8.333 -1.0216  1.4729 -0.8333
  614MOL0     H82845   1.978   6.214   8.277 -0.7804 -0.7362 -2.1377
  614MOL0     H82846   1.894   6.277   8.039  0.0356  0.7672 -1.3830
  614MOL0     H82847   1.888   6.400   8.162  2.6463 -0.4135 -2.3167
  614MOL0     H82848   1.654   6.219   8.092  1.2702 -0.8202 -2.7206
  614MOL0     H82849   1.685   6.363   8.012 -0.3645 -1.0851 -0.9917
  614MOL0     H82850   1.563   6.482   8.424  1.9167  1.3139 -2.2802
  614MOL0     H82851   1.307   6.524   8.468 -0.0589  3.0324 -0.6208
  614MOL0     H82852   0.856   6.292   8.077  0.6529  2.1393 -1.1445
  614MOL0     H82853   0.606   6.298   8.095  0.7077  0.4336 -1.3930
  614MOL0     H82854   0.439   6.614   8.351 -1.8664 -0.4475  0.4684
  614MOL0     H82855   0.485   6.672   8.183  0.2113 -2.1609 -0.3617
  614MOL0     H82856   0.248   6.733   8.254  0.6215  1.1301 -2.3940
  614MOL0     H82857   0.238   6.631   8.114 -4.0127  1.1896  1.6366
  614MOL0     H82858   0.080   6.543   8.246  0.0332 -3.5677 -3.6033
  614MOL0     H82859   0.208   6.424   8.267 -0.7493  0.4246  0.8615
  614MOL0     H82860   0.254   6.498   8.497  1.0809 -1.4211 -3.0567
  614MOL0     H82861   0.078   6.471   8.469  0.6697 -0.8709  1.9996
  614MOL0     H82862   0.208   6.755   8.488 -2.1800  2.4318 -2.7196
  614MOL0     H82863   0.128   6.675   8.615  0.6868  0.0059  0.5337
  614MOL0     H82864   0.025   6.778   8.349 -0.7696  1.0413 -0.8765
  614MOL0     H82865  -0.074   6.647   8.420  1.7093 -1.5324  1.2920
  614MOL0     H82866  -0.010   6.932   8.527 -0.9166  0.3376  0.2548
  614MOL0     H82867  -0.063   6.793   8.630 -2.4753  1.0894  0.3192
  614MOL0     H82868  -0.216   6.879   8.390  2.0921  0.8755  1.2506
  614MOL0     H82869  -0.266   6.771   8.519 -0.6929 -1.4690  0.0726
  614MOL0     H82870   0.641   6.647   8.338 -1.0422 -1.7573  1.2181
  614MOL0     H82871   0.888   6.621   8.351 -0.0930 -1.5579  1.2971
  614MOL0     H82872   1.233   6.419   8.070 -2.6069 -2.8619  2.4567
  614MOL0     H82873   1.446   6.379   8.018 -4.1016  1.6956 -1.8189
  614MOL0     H82874   1.812   4.996   8.398  2.0982  0.3385 -0.7615
  614MOL0     H82875   1.957   4.848   8.273  0.1641  0.6357  2.1941
  614MOL0     H82876   2.084   4.607   8.038  0.2180  2.7750  1.9971
  614MOL0     H82877   2.250   4.445   7.990  2.7349  0.0732 -1.1361
  614MOL0     H82878   2.578   4.539   7.735 -1.0228  1.7965 -2.3904
  614MOL0     H82879   2.478   4.478   7.599  1.3444 -4.2408 -1.3832
  614MOL0     H82880   2.645   4.314   7.778 -0.3014 -0.6784  0.6853
  614MOL0     H82881   2.657   4.337   7.599 -1.0971 -2.8396 -0.4875
  614MOL0     H82882   2.447   4.215   7.569 -0.6547  2.6975  1.1253
  614MOL0     H82883   2.441   4.173   7.742  0.3549 -2.3692  0.3092
  614MOL0     H82884   2.529   3.996   7.613 -2.2068  2.9096 -1.2103
  614MOL0     H82885   2.672   4.083   7.559 -1.5257 -0.0727 -2.1728
  614MOL0     H82886   2.724   4.040   7.992  1.6382 -0.9906  0.0294
  614MOL0     H82887   2.375   4.669   7.646 -0.9642 -1.0131 -1.2722
  614MOL0     H82888   2.086   4.850   7.605  0.7933 -0.3116 -1.0550
  614MOL0     H82889   2.206   4.955   7.682 -0.9514  0.6427 -0.0495
  614MOL0     H82890   2.256   4.848   7.549  0.5414  0.9591 -0.4383
  615MOL0     O82891  10.454   8.671   8.978  0.4143  1.3104  0.7160
  615MOL0     C82892  10.343   8.721   8.961 -0.4428  0.0651 -0.5824
  615MOL0     O82893  10.243   8.673   8.891  1.2544 -0.4001 -0.0215
  615MOL0     C82894  10.228   8.542   8.850 -0.4731 -0.3264 -0.4254
  615MOL0     C82895  10.284   8.423   8.904 -0.2570 -0.2033 -0.2686
  615MOL0     C82896  10.256   8.293   8.855 -0.5729  0.2373  0.6085
  615MOL0     C82897  10.183   8.285   8.735 -0.3266 -1.3072  0.5584
  615MOL0     O82898  10.168   8.169   8.673 -0.2953 -0.1567  0.4806
  615MOL0     C82899  10.291   8.110   8.623  0.2249 -0.0937 -0.0663
  615MOL0     C82900  10.320   7.982   8.706  0.0571  0.1177  0.6192
  615MOL0     C82901  10.419   7.881   8.646 -0.7106 -0.4924  0.5247
  615MOL0     C82902  10.559   7.951   8.621  0.2611 -0.1850  0.7848
  615MOL0     C82903  10.635   7.884   8.501  0.4426  1.7945 -0.2247
  615MOL0     C82904  10.658   7.736   8.511  0.6516  0.3162  0.2615
  615MOL0     C82905  10.717   7.699   8.374  0.2182 -0.8898 -0.1738
  615MOL0     C82906  10.601   7.685   8.264 -0.2941 -0.0631 -0.8307
  615MOL0     N82907  10.660   7.671   8.127  0.1479 -0.1376 -0.8844
  615MOL0     C82908  10.751   7.750   8.068 -0.5242  0.2263 -0.2330
  615MOL0     C82909  10.765   7.713   7.933  0.6314  0.8438  0.5243
  615MOL0     C82910  10.877   7.790   7.857  0.7930  0.7068  0.1172
  615MOL0     C82911  10.935   7.711   7.740  0.4090 -0.3350 -0.2657
  615MOL0     C82912  11.066   7.771   7.670 -0.5840  0.5128  0.7252
  615MOL0     C82913  11.049   7.905   7.587  0.0503  0.4349  0.5880
  615MOL0     O82914  11.180   7.960   7.559  0.3231  0.6104  0.0779
  615MOL0     C82915  11.190   8.034   7.439  0.6237  0.2115 -0.3276
  615MOL0     C82916  11.089   8.122   7.400 -0.0272 -0.0015 -0.3407
  615MOL0     C82917  11.093   8.183   7.275 -0.0253  0.1655  0.0850
  615MOL0     C82918  11.200   8.157   7.189 -0.0448 -0.7439  0.4226
  615MOL0     C82919  11.195   8.194   7.049 -0.4751  0.0615 -0.8176
  615MOL0     O82920  11.316   8.197   6.981  0.1630 -0.0637  0.4896
  615MOL0     C82921  11.305   8.224   6.847  0.1990 -0.1445 -0.3549
  615MOL0     C82922  11.279   8.132   6.748 -0.3573  0.3514 -0.0840
  615MOL0     C82923  11.272   8.159   6.609 -0.6574 -0.2709 -1.2631
  615MOL0     C82924  11.306   8.287   6.569 -0.6173  0.9436 -0.3748
  615MOL0     O82925  11.315   8.311   6.442  0.1059  0.3538 -0.0300
  615MOL0     C82926  11.426   8.252   6.368 -0.4776  0.2810 -0.0433
  615MOL0     C82927  11.485   8.363   6.292  1.0585  0.2129 -0.4251
  615MOL0     C82928  11.576   8.317   6.190 -0.4238 -0.5101  0.4464
  615MOL0     C82929  11.507   8.218   6.092 -0.6123 -0.3518  0.3106
  615MOL0     C82930  11.600   8.204   5.967 -0.9560 -0.4406 -0.1740
  615MOL0     C82931  11.543   8.099   5.874  0.2403 -0.2872 -0.1622
  615MOL0     C82932  11.641   8.062   5.767 -0.2604 -0.0304  1.5363
  615MOL0     C82933  11.634   7.912   5.722 -0.1284  0.8928 -0.6324
  615MOL0    Cl82934  11.468   7.842   5.698 -0.4470 -0.1983  0.5850
  615MOL0     C82935  11.327   8.387   6.670  0.5889 -0.3281  0.0311
  615MOL0     C82936  11.331   8.353   6.803 -0.5996  0.4812  1.1933
  615MOL0     O82937  11.093   8.241   7.004 -0.3593 -0.1772  0.4977
  615MOL0     C82938  11.301   8.071   7.232  0.4951 -0.8791 -0.6725
  615MOL0     C82939  11.297   8.014   7.359  0.0186 -0.2063  0.3955
  615MOL0     N82940  10.669   7.613   7.919  0.0978 -0.2470 -0.0258
  615MOL0     N82941  10.610   7.588   8.029 -0.8456  0.0477 -0.9202
  615MOL0     C82942  10.126   8.401   8.674 -0.4749  0.2320  0.0017
  615MOL0     C82943  10.150   8.529   8.737 -0.2103 -1.1742  0.6672
  615MOL0     C82944  10.334   8.854   9.033 -0.8202  0.5941  0.8488
  615MOL0     C82945  10.368   8.860   9.170  0.2218  0.3006 -0.6755
  615MOL0     C82946  10.328   8.975   9.244  0.8340  0.6483  1.3680
  615MOL0     C82947  10.244   9.071   9.177 -0.3903  0.4165 -0.4088
  615MOL0     O82948  10.172   9.179   9.230  0.3424 -0.0515  0.5628
  615MOL0     C82949  10.205   9.220   9.360 -0.3638  0.6687  0.1471
  615MOL0     C82950  10.321   9.329   9.356  0.0627  0.6002 -0.0634
  615MOL0     C82951  10.365   9.380   9.497 -0.2508 -0.4628  0.7663
  615MOL0     C82952  10.460   9.497   9.480  1.7228 -0.0189  0.2508
  615MOL0     C82953  10.477   9.578   9.603  0.1196  0.3321 -0.5820
  615MOL0     C82954  10.519   9.641   9.699 -0.7227  0.1693 -0.3317
  615MOL0     C82955  10.231   9.072   9.036  0.7382 -0.6448 -0.4012
  615MOL0     C82956  10.274   8.963   8.961 -0.1512 -0.1764  0.4387
  615MOL0     C82957  10.248   8.970   8.809  0.1449  0.0591  0.3583
  615MOL0     H82958  10.354   8.437   8.987 -0.7903 -2.2442  0.5976
  615MOL0     H82959  10.293   8.198   8.894 -0.7454  0.7292  2.0432
  615MOL0     H82960  10.281   8.071   8.521  2.2554 -2.8091  0.6559
  615MOL0     H82961  10.372   8.183   8.636 -1.5940  1.6872  2.1692
  615MOL0     H82962  10.225   7.940   8.739 -0.4098 -1.2163 -2.1035
  615MOL0     H82963  10.361   8.016   8.802  1.5193  0.6975 -0.1727
  615MOL0     H82964  10.371   7.849   8.553  0.7968 -1.0725 -0.0815
  615MOL0     H82965  10.431   7.794   8.711 -1.3768 -0.7263  0.3474
  615MOL0     H82966  10.561   8.057   8.595  0.0311 -0.3041  0.2696
  615MOL0     H82967  10.615   7.932   8.713  2.6864  1.4422 -0.2421
  615MOL0     H82968  10.577   7.904   8.411 -2.0095 -0.2776  0.7658
  615MOL0     H82969  10.730   7.936   8.490  1.9844 -0.8110 -0.0469
  615MOL0     H82970  10.736   7.707   8.582 -0.1247 -0.8833  0.6468
  615MOL0     H82971  10.566   7.683   8.537 -1.3370  3.3911  0.0008
  615MOL0     H82972  10.764   7.600   8.373 -1.3866 -1.7199  0.9337
  615MOL0     H82973  10.785   7.780   8.345  0.1355 -0.5148  0.6710
  615MOL0     H82974  10.552   7.591   8.292 -1.1513  0.3470 -0.9124
  615MOL0     H82975  10.533   7.771   8.267 -0.7533 -0.4448  0.9884
  615MOL0     H82976  10.816   7.828   8.106  1.1391  0.1390 -2.6539
  615MOL0     H82977  10.824   7.876   7.813 -0.0296  1.4526  2.4301
  615MOL0     H82978  10.952   7.831   7.925  0.1865 -0.3413  1.4362
  615MOL0     H82979  10.958   7.613   7.781 -0.0072  0.7174  2.7086
  615MOL0     H82980  10.857   7.689   7.667  0.5338 -1.8386  0.0341
  615MOL0     H82981  11.114   7.699   7.603 -1.9714 -2.9185  3.0950
  615MOL0     H82982  11.131   7.796   7.755 -0.0388  0.4662  0.3314
  615MOL0     H82983  10.994   7.987   7.633  1.0122  1.9625 -0.8789
  615MOL0     H82984  10.990   7.878   7.499  0.3352 -1.1339  0.8510
  615MOL0     H82985  11.019   8.156   7.476  2.7085  1.8566  1.5337
  615MOL0     H82986  11.007   8.233   7.231 -0.1174  3.1672  3.2533
  615MOL0     H82987  11.246   8.042   6.799  1.8773  0.3795  1.5741
  615MOL0     H82988  11.264   8.090   6.525 -0.3114  0.2111 -1.6982
  615MOL0     H82989  11.499   8.204   6.434  0.9921 -1.8140 -2.9767
  615MOL0     H82990  11.381   8.168   6.314  0.7045 -1.6376  1.7670
  615MOL0     H82991  11.401   8.422   6.254 -1.8566 -0.4894  4.1646
  615MOL0     H82992  11.548   8.415   6.365  2.4738  1.2777 -2.3068
  615MOL0     H82993  11.599   8.407   6.132 -0.8427 -3.6668 -5.3529
  615MOL0     H82994  11.663   8.263   6.229  0.2094  0.2849  0.1698
  615MOL0     H82995  11.410   8.262   6.068  0.3887  0.0847 -3.5349
  615MOL0     H82996  11.491   8.120   6.138 -1.0998 -0.7985 -0.7867
  615MOL0     H82997  11.700   8.168   5.993 -0.6993  0.0887 -0.3974
  615MOL0     H82998  11.612   8.294   5.906 -1.9615 -0.6429 -0.6939
  615MOL0     H82999  11.516   8.009   5.931  3.3368 -0.3824  1.3523
  615MOL0     H83000  11.449   8.141   5.837 -1.0074 -2.4117  0.4409
  615MOL0     H83001  11.744   8.064   5.802  0.9188 -1.4541 -1.4709
  615MOL0     H83002  11.627   8.130   5.682 -0.9670 -0.5380  1.2355
  615MOL0     H83003  11.699   7.898   5.636  2.6160  0.8529  1.3313
  615MOL0     H83004  11.670   7.847   5.803 -0.8002 -0.6210 -1.4996
  615MOL0     H83005  11.340   8.493   6.654  0.2452  0.6795  4.7890
  615MOL0     H83006  11.364   8.426   6.876  1.0273  1.0799 -0.0864
  615MOL0     H83007  11.389   8.050   7.173  1.5764 -1.8055  1.1753
  615MOL0     H83008  11.375   7.942   7.384  0.8222 -0.7482 -3.1453
  615MOL0     H83009  10.054   8.394   8.594 -2.9783  1.7242  1.9962
  615MOL0     H83010  10.087   8.612   8.707 -1.1003 -3.0021 -3.1753
  615MOL0     H83011  10.413   8.773   9.216  0.2316  0.0311 -1.1926
  615MOL0     H83012  10.359   8.973   9.348 -1.0139  0.4201  1.9499
  615MOL0     H83013  10.245   9.137   9.419 -1.5475 -0.1240 -0.1363
  615MOL0     H83014  10.121   9.257   9.419  1.6799  3.6552  1.4849
  615MOL0     H83015  10.282   9.411   9.294 -2.0103 -0.3786 -0.1526
  615MOL0     H83016  10.413   9.284   9.317 -0.5178  0.2275 -1.0554
  615MOL0     H83017  10.425   9.305   9.547  2.6755  0.9545 -0.3738
  615MOL0     H83018  10.278   9.408   9.558 -0.3006  1.2378 -0.0073
  615MOL0     H83019  10.555   9.457   9.444  1.2266 -0.3444 -0.7271
  615MOL0     H83020  10.421   9.558   9.397  2.9106 -0.8496 -0.9596
  615MOL0     H83021  10.557   9.711   9.771  0.5968  2.6320 -3.1855
  615MOL0     H83022  10.170   9.145   8.984  1.0585 -0.4958 -0.5731
  615MOL0     H83023  10.142   8.994   8.801  0.0655  0.8135  2.7523
  615MOL0     H83024  10.304   9.048   8.756 -0.4743  0.3537  0.1253
  615MOL0     H83025  10.261   8.872   8.763 -2.2124 -0.4756  0.7426
  616MOL0     O83026   1.371   7.907   4.089 -0.2550  0.0410 -0.3664
  616MOL0     C83027   1.255   7.931   4.114 -0.0117  1.1852  0.2033
  616MOL0     O83028   1.166   7.973   4.018  1.0594 -0.1067 -0.2838
  616MOL0     C83029   1.204   8.030   3.901  0.4821 -1.1816  0.0303
  616MOL0     C83030   1.123   8.140   3.867 -0.5068  0.2310  0.7839
  616MOL0     C83031   1.153   8.223   3.753 -0.3411  1.0946 -0.8343
  616MOL0     C83032   1.269   8.188   3.678 -0.3492 -0.6369  0.4931
  616MOL0     O83033   1.294   8.274   3.568 -0.1141  0.4674  0.1317
  616MOL0     C83034   1.400   8.234   3.487  0.5347  0.6913  0.1169
  616MOL0     C83035   1.420   8.344   3.378 -0.6557 -0.6279  0.2689
  616MOL0     C83036   1.543   8.319   3.292 -0.0956  0.0109 -0.2497
  616MOL0     C83037   1.553   8.432   3.186 -0.4497  0.4114 -0.6913
  616MOL0     C83038   1.692   8.421   3.101 -0.4232  0.4789  0.2845
  616MOL0     C83039   1.669   8.340   2.971 -0.3738  0.2663 -0.6173
  616MOL0     C83040   1.669   8.193   2.981 -0.0098  0.2501 -0.2361
  616MOL0     C83041   1.644   8.126   2.845 -0.9001  0.4742 -0.0145
  616MOL0     N83042   1.578   7.994   2.858  0.7057  0.4931 -0.5736
  616MOL0     C83043   1.441   7.981   2.893  0.5566  0.0204 -0.0627
  616MOL0     C83044   1.412   7.843   2.894  1.0915 -0.1977  0.2497
  616MOL0     C83045   1.278   7.778   2.900 -0.8274 -0.3431 -0.5059
  616MOL0     C83046   1.232   7.738   2.756 -0.4998  0.7031  0.5227
  616MOL0     C83047   1.161   7.854   2.681 -0.4611  0.2874  0.2771
  616MOL0     C83048   1.128   7.826   2.538 -1.1795  0.6089 -0.7824
  616MOL0     O83049   1.078   7.936   2.462 -1.1253  0.3214 -0.5516
  616MOL0     C83050   0.940   7.966   2.470 -0.7226  0.6885  0.9090
  616MOL0     C83051   0.897   8.062   2.385  0.5704  0.4469 -0.0202
  616MOL0     C83052   0.762   8.103   2.380  0.8203 -0.3558 -0.7761
  616MOL0     C83053   0.664   8.042   2.458  0.1530 -0.0226 -0.8658
  616MOL0     C83054   0.517   8.079   2.465  0.0555 -0.0363  0.2260
  616MOL0     O83055   0.434   7.991   2.527  0.3455  0.8608 -0.0356
  616MOL0     C83056   0.293   7.998   2.546 -1.2589 -1.7274 -0.5146
  616MOL0     C83057   0.206   8.103   2.506  0.2771  0.2755  0.3652
  616MOL0     C83058   0.075   8.107   2.531  0.3076 -0.4583 -1.2231
  616MOL0     C83059   0.015   8.002   2.598 -0.1134  0.4267  0.5158
  616MOL0     O83060  -0.112   7.999   2.629  0.3417 -0.2921  0.3962
  616MOL0     C83061  -0.157   8.094   2.718  0.2396 -0.7825 -0.2873
  616MOL0     C83062  -0.111   8.072   2.858  0.2165 -0.3590  0.2895
  616MOL0     C83063  -0.140   7.943   2.922 -0.6024 -0.8732 -0.4708
  616MOL0     C83064  -0.131   7.953   3.076 -0.5651  0.3936 -0.1116
  616MOL0     C83065  -0.137   7.808   3.136 -0.8887 -0.8811 -0.1954
  616MOL0     C83066  -0.265   7.793   3.232  0.0450 -0.3870 -0.3147
  616MOL0     C83067  -0.235   7.841   3.381  0.8932  0.6457  0.9486
  616MOL0     C83068  -0.337   7.803   3.491 -0.0078  0.4083 -0.0423
  616MOL0    Cl83069  -0.275   7.871   3.650  0.1840  0.4756  0.2673
  616MOL0     C83070   0.097   7.892   2.638 -0.8102  0.2211  0.2040
  616MOL0     C83071   0.234   7.887   2.612  0.5260  0.6489  0.1956
  616MOL0     O83072   0.483   8.176   2.401 -0.6939  0.3076  0.0637
  616MOL0     C83073   0.710   7.938   2.549  0.3026  0.9231 -0.2496
  616MOL0     C83074   0.848   7.899   2.551  1.0382  0.5032  0.4123
  616MOL0     N83075   1.526   7.783   2.842 -0.2282  0.7180  0.2559
  616MOL0     N83076   1.618   7.868   2.831 -0.4355  0.2628 -0.0911
  616MOL0     C83077   1.343   8.075   3.706  0.5349  0.4294  0.2849
  616MOL0     C83078   1.310   7.993   3.813  0.1460 -0.8119  0.3382
  616MOL0     C83079   1.194   7.892   4.248  0.0147  0.3286 -0.6737
  616MOL0     C83080   1.065   7.833   4.254  0.3743 -0.0999 -0.6583
  616MOL0     C83081   1.007   7.787   4.368 -0.3788  0.1670  0.5412
  616MOL0     C83082   1.069   7.811   4.486 -1.1177 -0.1988  0.2167
  616MOL0     O83083   1.001   7.762   4.606 -0.2846 -0.3838 -0.9177
  616MOL0     C83084   1.075   7.780   4.728 -0.3628  0.7415  0.1023
  616MOL0     C83085   1.016   7.691   4.835 -1.1881  1.2390 -0.8644
  616MOL0     C83086   1.124   7.677   4.948  0.3656  0.9010 -0.4529
  616MOL0     C83087   1.092   7.560   5.035 -0.6019  1.3782  0.1827
  616MOL0     C83088   0.980   7.585   5.132  0.3700  0.2354  0.8563
  616MOL0     C83089   0.888   7.612   5.212  0.0487  1.1593 -0.0610
  616MOL0     C83090   1.188   7.882   4.493 -0.8316 -0.3469 -0.1004
  616MOL0     C83091   1.260   7.915   4.374  0.1316 -0.6659  0.4685
  616MOL0     C83092   1.394   7.987   4.376 -0.3444  0.0064 -0.4203
  616MOL0     H83093   1.047   8.169   3.939  0.2378  3.0053  0.5460
  616MOL0     H83094   1.083   8.301   3.727 -2.6561 -0.7943 -0.6573
  616MOL0     H83095   1.492   8.221   3.544 -0.0581 -0.7410  0.7916
  616MOL0     H83096   1.367   8.139   3.445  3.2716 -0.0461 -0.5967
  616MOL0     H83097   1.429   8.446   3.416  0.8299 -0.8816  0.6749
  616MOL0     H83098   1.330   8.338   3.316  1.0404  0.5980 -2.5228
  616MOL0     H83099   1.528   8.222   3.244 -2.8859  1.4877 -2.6524
  616MOL0     H83100   1.634   8.317   3.352  0.7500 -3.7644 -1.3954
  616MOL0     H83101   1.465   8.424   3.122  1.3201 -0.4395 -3.1807
  616MOL0     H83102   1.557   8.531   3.232 -0.6685  0.6166 -1.1127
  616MOL0     H83103   1.708   8.525   3.073 -3.1878  0.8017 -0.3137
  616MOL0     H83104   1.771   8.368   3.155 -1.2973 -0.6423  0.5057
  616MOL0     H83105   1.577   8.386   2.934 -0.8566  2.0234  2.4570
  616MOL0     H83106   1.759   8.362   2.912  1.3658 -2.6877  0.6953
  616MOL0     H83107   1.585   8.164   3.045 -0.3136 -1.0849 -1.1979
  616MOL0     H83108   1.765   8.155   3.017 -1.3924 -0.2192  3.3933
  616MOL0     H83109   1.577   8.189   2.786  0.1441  0.3205 -1.4270
  616MOL0     H83110   1.737   8.117   2.787  1.3934 -0.0929  3.4415
  616MOL0     H83111   1.378   8.062   2.928 -0.1952 -0.9928  1.0211
  616MOL0     H83112   1.291   7.684   2.954  2.4087  1.8629  3.0394
  616MOL0     H83113   1.209   7.842   2.955 -1.0338 -0.2324 -0.8859
  616MOL0     H83114   1.313   7.701   2.693  0.4072 -0.6636  2.4079
  616MOL0     H83115   1.166   7.651   2.755  2.0117 -1.3314  1.3055
  616MOL0     H83116   1.221   7.943   2.705  2.1854 -2.2321  4.0972
  616MOL0     H83117   1.067   7.878   2.732 -0.7070  2.6967 -1.1188
  616MOL0     H83118   1.069   7.735   2.525  0.1177 -0.6558  1.4422
  616MOL0     H83119   1.226   7.792   2.503 -1.5408 -0.2779 -0.9710
  616MOL0     H83120   0.971   8.109   2.321 -0.2361  1.3584 -0.3248
  616MOL0     H83121   0.737   8.190   2.319 -0.1834  0.0247  0.1363
  616MOL0     H83122   0.243   8.189   2.452 -2.5481 -0.1123 -2.5483
  616MOL0     H83123   0.002   8.176   2.489 -1.6541 -2.2361 -0.9188
  616MOL0     H83124  -0.122   8.196   2.700 -1.0400 -0.3212 -0.3026
  616MOL0     H83125  -0.267   8.094   2.711  0.3506 -1.2131 -3.1707
  616MOL0     H83126  -0.002   8.084   2.849  0.3572 -2.7558 -2.9492
  616MOL0     H83127  -0.157   8.154   2.914 -0.0810 -0.9208  0.8766
  616MOL0     H83128  -0.235   7.903   2.886 -1.9567  0.9907  0.8475
  616MOL0     H83129  -0.060   7.879   2.884 -0.4605 -0.2128 -1.3470
  616MOL0     H83130  -0.220   8.006   3.112 -1.8557 -3.2035  2.6326
  616MOL0     H83131  -0.048   8.019   3.100  0.3513  0.5245 -3.2393
  616MOL0     H83132  -0.047   7.776   3.190 -0.1785  1.6878  0.2821
  616MOL0     H83133  -0.163   7.738   3.055 -0.7983 -1.1234 -0.0164
  616MOL0     H83134  -0.355   7.839   3.189 -0.1686  0.0324  0.5507
  616MOL0     H83135  -0.293   7.688   3.238 -0.3175 -0.2173  2.2527
  616MOL0     H83136  -0.224   7.949   3.367 -3.2443  0.8864 -2.3876
  616MOL0     H83137  -0.137   7.797   3.401  0.9403  0.7711  0.9935
  616MOL0     H83138  -0.437   7.844   3.476 -1.4666 -3.4816 -2.3743
  616MOL0     H83139  -0.345   7.694   3.499  2.7514 -0.2960 -4.0318
  616MOL0     H83140   0.064   7.798   2.680  1.6364  0.2831  2.5790
  616MOL0     H83141   0.296   7.803   2.642  1.9018  2.0792  1.6031
  616MOL0     H83142   0.639   7.886   2.612  0.2589  2.9957  1.5098
  616MOL0     H83143   0.865   7.821   2.624 -0.0437  0.5317  0.7209
  616MOL0     H83144   1.439   8.050   3.661 -0.8330  1.0005 -3.2802
  616MOL0     H83145   1.364   7.906   3.848 -0.7014 -0.9620  1.3106
  616MOL0     H83146   1.017   7.812   4.159  0.3343  3.6441 -1.6007
  616MOL0     H83147   0.905   7.750   4.371  0.1582 -1.3645  3.2643
  616MOL0     H83148   1.073   7.885   4.760 -0.6495  1.5243 -2.2496
  616MOL0     H83149   1.177   7.742   4.714 -0.2072  1.8683 -2.5071
  616MOL0     H83150   1.015   7.592   4.788 -3.2999 -1.2355  3.7353
  616MOL0     H83151   0.915   7.723   4.862 -2.0444 -0.3656 -2.0228
  616MOL0     H83152   1.114   7.767   5.010  1.7642  1.4851 -1.0368
  616MOL0     H83153   1.225   7.685   4.907 -0.1679 -0.2014 -2.0797
  616MOL0     H83154   1.061   7.469   4.983  0.8133  0.4412  0.9212
  616MOL0     H83155   1.178   7.550   5.102 -0.5575 -0.3382 -0.0731
  616MOL0     H83156   0.804   7.644   5.269 -2.3450 -1.1919 -2.0012
  616MOL0     H83157   1.248   7.910   4.578 -0.0422 -1.0528 -0.4085
  616MOL0     H83158   1.476   7.916   4.362  0.3448  0.9970 -1.5475
  616MOL0     H83159   1.399   8.053   4.289  2.4344 -0.4652 -0.7026
  616MOL0     H83160   1.405   8.032   4.475 -0.7932 -2.4190  0.8152
  617MOL0     O83161  10.950   9.880   8.612 -0.4787  0.4699  0.2643
  617MOL0     C83162  10.849   9.948   8.606 -0.2117  0.1649  0.5419
  617MOL0     O83163  10.728   9.914   8.533  0.7874  0.0875 -0.1574
  617MOL0     C83164  10.731   9.797   8.457  0.3937  0.5264 -0.1296
  617MOL0     C83165  10.607   9.734   8.447  0.6797  0.8167  0.1852
  617MOL0     C83166  10.606   9.608   8.375  0.3691 -0.9778  0.2316
  617MOL0     C83167  10.717   9.562   8.308  0.4669  0.6580  0.3420
  617MOL0     O83168  10.723   9.447   8.237  0.2440  0.1499  0.4170
  617MOL0     C83169  10.787   9.424   8.107 -0.1452  0.8413  0.4545
  617MOL0     C83170  10.784   9.536   7.995  0.3456 -0.0777 -0.0809
  617MOL0     C83171  10.670   9.512   7.903 -0.4368  0.4518 -0.6050
  617MOL0     C83172  10.533   9.516   7.971  0.2604  0.0674  0.0811
  617MOL0     C83173  10.410   9.508   7.874  0.9892  0.4886 -0.2373
  617MOL0     C83174  10.391   9.636   7.786 -0.0605 -0.4363 -0.1080
  617MOL0     C83175  10.269   9.608   7.690 -0.4844 -0.9168  0.0076
  617MOL0     C83176  10.239   9.736   7.608  0.1105 -0.3746  0.3637
  617MOL0     N83177  10.346   9.783   7.516 -0.3428 -0.5510  0.1261
  617MOL0     C83178  10.466   9.721   7.478 -0.4280 -0.0287  1.4552
  617MOL0     C83179  10.541   9.822   7.427  0.8467 -0.0939 -0.7118
  617MOL0     C83180  10.668   9.826   7.346 -0.0056  0.7176  0.9598
  617MOL0     C83181  10.786   9.750   7.402 -0.3707  0.4329 -0.2530
  617MOL0     C83182  10.922   9.827   7.372 -0.4206 -0.4410  1.3027
  617MOL0     C83183  11.042   9.759   7.449 -0.5844 -0.2269 -0.6510
  617MOL0     O83184  11.023   9.623   7.405 -0.8159 -0.3392  0.2407
  617MOL0     C83185  11.046   9.519   7.495  0.1235 -0.3149 -0.5579
  617MOL0     C83186  10.959   9.510   7.604 -0.6280 -0.5872  0.2851
  617MOL0     C83187  10.986   9.420   7.715 -0.1016  0.8081 -0.7174
  617MOL0     C83188  11.095   9.325   7.693  0.7036 -0.3913 -0.3690
  617MOL0     C83189  11.115   9.207   7.784  0.3638  0.0621  0.4989
  617MOL0     O83190  11.194   9.100   7.739 -0.7138 -1.1147  0.3873
  617MOL0     C83191  11.219   9.000   7.825 -0.6404  0.5681  0.0419
  617MOL0     C83192  11.133   8.895   7.829 -0.0378  0.5691 -0.0618
  617MOL0     C83193  11.150   8.788   7.922 -0.1441 -0.5017  0.5085
  617MOL0     C83194  11.244   8.805   8.024  0.2179  0.0553 -0.6410
  617MOL0     O83195  11.250   8.720   8.132  0.5876  0.2611  0.3667
  617MOL0     C83196  11.370   8.647   8.145 -0.6066  0.1030  1.0466
  617MOL0     C83197  11.362   8.541   8.257  0.2198 -0.1294  0.7484
  617MOL0     C83198  11.462   8.435   8.271 -0.9143  0.2655  0.2634
  617MOL0     C83199  11.420   8.291   8.206  0.1338 -0.9864 -0.7056
  617MOL0     C83200  11.384   8.198   8.317 -0.2503 -0.0714 -0.1547
  617MOL0     C83201  11.516   8.146   8.390 -0.0197 -0.3238 -0.0549
  617MOL0     C83202  11.479   8.033   8.500  0.2886  0.5702 -0.1007
  617MOL0     C83203  11.408   7.906   8.451 -0.2437  0.9806  0.0711
  617MOL0    Cl83204  11.424   7.780   8.586 -0.1762 -0.1528 -0.2259
  617MOL0     C83205  11.331   8.915   8.022 -0.4344 -0.9972 -0.3752
  617MOL0     C83206  11.316   9.013   7.917 -0.0113 -0.8948  0.5223
  617MOL0     O83207  11.057   9.201   7.893 -0.7150  0.8988  0.3520
  617MOL0     C83208  11.190   9.348   7.586  0.1108 -1.3335  0.5205
  617MOL0     C83209  11.166   9.454   7.498  0.3423  0.7481 -0.4430
  617MOL0     N83210  10.475   9.944   7.442 -0.1040 -0.0276 -0.2023
  617MOL0     N83211  10.360   9.919   7.491 -0.8734  0.3220 -0.7813
  617MOL0     C83212  10.827   9.644   8.309 -0.2244  0.8640 -0.0214
  617MOL0     C83213  10.843   9.759   8.383 -0.8374 -0.1611  0.4875
  617MOL0     C83214  10.853  10.088   8.668  0.6218  0.1318 -0.9080
  617MOL0     C83215  10.972  10.122   8.736  0.9224  1.0194  0.0397
  617MOL0     C83216  10.992  10.248   8.786 -0.5416  0.4862 -0.7644
  617MOL0     C83217  10.894  10.343   8.785 -0.3032 -0.1197  0.1141
  617MOL0     O83218  10.909  10.458   8.855 -0.1542  0.1543  0.3355
  617MOL0     C83219  11.013  10.474   8.951  0.3550 -0.8375  0.0941
  617MOL0     C83220  11.001  10.619   8.993  0.9154 -0.7894  0.6325
  617MOL0     C83221  11.083  10.663   9.120 -0.2828  0.4447  0.1846
  617MOL0     C83222  11.033  10.789   9.179  1.0126 -0.7404 -0.5478
  617MOL0     C83223  10.902  10.777   9.246 -0.5054 -0.3390 -0.0696
  617MOL0     C83224  10.804  10.776   9.322 -0.0158 -0.2764  0.3868
  617MOL0     C83225  10.773  10.313   8.718  0.6929 -0.3572 -0.2437
  617MOL0     C83226  10.749  10.193   8.654 -1.5280  0.8700  0.1824
  617MOL0     C83227  10.623  10.178   8.572  0.0006  0.1383 -0.5627
  617MOL0     H83228  10.520   9.774   8.496 -1.0479 -0.7106 -1.4442
  617MOL0     H83229  10.513   9.552   8.377  0.2664 -0.9677  4.7965
  617MOL0     H83230  10.895   9.423   8.124 -0.2071 -2.2053  1.0729
  617MOL0     H83231  10.745   9.335   8.061  0.0416  0.2710  1.3781
  617MOL0     H83232  10.875   9.525   7.934  0.3506  5.3791 -1.6248
  617MOL0     H83233  10.789   9.640   8.029  1.3152  0.2962 -1.2815
  617MOL0     H83234  10.675   9.411   7.861  0.4409 -0.2825  1.2123
  617MOL0     H83235  10.664   9.595   7.832 -1.7778  1.7740  0.9741
  617MOL0     H83236  10.518   9.435   8.043 -0.7547 -1.3934 -1.6812
  617MOL0     H83237  10.513   9.606   8.030  0.4642  0.8730 -1.0531
  617MOL0     H83238  10.424   9.415   7.818 -2.3437 -0.7972  0.8675
  617MOL0     H83239  10.316   9.502   7.929  0.7425  0.3303 -0.6672
  617MOL0     H83240  10.385   9.726   7.847 -0.1715  1.1739 -2.3660
  617MOL0     H83241  10.478   9.651   7.721 -0.8314  0.6135 -0.9422
  617MOL0     H83242  10.171   9.605   7.738 -3.2088  2.1024 -4.6366
  617MOL0     H83243  10.283   9.520   7.626 -2.1911 -1.1711 -0.0517
  617MOL0     H83244  10.143   9.722   7.558 -0.3471  2.2101  0.3386
  617MOL0     H83245  10.228   9.818   7.681 -4.5738 -0.6702  0.3059
  617MOL0     H83246  10.487   9.615   7.481  1.0710  0.2720  2.4252
  617MOL0     H83247  10.649   9.786   7.246  1.6239 -0.7712  1.1932
  617MOL0     H83248  10.697   9.929   7.322 -1.5022  0.6309 -1.5979
  617MOL0     H83249  10.760   9.734   7.507 -1.5826 -2.5097 -0.9014
  617MOL0     H83250  10.785   9.648   7.360  0.2559 -0.2863  1.3903
  617MOL0     H83251  10.910   9.930   7.404 -3.1561  0.6493 -2.5090
  617MOL0     H83252  10.938   9.834   7.264 -2.0010  1.0324  1.1359
  617MOL0     H83253  11.039   9.766   7.558  1.6322  2.0000 -0.6365
  617MOL0     H83254  11.137   9.805   7.417 -0.6609  1.1481  0.9745
  617MOL0     H83255  10.875   9.577   7.599  1.6312  2.4752  0.4513
  617MOL0     H83256  10.913   9.404   7.793 -2.0628 -3.4094 -3.0869
  617MOL0     H83257  11.047   8.889   7.763  0.0000  1.6547 -0.2182
  617MOL0     H83258  11.078   8.707   7.920 -1.9277  1.0176  0.2470
  617MOL0     H83259  11.388   8.594   8.052 -2.1601  0.4965  0.5028
  617MOL0     H83260  11.460   8.710   8.151 -0.4294  0.4004 -2.6090
  617MOL0     H83261  11.368   8.617   8.336  1.7533 -0.2183  0.7355
  617MOL0     H83262  11.262   8.496   8.249 -1.6721  3.9637 -4.3966
  617MOL0     H83263  11.545   8.475   8.213 -2.9418  0.2564 -2.8678
  617MOL0     H83264  11.482   8.421   8.378 -0.3381  3.3835  0.6717
  617MOL0     H83265  11.499   8.235   8.153  2.5993 -3.3084  4.6540
  617MOL0     H83266  11.336   8.293   8.136  1.1513 -1.4403 -2.0050
  617MOL0     H83267  11.323   8.112   8.285  0.4146 -0.5342 -0.2036
  617MOL0     H83268  11.320   8.244   8.392 -2.9787 -1.8424 -1.2414
  617MOL0     H83269  11.590   8.107   8.320 -1.0242 -2.2696 -0.0996
  617MOL0     H83270  11.562   8.230   8.442 -3.0562  1.1980  0.4285
  617MOL0     H83271  11.439   8.066   8.596  2.4636 -0.0590  1.0992
  617MOL0     H83272  11.577   7.991   8.525 -0.8719 -2.5404 -0.3428
  617MOL0     H83273  11.305   7.912   8.416  0.0184  2.2062 -0.5439
  617MOL0     H83274  11.466   7.879   8.363  1.8881  5.0993 -0.0277
  617MOL0     H83275  11.405   8.918   8.101  0.1117  1.6652 -0.8855
  617MOL0     H83276  11.374   9.104   7.919 -0.6334 -0.4757  2.6728
  617MOL0     H83277  11.274   9.282   7.571  1.1762  0.4342 -1.8550
  617MOL0     H83278  11.238   9.472   7.419 -1.3336  0.4573 -2.0877
  617MOL0     H83279  10.922   9.618   8.263 -1.6520 -0.8976 -2.2322
  617MOL0     H83280  10.935   9.815   8.384 -1.9625  2.2063 -3.9843
  617MOL0     H83281  11.056  10.056   8.757  0.0684 -0.1891 -0.2606
  617MOL0     H83282  11.087  10.261   8.838  0.5193  1.0358 -2.7422
  617MOL0     H83283  11.104  10.444   8.897 -1.2078 -1.7866 -2.1642
  617MOL0     H83284  11.009  10.405   9.036 -0.9319  1.5087  2.0481
  617MOL0     H83285  10.892  10.631   8.997  0.3358 -2.4401 -3.9929
  617MOL0     H83286  11.031  10.681   8.908 -3.2959  1.5071  0.5159
  617MOL0     H83287  11.185  10.674   9.082  0.4920  0.3534  2.1130
  617MOL0     H83288  11.078  10.581   9.192 -0.7292  0.0545 -0.2909
  617MOL0     H83289  11.102  10.816   9.259  2.3589 -2.4520 -1.0683
  617MOL0     H83290  11.027  10.866   9.101 -1.6415 -1.5089 -1.2022
  617MOL0     H83291  10.716  10.774   9.383  0.6906 -0.9931  1.4096
  617MOL0     H83292  10.697  10.390   8.707  0.6794 -0.4319 -0.7072
  617MOL0     H83293  10.635  10.131   8.474 -1.5182 -1.0255 -0.2233
  617MOL0     H83294  10.560  10.113   8.633  0.7206 -1.3555 -1.3653
  617MOL0     H83295  10.569  10.273   8.571 -1.5482 -0.6886  0.6589
  618MOL0     O83296   7.590   1.339   6.847  0.1337  0.1338  0.2461
  618MOL0     C83297   7.599   1.335   6.723  0.0400  1.0593 -0.3177
  618MOL0     O83298   7.707   1.359   6.652 -1.1653 -0.1509  0.5860
  618MOL0     C83299   7.804   1.442   6.683 -0.5008 -0.1086 -0.3181
  618MOL0     C83300   7.940   1.416   6.630 -0.1897 -0.6007 -0.9419
  618MOL0     C83301   8.042   1.516   6.657 -0.0052  0.6678 -0.2447
  618MOL0     C83302   8.017   1.631   6.739 -0.6983  0.5891  0.6027
  618MOL0     O83303   8.114   1.727   6.774 -0.0893  0.4941  0.3289
  618MOL0     C83304   8.247   1.710   6.729  1.1719 -0.5001 -0.0846
  618MOL0     C83305   8.297   1.857   6.738 -0.9265 -0.1655  0.1362
  618MOL0     C83306   8.446   1.879   6.687  0.3476  0.2144  0.0415
  618MOL0     C83307   8.526   1.999   6.759  0.4987 -0.1725  0.8196
  618MOL0     C83308   8.462   2.136   6.751 -0.6512 -0.4791  1.0090
  618MOL0     C83309   8.480   2.202   6.605  0.1567  0.1038  0.0657
  618MOL0     C83310   8.446   2.347   6.601  0.5804 -0.4711 -0.6619
  618MOL0     C83311   8.306   2.392   6.544 -0.0397  0.3836 -0.0637
  618MOL0     N83312   8.203   2.329   6.628  0.2987  0.4934  0.2738
  618MOL0     C83313   8.148   2.202   6.603 -0.3066  1.4209 -0.1722
  618MOL0     C83314   8.054   2.191   6.694  0.3420 -0.5758  0.0944
  618MOL0     C83315   7.969   2.066   6.738 -0.3007  0.7675  0.5300
  618MOL0     C83316   7.826   2.065   6.669  0.0754 -0.2711  0.0468
  618MOL0     C83317   7.748   2.195   6.698 -0.1171 -0.3543 -1.1372
  618MOL0     C83318   7.601   2.182   6.666  0.3913  0.3603 -0.2119
  618MOL0     O83319   7.518   2.284   6.723 -0.7409 -0.6054 -0.7990
  618MOL0     C83320   7.383   2.269   6.702  0.8212 -0.0107  0.9341
  618MOL0     C83321   7.315   2.159   6.757  1.2100 -0.7795 -0.6610
  618MOL0     C83322   7.178   2.149   6.743  0.0928  0.0858 -0.7081
  618MOL0     C83323   7.103   2.222   6.653 -0.1206 -0.4962  0.4950
  618MOL0     C83324   6.963   2.194   6.637  0.9385  0.1176 -0.7865
  618MOL0     O83325   6.905   2.094   6.723  0.4228 -0.0169 -0.1167
  618MOL0     C83326   6.777   2.048   6.711  0.1986 -0.4428  0.4759
  618MOL0     C83327   6.662   2.116   6.679  0.7691 -0.1189 -0.4138
  618MOL0     C83328   6.543   2.049   6.649 -0.1527 -0.6804 -0.1321
  618MOL0     C83329   6.524   1.921   6.684  0.4740 -0.5268 -0.7472
  618MOL0     O83330   6.396   1.871   6.689 -0.0402  0.2202  0.6546
  618MOL0     C83331   6.348   1.808   6.808 -0.5588  0.0973 -0.7411
  618MOL0     C83332   6.193   1.794   6.788  1.1283 -0.6808 -1.1750
  618MOL0     C83333   6.128   1.934   6.784 -0.4023  0.7600  0.7763
  618MOL0     C83334   5.986   1.929   6.805 -0.5579 -0.6891  0.5043
  618MOL0     C83335   5.917   1.867   6.694 -0.4690 -0.6139 -0.5982
  618MOL0     C83336   5.764   1.897   6.696 -0.1717  0.7083  0.0532
  618MOL0     C83337   5.690   1.825   6.585  0.8310 -0.4160 -0.2830
  618MOL0     C83338   5.539   1.818   6.624 -0.6269 -0.0729 -0.1106
  618MOL0    Cl83339   5.471   1.741   6.470 -0.0804  0.0043 -0.2083
  618MOL0     C83340   6.642   1.852   6.725  0.5877  0.8335  0.4493
  618MOL0     C83341   6.765   1.917   6.742 -0.4250 -0.1123  0.7851
  618MOL0     O83342   6.895   2.249   6.551  0.3138  0.6278 -0.5918
  618MOL0     C83343   7.172   2.325   6.590  0.0240  0.0363  0.7842
  618MOL0     C83344   7.307   2.358   6.614 -0.8948  0.1248  0.0765
  618MOL0     N83345   8.050   2.301   6.779 -0.7713 -0.7069 -0.1724
  618MOL0     N83346   8.146   2.384   6.736 -0.7424 -0.4042 -0.8153
  618MOL0     C83347   7.891   1.639   6.795  0.2828 -0.5571 -0.2241
  618MOL0     C83348   7.787   1.550   6.775  0.7158 -0.2037 -0.2981
  618MOL0     C83349   7.478   1.306   6.645 -0.3662  0.0660  0.4884
  618MOL0     C83350   7.495   1.264   6.512 -0.1454 -0.3606  0.2743
  618MOL0     C83351   7.389   1.208   6.444  0.1724 -0.4804 -0.4346
  618MOL0     C83352   7.267   1.184   6.507  0.0379 -0.0497  0.1963
  618MOL0     O83353   7.176   1.125   6.419  0.7034  0.5899  0.3023
  618MOL0     C83354   7.035   1.108   6.455  0.4096 -0.3560 -0.0797
  618MOL0     C83355   6.929   1.074   6.358  0.0826 -0.3388 -0.0585
  618MOL0     C83356   6.922   1.176   6.243 -0.5693  0.5528  0.7745
  618MOL0     C83357   7.010   1.147   6.133  0.7343 -0.5426 -0.0976
  618MOL0     C83358   6.980   1.242   6.021 -0.6751  0.0671 -0.5022
  618MOL0     C83359   6.966   1.326   5.936  0.0698  0.5987 -0.8152
  618MOL0     C83360   7.246   1.234   6.629 -0.3672 -0.7430 -0.7420
  618MOL0     C83361   7.352   1.283   6.704  0.1841 -0.0486  0.0440
  618MOL0     C83362   7.310   1.354   6.836  0.1814 -0.4319  0.1590
  618MOL0     H83363   7.963   1.328   6.571  4.8665 -1.2144  1.3972
  618MOL0     H83364   8.135   1.482   6.613 -0.5408 -1.5682  0.1981
  618MOL0     H83365   8.291   1.633   6.792  1.3826  0.1533  0.5813
  618MOL0     H83366   8.265   1.661   6.633  2.3268  0.9574 -0.6652
  618MOL0     H83367   8.291   1.883   6.845 -0.1178 -1.6016  0.5607
  618MOL0     H83368   8.235   1.928   6.683 -2.2440 -2.0039 -0.8441
  618MOL0     H83369   8.446   1.897   6.580 -1.9997 -1.1889 -0.2843
  618MOL0     H83370   8.503   1.787   6.701  1.0434  0.6436  0.0405
  618MOL0     H83371   8.530   1.965   6.863 -0.6696 -1.1614  0.5698
  618MOL0     H83372   8.625   2.002   6.714 -0.7995 -1.6581 -2.4134
  618MOL0     H83373   8.355   2.148   6.770 -0.5180  0.9096  0.9732
  618MOL0     H83374   8.511   2.195   6.829 -0.0470 -0.2911  0.4936
  618MOL0     H83375   8.588   2.193   6.593 -0.0470  0.3401 -2.4901
  618MOL0     H83376   8.430   2.135   6.534 -1.6652 -1.6718  2.8558
  618MOL0     H83377   8.518   2.400   6.538 -1.2129  0.3664 -2.1090
  618MOL0     H83378   8.451   2.386   6.703  1.8494  2.3343 -1.6770
  618MOL0     H83379   8.312   2.501   6.556  1.2100  0.1909  1.4013
  618MOL0     H83380   8.288   2.363   6.440  1.1299 -0.4547 -0.0491
  618MOL0     H83381   8.172   2.128   6.528 -1.8544  0.7156  0.0109
  618MOL0     H83382   8.023   1.975   6.711 -0.5533  1.2568 -1.8282
  618MOL0     H83383   7.955   2.063   6.846 -1.6577 -1.1235  0.3508
  618MOL0     H83384   7.833   2.069   6.560 -0.3298  0.0905  0.0319
  618MOL0     H83385   7.781   1.967   6.690 -0.9090 -0.0776 -1.0991
  618MOL0     H83386   7.791   2.277   6.638  0.3683  0.5927  0.4355
  618MOL0     H83387   7.761   2.222   6.803  1.9247 -0.6301 -1.2707
  618MOL0     H83388   7.563   2.090   6.709  1.1976  0.4803  0.7779
  618MOL0     H83389   7.583   2.185   6.558  1.3465  7.2989 -0.6372
  618MOL0     H83390   7.358   2.094   6.833 -1.8225 -2.0493  0.0917
  618MOL0     H83391   7.127   2.064   6.787  1.0386  1.0796  2.5420
  618MOL0     H83392   6.675   2.220   6.651  1.3318 -0.1660 -0.3481
  618MOL0     H83393   6.462   2.104   6.600 -2.5915 -2.5983  1.5027
  618MOL0     H83394   6.387   1.706   6.815 -3.0313 -0.9831 -1.6999
  618MOL0     H83395   6.379   1.865   6.896  1.7284  2.3300 -2.8175
  618MOL0     H83396   6.184   1.735   6.696  2.2521 -1.2657 -0.9349
  618MOL0     H83397   6.152   1.743   6.876  2.7653 -0.1198 -0.0381
  618MOL0     H83398   6.163   2.013   6.852 -2.5395  3.2617 -0.8466
  618MOL0     H83399   6.140   1.980   6.686  1.1839 -2.4531 -0.6995
  618MOL0     H83400   5.938   2.025   6.829  0.2980 -0.5876  1.9607
  618MOL0     H83401   5.962   1.868   6.893 -2.0501 -0.2844  0.4135
  618MOL0     H83402   5.924   1.760   6.676  0.1903 -0.7009  0.1543
  618MOL0     H83403   5.956   1.919   6.606 -2.3350  0.4265 -0.8673
  618MOL0     H83404   5.719   1.877   6.794  0.4838 -2.5536 -0.2006
  618MOL0     H83405   5.755   2.004   6.673  0.7730  0.0276 -4.4407
  618MOL0     H83406   5.717   1.720   6.569  1.2389 -0.9260  2.9907
  618MOL0     H83407   5.701   1.880   6.492 -2.9438 -0.6920 -1.0176
  618MOL0     H83408   5.511   1.754   6.707  2.7594 -1.8591 -0.1544
  618MOL0     H83409   5.491   1.917   6.626  1.8123  1.2019 -0.5277
  618MOL0     H83410   6.628   1.748   6.756 -0.2415  1.3363  1.8804
  618MOL0     H83411   6.854   1.862   6.771  2.0650  2.2892 -1.6848
  618MOL0     H83412   7.106   2.381   6.523  2.2121  0.5870 -1.0418
  618MOL0     H83413   7.347   2.448   6.568  0.3575 -0.3171  0.2805
  618MOL0     H83414   7.877   1.730   6.853 -0.6079 -1.2891  0.7289
  618MOL0     H83415   7.690   1.574   6.817  1.5289  1.4992  0.7202
  618MOL0     H83416   7.593   1.270   6.465 -0.0766  3.2939  0.6194
  618MOL0     H83417   7.398   1.190   6.337  0.9449 -1.8659 -0.1500
  618MOL0     H83418   6.999   1.207   6.487  0.3642 -0.3511 -0.1468
  618MOL0     H83419   7.023   1.034   6.535 -0.4013 -3.2681 -2.7404
  618MOL0     H83420   6.835   1.073   6.414  1.4224 -2.6693  2.4261
  618MOL0     H83421   6.934   0.967   6.334  0.4509 -0.7037  1.5192
  618MOL0     H83422   6.936   1.279   6.278  0.7351  0.1657  1.4777
  618MOL0     H83423   6.820   1.161   6.208 -0.2523 -0.4569  0.2736
  618MOL0     H83424   7.111   1.153   6.176  0.7427  0.1657 -0.1998
  618MOL0     H83425   6.989   1.045   6.101 -0.7897 -0.2819  0.0243
  618MOL0     H83426   6.949   1.390   5.851 -3.1217  2.3169  0.9389
  618MOL0     H83427   7.147   1.220   6.673 -0.4375  1.7328  0.0241
  618MOL0     H83428   7.218   1.413   6.837 -1.0086 -2.1855  0.9455
  618MOL0     H83429   7.319   1.275   6.912  3.6217 -3.6404 -3.1363
  618MOL0     H83430   7.379   1.434   6.862 -1.2186  1.6209 -2.0353
  619MOL0     O83431   0.244  10.497   1.868  0.2830  0.2571 -0.0556
  619MOL0     C83432   0.237  10.619   1.884 -0.4313  0.9783 -0.4734
  619MOL0     O83433   0.187  10.702   1.802  0.4070 -0.1007  0.6117
  619MOL0     C83434   0.094  10.665   1.712  0.5328  0.0468 -0.6402
  619MOL0     C83435  -0.032  10.709   1.731  0.1220 -0.5754  0.4742
  619MOL0     C83436  -0.129  10.680   1.632 -0.6336 -1.2789 -0.3280
  619MOL0     C83437  -0.101  10.600   1.527 -0.3650 -0.0110  0.5306
  619MOL0     O83438  -0.189  10.590   1.420 -0.1140 -0.1021 -0.0450
  619MOL0     C83439  -0.206  10.450   1.382 -0.1807 -0.7721 -0.9717
  619MOL0     C83440  -0.325  10.441   1.286 -0.6535 -0.3183 -0.3596
  619MOL0     C83441  -0.374  10.287   1.276  1.1802 -0.4125  0.3392
  619MOL0     C83442  -0.515  10.281   1.197  0.2862  0.8203 -0.3262
  619MOL0     C83443  -0.590  10.153   1.213 -0.0892  0.4241  0.9645
  619MOL0     C83444  -0.532  10.031   1.140 -0.1817  0.0369  0.2854
  619MOL0     C83445  -0.618   9.910   1.170  0.6427 -0.4468 -0.8744
  619MOL0     C83446  -0.770   9.913   1.144  0.4343  0.9440 -0.3589
  619MOL0     N83447  -0.844   9.790   1.166  0.6887 -0.0390 -0.5289
  619MOL0     C83448  -0.829   9.667   1.107 -0.3795 -0.3467 -0.0299
  619MOL0     C83449  -0.915   9.590   1.169 -0.6083  0.3462  0.6076
  619MOL0     C83450  -0.948   9.450   1.126  0.2826  1.0293  0.3440
  619MOL0     C83451  -0.846   9.344   1.168 -0.5691  0.2098 -0.4986
  619MOL0     C83452  -0.898   9.214   1.096  0.1336  0.7400 -0.2474
  619MOL0     C83453  -0.813   9.087   1.127  0.2062 -0.1143  0.2238
  619MOL0     O83454  -0.762   9.081   1.262  0.4502  0.2697  0.4024
  619MOL0     C83455  -0.849   9.031   1.357 -0.0227  0.4585 -0.1654
  619MOL0     C83456  -0.792   9.002   1.478  0.3314 -0.2560 -0.9444
  619MOL0     C83457  -0.868   8.967   1.592  1.2002  0.4137  0.3420
  619MOL0     C83458  -1.012   8.946   1.581 -0.0158 -0.7555  0.5787
  619MOL0     C83459  -1.081   8.891   1.708  0.4612 -0.7735 -0.6116
  619MOL0     O83460  -1.014   8.904   1.824 -0.7028  0.2646 -0.7690
  619MOL0     C83461  -1.074   8.842   1.932 -0.4516 -0.1341  0.4983
  619MOL0     C83462  -1.149   8.910   2.035  0.0072 -0.3277  0.6003
  619MOL0     C83463  -1.203   8.840   2.145 -0.1797 -0.1146 -0.2769
  619MOL0     C83464  -1.169   8.705   2.163  0.3896  0.7107 -0.2327
  619MOL0     O83465  -1.204   8.642   2.282  1.1072 -0.1508 -0.1873
  619MOL0     C83466  -1.157   8.713   2.391  0.3030  0.1907  0.3275
  619MOL0     C83467  -1.119   8.622   2.507 -0.3365 -0.4902 -0.5189
  619MOL0     C83468  -1.006   8.527   2.479  0.0867  0.1555  0.0722
  619MOL0     C83469  -0.879   8.584   2.414 -0.1300 -0.3454  0.0700
  619MOL0     C83470  -0.765   8.482   2.422 -0.1287  0.2552 -0.1671
  619MOL0     C83471  -0.644   8.508   2.325  0.7866  0.6794  0.2459
  619MOL0     C83472  -0.545   8.407   2.343  0.1819  0.6961 -0.2247
  619MOL0     C83473  -0.452   8.426   2.469  0.7490  0.2429  0.2431
  619MOL0    Cl83474  -0.330   8.293   2.450  0.1402  0.1881 -0.3243
  619MOL0     C83475  -1.102   8.635   2.068  0.4191 -0.5187 -0.5803
  619MOL0     C83476  -1.049   8.703   1.957  0.1473  0.4535  0.5067
  619MOL0     O83477  -1.181   8.828   1.698  0.4228 -0.2378 -0.3769
  619MOL0     C83478  -1.066   8.973   1.455 -0.2306  0.4254 -0.7061
  619MOL0     C83479  -0.993   9.014   1.348 -0.1527 -0.5648  0.7395
  619MOL0     N83480  -0.975   9.658   1.270  0.7875 -0.2236 -0.1723
  619MOL0     N83481  -0.917   9.767   1.278  0.8136 -0.2644  0.9488
  619MOL0     C83482   0.035  10.562   1.517 -0.1481 -0.0881  0.8194
  619MOL0     C83483   0.127  10.583   1.606 -0.6036 -0.7772  0.0465
  619MOL0     C83484   0.306  10.676   1.996  0.0116 -0.7286 -0.5513
  619MOL0     C83485   0.311  10.816   1.992 -0.2090  0.5311 -0.9814
  619MOL0     C83486   0.377  10.890   2.096  2.1132 -0.7091  0.1736
  619MOL0     C83487   0.440  10.824   2.196 -0.5812 -0.4517  0.1727
  619MOL0     O83488   0.536  10.905   2.263 -0.1378  0.6264  0.7729
  619MOL0     C83489   0.551  10.910   2.406  0.6625 -0.4605 -0.0087
  619MOL0     C83490   0.462  11.021   2.460 -0.3874 -0.0181 -1.1026
  619MOL0     C83491   0.501  11.164   2.424 -0.2607  0.2310  0.2949
  619MOL0     C83492   0.376  11.241   2.456 -0.4938  0.7480  0.7591
  619MOL0     C83493   0.419  11.388   2.442  0.7610  0.2167 -0.6740
  619MOL0     C83494   0.449  11.507   2.445  0.8213 -0.3476 -1.4624
  619MOL0     C83495   0.452  10.682   2.194  0.3670 -0.0327  0.2352
  619MOL0     C83496   0.377  10.607   2.098 -0.5552 -0.1845  0.4974
  619MOL0     C83497   0.404  10.462   2.103 -0.6600 -0.3931  0.0230
  619MOL0     H83498  -0.072  10.767   1.814 -1.3615 -0.9177  0.0348
  619MOL0     H83499  -0.230  10.718   1.643 -0.6705 -0.9491 -1.6929
  619MOL0     H83500  -0.115  10.417   1.332 -0.6588 -1.3026 -1.5033
  619MOL0     H83501  -0.221  10.396   1.476 -2.7364  0.9301 -0.2812
  619MOL0     H83502  -0.309  10.467   1.181  1.0327  0.9867  0.1784
  619MOL0     H83503  -0.407  10.504   1.322 -0.6577 -1.1430  1.1660
  619MOL0     H83504  -0.383  10.246   1.377 -0.6795 -0.2550  0.2638
  619MOL0     H83505  -0.302  10.226   1.221 -0.7037 -3.5232  1.0970
  619MOL0     H83506  -0.576  10.363   1.237  0.2450  0.1631  1.0161
  619MOL0     H83507  -0.493  10.290   1.090 -0.4071 -3.5096 -1.0258
  619MOL0     H83508  -0.608  10.126   1.318 -1.6435  1.5496  1.0249
  619MOL0     H83509  -0.691  10.176   1.179 -0.1755 -0.2947  0.7162
  619MOL0     H83510  -0.527  10.050   1.032  0.5247  2.9805  0.7615
  619MOL0     H83511  -0.426  10.023   1.164  0.2523 -0.1232 -1.5256
  619MOL0     H83512  -0.606   9.874   1.272 -0.9561  3.0168  0.7014
  619MOL0     H83513  -0.583   9.831   1.103 -1.0400 -1.9384 -0.0762
  619MOL0     H83514  -0.817   9.993   1.203  0.4957 -0.5983  1.9206
  619MOL0     H83515  -0.784   9.933   1.037 -0.1548 -2.5535 -1.0531
  619MOL0     H83516  -0.765   9.643   1.022  3.0128  3.3930  1.1411
  619MOL0     H83517  -1.050   9.424   1.155  1.4662 -1.9106  2.3278
  619MOL0     H83518  -0.940   9.454   1.017 -0.6414  2.6963  0.2971
  619MOL0     H83519  -0.749   9.376   1.129 -0.8450  3.7863  1.3167
  619MOL0     H83520  -0.836   9.332   1.276 -0.7737  0.1605 -0.4832
  619MOL0     H83521  -0.897   9.241   0.990  4.5779  0.0245 -0.6058
  619MOL0     H83522  -1.003   9.207   1.124 -0.1909  1.7213 -1.1149
  619MOL0     H83523  -0.725   9.082   1.061  0.8047  0.3313  0.9728
  619MOL0     H83524  -0.879   9.004   1.100 -1.4526  1.9158 -2.4187
  619MOL0     H83525  -0.684   9.012   1.474  0.3009  0.0735 -0.9758
  619MOL0     H83526  -0.821   8.918   1.677 -0.0365 -4.4811 -1.4360
  619MOL0     H83527  -1.169   9.016   2.033 -1.4293 -0.5947 -1.6866
  619MOL0     H83528  -1.251   8.891   2.228  0.2970  0.3306 -0.2693
  619MOL0     H83529  -1.072   8.772   2.358 -1.6245  1.0333 -3.7631
  619MOL0     H83530  -1.243   8.776   2.416 -0.8204 -0.1147 -2.3677
  619MOL0     H83531  -1.079   8.686   2.586  1.6710 -0.9157 -1.1296
  619MOL0     H83532  -1.206   8.568   2.547  0.1592 -0.4477  0.6372
  619MOL0     H83533  -0.977   8.492   2.578 -2.8667 -0.7736  0.7250
  619MOL0     H83534  -1.056   8.444   2.426 -0.3659 -3.2438  5.1179
  619MOL0     H83535  -0.845   8.679   2.458 -0.0786  0.0627 -0.8349
  619MOL0     H83536  -0.899   8.608   2.309  0.6592 -1.8928 -0.4605
  619MOL0     H83537  -0.802   8.384   2.390 -1.6419  1.5223 -2.6581
  619MOL0     H83538  -0.724   8.480   2.523  0.7553 -1.3234 -0.5351
  619MOL0     H83539  -0.678   8.519   2.221 -0.8366  2.4951  0.9197
  619MOL0     H83540  -0.590   8.600   2.348  0.6269  1.2852 -1.6329
  619MOL0     H83541  -0.494   8.408   2.246  0.1149 -0.5248 -0.2889
  619MOL0     H83542  -0.590   8.307   2.347  1.8386 -0.1073 -0.4425
  619MOL0     H83543  -0.417   8.529   2.475  1.6952  0.0466 -1.3514
  619MOL0     H83544  -0.519   8.404   2.553 -1.3850  0.5791 -1.2687
  619MOL0     H83545  -1.077   8.530   2.081  0.7036 -0.5639 -1.4148
  619MOL0     H83546  -0.988   8.643   1.891 -2.7723 -2.6038  0.3253
  619MOL0     H83547  -1.172   8.959   1.437  0.0414  0.3945 -2.4420
  619MOL0     H83548  -1.038   9.031   1.251  0.3150 -0.7921  0.4759
  619MOL0     H83549   0.062  10.514   1.424 -0.0537 -1.2536  1.4400
  619MOL0     H83550   0.232  10.557   1.602 -0.8154 -2.0580  1.8228
  619MOL0     H83551   0.259  10.874   1.916 -0.4730  0.5199 -0.8118
  619MOL0     H83552   0.380  10.999   2.089  0.4543 -0.5120  1.7256
  619MOL0     H83553   0.657  10.932   2.427  0.3281 -1.0726  2.6354
  619MOL0     H83554   0.517  10.814   2.444 -1.2305 -1.0050 -2.8510
  619MOL0     H83555   0.457  11.018   2.569  1.2448  2.5205 -0.8553
  619MOL0     H83556   0.361  10.997   2.427 -0.9715 -2.2210  1.9005
  619MOL0     H83557   0.521  11.168   2.316  3.1252 -1.3045  0.7563
  619MOL0     H83558   0.593  11.195   2.475  1.7470 -0.9273 -2.3464
  619MOL0     H83559   0.297  11.210   2.387  0.5912 -4.5884  1.5033
  619MOL0     H83560   0.333  11.231   2.556  0.3534  0.5750  1.1201
  619MOL0     H83561   0.478  11.610   2.440  0.2633 -0.2390 -2.7835
  619MOL0     H83562   0.514  10.645   2.274 -0.3322 -0.3658  0.6310
  619MOL0     H83563   0.321  10.392   2.113 -0.3673 -0.5264  1.9552
  619MOL0     H83564   0.449  10.451   2.004 -1.4638  1.3454 -0.5820
  619MOL0     H83565   0.474  10.436   2.183 -1.0927 -1.5542  0.0424
  620MOL0     O83566   0.915   6.978   4.399 -0.6366 -0.0819  0.2019
  620MOL0     C83567   0.865   6.937   4.499  0.9226 -0.1451  0.8503
  620MOL0     O83568   0.895   6.963   4.628 -0.3324 -0.5173 -0.4480
  620MOL0     C83569   0.983   7.057   4.671 -0.0788  0.0318  0.0813
  620MOL0     C83570   1.074   7.135   4.587  0.2820 -0.7238 -0.5910
  620MOL0     C83571   1.165   7.231   4.643  0.5127 -0.1137  1.9436
  620MOL0     C83572   1.170   7.255   4.775 -1.7574 -0.6247 -0.1639
  620MOL0     O83573   1.273   7.329   4.831 -0.4232 -0.0101  1.0741
  620MOL0     C83574   1.406   7.331   4.773 -0.6437 -0.1836 -0.2181
  620MOL0     C83575   1.485   7.200   4.775  0.2368 -0.4023  0.5695
  620MOL0     C83576   1.626   7.230   4.742 -0.2554  0.1871  0.1737
  620MOL0     C83577   1.698   7.097   4.744  0.1261 -0.7676  0.9907
  620MOL0     C83578   1.729   7.028   4.607  0.2442 -1.2872 -0.3076
  620MOL0     C83579   1.819   7.121   4.526 -0.5701  1.1602  0.4966
  620MOL0     C83580   1.854   7.053   4.388 -0.0918  0.6899  0.3834
  620MOL0     C83581   1.749   7.084   4.282 -0.1875  0.4291 -0.9191
  620MOL0     N83582   1.794   7.153   4.158  0.2550 -0.2757 -0.1122
  620MOL0     C83583   1.706   7.220   4.079  0.2008  0.3929  0.8026
  620MOL0     C83584   1.769   7.234   3.964 -0.7854 -0.0376 -0.0908
  620MOL0     C83585   1.726   7.292   3.827  0.3117 -0.1902  0.1294
  620MOL0     C83586   1.795   7.429   3.797  1.1343 -0.6992 -0.1514
  620MOL0     C83587   1.866   7.445   3.667  0.3257 -0.4842 -0.0257
  620MOL0     C83588   1.763   7.431   3.551 -0.0368  0.0535  0.3906
  620MOL0     O83589   1.781   7.296   3.510 -0.3175 -0.2937 -0.1789
  620MOL0     C83590   1.692   7.237   3.428  0.2731  0.6326 -0.5762
  620MOL0     C83591   1.559   7.218   3.449 -0.6215 -0.3704 -1.1590
  620MOL0     C83592   1.482   7.140   3.363  0.0620  0.1800 -0.7357
  620MOL0     C83593   1.523   7.080   3.239 -0.2328 -0.4642 -0.2875
  620MOL0     C83594   1.433   7.006   3.142 -0.2959 -0.0777  0.3764
  620MOL0     O83595   1.300   7.027   3.152 -1.2176  0.8833 -0.4348
  620MOL0     C83596   1.217   6.980   3.046 -0.0342 -0.6438  0.1326
  620MOL0     C83597   1.103   6.899   3.078  0.3585 -0.1918 -0.5635
  620MOL0     C83598   1.020   6.865   2.977  0.0424 -0.6970 -0.1166
  620MOL0     C83599   1.029   6.916   2.847 -0.5067 -1.0470 -0.3460
  620MOL0     O83600   0.942   6.867   2.754  0.4141 -0.1231  0.2620
  620MOL0     C83601   0.953   6.898   2.615 -0.7167 -0.2865 -0.0422
  620MOL0     C83602   0.889   7.033   2.584  0.2952  0.0047 -0.0366
  620MOL0     C83603   0.969   7.098   2.467  0.7399  0.2556 -0.4739
  620MOL0     C83604   0.941   7.248   2.462 -0.1216 -0.0944  0.8385
  620MOL0     C83605   1.048   7.307   2.366  0.0800 -0.3506  0.4922
  620MOL0     C83606   0.991   7.438   2.329 -1.2981 -0.5145  0.1619
  620MOL0     C83607   1.091   7.500   2.234  0.9017  0.4968  0.4832
  620MOL0     C83608   1.039   7.636   2.182 -0.3305 -0.3410 -0.3825
  620MOL0    Cl83609   0.870   7.600   2.107 -0.2176 -0.4465  0.4051
  620MOL0     C83610   1.137   7.010   2.818  0.6630  0.5781 -0.2500
  620MOL0     C83611   1.232   7.033   2.925 -1.0760 -0.1518  0.0993
  620MOL0     O83612   1.495   6.943   3.055 -0.2203 -0.0189  0.0572
  620MOL0     C83613   1.650   7.108   3.215 -0.8546 -1.2432  0.5491
  620MOL0     C83614   1.736   7.183   3.303  0.9474  0.0117  0.6385
  620MOL0     N83615   1.897   7.191   3.982 -0.1603 -0.5647 -0.3015
  620MOL0     N83616   1.909   7.134   4.094 -0.5070  0.3478 -0.1573
  620MOL0     C83617   1.087   7.181   4.858 -0.4173 -0.3852 -0.0513
  620MOL0     C83618   0.994   7.083   4.814 -0.1958 -0.6176 -0.4543
  620MOL0     C83619   0.738   6.863   4.466  0.4548  0.5607  0.3498
  620MOL0     C83620   0.703   6.829   4.335  0.2003 -0.2967 -0.0683
  620MOL0     C83621   0.593   6.750   4.297  0.1714 -0.5287 -1.5938
  620MOL0     C83622   0.501   6.707   4.399 -0.4985  0.5383  0.7002
  620MOL0     O83623   0.397   6.614   4.388  0.5132  0.6795 -0.1518
  620MOL0     C83624   0.365   6.555   4.263 -0.4959 -0.5612 -0.1500
  620MOL0     C83625   0.252   6.464   4.301 -0.6956 -0.2198  0.2506
  620MOL0     C83626   0.249   6.337   4.216  1.1676 -0.3070 -0.3463
  620MOL0     C83627   0.109   6.262   4.213 -0.1414 -0.2263 -0.1879
  620MOL0     C83628   0.131   6.141   4.139 -0.7703  0.0564  0.2588
  620MOL0     C83629   0.163   6.041   4.081 -0.6502 -0.0653  0.0271
  620MOL0     C83630   0.530   6.747   4.529  0.5261  0.6797 -0.5277
  620MOL0     C83631   0.644   6.815   4.563 -0.5356  0.3956 -0.2507
  620MOL0     C83632   0.656   6.840   4.707  0.3421 -0.7727 -1.1895
  620MOL0     H83633   1.073   7.119   4.479  1.8861  3.2493 -1.3446
  620MOL0     H83634   1.232   7.290   4.582 -1.5611 -0.0664 -0.4573
  620MOL0     H83635   1.397   7.365   4.670  3.8282 -0.2238 -0.8122
  620MOL0     H83636   1.464   7.406   4.829 -0.6594 -0.2431 -0.1225
  620MOL0     H83637   1.446   7.128   4.702 -0.1408 -0.4901  0.8555
  620MOL0     H83638   1.485   7.163   4.878  4.1355  0.7475  1.1725
  620MOL0     H83639   1.667   7.303   4.812 -0.3501  0.0273  0.3994
  620MOL0     H83640   1.639   7.282   4.647 -2.0330 -0.7700 -0.6443
  620MOL0     H83641   1.796   7.133   4.778 -0.8767  2.7411  0.5110
  620MOL0     H83642   1.652   7.029   4.817 -1.8391 -0.2593  0.2803
  620MOL0     H83643   1.782   6.941   4.647 -0.2988 -1.7305 -0.5416
  620MOL0     H83644   1.637   6.996   4.556 -2.1465  2.5144  1.2085
  620MOL0     H83645   1.793   7.227   4.513  2.0454  2.2118  2.8172
  620MOL0     H83646   1.908   7.128   4.590 -1.1686 -0.2687  1.5348
  620MOL0     H83647   1.864   6.945   4.404  0.4289  0.8504  1.2095
  620MOL0     H83648   1.947   7.098   4.350  1.8162 -1.5625  2.0990
  620MOL0     H83649   1.696   6.993   4.252  1.2927  0.2686 -3.2510
  620MOL0     H83650   1.669   7.144   4.327  1.0747  1.6076 -0.1726
  620MOL0     H83651   1.602   7.245   4.096 -0.1201 -1.2917  1.5581
  620MOL0     H83652   1.766   7.221   3.754  4.0170  2.9571 -1.2590
  620MOL0     H83653   1.619   7.310   3.831  0.3542 -0.0696  2.8000
  620MOL0     H83654   1.716   7.503   3.808 -1.6374 -3.1173 -2.2103
  620MOL0     H83655   1.854   7.446   3.888 -3.2541 -1.9018  3.2372
  620MOL0     H83656   1.952   7.378   3.657  2.3330  2.1701 -2.5073
  620MOL0     H83657   1.906   7.547   3.676 -1.3600  0.0652  1.9471
  620MOL0     H83658   1.782   7.508   3.477  2.7795 -1.3601 -0.4844
  620MOL0     H83659   1.662   7.453   3.589  0.4960 -0.0230  1.9226
  620MOL0     H83660   1.510   7.249   3.541 -3.3244  2.4750 -3.3245
  620MOL0     H83661   1.380   7.115   3.391  0.6792 -1.5072  0.2082
  620MOL0     H83662   1.074   6.867   3.178 -2.3105  1.9724 -0.5105
  620MOL0     H83663   0.943   6.790   2.998 -0.0061 -0.9079 -1.0073
  620MOL0     H83664   1.057   6.891   2.582  0.0929  0.0037  2.2882
  620MOL0     H83665   0.900   6.823   2.555 -0.2594 -0.0983 -0.6928
  620MOL0     H83666   0.785   7.025   2.553  0.2160  0.4645  0.1005
  620MOL0     H83667   0.902   7.089   2.678  1.8835  1.3623 -0.9993
  620MOL0     H83668   1.077   7.089   2.486  0.4359  0.8682  1.8774
  620MOL0     H83669   0.936   7.051   2.374 -0.5969 -0.8852  0.5416
  620MOL0     H83670   0.928   7.293   2.560 -1.9318  0.0062  0.5808
  620MOL0     H83671   0.843   7.261   2.415  0.4171  1.9977  0.1757
  620MOL0     H83672   1.046   7.246   2.275  1.4664 -0.7113  0.6755
  620MOL0     H83673   1.147   7.313   2.413  0.3702 -0.0435 -0.1405
  620MOL0     H83674   0.893   7.421   2.284 -0.2377 -0.5271 -2.3097
  620MOL0     H83675   0.982   7.503   2.417 -0.2418 -2.5278  1.8399
  620MOL0     H83676   1.115   7.428   2.156 -0.5352  1.7806 -1.2036
  620MOL0     H83677   1.183   7.520   2.291  1.0767 -1.0583  0.7919
  620MOL0     H83678   1.016   7.701   2.266 -0.9302 -0.0924 -0.7304
  620MOL0     H83679   1.091   7.699   2.109 -0.9116  2.4513  1.4683
  620MOL0     H83680   1.157   7.053   2.721 -0.7670 -0.8492 -1.2100
  620MOL0     H83681   1.318   7.086   2.886 -0.6355 -0.2617  0.8955
  620MOL0     H83682   1.692   7.098   3.115  1.3426  2.2671  0.9290
  620MOL0     H83683   1.841   7.198   3.280  0.8778 -0.1088  0.2391
  620MOL0     H83684   1.105   7.180   4.965 -1.7117  0.2902  0.1942
  620MOL0     H83685   0.938   7.022   4.884 -0.2496  0.8131  0.8110
  620MOL0     H83686   0.768   6.857   4.252  1.9632 -2.1278  0.6071
  620MOL0     H83687   0.577   6.720   4.194 -2.2632 -0.9037 -1.1775
  620MOL0     H83688   0.444   6.500   4.210 -1.9335 -0.4187 -2.6050
  620MOL0     H83689   0.328   6.636   4.200  1.9712  2.1098  1.6139
  620MOL0     H83690   0.154   6.514   4.306  0.0992  1.2807  2.0244
  620MOL0     H83691   0.282   6.428   4.399  1.5048  3.3114  1.0341
  620MOL0     H83692   0.328   6.275   4.259  0.7763 -1.6700 -1.5225
  620MOL0     H83693   0.287   6.352   4.115  0.7810 -2.1428 -0.8004
  620MOL0     H83694   0.056   6.229   4.303  2.0277 -0.7009  0.9630
  620MOL0     H83695   0.037   6.326   4.161  0.4196 -0.5537 -1.3805
  620MOL0     H83696   0.198   5.966   4.012  1.2167  0.3773  0.4180
  620MOL0     H83697   0.470   6.699   4.605 -0.4074 -2.8282 -3.2098
  620MOL0     H83698   0.632   6.946   4.714  0.8853 -0.5933 -1.8647
  620MOL0     H83699   0.587   6.784   4.770  0.2525  1.5723  0.9373
  620MOL0     H83700   0.757   6.816   4.743  1.8659  2.5773 -2.7647
  621MOL0     O83701   3.968   5.948   4.054 -0.6787  0.7126 -0.4738
  621MOL0     C83702   3.925   5.953   4.168 -0.9752 -0.3953 -0.6224
  621MOL0     O83703   3.811   5.890   4.202 -0.5472 -0.2161 -0.2481
  621MOL0     C83704   3.754   5.803   4.110  0.8794 -0.5702  0.2154
  621MOL0     C83705   3.815   5.681   4.084 -1.4357 -0.6562  0.8299
  621MOL0     C83706   3.748   5.588   4.004  0.8517 -0.1491 -0.6404
  621MOL0     C83707   3.615   5.613   3.951  0.0331  1.2208  0.8882
  621MOL0     O83708   3.528   5.526   3.880 -0.2715 -0.3358 -0.5822
  621MOL0     C83709   3.587   5.408   3.827  0.1179 -0.4345  0.2536
  621MOL0     C83710   3.478   5.347   3.730 -0.0133  0.2135  0.4647
  621MOL0     C83711   3.356   5.305   3.814 -0.2140  0.3657 -0.0205
  621MOL0     C83712   3.264   5.192   3.744 -0.4926 -0.4238  0.2740
  621MOL0     C83713   3.327   5.047   3.741  0.3632  0.3238 -0.3935
  621MOL0     C83714   3.220   4.940   3.730 -0.4738  0.6859 -0.6427
  621MOL0     C83715   3.136   4.942   3.602 -0.2174 -0.6342  0.1511
  621MOL0     C83716   3.207   4.880   3.486  0.4487  0.0655  0.2691
  621MOL0     N83717   3.110   4.856   3.371  0.0121 -0.2626 -0.7892
  621MOL0     C83718   2.996   4.792   3.385  0.9179 -0.8539  0.2045
  621MOL0     C83719   2.950   4.768   3.264  0.4312 -0.8112  0.8575
  621MOL0     C83720   2.818   4.704   3.257  0.7737 -0.5840  0.8447
  621MOL0     C83721   2.741   4.746   3.131 -0.0392  0.9496 -0.2459
  621MOL0     C83722   2.706   4.892   3.127 -0.1877  0.6100  0.1251
  621MOL0     C83723   2.598   4.949   3.223  0.2299  0.0675 -0.3578
  621MOL0     O83724   2.630   4.925   3.354  1.0848 -0.1817 -1.0060
  621MOL0     C83725   2.703   5.013   3.429  0.9191  0.4349  0.0760
  621MOL0     C83726   2.702   5.000   3.567 -1.0069  0.0899 -0.7297
  621MOL0     C83727   2.756   5.097   3.656  0.0912  0.5400 -0.4856
  621MOL0     C83728   2.827   5.208   3.607  0.7520 -0.5019 -0.0469
  621MOL0     C83729   2.895   5.303   3.699 -0.1458  0.5609 -0.3048
  621MOL0     O83730   2.942   5.411   3.635 -0.1556 -0.9101 -0.2671
  621MOL0     C83731   3.028   5.505   3.693 -0.0794  1.0646  0.6860
  621MOL0     C83732   3.065   5.606   3.605  0.0930  0.2403  0.5618
  621MOL0     C83733   3.134   5.720   3.636 -0.2054  0.1652  0.1138
  621MOL0     C83734   3.162   5.744   3.774 -0.2346  0.0685  0.3573
  621MOL0     O83735   3.247   5.855   3.823 -0.7173  0.4925  0.0404
  621MOL0     C83736   3.302   5.942   3.730 -0.4252 -0.4094  0.1586
  621MOL0     C83737   3.326   6.081   3.797  0.6382  0.1945  0.6673
  621MOL0     C83738   3.450   6.069   3.901 -0.3809  0.1202 -0.3110
  621MOL0     C83739   3.489   6.209   3.952 -0.7067 -0.7478 -0.1085
  621MOL0     C83740   3.587   6.205   4.070 -0.1676 -0.0651  0.2296
  621MOL0     C83741   3.663   6.341   4.084  0.5840  0.3533 -0.3308
  621MOL0     C83742   3.569   6.459   4.089 -0.4773  0.5226  0.0726
  621MOL0     C83743   3.626   6.587   4.144  0.1827 -0.5377 -0.6456
  621MOL0    Cl83744   3.489   6.698   4.187 -0.2892  0.1449 -0.1267
  621MOL0     C83745   3.135   5.639   3.864 -0.1345 -0.1339  0.8626
  621MOL0     C83746   3.061   5.522   3.824 -0.0755  0.1370  0.0577
  621MOL0     O83747   2.910   5.265   3.815  0.1593  0.0895  0.1624
  621MOL0     C83748   2.842   5.219   3.467 -0.0595  0.3935  0.2814
  621MOL0     C83749   2.776   5.124   3.381 -0.2276  0.2116 -0.3484
  621MOL0     N83750   3.051   4.810   3.177  1.1486  0.5463  0.6614
  621MOL0     N83751   3.146   4.855   3.246  1.0888  0.5158  0.5004
  621MOL0     C83752   3.564   5.735   3.992  0.8431 -0.2002  0.0673
  621MOL0     C83753   3.627   5.836   4.061 -0.0627 -0.1895 -0.1825
  621MOL0     C83754   4.006   6.038   4.267 -0.0540  0.5759 -1.2225
  621MOL0     C83755   3.961   6.026   4.402 -0.2392 -0.2051  0.4841
  621MOL0     C83756   4.012   6.101   4.508 -0.6106  0.0023 -1.0159
  621MOL0     C83757   4.098   6.205   4.480 -0.1207 -0.8609 -0.6374
  621MOL0     O83758   4.147   6.294   4.567  0.6436  0.0809  0.6431
  621MOL0     C83759   4.195   6.247   4.693 -0.0414 -0.4525  0.1341
  621MOL0     C83760   4.102   6.289   4.812 -0.5514  0.2254 -0.2828
  621MOL0     C83761   4.195   6.328   4.931 -0.3958  0.4913 -0.2977
  621MOL0     C83762   4.254   6.204   4.995  0.5452  0.4520  0.6705
  621MOL0     C83763   4.344   6.236   5.101  0.5254  0.5732 -0.4774
  621MOL0     C83764   4.436   6.274   5.172 -0.6383  0.1889 -0.2460
  621MOL0     C83765   4.141   6.224   4.348  0.0267  0.0765  0.7861
  621MOL0     C83766   4.100   6.138   4.239 -0.6492  0.2967  0.5628
  621MOL0     C83767   4.148   6.164   4.102 -0.0448  0.1813  0.4398
  621MOL0     H83768   3.909   5.656   4.133  1.3253 -0.8395 -3.9089
  621MOL0     H83769   3.811   5.506   3.970  2.9980  1.1583 -0.0082
  621MOL0     H83770   3.679   5.425   3.771  0.1769 -1.4377  0.0339
  621MOL0     H83771   3.604   5.334   3.906 -3.3781 -1.1338  0.5032
  621MOL0     H83772   3.512   5.256   3.680 -1.9828 -0.7383  0.7743
  621MOL0     H83773   3.446   5.417   3.653 -0.8455 -0.8941 -0.2279
  621MOL0     H83774   3.301   5.394   3.845 -0.4471  0.5054 -0.8302
  621MOL0     H83775   3.390   5.257   3.907  0.0569  2.6439  1.1094
  621MOL0     H83776   3.168   5.195   3.795 -2.6952  2.5161 -3.5020
  621MOL0     H83777   3.237   5.227   3.644  1.8994  2.1228  0.3934
  621MOL0     H83778   3.399   5.040   3.658 -1.5733  1.2422 -2.2394
  621MOL0     H83779   3.370   5.031   3.840 -3.9177  1.2955  1.8230
  621MOL0     H83780   3.249   4.837   3.753 -0.4827  0.7990 -0.1083
  621MOL0     H83781   3.148   4.970   3.807  1.6611  0.4651  1.5837
  621MOL0     H83782   3.088   5.037   3.575 -0.9926 -1.9216 -3.6200
  621MOL0     H83783   3.059   4.870   3.630  1.4679 -1.6069  2.6755
  621MOL0     H83784   3.291   4.934   3.443  0.4945 -1.9629 -2.4238
  621MOL0     H83785   3.233   4.782   3.527 -0.8457  0.3284  1.8600
  621MOL0     H83786   2.944   4.771   3.478  1.6567 -0.2641  0.7604
  621MOL0     H83787   2.830   4.595   3.255 -5.5755 -1.6465  0.1830
  621MOL0     H83788   2.750   4.711   3.342  0.3898 -2.1981  0.7042
  621MOL0     H83789   2.798   4.711   3.044  1.5856 -2.6134  1.9945
  621MOL0     H83790   2.647   4.689   3.123 -0.7232  2.2575 -2.0762
  621MOL0     H83791   2.670   4.912   3.026  0.4724 -1.4373 -0.5771
  621MOL0     H83792   2.794   4.957   3.136 -1.4041  2.1191  1.8243
  621MOL0     H83793   2.506   4.893   3.201 -1.7597  3.1621 -0.5853
  621MOL0     H83794   2.580   5.056   3.205 -4.1345 -0.2302  0.9447
  621MOL0     H83795   2.641   4.915   3.597  0.8157 -1.3127 -0.7772
  621MOL0     H83796   2.743   5.084   3.763  2.1368  2.9318  0.1639
  621MOL0     H83797   3.035   5.599   3.501 -0.0028  2.3462  0.4203
  621MOL0     H83798   3.141   5.799   3.561 -2.5366  0.3224 -0.0181
  621MOL0     H83799   3.399   5.910   3.690 -1.0968  0.0514 -1.9618
  621MOL0     H83800   3.243   5.958   3.639  1.5945  0.8422 -1.0040
  621MOL0     H83801   3.342   6.145   3.710  2.5515 -0.0481  0.7950
  621MOL0     H83802   3.231   6.110   3.843 -1.1264  0.3815 -2.7424
  621MOL0     H83803   3.410   6.009   3.983 -0.9316  0.3718 -0.3853
  621MOL0     H83804   3.533   6.018   3.852  0.6803  0.7400  0.7804
  621MOL0     H83805   3.397   6.250   3.994  0.0477  2.2559 -1.1678
  621MOL0     H83806   3.535   6.266   3.871 -0.1197  1.4641  1.6851
  621MOL0     H83807   3.668   6.133   4.057  0.7231  0.5773  1.9171
  621MOL0     H83808   3.541   6.169   4.162 -0.2049 -0.0097  0.2331
  621MOL0     H83809   3.728   6.338   4.171  1.9029 -0.0827 -1.3022
  621MOL0     H83810   3.720   6.346   3.991 -2.9673  1.7806 -2.6494
  621MOL0     H83811   3.485   6.424   4.150  0.0939 -0.4272  0.3328
  621MOL0     H83812   3.536   6.478   3.986 -1.7150 -0.5042  0.2449
  621MOL0     H83813   3.679   6.575   4.239  2.1153 -0.0003 -1.6162
  621MOL0     H83814   3.693   6.630   4.068  2.8900  1.5437  2.6452
  621MOL0     H83815   3.157   5.662   3.968 -2.5536  0.9697  1.2027
  621MOL0     H83816   3.020   5.447   3.892  3.1992  0.0343  2.1541
  621MOL0     H83817   2.903   5.297   3.423 -0.5299  0.7929  0.3283
  621MOL0     H83818   2.789   5.136   3.274  1.0335 -2.2352 -0.5142
  621MOL0     H83819   3.460   5.751   3.967  0.9522  1.0303  0.2904
  621MOL0     H83820   3.580   5.922   4.107  2.6403 -0.2385  3.0336
  621MOL0     H83821   3.881   5.961   4.436 -1.5422  2.3949  2.7453
  621MOL0     H83822   3.978   6.086   4.610  3.1093  0.6561  0.4735
  621MOL0     H83823   4.289   6.301   4.707 -0.6953  0.4381  1.2783
  621MOL0     H83824   4.209   6.139   4.696 -2.5983 -0.8607 -0.0559
  621MOL0     H83825   4.050   6.195   4.832 -1.5445  0.0214 -3.2655
  621MOL0     H83826   4.033   6.365   4.774 -3.2796 -2.4237 -1.0302
  621MOL0     H83827   4.142   6.379   5.012  1.9270 -0.5612  2.0319
  621MOL0     H83828   4.271   6.395   4.889  0.3624 -0.4910 -0.5258
  621MOL0     H83829   4.182   6.126   5.018  1.8072 -1.0548 -0.2834
  621MOL0     H83830   4.310   6.161   4.912 -2.0049 -0.7317 -0.5415
  621MOL0     H83831   4.524   6.294   5.229 -2.1291  1.2046  1.8266
  621MOL0     H83832   4.197   6.314   4.326 -0.0112  0.1640  1.0502
  621MOL0     H83833   4.172   6.073   4.046 -0.7472  1.1290 -1.4893
  621MOL0     H83834   4.066   6.212   4.049 -0.7010 -1.7751 -0.4332
  621MOL0     H83835   4.237   6.227   4.108 -1.8926  3.0179  0.1284
  622MOL0     O83836   8.344   0.246   8.893 -1.0155  0.5582 -0.4880
  622MOL0     C83837   8.392   0.262   8.775  1.1602 -0.4702 -0.5810
  622MOL0     O83838   8.491   0.197   8.722  0.5729  0.0673 -0.2314
  622MOL0     C83839   8.542   0.082   8.779  0.1031 -0.2739  0.0480
  622MOL0     C83840   8.477  -0.022   8.851  0.2619 -0.3204 -0.2054
  622MOL0     C83841   8.554  -0.131   8.902  0.4631 -0.7013 -0.4942
  622MOL0     C83842   8.689  -0.147   8.881 -0.1641  0.7384  0.6791
  622MOL0     O83843   8.779  -0.228   8.946  0.2439  0.5948 -0.4037
  622MOL0     C83844   8.739  -0.342   9.037 -0.8549 -0.1037  0.1377
  622MOL0     C83845   8.864  -0.427   9.042 -0.0310 -1.0602 -0.2220
  622MOL0     C83846   8.896  -0.482   9.193  0.7905 -0.3098  0.5516
  622MOL0     C83847   8.960  -0.374   9.278 -0.3800  0.9988 -0.8209
  622MOL0     C83848   8.953  -0.396   9.439 -1.0068 -0.3834  0.0590
  622MOL0     C83849   9.025  -0.527   9.480  0.4789 -0.6442 -0.2360
  622MOL0     C83850   9.036  -0.562   9.630  0.3411  0.3617 -0.6238
  622MOL0     C83851   9.123  -0.457   9.705  0.2535 -0.4794 -0.2391
  622MOL0     N83852   9.044  -0.345   9.757  0.0186  0.1488  0.2003
  622MOL0     C83853   8.924  -0.371   9.835 -0.1270 -0.2648  0.9130
  622MOL0     C83854   8.873  -0.247   9.849  0.4961  0.0507 -0.7712
  622MOL0     C83855   8.744  -0.215   9.920 -0.2585  0.6523  0.4216
  622MOL0     C83856   8.662  -0.112   9.842  0.2856 -0.4285  0.3428
  622MOL0     C83857   8.604  -0.170   9.712  0.1358 -0.1397  0.2048
  622MOL0     C83858   8.553  -0.060   9.624  0.4799  0.7636  0.3249
  622MOL0     O83859   8.436   0.005   9.676 -0.4473 -0.5812  0.2315
  622MOL0     C83860   8.310  -0.043   9.666  0.5635  0.7799  1.3164
  622MOL0     C83861   8.204   0.029   9.715 -0.7692  0.3396  0.3043
  622MOL0     C83862   8.063  -0.007   9.699  0.2879 -0.7590  0.5881
  622MOL0     C83863   8.033  -0.125   9.629 -0.0101  0.5418 -0.1680
  622MOL0     C83864   7.889  -0.164   9.606 -0.0497 -0.5312  0.2812
  622MOL0     O83865   7.872  -0.252   9.501 -1.0852  0.8837 -0.2753
  622MOL0     C83866   7.743  -0.256   9.442 -0.3798 -0.3971  0.8665
  622MOL0     C83867   7.640  -0.156   9.448  0.0035  0.7618  0.0620
  622MOL0     C83868   7.528  -0.166   9.369  0.8855  0.4426 -1.2206
  622MOL0     C83869   7.506  -0.278   9.286  0.4806 -0.6505 -0.6197
  622MOL0     O83870   7.400  -0.289   9.207  0.3870  0.0702 -0.7947
  622MOL0     C83871   7.276  -0.316   9.272  0.3877 -0.1990 -0.8066
  622MOL0     C83872   7.255  -0.446   9.353 -0.1538 -0.7841 -0.0063
  622MOL0     C83873   7.108  -0.480   9.356  0.1754 -0.7989  0.1372
  622MOL0     C83874   7.076  -0.614   9.405  0.2119 -1.5988  0.2058
  622MOL0     C83875   6.926  -0.646   9.442 -0.9778 -0.3706  0.5028
  622MOL0     C83876   6.920  -0.781   9.517 -0.4792  0.0812  1.0856
  622MOL0     C83877   6.925  -0.911   9.429 -0.2722 -0.2750 -0.4306
  622MOL0     C83878   6.817  -0.937   9.338  0.2518 -0.6301  0.0689
  622MOL0    Cl83879   6.881  -1.049   9.207 -0.5113 -0.2039  0.5683
  622MOL0     C83880   7.602  -0.383   9.289 -0.8732 -0.2030 -0.4897
  622MOL0     C83881   7.715  -0.371   9.371 -0.6630 -0.3076  0.3262
  622MOL0     O83882   7.801  -0.129   9.689 -0.3271  0.4933  0.7859
  622MOL0     C83883   8.140  -0.200   9.579  0.0402 -0.3842  0.3943
  622MOL0     C83884   8.273  -0.162   9.593  0.0159  0.0011  0.2130
  622MOL0     N83885   8.957  -0.149   9.779 -0.3415 -0.0957  0.1226
  622MOL0     N83886   9.058  -0.210   9.726  0.2014  0.1340  0.0904
  622MOL0     C83887   8.748  -0.055   8.797 -0.3366 -0.2721 -0.4812
  622MOL0     C83888   8.672   0.055   8.746 -0.2125  0.5344  0.8717
  622MOL0     C83889   8.326   0.353   8.681  0.3649 -0.9382 -0.4109
  622MOL0     C83890   8.186   0.381   8.710  0.2659  0.1457  0.0399
  622MOL0     C83891   8.106   0.450   8.624 -0.3965 -0.3135  0.1905
  622MOL0     C83892   8.166   0.499   8.507 -0.2069 -0.0834 -1.0694
  622MOL0     O83893   8.105   0.581   8.429  0.4457 -0.5050 -0.7803
  622MOL0     C83894   7.987   0.535   8.362 -0.7221  0.8926  0.1245
  622MOL0     C83895   7.890   0.650   8.347 -0.4375  0.3697  0.6594
  622MOL0     C83896   7.790   0.630   8.225 -0.7271  0.4141 -0.4820
  622MOL0     C83897   7.661   0.718   8.234 -0.6255 -0.1563 -0.1545
  622MOL0     C83898   7.563   0.668   8.332 -0.7072  0.1505  0.4812
  622MOL0     C83899   7.476   0.656   8.415 -0.1796  1.0457  0.2831
  622MOL0     C83900   8.293   0.475   8.479 -0.5255 -0.2016  0.0933
  622MOL0     C83901   8.382   0.402   8.562  0.5393 -0.1425  1.0711
  622MOL0     C83902   8.522   0.395   8.514 -0.5517 -0.0911 -0.1679
  622MOL0     H83903   8.370  -0.026   8.871  0.7959  0.2259  3.4122
  622MOL0     H83904   8.510  -0.210   8.962 -2.1233  0.6983 -0.3827
  622MOL0     H83905   8.711  -0.291   9.130 -2.5162  1.8495 -1.3415
  622MOL0     H83906   8.650  -0.397   9.006  0.1807 -1.7837  0.0069
  622MOL0     H83907   8.959  -0.383   9.008  1.5479 -3.1641  1.2265
  622MOL0     H83908   8.853  -0.517   8.981 -2.0601  0.9553 -3.1522
  622MOL0     H83909   8.960  -0.570   9.179  1.0512 -0.1861  0.9598
  622MOL0     H83910   8.802  -0.524   9.229  0.2282 -3.0358 -3.4622
  622MOL0     H83911   9.060  -0.370   9.234 -1.2675  0.3158 -3.0457
  622MOL0     H83912   8.900  -0.285   9.254 -1.2173  0.3229 -1.3032
  622MOL0     H83913   8.987  -0.307   9.492  0.1873 -2.1894  2.5261
  622MOL0     H83914   8.847  -0.388   9.462 -0.6595 -1.1770  2.1576
  622MOL0     H83915   8.979  -0.607   9.421  0.3109  0.5378 -1.7492
  622MOL0     H83916   9.129  -0.526   9.446  0.0085 -0.5972 -1.7334
  622MOL0     H83917   9.084  -0.659   9.639 -0.5174  0.0604  1.3554
  622MOL0     H83918   8.935  -0.568   9.671  0.3819  1.2094 -0.3726
  622MOL0     H83919   9.176  -0.484   9.796  0.9834 -2.6195 -1.2362
  622MOL0     H83920   9.201  -0.418   9.638  1.2090 -2.5504 -0.4090
  622MOL0     H83921   8.896  -0.466   9.880 -1.1928  1.8067  5.1872
  622MOL0     H83922   8.688  -0.307   9.940  0.5294 -0.1140 -0.8095
  622MOL0     H83923   8.756  -0.183  10.024 -1.9976 -1.1674  1.2685
  622MOL0     H83924   8.574  -0.092   9.904  1.0207  0.2353  1.2088
  622MOL0     H83925   8.725  -0.024   9.826  1.2397 -1.2476 -0.5452
  622MOL0     H83926   8.528  -0.245   9.736  3.2765 -3.0107  2.0737
  622MOL0     H83927   8.670  -0.241   9.661 -0.1241 -2.6072  3.0213
  622MOL0     H83928   8.530  -0.110   9.529  0.9784 -1.5680  1.3442
  622MOL0     H83929   8.628   0.013   9.592 -0.8936  0.0574 -5.7444
  622MOL0     H83930   8.231   0.121   9.767 -0.4308  0.1918  0.3937
  622MOL0     H83931   7.975   0.046   9.733 -2.3306 -2.1321 -3.3670
  622MOL0     H83932   7.649  -0.071   9.515  1.6309 -0.0401  0.9067
  622MOL0     H83933   7.454  -0.087   9.378 -2.1677 -2.4348  1.0659
  622MOL0     H83934   7.254  -0.231   9.337  3.3625 -0.3924  0.6172
  622MOL0     H83935   7.202  -0.318   9.191 -0.9366 -1.0574  0.3628
  622MOL0     H83936   7.316  -0.519   9.299  0.7386  0.1103 -0.2292
  622MOL0     H83937   7.294  -0.435   9.455  0.1416  0.1707 -0.2142
  622MOL0     H83938   7.073  -0.397   9.419  0.0850  1.8146 -3.0677
  622MOL0     H83939   7.059  -0.465   9.260  1.3253  0.0630 -0.3416
  622MOL0     H83940   7.136  -0.637   9.494  2.2389  2.5906  0.1849
  622MOL0     H83941   7.087  -0.681   9.319  3.4763 -1.0990  0.0800
  622MOL0     H83942   6.853  -0.634   9.362  2.5197  1.5776 -2.6862
  622MOL0     H83943   6.903  -0.567   9.514  0.0878  1.7103 -1.3489
  622MOL0     H83944   7.001  -0.782   9.589  1.5399  0.6239 -1.0524
  622MOL0     H83945   6.820  -0.779   9.562 -1.5715 -1.9718 -0.9843
  622MOL0     H83946   6.933  -0.996   9.496  1.0937 -0.2381 -0.5292
  622MOL0     H83947   7.025  -0.909   9.385 -1.2879  0.5664 -2.9355
  622MOL0     H83948   6.723  -0.968   9.383  0.4117 -1.1207  0.0650
  622MOL0     H83949   6.797  -0.845   9.282 -0.7946 -1.2130 -0.5442
  622MOL0     H83950   7.573  -0.471   9.232 -2.1582  0.2809 -0.5995
  622MOL0     H83951   7.791  -0.448   9.386  4.1543  3.2253 -2.8237
  622MOL0     H83952   8.134  -0.295   9.527 -1.8027  0.4674 -1.1014
  622MOL0     H83953   8.359  -0.224   9.568  0.9622  1.0381  0.7880
  622MOL0     H83954   8.854  -0.064   8.774  0.2531  1.9086  1.0261
  622MOL0     H83955   8.729   0.110   8.673 -0.3968 -0.8395 -0.3508
  622MOL0     H83956   8.136   0.339   8.797 -0.1280 -3.5494 -1.7790
  622MOL0     H83957   8.001   0.472   8.642 -1.3579 -2.9419 -1.6271
  622MOL0     H83958   7.934   0.456   8.416  0.6413  1.5478  2.5769
  622MOL0     H83959   8.013   0.497   8.263 -0.1736 -0.7951  0.8790
  622MOL0     H83960   7.946   0.743   8.337 -1.2845  0.7031 -1.5832
  622MOL0     H83961   7.836   0.669   8.441 -0.9566 -3.2821  1.2489
  622MOL0     H83962   7.769   0.523   8.216 -0.0356  0.3513 -1.5469
  622MOL0     H83963   7.832   0.660   8.128 -3.0886 -0.2138 -1.8007
  622MOL0     H83964   7.704   0.812   8.268 -0.3486 -0.6738  0.9613
  622MOL0     H83965   7.628   0.720   8.130 -1.9956 -5.7749 -0.1639
  622MOL0     H83966   7.399   0.650   8.489  1.2802 -1.0104  1.7536
  622MOL0     H83967   8.334   0.528   8.394 -0.5522  0.0507  0.2383
  622MOL0     H83968   8.544   0.499   8.489 -1.5942  0.6349  1.7385
  622MOL0     H83969   8.598   0.360   8.585 -0.7105 -2.7951 -1.2047
  622MOL0     H83970   8.534   0.342   8.419 -2.8438  0.3232 -0.7436
  623MOL0     O83971   1.221  11.247   6.413 -0.2707  0.6548  0.1209
  623MOL0     C83972   1.142  11.289   6.330  0.1946 -1.4963  0.2408
  623MOL0     O83973   1.036  11.223   6.274  1.0153  0.0702 -0.0370
  623MOL0     C83974   0.983  11.108   6.317  0.1579  0.2587 -0.3946
  623MOL0     C83975   1.005  10.987   6.248 -0.0628 -0.4633  0.7730
  623MOL0     C83976   0.939  10.873   6.287  0.4447  0.3208  0.4346
  623MOL0     C83977   0.866  10.864   6.400 -0.8433  0.6173 -0.9388
  623MOL0     O83978   0.811  10.744   6.443 -0.0764 -1.0328 -0.1668
  623MOL0     C83979   0.697  10.757   6.525 -0.3057  0.7873 -0.0990
  623MOL0     C83980   0.637  10.616   6.547  0.2617 -0.1718  0.5883
  623MOL0     C83981   0.517  10.607   6.642  0.0777 -0.8411 -0.4672
  623MOL0     C83982   0.450  10.470   6.661 -0.4553 -0.0500 -0.7450
  623MOL0     C83983   0.305  10.468   6.603 -0.1407  0.0727  0.2930
  623MOL0     C83984   0.314  10.437   6.451 -0.0145  0.6823 -0.0165
  623MOL0     C83985   0.171  10.435   6.404 -0.9322  0.2780  0.1586
  623MOL0     C83986   0.079  10.326   6.453 -0.6277 -0.0072 -0.4296
  623MOL0     N83987  -0.052  10.349   6.401 -0.4081  0.1058  0.2672
  623MOL0     C83988  -0.129  10.449   6.449  0.4809 -0.1457  0.0366
  623MOL0     C83989  -0.247  10.442   6.391 -0.3701  0.2841 -0.2007
  623MOL0     C83990  -0.353  10.536   6.397 -0.4939 -0.6026 -0.4104
  623MOL0     C83991  -0.476  10.474   6.473 -0.9469 -0.2077 -0.7502
  623MOL0     C83992  -0.452  10.432   6.621  0.0284 -0.0350  0.3762
  623MOL0     C83993  -0.580  10.408   6.698  0.0555 -0.1259 -0.5434
  623MOL0     O83994  -0.654  10.295   6.637  0.8480  0.2759  0.2971
  623MOL0     C83995  -0.795  10.308   6.632 -1.0747 -0.5605 -0.7853
  623MOL0     C83996  -0.856  10.403   6.556 -0.2451  1.1809  0.7280
  623MOL0     C83997  -0.995  10.419   6.542  0.2999  0.0250 -0.0801
  623MOL0     C83998  -1.076  10.325   6.611  0.4995 -0.1757 -0.8635
  623MOL0     C83999  -1.223  10.335   6.614 -0.3718 -0.0676 -0.7238
  623MOL0     O84000  -1.283  10.377   6.503  0.3817 -0.1171  0.0021
  623MOL0     C84001  -1.418  10.388   6.504  0.6945 -0.5558  0.8885
  623MOL0     C84002  -1.496  10.274   6.480  1.1652 -0.3189 -0.3328
  623MOL0     C84003  -1.638  10.290   6.457  0.7065 -0.6605 -0.0983
  623MOL0     C84004  -1.696  10.424   6.469  0.7175  0.0529  1.1260
  623MOL0     O84005  -1.831  10.444   6.446  0.5702  0.0401 -1.1195
  623MOL0     C84006  -1.924  10.338   6.417 -0.2016  0.0038 -0.2114
  623MOL0     C84007  -2.042  10.427   6.374  0.5203  0.1225 -0.0465
  623MOL0     C84008  -2.147  10.358   6.273  0.0756 -0.1286  0.6122
  623MOL0     C84009  -2.244  10.468   6.241 -0.8362 -0.0319 -0.2039
  623MOL0     C84010  -2.336  10.450   6.119 -0.2420  0.1060  0.3183
  623MOL0     C84011  -2.421  10.328   6.156  0.5153 -0.8026  0.1622
  623MOL0     C84012  -2.536  10.315   6.051  0.1344  0.8585 -0.6870
  623MOL0     C84013  -2.475  10.298   5.912 -0.5812  0.1901 -0.5023
  623MOL0    Cl84014  -2.595  10.268   5.786  0.2857  0.4908 -0.3757
  623MOL0     C84015  -1.614  10.538   6.493  0.7586 -0.2101 -0.1686
  623MOL0     C84016  -1.480  10.518   6.507  0.0995  0.3329 -0.1336
  623MOL0     O84017  -1.275  10.282   6.706 -0.4073  0.2552 -0.1070
  623MOL0     C84018  -1.017  10.226   6.696 -0.1269 -0.6608  0.0277
  623MOL0     C84019  -0.876  10.225   6.703  0.2307 -0.0268  0.0320
  623MOL0     N84020  -0.244  10.317   6.313  0.9166 -0.6195 -0.1760
  623MOL0     N84021  -0.127  10.267   6.328 -0.6985  0.8055  0.2623
  623MOL0     C84022   0.863  10.971   6.482 -0.5201  0.2622  0.6608
  623MOL0     C84023   0.916  11.092   6.439  0.3643  0.5345  0.4257
  623MOL0     C84024   1.180  11.432   6.279  0.1993 -0.2362 -0.0888
  623MOL0     C84025   1.284  11.504   6.343 -1.3854  0.0501  0.1438
  623MOL0     C84026   1.311  11.637   6.304 -0.4070 -0.1819  0.1006
  623MOL0     C84027   1.272  11.679   6.183  0.4444 -0.7502  0.0944
  623MOL0     O84028   1.341  11.791   6.141  0.1687  0.2078 -0.5157
  623MOL0     C84029   1.313  11.861   6.020  0.2869 -0.4110  1.0875
  623MOL0     C84030   1.398  11.976   6.039 -0.7433 -0.3164  0.0612
  623MOL0     C84031   1.406  12.078   5.920 -0.3876  0.2938  0.7251
  623MOL0     C84032   1.386  12.229   5.954 -0.4836  0.5655 -0.2242
  623MOL0     C84033   1.237  12.242   5.979 -0.3497  0.2099  0.4802
  623MOL0     C84034   1.121  12.247   5.991  0.6962  0.6105  0.3779
  623MOL0     C84035   1.168  11.618   6.119  0.4947 -0.2512  0.2543
  623MOL0     C84036   1.121  11.493   6.162 -0.6909 -0.5225 -0.1417
  623MOL0     C84037   0.987  11.445   6.101 -0.7467 -0.1455  0.7178
  623MOL0     H84038   1.063  11.005   6.158 -1.9889  0.3944 -0.3478
  623MOL0     H84039   0.958  10.784   6.229  1.7588  0.3842  0.7335
  623MOL0     H84040   0.718  10.801   6.623  0.9862  3.1395 -1.3304
  623MOL0     H84041   0.629  10.837   6.491  1.2612  2.7717  1.1873
  623MOL0     H84042   0.714  10.558   6.599  4.6973  3.0309 -1.6755
  623MOL0     H84043   0.620  10.565   6.451  0.8708 -1.1897  1.0106
  623MOL0     H84044   0.442  10.681   6.613 -0.8260 -0.9696  1.3830
  623MOL0     H84045   0.537  10.645   6.743  0.5587  1.5995 -1.3909
  623MOL0     H84046   0.515  10.402   6.606 -1.0346 -0.6919 -0.6594
  623MOL0     H84047   0.451  10.451   6.769  4.7682  1.9741 -0.1386
  623MOL0     H84048   0.254  10.387   6.656  2.6349 -1.2939  1.0319
  623MOL0     H84049   0.243  10.557   6.618 -1.8076 -1.2999  2.2132
  623MOL0     H84050   0.365  10.519   6.400 -0.4029  0.9013 -0.0602
  623MOL0     H84051   0.374  10.349   6.425 -0.9132  0.2010 -0.5031
  623MOL0     H84052   0.168  10.426   6.295  3.5995 -1.4711 -0.0665
  623MOL0     H84053   0.121  10.528   6.431 -0.5153  0.6106 -0.1827
  623MOL0     H84054   0.110  10.225   6.427 -0.5721  0.2802 -1.5520
  623MOL0     H84055   0.071  10.340   6.562  0.1158  1.2742 -0.5090
  623MOL0     H84056  -0.101  10.529   6.517 -3.0501  1.5454 -0.2872
  623MOL0     H84057  -0.322  10.630   6.443 -1.0855  0.3483 -1.8610
  623MOL0     H84058  -0.383  10.568   6.296  2.7984  1.2781 -0.9352
  623MOL0     H84059  -0.554  10.550   6.466  0.8278  1.6856 -0.9794
  623MOL0     H84060  -0.511  10.386   6.418 -2.9334  0.5978 -0.8598
  623MOL0     H84061  -0.402  10.516   6.671 -0.8056  1.7322 -1.5828
  623MOL0     H84062  -0.392  10.341   6.625 -1.7508 -1.2614  0.2616
  623MOL0     H84063  -0.651  10.490   6.712 -1.0795 -0.4627 -3.5532
  623MOL0     H84064  -0.544  10.376   6.797  0.1369  2.4633  0.3449
  623MOL0     H84065  -0.787  10.463   6.497 -0.2718 -1.1946 -1.9314
  623MOL0     H84066  -1.039  10.504   6.492 -0.8274  0.6283  1.8655
  623MOL0     H84067  -1.462  10.171   6.470  2.5706  0.3474 -3.3675
  623MOL0     H84068  -1.697  10.209   6.416 -2.7561  3.4423 -4.5306
  623MOL0     H84069  -1.888  10.280   6.331  0.8900  1.0768 -0.5108
  623MOL0     H84070  -1.936  10.278   6.507  2.6079  0.7311  0.7427
  623MOL0     H84071  -2.092  10.473   6.460  0.0762  1.8231 -1.1743
  623MOL0     H84072  -2.005  10.516   6.321  1.9878 -0.8851 -0.7858
  623MOL0     H84073  -2.096  10.342   6.178 -2.4228  6.2743 -2.4198
  623MOL0     H84074  -2.193  10.269   6.315 -1.1887 -0.1896 -0.8175
  623MOL0     H84075  -2.190  10.563   6.233 -0.2012 -0.5142 -2.1953
  623MOL0     H84076  -2.307  10.483   6.329  0.4637  2.6023  0.3651
  623MOL0     H84077  -2.269  10.438   6.033  1.2168 -0.3679  1.4802
  623MOL0     H84078  -2.396  10.541   6.115  0.4175  0.7176  2.7268
  623MOL0     H84079  -2.357  10.239   6.149  1.2821 -0.3062  0.6276
  623MOL0     H84080  -2.461  10.343   6.257 -2.5846  0.1415 -1.0790
  623MOL0     H84081  -2.608  10.396   6.039  0.9690  1.3950 -2.3684
  623MOL0     H84082  -2.592  10.222   6.069  1.4844  0.0389 -0.5848
  623MOL0     H84083  -2.429  10.390   5.877  0.0177  0.4220  0.8312
  623MOL0     H84084  -2.402  10.216   5.914 -0.0258  0.6039  2.8648
  623MOL0     H84085  -1.656  10.638   6.505  0.0777 -0.5949  0.7905
  623MOL0     H84086  -1.423  10.609   6.523  0.8029 -0.3242  1.3064
  623MOL0     H84087  -1.069  10.147   6.749 -0.3856 -1.9253 -1.9954
  623MOL0     H84088  -0.825  10.147   6.759 -1.6372 -0.7392  0.8199
  623MOL0     H84089   0.809  10.970   6.577  1.4688  0.4055  1.8517
  623MOL0     H84090   0.892  11.180   6.497 -1.5944 -0.3798  1.1148
  623MOL0     H84091   1.350  11.467   6.421 -1.3459 -1.0667 -0.4025
  623MOL0     H84092   1.378  11.709   6.349  0.3562  0.9885 -2.6954
  623MOL0     H84093   1.211  11.900   6.014  0.2115 -0.6396 -3.8671
  623MOL0     H84094   1.329  11.805   5.927  0.5079  1.4464 -0.0355
  623MOL0     H84095   1.501  11.943   6.052 -0.3256 -0.7539 -3.3847
  623MOL0     H84096   1.366  12.039   6.123  0.8722  0.6735 -0.0293
  623MOL0     H84097   1.333  12.053   5.843 -1.9171 -4.0903  3.1743
  623MOL0     H84098   1.509  12.069   5.883  0.0198 -0.1154  1.8879
  623MOL0     H84099   1.447  12.263   6.038 -1.9168  2.2927  0.1837
  623MOL0     H84100   1.413  12.304   5.879 -0.6613 -1.9193 -2.9599
  623MOL0     H84101   1.015  12.230   5.993  0.0962  2.4690 -3.9911
  623MOL0     H84102   1.114  11.665   6.037 -1.8237 -1.3142  1.0812
  623MOL0     H84103   0.950  11.519   6.030  1.4028  0.9774  0.6934
  623MOL0     H84104   0.995  11.350   6.046 -0.7559  0.9549 -1.2800
  623MOL0     H84105   0.905  11.425   6.171 -1.3159 -0.7153 -0.0926
  624MOL0     O84106   7.975   4.006   8.831  0.8341 -0.3908 -0.6220
  624MOL0     C84107   8.045   4.105   8.806  0.9178  0.5991 -0.5376
  624MOL0     O84108   8.077   4.211   8.892 -1.4990 -0.0026 -0.0749
  624MOL0     C84109   8.095   4.176   9.027 -0.0007  0.0713 -0.5216
  624MOL0     C84110   8.221   4.131   9.075 -0.0351  1.0984  0.8264
  624MOL0     C84111   8.234   4.080   9.205 -0.9220  0.6456 -0.7762
  624MOL0     C84112   8.112   4.066   9.293 -0.5780 -0.7628  1.4099
  624MOL0     O84113   8.113   4.022   9.423 -0.3390 -0.5586 -0.2131
  624MOL0     C84114   8.235   3.947   9.464 -0.3447 -0.8103  0.0154
  624MOL0     C84115   8.205   3.892   9.606  0.1210  0.2812  0.0560
  624MOL0     C84116   8.321   3.809   9.665  0.2523 -0.6872 -0.4046
  624MOL0     C84117   8.457   3.876   9.632  0.0336 -0.3275  0.3816
  624MOL0     C84118   8.574   3.823   9.718  0.1889  0.3476 -1.0183
  624MOL0     C84119   8.600   3.930   9.830  0.3056  0.6790  0.7662
  624MOL0     C84120   8.673   3.878   9.957 -0.2317  0.6837  0.4431
  624MOL0     C84121   8.824   3.854   9.910  0.0707  0.4980 -0.3116
  624MOL0     N84122   8.914   3.809  10.022  0.2802 -0.8654 -0.2935
  624MOL0     C84123   8.925   3.890  10.132  0.3445 -0.6173  0.3681
  624MOL0     C84124   9.002   3.824  10.213 -0.4524  0.1352  0.4706
  624MOL0     C84125   9.067   3.877  10.338  0.1117 -0.3353  0.1147
  624MOL0     C84126   9.052   3.788  10.458  0.4102 -0.4618 -0.6898
  624MOL0     C84127   9.110   3.859  10.588  0.4319 -0.8202  0.4163
  624MOL0     C84128   9.128   3.754  10.701  0.5143  0.7768 -0.6072
  624MOL0     O84129   9.034   3.644  10.713 -0.1520  0.4288  0.1819
  624MOL0     C84130   9.039   3.572  10.830 -0.1190 -0.3981  1.3803
  624MOL0     C84131   9.080   3.619  10.953  0.9799 -0.6251 -0.0892
  624MOL0     C84132   9.074   3.538  11.065  0.0442  0.6508 -0.3889
  624MOL0     C84133   9.013   3.410  11.056 -0.0201 -0.5510 -0.5321
  624MOL0     C84134   8.998   3.330  11.173  0.0943 -0.3703 -1.0196
  624MOL0     O84135   9.062   3.385  11.281  0.0743  1.3049  0.2338
  624MOL0     C84136   9.045   3.323  11.403  0.1306 -0.5336 -0.0641
  624MOL0     C84137   9.141   3.223  11.444 -0.4524 -0.9427  0.4298
  624MOL0     C84138   9.113   3.151  11.554 -0.5984 -0.8472 -0.2133
  624MOL0     C84139   8.995   3.158  11.627  1.7302 -1.0097  1.2017
  624MOL0     O84140   8.958   3.054  11.709 -0.5371 -0.2916  0.1404
  624MOL0     C84141   9.004   3.082  11.844  0.3814 -0.1563 -0.7698
  624MOL0     C84142   8.985   2.959  11.940 -0.7521  0.2734  0.5812
  624MOL0     C84143   8.990   2.997  12.085  0.3072  0.2545 -0.7900
  624MOL0     C84144   8.997   2.874  12.189  1.1320 -0.1841  0.3193
  624MOL0     C84145   8.958   2.899  12.339  0.5664  0.4202  0.0633
  624MOL0     C84146   8.808   2.914  12.347  0.1548  0.2775  0.6293
  624MOL0     C84147   8.772   2.964  12.490  0.1903 -0.6809  0.4605
  624MOL0     C84148   8.677   3.092  12.490 -0.3694  0.4617 -0.2164
  624MOL0    Cl84149   8.525   3.029  12.440  0.2154  0.3237  0.1692
  624MOL0     C84150   8.897   3.244  11.581 -0.1103  0.2703 -0.2811
  624MOL0     C84151   8.926   3.338  11.474 -0.0963 -0.2405 -0.7831
  624MOL0     O84152   8.939   3.222  11.176  0.2235 -0.5125  0.0605
  624MOL0     C84153   8.966   3.368  10.940 -0.0204  0.6018 -0.0225
  624MOL0     C84154   8.981   3.445  10.829  0.3388 -1.1281 -0.1564
  624MOL0     N84155   9.037   3.700  10.154 -0.2917 -0.0064 -0.6085
  624MOL0     N84156   8.990   3.696  10.029 -0.2208 -0.5963 -0.5246
  624MOL0     C84157   7.990   4.118   9.236 -0.1002  1.2698 -0.0354
  624MOL0     C84158   7.986   4.178   9.110 -0.4035 -0.1621 -0.1876
  624MOL0     C84159   8.069   4.121   8.658  0.9420  0.7308  0.2582
  624MOL0     C84160   7.978   4.064   8.567  0.4265 -1.0841 -0.1710
  624MOL0     C84161   7.969   4.092   8.428  0.4445  0.4316 -0.2997
  624MOL0     C84162   8.068   4.179   8.380 -0.8937 -0.5738  0.4967
  624MOL0     O84163   8.077   4.231   8.253 -0.6544 -1.4048 -0.2223
  624MOL0     C84164   7.992   4.182   8.155 -0.7346 -0.2084  0.5182
  624MOL0     C84165   8.063   4.050   8.112  0.1320  0.1401  0.0504
  624MOL0     C84166   8.018   3.996   7.983  0.0986  0.3506  0.0787
  624MOL0     C84167   7.867   3.954   7.981  0.1529  0.9616 -0.1564
  624MOL0     C84168   7.838   3.822   8.051 -0.2367 -0.5568  0.2907
  624MOL0     C84169   7.836   3.713   8.100  0.2957 -0.0509 -0.7780
  624MOL0     C84170   8.162   4.228   8.468  0.0507 -0.2996 -1.3294
  624MOL0     C84171   8.164   4.204   8.603 -0.0140 -1.1274 -0.0003
  624MOL0     C84172   8.283   4.252   8.682 -0.5404 -0.4610 -0.5655
  624MOL0     H84173   8.303   4.131   9.004 -0.5967 -0.3789  0.1446
  624MOL0     H84174   8.337   4.061   9.235 -1.2832  0.2900  0.3175
  624MOL0     H84175   8.240   3.867   9.389 -3.5209  0.4927 -1.7613
  624MOL0     H84176   8.330   4.002   9.458 -0.5336 -0.0206  2.8539
  624MOL0     H84177   8.113   3.832   9.598 -0.4190  1.1009  0.0185
  624MOL0     H84178   8.187   3.975   9.674 -0.3019 -0.0756  0.3852
  624MOL0     H84179   8.319   3.704   9.637  1.6450 -0.7929 -0.1842
  624MOL0     H84180   8.316   3.802   9.774  0.4538  4.2631  0.1836
  624MOL0     H84181   8.484   3.853   9.528 -1.0562 -2.4644  0.5170
  624MOL0     H84182   8.448   3.984   9.647 -1.0947 -0.3183 -0.2802
  624MOL0     H84183   8.547   3.730   9.768  3.7260 -0.0628  0.4745
  624MOL0     H84184   8.668   3.805   9.664  2.4682  2.6639  1.8291
  624MOL0     H84185   8.627   4.030   9.795 -3.3986  1.2455 -1.0029
  624MOL0     H84186   8.499   3.956   9.861  0.1308  1.4628 -0.3859
  624MOL0     H84187   8.633   3.786   9.999  5.0186 -2.5340 -0.6313
  624MOL0     H84188   8.693   3.956  10.031  1.7554 -0.5922  1.3392
  624MOL0     H84189   8.835   3.774   9.837  0.4111  2.0790 -2.0603
  624MOL0     H84190   8.870   3.945   9.871  2.4374 -1.1913 -1.7346
  624MOL0     H84191   8.882   3.990  10.134 -0.2950 -0.8722 -0.2139
  624MOL0     H84192   9.173   3.891  10.316  0.6310  0.8301  2.8961
  624MOL0     H84193   9.027   3.976  10.362  0.5737  0.0169 -0.5452
  624MOL0     H84194   8.952   3.758  10.492  1.0902  0.8349  2.9386
  624MOL0     H84195   9.111   3.698  10.439 -2.6607 -3.1464  1.4533
  624MOL0     H84196   9.035   3.936  10.608  0.5599 -0.5299 -0.2191
  624MOL0     H84197   9.206   3.906  10.567  0.7726 -0.8851  1.7057
  624MOL0     H84198   9.119   3.821  10.787 -2.7674 -1.8248  1.3261
  624MOL0     H84199   9.226   3.714  10.675  0.9866 -0.1185  2.2705
  624MOL0     H84200   9.115   3.721  10.960  0.3591 -0.4535  0.5542
  624MOL0     H84201   9.121   3.577  11.155  0.4367  0.3563 -0.4613
  624MOL0     H84202   9.231   3.211  11.384 -0.6313  3.3724 -1.0350
  624MOL0     H84203   9.175   3.066  11.582 -0.0769 -0.6591 -0.7904
  624MOL0     H84204   9.107   3.120  11.849  0.0318  0.9030 -1.3562
  624MOL0     H84205   8.942   3.161  11.885  1.2978 -0.2321  0.8299
  624MOL0     H84206   8.887   2.915  11.918 -0.7066  1.5386 -2.6973
  624MOL0     H84207   9.048   2.874  11.912 -1.9065 -1.1644  2.1577
  624MOL0     H84208   9.071   3.065  12.113  0.9355 -0.5729 -0.5528
  624MOL0     H84209   8.904   3.062  12.104  0.5862  0.0451  1.5250
  624MOL0     H84210   9.093   2.822  12.187  0.8651 -0.6529 -0.6943
  624MOL0     H84211   8.929   2.795  12.157  0.4298  1.0192 -1.2898
  624MOL0     H84212   9.021   2.982  12.370  1.1484 -1.0673  3.2398
  624MOL0     H84213   8.984   2.807  12.393  2.3116  1.1649  0.5637
  624MOL0     H84214   8.776   2.982  12.267 -2.3834  1.5060  2.5555
  624MOL0     H84215   8.761   2.816  12.333 -2.3544  1.6596 -1.7489
  624MOL0     H84216   8.865   2.993  12.539  1.2201 -0.4013 -1.5420
  624MOL0     H84217   8.737   2.874  12.541  3.9337 -2.2750  0.4874
  624MOL0     H84218   8.658   3.129  12.592 -3.5924  2.1210 -1.2729
  624MOL0     H84219   8.734   3.159  12.426  0.2719 -0.5799 -0.7700
  624MOL0     H84220   8.811   3.246  11.647 -0.7174 -1.5103 -0.9787
  624MOL0     H84221   8.854   3.414  11.444 -1.3685 -0.6835  0.9585
  624MOL0     H84222   8.922   3.269  10.940  1.5407 -0.1219  0.0070
  624MOL0     H84223   8.937   3.412  10.736  1.3650  2.3436 -2.0606
  624MOL0     H84224   7.895   4.126   9.288 -2.7323 -0.0688 -4.1188
  624MOL0     H84225   7.901   4.237   9.076  0.9378  0.8240 -1.9844
  624MOL0     H84226   7.891   4.021   8.615 -0.0948 -0.4859 -0.5621
  624MOL0     H84227   7.890   4.048   8.369 -1.4794  1.3442  1.4769
  624MOL0     H84228   7.985   4.249   8.069 -3.5506 -0.8811  0.1154
  624MOL0     H84229   7.889   4.167   8.188 -0.8162 -2.1048 -0.4550
  624MOL0     H84230   8.048   3.967   8.181  3.6371 -0.4543  0.2626
  624MOL0     H84231   8.170   4.070   8.105  0.2647 -0.8788 -1.4133
  624MOL0     H84232   8.087   3.913   7.969  0.5969  0.9420 -1.1339
  624MOL0     H84233   8.040   4.080   7.916  1.5192  0.3685  0.5454
  624MOL0     H84234   7.803   4.034   8.018  0.3763  1.0394  0.0621
  624MOL0     H84235   7.816   3.942   7.885 -0.0199  0.0308  0.0402
  624MOL0     H84236   7.839   3.613   8.139 -2.4801 -0.9768 -2.6873
  624MOL0     H84237   8.227   4.302   8.423 -1.4143  1.5955 -0.5131
  624MOL0     H84238   8.259   4.353   8.718  0.0871  0.4998 -2.6646
  624MOL0     H84239   8.321   4.185   8.759 -1.0448 -0.3252 -0.1952
  624MOL0     H84240   8.368   4.266   8.613 -0.1884  0.3981  0.0149
  625MOL0     O84241  11.445   6.638   7.875  0.5845 -0.1627  0.2986
  625MOL0     C84242  11.441   6.719   7.778 -0.2385  0.6811  0.3925
  625MOL0     O84243  11.459   6.681   7.651 -0.4358  0.3565  0.2139
  625MOL0     C84244  11.486   6.548   7.625 -0.0802  0.0044  1.2027
  625MOL0     C84245  11.606   6.489   7.656 -0.9974  0.2883  0.1460
  625MOL0     C84246  11.627   6.353   7.637 -0.0735  0.1227  0.4826
  625MOL0     C84247  11.532   6.274   7.563 -0.1812 -1.0250 -0.3936
  625MOL0     O84248  11.562   6.144   7.535 -0.4775 -0.4006  0.1920
  625MOL0     C84249  11.518   6.055   7.638  0.8337  0.3303  0.1961
  625MOL0     C84250  11.429   5.947   7.567  0.3335 -0.4352 -0.4757
  625MOL0     C84251  11.471   5.891   7.440 -0.4457 -0.2685  1.0933
  625MOL0     C84252  11.367   5.789   7.369 -0.0704 -0.1257  0.1767
  625MOL0     C84253  11.410   5.692   7.256 -0.3601  0.1477 -0.4032
  625MOL0     C84254  11.505   5.591   7.316  0.3306 -0.7747 -0.0200
  625MOL0     C84255  11.514   5.474   7.223  0.1989  0.7248  0.0449
  625MOL0     C84256  11.390   5.383   7.226  0.1896  0.6906  0.2726
  625MOL0     N84257  11.428   5.248   7.183  0.2653 -0.2750  0.1274
  625MOL0     C84258  11.370   5.184   7.075  0.0598  0.6313  0.5300
  625MOL0     C84259  11.402   5.050   7.091 -0.0156 -0.4153  0.6628
  625MOL0     C84260  11.383   4.948   6.988 -0.4087 -0.5464 -1.1312
  625MOL0     C84261  11.526   4.907   6.933  0.3793 -0.1401 -1.2470
  625MOL0     C84262  11.579   4.772   6.995  0.5747 -1.2063 -0.3663
  625MOL0     C84263  11.720   4.754   6.963  0.9497 -0.0376  0.6635
  625MOL0     O84264  11.801   4.723   7.073  1.0523 -0.3969 -0.3897
  625MOL0     C84265  11.772   4.610   7.139 -0.1160  0.2574 -0.2033
  625MOL0     C84266  11.725   4.488   7.076 -0.7968  0.0197 -0.2160
  625MOL0     C84267  11.722   4.366   7.149 -0.1986 -0.5274  0.2062
  625MOL0     C84268  11.748   4.360   7.284 -0.7269 -0.6433  0.3537
  625MOL0     C84269  11.765   4.235   7.355  1.5751  0.4103 -0.3312
  625MOL0     O84270  11.747   4.123   7.279 -0.1927  0.2167 -0.3236
  625MOL0     C84271  11.751   3.998   7.336  0.9982  0.1751 -0.0743
  625MOL0     C84272  11.707   3.962   7.465  0.0618  0.5928 -0.0109
  625MOL0     C84273  11.717   3.827   7.518  0.5039  0.9396  0.2445
  625MOL0     C84274  11.783   3.730   7.438 -0.1504 -0.4858  0.8050
  625MOL0     O84275  11.809   3.602   7.493 -1.1769 -0.3782 -0.4850
  625MOL0     C84276  11.860   3.492   7.422  0.4067  0.1233  0.1047
  625MOL0     C84277  11.825   3.356   7.489 -0.7360 -0.1288 -0.4793
  625MOL0     C84278  11.689   3.367   7.547  0.7975  0.2458  0.1002
  625MOL0     C84279  11.638   3.233   7.604 -0.1339  0.0108 -0.0361
  625MOL0     C84280  11.538   3.146   7.510 -0.3942 -1.3119  0.6345
  625MOL0     C84281  11.485   3.016   7.567 -0.1206  0.5803  0.5439
  625MOL0     C84282  11.395   2.923   7.475 -0.4526  0.2350 -0.0432
  625MOL0     C84283  11.344   2.795   7.542  0.4737 -1.0021 -0.1083
  625MOL0    Cl84284  11.212   2.834   7.656 -0.2431 -0.2587  0.0508
  625MOL0     C84285  11.817   3.766   7.306  0.7967 -0.3488  0.8124
  625MOL0     C84286  11.806   3.896   7.262 -0.2393  0.2993 -0.0727
  625MOL0     O84287  11.784   4.227   7.476 -0.3760 -1.2171 -0.4288
  625MOL0     C84288  11.777   4.479   7.349 -0.3615 -0.3399 -0.6253
  625MOL0     C84289  11.790   4.599   7.276  0.2888  0.0455 -1.0476
  625MOL0     N84290  11.491   5.049   7.203  0.7626  0.5025 -0.1201
  625MOL0     N84291  11.501   5.164   7.258 -0.1729 -0.4316 -0.8250
  625MOL0     C84292  11.411   6.332   7.531 -0.3402  0.9366 -0.5792
  625MOL0     C84293  11.387   6.472   7.556 -0.4449  0.3275  0.3546
  625MOL0     C84294  11.420   6.867   7.807  0.2532  0.8422 -0.7935
  625MOL0     C84295  11.348   6.934   7.710 -1.6740  0.7042  0.4295
  625MOL0     C84296  11.307   7.064   7.725 -0.6823 -0.6834 -0.3879
  625MOL0     C84297  11.342   7.139   7.840 -0.7073  0.7653 -0.4800
  625MOL0     O84298  11.324   7.275   7.832  0.6109  0.0265  0.0707
  625MOL0     C84299  11.319   7.346   7.955 -0.6433  0.7118  0.1467
  625MOL0     C84300  11.325   7.491   7.909 -0.1526  0.6600  0.0398
  625MOL0     C84301  11.328   7.586   8.034  0.6872  0.8712  0.5124
  625MOL0     C84302  11.208   7.673   8.054  0.2759 -0.1174  0.3225
  625MOL0     C84303  11.096   7.587   8.095 -0.7765  0.1939 -0.2750
  625MOL0     C84304  10.994   7.518   8.114  0.2414  0.3047  0.4126
  625MOL0     C84305  11.413   7.073   7.936 -0.1983 -0.1530 -0.8933
  625MOL0     C84306  11.452   6.938   7.925  0.6373  1.5896 -0.5675
  625MOL0     C84307  11.528   6.866   8.036  0.4886  0.9456  0.7366
  625MOL0     H84308  11.686   6.556   7.684 -0.7492  1.7299 -3.4902
  625MOL0     H84309  11.727   6.311   7.649 -0.6406 -1.3679  0.2632
  625MOL0     H84310  11.612   6.019   7.681  1.9029  1.2228 -1.2851
  625MOL0     H84311  11.457   6.103   7.714 -0.6734  0.2091 -0.9025
  625MOL0     H84312  11.329   5.990   7.556  1.2422  1.9940  0.0089
  625MOL0     H84313  11.428   5.866   7.640 -1.3132 -0.3626 -0.3894
  625MOL0     H84314  11.553   5.823   7.467 -1.4367 -1.1883  1.8981
  625MOL0     H84315  11.525   5.960   7.375  0.0308 -2.3815 -0.8554
  625MOL0     H84316  11.305   5.740   7.445  1.9518 -1.3837  1.0914
  625MOL0     H84317  11.296   5.858   7.322 -0.5071 -1.7687 -1.6893
  625MOL0     H84318  11.330   5.646   7.198 -1.3378  0.9709  0.2488
  625MOL0     H84319  11.465   5.743   7.177  0.1104 -1.4010 -1.1121
  625MOL0     H84320  11.606   5.632   7.329 -0.0445 -0.1834  1.1151
  625MOL0     H84321  11.479   5.565   7.419  5.4689  1.1241  2.0983
  625MOL0     H84322  11.603   5.418   7.254  1.8124  3.3589  0.4487
  625MOL0     H84323  11.528   5.511   7.121 -0.6594  1.2042  0.0859
  625MOL0     H84324  11.351   5.367   7.327 -0.8806  1.6518  0.0315
  625MOL0     H84325  11.311   5.437   7.174 -1.0987  0.5571  2.0210
  625MOL0     H84326  11.302   5.224   7.001 -0.2504  0.8405  0.9258
  625MOL0     H84327  11.342   4.860   7.039  0.2924 -0.0917  0.2753
  625MOL0     H84328  11.324   4.980   6.902  0.3016 -0.2073 -1.5005
  625MOL0     H84329  11.518   4.902   6.824  1.6920  1.9637 -1.5075
  625MOL0     H84330  11.589   4.996   6.947 -2.5715  2.0037 -0.6333
  625MOL0     H84331  11.518   4.686   6.964  0.9386 -0.8064 -2.2885
  625MOL0     H84332  11.579   4.795   7.102 -0.9564  2.7502 -1.0657
  625MOL0     H84333  11.742   4.847   6.910  0.3068 -0.2995 -0.0871
  625MOL0     H84334  11.721   4.680   6.882 -0.2373 -2.1518  2.4726
  625MOL0     H84335  11.714   4.486   6.968  2.0997  0.1840 -0.6066
  625MOL0     H84336  11.697   4.294   7.072 -3.2371  1.5073 -0.8660
  625MOL0     H84337  11.661   4.032   7.534  1.5699 -0.5181  2.2513
  625MOL0     H84338  11.688   3.799   7.618 -0.2794 -0.5191 -0.3553
  625MOL0     H84339  11.836   3.489   7.316  5.0802  0.0792 -1.1680
  625MOL0     H84340  11.969   3.489   7.425  0.3892 -0.9390  0.2481
  625MOL0     H84341  11.845   3.275   7.418 -6.0635 -4.7940  2.4654
  625MOL0     H84342  11.889   3.331   7.574  0.6640  2.6267 -0.6096
  625MOL0     H84343  11.685   3.450   7.618 -0.9084 -0.4741  0.9196
  625MOL0     H84344  11.623   3.397   7.465 -0.1350  0.2821  0.8381
  625MOL0     H84345  11.601   3.253   7.705  1.2050  1.6463  0.1772
  625MOL0     H84346  11.734   3.184   7.625 -0.1906 -0.0187  0.1533
  625MOL0     H84347  11.596   3.126   7.419  0.0086  4.8523 -0.9419
  625MOL0     H84348  11.443   3.193   7.480  0.3773 -0.2146 -0.2035
  625MOL0     H84349  11.573   2.963   7.605 -1.8498 -1.9159  1.3579
  625MOL0     H84350  11.429   3.033   7.660 -3.0747 -3.4384 -0.2093
  625MOL0     H84351  11.459   2.897   7.390  0.8782 -0.9920  1.2714
  625MOL0     H84352  11.320   2.985   7.426  1.0643  1.8036 -0.4904
  625MOL0     H84353  11.315   2.718   7.470 -1.2497  1.3317 -2.1110
  625MOL0     H84354  11.431   2.756   7.596  2.0400  1.6062 -0.5823
  625MOL0     H84355  11.853   3.689   7.238  1.4479  0.8585 -0.2629
  625MOL0     H84356  11.832   3.922   7.160 -1.0248 -0.5911 -0.5123
  625MOL0     H84357  11.796   4.481   7.456  0.6538  1.9332 -0.7831
  625MOL0     H84358  11.815   4.690   7.330 -2.0144  1.9101 -2.9207
  625MOL0     H84359  11.328   6.269   7.501  0.5392 -0.7320  0.3035
  625MOL0     H84360  11.297   6.528   7.531 -0.1110  0.3355 -0.9012
  625MOL0     H84361  11.323   6.882   7.618  1.2201  1.2107 -0.7545
  625MOL0     H84362  11.247   7.104   7.643  1.1575  3.3466 -0.0202
  625MOL0     H84363  11.401   7.321   8.024 -0.0228 -3.4572 -1.7719
  625MOL0     H84364  11.224   7.323   8.006  0.5922 -0.3382  2.1157
  625MOL0     H84365  11.251   7.505   7.830 -0.2270  1.7950  0.3075
  625MOL0     H84366  11.420   7.506   7.857  0.6219  0.5103  1.3716
  625MOL0     H84367  11.419   7.646   8.022  0.0912  1.5827 -0.5496
  625MOL0     H84368  11.348   7.516   8.116  1.8623 -1.1658 -1.4082
  625MOL0     H84369  11.223   7.742   8.138  1.8037  2.4230 -1.8844
  625MOL0     H84370  11.188   7.735   7.967  1.1077  0.1514  0.3157
  625MOL0     H84371  10.898   7.472   8.125 -0.1165  1.6141  3.9493
  625MOL0     H84372  11.446   7.130   8.022  0.8203  1.9876 -2.6098
  625MOL0     H84373  11.626   6.834   7.999  0.3368 -0.9566  1.8358
  625MOL0     H84374  11.544   6.928   8.125 -1.5427 -2.9573  4.1696
  625MOL0     H84375  11.458   6.787   8.066 -1.5056  1.1598 -2.8094
  626MOL0     O84376   4.689   8.626  11.275  0.5821 -0.8234  0.3213
  626MOL0     C84377   4.798   8.679  11.273 -0.7741 -0.1502  0.7021
  626MOL0     O84378   4.886   8.671  11.366 -0.3051 -0.4532 -0.2482
  626MOL0     C84379   4.865   8.600  11.488  0.8585 -0.9868 -1.4643
  626MOL0     C84380   4.786   8.484  11.503 -0.2116 -0.0727  1.1784
  626MOL0     C84381   4.759   8.425  11.628 -0.0865  0.0367 -0.3061
  626MOL0     C84382   4.823   8.465  11.739 -0.3084 -0.1754  0.2475
  626MOL0     O84383   4.808   8.379  11.845 -0.7068  0.2884  0.1705
  626MOL0     C84384   4.860   8.406  11.979 -0.7030  0.0624 -0.2431
  626MOL0     C84385   4.845   8.282  12.067 -0.2474  0.2095  0.6817
  626MOL0     C84386   4.706   8.278  12.125 -0.0256  0.2514 -0.5088
  626MOL0     C84387   4.687   8.135  12.183  0.4094  0.7664 -0.5781
  626MOL0     C84388   4.539   8.095  12.206  0.5402 -0.0265 -0.5790
  626MOL0     C84389   4.470   8.181  12.310 -1.1052  0.0634  0.0385
  626MOL0     C84390   4.368   8.105  12.395  0.3706  0.0758  0.6210
  626MOL0     C84391   4.415   8.008  12.500  0.2424 -0.0292 -0.7354
  626MOL0     N84392   4.299   7.941  12.563  0.4442  1.0906 -0.8536
  626MOL0     C84393   4.278   7.806  12.571 -0.7706 -0.1693  0.3325
  626MOL0     C84394   4.150   7.786  12.607 -0.5001 -0.2990 -0.5179
  626MOL0     C84395   4.088   7.649  12.619 -0.5305 -0.2799  0.3555
  626MOL0     C84396   4.178   7.536  12.682  0.4727  0.8799  0.6535
  626MOL0     C84397   4.100   7.404  12.700  0.1640 -0.1815  0.0734
  626MOL0     C84398   4.193   7.281  12.682 -0.6643  1.4183 -0.2356
  626MOL0     O84399   4.314   7.274  12.766  0.5498 -0.0237 -0.5820
  626MOL0     C84400   4.291   7.260  12.908 -0.3309  0.9070 -0.4965
  626MOL0     C84401   4.206   7.157  12.964  0.3611 -1.1916 -0.5376
  626MOL0     C84402   4.179   7.150  13.107 -0.6733 -0.7863 -0.0450
  626MOL0     C84403   4.247   7.240  13.195  0.6866  0.6149  0.8066
  626MOL0     C84404   4.226   7.241  13.336 -0.2940 -1.0960 -0.7429
  626MOL0     O84405   4.244   7.364  13.391 -0.3376 -0.2146  0.0643
  626MOL0     C84406   4.226   7.368  13.526 -0.3062  0.6997  0.4770
  626MOL0     C84407   4.328   7.340  13.618 -0.6816 -0.4307  0.4720
  626MOL0     C84408   4.306   7.351  13.756  0.2194 -0.6082  0.1804
  626MOL0     C84409   4.185   7.394  13.808 -0.3581  0.5462 -0.4179
  626MOL0     O84410   4.178   7.413  13.948 -0.1656 -0.0021  1.4893
  626MOL0     C84411   4.066   7.463  14.024 -0.6227 -0.3642 -0.4633
  626MOL0     C84412   4.131   7.540  14.146 -0.8756  0.5380 -1.1435
  626MOL0     C84413   4.231   7.649  14.097 -1.1185 -0.3639 -0.0520
  626MOL0     C84414   4.201   7.788  14.156 -0.2317 -0.1712 -0.1756
  626MOL0     C84415   4.093   7.854  14.079  0.8643  0.4610  0.6251
  626MOL0     C84416   4.061   7.994  14.124 -0.2724 -0.4852  0.4117
  626MOL0     C84417   3.928   8.055  14.074  0.4855  0.8752  0.2686
  626MOL0     C84418   3.946   8.066  13.920  0.0639  0.2393  0.6305
  626MOL0    Cl84419   3.801   8.169  13.870 -0.0419  0.1091 -0.1122
  626MOL0     C84420   4.080   7.426  13.720 -0.4758 -0.2704  1.1608
  626MOL0     C84421   4.100   7.415  13.578 -0.5370  0.2202 -1.2719
  626MOL0     O84422   4.173   7.144  13.395 -0.3356  0.4813 -0.5451
  626MOL0     C84423   4.335   7.331  13.138 -0.9080  0.5783  0.5822
  626MOL0     C84424   4.358   7.346  12.995 -0.2887  1.0568 -0.7508
  626MOL0     N84425   4.088   7.911  12.627 -0.0498 -0.1090  0.4793
  626MOL0     N84426   4.177   7.997  12.581  0.2136 -0.0698  0.0568
  626MOL0     C84427   4.901   8.579  11.728 -0.5869  0.2698 -1.2140
  626MOL0     C84428   4.925   8.640  11.605  0.6444 -0.7488  0.0281
  626MOL0     C84429   4.818   8.764  11.146  0.8857  0.1345  0.5560
  626MOL0     C84430   4.712   8.827  11.084 -0.3161 -0.3346 -0.2738
  626MOL0     C84431   4.724   8.889  10.952 -0.1592  0.7834 -0.8140
  626MOL0     C84432   4.842   8.880  10.885 -0.0866 -0.3095  0.4733
  626MOL0     O84433   4.850   8.935  10.761 -0.1587 -1.0873 -0.5698
  626MOL0     C84434   4.848   9.077  10.744  0.5657 -0.1771  1.1290
  626MOL0     C84435   4.728   9.113  10.647 -0.5430 -0.3903 -0.9606
  626MOL0     C84436   4.780   9.089  10.499  0.5000 -0.4593  0.9272
  626MOL0     C84437   4.661   9.120  10.410 -0.2643  0.1697  0.4152
  626MOL0     C84438   4.657   9.024  10.291 -0.1544  0.7653 -0.4859
  626MOL0     C84439   4.666   8.941  10.200 -0.6730  0.1725  0.3949
  626MOL0     C84440   4.946   8.808  10.947 -0.1798  0.2990 -0.4261
  626MOL0     C84441   4.935   8.751  11.077 -0.3612  0.1325  0.2321
  626MOL0     C84442   5.056   8.671  11.125 -0.0633 -0.3882  0.1319
  626MOL0     H84443   4.755   8.419  11.422  1.2515 -1.0492  1.3683
  626MOL0     H84444   4.689   8.345  11.648 -3.8531  3.2649  0.8246
  626MOL0     H84445   4.967   8.432  11.979 -0.2943 -1.4978  0.3746
  626MOL0     H84446   4.803   8.494  12.010 -2.3333 -1.0824  0.0828
  626MOL0     H84447   4.919   8.298  12.146  0.6362 -2.6526  0.5459
  626MOL0     H84448   4.869   8.188  12.016 -1.9230 -2.4238  4.3207
  626MOL0     H84449   4.638   8.292  12.041  2.0356 -1.7743 -2.6653
  626MOL0     H84450   4.694   8.352  12.205  1.8071  1.5853 -1.3831
  626MOL0     H84451   4.735   8.060  12.120  0.5183  3.1272 -3.5417
  626MOL0     H84452   4.729   8.138  12.284 -1.5781 -0.5001  0.3589
  626MOL0     H84453   4.489   8.094  12.109  2.4465 -2.5977 -1.6446
  626MOL0     H84454   4.535   7.992  12.244 -3.8923  1.0026  2.5048
  626MOL0     H84455   4.543   8.226  12.377 -0.9272  0.5550 -0.4793
  626MOL0     H84456   4.423   8.269  12.266  2.7420  2.1517 -0.3678
  626MOL0     H84457   4.292   8.064  12.328  1.0931 -1.2259  0.5752
  626MOL0     H84458   4.311   8.185  12.445  0.6264  1.9043 -1.8401
  626MOL0     H84459   4.480   7.935  12.452  0.6551  0.3998 -0.8334
  626MOL0     H84460   4.464   8.067  12.578  0.4450  0.2839 -1.0984
  626MOL0     H84461   4.349   7.731  12.539 -2.2336 -0.8858 -1.3912
  626MOL0     H84462   3.993   7.641  12.672 -0.3046 -3.5006  0.4389
  626MOL0     H84463   4.067   7.619  12.516 -1.3037  0.3499  0.3196
  626MOL0     H84464   4.263   7.526  12.615 -0.7944  0.4251 -0.9500
  626MOL0     H84465   4.218   7.573  12.777  1.2575  0.2071  0.5905
  626MOL0     H84466   4.016   7.388  12.633 -1.9561 -1.9828  2.8981
  626MOL0     H84467   4.061   7.398  12.803 -1.9938  3.7078 -0.3290
  626MOL0     H84468   4.223   7.288  12.577 -0.8104  1.1213 -0.2966
  626MOL0     H84469   4.139   7.188  12.698  2.8354 -0.9136 -0.8966
  626MOL0     H84470   4.150   7.090  12.899  0.3115 -1.2602 -0.4247
  626MOL0     H84471   4.099   7.086  13.142 -1.2687  0.8861  1.8290
  626MOL0     H84472   4.427   7.305  13.590 -2.0690 -2.7629 -1.9705
  626MOL0     H84473   4.383   7.320  13.826  1.8768 -1.7064 -1.9670
  626MOL0     H84474   4.019   7.540  13.962  2.2179 -1.0387 -3.7218
  626MOL0     H84475   4.004   7.383  14.065  1.3070 -0.9206  1.5424
  626MOL0     H84476   4.054   7.580  14.212 -0.6068 -0.9698  0.1664
  626MOL0     H84477   4.186   7.462  14.200 -2.6407 -1.1265 -1.6540
  626MOL0     H84478   4.334   7.629  14.125 -0.8581 -0.1752 -0.8615
  626MOL0     H84479   4.226   7.652  13.988  1.4408  5.1594 -0.3159
  626MOL0     H84480   4.288   7.850  14.131 -0.7904  1.8485  2.4297
  626MOL0     H84481   4.189   7.783  14.265 -0.3224 -0.2407 -0.1887
  626MOL0     H84482   4.001   7.795  14.090 -0.3684  1.1718 -3.7925
  626MOL0     H84483   4.120   7.860  13.974  1.6304  1.0841  0.8506
  626MOL0     H84484   4.065   8.003  14.233  1.4816 -2.0198  0.5243
  626MOL0     H84485   4.147   8.055  14.095  0.5913 -1.9794 -0.2371
  626MOL0     H84486   3.896   8.146  14.126 -3.3651  0.0317 -0.3442
  626MOL0     H84487   3.857   7.975  14.092 -0.7949  1.4294 -1.8947
  626MOL0     H84488   4.038   8.102  13.873 -0.3738  1.5847  0.7431
  626MOL0     H84489   3.935   7.966  13.876 -3.5985  1.1343 -0.8899
  626MOL0     H84490   3.986   7.461  13.761  0.1487  0.7179  1.7955
  626MOL0     H84491   4.033   7.448  13.499  0.1662 -0.2846 -2.0975
  626MOL0     H84492   4.381   7.406  13.203 -0.6284 -2.4483  4.2371
  626MOL0     H84493   4.429   7.419  12.957  0.2180  1.2629  0.5340
  626MOL0     H84494   4.941   8.624  11.819 -2.8153  2.4960 -1.2160
  626MOL0     H84495   4.977   8.733  11.626  1.5173 -0.8308 -1.5895
  626MOL0     H84496   4.609   8.825  11.119 -0.5342  1.0447 -0.7743
  626MOL0     H84497   4.639   8.933  10.902  0.1467  0.2013 -1.8941
  626MOL0     H84498   4.943   9.110  10.700 -2.1956  1.6127 -4.3441
  626MOL0     H84499   4.828   9.119  10.843 -1.0447  1.3932  0.1838
  626MOL0     H84500   4.699   9.217  10.664 -0.8167  0.6121 -6.1532
  626MOL0     H84501   4.641   9.050  10.668 -0.1187 -0.7845 -0.3318
  626MOL0     H84502   4.818   8.987  10.487  2.8247  0.3222  1.0986
  626MOL0     H84503   4.867   9.144  10.462 -0.8865 -0.9945 -3.8993
  626MOL0     H84504   4.563   9.115  10.457 -1.2702 -0.9817 -1.6577
  626MOL0     H84505   4.668   9.226  10.381  1.1152  0.2013  0.7723
  626MOL0     H84506   4.687   8.873  10.120  1.8130 -1.1562  2.0467
  626MOL0     H84507   5.038   8.787  10.894  0.8176  0.6555  1.0919
  626MOL0     H84508   5.089   8.728  11.212 -0.8156 -1.2488  1.0170
  626MOL0     H84509   5.037   8.566  11.149  0.0048 -0.1750  1.1560
  626MOL0     H84510   5.141   8.683  11.058  0.8836  0.9647  1.5399
  627MOL0     O84511   7.200   8.397   8.758  0.2960  0.0001  0.2257
  627MOL0     C84512   7.221   8.363   8.873 -0.1103  0.4042  0.3662
  627MOL0     O84513   7.330   8.286   8.915  0.2109 -0.2517  0.2080
  627MOL0     C84514   7.424   8.235   8.826  0.2242  0.2408  1.0682
  627MOL0     C84515   7.501   8.315   8.736 -1.1209  0.0105  0.8583
  627MOL0     C84516   7.584   8.243   8.649  0.8439 -0.0514  0.1961
  627MOL0     C84517   7.615   8.103   8.675  0.6013 -0.3877  0.6461
  627MOL0     O84518   7.711   8.037   8.608  0.2461  1.0450 -0.3054
  627MOL0     C84519   7.729   8.074   8.473 -0.7227 -0.5719 -0.4028
  627MOL0     C84520   7.806   7.959   8.403 -0.2997 -0.6041  0.1071
  627MOL0     C84521   7.873   7.999   8.270 -0.1443 -0.4573  0.5031
  627MOL0     C84522   8.017   7.965   8.279 -0.0611 -0.1886 -0.0923
  627MOL0     C84523   8.097   8.053   8.189 -0.7008 -0.0230  0.2308
  627MOL0     C84524   8.249   8.037   8.221  0.2959 -0.2932 -0.1703
  627MOL0     C84525   8.287   8.133   8.337 -0.5450 -0.0694  0.8989
  627MOL0     C84526   8.428   8.100   8.393  0.2123 -0.7489  0.5788
  627MOL0     N84527   8.530   8.156   8.297 -0.0808  0.3525 -0.0783
  627MOL0     C84528   8.600   8.272   8.305  0.2650 -0.0553  0.7467
  627MOL0     C84529   8.688   8.267   8.199 -1.0043 -1.0827  0.4145
  627MOL0     C84530   8.790   8.375   8.161  0.3458  0.4487 -0.3977
  627MOL0     C84531   8.732   8.494   8.095 -0.0787 -0.5401  0.2635
  627MOL0     C84532   8.656   8.603   8.176  0.3630  0.1616 -0.3602
  627MOL0     C84533   8.734   8.688   8.281  0.2034  0.2348  0.4205
  627MOL0     O84534   8.765   8.618   8.399 -0.9713  0.8344  0.1059
  627MOL0     C84535   8.829   8.678   8.508 -0.6005  0.9093  0.3558
  627MOL0     C84536   8.854   8.817   8.523  0.0619 -0.1469  0.1420
  627MOL0     C84537   8.918   8.872   8.639 -0.2641  0.2687  0.0596
  627MOL0     C84538   8.948   8.793   8.751  0.6696  0.2458  0.6287
  627MOL0     C84539   9.013   8.851   8.866 -0.4528  0.4046  0.4449
  627MOL0     O84540   9.094   8.759   8.931 -0.2237 -0.8009 -0.7930
  627MOL0     C84541   9.157   8.792   9.044 -0.2690 -0.5914 -0.3857
  627MOL0     C84542   9.293   8.749   9.056  0.4043  0.1160  0.4231
  627MOL0     C84543   9.374   8.789   9.164  0.6207  0.9789 -0.1567
  627MOL0     C84544   9.317   8.862   9.272 -0.1829 -0.3753  0.0927
  627MOL0     O84545   9.388   8.908   9.378  0.1747 -0.0119 -1.0713
  627MOL0     C84546   9.411   8.799   9.469  0.6176 -0.5929 -0.6827
  627MOL0     C84547   9.431   8.868   9.605  0.3362 -0.3414  0.9463
  627MOL0     C84548   9.295   8.920   9.664  0.5172 -0.0830 -0.1876
  627MOL0     C84549   9.318   9.017   9.773 -0.2365  0.5575  0.5396
  627MOL0     C84550   9.206   9.027   9.879  0.3029 -0.2358 -0.9917
  627MOL0     C84551   9.189   8.901   9.953 -0.2045 -0.9346  0.6871
  627MOL0     C84552   9.084   8.921  10.062 -0.0269 -0.5435 -1.1288
  627MOL0     C84553   8.996   8.786  10.070 -0.3406  0.1141  0.5882
  627MOL0    Cl84554   8.825   8.844  10.087  0.1339 -0.4666 -0.1898
  627MOL0     C84555   9.182   8.906   9.260 -0.6993  0.4842  0.3196
  627MOL0     C84556   9.111   8.883   9.142 -0.1401  0.2592 -0.6852
  627MOL0     O84557   8.978   8.964   8.898  0.2838  0.4599  0.1792
  627MOL0     C84558   8.927   8.658   8.733 -0.0828  0.3075  0.1107
  627MOL0     C84559   8.863   8.598   8.611 -0.3388  0.3236 -0.4751
  627MOL0     N84560   8.658   8.163   8.115 -0.4917  0.2820  0.1284
  627MOL0     N84561   8.566   8.092   8.179 -0.3068 -0.3718  0.1408
  627MOL0     C84562   7.545   8.030   8.764 -0.0789  0.1162  0.4617
  627MOL0     C84563   7.448   8.096   8.837 -0.7756 -0.3881 -0.0154
  627MOL0     C84564   7.148   8.425   8.978  0.9103  0.0081  0.3689
  627MOL0     C84565   7.199   8.440   9.107 -0.4947  0.2987 -0.3373
  627MOL0     C84566   7.133   8.513   9.199  0.0561  0.7214  0.4770
  627MOL0     C84567   7.003   8.570   9.169 -1.1620  1.0683 -0.5500
  627MOL0     O84568   6.919   8.641   9.263 -0.3094  0.1564  0.5278
  627MOL0     C84569   6.979   8.714   9.371 -0.9386  0.7815  0.2777
  627MOL0     C84570   7.062   8.832   9.326  0.1737  0.1361  0.0518
  627MOL0     C84571   6.994   8.952   9.259 -0.2186 -0.3877 -0.1072
  627MOL0     C84572   7.063   9.079   9.222 -0.4632 -0.3289 -0.8756
  627MOL0     C84573   7.155   9.052   9.105 -0.3066  0.3829  0.6404
  627MOL0     C84574   7.237   9.051   9.013 -0.5469 -0.5412 -0.3614
  627MOL0     C84575   6.945   8.543   9.046 -0.0202  0.1949 -0.0549
  627MOL0     C84576   7.011   8.466   8.951  0.5404  0.4803  0.6468
  627MOL0     C84577   6.941   8.436   8.817  0.4615 -0.4734 -0.4152
  627MOL0     H84578   7.463   8.411   8.703 -1.3124 -1.4441 -4.0460
  627MOL0     H84579   7.634   8.301   8.572 -1.9865 -1.5692 -3.0601
  627MOL0     H84580   7.631   8.082   8.424 -0.9346  0.8604  0.2330
  627MOL0     H84581   7.784   8.167   8.463 -2.5390  1.3862  4.6793
  627MOL0     H84582   7.732   7.881   8.386 -0.4331 -0.3840 -0.3326
  627MOL0     H84583   7.875   7.916   8.477 -1.5038 -3.7030 -0.4044
  627MOL0     H84584   7.861   8.108   8.262 -3.6973 -0.6530  1.4994
  627MOL0     H84585   7.806   7.957   8.195 -0.3866  2.8473 -1.3625
  627MOL0     H84586   8.053   7.977   8.382 -0.0488 -0.1662 -0.0991
  627MOL0     H84587   8.030   7.864   8.239  2.9242 -0.4446  1.2966
  627MOL0     H84588   8.082   8.028   8.084  0.5577  3.0258 -0.7942
  627MOL0     H84589   8.070   8.159   8.197  0.6060  0.5432 -1.9405
  627MOL0     H84590   8.282   7.936   8.246 -1.1338 -0.6968  0.1543
  627MOL0     H84591   8.298   8.073   8.130 -1.2222  1.9811 -0.1821
  627MOL0     H84592   8.218   8.130   8.423  2.5818 -1.0367  3.6078
  627MOL0     H84593   8.287   8.235   8.298  0.8411 -1.3588 -2.8242
  627MOL0     H84594   8.437   8.140   8.494  3.7374 -0.0638  0.1317
  627MOL0     H84595   8.438   7.991   8.400  0.0837 -0.6471  3.0791
  627MOL0     H84596   8.597   8.338   8.392  3.2398 -0.7926  1.5186
  627MOL0     H84597   8.839   8.401   8.255 -0.5361  1.3528 -0.1724
  627MOL0     H84598   8.871   8.331   8.101  0.9231 -0.5584  1.0634
  627MOL0     H84599   8.813   8.546   8.041  0.9887  0.1369  2.3865
  627MOL0     H84600   8.666   8.461   8.014 -0.0226 -0.0376  0.0034
  627MOL0     H84601   8.563   8.558   8.214  1.6186 -2.5554 -0.3257
  627MOL0     H84602   8.625   8.676   8.101 -1.1747 -0.3449 -0.2638
  627MOL0     H84603   8.681   8.780   8.305 -1.3340 -0.8292  1.2751
  627MOL0     H84604   8.828   8.708   8.230 -0.4738  1.7196 -0.3053
  627MOL0     H84605   8.830   8.898   8.455  0.7961  0.5736  0.7093
  627MOL0     H84606   8.918   8.978   8.664 -1.8360  0.3034 -0.0351
  627MOL0     H84607   9.336   8.695   8.973 -1.0272  0.4275 -0.5425
  627MOL0     H84608   9.476   8.753   9.168  0.5539  0.4423 -2.3408
  627MOL0     H84609   9.331   8.725   9.471  2.6798 -3.0802  3.6353
  627MOL0     H84610   9.504   8.763   9.425 -0.5549 -1.8086 -2.2463
  627MOL0     H84611   9.469   8.801   9.682  0.6689 -1.4139 -0.1231
  627MOL0     H84612   9.503   8.940   9.565 -0.5973 -1.8045 -4.0255
  627MOL0     H84613   9.236   8.963   9.582  1.8097 -2.5070 -2.5404
  627MOL0     H84614   9.243   8.834   9.706  0.1470 -0.0843 -0.6393
  627MOL0     H84615   9.327   9.114   9.724 -1.6899  0.5834  0.2786
  627MOL0     H84616   9.410   8.991   9.827 -0.2906  1.0017  0.8502
  627MOL0     H84617   9.118   9.071   9.830 -1.5802 -0.4249  1.9823
  627MOL0     H84618   9.217   9.098   9.961 -0.4702 -3.1613  1.8322
  627MOL0     H84619   9.173   8.808   9.899 -0.3293  0.6887 -2.3065
  627MOL0     H84620   9.291   8.890   9.993  0.2939 -3.0080 -1.0099
  627MOL0     H84621   9.025   9.012  10.046 -0.9182 -1.1346 -1.2707
  627MOL0     H84622   9.144   8.927  10.153  0.0486 -0.0061 -1.2095
  627MOL0     H84623   9.001   8.716   9.987  0.0799 -2.2768  2.5076
  627MOL0     H84624   9.037   8.729  10.154 -0.6757 -2.6291 -0.9940
  627MOL0     H84625   9.144   8.975   9.335 -3.1200 -2.4000  2.0039
  627MOL0     H84626   9.010   8.921   9.132 -1.2254 -2.8101 -2.9658
  627MOL0     H84627   8.939   8.591   8.818  1.6872  0.6072  0.1360
  627MOL0     H84628   8.844   8.492   8.597 -2.2928  0.8365 -2.2070
  627MOL0     H84629   7.561   7.923   8.778  1.7706  0.2427 -0.3117
  627MOL0     H84630   7.397   8.066   8.928  0.8388  2.1105  1.8510
  627MOL0     H84631   7.299   8.401   9.122 -0.2682  0.5127 -1.2339
  627MOL0     H84632   7.164   8.533   9.302 -2.2737  0.1684  1.3569
  627MOL0     H84633   7.043   8.647   9.430  2.5545  4.1075  0.6654
  627MOL0     H84634   6.910   8.749   9.449  0.5633 -0.6157  2.3729
  627MOL0     H84635   7.145   8.793   9.266 -0.8174  0.6924 -1.7540
  627MOL0     H84636   7.114   8.874   9.413  0.7701  1.4178 -0.9043
  627MOL0     H84637   6.910   8.971   9.327 -0.6493 -2.3587 -0.0075
  627MOL0     H84638   6.938   8.918   9.172 -0.3376 -3.4397  1.0360
  627MOL0     H84639   6.983   9.149   9.196 -1.0087  0.0561  1.6042
  627MOL0     H84640   7.113   9.117   9.312 -5.5987 -2.1887  3.3107
  627MOL0     H84641   7.312   9.046   8.937 -1.4755  0.5677 -1.3924
  627MOL0     H84642   6.845   8.572   9.015 -0.3357 -1.3945 -0.5893
  627MOL0     H84643   6.950   8.527   8.757 -0.4499 -0.5601 -0.6954
  627MOL0     H84644   6.968   8.351   8.754 -0.0744  1.0863 -2.8690
  627MOL0     H84645   6.835   8.415   8.835  0.6734 -0.4523  0.9447
  628MOL0     O84646   8.529   0.320   5.519  0.0008 -0.4265  0.1714
  628MOL0     C84647   8.476   0.424   5.476  0.4097  0.1733  0.5514
  628MOL0     O84648   8.487   0.546   5.530  0.2967 -0.4842 -0.6493
  628MOL0     C84649   8.604   0.578   5.590  1.0452 -0.3172  0.6584
  628MOL0     C84650   8.601   0.695   5.661  0.0873 -0.0496 -1.2505
  628MOL0     C84651   8.720   0.747   5.725  0.9960 -0.4384 -0.5997
  628MOL0     C84652   8.840   0.681   5.714  0.2299  0.3103 -0.8258
  628MOL0     O84653   8.960   0.717   5.776  0.1804  0.1877  0.2321
  628MOL0     C84654   8.971   0.852   5.824  0.2914  0.0664  0.1666
  628MOL0     C84655   8.911   0.869   5.966  0.1156  0.7713  0.5726
  628MOL0     C84656   8.972   0.780   6.071  1.2996  0.1208  0.2370
  628MOL0     C84657   8.897   0.780   6.205  0.3171 -0.2832  0.9124
  628MOL0     C84658   8.978   0.738   6.326  0.9936  1.1334  0.4002
  628MOL0     C84659   9.060   0.861   6.375 -0.5519  0.6962  0.5749
  628MOL0     C84660   9.154   0.815   6.485  0.7215 -0.7189  1.0442
  628MOL0     C84661   9.250   0.927   6.504  0.5722  0.8779 -0.0837
  628MOL0     N84662   9.191   1.050   6.558  0.3623 -0.0677  0.1993
  628MOL0     C84663   9.097   1.054   6.658  0.5138  0.1276  0.5625
  628MOL0     C84664   9.061   1.187   6.666  0.3108 -0.3107  0.6887
  628MOL0     C84665   8.950   1.257   6.751  0.3720  0.1429 -0.6123
  628MOL0     C84666   8.831   1.306   6.665 -0.3130  0.2574 -1.4898
  628MOL0     C84667   8.777   1.188   6.590 -1.2368  0.9612  0.4013
  628MOL0     C84668   8.690   1.198   6.471  0.0462 -0.2949  0.3704
  628MOL0     O84669   8.638   1.069   6.439  0.8194  0.3398 -0.5777
  628MOL0     C84670   8.563   1.061   6.325  1.1899  0.4043 -0.2099
  628MOL0     C84671   8.529   0.936   6.278 -0.0432  0.0074 -0.5445
  628MOL0     C84672   8.478   0.919   6.150 -0.0437  0.5019 -0.3734
  628MOL0     C84673   8.441   1.027   6.073 -0.0622 -0.3331  0.2925
  628MOL0     C84674   8.383   1.002   5.935 -0.0928 -1.3183 -0.0920
  628MOL0     O84675   8.342   1.109   5.862  0.7983 -0.7399  0.2539
  628MOL0     C84676   8.296   1.085   5.730 -0.0832  0.2628 -0.8528
  628MOL0     C84677   8.166   1.042   5.704  0.2149  0.0450  0.4201
  628MOL0     C84678   8.131   1.015   5.572 -0.6941  0.0161  0.3506
  628MOL0     C84679   8.227   1.037   5.465 -0.2373 -0.0416  0.0393
  628MOL0     O84680   8.177   1.003   5.343 -0.1108  0.6996  0.6495
  628MOL0     C84681   8.266   0.972   5.235 -0.6561  0.2179  0.8161
  628MOL0     C84682   8.196   0.950   5.100 -0.0774  0.9086 -0.1754
  628MOL0     C84683   8.079   1.037   5.050  0.7514 -0.6265  0.6017
  628MOL0     C84684   7.994   0.989   4.931  0.8635 -0.5286 -0.4824
  628MOL0     C84685   7.906   1.100   4.875  0.1625  0.6687 -0.3992
  628MOL0     C84686   7.985   1.179   4.765 -0.1570  0.3534  0.2498
  628MOL0     C84687   7.891   1.288   4.712 -0.6377  0.8859  0.4394
  628MOL0     C84688   7.946   1.379   4.604  0.2463  0.2576 -0.1149
  628MOL0    Cl84689   7.807   1.437   4.499 -0.1775 -0.0125 -0.3314
  628MOL0     C84690   8.357   1.092   5.497  0.3493 -0.1816  0.1345
  628MOL0     C84691   8.384   1.121   5.635 -0.9919  0.0661  0.0899
  628MOL0     O84692   8.392   0.886   5.895  0.1050 -0.0444  0.8041
  628MOL0     C84693   8.482   1.152   6.113  0.8246  0.1845  0.1559
  628MOL0     C84694   8.531   1.171   6.244 -0.0356  0.0741  0.2988
  628MOL0     N84695   9.148   1.259   6.584  0.1212  0.5504 -0.3546
  628MOL0     N84696   9.227   1.182   6.525  0.1281  0.7636 -0.1281
  628MOL0     C84697   8.849   0.577   5.628  0.3307 -0.8846 -0.5857
  628MOL0     C84698   8.732   0.515   5.569 -0.1497 -1.5160  0.5445
  628MOL0     C84699   8.393   0.418   5.349 -0.2277 -0.7694  0.7366
  628MOL0     C84700   8.429   0.326   5.247  0.1330 -0.9709  0.0292
  628MOL0     C84701   8.354   0.298   5.144 -0.0484  0.6574 -0.8576
  628MOL0     C84702   8.244   0.367   5.106 -1.1259 -0.2742  0.2660
  628MOL0     O84703   8.196   0.309   4.992 -0.0498 -1.1156  0.1729
  628MOL0     C84704   8.084   0.386   4.937  1.0042 -0.9627 -0.2346
  628MOL0     C84705   8.010   0.296   4.845 -0.4599  0.0527 -0.7880
  628MOL0     C84706   7.888   0.368   4.781  0.1377 -0.0159  0.2271
  628MOL0     C84707   7.822   0.256   4.705 -0.4311  0.6655  0.3385
  628MOL0     C84708   7.734   0.297   4.609  0.3787  1.7617 -1.5878
  628MOL0     C84709   7.649   0.330   4.535 -0.0111  0.2544  0.1094
  628MOL0     C84710   8.208   0.475   5.192 -0.0715 -0.3621 -0.3027
  628MOL0     C84711   8.287   0.505   5.310  0.0624  0.1403  0.3918
  628MOL0     C84712   8.247   0.622   5.393  0.2964 -0.1826 -1.4853
  628MOL0     H84713   8.509   0.753   5.662 -0.6055 -1.0526 -2.6805
  628MOL0     H84714   8.711   0.842   5.778  1.4581  0.2835 -1.7784
  628MOL0     H84715   9.080   0.860   5.824  0.6366 -2.8844 -2.4182
  628MOL0     H84716   8.929   0.930   5.760  1.5227  1.8747  1.4586
  628MOL0     H84717   8.803   0.850   5.964 -0.2410  2.6427  0.0038
  628MOL0     H84718   8.929   0.972   5.997 -0.3938  0.2606  2.7199
  628MOL0     H84719   9.073   0.817   6.094  1.2952  0.3326 -0.0801
  628MOL0     H84720   8.976   0.675   6.041  1.6279 -0.4890  2.2767
  628MOL0     H84721   8.857   0.877   6.235  0.7219  0.9398 -2.1056
  628MOL0     H84722   8.818   0.706   6.192 -0.2534  0.6480 -1.4679
  628MOL0     H84723   8.906   0.710   6.403 -0.7237 -1.7638 -2.0054
  628MOL0     H84724   9.040   0.651   6.303 -1.1350 -0.3025 -0.2528
  628MOL0     H84725   9.106   0.910   6.289 -4.0360 -1.3951 -2.8359
  628MOL0     H84726   8.991   0.934   6.418 -0.1232  0.9968  0.7481
  628MOL0     H84727   9.212   0.733   6.442  0.8788  0.4809 -1.1779
  628MOL0     H84728   9.106   0.777   6.576 -3.5745 -0.0703 -0.7042
  628MOL0     H84729   9.331   0.888   6.566 -0.8864  0.6665  1.8069
  628MOL0     H84730   9.302   0.954   6.412  3.7068 -4.2933 -0.2492
  628MOL0     H84731   9.050   0.971   6.710 -2.4313  1.0511 -0.4584
  628MOL0     H84732   8.911   1.180   6.818  1.5904  0.1971  0.2067
  628MOL0     H84733   8.998   1.332   6.815 -0.5233  0.5303 -0.3908
  628MOL0     H84734   8.746   1.326   6.732  0.9792 -5.4335  2.5724
  628MOL0     H84735   8.868   1.390   6.605  5.5347 -0.7578  0.1184
  628MOL0     H84736   8.737   1.115   6.661  0.4170  0.6406  1.0356
  628MOL0     H84737   8.865   1.137   6.551 -1.1341 -0.0678  1.9151
  628MOL0     H84738   8.757   1.226   6.388  3.1273 -1.9238  2.1056
  628MOL0     H84739   8.624   1.285   6.481  1.0421  0.2613  3.1942
  628MOL0     H84740   8.553   0.855   6.345  1.7249  3.1817  3.0072
  628MOL0     H84741   8.476   0.817   6.113 -0.0068  0.7515 -1.0900
  628MOL0     H84742   8.106   1.012   5.789  0.1734 -2.5703 -0.4499
  628MOL0     H84743   8.031   0.981   5.547 -1.1543  1.8570 -0.3931
  628MOL0     H84744   8.332   1.058   5.224  1.7942 -1.4873  1.3285
  628MOL0     H84745   8.338   0.891   5.250  0.7886  0.5463 -3.1190
  628MOL0     H84746   8.276   0.969   5.027 -0.8528  2.4721 -0.6409
  628MOL0     H84747   8.175   0.843   5.110 -0.5399  1.1823  2.3706
  628MOL0     H84748   8.021   1.056   5.141  0.5908 -1.6649  0.7211
  628MOL0     H84749   8.115   1.135   5.017 -0.2703  0.1238  1.6410
  628MOL0     H84750   7.937   0.905   4.972 -0.4202  0.2805 -0.5711
  628MOL0     H84751   8.060   0.953   4.851  1.3202 -0.3675 -0.1806
  628MOL0     H84752   7.868   1.164   4.955 -2.2359 -0.3026 -0.6909
  628MOL0     H84753   7.815   1.061   4.829 -0.6196  0.4444  1.2861
  628MOL0     H84754   8.073   1.220   4.815 -1.1666 -0.0536  2.4873
  628MOL0     H84755   8.012   1.114   4.682 -1.6143 -1.5464  1.1955
  628MOL0     H84756   7.856   1.353   4.793 -3.5881 -1.6514  1.4020
  628MOL0     H84757   7.810   1.235   4.661  2.1490  0.3868 -3.9566
  628MOL0     H84758   8.001   1.460   4.652  0.4805  0.4418 -0.6816
  628MOL0     H84759   8.008   1.323   4.533 -1.2765 -1.2490 -0.3240
  628MOL0     H84760   8.432   1.115   5.421 -0.7011 -0.1407 -0.9309
  628MOL0     H84761   8.481   1.160   5.664 -1.1302  0.7842 -0.3810
  628MOL0     H84762   8.444   1.235   6.055 -0.3466  0.0840  0.7355
  628MOL0     H84763   8.553   1.274   6.270  0.7538 -0.3490  1.3938
  628MOL0     H84764   8.951   0.544   5.611  1.1473  1.3033 -0.3397
  628MOL0     H84765   8.755   0.438   5.496  2.2485 -1.4819  1.1786
  628MOL0     H84766   8.521   0.273   5.269  1.5777  0.4808 -2.1143
  628MOL0     H84767   8.389   0.212   5.088  1.6672  0.4517  0.4431
  628MOL0     H84768   8.125   0.469   4.879  2.2388 -1.2091  0.2453
  628MOL0     H84769   8.017   0.417   5.017  1.3951 -2.3694  0.6758
  628MOL0     H84770   7.967   0.213   4.902 -1.9327 -0.6187 -2.7833
  628MOL0     H84771   8.080   0.267   4.766  1.8066  0.6382  0.8745
  628MOL0     H84772   7.928   0.448   4.718  0.1399  1.2482  1.7655
  628MOL0     H84773   7.822   0.412   4.856 -1.2177 -0.7259 -0.5189
  628MOL0     H84774   7.904   0.199   4.660  0.1486 -1.2696  3.5460
  628MOL0     H84775   7.781   0.183   4.775  1.9419  1.2534  2.5104
  628MOL0     H84776   7.580   0.353   4.455  0.4072  0.3771 -0.2195
  628MOL0     H84777   8.126   0.536   5.156  0.5453  1.3452  1.0393
  628MOL0     H84778   8.334   0.687   5.386 -1.6835  3.3453  2.1939
  628MOL0     H84779   8.162   0.684   5.363 -0.7265 -0.9490 -0.2941
  628MOL0     H84780   8.218   0.593   5.494  1.1621  1.8469 -0.6199
  629MOL0     O84781   7.094   0.183  10.141 -0.2841 -0.4702  0.5163
  629MOL0     C84782   7.207   0.178  10.187 -0.0683  0.3689 -0.2572
  629MOL0     O84783   7.315   0.263  10.143  0.0036 -0.4099 -0.6930
  629MOL0     C84784   7.277   0.379  10.085 -0.4557 -0.1673  1.2333
  629MOL0     C84785   7.286   0.500  10.148 -0.4880 -0.1828 -0.3561
  629MOL0     C84786   7.263   0.616  10.078  0.3645 -0.7578 -0.7409
  629MOL0     C84787   7.196   0.618   9.955  0.4239 -0.1079  0.4808
  629MOL0     O84788   7.157   0.732   9.900  0.2361  0.1093  0.5192
  629MOL0     C84789   7.025   0.738   9.842 -0.5686  0.4761  0.4354
  629MOL0     C84790   6.988   0.870   9.780  0.6639  0.5620 -1.0283
  629MOL0     C84791   6.949   0.967   9.881 -0.9026 -0.0176  0.0294
  629MOL0     C84792   6.923   1.107   9.833  0.2932 -0.1227 -0.7446
  629MOL0     C84793   7.046   1.169   9.769  0.2158 -0.2670  0.8725
  629MOL0     C84794   7.038   1.311   9.724 -0.0936 -0.0140  0.0646
  629MOL0     C84795   6.943   1.397   9.815  0.4694 -0.1398 -0.2709
  629MOL0     C84796   6.944   1.545   9.769 -0.5894 -0.6459  0.7119
  629MOL0     N84797   6.866   1.547   9.650  0.4335 -0.3627  1.2793
  629MOL0     C84798   6.918   1.609   9.542  0.4365 -0.3895 -0.3963
  629MOL0     C84799   6.814   1.603   9.447  0.4978  0.2645 -0.0392
  629MOL0     C84800   6.834   1.652   9.309  0.9302 -0.7431 -0.5673
  629MOL0     C84801   6.839   1.536   9.206  0.5974 -0.2404  0.2321
  629MOL0     C84802   6.721   1.448   9.190  1.0542 -0.1365  0.1397
  629MOL0     C84803   6.606   1.488   9.109 -0.2452  0.4202  0.5200
  629MOL0     O84804   6.582   1.631   9.106 -0.3722 -0.6452 -0.6324
  629MOL0     C84805   6.499   1.689   9.012  0.0647 -0.0450 -0.3982
  629MOL0     C84806   6.495   1.827   9.001  0.3995  1.4859 -0.1060
  629MOL0     C84807   6.418   1.880   8.899  0.0041 -0.1170 -1.0559
  629MOL0     C84808   6.335   1.809   8.817  0.0344  0.2663  0.1294
  629MOL0     C84809   6.258   1.871   8.709 -0.1608  0.0067  0.1421
  629MOL0     O84810   6.190   1.793   8.614 -0.0001  0.1998 -0.6192
  629MOL0     C84811   6.136   1.870   8.514  0.0943  0.2665  0.2104
  629MOL0     C84812   6.014   1.947   8.547  0.3688  0.2756  0.1881
  629MOL0     C84813   5.958   2.034   8.447  0.2236  0.2123  0.0648
  629MOL0     C84814   6.024   2.036   8.322 -0.0133 -0.0148  0.0330
  629MOL0     O84815   5.995   2.124   8.221 -0.5687 -0.4581 -0.0927
  629MOL0     C84816   5.870   2.190   8.213  0.2718  0.8108  0.3085
  629MOL0     C84817   5.874   2.310   8.117 -0.1954  0.0926 -0.6204
  629MOL0     C84818   5.998   2.392   8.154  0.4104 -0.1495 -0.6666
  629MOL0     C84819   6.029   2.501   8.039  0.7777  0.3860 -0.3467
  629MOL0     C84820   6.158   2.561   8.053 -0.2674 -0.2683 -0.2183
  629MOL0     C84821   6.180   2.639   7.922  0.4379 -0.1888 -0.7133
  629MOL0     C84822   6.292   2.749   7.932  0.1436  0.4180 -0.8621
  629MOL0     C84823   6.429   2.686   7.976  0.2464  1.0933 -0.1704
  629MOL0    Cl84824   6.566   2.792   7.925  0.6146  0.2503 -0.0027
  629MOL0     C84825   6.137   1.960   8.300  0.4817  0.3525 -1.3914
  629MOL0     C84826   6.197   1.875   8.393  1.2069 -0.3141 -0.3824
  629MOL0     O84827   6.270   1.992   8.705  0.5042 -0.5012  0.2241
  629MOL0     C84828   6.332   1.669   8.838  0.2383 -0.3752 -0.7990
  629MOL0     C84829   6.425   1.610   8.923  0.1657  0.0558 -0.1365
  629MOL0     N84830   6.717   1.523   9.507  0.6724  0.8359  0.1938
  629MOL0     N84831   6.742   1.487   9.629 -0.0580 -0.3024 -0.6968
  629MOL0     C84832   7.176   0.497   9.892  0.0630  0.9798 -0.3172
  629MOL0     C84833   7.219   0.374   9.953  0.3222 -0.9660 -0.0759
  629MOL0     C84834   7.239   0.060  10.279 -1.1268  0.0129  0.8643
  629MOL0     C84835   7.324   0.087  10.392 -0.9668 -0.3878 -1.2410
  629MOL0     C84836   7.380  -0.021  10.469  0.9909 -0.0460 -0.1686
  629MOL0     C84837   7.338  -0.149  10.445  0.6119 -0.4097  0.4819
  629MOL0     O84838   7.373  -0.254  10.526 -0.1844 -0.4313  0.2722
  629MOL0     C84839   7.266  -0.291  10.614  0.7135 -0.1097 -0.4283
  629MOL0     C84840   7.312  -0.392  10.720 -0.2173  0.3873 -0.8952
  629MOL0     C84841   7.203  -0.410  10.824  0.2686 -0.2400 -0.1837
  629MOL0     C84842   7.183  -0.558  10.850 -0.0998 -0.4754 -0.2270
  629MOL0     C84843   7.136  -0.637  10.734 -0.2382  0.7212  0.4743
  629MOL0     C84844   7.105  -0.721  10.646 -0.2889 -0.7140 -0.0901
  629MOL0     C84845   7.248  -0.174  10.333 -0.4829  0.4561 -0.8356
  629MOL0     C84846   7.202  -0.074  10.251 -0.1565  0.1073  0.0443
  629MOL0     C84847   7.131  -0.119  10.125  1.1063  0.8450  0.7055
  629MOL0     H84848   7.314   0.518  10.252  0.1854  2.8104 -0.9577
  629MOL0     H84849   7.281   0.707  10.134  1.1092 -1.7003  0.5921
  629MOL0     H84850   7.030   0.666   9.760 -1.2455 -1.8398  2.3014
  629MOL0     H84851   6.948   0.702   9.910  0.8934 -0.2400  1.7922
  629MOL0     H84852   6.904   0.846   9.714 -0.3481  1.7963 -0.2243
  629MOL0     H84853   7.071   0.905   9.718  0.6573  0.3001 -1.1848
  629MOL0     H84854   7.026   0.968   9.959  0.4461  0.4820 -1.2414
  629MOL0     H84855   6.853   0.937   9.924  0.2204 -0.8051  2.1362
  629MOL0     H84856   6.845   1.102   9.757  1.1516  0.2488 -1.6692
  629MOL0     H84857   6.883   1.160   9.920 -2.0906 -0.1537 -1.7419
  629MOL0     H84858   7.126   1.185   9.841  0.7531 -2.4825  0.8326
  629MOL0     H84859   7.084   1.108   9.686 -0.1674 -2.1704  2.0414
  629MOL0     H84860   7.139   1.350   9.709 -0.4775  0.9604 -0.0414
  629MOL0     H84861   7.009   1.304   9.619  2.3483  1.7323 -0.8339
  629MOL0     H84862   6.963   1.380   9.921 -3.1020  1.3467  0.7859
  629MOL0     H84863   6.842   1.355   9.814 -0.0706  1.1039  0.3116
  629MOL0     H84864   6.908   1.615   9.844  2.4553  0.3695  1.3495
  629MOL0     H84865   7.048   1.571   9.749 -1.5348  0.4620 -4.0767
  629MOL0     H84866   7.008   1.668   9.530 -0.0803  0.2037 -1.5941
  629MOL0     H84867   6.750   1.714   9.278  0.0573 -2.3297 -1.4754
  629MOL0     H84868   6.923   1.716   9.315 -1.0134  2.0139  2.0807
  629MOL0     H84869   6.863   1.579   9.108  1.5253  0.0522  0.5840
  629MOL0     H84870   6.917   1.469   9.244  0.1629 -0.2082  1.2022
  629MOL0     H84871   6.673   1.416   9.283 -2.4366  2.6575 -0.4792
  629MOL0     H84872   6.768   1.362   9.142  0.9522 -0.2936  0.3165
  629MOL0     H84873   6.518   1.437   9.149 -0.7689 -1.2529 -2.5115
  629MOL0     H84874   6.614   1.440   9.011  0.4695 -1.7074  1.5745
  629MOL0     H84875   6.554   1.884   9.071  1.6017  1.8670 -1.3671
  629MOL0     H84876   6.442   1.985   8.882 -0.9021  0.6767  1.8775
  629MOL0     H84877   5.962   1.926   8.640 -4.2755 -0.2991 -2.2812
  629MOL0     H84878   5.870   2.093   8.467 -0.1636  0.4081 -2.0043
  629MOL0     H84879   5.799   2.114   8.181 -0.6789  0.8607  2.1486
  629MOL0     H84880   5.833   2.227   8.309  0.2705  3.1862 -0.5545
  629MOL0     H84881   5.875   2.288   8.010  1.5353  1.6254 -0.9681
  629MOL0     H84882   5.783   2.366   8.139  0.4424  0.9807 -0.2046
  629MOL0     H84883   5.983   2.445   8.249  0.9243 -1.0382 -0.0787
  629MOL0     H84884   6.090   2.333   8.156  0.8936  0.5841 -0.9732
  629MOL0     H84885   5.949   2.574   8.052  1.0077  0.5220  0.3744
  629MOL0     H84886   6.026   2.437   7.950 -0.0334 -3.6237  2.2926
  629MOL0     H84887   6.242   2.491   8.056  0.7585  0.9290  2.5183
  629MOL0     H84888   6.167   2.636   8.132 -1.4343  2.9538 -2.8968
  629MOL0     H84889   6.211   2.567   7.846  1.1289  0.2412 -0.8545
  629MOL0     H84890   6.089   2.687   7.886  0.3512 -0.0991 -0.3807
  629MOL0     H84891   6.264   2.837   7.991 -0.1903  0.6921 -1.4237
  629MOL0     H84892   6.306   2.794   7.833 -0.4704  2.4054 -0.0981
  629MOL0     H84893   6.429   2.654   8.081  1.0095 -0.2163 -0.5478
  629MOL0     H84894   6.455   2.591   7.927 -4.0662 -1.9755  2.6957
  629MOL0     H84895   6.182   1.972   8.203 -0.4568 -0.0424 -1.8857
  629MOL0     H84896   6.286   1.814   8.383  1.5352  0.5140 -5.0750
  629MOL0     H84897   6.280   1.613   8.760  0.4141 -1.0390 -0.4424
  629MOL0     H84898   6.436   1.502   8.924 -0.2804 -0.0127 -1.2810
  629MOL0     H84899   7.135   0.486   9.793 -1.0367 -0.5247  0.2727
  629MOL0     H84900   7.221   0.286   9.890 -1.8756 -0.5130 -0.8903
  629MOL0     H84901   7.354   0.189  10.413 -0.1483 -0.6585 -1.0276
  629MOL0     H84902   7.456  -0.019  10.546 -0.2089 -2.7158  1.1989
  629MOL0     H84903   7.173  -0.323  10.567  0.6563 -2.5094  1.1226
  629MOL0     H84904   7.228  -0.206  10.670  2.1024 -1.4760  2.8969
  629MOL0     H84905   7.407  -0.353  10.759  1.5386 -2.0353 -2.4453
  629MOL0     H84906   7.341  -0.482  10.665  2.4982  0.0716  0.8128
  629MOL0     H84907   7.111  -0.357  10.799  1.4737  1.3122 -1.5124
  629MOL0     H84908   7.240  -0.371  10.919  2.1465  0.5941 -1.2166
  629MOL0     H84909   7.276  -0.586  10.899 -0.0080  0.6960  0.2973
  629MOL0     H84910   7.100  -0.581  10.917 -0.2241 -2.4410 -0.9794
  629MOL0     H84911   7.112  -0.796  10.569  4.8179 -3.2328  2.2996
  629MOL0     H84912   7.195  -0.267  10.316  0.3471  0.3243 -3.0078
  629MOL0     H84913   7.093  -0.035  10.066  0.7805  1.9376  2.3971
  629MOL0     H84914   7.195  -0.177  10.057 -1.2625 -1.2364  0.1072
  629MOL0     H84915   7.040  -0.175  10.150  2.7838 -2.6808 -0.4682
  630MOL0     O84916   4.440   3.544   7.392  0.2311  0.0267 -0.4306
  630MOL0     C84917   4.546   3.532   7.456 -0.4669 -0.4168 -0.0697
  630MOL0     O84918   4.566   3.559   7.585  0.4765 -1.2447  0.7812
  630MOL0     C84919   4.463   3.574   7.664 -1.2696  1.0684 -0.3529
  630MOL0     C84920   4.355   3.487   7.662  0.1991  0.0799 -0.0228
  630MOL0     C84921   4.270   3.483   7.772 -0.1607  0.1048 -0.0927
  630MOL0     C84922   4.284   3.572   7.882  0.5765 -0.5791  0.2499
  630MOL0     O84923   4.180   3.580   7.967  0.8559 -0.4252 -0.0383
  630MOL0     C84924   4.203   3.547   8.106 -0.4470  0.6230  0.7906
  630MOL0     C84925   4.071   3.524   8.180  0.2872  0.0141  0.3614
  630MOL0     C84926   4.013   3.391   8.170  0.5631  0.3787 -0.0280
  630MOL0     C84927   4.085   3.290   8.267 -0.2945  0.5077  1.3476
  630MOL0     C84928   4.040   3.151   8.226  0.3481  0.0378 -0.5008
  630MOL0     C84929   3.896   3.116   8.250 -0.0975 -0.5541 -0.2410
  630MOL0     C84930   3.861   2.964   8.243  0.2362  0.0797  0.2442
  630MOL0     C84931   3.721   2.939   8.209 -0.4671 -0.2423 -0.1228
  630MOL0     N84932   3.670   2.806   8.213 -0.1901 -0.1693 -0.6818
  630MOL0     C84933   3.612   2.743   8.320  0.5895 -0.6325  0.1241
  630MOL0     C84934   3.605   2.619   8.267 -0.1006  0.1930  0.3689
  630MOL0     C84935   3.538   2.503   8.340 -0.1821 -0.9441 -0.2290
  630MOL0     C84936   3.404   2.469   8.277 -0.1405  0.7717 -0.2932
  630MOL0     C84937   3.339   2.352   8.342  0.1728  0.5507  0.0762
  630MOL0     C84938   3.190   2.335   8.303  0.1026 -0.8742 -0.4711
  630MOL0     O84939   3.103   2.436   8.364  0.3343  0.0505  0.8330
  630MOL0     C84940   2.968   2.460   8.324  0.4854  0.5130  0.4677
  630MOL0     C84941   2.883   2.371   8.260 -0.0769 -0.0037 -0.3890
  630MOL0     C84942   2.757   2.409   8.227  1.6014  0.4579 -1.0167
  630MOL0     C84943   2.704   2.535   8.267 -0.5527 -0.1050 -0.5001
  630MOL0     C84944   2.568   2.562   8.240 -0.5416 -0.9796 -0.5274
  630MOL0     O84945   2.525   2.686   8.278 -0.1222 -0.1639 -0.2403
  630MOL0     C84946   2.399   2.733   8.273  0.1596 -0.5018 -0.1996
  630MOL0     C84947   2.365   2.815   8.376  0.1710 -0.4206 -0.0863
  630MOL0     C84948   2.247   2.895   8.370 -0.0408 -0.2704 -0.1833
  630MOL0     C84949   2.162   2.873   8.258  1.0229 -0.4085 -0.4594
  630MOL0     O84950   2.041   2.942   8.270  0.0748 -0.2351  0.9479
  630MOL0     C84951   1.954   2.952   8.156  0.2259  0.4410  0.1099
  630MOL0     C84952   2.013   3.061   8.066  1.0988  0.0248 -0.4497
  630MOL0     C84953   1.966   3.043   7.920 -0.1643  0.0776 -0.8798
  630MOL0     C84954   1.818   3.075   7.896  0.8888 -0.1152  0.1963
  630MOL0     C84955   1.804   3.101   7.747  0.7728  0.3724  0.0836
  630MOL0     C84956   1.651   3.106   7.695  0.6562  0.2296 -0.4482
  630MOL0     C84957   1.628   3.111   7.546  0.2708 -0.3648  1.1013
  630MOL0     C84958   1.481   3.171   7.511  0.2870  0.1606 -0.5133
  630MOL0    Cl84959   1.352   3.050   7.550  0.4570  0.3108 -0.1005
  630MOL0     C84960   2.194   2.791   8.156 -0.1863  0.5887  0.0382
  630MOL0     C84961   2.319   2.725   8.160 -0.4675  0.1872 -0.3710
  630MOL0     O84962   2.503   2.472   8.187  0.5987  0.2373  0.4238
  630MOL0     C84963   2.789   2.629   8.327  0.4782 -0.6444  0.5816
  630MOL0     C84964   2.919   2.583   8.351 -0.5676 -0.5619 -0.2176
  630MOL0     N84965   3.642   2.615   8.138  0.2687  1.2329  0.1235
  630MOL0     N84966   3.697   2.726   8.105 -0.3417  0.3947  0.1616
  630MOL0     C84967   4.391   3.660   7.882 -0.1798 -0.0414 -0.3637
  630MOL0     C84968   4.481   3.658   7.775 -0.0773 -0.0874  0.0143
  630MOL0     C84969   4.661   3.477   7.376  0.2946  0.5131  0.5151
  630MOL0     C84970   4.774   3.418   7.449  0.0077  0.0549  0.6206
  630MOL0     C84971   4.895   3.383   7.391 -0.3299 -0.2670  0.0448
  630MOL0     C84972   4.899   3.373   7.250 -0.7245 -0.0918  0.7596
  630MOL0     O84973   5.015   3.348   7.180  0.1877  0.4603 -0.0577
  630MOL0     C84974   5.132   3.285   7.227  0.1250 -0.3059 -0.3079
  630MOL0     C84975   5.116   3.126   7.246  0.1424 -0.4887 -0.1976
  630MOL0     C84976   5.042   3.053   7.131 -0.3340  0.2227  1.3373
  630MOL0     C84977   5.000   2.904   7.164 -0.3116 -0.4563  1.1018
  630MOL0     C84978   5.114   2.813   7.149 -0.6797 -0.2832  0.0379
  630MOL0     C84979   5.201   2.728   7.123 -0.5383 -0.5605  0.5634
  630MOL0     C84980   4.795   3.434   7.182  0.0360  0.1791 -0.2420
  630MOL0     C84981   4.684   3.495   7.237  0.9749  0.5649  0.3092
  630MOL0     C84982   4.588   3.556   7.143  0.0359 -0.3687 -0.0088
  630MOL0     H84983   4.342   3.406   7.591  2.4598 -1.2249  0.9617
  630MOL0     H84984   4.187   3.414   7.767  0.4120 -0.5406 -1.2291
  630MOL0     H84985   4.269   3.460   8.113 -0.9486 -0.0879 -1.9344
  630MOL0     H84986   4.243   3.635   8.157 -2.5691  0.5205  2.7989
  630MOL0     H84987   3.994   3.589   8.136  0.0392  0.1020  0.9234
  630MOL0     H84988   4.090   3.553   8.283  0.6583  0.0885  0.2751
  630MOL0     H84989   4.009   3.360   8.065 -0.6714  1.4277 -0.3212
  630MOL0     H84990   3.904   3.395   8.181  0.1751 -1.6023 -2.2729
  630MOL0     H84991   4.194   3.299   8.267 -0.3912  1.9035  1.6394
  630MOL0     H84992   4.062   3.291   8.374 -0.6059  2.2127  1.2929
  630MOL0     H84993   4.066   3.128   8.123 -0.4005 -1.3176 -0.4009
  630MOL0     H84994   4.098   3.085   8.291  1.3700 -0.1459 -1.5656
  630MOL0     H84995   3.864   3.149   8.349  3.3358 -1.6509  1.3599
  630MOL0     H84996   3.829   3.176   8.186 -0.3652  0.3785  0.8808
  630MOL0     H84997   3.884   2.918   8.339 -1.5626  3.0639  2.2498
  630MOL0     H84998   3.921   2.919   8.163  0.4436 -0.0874  0.4941
  630MOL0     H84999   3.666   2.994   8.286  0.9606 -0.0954  0.8253
  630MOL0     H85000   3.710   2.972   8.105  3.3448  0.7809 -0.3378
  630MOL0     H85001   3.575   2.775   8.418 -4.8006 -2.9931 -0.7719
  630MOL0     H85002   3.610   2.420   8.337  0.1765 -1.0158  4.0064
  630MOL0     H85003   3.517   2.521   8.446  2.8377 -1.0733  0.4826
  630MOL0     H85004   3.337   2.555   8.280 -0.3515  0.8196 -3.3072
  630MOL0     H85005   3.414   2.445   8.170 -4.9941  1.5988 -1.1648
  630MOL0     H85006   3.346   2.359   8.451 -2.8839 -0.4062  0.4139
  630MOL0     H85007   3.387   2.266   8.295  1.3250  1.8254 -1.2051
  630MOL0     H85008   3.143   2.240   8.333 -0.6927 -0.7286 -1.2255
  630MOL0     H85009   3.194   2.347   8.195 -1.3904 -0.2330 -0.4687
  630MOL0     H85010   2.915   2.273   8.226 -1.8089 -0.7239 -0.0472
  630MOL0     H85011   2.704   2.331   8.173  1.0820  0.3341 -0.3476
  630MOL0     H85012   2.431   2.830   8.461  0.9406 -1.7288 -0.4266
  630MOL0     H85013   2.218   2.957   8.454  0.1906  0.9770 -1.0045
  630MOL0     H85014   1.943   2.855   8.106 -3.3526  0.8078 -0.0389
  630MOL0     H85015   1.852   2.976   8.185  0.1989  1.5119 -0.7884
  630MOL0     H85016   1.986   3.156   8.114 -1.6043 -2.5957  3.8241
  630MOL0     H85017   2.122   3.053   8.066  0.9678 -3.3360  1.1739
  630MOL0     H85018   2.022   3.111   7.856 -1.0382  2.6558  0.9108
  630MOL0     H85019   1.995   2.947   7.878  0.5056  1.2338 -3.2431
  630MOL0     H85020   1.782   3.158   7.957 -1.5553 -0.0464 -1.2025
  630MOL0     H85021   1.755   2.987   7.916  0.4689  0.2472  0.4931
  630MOL0     H85022   1.859   3.027   7.687 -0.7182 -1.6204  1.0380
  630MOL0     H85023   1.856   3.195   7.726  1.5058 -0.6711 -3.5670
  630MOL0     H85024   1.605   3.017   7.741 -1.3504  1.4794  0.1094
  630MOL0     H85025   1.592   3.190   7.734  1.4532  0.8553 -0.5766
  630MOL0     H85026   1.651   3.019   7.491 -3.9152 -2.0060  1.7250
  630MOL0     H85027   1.699   3.185   7.507 -0.6477  0.1621  0.4002
  630MOL0     H85028   1.465   3.265   7.566 -1.5490 -0.6929  0.4984
  630MOL0     H85029   1.477   3.199   7.406 -2.4022  1.1554 -0.2133
  630MOL0     H85030   2.125   2.765   8.076  0.2213 -0.0646 -0.1080
  630MOL0     H85031   2.345   2.658   8.078 -3.0287 -0.5779 -0.6383
  630MOL0     H85032   2.758   2.729   8.356  0.0331 -1.2216  2.2162
  630MOL0     H85033   2.986   2.649   8.405 -0.7207  0.4236 -1.1863
  630MOL0     H85034   4.401   3.735   7.959 -2.3188 -0.9660  0.8762
  630MOL0     H85035   4.574   3.714   7.776  0.0123 -0.2304  0.9971
  630MOL0     H85036   4.752   3.398   7.553 -1.1229 -1.0618  0.1885
  630MOL0     H85037   4.972   3.345   7.457 -1.1111 -1.4410  0.3326
  630MOL0     H85038   5.168   3.339   7.316 -1.0631 -0.1463  0.0897
  630MOL0     H85039   5.213   3.301   7.155  0.0012 -1.6518 -0.7823
  630MOL0     H85040   5.056   3.104   7.335  0.1173  0.4317  0.0181
  630MOL0     H85041   5.220   3.092   7.250  2.0184  3.5596 -4.9684
  630MOL0     H85042   5.104   3.064   7.042 -0.2426  0.4698  1.4325
  630MOL0     H85043   4.942   3.096   7.126 -1.2321 -1.8349  0.4888
  630MOL0     H85044   4.965   2.906   7.268  0.2301 -0.0915  1.2818
  630MOL0     H85045   4.915   2.877   7.100 -0.1762 -0.8080  1.0690
  630MOL0     H85046   5.277   2.668   7.079 -0.1942 -0.4385  0.9913
  630MOL0     H85047   4.815   3.425   7.075  1.8318  1.1929 -0.0334
  630MOL0     H85048   4.636   3.564   7.045  2.9611  0.8997  1.3987
  630MOL0     H85049   4.507   3.483   7.145 -0.9762  0.5299 -2.7467
  630MOL0     H85050   4.568   3.658   7.176 -0.5025  0.3475 -2.3257
  631MOL0     O85051   9.665   4.248   8.997 -0.6329  0.1966 -0.4429
  631MOL0     C85052   9.600   4.166   8.937 -0.0786  0.7091 -0.0828
  631MOL0     O85053   9.480   4.119   8.976 -0.1378  0.1316 -0.8058
  631MOL0     C85054   9.417   4.199   9.068  0.2016 -0.1681 -0.3663
  631MOL0     C85055   9.433   4.192   9.203 -0.0054  0.6697 -0.2812
  631MOL0     C85056   9.373   4.272   9.296  0.2287  0.3753 -0.1398
  631MOL0     C85057   9.290   4.375   9.257  0.6432 -0.1939  0.0653
  631MOL0     O85058   9.219   4.454   9.340 -0.2798  0.0834  0.1489
  631MOL0     C85059   9.121   4.391   9.418 -0.1452 -1.0259 -0.2063
  631MOL0     C85060   9.035   4.496   9.494 -0.3739 -0.1182  0.2621
  631MOL0     C85061   8.893   4.439   9.552 -0.0074 -0.4277 -0.4218
  631MOL0     C85062   8.904   4.313   9.629  0.2982 -0.2881 -0.6595
  631MOL0     C85063   8.771   4.249   9.666 -1.1036  0.9325 -0.2872
  631MOL0     C85064   8.692   4.314   9.775 -0.1490  0.1540  0.6480
  631MOL0     C85065   8.765   4.335   9.907  0.1367  0.1969  0.5773
  631MOL0     C85066   8.678   4.291  10.020 -0.1242  0.5626  0.3258
  631MOL0     N85067   8.575   4.392  10.042  0.1540  0.8839 -0.1022
  631MOL0     C85068   8.583   4.470  10.151 -0.9128 -0.9104 -0.2897
  631MOL0     C85069   8.479   4.556  10.144  0.2270 -0.0362 -0.0470
  631MOL0     C85070   8.445   4.642  10.263  0.7825 -0.0910  0.5998
  631MOL0     C85071   8.360   4.765  10.245  0.3343  0.2059  0.0679
  631MOL0     C85072   8.414   4.860  10.131  0.2678 -0.1096  0.8040
  631MOL0     C85073   8.360   5.002  10.157  0.8700 -0.4828  0.2269
  631MOL0     O85074   8.398   5.068  10.033 -0.4616 -0.4337  0.8206
  631MOL0     C85075   8.420   5.207  10.024  0.2782  1.0999 -0.3045
  631MOL0     C85076   8.445   5.301  10.129 -0.2026 -0.9850 -0.2135
  631MOL0     C85077   8.475   5.437  10.106  0.2066  0.6160  0.0207
  631MOL0     C85078   8.484   5.476   9.971 -0.0638 -0.1446 -0.7756
  631MOL0     C85079   8.512   5.620   9.932 -0.0486 -0.2669 -0.1374
  631MOL0     O85080   8.458   5.659   9.815  0.4009 -0.3358  0.6151
  631MOL0     C85081   8.463   5.791   9.767  0.0415 -0.2254  0.7782
  631MOL0     C85082   8.441   5.915   9.835 -0.2128 -0.7335 -0.4606
  631MOL0     C85083   8.446   6.038   9.771 -0.2935  0.1603 -0.1020
  631MOL0     C85084   8.464   6.036   9.634 -1.0135 -0.2930 -0.1655
  631MOL0     O85085   8.441   6.161   9.579  0.4307 -0.1450 -0.4753
  631MOL0     C85086   8.430   6.171   9.436  0.3646 -0.0869  0.4749
  631MOL0     C85087   8.340   6.287   9.402  0.4241  0.9965  0.4635
  631MOL0     C85088   8.368   6.416   9.475 -0.1475 -0.1346 -0.0102
  631MOL0     C85089   8.497   6.485   9.436  0.3667  0.1008  0.2162
  631MOL0     C85090   8.528   6.610   9.523  0.2356  1.1039  0.3587
  631MOL0     C85091   8.678   6.620   9.567  0.6637 -0.3595  0.4294
  631MOL0     C85092   8.700   6.547   9.698  1.2388  0.1436 -0.2857
  631MOL0     C85093   8.650   6.402   9.704 -0.1095 -0.2669 -0.3240
  631MOL0    Cl85094   8.760   6.299   9.594 -0.0968 -0.0688 -0.1757
  631MOL0     C85095   8.496   5.917   9.560  0.3819  0.8972  0.0841
  631MOL0     C85096   8.488   5.794   9.625 -1.8371  0.3636  1.1265
  631MOL0     O85097   8.556   5.691  10.022  0.6599 -0.7562 -0.3576
  631MOL0     C85098   8.444   5.384   9.870  0.9124  0.2142  0.8609
  631MOL0     C85099   8.427   5.256   9.896  1.1984 -0.3175  0.6606
  631MOL0     N85100   8.408   4.525  10.032 -0.1449 -0.4153 -0.9006
  631MOL0     N85101   8.463   4.424   9.973  0.0117  0.8551  0.1701
  631MOL0     C85102   9.270   4.396   9.120  0.0423 -0.2430  0.8497
  631MOL0     C85103   9.324   4.303   9.028 -1.0107  0.0605  0.7377
  631MOL0     C85104   9.647   4.127   8.803  0.2179 -0.0313 -0.8991
  631MOL0     C85105   9.729   4.219   8.732 -0.0409 -0.2541  0.2518
  631MOL0     C85106   9.777   4.192   8.602  0.4305 -0.8561 -0.2881
  631MOL0     C85107   9.753   4.065   8.544 -0.6892  1.1584  0.6365
  631MOL0     O85108   9.810   4.025   8.427 -0.1234 -0.2571 -0.1657
  631MOL0     C85109   9.946   3.995   8.449 -0.0439 -0.0242 -0.3191
  631MOL0     C85110  10.013   4.005   8.308 -0.3118 -0.3102 -0.0582
  631MOL0     C85111  10.030   4.151   8.261  0.2769 -0.5593  0.0262
  631MOL0     C85112  10.011   4.166   8.109  0.8858 -0.2656 -0.7480
  631MOL0     C85113  10.040   4.304   8.081  1.3182  0.0953 -0.8652
  631MOL0     C85114  10.081   4.408   8.045 -0.4556 -0.1913 -0.3052
  631MOL0     C85115   9.683   3.976   8.625  0.0447 -0.2429 -1.0072
  631MOL0     C85116   9.624   4.002   8.747 -0.1398  0.2478  0.5720
  631MOL0     C85117   9.559   3.884   8.817 -0.7650 -0.5862  0.4954
  631MOL0     H85118   9.496   4.112   9.241  2.1263  0.7541 -3.3041
  631MOL0     H85119   9.415   4.264   9.396  1.1461  0.5285 -0.5075
  631MOL0     H85120   9.055   4.332   9.354 -0.9401  0.2705 -0.6150
  631MOL0     H85121   9.168   4.322   9.488  1.5161  1.1736  0.9546
  631MOL0     H85122   9.012   4.573   9.420 -0.3549 -1.5013 -1.2357
  631MOL0     H85123   9.104   4.531   9.571  0.2401 -0.6500 -0.0362
  631MOL0     H85124   8.825   4.427   9.467 -2.8647  1.3242  1.4959
  631MOL0     H85125   8.847   4.515   9.614  2.3413 -0.0036  0.9394
  631MOL0     H85126   8.954   4.240   9.566  0.1112 -1.2613  0.2934
  631MOL0     H85127   8.962   4.323   9.721 -2.1514 -2.0808  1.2324
  631MOL0     H85128   8.714   4.220   9.577  1.4239 -1.5433 -1.2690
  631MOL0     H85129   8.805   4.156   9.713 -1.6970  1.4120  1.1405
  631MOL0     H85130   8.674   4.418   9.745  1.1615 -0.1153 -1.2327
  631MOL0     H85131   8.601   4.255   9.776 -0.0588  0.0138  0.6847
  631MOL0     H85132   8.813   4.433   9.921 -0.2669  1.1235 -3.3759
  631MOL0     H85133   8.852   4.271   9.891 -0.4375 -0.2009 -1.0375
  631MOL0     H85134   8.639   4.191  10.000  2.7992 -0.6361  0.0996
  631MOL0     H85135   8.744   4.269  10.104  1.2566 -2.6244 -1.4136
  631MOL0     H85136   8.652   4.473  10.235 -3.7715 -0.1001  2.2095
  631MOL0     H85137   8.408   4.568  10.335 -1.0767 -0.1632 -0.3795
  631MOL0     H85138   8.541   4.676  10.304  0.0239 -0.5804  2.8898
  631MOL0     H85139   8.259   4.737  10.216 -0.6798  1.8613  1.8195
  631MOL0     H85140   8.364   4.814  10.343 -0.8900 -0.8207  0.6559
  631MOL0     H85141   8.362   4.822  10.042  0.9258 -2.8402  1.4856
  631MOL0     H85142   8.522   4.849  10.116  0.5629  2.8272  0.2331
  631MOL0     H85143   8.406   5.054  10.241  0.4265 -0.0284  0.1936
  631MOL0     H85144   8.251   5.009  10.159  0.7670 -1.8509  0.6080
  631MOL0     H85145   8.441   5.275  10.234 -2.3186  0.9645  0.2942
  631MOL0     H85146   8.488   5.507  10.188 -1.7042  2.5123 -1.1602
  631MOL0     H85147   8.413   5.903   9.940 -1.4260 -2.1459 -0.9155
  631MOL0     H85148   8.441   6.129   9.830 -2.7007 -1.3346  2.2149
  631MOL0     H85149   8.530   6.172   9.390  1.6112 -0.5233  2.9925
  631MOL0     H85150   8.385   6.086   9.384  1.9971  0.3353 -1.8015
  631MOL0     H85151   8.357   6.303   9.295 -0.8524 -0.2278  0.0579
  631MOL0     H85152   8.237   6.254   9.417  0.6837  0.6460  1.6568
  631MOL0     H85153   8.285   6.479   9.440 -1.3622 -2.5316 -1.7837
  631MOL0     H85154   8.355   6.400   9.582  1.8822 -0.8376  0.1638
  631MOL0     H85155   8.496   6.523   9.333  3.2036 -1.0219 -0.3025
  631MOL0     H85156   8.583   6.418   9.429  2.7989  2.9263  0.9411
  631MOL0     H85157   8.460   6.602   9.608 -1.3006 -2.3418 -1.0302
  631MOL0     H85158   8.496   6.701   9.470 -4.3984  0.4528  1.5852
  631MOL0     H85159   8.744   6.574   9.493 -1.2988 -1.1995 -0.9169
  631MOL0     H85160   8.701   6.726   9.578 -2.3405  0.3157  1.3690
  631MOL0     H85161   8.632   6.601   9.765  1.6818  0.4479 -0.0784
  631MOL0     H85162   8.800   6.553   9.742  0.1696 -2.0947  2.8070
  631MOL0     H85163   8.652   6.362   9.806 -0.9513 -2.3419 -1.0721
  631MOL0     H85164   8.551   6.390   9.660  0.8134 -2.1099 -2.0555
  631MOL0     H85165   8.528   5.927   9.457  2.1562  2.2581  0.7135
  631MOL0     H85166   8.523   5.706   9.572 -2.7134  0.5061  0.2828
  631MOL0     H85167   8.417   5.416   9.770 -0.7987 -0.3055  1.1344
  631MOL0     H85168   8.405   5.187   9.816  2.4355  1.2205 -1.1126
  631MOL0     H85169   9.200   4.465   9.075 -0.8747 -0.1518  2.3551
  631MOL0     H85170   9.300   4.320   8.924 -1.2073 -2.5956  0.2908
  631MOL0     H85171   9.742   4.321   8.770 -1.0034  1.0986 -2.7515
  631MOL0     H85172   9.826   4.272   8.547 -3.0833  0.8987 -1.1402
  631MOL0     H85173   9.965   3.893   8.484 -2.7360 -0.4635  0.0428
  631MOL0     H85174   9.988   4.066   8.521  1.4404 -0.2268 -0.9506
  631MOL0     H85175   9.946   3.947   8.243 -0.3229 -1.9474  1.3171
  631MOL0     H85176  10.108   3.952   8.317 -1.5565 -2.4428  1.7498
  631MOL0     H85177  10.135   4.170   8.284 -0.1922  0.3775  1.4834
  631MOL0     H85178   9.957   4.223   8.299 -1.9559 -1.8157 -1.6508
  631MOL0     H85179  10.078   4.102   8.052  0.6537 -0.0214 -1.3122
  631MOL0     H85180   9.910   4.131   8.085  2.1538 -3.3336 -2.0167
  631MOL0     H85181  10.127   4.504   8.032  0.1197 -0.2282  1.2680
  631MOL0     H85182   9.675   3.876   8.584  1.6217  1.4362 -6.2226
  631MOL0     H85183   9.542   3.798   8.751  0.6495  0.6788 -1.6381
  631MOL0     H85184   9.624   3.849   8.898  0.9167  1.2014 -0.0046
  631MOL0     H85185   9.464   3.915   8.863 -0.3525 -0.2107  1.1011
  632MOL0     O85186   4.502   5.895   0.637  0.5217 -0.6083 -0.3450
  632MOL0     C85187   4.619   5.906   0.676 -0.1755  0.6948  0.8341
  632MOL0     O85188   4.708   6.003   0.638  1.2433 -0.1903 -0.7942
  632MOL0     C85189   4.650   6.124   0.601 -0.8469 -1.0583  0.5784
  632MOL0     C85190   4.530   6.179   0.646  0.4061 -0.7551  0.9026
  632MOL0     C85191   4.484   6.300   0.588  0.6322  0.4884 -0.2930
  632MOL0     C85192   4.551   6.352   0.479  0.2795 -0.0988  1.3450
  632MOL0     O85193   4.484   6.462   0.420 -0.0285  0.2377 -0.0385
  632MOL0     C85194   4.532   6.523   0.301  0.3696 -1.3971 -0.1128
  632MOL0     C85195   4.453   6.463   0.184  0.6561 -0.1111 -0.2625
  632MOL0     C85196   4.471   6.540   0.054  0.2648 -0.3289  0.8430
  632MOL0     C85197   4.368   6.661   0.059 -0.2071  0.1244  0.6421
  632MOL0     C85198   4.210   6.619   0.077 -0.4525 -0.6745  0.0069
  632MOL0     C85199   4.118   6.726   0.025 -0.8071 -0.7248 -0.4890
  632MOL0     C85200   3.974   6.704   0.036  0.0494  0.2444 -1.4047
  632MOL0     C85201   3.930   6.661   0.178  0.2551 -0.2394  0.0483
  632MOL0     N85202   3.802   6.694   0.238  0.1288  0.0610 -0.1002
  632MOL0     C85203   3.684   6.628   0.221  0.3145 -0.3102  0.7459
  632MOL0     C85204   3.593   6.724   0.248  0.2113  0.0968 -0.5991
  632MOL0     C85205   3.439   6.719   0.237  0.7230 -0.3373  0.2363
  632MOL0     C85206   3.394   6.686   0.373 -0.1190 -0.0623 -1.4242
  632MOL0     C85207   3.241   6.681   0.389  1.1350  0.9504 -0.7090
  632MOL0     C85208   3.195   6.681   0.535  0.3025 -0.2713  0.0246
  632MOL0     O85209   3.221   6.559   0.604 -0.1173  0.7639 -0.3978
  632MOL0     C85210   3.267   6.584   0.731 -0.5755  0.2191  0.4660
  632MOL0     C85211   3.381   6.526   0.774 -0.3946  0.4470 -0.4567
  632MOL0     C85212   3.436   6.545   0.906 -0.4424  0.1786 -0.5902
  632MOL0     C85213   3.362   6.626   0.994 -0.1579 -0.7712 -1.2796
  632MOL0     C85214   3.412   6.644   1.138 -0.2448  0.1757 -0.6685
  632MOL0     O85215   3.367   6.756   1.223 -0.3060 -0.1056  0.5719
  632MOL0     C85216   3.368   6.750   1.358 -0.0463  0.4121 -0.9731
  632MOL0     C85217   3.338   6.876   1.413 -0.1012 -0.5807 -0.2242
  632MOL0     C85218   3.334   6.898   1.551  0.2610 -0.2997 -1.1744
  632MOL0     C85219   3.355   6.784   1.639  0.7239 -0.8668 -1.1685
  632MOL0     O85220   3.351   6.780   1.778 -0.1370 -0.0626  0.7863
  632MOL0     C85221   3.381   6.894   1.848  0.1303  0.1068  0.8496
  632MOL0     C85222   3.251   6.973   1.897  0.1669 -0.1311  0.5651
  632MOL0     C85223   3.175   6.894   2.004 -0.3437  0.0563  0.6841
  632MOL0     C85224   3.035   6.948   2.032 -0.2477 -0.1701  0.2998
  632MOL0     C85225   2.963   6.869   2.138 -0.0071 -0.2832  0.9586
  632MOL0     C85226   3.019   6.907   2.278 -0.4503  0.1227  0.8581
  632MOL0     C85227   2.991   6.803   2.385  0.2953  0.3348  0.7386
  632MOL0     C85228   2.859   6.809   2.459 -0.2079 -0.5384 -0.2584
  632MOL0    Cl85229   2.836   6.972   2.530 -0.4970 -0.3068 -0.1486
  632MOL0     C85230   3.383   6.657   1.585 -0.6969 -0.3993  1.1296
  632MOL0     C85231   3.386   6.641   1.443 -0.1966  0.1821 -0.2603
  632MOL0     O85232   3.483   6.554   1.180 -0.0923 -0.6502  0.3143
  632MOL0     C85233   3.245   6.690   0.947 -0.3207 -0.0201  0.2071
  632MOL0     C85234   3.200   6.669   0.819  0.6391 -0.8918  0.2272
  632MOL0     N85235   3.661   6.834   0.302  0.3135 -0.5874 -0.0343
  632MOL0     N85236   3.788   6.812   0.298 -0.3275 -0.1955  0.1789
  632MOL0     C85237   4.677   6.299   0.435 -0.1238 -0.0749 -0.2137
  632MOL0     C85238   4.723   6.183   0.500  0.3787  0.5357 -0.9756
  632MOL0     C85239   4.682   5.790   0.743  0.0024 -0.0492 -0.0622
  632MOL0     C85240   4.818   5.765   0.739  0.6754  0.5039  0.5276
  632MOL0     C85241   4.889   5.675   0.814  0.1773  0.3575 -0.2474
  632MOL0     C85242   4.821   5.597   0.906  0.0509  0.4444  0.0817
  632MOL0     O85243   4.879   5.482   0.956  0.0294  0.4666  0.9071
  632MOL0     C85244   5.008   5.502   1.008  0.3339 -0.2518 -0.3751
  632MOL0     C85245   4.994   5.508   1.159  0.2176 -0.7539  0.7414
  632MOL0     C85246   4.942   5.377   1.211  0.2422  0.2765  0.4260
  632MOL0     C85247   4.785   5.381   1.231  0.1071 -0.6729 -0.4145
  632MOL0     C85248   4.729   5.281   1.335 -0.8041 -0.5392 -0.0354
  632MOL0     C85249   4.681   5.182   1.393 -0.6171  0.8818 -0.4603
  632MOL0     C85250   4.679   5.607   0.912 -0.7812  0.2290  1.0863
  632MOL0     C85251   4.612   5.696   0.825  0.0093 -0.0803 -0.8962
  632MOL0     C85252   4.460   5.695   0.835  0.7670 -0.5497  0.2644
  632MOL0     H85253   4.487   6.130   0.733  0.5994 -0.8203  0.9608
  632MOL0     H85254   4.395   6.345   0.632  1.2626 -0.0022  1.5407
  632MOL0     H85255   4.497   6.626   0.314 -0.4317 -1.6329 -0.3447
  632MOL0     H85256   4.639   6.542   0.289  0.1342  0.0543 -0.0592
  632MOL0     H85257   4.346   6.454   0.205  0.4303  1.9643 -0.2817
  632MOL0     H85258   4.504   6.368   0.164  0.6529  0.0892 -1.2683
  632MOL0     H85259   4.456   6.478  -0.035 -1.9190 -1.1430  1.7027
  632MOL0     H85260   4.571   6.585   0.048  1.9354 -3.8667 -1.9758
  632MOL0     H85261   4.413   6.730   0.131 -0.0720  3.2200 -2.1596
  632MOL0     H85262   4.381   6.722  -0.031 -0.8967  3.1540  2.4466
  632MOL0     H85263   4.201   6.530   0.015 -0.5356  0.3497 -1.5059
  632MOL0     H85264   4.186   6.604   0.183  0.7291 -1.8541  0.1355
  632MOL0     H85265   4.152   6.823   0.064 -1.0288 -0.4115 -1.0708
  632MOL0     H85266   4.133   6.726  -0.083  0.0578 -2.3782 -0.4058
  632MOL0     H85267   3.937   6.627  -0.032 -0.5119 -0.2098 -0.6005
  632MOL0     H85268   3.930   6.803   0.025  1.6793  1.0602 -1.0230
  632MOL0     H85269   3.932   6.551   0.179 -2.0608 -0.3487 -0.1434
  632MOL0     H85270   4.009   6.692   0.246  1.5619 -1.7905 -0.6823
  632MOL0     H85271   3.659   6.525   0.196  0.4411 -0.4784  1.3055
  632MOL0     H85272   3.398   6.818   0.213 -3.6018 -1.7237  1.1524
  632MOL0     H85273   3.405   6.644   0.165 -1.9977 -2.8232  3.8076
  632MOL0     H85274   3.431   6.587   0.403  1.8394 -0.3926 -4.5090
  632MOL0     H85275   3.428   6.768   0.437  0.0867  0.0601 -1.6939
  632MOL0     H85276   3.199   6.593   0.339 -0.1884  2.9062 -3.2278
  632MOL0     H85277   3.192   6.767   0.343  0.1614  1.1092  0.5613
  632MOL0     H85278   3.088   6.701   0.539  0.4960  1.3926 -1.6079
  632MOL0     H85279   3.248   6.764   0.583  0.6374 -0.8032  0.5949
  632MOL0     H85280   3.434   6.455   0.710 -2.0860 -1.0106 -0.3198
  632MOL0     H85281   3.529   6.500   0.938  0.5371  0.9005 -2.2584
  632MOL0     H85282   3.330   6.957   1.341 -1.5220 -1.7502 -1.4745
  632MOL0     H85283   3.317   6.993   1.600 -0.0471  1.0477 -3.7834
  632MOL0     H85284   3.442   6.863   1.934 -0.9445  0.3829  1.7344
  632MOL0     H85285   3.437   6.970   1.793 -0.4987  0.4304  0.6425
  632MOL0     H85286   3.283   7.064   1.948  0.0119 -1.8166  3.8993
  632MOL0     H85287   3.190   7.010   1.814  1.4770 -2.2396 -1.4778
  632MOL0     H85288   3.161   6.795   1.960 -1.0475  1.3208 -2.1701
  632MOL0     H85289   3.239   6.898   2.093  2.7718  0.2323 -1.4239
  632MOL0     H85290   2.980   6.932   1.939  2.9387 -1.5525 -1.5225
  632MOL0     H85291   3.046   7.056   2.044  2.3784 -0.3173 -0.1107
  632MOL0     H85292   2.971   6.762   2.118 -1.9649 -0.0070 -1.8525
  632MOL0     H85293   2.857   6.887   2.118 -0.4298 -3.7032 -0.6693
  632MOL0     H85294   3.127   6.899   2.260 -0.7287 -2.1063 -0.1819
  632MOL0     H85295   2.991   7.007   2.313 -0.2407  0.7104 -0.5555
  632MOL0     H85296   3.066   6.818   2.464 -0.9557 -1.5679  2.3784
  632MOL0     H85297   3.004   6.701   2.349 -2.0701 -0.7378  2.6839
  632MOL0     H85298   2.765   6.796   2.405 -2.5157  0.3471  3.2018
  632MOL0     H85299   2.850   6.737   2.541  1.4040  1.2101  1.5499
  632MOL0     H85300   3.410   6.573   1.648  1.2274 -0.0465  0.8372
  632MOL0     H85301   3.407   6.539   1.410 -0.3895 -0.2587  0.9323
  632MOL0     H85302   3.194   6.763   1.009  1.7959  1.6650  0.0461
  632MOL0     H85303   3.114   6.728   0.789  0.3398 -2.0150 -1.2040
  632MOL0     H85304   4.731   6.346   0.353  0.1344  0.7407  0.4067
  632MOL0     H85305   4.819   6.138   0.477  0.6014  0.2717  0.4334
  632MOL0     H85306   4.896   5.812   0.679  1.9274 -0.9002  0.9746
  632MOL0     H85307   4.992   5.662   0.783  0.3676  1.1475  0.0131
  632MOL0     H85308   5.047   5.597   0.970 -3.4846  1.1335 -1.2522
  632MOL0     H85309   5.089   5.435   0.981 -0.7851 -2.8239  2.1744
  632MOL0     H85310   4.932   5.597   1.171  1.0142  0.0952 -1.0716
  632MOL0     H85311   5.096   5.524   1.197  1.6239 -2.2643 -2.0765
  632MOL0     H85312   4.986   5.353   1.308 -1.6002  0.5800  1.3744
  632MOL0     H85313   4.958   5.292   1.144  0.4695 -1.6826  2.8247
  632MOL0     H85314   4.758   5.479   1.273 -0.4069 -0.5894 -0.9256
  632MOL0     H85315   4.726   5.371   1.139 -1.8559  0.7689  0.5994
  632MOL0     H85316   4.655   5.094   1.448  1.9012  0.4718  0.1843
  632MOL0     H85317   4.629   5.537   0.979  0.5504 -2.1710 -0.3058
  632MOL0     H85318   4.414   5.674   0.738 -2.8869 -1.0318  1.9393
  632MOL0     H85319   4.427   5.612   0.897 -0.4557 -0.0480  0.3076
  632MOL0     H85320   4.420   5.789   0.874  1.3458  0.5929 -1.7349
  633MOL0     O85321   6.543  10.284   7.864 -0.4821  0.2148  0.8515
  633MOL0     C85322   6.443  10.294   7.930 -0.0026 -0.7040  0.0552
  633MOL0     O85323   6.395  10.421   7.967 -0.7673  0.9593 -0.2678
  633MOL0     C85324   6.472  10.529   7.950 -0.8995 -0.0971  0.0704
  633MOL0     C85325   6.492  10.581   7.824 -0.0500 -1.1025  0.4652
  633MOL0     C85326   6.576  10.693   7.809  0.4787 -0.1621 -0.7760
  633MOL0     C85327   6.645  10.745   7.918  0.0285  0.0833 -0.6510
  633MOL0     O85328   6.720  10.859   7.898 -0.7654 -0.6005 -0.9015
  633MOL0     C85329   6.813  10.850   7.793 -0.4637 -0.4050  0.0652
  633MOL0     C85330   6.942  10.894   7.845  0.0252 -0.6930 -0.3698
  633MOL0     C85331   7.054  10.868   7.733 -0.5593  0.7430  0.2785
  633MOL0     C85332   7.185  10.926   7.773 -0.1979 -0.1881  0.4359
  633MOL0     C85333   7.304  10.863   7.697  0.1270 -0.4892 -0.3548
  633MOL0     C85334   7.288  10.858   7.545  0.2888 -0.4084  0.5187
  633MOL0     C85335   7.418  10.846   7.468  0.0873 -0.8356 -0.9208
  633MOL0     C85336   7.486  10.708   7.472  0.6549  0.3147 -0.2549
  633MOL0     N85337   7.613  10.715   7.547 -0.7851  0.2709 -0.1432
  633MOL0     C85338   7.644  10.699   7.681  0.0813 -0.1888 -0.4525
  633MOL0     C85339   7.773  10.743   7.691 -0.8965  0.6659  0.2718
  633MOL0     C85340   7.845  10.782   7.816  0.3640 -0.3586 -0.5173
  633MOL0     C85341   7.808  10.928   7.835  0.8367  0.9128 -0.1261
  633MOL0     C85342   7.865  10.992   7.963 -1.3016 -0.2972  0.8576
  633MOL0     C85343   7.809  10.942   8.089  0.4956  0.3742  0.0597
  633MOL0     O85344   7.673  10.980   8.094  0.1808  0.3512  0.3370
  633MOL0     C85345   7.566  10.888   8.102  0.8301  0.1468 -0.1916
  633MOL0     C85346   7.456  10.947   8.157  0.2785  0.1012 -0.3188
  633MOL0     C85347   7.330  10.889   8.150 -0.1204 -0.3461 -0.6150
  633MOL0     C85348   7.310  10.757   8.129 -0.6846  0.0049 -0.5843
  633MOL0     C85349   7.175  10.689   8.133  1.2945 -0.4548  0.1573
  633MOL0     O85350   7.175  10.547   8.113 -0.0425 -1.2582  0.1834
  633MOL0     C85351   7.066  10.490   8.174 -0.5617  0.9868 -0.1548
  633MOL0     C85352   6.964  10.435   8.100  0.8303  0.4261  0.0347
  633MOL0     C85353   6.861  10.353   8.146 -0.8960 -1.1309  0.0718
  633MOL0     C85354   6.877  10.325   8.277 -0.5029 -0.5463 -0.2446
  633MOL0     O85355   6.792  10.236   8.326 -0.0619  0.3483 -0.0243
  633MOL0     C85356   6.689  10.291   8.407  0.1832  0.2718  0.1980
  633MOL0     C85357   6.587  10.179   8.445  1.3875 -1.6034 -0.7851
  633MOL0     C85358   6.615  10.109   8.573  0.2242  0.3831 -0.0068
  633MOL0     C85359   6.719  10.000   8.546 -0.0524 -0.1439 -0.5909
  633MOL0     C85360   6.738   9.928   8.680 -0.4147 -0.0035  0.9866
  633MOL0     C85361   6.847   9.826   8.655  0.1214  0.5101  0.5562
  633MOL0     C85362   6.846   9.711   8.552  0.4105 -0.3783  0.6916
  633MOL0     C85363   6.953   9.603   8.588 -0.1150  0.2154 -0.3946
  633MOL0    Cl85364   7.107   9.683   8.575 -0.5410  0.0792  0.6884
  633MOL0     C85365   6.967  10.385   8.366 -1.2757 -0.0456  0.2436
  633MOL0     C85366   7.069  10.463   8.313 -0.9106 -0.3275 -0.1502
  633MOL0     O85367   7.080  10.752   8.183 -0.0397  0.2694 -0.6198
  633MOL0     C85368   7.426  10.685   8.097 -0.9934  0.0132  0.3267
  633MOL0     C85369   7.555  10.749   8.093  0.4618  0.8436  0.0791
  633MOL0     N85370   7.820  10.776   7.566  0.1596 -0.4538  0.0501
  633MOL0     N85371   7.728  10.752   7.489 -0.8013 -0.0363 -0.1433
  633MOL0     C85372   6.637  10.680   8.040  0.2909 -0.3890 -0.5496
  633MOL0     C85373   6.546  10.572   8.059  0.7816 -0.6805 -0.7192
  633MOL0     C85374   6.352  10.176   7.958 -0.0305 -0.7092  1.3904
  633MOL0     C85375   6.375  10.062   7.878  0.0410 -0.1343 -0.2240
  633MOL0     C85376   6.290   9.951   7.886  0.0900  0.0139 -0.3538
  633MOL0     C85377   6.165   9.953   7.955  0.0152  0.0915 -0.1911
  633MOL0     O85378   6.085   9.840   7.949  0.0191 -0.7857 -0.0517
  633MOL0     C85379   5.970   9.833   8.032  0.0929 -0.8979  0.2776
  633MOL0     C85380   5.889   9.706   8.013 -0.6916 -0.2519  0.1816
  633MOL0     C85381   5.860   9.671   7.857 -0.5344 -0.5720 -0.3341
  633MOL0     C85382   5.771   9.554   7.840  0.1940  0.4272  0.7939
  633MOL0     C85383   5.806   9.430   7.917 -0.5580  0.2348  0.5898
  633MOL0     C85384   5.841   9.327   7.962 -0.4361 -0.2087 -0.3352
  633MOL0     C85385   6.145  10.071   8.024  0.8426 -0.9966 -0.3544
  633MOL0     C85386   6.234  10.171   8.037 -0.5905  0.0401  0.4305
  633MOL0     C85387   6.197  10.280   8.125 -0.0008 -0.2916 -0.5907
  633MOL0     H85388   6.436  10.544   7.739  1.6345 -0.0438 -1.1829
  633MOL0     H85389   6.570  10.748   7.716 -0.9717  2.5535  0.7927
  633MOL0     H85390   6.835  10.750   7.756 -0.3811  0.9265 -3.9981
  633MOL0     H85391   6.791  10.911   7.704 -1.0078 -1.4119 -0.5007
  633MOL0     H85392   6.966  10.834   7.933  2.3110  0.6930  0.0252
  633MOL0     H85393   6.920  10.997   7.876 -1.0562 -1.0684  0.1688
  633MOL0     H85394   7.023  10.902   7.634 -1.2591 -0.6438  0.0003
  633MOL0     H85395   7.065  10.760   7.722  0.6437  0.9277 -0.4592
  633MOL0     H85396   7.191  11.035   7.771  0.1858 -0.2149 -1.0667
  633MOL0     H85397   7.194  10.908   7.880  0.1778 -2.4045  0.0708
  633MOL0     H85398   7.386  10.929   7.727 -0.8492  0.4760  0.2672
  633MOL0     H85399   7.328  10.762   7.732  1.6680  0.1175  0.4429
  633MOL0     H85400   7.228  10.768   7.528  3.2031 -2.8517  2.1983
  633MOL0     H85401   7.231  10.943   7.505 -0.0531 -1.4985 -1.4098
  633MOL0     H85402   7.487  10.920   7.509 -2.2423 -0.0357  1.9176
  633MOL0     H85403   7.400  10.861   7.361  1.4918 -0.5977 -1.1353
  633MOL0     H85404   7.418  10.635   7.517 -1.3315  1.3429 -1.4919
  633MOL0     H85405   7.507  10.670   7.372  1.6176  1.1618 -0.3872
  633MOL0     H85406   7.594  10.686   7.776  1.0745 -1.3953 -0.0720
  633MOL0     H85407   7.817  10.718   7.900  1.3997  0.3116  0.3794
  633MOL0     H85408   7.954  10.791   7.807  0.3609 -1.1829 -1.6733
  633MOL0     H85409   7.851  10.984   7.751  0.9786  0.5705 -0.2848
  633MOL0     H85410   7.699  10.928   7.835  0.7568 -0.0247 -2.7680
  633MOL0     H85411   7.849  11.100   7.966  3.6244  0.6804  0.6779
  633MOL0     H85412   7.974  10.991   7.971 -1.1822  0.8127 -0.3673
  633MOL0     H85413   7.843  10.990   8.181 -3.1442  1.6022  0.9176
  633MOL0     H85414   7.821  10.834   8.101  2.1012  0.7098  2.2184
  633MOL0     H85415   7.467  11.047   8.198 -1.5520 -1.0703  3.4008
  633MOL0     H85416   7.239  10.947   8.165 -0.0172 -0.0784 -1.0184
  633MOL0     H85417   6.964  10.451   7.993  1.7557  0.3188  0.0090
  633MOL0     H85418   6.779  10.315   8.087 -1.3876  2.2897 -1.6918
  633MOL0     H85419   6.720  10.349   8.494  0.3628  1.0397 -0.3737
  633MOL0     H85420   6.640  10.362   8.340 -1.2254 -2.1292 -1.4870
  633MOL0     H85421   6.493  10.226   8.476  3.3553  1.4312  1.1106
  633MOL0     H85422   6.570  10.121   8.353 -2.9431  1.2091 -2.0599
  633MOL0     H85423   6.661  10.187   8.635  2.7690 -2.6538  2.2721
  633MOL0     H85424   6.528  10.058   8.614 -0.6316  3.0097  1.6541
  633MOL0     H85425   6.809  10.046   8.503  0.9480 -2.4553 -1.0922
  633MOL0     H85426   6.688   9.923   8.476 -0.0724 -1.2369  0.5787
  633MOL0     H85427   6.640   9.891   8.709 -0.0119 -1.3042  0.7520
  633MOL0     H85428   6.773   9.994   8.760 -0.8084  1.0628  0.2987
  633MOL0     H85429   6.929   9.895   8.633 -0.3509  0.5977 -1.0371
  633MOL0     H85430   6.875   9.786   8.753  2.0010  0.9802  0.2523
  633MOL0     H85431   6.849   9.741   8.447  1.1961 -0.9431  0.5451
  633MOL0     H85432   6.751   9.656   8.559  0.6832 -1.3014 -1.8559
  633MOL0     H85433   6.945   9.557   8.686  0.5991 -2.0403 -1.3247
  633MOL0     H85434   6.943   9.516   8.522 -0.3023  0.8761 -1.2643
  633MOL0     H85435   6.952  10.365   8.472  1.5446  1.3973  1.0204
  633MOL0     H85436   7.158  10.496   8.366 -0.9931  0.0707 -0.2510
  633MOL0     H85437   7.424  10.576   8.093 -1.7740  0.0335  0.0898
  633MOL0     H85438   7.640  10.683   8.075 -1.4796 -1.6703 -0.4287
  633MOL0     H85439   6.700  10.702   8.126  0.1457  0.4435 -0.6408
  633MOL0     H85440   6.551  10.524   8.156 -0.8644  2.0734  0.8649
  633MOL0     H85441   6.465  10.045   7.820  0.6861  0.6148  0.5363
  633MOL0     H85442   6.303   9.854   7.840  0.5988 -1.7083  3.0584
  633MOL0     H85443   5.899   9.914   8.011  0.1345  0.3346  4.0406
  633MOL0     H85444   5.981   9.851   8.139 -1.5492  2.3571  0.0433
  633MOL0     H85445   5.801   9.721   8.075 -0.6173  0.9378  0.0300
  633MOL0     H85446   5.950   9.624   8.052  1.4336  1.1442 -0.0496
  633MOL0     H85447   5.954   9.666   7.800 -1.1824 -1.6516 -1.3621
  633MOL0     H85448   5.806   9.756   7.815  1.8716  1.9388  1.2846
  633MOL0     H85449   5.676   9.592   7.879 -0.6040 -0.6724 -0.0122
  633MOL0     H85450   5.759   9.532   7.734 -0.9039  1.4945  0.6750
  633MOL0     H85451   5.882   9.238   8.004 -0.3231 -0.3307 -0.7077
  633MOL0     H85452   6.059  10.079   8.090  1.8340 -1.6581  1.0744
  633MOL0     H85453   6.142  10.347   8.059 -0.3402  0.4158  0.3880
  633MOL0     H85454   6.133  10.244   8.206 -1.7194  0.8792 -1.3834
  633MOL0     H85455   6.278  10.337   8.173 -0.6883 -2.1751  3.1735
  634MOL0     O85456   8.974   3.237   3.466  0.1146  0.2321  0.2184
  634MOL0     C85457   9.020   3.338   3.419  0.1700 -0.5723  0.2950
  634MOL0     O85458   8.954   3.416   3.332  0.3815 -0.5479 -0.4489
  634MOL0     C85459   8.821   3.407   3.340  0.3824  0.6631 -0.1188
  634MOL0     C85460   8.746   3.298   3.285 -0.2292  0.3957  0.5612
  634MOL0     C85461   8.607   3.296   3.290 -0.2557  0.3066 -0.2604
  634MOL0     C85462   8.544   3.410   3.344  0.4028  0.1805  1.0403
  634MOL0     O85463   8.408   3.422   3.361  0.4322  0.1072  0.0083
  634MOL0     C85464   8.352   3.320   3.442  0.5049 -1.1809 -0.2301
  634MOL0     C85465   8.207   3.352   3.489  0.3032 -0.8368  0.2138
  634MOL0     C85466   8.160   3.259   3.598  0.1554  0.1689 -0.0345
  634MOL0     C85467   8.160   3.115   3.553 -0.9615  0.4669 -0.4624
  634MOL0     C85468   8.080   3.029   3.639 -0.6716 -0.5722 -0.9085
  634MOL0     C85469   8.070   3.068   3.792  1.0351  0.7085 -0.2729
  634MOL0     C85470   8.203   3.062   3.864 -0.2961 -0.2085 -0.2994
  634MOL0     C85471   8.178   3.017   4.012 -0.5961 -1.0029  0.7521
  634MOL0     N85472   8.062   3.079   4.072  0.1969 -0.8455  0.3254
  634MOL0     C85473   8.067   3.195   4.144  1.0098 -0.1480 -0.3495
  634MOL0     C85474   7.944   3.195   4.202  1.1504 -0.7562 -0.4254
  634MOL0     C85475   7.882   3.313   4.274 -0.3119  0.2552 -0.5743
  634MOL0     C85476   7.965   3.360   4.398  0.2503  0.1904 -0.0744
  634MOL0     C85477   7.902   3.447   4.511 -0.6926 -0.3617 -0.0599
  634MOL0     C85478   7.968   3.410   4.652  0.6623 -0.5458 -0.8325
  634MOL0     O85479   7.923   3.273   4.692 -0.3746 -0.3762  0.7453
  634MOL0     C85480   7.807   3.246   4.759 -0.2212 -0.1797 -0.2515
  634MOL0     C85481   7.785   3.116   4.822  0.8090  0.5652 -0.1363
  634MOL0     C85482   7.653   3.080   4.867 -0.6033  0.7160  0.0455
  634MOL0     C85483   7.550   3.172   4.879  0.7541  0.6308  0.4553
  634MOL0     C85484   7.419   3.139   4.940 -0.6164 -0.1056 -0.2557
  634MOL0     O85485   7.410   3.015   4.990 -0.0219  0.3250 -0.2796
  634MOL0     C85486   7.304   2.969   5.058  0.9043 -0.0467 -0.0802
  634MOL0     C85487   7.268   3.023   5.182 -0.0948  0.0946  0.9134
  634MOL0     C85488   7.165   2.961   5.258 -0.5078  0.1145 -0.0268
  634MOL0     C85489   7.109   2.845   5.216  0.1318  1.2176  0.6812
  634MOL0     O85490   6.998   2.796   5.284  0.2598  0.3157 -0.3496
  634MOL0     C85491   7.004   2.660   5.337 -1.0100 -0.3424  0.1203
  634MOL0     C85492   6.904   2.635   5.456 -0.9080 -0.5436 -0.4454
  634MOL0     C85493   6.948   2.707   5.583  0.6019  0.0989 -0.4262
  634MOL0     C85494   6.821   2.746   5.670 -0.8280 -0.6615  0.0953
  634MOL0     C85495   6.865   2.788   5.811  0.7829 -1.0977  0.2689
  634MOL0     C85496   6.766   2.897   5.867  0.2528 -0.4320  0.0153
  634MOL0     C85497   6.697   2.857   6.000  0.3350  0.5185  0.3188
  634MOL0     C85498   6.569   2.943   6.024  0.0286  0.3801  0.9022
  634MOL0    Cl85499   6.511   2.900   6.198  0.1504 -0.1602 -0.3570
  634MOL0     C85500   7.155   2.788   5.097 -0.6790 -0.1656 -0.1223
  634MOL0     C85501   7.247   2.848   5.014  0.3307  1.2012 -0.7385
  634MOL0     O85502   7.335   3.227   4.940 -0.3045  0.7020  0.3122
  634MOL0     C85503   7.577   3.301   4.829  0.0204 -0.0463 -0.0431
  634MOL0     C85504   7.699   3.335   4.764  0.2039 -0.1569 -0.9464
  634MOL0     N85505   7.874   3.093   4.162  0.0021 -0.3304  0.2531
  634MOL0     N85506   7.943   3.020   4.088 -0.2602  0.2119  0.3884
  634MOL0     C85507   8.617   3.517   3.395 -0.3344  0.5449  0.2137
  634MOL0     C85508   8.754   3.517   3.399 -0.5000 -0.0332  0.6056
  634MOL0     C85509   9.167   3.346   3.408  0.1453 -0.4307  0.3909
  634MOL0     C85510   9.220   3.308   3.279  0.2403 -0.6021  0.6158
  634MOL0     C85511   9.356   3.306   3.269 -0.3063 -0.8100  0.4629
  634MOL0     C85512   9.436   3.330   3.377 -0.8952  0.8641  0.4992
  634MOL0     O85513   9.574   3.322   3.342 -0.8652  0.3876 -0.4906
  634MOL0     C85514   9.659   3.419   3.412 -0.6276 -0.1637  1.2274
  634MOL0     C85515   9.809   3.396   3.368  0.3586 -0.0572  0.2392
  634MOL0     C85516   9.921   3.434   3.468  1.0284  0.3671  0.5278
  634MOL0     C85517  10.034   3.327   3.456  0.0854  0.0590  0.1141
  634MOL0     C85518  10.074   3.307   3.314 -0.2414 -0.5396 -0.1437
  634MOL0     C85519  10.102   3.294   3.191 -1.3493  1.1394 -0.6997
  634MOL0     C85520   9.389   3.365   3.506  0.0387 -0.1081  0.7139
  634MOL0     C85521   9.247   3.367   3.517 -0.9125 -0.3460 -0.5578
  634MOL0     C85522   9.203   3.392   3.654  1.2935  0.3451  0.9800
  634MOL0     H85523   8.789   3.210   3.239  0.0781  1.8588 -2.1105
  634MOL0     H85524   8.543   3.215   3.256  0.4144 -0.1406 -0.4849
  634MOL0     H85525   8.358   3.226   3.387  3.0535  0.4650 -3.0812
  634MOL0     H85526   8.404   3.302   3.537  1.4477 -3.7511 -1.1551
  634MOL0     H85527   8.135   3.369   3.409  2.2978  2.7750 -1.0168
  634MOL0     H85528   8.221   3.451   3.532 -2.5094 -0.7552  1.1434
  634MOL0     H85529   8.069   3.304   3.639 -0.6879  0.9282 -2.5808
  634MOL0     H85530   8.233   3.262   3.680 -0.9348  1.1104  0.9271
  634MOL0     H85531   8.135   3.121   3.446  0.8871  2.1101 -0.8721
  634MOL0     H85532   8.268   3.103   3.563 -1.1206  1.0611  2.8682
  634MOL0     H85533   7.982   3.028   3.591  0.1473  0.0125 -2.7253
  634MOL0     H85534   8.122   2.927   3.636  3.0276  0.7170  0.7960
  634MOL0     H85535   8.020   3.163   3.814 -1.0725 -0.9793  3.0796
  634MOL0     H85536   8.006   2.997   3.845  3.3981 -0.3871  1.2777
  634MOL0     H85537   8.243   3.164   3.868  1.6961 -0.9821  1.3070
  634MOL0     H85538   8.278   2.995   3.822  0.2878 -1.0481  1.9330
  634MOL0     H85539   8.181   2.908   4.009  0.6676 -0.9654 -0.6867
  634MOL0     H85540   8.268   3.056   4.061 -1.0114  1.7936 -0.4816
  634MOL0     H85541   8.140   3.274   4.157 -0.1523  0.6329  2.1338
  634MOL0     H85542   7.879   3.395   4.202  1.7062  1.2843  0.4468
  634MOL0     H85543   7.779   3.282   4.294  0.4179 -1.0792  1.4066
  634MOL0     H85544   8.007   3.271   4.446 -0.4745  0.0002  0.2071
  634MOL0     H85545   8.061   3.400   4.362  0.1435  0.8328  0.3350
  634MOL0     H85546   7.796   3.424   4.519 -0.5747 -1.3884 -1.0867
  634MOL0     H85547   7.910   3.551   4.480 -3.3821 -0.1326 -0.2133
  634MOL0     H85548   7.954   3.491   4.723  3.0939  0.2232 -1.1293
  634MOL0     H85549   8.077   3.414   4.644  1.0010 -0.2422  2.6317
  634MOL0     H85550   7.864   3.042   4.823  0.3924  0.0783 -1.4707
  634MOL0     H85551   7.646   2.984   4.918 -1.3891  1.3210  1.0965
  634MOL0     H85552   7.318   3.111   5.220  1.2764  0.5599 -1.7243
  634MOL0     H85553   7.140   2.999   5.356 -0.9948  1.2806 -0.5750
  634MOL0     H85554   6.992   2.591   5.253  0.7145 -1.0537  0.4113
  634MOL0     H85555   7.108   2.647   5.371 -0.7360  1.7458  0.2139
  634MOL0     H85556   6.813   2.688   5.427 -0.2173 -0.3358 -2.4343
  634MOL0     H85557   6.879   2.529   5.467  0.4463 -0.9604 -1.1674
  634MOL0     H85558   7.003   2.631   5.638 -3.0706 -0.8542  2.3311
  634MOL0     H85559   7.010   2.793   5.557  1.4756 -0.0878  0.9477
  634MOL0     H85560   6.747   2.665   5.679 -1.1500 -0.2067  1.8532
  634MOL0     H85561   6.769   2.825   5.615 -1.0179 -3.1557 -3.6589
  634MOL0     H85562   6.958   2.845   5.810 -0.2031  0.5969 -1.0781
  634MOL0     H85563   6.890   2.706   5.879  2.2006  0.6431  1.9822
  634MOL0     H85564   6.825   2.989   5.877 -3.4227  2.0876  0.6343
  634MOL0     H85565   6.693   2.925   5.791  0.6740  4.3899  1.0793
  634MOL0     H85566   6.775   2.882   6.073  1.3339  0.9398 -0.8485
  634MOL0     H85567   6.668   2.752   6.007  0.1750  0.6096  1.0647
  634MOL0     H85568   6.590   3.050   6.010  3.0184 -0.4328 -2.5711
  634MOL0     H85569   6.487   2.912   5.957  1.7333 -1.3245 -0.4998
  634MOL0     H85570   7.104   2.693   5.087 -0.0446 -0.5998  0.5995
  634MOL0     H85571   7.287   2.797   4.927  3.0764 -0.3179  1.2773
  634MOL0     H85572   7.491   3.368   4.833  0.0371 -0.0547  0.5231
  634MOL0     H85573   7.704   3.434   4.719 -2.0229  0.3141 -0.3049
  634MOL0     H85574   8.576   3.604   3.446  1.9042  1.7911  0.0090
  634MOL0     H85575   8.810   3.604   3.432  0.1436  0.8500 -2.4586
  634MOL0     H85576   9.163   3.289   3.188 -0.5137  0.0408  0.9432
  634MOL0     H85577   9.400   3.277   3.174 -1.7491  1.1566 -0.8648
  634MOL0     H85578   9.662   3.398   3.519  0.7078  0.3036  1.3042
  634MOL0     H85579   9.617   3.520   3.409 -0.1694  0.0314 -1.4709
  634MOL0     H85580   9.827   3.440   3.269  0.8029 -1.1236 -0.1757
  634MOL0     H85581   9.818   3.288   3.353 -0.9499 -0.1514 -0.0059
  634MOL0     H85582   9.882   3.445   3.570 -1.8223  0.5478 -0.4988
  634MOL0     H85583   9.952   3.534   3.438 -2.4982  1.1175 -1.1780
  634MOL0     H85584  10.127   3.345   3.510  1.6317 -0.5145 -2.1936
  634MOL0     H85585  10.000   3.231   3.496  0.7841 -0.5790 -0.7677
  634MOL0     H85586  10.119   3.274   3.088 -0.3748 -0.9395 -0.1839
  634MOL0     H85587   9.451   3.374   3.594  1.1164 -0.9664  0.0736
  634MOL0     H85588   9.250   3.322   3.724  1.0800  0.2027  0.9824
  634MOL0     H85589   9.219   3.494   3.691  0.8770  0.0763  1.9241
  634MOL0     H85590   9.099   3.360   3.658  1.6444 -1.6665 -2.1014
  635MOL0     O85591   9.681   4.017   3.178  0.4712  0.5772 -0.4741
  635MOL0     C85592   9.722   3.905   3.161 -0.1198 -0.5145  0.1786
  635MOL0     O85593   9.647   3.800   3.127 -0.2919 -0.4907 -0.0697
  635MOL0     C85594   9.505   3.793   3.123  0.9133 -0.3460  0.0770
  635MOL0     C85595   9.407   3.896   3.118 -0.0314  0.6135  0.2797
  635MOL0     C85596   9.275   3.871   3.108  0.3091 -0.7604 -1.1207
  635MOL0     C85597   9.223   3.742   3.084  0.0478 -0.2711  0.4089
  635MOL0     O85598   9.091   3.706   3.064  0.2589 -0.5757 -0.2807
  635MOL0     C85599   8.983   3.790   3.113 -0.1249 -0.5997  0.9743
  635MOL0     C85600   8.857   3.703   3.096  0.5632 -0.1137 -1.0073
  635MOL0     C85601   8.730   3.794   3.107 -0.2671 -0.7322  0.1043
  635MOL0     C85602   8.608   3.723   3.064  0.3152 -0.2580  0.5613
  635MOL0     C85603   8.478   3.805   3.089 -0.4991  0.3379 -0.2991
  635MOL0     C85604   8.444   3.784   3.241 -0.0055 -0.4485 -0.4405
  635MOL0     C85605   8.338   3.886   3.292  0.3342 -0.6956  0.5846
  635MOL0     C85606   8.297   3.866   3.441  0.0336  0.3312 -0.1786
  635MOL0     N85607   8.405   3.902   3.531  0.9252  0.3728  0.0505
  635MOL0     C85608   8.468   4.032   3.530 -0.1154 -0.4488  0.3957
  635MOL0     C85609   8.557   4.022   3.627  0.4362 -0.3103 -0.0191
  635MOL0     C85610   8.649   4.135   3.658  0.0716 -0.2726  0.2400
  635MOL0     C85611   8.637   4.151   3.815 -0.8735 -0.5040  0.5231
  635MOL0     C85612   8.742   4.239   3.875 -0.7305 -0.4889 -0.3643
  635MOL0     C85613   8.728   4.251   4.036  0.6513 -0.0942  0.8386
  635MOL0     O85614   8.746   4.129   4.095  0.3609  1.1800  0.0265
  635MOL0     C85615   8.854   4.120   4.186 -0.9491  0.2962  1.1498
  635MOL0     C85616   8.841   4.157   4.322 -0.3208  0.2598 -0.1277
  635MOL0     C85617   8.937   4.142   4.417 -0.0926 -0.7769  0.3507
  635MOL0     C85618   9.059   4.077   4.368 -0.1570  0.1971 -0.7451
  635MOL0     C85619   9.170   4.046   4.459  0.7468  0.5266  0.2694
  635MOL0     O85620   9.145   4.044   4.592 -0.0034  0.6473 -0.5200
  635MOL0     C85621   9.248   4.064   4.682 -0.5261 -0.3113 -0.4873
  635MOL0     C85622   9.329   4.184   4.671 -0.0582  0.6171 -0.2219
  635MOL0     C85623   9.427   4.195   4.762 -0.0746  0.2841  0.4581
  635MOL0     C85624   9.450   4.100   4.860 -0.2190 -0.0281 -1.0531
  635MOL0     O85625   9.566   4.111   4.936 -0.4511  0.8584  0.4985
  635MOL0     C85626   9.549   4.156   5.074  0.2813 -1.1495 -0.3023
  635MOL0     C85627   9.492   4.303   5.089 -0.3691  0.4259 -0.1467
  635MOL0     C85628   9.410   4.320   5.219  0.5800  0.3137  0.2266
  635MOL0     C85629   9.384   4.472   5.244  0.6012  1.3143  0.7790
  635MOL0     C85630   9.285   4.481   5.361 -0.0898 -0.6484  0.4583
  635MOL0     C85631   9.354   4.458   5.497  0.5565 -0.1930 -0.5415
  635MOL0     C85632   9.265   4.463   5.629  0.4080  0.5131  0.7236
  635MOL0     C85633   9.355   4.479   5.755  0.0376 -0.1076  0.4851
  635MOL0    Cl85634   9.258   4.482   5.913 -0.3848  0.3752  0.6093
  635MOL0     C85635   9.359   3.997   4.884 -0.1818 -0.0151  0.1207
  635MOL0     C85636   9.250   3.988   4.792 -0.2172 -0.6594 -0.7290
  635MOL0     O85637   9.277   4.033   4.407 -0.1712  0.1375 -0.1286
  635MOL0     C85638   9.078   4.045   4.233 -0.0677 -0.2994 -0.5724
  635MOL0     C85639   8.977   4.066   4.140  0.6594 -0.7971 -0.2006
  635MOL0     N85640   8.548   3.884   3.679  0.0774 -0.1601  0.7935
  635MOL0     N85641   8.461   3.815   3.614 -0.1665  0.2933  0.0272
  635MOL0     C85642   9.316   3.638   3.096  0.5441  0.0379 -0.0215
  635MOL0     C85643   9.447   3.664   3.122  0.5336  0.5711  0.1716
  635MOL0     C85644   9.863   3.869   3.167  1.0326 -0.3338 -1.0354
  635MOL0     C85645   9.891   3.733   3.179 -0.1368 -0.4143  0.4399
  635MOL0     C85646  10.027   3.696   3.181  0.0941  0.3070 -0.3080
  635MOL0     C85647  10.128   3.782   3.163  1.0041  0.7204  0.0730
  635MOL0     O85648  10.252   3.742   3.131 -0.0129  0.3299 -0.3683
  635MOL0     C85649  10.296   3.605   3.144 -0.0508 -0.8635  0.0981
  635MOL0     C85650  10.444   3.604   3.126 -0.0538  0.9325  0.1630
  635MOL0     C85651  10.518   3.670   3.244 -0.7979 -0.6825  0.3192
  635MOL0     C85652  10.676   3.692   3.225 -0.2934  1.0100  0.4177
  635MOL0     C85653  10.740   3.562   3.249 -0.3328 -0.0305 -0.3344
  635MOL0     C85654  10.803   3.459   3.258 -0.0829 -0.1056 -0.2321
  635MOL0     C85655  10.098   3.920   3.160 -0.6192 -0.2669  0.5901
  635MOL0     C85656   9.963   3.960   3.161  0.2723 -0.3064 -0.5831
  635MOL0     C85657   9.941   4.106   3.153  0.5709 -0.4997 -0.5379
  635MOL0     H85658   9.429   4.001   3.137 -1.1272  1.2679 -1.7358
  635MOL0     H85659   9.204   3.954   3.108  1.1370  0.1765  3.0245
  635MOL0     H85660   9.004   3.808   3.219 -3.9835  1.5124  1.5527
  635MOL0     H85661   8.978   3.891   3.073 -1.2044 -0.1047  2.3068
  635MOL0     H85662   8.864   3.630   3.177  2.9899  1.7512  0.6124
  635MOL0     H85663   8.851   3.649   3.001 -1.1995 -0.9815 -0.4510
  635MOL0     H85664   8.738   3.888   3.051  1.4990 -0.3573  0.9153
  635MOL0     H85665   8.721   3.813   3.214 -2.7374  4.0453 -0.6565
  635MOL0     H85666   8.601   3.714   2.955 -0.0739  1.7054  0.4033
  635MOL0     H85667   8.594   3.627   3.116  0.0825  0.3226  1.5892
  635MOL0     H85668   8.476   3.912   3.066 -3.2971  0.6163  0.7722
  635MOL0     H85669   8.401   3.764   3.023  1.6892 -0.4067 -2.5429
  635MOL0     H85670   8.403   3.684   3.259 -1.1044  0.1576  0.5895
  635MOL0     H85671   8.524   3.806   3.312 -0.3138  0.4793 -0.3684
  635MOL0     H85672   8.251   3.866   3.229  0.0016  0.2769  0.7277
  635MOL0     H85673   8.360   3.992   3.282  1.2049 -0.6812  2.2812
  635MOL0     H85674   8.207   3.924   3.465 -2.4146 -2.0709 -2.8935
  635MOL0     H85675   8.281   3.761   3.466  1.8021  0.6579  2.7938
  635MOL0     H85676   8.444   4.126   3.483  1.9080 -0.6809 -1.2535
  635MOL0     H85677   8.750   4.110   3.625  0.4550  1.0061  0.3662
  635MOL0     H85678   8.611   4.224   3.606 -0.9793  1.0894  3.1029
  635MOL0     H85679   8.537   4.195   3.826 -2.2668 -2.2889 -3.1730
  635MOL0     H85680   8.634   4.059   3.874 -1.9026  0.3626  1.8896
  635MOL0     H85681   8.748   4.340   3.833  1.1151 -0.4031  0.0319
  635MOL0     H85682   8.844   4.205   3.860 -0.6428 -0.5949  0.4438
  635MOL0     H85683   8.633   4.300   4.059 -0.3926 -0.9083 -1.3759
  635MOL0     H85684   8.806   4.317   4.073  1.2385  1.0659 -2.1345
  635MOL0     H85685   8.751   4.191   4.373 -0.7807 -0.0233 -0.7404
  635MOL0     H85686   8.907   4.174   4.517 -1.8621  2.0667 -0.9846
  635MOL0     H85687   9.318   4.251   4.586  3.0336  0.2977 -0.9916
  635MOL0     H85688   9.496   4.278   4.750 -1.1124  0.8091 -3.3309
  635MOL0     H85689   9.488   4.085   5.132  0.6943 -0.5776  0.8571
  635MOL0     H85690   9.650   4.156   5.115  0.8595  0.1364 -1.6358
  635MOL0     H85691   9.586   4.360   5.092  2.3413 -3.5316 -1.5487
  635MOL0     H85692   9.425   4.330   5.007  1.6359  1.0665 -1.6640
  635MOL0     H85693   9.313   4.274   5.198  0.4311  0.4531  0.6137
  635MOL0     H85694   9.458   4.263   5.299 -0.6855 -3.7984 -1.6714
  635MOL0     H85695   9.332   4.518   5.159 -1.1092  1.5387  1.8935
  635MOL0     H85696   9.482   4.520   5.254  0.5119  1.5084  0.7389
  635MOL0     H85697   9.205   4.409   5.347  0.0001 -0.3795 -1.7415
  635MOL0     H85698   9.239   4.580   5.361 -1.6755 -1.3660 -0.4006
  635MOL0     H85699   9.417   4.368   5.499  0.6460 -0.1242  1.2167
  635MOL0     H85700   9.429   4.537   5.509  1.1782 -0.7303 -0.8293
  635MOL0     H85701   9.201   4.374   5.633 -1.1752  1.6201  1.2084
  635MOL0     H85702   9.201   4.551   5.628 -0.1383  0.1259 -0.8676
  635MOL0     H85703   9.430   4.399   5.751  1.2444  1.0203 -0.0496
  635MOL0     H85704   9.401   4.577   5.740 -1.8437  1.2105  2.6334
  635MOL0     H85705   9.373   3.929   4.967  2.0780 -0.0612 -0.2393
  635MOL0     H85706   9.173   3.912   4.805 -1.2487  0.3097 -1.0226
  635MOL0     H85707   9.176   4.027   4.191  0.2098 -0.7767  0.2627
  635MOL0     H85708   8.999   4.044   4.036  4.2493 -3.0337  0.8858
  635MOL0     H85709   9.290   3.532   3.093  3.8131 -0.8668 -2.1030
  635MOL0     H85710   9.516   3.582   3.140 -1.9416 -1.4983  0.8257
  635MOL0     H85711   9.814   3.657   3.178  0.4166 -1.1802 -3.5346
  635MOL0     H85712  10.040   3.588   3.187  1.6107  0.4072 -1.3399
  635MOL0     H85713  10.245   3.545   3.068 -0.0416 -1.1539  0.3182
  635MOL0     H85714  10.268   3.559   3.240 -1.0796 -0.6891 -0.1026
  635MOL0     H85715  10.486   3.655   3.039  1.9236 -0.5830  0.1629
  635MOL0     H85716  10.483   3.503   3.113  1.2805  1.1088  2.2512
  635MOL0     H85717  10.495   3.617   3.337  1.7366 -0.2189  1.2983
  635MOL0     H85718  10.476   3.771   3.250  0.6557  0.0272 -0.9268
  635MOL0     H85719  10.719   3.729   3.131  2.7193 -2.9495  0.0022
  635MOL0     H85720  10.706   3.755   3.309  0.4194  0.2832  0.7195
  635MOL0     H85721  10.857   3.368   3.249 -1.6752 -1.0417 -0.8276
  635MOL0     H85722  10.179   3.993   3.161 -0.9845  0.1341  1.0477
  635MOL0     H85723   9.900   4.150   3.245 -1.0335  0.1724 -1.5328
  635MOL0     H85724  10.033   4.158   3.123  0.2099 -1.3503 -3.3443
  635MOL0     H85725   9.866   4.128   3.077  0.5484 -1.3047 -0.7610
  636MOL0     O85726   3.355  10.459   1.749  0.2983  0.0895 -0.2066
  636MOL0     C85727   3.318  10.383   1.663  0.6297 -0.0882  0.4700
  636MOL0     O85728   3.222  10.424   1.574 -0.5395 -0.4015 -0.6867
  636MOL0     C85729   3.198  10.560   1.566 -0.8715  0.3619 -0.7932
  636MOL0     C85730   3.189  10.652   1.672  0.0264  0.3082  0.0689
  636MOL0     C85731   3.175  10.785   1.653  0.6273 -1.2820  0.4205
  636MOL0     C85732   3.177  10.840   1.517 -0.1963 -0.4246 -0.7476
  636MOL0     O85733   3.160  10.977   1.491  0.1592 -0.3559  1.1973
  636MOL0     C85734   3.033  11.029   1.536  0.1806  0.8624  0.6426
  636MOL0     C85735   2.996  11.141   1.439 -0.4146  0.3212  0.1675
  636MOL0     C85736   2.879  11.234   1.479  0.2791  0.6793 -0.4500
  636MOL0     C85737   2.834  11.330   1.371 -0.4156  0.0641  0.3185
  636MOL0     C85738   2.688  11.335   1.347 -0.6543  1.3843  0.0686
  636MOL0     C85739   2.604  11.374   1.461  1.1611  0.2728  0.4356
  636MOL0     C85740   2.459  11.330   1.430 -1.5390  0.3261 -0.1324
  636MOL0     C85741   2.439  11.188   1.493 -0.0281 -0.3277 -1.0381
  636MOL0     N85742   2.499  11.081   1.424  0.3023 -0.4541 -0.0589
  636MOL0     C85743   2.483  11.049   1.295 -0.6866 -0.1443  0.4332
  636MOL0     C85744   2.562  10.945   1.266  0.4063  0.1551  0.4194
  636MOL0     C85745   2.563  10.850   1.156  0.9939 -0.9891  0.2760
  636MOL0     C85746   2.617  10.914   1.027  0.9172 -0.6117 -0.1954
  636MOL0     C85747   2.760  10.958   1.036 -0.4116  1.2022 -0.0923
  636MOL0     C85748   2.846  10.828   1.058  0.1953  0.3628  0.8818
  636MOL0     O85749   2.824  10.724   0.953  0.2075  0.3394 -0.0899
  636MOL0     C85750   2.907  10.605   0.950  0.6173  0.0094 -0.0825
  636MOL0     C85751   2.993  10.570   1.051  0.2267 -0.0550  0.0363
  636MOL0     C85752   3.078  10.453   1.035 -1.1917 -0.1548  0.2198
  636MOL0     C85753   3.072  10.368   0.920 -0.4455 -0.0993  1.0101
  636MOL0     C85754   3.163  10.254   0.897 -0.7917  0.1429 -0.5986
  636MOL0     O85755   3.239  10.211   1.003  0.0056 -0.6402  0.2909
  636MOL0     C85756   3.320  10.106   1.015  0.5601  0.1828 -0.7641
  636MOL0     C85757   3.322  10.005   0.915 -0.2700  0.4132 -0.3270
  636MOL0     C85758   3.397   9.890   0.943  0.1698 -0.2360  0.1781
  636MOL0     C85759   3.486   9.891   1.051 -0.6328  0.2616 -0.5166
  636MOL0     O85760   3.566   9.779   1.068  0.0325 -0.4281  0.6582
  636MOL0     C85761   3.495   9.665   1.121 -0.6008 -1.1624  0.5316
  636MOL0     C85762   3.481   9.538   1.018  0.2809 -0.2018  0.2485
  636MOL0     C85763   3.400   9.430   1.085 -0.9856 -1.2556 -0.1280
  636MOL0     C85764   3.441   9.292   1.024 -0.5389 -0.0917 -0.5084
  636MOL0     C85765   3.377   9.168   1.083 -0.0612  0.0527 -0.5609
  636MOL0     C85766   3.428   9.154   1.226 -0.5891  0.0286 -1.0150
  636MOL0     C85767   3.565   9.081   1.227  0.0825 -0.0765 -0.4320
  636MOL0     C85768   3.572   8.943   1.293 -0.1243  0.2608  0.5830
  636MOL0    Cl85769   3.740   8.913   1.344  0.4216 -0.2901 -0.2719
  636MOL0     C85770   3.488   9.997   1.139 -0.8875  0.3820 -0.1467
  636MOL0     C85771   3.403  10.107   1.121  0.2726 -0.4501 -0.0688
  636MOL0     O85772   3.157  10.202   0.788 -0.3355 -0.1640  1.0576
  636MOL0     C85773   2.973  10.403   0.820 -0.6136 -0.5546 -0.2725
  636MOL0     C85774   2.904  10.521   0.831  1.0120  0.0356  0.1932
  636MOL0     N85775   2.639  10.925   1.377 -0.0050 -0.2432 -0.0886
  636MOL0     N85776   2.593  10.999   1.479  0.0786  0.1034  0.4259
  636MOL0     C85777   3.204  10.747   1.409  0.3806  0.3469 -0.7215
  636MOL0     C85778   3.215  10.611   1.435 -0.3206 -0.7455 -1.2445
  636MOL0     C85779   3.383  10.248   1.638  0.5684  1.5476 -0.1752
  636MOL0     C85780   3.355  10.177   1.516 -0.1770 -0.0671  0.0077
  636MOL0     C85781   3.419  10.056   1.486 -0.2042  0.5223 -0.1144
  636MOL0     C85782   3.511   9.991   1.570 -0.3167  0.6971  0.6581
  636MOL0     O85783   3.564   9.865   1.529  0.6627  0.3385  0.2294
  636MOL0     C85784   3.653   9.802   1.613 -1.0985  1.1464  0.8090
  636MOL0     C85785   3.694   9.653   1.568  1.6026 -0.5828  0.1134
  636MOL0     C85786   3.577   9.567   1.520 -0.1434  0.3170  0.2277
  636MOL0     C85787   3.606   9.416   1.498  0.3122 -0.4290 -0.9029
  636MOL0     C85788   3.708   9.401   1.394  0.1794  0.1124  0.1850
  636MOL0     C85789   3.797   9.406   1.313 -0.1811 -0.3971  0.6362
  636MOL0     C85790   3.551  10.064   1.683 -0.1299 -0.5575 -0.1200
  636MOL0     C85791   3.491  10.192   1.719 -0.2126  0.5590 -0.2109
  636MOL0     C85792   3.552  10.263   1.841 -0.2969 -0.4483 -0.7827
  636MOL0     H85793   3.177  10.627   1.777 -0.8398  3.5606  0.8605
  636MOL0     H85794   3.172  10.850   1.740 -3.0919  0.1620 -0.6134
  636MOL0     H85795   2.959  10.949   1.548  0.0748  0.7048 -0.9181
  636MOL0     H85796   3.044  11.074   1.635  1.8605 -0.0508  0.8982
  636MOL0     H85797   2.962  11.086   1.351 -1.6909 -2.9039  2.4870
  636MOL0     H85798   3.089  11.189   1.406  1.1566 -1.2946  1.9746
  636MOL0     H85799   2.906  11.293   1.567 -1.1016  2.9252 -1.4509
  636MOL0     H85800   2.794  11.173   1.512 -1.8174  2.4253 -2.3153
  636MOL0     H85801   2.873  11.427   1.403  2.2027  0.6539 -3.8516
  636MOL0     H85802   2.877  11.294   1.277  1.2830 -1.3182  1.5847
  636MOL0     H85803   2.673  11.404   1.263  0.2221  0.2714 -1.0242
  636MOL0     H85804   2.666  11.235   1.309  0.7095  0.4605  1.6093
  636MOL0     H85805   2.645  11.347   1.558  1.4969  0.8246  0.4509
  636MOL0     H85806   2.613  11.483   1.464  1.8960  0.2081  0.7409
  636MOL0     H85807   2.429  11.321   1.325 -2.1476 -2.9123  0.2058
  636MOL0     H85808   2.404  11.404   1.490 -0.2293  0.9581  0.3167
  636MOL0     H85809   2.485  11.186   1.592  0.5090  0.3751 -1.2670
  636MOL0     H85810   2.333  11.172   1.513  0.3449 -1.1807  0.3917
  636MOL0     H85811   2.401  11.077   1.231  0.2715 -2.1761 -1.8005
  636MOL0     H85812   2.620  10.759   1.176  2.3220 -0.2540 -0.0547
  636MOL0     H85813   2.463  10.812   1.133  1.4846 -0.5056 -3.1151
  636MOL0     H85814   2.601  10.839   0.948 -1.9992 -0.0725 -0.2099
  636MOL0     H85815   2.556  10.999   0.997 -0.1921 -1.1037  0.6021
  636MOL0     H85816   2.764  11.016   1.129 -0.3971  0.1082  0.6105
  636MOL0     H85817   2.788  11.010   0.945  1.6458 -0.5135 -0.5270
  636MOL0     H85818   2.831  10.785   1.157  0.8719 -1.8888  0.0841
  636MOL0     H85819   2.950  10.861   1.054 -0.0656  1.3619  1.8453
  636MOL0     H85820   3.003  10.630   1.141 -0.7379 -1.1355  0.9074
  636MOL0     H85821   3.148  10.430   1.115  0.0241 -0.8768 -1.0164
  636MOL0     H85822   3.264   9.999   0.824 -0.6999 -0.0294 -0.0286
  636MOL0     H85823   3.403   9.808   0.873 -1.0361  1.0652 -1.5303
  636MOL0     H85824   3.550   9.631   1.209  1.1271  1.7383  0.7108
  636MOL0     H85825   3.397   9.706   1.150  0.1772  1.7169 -0.5093
  636MOL0     H85826   3.424   9.576   0.933 -0.2982  0.3075  0.8406
  636MOL0     H85827   3.582   9.504   0.994  0.0747 -1.6440  1.2701
  636MOL0     H85828   3.419   9.422   1.192 -0.4350 -0.0057 -0.1128
  636MOL0     H85829   3.294   9.451   1.067 -0.9567  0.7012  1.6571
  636MOL0     H85830   3.550   9.283   1.028 -0.5922 -2.3932 -2.2662
  636MOL0     H85831   3.403   9.294   0.921 -0.3619  0.1391 -0.5692
  636MOL0     H85832   3.418   9.086   1.024  0.8648  2.4560 -3.4947
  636MOL0     H85833   3.268   9.176   1.083 -0.1015  0.0437  1.3913
  636MOL0     H85834   3.449   9.243   1.287  1.5721 -1.0653 -0.0276
  636MOL0     H85835   3.362   9.091   1.286  1.8075 -2.6432 -0.9563
  636MOL0     H85836   3.640   9.146   1.272  0.8599  1.0674 -3.1576
  636MOL0     H85837   3.608   9.069   1.127 -0.5812 -2.3280 -0.4957
  636MOL0     H85838   3.507   8.938   1.381  1.4260  1.5496  1.8421
  636MOL0     H85839   3.540   8.862   1.226  0.5482 -0.0305  0.6069
  636MOL0     H85840   3.559  10.001   1.221 -1.3272 -2.6639  0.5121
  636MOL0     H85841   3.387  10.190   1.190  0.2778 -1.9572  1.8465
  636MOL0     H85842   2.966  10.342   0.731 -0.3202 -2.1810  0.7815
  636MOL0     H85843   2.848  10.570   0.753 -2.5248  0.1262  2.5675
  636MOL0     H85844   3.218  10.796   1.313  0.5058  0.2133 -0.7712
  636MOL0     H85845   3.229  10.538   1.356  0.5013  0.7186 -2.5093
  636MOL0     H85846   3.290  10.234   1.450 -0.3133  2.2993  2.0258
  636MOL0     H85847   3.380  10.008   1.396 -3.8659 -0.1216  1.6225
  636MOL0     H85848   3.628   9.802   1.719 -3.0186  0.1520  0.4161
  636MOL0     H85849   3.756   9.838   1.606 -1.2523  1.3619 -0.8030
  636MOL0     H85850   3.749   9.607   1.651  3.2794  1.3751  0.1677
  636MOL0     H85851   3.768   9.657   1.487  2.8391 -1.5930  1.1299
  636MOL0     H85852   3.536   9.611   1.429  3.3254 -1.4134 -2.4105
  636MOL0     H85853   3.505   9.572   1.602  0.9135 -1.4194  1.3234
  636MOL0     H85854   3.634   9.374   1.595 -2.0977 -1.2273 -0.4954
  636MOL0     H85855   3.524   9.355   1.459  2.2581 -2.9302 -1.3356
  636MOL0     H85856   3.890   9.413   1.260  0.9008  0.4399  2.5031
  636MOL0     H85857   3.623  10.026   1.755  0.2283 -0.8144 -0.6101
  636MOL0     H85858   3.485  10.251   1.926 -0.2654  0.8322 -0.5532
  636MOL0     H85859   3.635  10.214   1.893 -1.9721 -2.0450  0.4974
  636MOL0     H85860   3.578  10.368   1.824  2.4602 -1.0310 -0.6794
  637MOL0     O85861   8.781   2.100   4.099  0.2321 -0.5104 -0.8569
  637MOL0     C85862   8.745   2.037   3.998 -0.1854  0.5156  1.1112
  637MOL0     O85863   8.623   2.037   3.939 -0.3770 -0.6197 -0.8182
  637MOL0     C85864   8.519   2.116   3.979  0.7510 -0.1342  1.0091
  637MOL0     C85865   8.431   2.156   3.872 -0.4372 -0.6024  1.1765
  637MOL0     C85866   8.325   2.236   3.903  0.1031 -0.3020  0.3186
  637MOL0     C85867   8.281   2.263   4.043  0.1397  0.9939 -0.4966
  637MOL0     O85868   8.186   2.365   4.069  0.6095  0.9468  0.0460
  637MOL0     C85869   8.201   2.496   4.010 -0.3651 -0.6308  0.2041
  637MOL0     C85870   8.134   2.607   4.094 -0.6590  0.0097  0.8901
  637MOL0     C85871   8.214   2.677   4.202  0.2067  0.7104  0.3539
  637MOL0     C85872   8.130   2.783   4.278  0.5028  0.5727  0.0782
  637MOL0     C85873   8.210   2.847   4.389  0.0118  1.0169 -0.6582
  637MOL0     C85874   8.134   2.968   4.455 -0.2523 -0.4395  0.1207
  637MOL0     C85875   8.209   3.032   4.576  0.0833  0.4285  1.0542
  637MOL0     C85876   8.350   3.073   4.555  0.1276 -0.5089  0.6185
  637MOL0     N85877   8.385   3.141   4.430  0.4191 -0.2303 -0.6088
  637MOL0     C85878   8.486   3.110   4.344  0.0389  1.1896  0.3272
  637MOL0     C85879   8.479   3.200   4.242 -0.2608 -0.1807 -0.9793
  637MOL0     C85880   8.586   3.210   4.143 -0.1196 -0.2328  0.3331
  637MOL0     C85881   8.528   3.244   4.005  0.9488  0.3554 -0.0746
  637MOL0     C85882   8.634   3.261   3.891 -0.5081 -0.9002  1.0118
  637MOL0     C85883   8.582   3.277   3.755  0.2642 -0.4488  0.6017
  637MOL0     O85884   8.521   3.151   3.732  0.4787  0.5485  0.2636
  637MOL0     C85885   8.592   3.056   3.667 -0.5035  0.5043 -0.4292
  637MOL0     C85886   8.729   3.076   3.627 -0.2190 -0.8923 -0.3983
  637MOL0     C85887   8.789   2.977   3.549  0.1238  0.7160 -0.6223
  637MOL0     C85888   8.730   2.856   3.507  0.1460 -1.4489  0.2124
  637MOL0     C85889   8.801   2.761   3.422 -0.5729  0.4862 -1.1600
  637MOL0     O85890   8.936   2.750   3.438  0.4453  0.0887 -0.6058
  637MOL0     C85891   8.998   2.638   3.393 -0.3163  0.6572 -0.1386
  637MOL0     C85892   9.140   2.648   3.382 -0.4212 -0.2397  0.6592
  637MOL0     C85893   9.221   2.534   3.351  0.2050  0.3495  0.3008
  637MOL0     C85894   9.161   2.407   3.336  0.2281  0.0109  0.1725
  637MOL0     O85895   9.252   2.308   3.298 -0.3371  0.8041 -0.5772
  637MOL0     C85896   9.209   2.229   3.179  1.0147  0.5144 -0.8941
  637MOL0     C85897   9.274   2.084   3.194 -0.6864 -0.6446  0.2832
  637MOL0     C85898   9.429   2.101   3.207  0.5887  0.1661  0.4559
  637MOL0     C85899   9.499   1.967   3.179  0.0092 -0.6500  0.5962
  637MOL0     C85900   9.645   1.986   3.214 -0.2589 -0.7441  0.2326
  637MOL0     C85901   9.721   2.058   3.105 -0.5885  0.4663  0.3741
  637MOL0     C85902   9.870   2.034   3.093  0.6601 -0.8687  0.3950
  637MOL0     C85903   9.952   2.077   2.973  0.3947  0.0526  0.0411
  637MOL0    Cl85904   9.876   2.010   2.833 -0.2702  0.3791 -0.2600
  637MOL0     C85905   9.022   2.399   3.349  0.1901 -0.1640 -0.7043
  637MOL0     C85906   8.946   2.510   3.377  0.4531  0.7336 -0.4156
  637MOL0     O85907   8.735   2.702   3.344 -0.5239 -0.1195 -0.2193
  637MOL0     C85908   8.593   2.843   3.542 -0.3231 -0.4710 -0.4346
  637MOL0     C85909   8.530   2.934   3.619 -0.1963 -1.0737  0.1520
  637MOL0     N85910   8.375   3.287   4.277 -0.3049 -0.4661 -0.6633
  637MOL0     N85911   8.309   3.247   4.379  0.2387 -0.0363  0.3331
  637MOL0     C85912   8.357   2.202   4.139 -0.3011  0.4258  0.2753
  637MOL0     C85913   8.471   2.129   4.111 -0.1514  0.0042  0.2426
  637MOL0     C85914   8.836   1.928   3.958 -0.4253 -0.0719  1.3669
  637MOL0     C85915   8.778   1.802   3.913 -1.1164 -0.3594  0.1648
  637MOL0     C85916   8.870   1.696   3.884 -0.1782  0.0149 -0.7075
  637MOL0     C85917   9.009   1.706   3.900  0.3232 -1.1191  1.1062
  637MOL0     O85918   9.067   1.580   3.862 -0.9301  0.4930 -0.2205
  637MOL0     C85919   9.206   1.570   3.875 -0.6980  0.0289 -1.3615
  637MOL0     C85920   9.252   1.431   3.812  0.2312 -0.4464  0.2279
  637MOL0     C85921   9.225   1.425   3.662  0.7216  0.0383 -0.0745
  637MOL0     C85922   9.287   1.305   3.587 -0.2610 -0.2112  0.0067
  637MOL0     C85923   9.257   1.317   3.439  0.3062 -0.4708 -0.4591
  637MOL0     C85924   9.229   1.318   3.324 -0.3483 -0.5549 -0.0454
  637MOL0     C85925   9.069   1.826   3.930  0.2244  0.3696  0.2406
  637MOL0     C85926   8.985   1.940   3.956  0.4447  0.4516  0.3342
  637MOL0     C85927   9.057   2.073   3.979 -0.3262 -0.1709  0.7781
  637MOL0     H85928   8.464   2.137   3.771 -0.5241 -0.6402  1.1559
  637MOL0     H85929   8.268   2.286   3.825  2.6736  4.5981  1.1449
  637MOL0     H85930   8.306   2.522   3.994 -1.0854  2.0919 -0.7450
  637MOL0     H85931   8.154   2.498   3.911  1.8665  0.7603 -0.9124
  637MOL0     H85932   8.037   2.584   4.139 -0.2954 -2.9039  0.3936
  637MOL0     H85933   8.108   2.684   4.021 -0.4515 -1.2121 -0.5222
  637MOL0     H85934   8.299   2.724   4.151  1.4015 -2.5846 -0.9789
  637MOL0     H85935   8.255   2.609   4.277  1.3490  4.2953  3.2745
  637MOL0     H85936   8.094   2.864   4.215  1.0212  3.0039  2.6764
  637MOL0     H85937   8.043   2.730   4.317  0.3029  1.3732  0.7610
  637MOL0     H85938   8.216   2.770   4.467 -0.8268 -0.0151 -1.5843
  637MOL0     H85939   8.313   2.874   4.363  0.5960  0.9750  1.4014
  637MOL0     H85940   8.138   3.032   4.366  0.5736 -1.4800 -0.6101
  637MOL0     H85941   8.037   2.935   4.492  0.1985 -2.4615 -0.3836
  637MOL0     H85942   8.207   2.970   4.666 -3.1334  0.2202  0.9401
  637MOL0     H85943   8.159   3.125   4.605  2.5577  2.2970 -0.2786
  637MOL0     H85944   8.399   3.125   4.638  1.3431 -0.6225 -0.0012
  637MOL0     H85945   8.402   2.977   4.544  1.4737 -0.0550  2.4449
  637MOL0     H85946   8.532   3.013   4.361 -2.2890 -0.2597 -1.0928
  637MOL0     H85947   8.649   3.296   4.163  1.7837 -1.4978  0.0856
  637MOL0     H85948   8.641   3.115   4.135  3.6331  1.8754 -1.4611
  637MOL0     H85949   8.469   3.154   3.987  2.5426 -0.8521  0.4913
  637MOL0     H85950   8.458   3.327   4.003  1.1496  0.5095 -1.2365
  637MOL0     H85951   8.696   3.171   3.891  0.5682 -0.2059  2.6928
  637MOL0     H85952   8.702   3.346   3.906 -3.4090  1.5014  1.5687
  637MOL0     H85953   8.651   3.312   3.678  0.5549 -3.0150 -0.3956
  637MOL0     H85954   8.498   3.347   3.761  1.1948  0.8223 -0.5150
  637MOL0     H85955   8.793   3.159   3.654 -1.0730  0.1075 -1.3705
  637MOL0     H85956   8.891   3.001   3.519 -0.3464  3.0099 -0.5291
  637MOL0     H85957   9.195   2.742   3.388  2.4955 -1.6345 -1.5881
  637MOL0     H85958   9.328   2.538   3.333  0.1123 -0.2827 -0.4317
  637MOL0     H85959   9.103   2.204   3.190  1.0349  0.6288 -0.4029
  637MOL0     H85960   9.220   2.264   3.076 -2.4034 -0.7423 -1.8396
  637MOL0     H85961   9.221   2.021   3.267 -0.5063 -0.4536  0.5794
  637MOL0     H85962   9.244   2.035   3.101  2.0415  1.0733 -1.6209
  637MOL0     H85963   9.475   2.180   3.147  4.2332 -1.8079  0.3498
  637MOL0     H85964   9.463   2.128   3.308  5.8264 -0.9592 -0.6776
  637MOL0     H85965   9.493   1.943   3.072 -1.9329 -1.1274  0.7815
  637MOL0     H85966   9.458   1.884   3.236 -0.1490 -1.1776 -0.2577
  637MOL0     H85967   9.683   1.883   3.212  0.2126 -0.6171 -3.4296
  637MOL0     H85968   9.664   2.025   3.314  0.8341 -1.5892  0.3734
  637MOL0     H85969   9.678   2.036   3.007 -0.1753 -3.5730  0.9384
  637MOL0     H85970   9.708   2.165   3.121  2.2856  1.0426 -0.5666
  637MOL0     H85971   9.885   1.926   3.105 -1.5060 -1.2510  0.1286
  637MOL0     H85972   9.916   2.096   3.170  0.0591 -0.1085  0.1533
  637MOL0     H85973   9.947   2.186   2.965  4.5507  0.3308 -1.3002
  637MOL0     H85974  10.060   2.058   2.978  0.5993  1.3438  1.0139
  637MOL0     H85975   8.971   2.303   3.346  0.3139 -0.2189 -1.1576
  637MOL0     H85976   8.839   2.500   3.388  0.4215  1.9278  0.5882
  637MOL0     H85977   8.540   2.754   3.509  0.7945 -0.5573 -2.1272
  637MOL0     H85978   8.427   2.921   3.652 -0.5197  1.1972  0.2280
  637MOL0     H85979   8.303   2.204   4.234  1.2303 -0.0508  1.1881
  637MOL0     H85980   8.534   2.093   4.192 -1.9250 -1.3154  1.1100
  637MOL0     H85981   8.673   1.777   3.902 -1.1019 -0.0675 -0.7677
  637MOL0     H85982   8.824   1.609   3.839 -2.2533  1.8862 -2.4436
  637MOL0     H85983   9.227   1.570   3.982  2.5276 -2.5147 -1.8311
  637MOL0     H85984   9.258   1.657   3.835  1.4634 -0.9723 -0.8769
  637MOL0     H85985   9.209   1.344   3.863  0.0716 -0.9477 -0.7402
  637MOL0     H85986   9.361   1.426   3.826  0.0140  0.0498  2.6232
  637MOL0     H85987   9.264   1.513   3.609 -0.3912  1.4713  1.4039
  637MOL0     H85988   9.117   1.423   3.650  0.8838 -2.7695 -1.9755
  637MOL0     H85989   9.395   1.292   3.585 -0.0434  1.3857  0.5050
  637MOL0     H85990   9.249   1.219   3.643 -2.7916  0.8086  0.0338
  637MOL0     H85991   9.217   1.327   3.218  2.3185  3.3280 -0.2159
  637MOL0     H85992   9.177   1.825   3.945 -0.0433 -0.1428  2.5995
  637MOL0     H85993   9.085   2.089   4.083 -1.7285  2.6602  0.8367
  637MOL0     H85994   9.149   2.084   3.922  2.1230  2.1894  4.6908
  637MOL0     H85995   8.989   2.157   3.959 -0.1748 -0.0942  0.5899
  638MOL0     O85996   9.151  11.001  10.308  0.6288 -0.6376  0.6373
  638MOL0     C85997   9.260  11.058  10.296 -0.5162  0.3582  0.6057
  638MOL0     O85998   9.373  11.010  10.354 -0.2515 -0.2893  0.2351
  638MOL0     C85999   9.376  10.888  10.422 -0.4015  0.2693  0.3580
  638MOL0     C86000   9.365  10.766  10.353 -0.4407 -0.4200  0.6729
  638MOL0     C86001   9.384  10.641  10.416 -0.7179  0.1889 -1.0228
  638MOL0     C86002   9.413  10.647  10.555  1.0253  0.2629  0.0887
  638MOL0     O86003   9.411  10.527  10.617 -0.1367  0.3737  0.9371
  638MOL0     C86004   9.331  10.517  10.729 -0.6858  0.0160  0.9545
  638MOL0     C86005   9.259  10.391  10.733 -0.4278 -0.8175  0.1792
  638MOL0     C86006   9.124  10.399  10.806  0.6561  0.0872  0.6769
  638MOL0     C86007   9.145  10.437  10.956  0.7333 -0.1516 -0.4060
  638MOL0     C86008   9.046  10.370  11.059  0.7667 -0.0843  0.6722
  638MOL0     C86009   9.098  10.389  11.205  0.5795 -0.9518  0.3509
  638MOL0     C86010   9.001  10.337  11.303 -0.5009  0.9662 -0.1071
  638MOL0     C86011   9.049  10.351  11.446  0.0869 -0.6635  0.0122
  638MOL0     N86012   8.933  10.348  11.534  0.0141 -0.4645 -0.2482
  638MOL0     C86013   8.942  10.369  11.671 -0.5458  1.3933 -0.1553
  638MOL0     C86014   8.813  10.347  11.723  0.2422 -0.4956 -0.1073
  638MOL0     C86015   8.751  10.339  11.862 -0.6916 -0.0920  0.0600
  638MOL0     C86016   8.808  10.446  11.950  0.1577 -0.0841 -0.4735
  638MOL0     C86017   8.759  10.423  12.099 -0.1878  0.8375 -0.2942
  638MOL0     C86018   8.799  10.528  12.205 -0.9038 -0.3578 -0.2665
  638MOL0     O86019   8.938  10.551  12.172 -0.6137 -0.4601  0.3223
  638MOL0     C86020   9.005  10.654  12.233 -0.3198  0.3844  1.1040
  638MOL0     C86021   9.140  10.671  12.205  0.1386 -0.3382  0.6596
  638MOL0     C86022   9.215  10.774  12.266  0.4547 -0.9431 -0.2402
  638MOL0     C86023   9.164  10.863  12.360 -0.2646 -0.0770 -0.9655
  638MOL0     C86024   9.237  10.975  12.428  0.6684 -0.5681  0.2422
  638MOL0     O86025   9.327  11.031  12.344 -0.1410 -0.0736 -1.0983
  638MOL0     C86026   9.430  11.103  12.397 -0.7566  0.9291 -0.0848
  638MOL0     C86027   9.419  11.240  12.427  0.2824  1.3184  0.2034
  638MOL0     C86028   9.540  11.305  12.466  0.7731  1.3095  0.0853
  638MOL0     C86029   9.658  11.234  12.492 -0.4400  0.7172 -0.7091
  638MOL0     O86030   9.781  11.292  12.515  0.2236 -0.4758 -0.1392
  638MOL0     C86031   9.786  11.385  12.624  0.3435  0.0186  0.3726
  638MOL0     C86032   9.904  11.339  12.715  0.0557 -0.0676  0.0341
  638MOL0     C86033   9.961  11.459  12.800  0.8289  0.2181 -0.4393
  638MOL0     C86034  10.100  11.423  12.869  0.5697 -0.3301  0.2419
  638MOL0     C86035  10.162  11.541  12.950 -0.6476 -0.1561 -0.4088
  638MOL0     C86036  10.315  11.541  12.956 -0.8274  0.4742  0.7614
  638MOL0     C86037  10.369  11.666  13.022 -0.0124 -0.6235  0.6484
  638MOL0     C86038  10.497  11.647  13.102  0.1308  0.1878 -0.7697
  638MOL0    Cl86039  10.441  11.566  13.253  0.2465  0.2310 -0.4410
  638MOL0     C86040   9.655  11.091  12.488  0.1931 -1.1209 -0.5083
  638MOL0     C86041   9.546  11.034  12.431  0.4359  0.7389 -0.4869
  638MOL0     O86042   9.223  11.021  12.545 -0.7521  0.5921 -0.2366
  638MOL0     C86043   9.025  10.842  12.393 -0.6252 -0.3227 -0.2472
  638MOL0     C86044   8.952  10.745  12.324  0.8109 -0.0326  0.4045
  638MOL0     N86045   8.730  10.340  11.612 -0.9719 -0.1605 -1.1390
  638MOL0     N86046   8.800  10.335  11.511  0.1336 -0.1058 -0.1019
  638MOL0     C86047   9.446  10.769  10.616 -0.3142 -0.1243 -0.2592
  638MOL0     C86048   9.415  10.893  10.553 -0.3794 -0.8837  0.6617
  638MOL0     C86049   9.270  11.176  10.213  0.6306  0.1736 -0.1540
  638MOL0     C86050   9.157  11.215  10.134  0.0071  0.6655  0.1495
  638MOL0     C86051   9.155  11.336  10.068  0.7883  0.5948 -0.5630
  638MOL0     C86052   9.269  11.418  10.067 -0.1254 -0.1486 -0.1666
  638MOL0     O86053   9.263  11.552  10.014 -0.7411  1.1129  0.1745
  638MOL0     C86054   9.154  11.630  10.071 -0.2873  0.3717  0.8578
  638MOL0     C86055   9.034  11.643   9.978  0.1919 -0.4674  0.5539
  638MOL0     C86056   8.941  11.752  10.034  0.6416 -0.0880 -0.1089
  638MOL0     C86057   8.976  11.889   9.991 -0.0712  0.6817  1.1869
  638MOL0     C86058   8.937  11.925   9.847 -0.0146 -0.4020 -0.6121
  638MOL0     C86059   8.914  11.968   9.738  0.3817 -0.6158  0.1556
  638MOL0     C86060   9.383  11.375  10.128 -0.2229  0.4849 -0.5268
  638MOL0     C86061   9.385  11.262  10.214 -0.4497  0.4911  0.3401
  638MOL0     C86062   9.519  11.225  10.269  1.1768 -0.4045  0.1363
  638MOL0     H86063   9.360  10.770  10.245  3.8898 -0.4926  0.3124
  638MOL0     H86064   9.387  10.543  10.368 -1.7231 -0.6017  0.4730
  638MOL0     H86065   9.401  10.533  10.811 -0.0392 -0.8425  0.5826
  638MOL0     H86066   9.255  10.594  10.713  0.5772  0.9482 -0.7186
  638MOL0     H86067   9.332  10.331  10.788  0.1749 -0.0385  0.2452
  638MOL0     H86068   9.256  10.365  10.626  1.5436  2.1727 -0.7524
  638MOL0     H86069   9.090  10.295  10.799  1.6437 -0.2065  0.0265
  638MOL0     H86070   9.050  10.463  10.759  2.2490  0.8224 -0.9346
  638MOL0     H86071   9.244  10.405  10.989  1.0248  0.8272 -0.3165
  638MOL0     H86072   9.138  10.545  10.975  1.2754 -0.6874  3.8546
  638MOL0     H86073   8.944  10.406  11.045  0.4789 -1.7040 -2.0527
  638MOL0     H86074   9.050  10.265  11.030 -1.9881  0.5665 -2.7753
  638MOL0     H86075   9.196  10.341  11.208  1.0018 -0.1225  0.2270
  638MOL0     H86076   9.110  10.496  11.222  0.4666 -1.1454  1.7351
  638MOL0     H86077   8.988  10.232  11.278 -1.8339  0.8204  1.0933
  638MOL0     H86078   8.907  10.390  11.290 -1.7810 -1.4264 -1.1700
  638MOL0     H86079   9.123  10.275  11.471  0.6391 -0.9445 -2.2631
  638MOL0     H86080   9.102  10.444  11.469  4.2693 -2.9738  0.6818
  638MOL0     H86081   9.028  10.401  11.728 -2.2536  3.1534  1.5913
  638MOL0     H86082   8.642  10.345  11.860 -0.7191  1.2188  2.4919
  638MOL0     H86083   8.773  10.240  11.904  3.6445  0.9102  0.5834
  638MOL0     H86084   8.915  10.458  11.935  0.7570  0.9291  3.4195
  638MOL0     H86085   8.784  10.545  11.911  1.7585 -0.0452 -1.4311
  638MOL0     H86086   8.787  10.322  12.129 -1.4518  0.7123  0.5714
  638MOL0     H86087   8.651  10.403  12.093  0.1459 -3.3393  3.1156
  638MOL0     H86088   8.788  10.500  12.310 -1.0107  2.1494  0.4595
  638MOL0     H86089   8.735  10.613  12.179  2.1649  2.2488  0.1496
  638MOL0     H86090   9.188  10.602  12.136  2.6258  2.7740 -1.0038
  638MOL0     H86091   9.316  10.784  12.225  1.3659 -0.5527  1.9474
  638MOL0     H86092   9.324  11.291  12.416 -0.3934  0.7582  2.8017
  638MOL0     H86093   9.537  11.413  12.468 -1.0966  1.2799  0.6058
  638MOL0     H86094   9.792  11.484  12.578 -2.2754  0.3967  0.6820
  638MOL0     H86095   9.699  11.384  12.690  1.8936 -1.3868  2.5341
  638MOL0     H86096   9.859  11.265  12.782  2.2575  0.8643  2.7463
  638MOL0     H86097   9.985  11.287  12.662  1.2000 -3.6158  4.5149
  638MOL0     H86098   9.991  11.546  12.740  1.1207  1.4549  1.4271
  638MOL0     H86099   9.883  11.496  12.867 -0.6222 -2.5922 -0.4381
  638MOL0     H86100  10.162  11.383  12.788 -3.2956 -3.7526 -1.3466
  638MOL0     H86101  10.094  11.343  12.942  1.7500  2.0507  3.1794
  638MOL0     H86102  10.129  11.537  13.055 -1.6412  2.7769 -0.5099
  638MOL0     H86103  10.121  11.636  12.913 -1.5406 -1.0746 -1.8674
  638MOL0     H86104  10.344  11.454  13.016  2.3954 -0.1143 -1.4121
  638MOL0     H86105  10.354  11.533  12.854 -3.0824 -2.0280 -0.0104
  638MOL0     H86106  10.289  11.692  13.092  0.5489  0.7318  0.8260
  638MOL0     H86107  10.371  11.739  12.940  1.5075 -2.6133 -1.1947
  638MOL0     H86108  10.572  11.577  13.065  2.4981  1.6408  1.0195
  638MOL0     H86109  10.555  11.737  13.122  2.7761 -1.3566 -1.0889
  638MOL0     H86110   9.750  11.047  12.513  2.4823  2.0412 -2.7640
  638MOL0     H86111   9.549  10.925  12.423 -1.5981  0.3901  2.1056
  638MOL0     H86112   8.986  10.922  12.456  1.2149 -1.2313  2.1516
  638MOL0     H86113   8.846  10.732  12.346  0.5327 -0.1091 -0.8936
  638MOL0     H86114   9.488  10.776  10.716 -2.0455  1.9650  0.4184
  638MOL0     H86115   9.438  10.987  10.603 -3.5342 -0.3002  1.1920
  638MOL0     H86116   9.068  11.153  10.141  0.2826  0.4159  1.5713
  638MOL0     H86117   9.059  11.363  10.026  0.2036 -2.9847 -1.9333
  638MOL0     H86118   9.199  11.730  10.080  3.2339 -0.3247 -4.4236
  638MOL0     H86119   9.132  11.610  10.176  0.8451 -0.1886  1.0070
  638MOL0     H86120   8.974  11.551   9.984 -2.3771  0.4259 -4.8893
  638MOL0     H86121   9.073  11.673   9.880 -1.4699  2.2922  0.6410
  638MOL0     H86122   8.927  11.750  10.143 -4.1366 -0.3412 -0.5215
  638MOL0     H86123   8.841  11.733   9.995 -0.8358  0.2959  3.1803
  638MOL0     H86124   8.919  11.958  10.054 -1.0631 -0.9489  2.1329
  638MOL0     H86125   9.085  11.896   9.997  0.4690  0.4848 -3.9535
  638MOL0     H86126   8.882  12.003   9.642  2.4363 -0.7684 -0.6369
  638MOL0     H86127   9.475  11.427  10.104 -1.0148  1.4079 -1.6771
  638MOL0     H86128   9.544  11.122  10.244 -1.7099 -0.9860 -0.7859
  638MOL0     H86129   9.602  11.290  10.239  3.0706 -3.5334 -1.8728
  638MOL0     H86130   9.512  11.228  10.378 -0.6328 -1.4121  0.0849
  639MOL0     O86131   3.571   4.152   1.378 -0.9231  0.7974  0.3475
  639MOL0     C86132   3.618   4.047   1.429  0.0150  0.5970 -0.5208
  639MOL0     O86133   3.753   4.020   1.456  0.4518 -0.9034  0.0333
  639MOL0     C86134   3.845   4.085   1.374 -0.0908  0.3978  0.5356
  639MOL0     C86135   3.879   4.041   1.237  0.1587 -0.3134 -1.0678
  639MOL0     C86136   3.953   4.123   1.151  0.5444  0.0838  0.0463
  639MOL0     C86137   4.026   4.225   1.204 -1.1755 -0.8600  0.2633
  639MOL0     O86138   4.116   4.302   1.136 -0.6259 -0.9966 -0.1468
  639MOL0     C86139   4.144   4.266   1.003 -0.6638 -0.8628 -0.1248
  639MOL0     C86140   4.274   4.342   0.958 -0.5998 -1.5089  0.8563
  639MOL0     C86141   4.396   4.341   1.059 -0.2615 -0.7728  0.1613
  639MOL0     C86142   4.537   4.355   0.992  0.0398 -0.3892  0.0255
  639MOL0     C86143   4.645   4.288   1.074  0.7170  1.0455 -0.3952
  639MOL0     C86144   4.651   4.324   1.230  0.6140 -0.7829  0.9162
  639MOL0     C86145   4.783   4.298   1.294  0.0844 -0.8506 -0.0423
  639MOL0     C86146   4.896   4.382   1.224 -1.5684  0.2490 -0.3743
  639MOL0     N86147   4.862   4.517   1.174 -0.1763 -0.0370 -0.0916
  639MOL0     C86148   4.809   4.619   1.244  0.1064 -0.0964  0.2045
  639MOL0     C86149   4.782   4.715   1.151  0.1908  0.0014 -0.4441
  639MOL0     C86150   4.717   4.854   1.173  0.9480 -0.1868 -0.2989
  639MOL0     C86151   4.560   4.853   1.190 -0.1604  0.0921  0.2793
  639MOL0     C86152   4.495   4.776   1.074  0.5249 -0.2920 -0.5022
  639MOL0     C86153   4.502   4.868   0.954  0.2715 -0.0634 -0.2224
  639MOL0     O86154   4.445   4.993   0.986  0.7952 -0.0511  0.3132
  639MOL0     C86155   4.333   5.044   0.926  0.1448  0.1029  0.3669
  639MOL0     C86156   4.265   4.993   0.814 -0.2524  0.5475  0.4770
  639MOL0     C86157   4.139   5.044   0.770  0.1866  1.0373 -0.2962
  639MOL0     C86158   4.083   5.154   0.831  0.0006 -0.6800  0.0469
  639MOL0     C86159   3.946   5.203   0.796  0.7817 -0.7938 -0.3910
  639MOL0     O86160   3.883   5.137   0.696 -1.0284 -0.0827  0.6636
  639MOL0     C86161   3.753   5.160   0.662 -0.2414  0.0008 -0.6509
  639MOL0     C86162   3.713   5.077   0.570  0.8188 -0.3342 -0.0440
  639MOL0     C86163   3.579   5.065   0.522 -0.1751 -1.4175 -0.0543
  639MOL0     C86164   3.483   5.151   0.567 -0.3488  0.5653  0.2144
  639MOL0     O86165   3.358   5.135   0.507  0.2450 -0.4085 -0.3156
  639MOL0     C86166   3.277   5.249   0.526  0.5820  0.8180  0.2171
  639MOL0     C86167   3.140   5.248   0.459  0.8986  0.1341 -0.7768
  639MOL0     C86168   3.060   5.121   0.502  0.3743 -0.8753  0.0079
  639MOL0     C86169   3.041   5.029   0.381  0.3129 -0.5828 -0.0906
  639MOL0     C86170   2.925   4.939   0.391 -0.1829 -0.7848  0.1571
  639MOL0     C86171   2.946   4.855   0.520 -0.0871  0.2416 -0.7329
  639MOL0     C86172   2.852   4.737   0.535 -0.3696  0.4177 -0.2389
  639MOL0     C86173   2.869   4.623   0.440  0.9711 -0.5790 -0.3993
  639MOL0    Cl86174   2.719   4.529   0.442 -0.2687  0.2018  0.2220
  639MOL0     C86175   3.524   5.244   0.666 -0.3497 -0.2169  0.3615
  639MOL0     C86176   3.649   5.238   0.717 -0.7250 -0.4760 -0.9917
  639MOL0     O86177   3.897   5.296   0.859 -0.4547  0.7475 -0.6492
  639MOL0     C86178   4.159   5.211   0.939  0.5032 -0.4420 -0.8048
  639MOL0     C86179   4.283   5.159   0.986 -0.3234 -0.2646  2.0541
  639MOL0     N86180   4.820   4.669   1.025 -1.0230  0.3187 -0.0795
  639MOL0     N86181   4.870   4.551   1.038  0.2417  1.2303  0.1959
  639MOL0     C86182   4.013   4.253   1.341  0.4620  0.4533 -0.0638
  639MOL0     C86183   3.920   4.186   1.416 -0.3780  0.5090 -0.6331
  639MOL0     C86184   3.505   3.947   1.439  0.1783 -0.5283  0.5086
  639MOL0     C86185   3.374   4.002   1.452  0.2187  0.6566  0.2264
  639MOL0     C86186   3.268   3.913   1.449  0.2096  0.3873 -0.6778
  639MOL0     C86187   3.289   3.779   1.481 -0.9143  0.4076 -0.9376
  639MOL0     O86188   3.172   3.709   1.513  0.0469 -0.1390 -0.2168
  639MOL0     C86189   3.182   3.576   1.559 -0.1451 -0.4509 -0.4699
  639MOL0     C86190   3.046   3.535   1.614  0.6910  0.2268  0.4275
  639MOL0     C86191   2.956   3.474   1.498  0.0824 -0.7485 -0.3721
  639MOL0     C86192   2.846   3.391   1.561 -0.8038 -0.0476 -0.7867
  639MOL0     C86193   2.719   3.383   1.493 -0.1644  0.2354 -1.5153
  639MOL0     C86194   2.615   3.397   1.442  0.7143  1.2905 -0.2266
  639MOL0     C86195   3.420   3.726   1.468 -0.6335  0.6769 -0.7522
  639MOL0     C86196   3.532   3.809   1.451 -0.0393 -0.1020  0.2176
  639MOL0     C86197   3.663   3.748   1.414  0.0160  0.3470 -0.0374
  639MOL0     H86198   3.838   3.944   1.211  0.9856 -0.7998 -0.6159
  639MOL0     H86199   3.966   4.075   1.054 -0.3512 -0.1107  0.0084
  639MOL0     H86200   4.163   4.159   0.990  0.6828 -0.6210 -0.3419
  639MOL0     H86201   4.057   4.283   0.939 -1.0949 -1.6903  0.2320
  639MOL0     H86202   4.237   4.445   0.960 -0.7880 -1.5690  0.5216
  639MOL0     H86203   4.308   4.316   0.858  0.3969 -0.5684  0.9253
  639MOL0     H86204   4.399   4.245   1.112  2.0552 -1.0134 -0.3037
  639MOL0     H86205   4.381   4.413   1.140  0.0271  0.8660 -1.1909
  639MOL0     H86206   4.529   4.307   0.894 -0.6424 -1.0188  0.3771
  639MOL0     H86207   4.561   4.461   0.977  1.1604 -0.6977 -0.4266
  639MOL0     H86208   4.627   4.181   1.065 -3.8289  1.6792 -1.1723
  639MOL0     H86209   4.739   4.316   1.026  2.5817 -2.3323  0.9334
  639MOL0     H86210   4.615   4.427   1.231 -1.2328 -1.2988 -1.6240
  639MOL0     H86211   4.581   4.267   1.292 -0.8318  0.1566  0.2291
  639MOL0     H86212   4.807   4.192   1.281 -1.8403 -1.1593 -1.6190
  639MOL0     H86213   4.770   4.325   1.399  3.3620 -0.2385  0.3074
  639MOL0     H86214   4.983   4.385   1.290  1.0722  0.6651 -3.6286
  639MOL0     H86215   4.927   4.332   1.132 -0.1965  3.5094 -1.8130
  639MOL0     H86216   4.793   4.621   1.351 -1.7017 -2.5517  0.0704
  639MOL0     H86217   4.770   4.898   1.258 -0.6577 -2.0067  1.7454
  639MOL0     H86218   4.735   4.911   1.081 -3.3720  3.6312  0.8968
  639MOL0     H86219   4.535   4.795   1.280 -2.5464 -0.2979 -0.5633
  639MOL0     H86220   4.527   4.957   1.196  4.8851  1.9746  0.8008
  639MOL0     H86221   4.389   4.757   1.093  0.6195 -0.8236 -0.4890
  639MOL0     H86222   4.556   4.691   1.043  3.0796  1.2935 -0.1077
  639MOL0     H86223   4.484   4.827   0.854  5.8466  2.5565 -2.7254
  639MOL0     H86224   4.610   4.882   0.942  0.2899  0.4263  0.4714
  639MOL0     H86225   4.314   4.913   0.759 -0.5931  0.9679 -0.4487
  639MOL0     H86226   4.085   4.984   0.698  0.1110  0.2072  0.4399
  639MOL0     H86227   3.782   5.007   0.522  2.6716  1.4144 -0.0652
  639MOL0     H86228   3.556   4.978   0.461 -0.6009 -1.3447 -0.0008
  639MOL0     H86229   3.258   5.272   0.631  0.9332  3.3108 -0.2001
  639MOL0     H86230   3.331   5.332   0.480 -0.4547  2.3653  1.6703
  639MOL0     H86231   3.081   5.332   0.498 -4.0495 -2.6161 -1.4064
  639MOL0     H86232   3.135   5.267   0.351 -1.1055 -0.3849 -0.8241
  639MOL0     H86233   3.119   5.064   0.575 -2.1137 -3.0448  0.4692
  639MOL0     H86234   2.957   5.143   0.531  0.6103 -1.4444  1.3548
  639MOL0     H86235   3.118   4.953   0.370 -0.5700 -1.6141  0.6630
  639MOL0     H86236   3.040   5.074   0.282 -0.1631 -2.6882 -1.1032
  639MOL0     H86237   2.906   4.873   0.307  0.1611 -0.7963  0.0861
  639MOL0     H86238   2.840   5.008   0.398  2.0485  2.1413  0.7158
  639MOL0     H86239   3.044   4.806   0.518 -0.2210  0.0024 -1.6337
  639MOL0     H86240   2.941   4.915   0.612 -2.5432  0.3406 -0.8619
  639MOL0     H86241   2.752   4.781   0.529 -0.8566 -0.6192  0.0690
  639MOL0     H86242   2.854   4.690   0.633 -2.3733 -0.6855 -0.6691
  639MOL0     H86243   2.887   4.672   0.344 -2.0590 -3.0168 -2.4002
  639MOL0     H86244   2.959   4.568   0.469 -1.0678 -2.9361  2.0528
  639MOL0     H86245   3.466   5.325   0.709  1.1073  1.5493 -0.8285
  639MOL0     H86246   3.677   5.313   0.790  2.2940 -0.9041 -1.5675
  639MOL0     H86247   4.128   5.306   0.982  2.6763  0.6628 -1.5538
  639MOL0     H86248   4.342   5.203   1.065  3.3176  2.2239 -1.6799
  639MOL0     H86249   4.061   4.333   1.398 -1.9576  1.4753  0.7040
  639MOL0     H86250   3.915   4.227   1.516 -0.5692 -1.2771  0.1438
  639MOL0     H86251   3.341   4.102   1.429 -4.8148 -0.6881  0.3975
  639MOL0     H86252   3.170   3.959   1.458  0.7910  1.6422 -0.5274
  639MOL0     H86253   3.253   3.560   1.640 -1.3625 -1.2931  0.4629
  639MOL0     H86254   3.222   3.500   1.490 -0.0916 -1.1557  0.3146
  639MOL0     H86255   3.004   3.631   1.645  0.7471 -0.2900  2.2126
  639MOL0     H86256   3.055   3.475   1.705  0.3332  0.7441  0.8087
  639MOL0     H86257   3.009   3.427   1.415 -1.9138  1.1079 -2.8627
  639MOL0     H86258   2.911   3.557   1.443  1.7561 -0.3411 -1.1886
  639MOL0     H86259   2.890   3.291   1.566  1.5708  0.9975  1.0499
  639MOL0     H86260   2.830   3.427   1.663  2.4839 -3.8459  1.3551
  639MOL0     H86261   2.522   3.379   1.393  1.2928  1.7121 -1.5288
  639MOL0     H86262   3.421   3.618   1.466  0.5562  0.6770 -1.0776
  639MOL0     H86263   3.653   3.654   1.358 -1.8245  1.5165 -1.7910
  639MOL0     H86264   3.716   3.813   1.344 -2.6022  3.5064  0.6718
  639MOL0     H86265   3.728   3.734   1.501  0.1725 -5.5608 -0.6785
  640MOL0     O86266   9.054   1.925  11.078  0.0707  0.2993  0.6621
  640MOL0     C86267   8.981   1.841  11.027 -0.5405  0.3682  0.4545
  640MOL0     O86268   8.862   1.872  10.962  0.4082  0.1101 -0.4586
  640MOL0     C86269   8.842   2.008  10.925  0.3182 -0.1047  0.8683
  640MOL0     C86270   8.877   2.045  10.798 -0.0775  0.2567  0.6744
  640MOL0     C86271   8.888   2.182  10.764  1.2339 -0.5631 -0.3504
  640MOL0     C86272   8.861   2.286  10.860 -0.2841  1.8277  0.7117
  640MOL0     O86273   8.871   2.416  10.831  0.1575 -0.0000  0.2001
  640MOL0     C86274   8.963   2.464  10.724  0.3925  0.3548 -1.0494
  640MOL0     C86275   9.090   2.495  10.789  0.1354  0.0854 -0.6022
  640MOL0     C86276   9.198   2.536  10.686  0.8877  0.0141  0.2908
  640MOL0     C86277   9.340   2.541  10.744 -0.2194 -0.3457 -0.5167
  640MOL0     C86278   9.444   2.596  10.641  0.4178  0.4056  0.2708
  640MOL0     C86279   9.581   2.612  10.710  0.1576  0.7812 -0.0511
  640MOL0     C86280   9.713   2.654  10.627 -0.1275  0.0939  0.5589
  640MOL0     C86281   9.830   2.693  10.708 -0.7516 -0.7257 -0.5706
  640MOL0     N86282   9.788   2.804  10.793  0.2197 -0.1993  0.7664
  640MOL0     C86283   9.769   2.799  10.926 -0.5021  0.7027 -0.3296
  640MOL0     C86284   9.754   2.933  10.968  0.1220  0.6542 -0.1272
  640MOL0     C86285   9.733   2.967  11.106  0.5093 -0.4170  0.3537
  640MOL0     C86286   9.598   2.915  11.145  0.0097 -0.4267 -0.6020
  640MOL0     C86287   9.601   2.905  11.298  0.4466 -0.4841  0.2320
  640MOL0     C86288   9.577   3.053  11.360 -0.6928  1.0879 -0.0276
  640MOL0     O86289   9.644   3.087  11.489  0.8559  0.0524 -0.1976
  640MOL0     C86290   9.573   3.082  11.609  0.0743  0.5868  0.5672
  640MOL0     C86291   9.455   3.000  11.628 -0.2773 -0.4689  0.7462
  640MOL0     C86292   9.396   2.974  11.752  0.1546 -0.4886 -0.6591
  640MOL0     C86293   9.456   3.023  11.866  0.9170 -0.1869 -0.3202
  640MOL0     C86294   9.400   3.008  12.009 -0.2816 -0.2346 -1.1078
  640MOL0     O86295   9.464   3.060  12.124  0.8743 -0.3999 -1.3459
  640MOL0     C86296   9.393   3.067  12.243  1.1656 -0.0339  0.6788
  640MOL0     C86297   9.293   3.166  12.268  0.6757  0.1969 -0.2314
  640MOL0     C86298   9.243   3.166  12.395 -0.1341  0.0453 -0.8892
  640MOL0     C86299   9.272   3.068  12.489  0.8725  0.1100  0.9489
  640MOL0     O86300   9.202   3.064  12.602  0.1339 -0.1596 -0.5090
  640MOL0     C86301   9.269   3.119  12.719 -0.2383 -0.8177  0.0277
  640MOL0     C86302   9.154   3.184  12.804 -0.2549  0.4570  0.5854
  640MOL0     C86303   9.076   3.068  12.877 -0.1495 -0.3900 -0.8753
  640MOL0     C86304   8.948   3.129  12.940  1.1104  0.1978 -0.4794
  640MOL0     C86305   8.856   3.014  12.981  0.2862  0.8732  0.9682
  640MOL0     C86306   8.722   3.068  13.025 -1.0573 -0.0598  0.0269
  640MOL0     C86307   8.734   3.138  13.165  0.4037  1.3435 -0.9336
  640MOL0     C86308   8.599   3.198  13.193  0.7156 -0.2854  0.2510
  640MOL0    Cl86309   8.502   3.070  13.266 -0.2040  0.2097 -0.0724
  640MOL0     C86310   9.374   2.982  12.460 -0.5818 -0.6401 -0.6324
  640MOL0     C86311   9.431   2.970  12.338  0.1595  0.3673  0.3157
  640MOL0     O86312   9.292   2.958  12.002  0.5306  0.2365 -0.9709
  640MOL0     C86313   9.572   3.102  11.852 -0.5240  0.4455 -0.4932
  640MOL0     C86314   9.627   3.135  11.725 -1.5739  0.1803  0.4128
  640MOL0     N86315   9.760   3.009  10.852 -0.0132 -0.5346 -0.4600
  640MOL0     N86316   9.791   2.935  10.753  0.0340  0.1448  0.5543
  640MOL0     C86317   8.820   2.243  10.984  0.4710 -0.1935 -1.2136
  640MOL0     C86318   8.814   2.105  11.022 -0.3534  0.3571 -0.0988
  640MOL0     C86319   9.018   1.692  11.022  0.4125 -0.1676  0.1133
  640MOL0     C86320   8.950   1.613  10.932  0.5132 -0.4741  0.0640
  640MOL0     C86321   8.984   1.477  10.907  0.1839  0.1313 -0.1760
  640MOL0     C86322   9.081   1.414  10.981 -0.3568  0.5805 -0.0049
  640MOL0     O86323   9.119   1.280  10.967  1.5224  0.0912 -0.4680
  640MOL0     C86324   9.084   1.206  10.837 -0.1642 -0.1098  0.3179
  640MOL0     C86325   9.154   1.257  10.711 -0.1229  0.3185  0.0116
  640MOL0     C86326   9.306   1.278  10.744  0.2942 -0.2562  0.6054
  640MOL0     C86327   9.371   1.357  10.620 -0.4553 -0.2423 -0.3169
  640MOL0     C86328   9.385   1.295  10.490  0.4564  0.6507 -0.0875
  640MOL0     C86329   9.380   1.242  10.386 -0.2510  0.8309 -0.5382
  640MOL0     C86330   9.148   1.490  11.079 -0.5135  0.4419 -0.0390
  640MOL0     C86331   9.111   1.627  11.101 -0.2226  0.1628  0.4540
  640MOL0     C86332   9.197   1.703  11.201 -0.5250 -0.2729 -0.4439
  640MOL0     H86333   8.909   1.959  10.740  0.9577 -0.1535  1.8051
  640MOL0     H86334   8.889   2.204  10.658 -1.7054 -0.5957 -0.4709
  640MOL0     H86335   8.984   2.384  10.653  1.0690 -0.6032  0.2009
  640MOL0     H86336   8.924   2.551  10.670 -1.6366 -2.7249 -5.0958
  640MOL0     H86337   9.124   2.424  10.865 -1.3237 -1.2441 -1.1367
  640MOL0     H86338   9.072   2.592  10.836  0.2916 -0.0392 -0.2859
  640MOL0     H86339   9.176   2.639  10.658  0.0842  0.0199  0.9188
  640MOL0     H86340   9.188   2.467  10.601  3.4826 -2.0660  1.5232
  640MOL0     H86341   9.319   2.607  10.829  2.4703  1.4699 -1.1421
  640MOL0     H86342   9.371   2.446  10.788 -0.2161 -1.4065 -2.6545
  640MOL0     H86343   9.455   2.524  10.560  1.8345 -0.6825  1.3960
  640MOL0     H86344   9.416   2.691  10.594  0.3161 -1.1909 -3.1825
  640MOL0     H86345   9.558   2.688  10.786 -0.9458  0.5508 -0.1312
  640MOL0     H86346   9.612   2.519  10.758  1.7295  1.6145  0.6224
  640MOL0     H86347   9.697   2.736  10.556  2.4993 -0.6826 -1.0700
  640MOL0     H86348   9.746   2.569  10.567 -0.2350  0.3660  0.1123
  640MOL0     H86349   9.861   2.610  10.772  0.7881  0.4190  0.2549
  640MOL0     H86350   9.921   2.708  10.648  1.1883  0.6092  2.4572
  640MOL0     H86351   9.745   2.711  10.986  0.7198  1.6127  1.6002
  640MOL0     H86352   9.812   2.921  11.165 -0.7037 -2.3488  0.5574
  640MOL0     H86353   9.737   3.075  11.123  2.1042 -0.5005  0.6036
  640MOL0     H86354   9.513   2.974  11.109 -0.7418 -1.3004 -0.3283
  640MOL0     H86355   9.576   2.816  11.102  1.5934 -1.2549  0.3944
  640MOL0     H86356   9.700   2.865  11.321  0.3384  0.0377  1.7328
  640MOL0     H86357   9.521   2.836  11.328  1.8313 -0.8038  3.6410
  640MOL0     H86358   9.469   3.071  11.361 -0.4834  2.4470 -0.0060
  640MOL0     H86359   9.618   3.131  11.295 -0.3752  2.5279  1.8059
  640MOL0     H86360   9.412   2.970  11.533 -0.3134  2.4425 -0.2697
  640MOL0     H86361   9.294   2.937  11.757  0.2301 -0.5995  0.2834
  640MOL0     H86362   9.283   3.240  12.190 -0.5745  1.2184  0.8572
  640MOL0     H86363   9.179   3.251  12.418 -1.1826 -0.4065 -2.0370
  640MOL0     H86364   9.320   3.044  12.779 -0.1868 -1.0599 -0.3118
  640MOL0     H86365   9.342   3.196  12.693  0.4892 -1.3517  0.4606
  640MOL0     H86366   9.197   3.237  12.890 -0.1896 -0.9993  1.4762
  640MOL0     H86367   9.090   3.252  12.747 -1.6863 -2.6806 -1.8072
  640MOL0     H86368   9.045   2.996  12.801  2.3748 -1.4581 -0.9890
  640MOL0     H86369   9.146   3.029  12.951  0.6669  0.6474 -1.0571
  640MOL0     H86370   8.899   3.191  12.864 -0.1844 -0.3639 -0.1364
  640MOL0     H86371   8.970   3.188  13.030 -0.5964 -1.9616  1.4707
  640MOL0     H86372   8.899   2.945  13.055 -0.0269 -0.4549 -0.0482
  640MOL0     H86373   8.835   2.940  12.903 -1.0612 -0.4989  2.5366
  640MOL0     H86374   8.686   3.130  12.942  2.1778  3.3110  0.8411
  640MOL0     H86375   8.653   2.986  13.043 -2.2683  1.0763  0.7435
  640MOL0     H86376   8.809   3.218  13.167  2.9528 -0.9443  0.0866
  640MOL0     H86377   8.767   3.063  13.236 -1.4005  2.1859  0.9002
  640MOL0     H86378   8.596   3.285  13.258 -1.5081 -1.0199  1.2282
  640MOL0     H86379   8.550   3.240  13.105  1.2635  1.9951  0.9730
  640MOL0     H86380   9.417   2.924  12.541  1.5319  0.0271 -1.1895
  640MOL0     H86381   9.518   2.907  12.322 -2.7643 -4.9781  2.8187
  640MOL0     H86382   9.602   3.142  11.948 -3.0670  0.2962  0.4293
  640MOL0     H86383   9.705   3.210  11.712  0.9766 -2.5427 -1.2349
  640MOL0     H86384   8.780   2.316  11.054 -0.9857 -0.3347 -1.8668
  640MOL0     H86385   8.782   2.077  11.121 -0.2883 -0.5432 -0.3201
  640MOL0     H86386   8.861   1.653  10.886  1.5482  1.5417 -0.3100
  640MOL0     H86387   8.931   1.430  10.824  1.6697 -2.7093  0.3499
  640MOL0     H86388   8.976   1.216  10.826 -0.2714  2.3270  2.4981
  640MOL0     H86389   9.123   1.107  10.861  1.1481  0.8031  2.1858
  640MOL0     H86390   9.106   1.353  10.690  0.3598  1.5228  3.6775
  640MOL0     H86391   9.146   1.184  10.629 -1.4357  2.0336 -1.4640
  640MOL0     H86392   9.363   1.187  10.762  1.7915  0.3672 -0.7497
  640MOL0     H86393   9.324   1.350  10.824  1.2792  1.3827 -0.9943
  640MOL0     H86394   9.307   1.442  10.592 -0.3844 -0.8294 -2.4595
  640MOL0     H86395   9.471   1.385  10.654 -0.7954  0.2585  0.3056
  640MOL0     H86396   9.370   1.191  10.293 -1.7403  2.1189 -1.1238
  640MOL0     H86397   9.232   1.437  11.122  0.3189 -1.1004 -3.2602
  640MOL0     H86398   9.279   1.760  11.157 -0.1927 -0.4397 -0.0489
  640MOL0     H86399   9.124   1.758  11.261 -0.4119 -0.7516  0.1397
  640MOL0     H86400   9.248   1.637  11.271 -0.6696  0.7046  0.6173
  641MOL0     O86401   6.822   9.836   3.705  0.2514 -0.1666 -0.8408
  641MOL0     C86402   6.772   9.909   3.625  0.1071 -0.3259 -0.6988
  641MOL0     O86403   6.837   9.965   3.516  0.7985  0.3706  0.7811
  641MOL0     C86404   6.972   9.944   3.505  0.4896 -0.2290  0.4536
  641MOL0     C86405   7.071   9.946   3.603  0.1706 -0.5647  1.2824
  641MOL0     C86406   7.206   9.935   3.557 -1.2615 -1.3251 -0.3572
  641MOL0     C86407   7.239   9.923   3.424 -0.2383 -0.8983  0.8636
  641MOL0     O86408   7.372   9.925   3.396 -0.3250  0.4837 -0.0760
  641MOL0     C86409   7.419   9.871   3.270  0.8084  0.6971 -0.7507
  641MOL0     C86410   7.569   9.871   3.270 -0.4120  0.1091  0.1854
  641MOL0     C86411   7.622   9.904   3.129  0.2507  0.2874  0.7147
  641MOL0     C86412   7.606  10.057   3.110 -0.1499  0.4562 -0.2607
  641MOL0     C86413   7.655  10.089   2.970 -0.1744 -0.0023 -0.5561
  641MOL0     C86414   7.773  10.000   2.901  1.1869 -0.2252 -0.9567
  641MOL0     C86415   7.911  10.017   2.971 -0.2080  0.0905 -0.3914
  641MOL0     C86416   7.953  10.159   3.003 -0.4591 -0.1388 -0.4109
  641MOL0     N86417   8.098  10.171   3.039  0.0609  0.2206  0.5340
  641MOL0     C86418   8.197  10.074   3.054  0.0639  1.5016 -0.2093
  641MOL0     C86419   8.311  10.131   3.087 -0.1271  0.1210 -0.1653
  641MOL0     C86420   8.441  10.071   3.120 -0.0668  0.2882  0.0533
  641MOL0     C86421   8.456  10.014   3.262 -0.1236  0.1805 -0.3195
  641MOL0     C86422   8.607  10.000   3.302 -0.2951 -0.3116 -0.6559
  641MOL0     C86423   8.619   9.960   3.453  0.3046 -0.3050  0.4154
  641MOL0     O86424   8.579   9.824   3.450  1.2393  0.1260  0.5241
  641MOL0     C86425   8.586   9.750   3.566  0.4227 -0.3132  0.2109
  641MOL0     C86426   8.634   9.797   3.690  0.5914 -0.0029 -0.2115
  641MOL0     C86427   8.622   9.732   3.812  0.7365  0.1624 -0.1572
  641MOL0     C86428   8.557   9.605   3.809 -0.6813 -0.0940  0.2324
  641MOL0     C86429   8.555   9.514   3.929  0.0496 -0.2543  0.7269
  641MOL0     O86430   8.595   9.570   4.044 -0.0678  1.3441 -0.2164
  641MOL0     C86431   8.571   9.495   4.160 -0.0302 -0.3411 -0.3838
  641MOL0     C86432   8.440   9.447   4.189 -0.6314  0.6842  0.6768
  641MOL0     C86433   8.423   9.374   4.309  0.2439 -0.1360 -0.5649
  641MOL0     C86434   8.536   9.364   4.393 -0.1450  0.9206 -0.0941
  641MOL0     O86435   8.518   9.316   4.517 -0.1824  0.1102 -0.9659
  641MOL0     C86436   8.548   9.179   4.541  0.1684  0.2238  0.2315
  641MOL0     C86437   8.439   9.093   4.481 -0.4738  0.6532 -0.3748
  641MOL0     C86438   8.465   8.942   4.465  0.2029 -0.5362  0.7372
  641MOL0     C86439   8.578   8.902   4.372  0.5990 -0.5048 -0.3366
  641MOL0     C86440   8.555   8.954   4.232  0.2445  0.6359  1.1060
  641MOL0     C86441   8.612   9.088   4.191 -0.1355  0.6864 -0.6224
  641MOL0     C86442   8.655   9.094   4.040 -0.6161 -0.1801  0.1572
  641MOL0     C86443   8.765   8.995   4.001 -0.0550  0.8259  1.0570
  641MOL0    Cl86444   8.741   8.924   3.837 -0.3874  0.3663 -0.1092
  641MOL0     C86445   8.645   9.443   4.382  0.0241  0.0306  0.5741
  641MOL0     C86446   8.671   9.502   4.260 -0.2312  0.9911  0.6320
  641MOL0     O86447   8.519   9.398   3.907 -0.2016  0.2620 -0.3874
  641MOL0     C86448   8.517   9.558   3.681  0.0479 -0.1213  0.0494
  641MOL0     C86449   8.538   9.626   3.567 -0.2028  0.1185 -0.8986
  641MOL0     N86450   8.269  10.264   3.112 -0.5030  0.6518 -1.4614
  641MOL0     N86451   8.154  10.295   3.071  0.1996  0.2906 -0.1043
  641MOL0     C86452   7.136   9.940   3.331 -0.6659 -0.3778  0.2445
  641MOL0     C86453   7.004   9.940   3.374  0.4069  0.0203 -0.4542
  641MOL0     C86454   6.635   9.960   3.652 -0.5079  0.5349 -0.2084
  641MOL0     C86455   6.608  10.094   3.627  0.2286  0.1037  0.1029
  641MOL0     C86456   6.480  10.155   3.659  1.3952 -0.0123 -0.0265
  641MOL0     C86457   6.374  10.073   3.700 -0.4491 -0.1984  0.4758
  641MOL0     O86458   6.256  10.130   3.728 -0.6501  0.4565  0.0788
  641MOL0     C86459   6.134  10.060   3.685  0.3358 -0.4941 -0.6104
  641MOL0     C86460   6.028  10.167   3.672 -0.3705 -0.2121 -0.6810
  641MOL0     C86461   6.048  10.264   3.566  0.2129 -0.6977  0.1522
  641MOL0     C86462   5.942  10.381   3.573 -0.6132 -0.3894 -0.6407
  641MOL0     C86463   5.977  10.489   3.486 -0.4788 -0.1944  0.1633
  641MOL0     C86464   5.989  10.582   3.415 -0.3461 -0.7093 -0.4588
  641MOL0     C86465   6.404   9.940   3.725  0.3034 -0.6361  0.2601
  641MOL0     C86466   6.531   9.880   3.705  0.3342  0.3698  0.6159
  641MOL0     C86467   6.538   9.739   3.740 -0.7288 -0.3248  0.0069
  641MOL0     H86468   7.053   9.958   3.710  0.8583 -0.6686  1.4087
  641MOL0     H86469   7.293   9.943   3.622 -0.9319  0.9202 -0.9799
  641MOL0     H86470   7.379   9.774   3.240 -2.0262  1.5533 -0.0199
  641MOL0     H86471   7.389   9.932   3.184  0.2054  1.1747 -0.2138
  641MOL0     H86472   7.615   9.784   3.317 -1.5406 -0.2272  0.7015
  641MOL0     H86473   7.598   9.951   3.338  2.3158  0.2067 -0.9642
  641MOL0     H86474   7.565   9.842   3.060  1.8422 -1.0198  0.5141
  641MOL0     H86475   7.721   9.859   3.113 -0.8896 -2.2341  0.4229
  641MOL0     H86476   7.507  10.102   3.120  1.1060  2.9008  3.6639
  641MOL0     H86477   7.669  10.105   3.186  1.3665 -2.5715  0.5328
  641MOL0     H86478   7.556  10.081   2.925 -1.1033  0.1322  1.3706
  641MOL0     H86479   7.686  10.194   2.974 -0.4018  0.0394  0.7407
  641MOL0     H86480   7.745   9.894   2.893 -1.0544  0.2472  0.0826
  641MOL0     H86481   7.784  10.043   2.801 -3.6925 -0.8191 -1.9846
  641MOL0     H86482   7.982   9.975   2.900  1.4897 -1.2298  1.9150
  641MOL0     H86483   7.904   9.969   3.070  0.3155 -0.4799 -0.6225
  641MOL0     H86484   7.945  10.211   2.908  2.9225  1.1754 -0.1516
  641MOL0     H86485   7.892  10.194   3.087  0.2291 -0.3696  0.1970
  641MOL0     H86486   8.181   9.970   3.030 -1.2108  1.2380  1.5833
  641MOL0     H86487   8.463   9.979   3.064 -0.4108 -1.6419  2.8836
  641MOL0     H86488   8.529  10.132   3.102  2.6750 -1.9282  4.3873
  641MOL0     H86489   8.418  10.087   3.334 -0.4341  1.6292 -1.9057
  641MOL0     H86490   8.392   9.926   3.274 -0.9805  0.9000  0.5977
  641MOL0     H86491   8.649  10.100   3.288  2.5128 -1.0312  1.6185
  641MOL0     H86492   8.660   9.932   3.235  1.1018  2.4431 -2.5625
  641MOL0     H86493   8.565  10.029   3.518 -0.2300 -1.8136  1.6252
  641MOL0     H86494   8.725   9.963   3.476  0.8439 -1.0173 -1.7422
  641MOL0     H86495   8.683   9.894   3.693 -0.6399  0.6959 -1.4643
  641MOL0     H86496   8.662   9.779   3.902  1.2433  0.6549 -0.6329
  641MOL0     H86497   8.360   9.478   4.123  1.1221  1.4538 -1.2261
  641MOL0     H86498   8.330   9.336   4.350  0.9483  1.1813  2.5759
  641MOL0     H86499   8.646   9.156   4.499 -0.3331 -1.6444  0.0074
  641MOL0     H86500   8.567   9.154   4.646  2.4752  0.8049 -0.0044
  641MOL0     H86501   8.349   9.120   4.537  1.7705  4.1174  1.9479
  641MOL0     H86502   8.402   9.133   4.386  0.3922  4.4457  0.7348
  641MOL0     H86503   8.467   8.885   4.558 -2.0852 -2.0324 -0.0372
  641MOL0     H86504   8.372   8.893   4.433 -1.6669  1.3454  2.8883
  641MOL0     H86505   8.583   8.793   4.371 -0.5763 -0.5764 -1.1808
  641MOL0     H86506   8.679   8.934   4.401 -0.2160  3.3955 -1.2564
  641MOL0     H86507   8.452   8.952   4.193  0.6040  1.1639  0.0833
  641MOL0     H86508   8.611   8.876   4.180  3.2565  1.1961  3.2737
  641MOL0     H86509   8.541   9.167   4.218  2.4522  4.1798 -2.9901
  641MOL0     H86510   8.705   9.112   4.243 -0.2190  0.4340 -0.3558
  641MOL0     H86511   8.681   9.197   4.017 -4.8751  1.4230  1.5264
  641MOL0     H86512   8.566   9.081   3.978 -0.8294  1.5070  0.0710
  641MOL0     H86513   8.860   9.047   3.990  0.9242  0.0775  4.7967
  641MOL0     H86514   8.785   8.913   4.070  1.5083 -1.1724 -1.5707
  641MOL0     H86515   8.720   9.465   4.458  1.3908  0.3345 -0.7999
  641MOL0     H86516   8.757   9.563   4.234  0.3929  0.1187  0.5808
  641MOL0     H86517   8.466   9.463   3.688  1.0339 -0.5477  3.0689
  641MOL0     H86518   8.485   9.591   3.479 -1.5651  1.0065 -0.4721
  641MOL0     H86519   7.157   9.951   3.225 -0.3833  0.7211  0.4009
  641MOL0     H86520   6.926   9.940   3.299  0.4741  0.4729 -0.5242
  641MOL0     H86521   6.688  10.149   3.580  1.6187 -0.8600  1.2672
  641MOL0     H86522   6.452  10.260   3.646 -0.9123 -0.3441  1.6328
  641MOL0     H86523   6.106   9.971   3.743  0.4972  1.4605  2.7661
  641MOL0     H86524   6.155  10.024   3.584  1.3803  1.3967 -1.1124
  641MOL0     H86525   6.022  10.235   3.758  3.0295  1.7196 -1.7866
  641MOL0     H86526   5.930  10.120   3.659 -1.5761  2.2401 -0.9337
  641MOL0     H86527   6.052  10.214   3.469  0.6665  0.8230 -0.6502
  641MOL0     H86528   6.146  10.312   3.575  0.6562 -0.7519 -3.0180
  641MOL0     H86529   5.844  10.342   3.543 -0.4857  1.6063 -4.0963
  641MOL0     H86530   5.933  10.406   3.679 -1.8149 -3.1074  0.0039
  641MOL0     H86531   6.001  10.660   3.343  0.6171  0.0540  0.5051
  641MOL0     H86532   6.323   9.875   3.756  1.9271 -2.7482  0.3075
  641MOL0     H86533   6.619   9.730   3.813 -2.1341  2.6121  2.1502
  641MOL0     H86534   6.450   9.693   3.785  0.0094 -0.1199  1.7409
  641MOL0     H86535   6.562   9.674   3.655  0.4962 -0.5411  0.5040
  642MOL0     O86536   9.921   3.615   9.396  0.2126  0.0735  0.0897
  642MOL0     C86537   9.866   3.613   9.504 -0.2934 -0.3594  0.3427
  642MOL0     O86538   9.755   3.540   9.534 -0.5885  0.0557  0.2368
  642MOL0     C86539   9.674   3.484   9.435  0.4030 -0.1378  0.3725
  642MOL0     C86540   9.571   3.393   9.481  0.6291 -0.8408  0.5896
  642MOL0     C86541   9.482   3.336   9.396 -0.0734 -0.6281  0.2748
  642MOL0     C86542   9.485   3.368   9.261  0.2917 -0.0681 -0.8250
  642MOL0     O86543   9.387   3.338   9.170 -0.5630 -0.6942 -0.2313
  642MOL0     C86544   9.286   3.249   9.187 -0.4850 -0.8709 -0.1357
  642MOL0     C86545   9.353   3.111   9.201 -0.4608  0.2747  0.4162
  642MOL0     C86546   9.244   3.010   9.243  0.6365  0.1742  0.1202
  642MOL0     C86547   9.245   2.884   9.157  0.6135 -0.3618  0.0201
  642MOL0     C86548   9.147   2.774   9.204  0.8096 -0.4560 -0.0550
  642MOL0     C86549   9.178   2.653   9.140 -0.0826  0.7916  0.6518
  642MOL0     C86550   9.062   2.541   9.142  0.4845 -0.6237  0.3637
  642MOL0     C86551   9.094   2.418   9.064 -0.0469  0.3722  0.5187
  642MOL0     N86552   9.213   2.346   9.110  0.7728 -1.0480 -0.2807
  642MOL0     C86553   9.225   2.280   9.236 -0.5344  0.4151 -0.3854
  642MOL0     C86554   9.349   2.216   9.227  0.7321  0.0357 -0.7094
  642MOL0     C86555   9.397   2.131   9.343  0.4903  0.5211 -0.4200
  642MOL0     C86556   9.489   2.217   9.427  0.4912  0.2143  0.9633
  642MOL0     C86557   9.408   2.313   9.507 -0.2665 -0.7970 -0.5538
  642MOL0     C86558   9.511   2.403   9.582  0.4400  0.4198  0.0453
  642MOL0     O86559   9.588   2.315   9.661  0.6039  0.3477 -0.7156
  642MOL0     C86560   9.663   2.369   9.761 -0.2199 -0.1489  0.5963
  642MOL0     C86561   9.726   2.282   9.843 -0.1838  0.1826 -0.0567
  642MOL0     C86562   9.828   2.315   9.935 -0.3245  0.1209 -0.3068
  642MOL0     C86563   9.865   2.451   9.943  0.5610 -0.0500  0.3117
  642MOL0     C86564   9.967   2.481  10.046 -0.0996 -0.5466 -0.6228
  642MOL0     O86565   9.982   2.616  10.069 -0.0478  0.0033  0.4704
  642MOL0     C86566  10.100   2.658  10.141  0.3419 -1.1588 -0.2183
  642MOL0     C86567  10.233   2.628  10.106  0.1200  0.2278  0.1275
  642MOL0     C86568  10.336   2.649  10.192 -0.9450 -0.9261  0.0229
  642MOL0     C86569  10.313   2.705  10.320 -0.1293 -0.3385 -0.1065
  642MOL0     O86570  10.430   2.717  10.399  0.2983 -0.9914  0.4679
  642MOL0     C86571  10.443   2.835  10.481 -0.4809  0.9500  0.2035
  642MOL0     C86572  10.552   2.795  10.597 -0.1364 -0.3428  0.7298
  642MOL0     C86573  10.682   2.754  10.537 -0.4606  0.2306  0.5224
  642MOL0     C86574  10.777   2.684  10.633  0.1041 -0.3549 -0.4072
  642MOL0     C86575  10.912   2.672  10.570 -0.3998  0.1899 -0.3436
  642MOL0     C86576  10.998   2.590  10.669  0.1328 -0.1448 -0.1474
  642MOL0     C86577  11.106   2.505  10.610  0.5723 -0.5857  0.5812
  642MOL0     C86578  11.202   2.582  10.518 -0.1284  0.1771 -1.2086
  642MOL0    Cl86579  11.271   2.728  10.615  0.1767  0.1105 -0.1622
  642MOL0     C86580  10.181   2.728  10.366 -0.0648 -0.2708  0.5975
  642MOL0     C86581  10.077   2.693  10.272 -0.7315 -1.2030 -0.4480
  642MOL0     O86582  10.026   2.394  10.111  1.0202 -0.6302  0.4232
  642MOL0     C86583   9.801   2.549   9.860 -0.6291  0.5473 -0.7242
  642MOL0     C86584   9.695   2.511   9.774 -0.8945 -0.1244 -0.0869
  642MOL0     N86585   9.409   2.242   9.104 -0.1903 -0.8415  0.2918
  642MOL0     N86586   9.320   2.309   9.033 -0.2934 -0.3752 -0.1973
  642MOL0     C86587   9.585   3.458   9.215 -0.5212 -0.6714  0.4796
  642MOL0     C86588   9.676   3.513   9.297 -0.9027  0.3418 -0.3451
  642MOL0     C86589   9.902   3.727   9.588 -0.0696 -0.0771 -0.1810
  642MOL0     C86590   9.812   3.772   9.682 -0.8787 -0.1035  0.3838
  642MOL0     C86591   9.830   3.881   9.764 -0.2186 -0.9285 -0.0198
  642MOL0     C86592   9.947   3.958   9.756  0.7021  0.5732 -0.3253
  642MOL0     O86593   9.955   4.066   9.839 -0.5618 -0.8040  0.2705
  642MOL0     C86594   9.993   4.024   9.964 -0.9625  0.0442 -0.3515
  642MOL0     C86595  10.047   4.135  10.047 -0.0272 -0.5402  0.3282
  642MOL0     C86596   9.934   4.240  10.076 -0.1345  0.6988 -0.4608
  642MOL0     C86597   9.858   4.203  10.206 -0.5754  0.2671  0.5689
  642MOL0     C86598   9.754   4.304  10.227 -0.8998  0.3015 -0.1026
  642MOL0     C86599   9.663   4.380  10.262 -0.0372 -0.8918 -0.4669
  642MOL0     C86600  10.043   3.924   9.652 -0.1188  0.1734 -0.4307
  642MOL0     C86601  10.022   3.805   9.576 -0.5142  0.0762  0.6968
  642MOL0     C86602  10.133   3.763   9.486 -1.0431 -0.1540  0.1311
  642MOL0     H86603   9.561   3.362   9.585 -1.1614 -1.2200  0.3471
  642MOL0     H86604   9.404   3.269   9.431 -0.0979 -0.4211  0.6186
  642MOL0     H86605   9.237   3.280   9.279  1.0374  0.1030  0.3972
  642MOL0     H86606   9.226   3.250   9.095  1.3733 -0.1460 -1.4000
  642MOL0     H86607   9.431   3.105   9.277 -0.4990  2.0387  0.6397
  642MOL0     H86608   9.399   3.088   9.104  1.2762  0.1209  1.2398
  642MOL0     H86609   9.141   3.047   9.241  0.5988  0.1017  0.5818
  642MOL0     H86610   9.266   2.992   9.349  1.1187  1.4232  0.2502
  642MOL0     H86611   9.212   2.913   9.057  1.1475 -2.1830 -0.7263
  642MOL0     H86612   9.347   2.849   9.140  1.2247 -1.3854  4.6236
  642MOL0     H86613   9.156   2.766   9.313  6.2341 -6.2778 -0.3727
  642MOL0     H86614   9.047   2.794   9.165  1.4957  0.3989 -1.4272
  642MOL0     H86615   9.207   2.669   9.035  0.6027 -1.8579  0.3591
  642MOL0     H86616   9.271   2.617   9.184  0.2787  1.4307  0.4273
  642MOL0     H86617   8.966   2.571   9.099 -0.4257  0.4946  2.9353
  642MOL0     H86618   9.035   2.507   9.243 -0.4642 -0.9422  0.0191
  642MOL0     H86619   9.007   2.352   9.066 -1.4433  2.1424  1.8541
  642MOL0     H86620   9.121   2.453   8.964 -0.0151 -0.0473  0.3798
  642MOL0     H86621   9.151   2.282   9.315  0.0643  0.3130  0.1861
  642MOL0     H86622   9.315   2.086   9.399  0.5699 -1.5698 -1.8367
  642MOL0     H86623   9.446   2.040   9.305  1.8855  1.6449 -1.4225
  642MOL0     H86624   9.529   2.147   9.502 -2.0990 -1.1407  1.1961
  642MOL0     H86625   9.568   2.259   9.365 -1.4589 -0.6270 -2.2959
  642MOL0     H86626   9.346   2.264   9.582 -1.0178  1.6874  0.5560
  642MOL0     H86627   9.338   2.374   9.449 -3.2533 -2.5105  0.9971
  642MOL0     H86628   9.464   2.485   9.637  0.7238  0.4204  0.2935
  642MOL0     H86629   9.568   2.451   9.502  0.9385 -2.1951 -1.2662
  642MOL0     H86630   9.704   2.176   9.830  1.2888 -0.2798  0.8968
  642MOL0     H86631   9.869   2.234   9.994 -1.5728  0.5831  1.2627
  642MOL0     H86632  10.253   2.581  10.010  2.5304  0.6096  0.3811
  642MOL0     H86633  10.438   2.630  10.160  0.3068  3.9881  0.1781
  642MOL0     H86634  10.497   2.914  10.427  2.0132 -0.9254 -0.1978
  642MOL0     H86635  10.347   2.865  10.525 -1.3961 -1.4980  0.0282
  642MOL0     H86636  10.553   2.889  10.652 -0.9151 -0.2417  0.5793
  642MOL0     H86637  10.508   2.714  10.657 -1.0863  0.5818  1.3099
  642MOL0     H86638  10.674   2.693  10.446  1.3907 -0.4754  0.7859
  642MOL0     H86639  10.731   2.848  10.511 -2.1970  1.4070  1.3517
  642MOL0     H86640  10.737   2.585  10.655 -2.3254 -0.1995 -3.4278
  642MOL0     H86641  10.780   2.749  10.721 -1.9327 -1.1618  0.3076
  642MOL0     H86642  10.962   2.769  10.562 -1.1113  0.7114  1.1657
  642MOL0     H86643  10.913   2.623  10.472 -2.6395 -2.4870  0.8492
  642MOL0     H86644  11.032   2.656  10.749 -1.6158  0.3730  0.2249
  642MOL0     H86645  10.932   2.531  10.734 -1.2903  1.4125 -0.1252
  642MOL0     H86646  11.052   2.434  10.547  0.7072  1.9951 -2.7031
  642MOL0     H86647  11.164   2.457  10.690  1.4843 -0.1097  0.2192
  642MOL0     H86648  11.281   2.530  10.462  2.7561  2.5562  0.3863
  642MOL0     H86649  11.143   2.602  10.428  0.9011 -0.9950 -2.1925
  642MOL0     H86650  10.160   2.761  10.468  3.0707 -2.6440  2.1847
  642MOL0     H86651   9.977   2.668  10.306  0.4605 -1.6541  3.1403
  642MOL0     H86652   9.844   2.648   9.865  0.3972  0.0770  0.1713
  642MOL0     H86653   9.652   2.591   9.715 -1.3988  0.3069  0.8342
  642MOL0     H86654   9.585   3.499   9.115  1.9096 -1.6319  0.0287
  642MOL0     H86655   9.740   3.587   9.250 -0.0112 -2.1050 -3.2647
  642MOL0     H86656   9.724   3.712   9.704 -2.0261  0.3009 -2.5656
  642MOL0     H86657   9.749   3.890   9.836  0.9433  1.4494  1.0926
  642MOL0     H86658  10.068   3.945   9.968 -1.4084 -0.3843 -0.4710
  642MOL0     H86659   9.909   3.991  10.026 -0.1151 -1.8278 -0.1399
  642MOL0     H86660  10.124   4.184   9.987  1.5863 -1.7221  1.3314
  642MOL0     H86661  10.091   4.104  10.143  1.2961 -1.2777 -0.4937
  642MOL0     H86662   9.871   4.253   9.987 -0.3941  2.9817 -0.0066
  642MOL0     H86663   9.981   4.338  10.089  2.8370 -0.7810  0.9086
  642MOL0     H86664   9.822   4.100  10.218  0.4670 -0.0685  0.8694
  642MOL0     H86665   9.937   4.210  10.281  0.7562 -0.5646 -0.6989
  642MOL0     H86666   9.588   4.451  10.291  0.9355  0.7810 -1.8610
  642MOL0     H86667  10.124   3.995   9.637 -1.4697  2.4324  1.9809
  642MOL0     H86668  10.219   3.830   9.493 -1.5597  0.6248 -0.8198
  642MOL0     H86669  10.168   3.659   9.493 -2.2657 -0.7612 -1.8507
  642MOL0     H86670  10.098   3.799   9.389 -0.4640 -0.7596 -0.3132
  643MOL0     O86671   8.919   2.511  10.386  0.2576  0.3363  0.3549
  643MOL0     C86672   9.011   2.490  10.301 -0.6465  0.5895  0.7049
  643MOL0     O86673   9.008   2.408  10.183  0.1837  0.1708 -0.8069
  643MOL0     C86674   8.907   2.313  10.170  0.3425  1.1058 -0.0823
  643MOL0     C86675   8.894   2.254  10.042  0.4568 -0.1466  1.3526
  643MOL0     C86676   8.802   2.161  10.025 -0.1476  0.2050  0.6830
  643MOL0     C86677   8.725   2.108  10.129  0.1724 -0.8888 -0.5944
  643MOL0     O86678   8.627   2.014  10.105 -0.5498 -0.3586 -0.1900
  643MOL0     C86679   8.661   1.890  10.034  0.2971  0.6106  0.7438
  643MOL0     C86680   8.568   1.851   9.912  0.2101 -0.3495 -0.2383
  643MOL0     C86681   8.427   1.852   9.960 -0.0606 -0.3858 -0.5603
  643MOL0     C86682   8.325   1.820   9.853  0.3427  0.7550 -0.7835
  643MOL0     C86683   8.290   1.945   9.770 -0.0806  0.1739  0.2523
  643MOL0     C86684   8.166   2.006   9.836  0.2819 -0.5380  0.2023
  643MOL0     C86685   8.193   2.089   9.973 -1.1608 -0.0448  0.4135
  643MOL0     C86686   8.062   2.150  10.022 -0.6923  0.3069 -0.4715
  643MOL0     N86687   8.077   2.185  10.166  0.7988  0.2000 -0.4301
  643MOL0     C86688   8.187   2.226  10.233  0.2921 -0.6149  0.0342
  643MOL0     C86689   8.156   2.206  10.366 -0.5420  0.6227  0.2432
  643MOL0     C86690   8.246   2.248  10.483 -0.5296  0.3648 -0.4088
  643MOL0     C86691   8.190   2.181  10.615 -0.0820  0.0509 -0.6932
  643MOL0     C86692   8.279   2.223  10.733 -0.4663 -0.9137 -0.6492
  643MOL0     C86693   8.378   2.123  10.782  0.7094  0.0025 -0.4501
  643MOL0     O86694   8.315   2.049  10.884  0.7543  0.5214  0.2390
  643MOL0     C86695   8.342   2.073  11.017 -0.3008 -0.3917  0.2888
  643MOL0     C86696   8.270   1.994  11.109 -0.6658 -0.2775 -0.6546
  643MOL0     C86697   8.307   1.993  11.244  0.4569 -0.1520 -0.7869
  643MOL0     C86698   8.405   2.087  11.287 -0.3384 -0.0890  0.3378
  643MOL0     C86699   8.462   2.082  11.424  0.2639  0.0197 -0.6031
  643MOL0     O86700   8.557   2.172  11.455  1.1301  0.7327 -0.1525
  643MOL0     C86701   8.568   2.190  11.587 -0.8477 -0.1209 -0.6188
  643MOL0     C86702   8.682   2.145  11.654 -0.4734  0.3228 -0.6908
  643MOL0     C86703   8.694   2.176  11.795 -1.1049 -1.1457 -1.1096
  643MOL0     C86704   8.602   2.258  11.860  0.8648 -1.0012 -0.3341
  643MOL0     O86705   8.606   2.298  11.985 -0.4166  0.4397 -0.0234
  643MOL0     C86706   8.740   2.321  12.043  0.3545 -0.1238 -0.1123
  643MOL0     C86707   8.751   2.241  12.173 -0.9976 -0.2768  0.4400
  643MOL0     C86708   8.638   2.255  12.272  0.4593 -0.5302 -0.4793
  643MOL0     C86709   8.597   2.398  12.306  0.5725 -0.2551 -0.0072
  643MOL0     C86710   8.682   2.451  12.415  0.0168  1.0980 -0.8455
  643MOL0     C86711   8.635   2.565  12.498 -0.2445 -0.3397 -0.3596
  643MOL0     C86712   8.516   2.530  12.580  0.5860  0.6180  0.3923
  643MOL0     C86713   8.468   2.655  12.649 -0.0146 -0.6419 -0.1403
  643MOL0    Cl86714   8.582   2.706  12.763  0.1129  0.5138 -0.0666
  643MOL0     C86715   8.495   2.314  11.776  0.8924  0.1996  0.2425
  643MOL0     C86716   8.484   2.285  11.647 -0.0522 -0.0855 -0.7164
  643MOL0     O86717   8.410   2.007  11.508 -0.0792  0.4041  1.0514
  643MOL0     C86718   8.454   2.183  11.195 -0.0625  0.0425  0.3366
  643MOL0     C86719   8.436   2.174  11.060  0.6921 -0.1142  0.6922
  643MOL0     N86720   8.030   2.146  10.377 -0.5041 -0.6410  1.1506
  643MOL0     N86721   7.988   2.138  10.257 -0.0027  0.4809 -0.9176
  643MOL0     C86722   8.730   2.163  10.255 -0.0972 -1.1719  0.9261
  643MOL0     C86723   8.830   2.267  10.271 -0.1435 -0.6998  0.2448
  643MOL0     C86724   9.128   2.577  10.316 -0.6684 -1.0899 -0.7110
  643MOL0     C86725   9.247   2.531  10.261  0.2096 -0.3804  0.4312
  643MOL0     C86726   9.370   2.601  10.263 -0.0343  0.1509  0.7475
  643MOL0     C86727   9.367   2.725  10.301  0.8809  0.0520  0.3511
  643MOL0     O86728   9.470   2.812  10.292 -0.2639 -0.3570 -0.0698
  643MOL0     C86729   9.601   2.766  10.327 -0.1456  0.1258 -0.1802
  643MOL0     C86730   9.685   2.751  10.196 -0.2240  0.0798  0.4253
  643MOL0     C86731   9.705   2.884  10.120  0.2561  0.1948  0.1833
  643MOL0     C86732   9.845   2.951  10.124 -0.2791 -0.6205 -0.8737
  643MOL0     C86733   9.888   2.995  10.263  0.6664 -0.0089  0.3638
  643MOL0     C86734   9.918   3.012  10.379  0.6739 -1.4371  0.7739
  643MOL0     C86735   9.252   2.774  10.362 -0.4235  0.1503 -0.3896
  643MOL0     C86736   9.131   2.708  10.375 -0.4448  0.9008  0.8469
  643MOL0     C86737   9.011   2.782  10.423 -0.7954 -0.9915  0.3553
  643MOL0     H86738   8.943   2.290   9.952 -3.7577 -1.6973 -1.9171
  643MOL0     H86739   8.780   2.113   9.930 -0.0146  3.4363 -1.1216
  643MOL0     H86740   8.763   1.897   9.996 -0.5734  2.6068 -1.5537
  643MOL0     H86741   8.648   1.819  10.116  1.2328  1.0570  1.3059
  643MOL0     H86742   8.591   1.756   9.863 -0.4074 -1.8140  2.1112
  643MOL0     H86743   8.566   1.935   9.842  1.3353 -0.0712  0.0358
  643MOL0     H86744   8.402   1.949  10.004 -1.2512 -1.0243  0.2281
  643MOL0     H86745   8.427   1.775  10.037 -2.6828  1.9967  2.0984
  643MOL0     H86746   8.362   1.734   9.797  3.4944  1.6890 -0.3545
  643MOL0     H86747   8.238   1.782   9.907  1.6451 -0.8256  0.2931
  643MOL0     H86748   8.376   2.010   9.782  0.0084 -0.4801  7.4090
  643MOL0     H86749   8.280   1.906   9.668  1.2356 -4.6590  1.6982
  643MOL0     H86750   8.119   2.079   9.769  1.6812  0.9773  0.7966
  643MOL0     H86751   8.091   1.930   9.858  0.1389 -0.4569  0.0039
  643MOL0     H86752   8.261   2.174   9.970 -1.5959  0.2785 -0.6945
  643MOL0     H86753   8.221   2.017  10.051 -0.7085  0.4588  0.7213
  643MOL0     H86754   8.040   2.244   9.969 -1.1012  0.9909  0.8409
  643MOL0     H86755   7.975   2.086  10.004 -1.0445 -0.7238  3.7932
  643MOL0     H86756   8.272   2.282  10.195  1.2969 -0.4085  2.4142
  643MOL0     H86757   8.350   2.219  10.465  0.0759  3.0393 -1.6789
  643MOL0     H86758   8.244   2.356  10.495 -1.2211  0.1703  1.5422
  643MOL0     H86759   8.091   2.224  10.632  0.2618  0.5220  0.2239
  643MOL0     H86760   8.176   2.073  10.606 -1.3143  0.2196 -1.0644
  643MOL0     H86761   8.225   2.272  10.814  3.7356  2.5817  0.4030
  643MOL0     H86762   8.336   2.305  10.689 -0.6415 -0.5744 -0.2479
  643MOL0     H86763   8.471   2.175  10.803 -0.7715  3.1850 -1.1889
  643MOL0     H86764   8.404   2.049  10.705  1.2502  1.7061 -1.9770
  643MOL0     H86765   8.202   1.924  11.062 -0.0698  0.1681 -2.2895
  643MOL0     H86766   8.265   1.920  11.312  0.1207  2.2397  1.7001
  643MOL0     H86767   8.763   2.086  11.614  2.1270  2.8045  0.5768
  643MOL0     H86768   8.773   2.133  11.856  1.4331  3.6680 -0.5536
  643MOL0     H86769   8.824   2.296  11.977  0.1934 -1.0143  0.0106
  643MOL0     H86770   8.743   2.428  12.064  0.2976 -0.1877  0.2294
  643MOL0     H86771   8.757   2.140  12.131 -0.7011  0.5121 -1.5451
  643MOL0     H86772   8.842   2.268  12.226  0.5133 -1.7208 -1.2547
  643MOL0     H86773   8.547   2.209  12.233 -1.3671  0.6025  2.1776
  643MOL0     H86774   8.672   2.211  12.366 -2.1037  0.8355  1.1916
  643MOL0     H86775   8.498   2.396  12.354 -0.9501  0.5285 -2.8806
  643MOL0     H86776   8.583   2.458  12.215 -0.5813 -0.7726 -0.1969
  643MOL0     H86777   8.776   2.480  12.366  3.1639 -4.5815  0.8852
  643MOL0     H86778   8.706   2.375  12.490  0.4623  3.7702  1.9350
  643MOL0     H86779   8.726   2.581  12.557  0.8159 -2.9632 -1.1502
  643MOL0     H86780   8.617   2.662  12.451  1.3214  2.0331  3.4329
  643MOL0     H86781   8.538   2.452  12.653  0.7655 -0.2815 -0.6048
  643MOL0     H86782   8.430   2.486  12.528  0.5887  0.6280  0.3795
  643MOL0     H86783   8.455   2.736  12.577 -3.4620 -0.8914  0.0019
  643MOL0     H86784   8.370   2.633  12.692 -1.5301  2.8684 -1.4248
  643MOL0     H86785   8.429   2.392  11.813  1.0972  2.0708 -2.9781
  643MOL0     H86786   8.404   2.332  11.590 -2.2926 -0.9010  1.5284
  643MOL0     H86787   8.519   2.261  11.234 -0.2960  0.3281  0.1507
  643MOL0     H86788   8.498   2.237  10.997  3.1193  1.3523  4.2418
  643MOL0     H86789   8.666   2.134  10.337  3.8563 -2.3841  3.8877
  643MOL0     H86790   8.826   2.299  10.375  0.6252  0.4093 -0.0494
  643MOL0     H86791   9.262   2.429  10.226  3.8818 -0.0485  0.6097
  643MOL0     H86792   9.463   2.560  10.224 -1.0653 -1.9761  0.3796
  643MOL0     H86793   9.603   2.678  10.392  2.2325  1.6187  1.9670
  643MOL0     H86794   9.641   2.848  10.387 -1.8178 -1.9303  4.1865
  643MOL0     H86795   9.623   2.694  10.126 -1.0602  0.3594  0.9181
  643MOL0     H86796   9.778   2.697  10.213 -0.4914 -0.5126  0.0229
  643MOL0     H86797   9.626   2.952  10.153  1.8453  0.4646  4.0356
  643MOL0     H86798   9.683   2.865  10.015 -0.4380  1.4366  0.0914
  643MOL0     H86799   9.924   2.886  10.085  2.6368  0.6571  2.4400
  643MOL0     H86800   9.842   3.046  10.069  1.4027 -0.2515 -0.3668
  643MOL0     H86801   9.942   3.032  10.481  2.2404 -1.0690  0.3674
  643MOL0     H86802   9.269   2.880  10.378 -0.8238  0.6585 -3.0073
  643MOL0     H86803   9.016   2.789  10.532  1.6885 -0.2854  0.2471
  643MOL0     H86804   8.993   2.878  10.374  1.4901 -1.1816 -0.9665
  643MOL0     H86805   8.915   2.731  10.407 -1.8238  0.4112  1.7041
  644MOL0     O86806   2.267   3.962   3.592  0.3191 -0.1947  0.4552
  644MOL0     C86807   2.345   3.972   3.688 -0.0378 -0.7218  0.1357
  644MOL0     O86808   2.333   4.063   3.792  0.2471 -0.2389  0.5341
  644MOL0     C86809   2.258   4.172   3.779 -0.0996 -0.1990 -0.3530
  644MOL0     C86810   2.287   4.269   3.682  1.0311 -0.0904  0.5106
  644MOL0     C86811   2.200   4.374   3.663 -0.2293 -0.9789  0.2596
  644MOL0     C86812   2.086   4.390   3.741  0.2219  0.0112 -0.5030
  644MOL0     O86813   1.982   4.485   3.725  0.0764 -0.5439 -0.0080
  644MOL0     C86814   1.944   4.527   3.589 -0.2311 -0.1002  0.1299
  644MOL0     C86815   1.906   4.411   3.501  0.2384  0.2915 -0.1150
  644MOL0     C86816   1.765   4.371   3.536 -0.1430 -0.1797 -0.1654
  644MOL0     C86817   1.696   4.295   3.433 -0.0174 -0.0774 -0.2110
  644MOL0     C86818   1.543   4.296   3.480 -0.2596  0.4356 -0.4476
  644MOL0     C86819   1.452   4.218   3.386 -0.7437  0.0272  0.2883
  644MOL0     C86820   1.310   4.263   3.388 -0.1335  0.1150 -0.7559
  644MOL0     C86821   1.212   4.193   3.286  0.0324  0.3422 -0.3334
  644MOL0     N86822   1.274   4.123   3.175 -0.2732  1.3833  0.4994
  644MOL0     C86823   1.363   4.171   3.079  0.6713  0.3834 -0.0715
  644MOL0     C86824   1.366   4.079   2.984  0.1763  0.6818 -0.1157
  644MOL0     C86825   1.437   4.095   2.851  0.2757 -0.4044  0.7370
  644MOL0     C86826   1.325   4.154   2.758  0.0862  0.6726 -0.6915
  644MOL0     C86827   1.213   4.054   2.723  0.2779 -0.4249  0.5285
  644MOL0     C86828   1.086   4.135   2.674 -0.7116 -0.8370 -0.0128
  644MOL0     O86829   1.125   4.220   2.568 -0.0740 -0.1934 -0.5899
  644MOL0     C86830   1.027   4.275   2.497 -1.0141 -0.1826 -0.2195
  644MOL0     C86831   1.036   4.272   2.356 -0.6116 -0.2911 -0.1191
  644MOL0     C86832   0.942   4.330   2.273  0.4216  0.0156 -0.2730
  644MOL0     C86833   0.838   4.407   2.321  0.5337  0.7588 -0.7633
  644MOL0     C86834   0.744   4.496   2.255  0.0617 -0.1770  0.5400
  644MOL0     O86835   0.677   4.593   2.334  0.0854 -0.3487  1.1648
  644MOL0     C86836   0.576   4.679   2.279  0.2589 -0.7790 -0.4801
  644MOL0     C86837   0.491   4.637   2.166 -0.7339 -0.2933 -1.4385
  644MOL0     C86838   0.406   4.729   2.117 -0.2919  0.5872 -0.2702
  644MOL0     C86839   0.383   4.854   2.181 -0.6490 -0.1170  0.7216
  644MOL0     O86840   0.282   4.934   2.135  0.3788  0.0423  0.2667
  644MOL0     C86841   0.307   5.074   2.137 -0.2391 -0.8832  0.2376
  644MOL0     C86842   0.248   5.156   2.255 -0.3382  0.8925  0.1142
  644MOL0     C86843   0.260   5.305   2.225 -0.4870 -0.1393 -0.7537
  644MOL0     C86844   0.187   5.377   2.334 -0.3205  0.1509  0.2768
  644MOL0     C86845   0.221   5.530   2.329 -0.1620 -0.4611  0.7258
  644MOL0     C86846   0.100   5.619   2.355 -0.1093 -0.1193  0.5230
  644MOL0     C86847  -0.009   5.605   2.244  0.2718 -0.3154 -0.4038
  644MOL0     C86848   0.050   5.629   2.112 -0.1581  0.2611  0.2122
  644MOL0    Cl86849   0.138   5.789   2.113  0.2697  0.0655  0.9748
  644MOL0     C86850   0.470   4.892   2.290  0.5714  0.5331  0.7280
  644MOL0     C86851   0.566   4.802   2.337  0.7171 -0.8019  0.4336
  644MOL0     O86852   0.728   4.477   2.137 -0.2061  0.9935  0.6602
  644MOL0     C86853   0.838   4.413   2.467 -0.0557  0.1596  0.5241
  644MOL0     C86854   0.926   4.343   2.554  0.1081  0.4658  0.9041
  644MOL0     N86855   1.293   3.965   3.024  0.1417  0.4678  0.1295
  644MOL0     N86856   1.254   3.994   3.142  0.3503 -0.9654  0.2123
  644MOL0     C86857   2.065   4.297   3.846 -0.2676  0.3516 -0.3827
  644MOL0     C86858   2.153   4.198   3.872 -0.1836  0.3204  0.1233
  644MOL0     C86859   2.433   3.855   3.696  0.5431 -0.8846  0.8761
  644MOL0     C86860   2.441   3.783   3.817  0.0503  0.0328  0.5041
  644MOL0     C86861   2.528   3.679   3.832 -0.3178  0.6823  0.2084
  644MOL0     C86862   2.608   3.645   3.718 -0.8159  0.2497 -1.0214
  644MOL0     O86863   2.683   3.529   3.737  0.0080 -0.7611 -0.2270
  644MOL0     C86864   2.749   3.462   3.629  0.3306  0.7467 -0.0322
  644MOL0     C86865   2.641   3.369   3.565 -0.1620  0.0099 -0.0378
  644MOL0     C86866   2.717   3.283   3.471  1.4658  0.1141  0.6290
  644MOL0     C86867   2.620   3.159   3.439  0.6530  0.3377  0.4432
  644MOL0     C86868   2.699   3.078   3.338 -0.5305  0.1188  0.4271
  644MOL0     C86869   2.759   3.011   3.255 -0.6520 -0.6773 -0.9559
  644MOL0     C86870   2.625   3.726   3.605 -0.5676 -0.0346  0.4784
  644MOL0     C86871   2.523   3.821   3.588 -0.1033 -0.1648  0.0801
  644MOL0     C86872   2.549   3.903   3.462  0.6829 -0.7696  0.2878
  644MOL0     H86873   2.368   4.252   3.612  0.4790 -1.5617  0.1714
  644MOL0     H86874   2.204   4.453   3.589 -1.9151 -2.3878 -1.4403
  644MOL0     H86875   1.871   4.608   3.584 -0.1386  0.1196  1.8847
  644MOL0     H86876   2.033   4.578   3.552  0.0561 -0.4493  0.3351
  644MOL0     H86877   1.975   4.327   3.496  0.0309  0.1935 -1.9610
  644MOL0     H86878   1.893   4.449   3.400 -1.0564 -1.1771 -0.5358
  644MOL0     H86879   1.707   4.464   3.545 -1.5783 -1.0728  0.0122
  644MOL0     H86880   1.758   4.312   3.628  0.2118  1.1717  0.7743
  644MOL0     H86881   1.693   4.339   3.332 -1.4579 -3.5488 -1.8443
  644MOL0     H86882   1.743   4.197   3.422  2.8103  0.8774  1.9591
  644MOL0     H86883   1.544   4.262   3.584 -1.5091  0.0268 -0.5517
  644MOL0     H86884   1.506   4.399   3.477  1.1616  1.1223  2.2087
  644MOL0     H86885   1.487   4.246   3.287  0.8448 -2.2258  0.1450
  644MOL0     H86886   1.467   4.111   3.404 -2.4219  0.2720  4.2327
  644MOL0     H86887   1.313   4.371   3.368  0.6847  0.1723 -0.3701
  644MOL0     H86888   1.277   4.261   3.492  1.9139  0.9378 -0.0447
  644MOL0     H86889   1.159   4.115   3.341 -0.7086  1.5353  0.7077
  644MOL0     H86890   1.139   4.269   3.257  0.2547  1.7500  2.4469
  644MOL0     H86891   1.398   4.274   3.078 -4.3351  2.3939  0.4596
  644MOL0     H86892   1.517   4.167   2.870  0.0568  0.4781 -1.3647
  644MOL0     H86893   1.479   3.999   2.820  0.3887 -0.9610  2.5233
  644MOL0     H86894   1.279   4.241   2.805 -1.9170 -1.2444  1.1205
  644MOL0     H86895   1.382   4.194   2.674 -0.6976  0.9558 -1.1003
  644MOL0     H86896   1.180   4.003   2.814 -1.2291 -1.3360 -0.5005
  644MOL0     H86897   1.249   3.981   2.651 -2.2468  0.3633 -1.6780
  644MOL0     H86898   1.046   4.194   2.756 -0.9882 -2.1482  0.8227
  644MOL0     H86899   1.006   4.063   2.653  1.3167 -3.6500  1.1752
  644MOL0     H86900   1.128   4.232   2.314  0.0611  0.4908  0.5965
  644MOL0     H86901   0.967   4.333   2.168 -1.6348 -1.6501 -0.8664
  644MOL0     H86902   0.498   4.535   2.132  2.3787 -0.7557  0.2193
  644MOL0     H86903   0.333   4.708   2.039  0.6846 -1.3206 -0.7138
  644MOL0     H86904   0.414   5.092   2.140 -0.6191  1.8432  0.1997
  644MOL0     H86905   0.266   5.116   2.044 -4.9695 -1.2557  1.8545
  644MOL0     H86906   0.142   5.131   2.265 -0.2937  1.1569  1.3720
  644MOL0     H86907   0.301   5.128   2.346  0.4328 -0.7277 -0.7654
  644MOL0     H86908   0.359   5.351   2.214 -1.0241  1.7281  1.3666
  644MOL0     H86909   0.216   5.331   2.128 -0.7281 -2.6548 -1.3727
  644MOL0     H86910   0.205   5.351   2.439 -2.0255  1.7874  1.0358
  644MOL0     H86911   0.081   5.355   2.316 -0.3385 -2.8204  2.9428
  644MOL0     H86912   0.266   5.558   2.233  0.2726 -0.7872  0.8334
  644MOL0     H86913   0.301   5.570   2.391  0.2270  1.5015 -0.9347
  644MOL0     H86914   0.060   5.602   2.455 -2.7748  5.8452  0.8978
  644MOL0     H86915   0.134   5.722   2.359 -0.5822  0.0172  1.2477
  644MOL0     H86916  -0.090   5.678   2.255 -0.1371 -0.6953 -0.8218
  644MOL0     H86917  -0.058   5.508   2.253 -0.8591  0.2938  0.2811
  644MOL0     H86918   0.122   5.552   2.083  0.9712  0.6497  1.8771
  644MOL0     H86919  -0.033   5.636   2.042 -2.5075  0.1618  2.8243
  644MOL0     H86920   0.468   4.992   2.333  1.4541  1.6821 -1.6920
  644MOL0     H86921   0.618   4.817   2.431  1.0339 -1.2088  0.3257
  644MOL0     H86922   0.762   4.455   2.532 -0.3486 -2.4545  2.0424
  644MOL0     H86923   0.915   4.356   2.661  1.1826 -0.5864  1.1711
  644MOL0     H86924   1.980   4.316   3.911  1.1578 -1.1666  2.0726
  644MOL0     H86925   2.120   4.125   3.946 -1.0679  0.3959 -0.1774
  644MOL0     H86926   2.371   3.811   3.896 -1.5790 -0.9628 -0.5329
  644MOL0     H86927   2.534   3.616   3.921  0.5081  2.8440  1.7618
  644MOL0     H86928   2.839   3.405   3.655 -0.1164 -1.1065 -2.2080
  644MOL0     H86929   2.774   3.532   3.549  1.7337  0.3892  0.0550
  644MOL0     H86930   2.579   3.430   3.499  0.1905  0.7241  0.2772
  644MOL0     H86931   2.591   3.307   3.639  1.4461 -0.2471  0.8712
  644MOL0     H86932   2.817   3.250   3.500  1.4027 -0.1421  0.5637
  644MOL0     H86933   2.723   3.345   3.381 -0.7541  2.1047  1.7366
  644MOL0     H86934   2.595   3.109   3.532  0.9127  0.9910  0.8741
  644MOL0     H86935   2.531   3.202   3.392 -0.3558 -0.1775  1.8070
  644MOL0     H86936   2.797   2.953   3.173 -3.7957 -3.8980 -0.3985
  644MOL0     H86937   2.710   3.714   3.539 -1.8875  0.5350 -1.4167
  644MOL0     H86938   2.623   3.982   3.475  0.3421 -0.1785 -1.2809
  644MOL0     H86939   2.578   3.842   3.376 -2.3643  3.1106 -3.9293
  644MOL0     H86940   2.464   3.959   3.422  1.1167  0.3497  0.8999
  645MOL0     O86941   7.993  11.171  10.074 -0.1136 -0.3006  0.0536
  645MOL0     C86942   8.076  11.206   9.993  0.5196 -0.2860 -0.5126
  645MOL0     O86943   8.159  11.308  10.008  0.6046 -0.1376  0.4223
  645MOL0     C86944   8.141  11.390  10.113 -0.2075 -0.2141 -0.3401
  645MOL0     C86945   8.212  11.346  10.234  0.6717  0.6920  0.2953
  645MOL0     C86946   8.228  11.436  10.335  0.3246 -0.2599  0.3694
  645MOL0     C86947   8.181  11.573  10.317  0.8398 -0.7316 -0.0644
  645MOL0     O86948   8.184  11.677  10.410  0.7274  0.1621  0.1263
  645MOL0     C86949   8.209  11.633  10.551 -0.6158  0.9569  0.1018
  645MOL0     C86950   8.207  11.748  10.647 -0.1960 -0.6532 -0.6702
  645MOL0     C86951   8.301  11.879  10.625  0.7031  0.0747  0.1919
  645MOL0     C86952   8.324  11.979  10.737  0.4440 -0.2033 -0.4670
  645MOL0     C86953   8.431  12.091  10.698 -0.4724  0.3202  0.3660
  645MOL0     C86954   8.503  12.149  10.824  0.5936  1.1383 -0.2126
  645MOL0     C86955   8.630  12.229  10.781 -0.2719  0.0026  0.9146
  645MOL0     C86956   8.590  12.347  10.697 -0.3665 -0.4367 -0.1741
  645MOL0     N86957   8.700  12.438  10.664  0.8388  0.4725 -0.1364
  645MOL0     C86958   8.805  12.390  10.597  0.4453 -0.1322  0.1923
  645MOL0     C86959   8.858  12.505  10.556 -0.9929 -0.2332  0.9371
  645MOL0     C86960   8.987  12.494  10.478 -0.1129  0.2065 -0.0664
  645MOL0     C86961   9.103  12.413  10.548  0.2386 -0.2330 -0.2830
  645MOL0     C86962   9.224  12.395  10.459  0.3805  0.6885  0.0012
  645MOL0     C86963   9.343  12.374  10.561 -0.9237  0.4592  0.4356
  645MOL0     O86964   9.465  12.380  10.486 -0.6090 -0.3709  0.5583
  645MOL0     C86965   9.555  12.290  10.523  0.0280  0.5767 -0.4334
  645MOL0     C86966   9.638  12.318  10.631 -0.1897  0.5025  0.0767
  645MOL0     C86967   9.722  12.215  10.685  0.2742  0.6126 -0.0253
  645MOL0     C86968   9.727  12.088  10.628  0.8865 -0.0041 -0.0417
  645MOL0     C86969   9.816  11.993  10.686 -0.4041 -0.5299 -0.6693
  645MOL0     O86970   9.918  12.053  10.763 -0.1902 -0.1529 -0.7013
  645MOL0     C86971  10.010  11.968  10.833 -0.0566  0.1489  0.3181
  645MOL0     C86972   9.974  11.844  10.884 -1.4225  0.2873  0.0101
  645MOL0     C86973  10.072  11.763  10.956 -0.0095  0.6026  0.9623
  645MOL0     C86974  10.187  11.816  10.993  0.6080  0.9616  0.3424
  645MOL0     O86975  10.292  11.753  11.054 -0.2679 -0.3538  0.1404
  645MOL0     C86976  10.264  11.643  11.142  0.6917  0.4586  0.2329
  645MOL0     C86977  10.390  11.601  11.219  0.4422  0.0660 -0.3395
  645MOL0     C86978  10.359  11.504  11.339  0.5157 -0.0497  0.4026
  645MOL0     C86979  10.313  11.361  11.293 -0.7562 -0.1353  0.1810
  645MOL0     C86980  10.277  11.269  11.415  1.4620  0.9822 -0.6786
  645MOL0     C86981  10.301  11.118  11.385 -0.8062 -0.0195  1.0585
  645MOL0     C86982  10.221  11.024  11.472 -0.0249 -0.6489  0.6044
  645MOL0     C86983  10.252  11.047  11.619 -0.1221  0.4496  0.9595
  645MOL0    Cl86984  10.126  11.165  11.673 -0.1196  0.2472 -0.1405
  645MOL0     C86985  10.225  11.935  10.932  0.0018 -0.6788  0.4368
  645MOL0     C86986  10.140  12.017  10.849 -0.6483  0.2319 -0.6425
  645MOL0     O86987   9.825  11.891  10.625  0.3678  0.3843 -0.0569
  645MOL0     C86988   9.645  12.068  10.514  0.4817  0.3859 -0.5978
  645MOL0     C86989   9.555  12.164  10.468  0.1189  0.3505 -0.7609
  645MOL0     N86990   8.777  12.621  10.582 -1.0617 -0.7666  0.0997
  645MOL0     N86991   8.678  12.572  10.643 -0.4364 -0.3546  0.1525
  645MOL0     C86992   8.123  11.617  10.193 -0.8268 -0.1190 -1.1293
  645MOL0     C86993   8.104  11.516  10.090  0.5222  0.3695  0.0377
  645MOL0     C86994   8.104  11.118   9.881 -0.1416 -0.6781 -0.2895
  645MOL0     C86995   8.242  11.098   9.840  0.0885 -0.4664  0.0047
  645MOL0     C86996   8.276  10.999   9.736  0.4202 -0.2726 -0.2147
  645MOL0     C86997   8.184  10.916   9.680 -0.6784 -0.6136  0.1084
  645MOL0     O86998   8.234  10.814   9.591  0.1249 -0.0136 -0.4272
  645MOL0     C86999   8.145  10.714   9.548  0.5357  1.2238 -0.2552
  645MOL0     C87000   8.216  10.591   9.494  0.3287 -0.4742 -0.2716
  645MOL0     C87001   8.124  10.474   9.467 -1.1252  0.1422 -1.1749
  645MOL0     C87002   8.172  10.364   9.381  0.7734  1.2759  0.9397
  645MOL0     C87003   8.063  10.288   9.318  0.1299 -0.7428 -0.0312
  645MOL0     C87004   7.968  10.236   9.260  0.4030  0.7176 -0.5978
  645MOL0     C87005   8.050  10.932   9.727 -1.0935  0.3454  0.2942
  645MOL0     C87006   8.007  11.036   9.816 -0.9819  0.4926 -0.5851
  645MOL0     C87007   7.862  11.057   9.827 -0.9211 -0.7377 -0.0795
  645MOL0     H87008   8.269  11.255  10.253  1.4589  0.7744 -1.4614
  645MOL0     H87009   8.284  11.405  10.422  0.8980 -1.1922 -0.3104
  645MOL0     H87010   8.141  11.555  10.587  1.3646 -2.2498 -2.4850
  645MOL0     H87011   8.313  11.600  10.560  0.1854  3.7489  2.6786
  645MOL0     H87012   8.230  11.705  10.745 -2.8283 -4.3347 -1.4504
  645MOL0     H87013   8.101  11.777  10.656  0.0627 -0.1419  1.1323
  645MOL0     H87014   8.266  11.926  10.533  1.5920 -1.1106 -0.7910
  645MOL0     H87015   8.402  11.839  10.609  0.7680  0.9998 -2.2224
  645MOL0     H87016   8.227  12.022  10.762 -0.0062 -0.4638 -1.7217
  645MOL0     H87017   8.359  11.931  10.829 -0.5488  0.4427  0.2747
  645MOL0     H87018   8.510  12.044  10.638 -0.0678 -0.4700  1.4879
  645MOL0     H87019   8.384  12.171  10.639  1.4085  2.0567  1.1147
  645MOL0     H87020   8.431  12.218  10.870 -0.2734  1.9429 -2.5772
  645MOL0     H87021   8.536  12.070  10.891 -3.5968  0.0998  0.8978
  645MOL0     H87022   8.689  12.156  10.725 -1.6461 -1.6480  1.5392
  645MOL0     H87023   8.681  12.257  10.874  0.8471 -1.3903  0.7560
  645MOL0     H87024   8.537  12.318  10.606 -0.6865  0.5590 -0.3177
  645MOL0     H87025   8.516  12.408  10.750  0.8019  1.2978 -0.4541
  645MOL0     H87026   8.828  12.285  10.582  0.8353 -0.0718  0.3499
  645MOL0     H87027   8.965  12.460  10.376  0.8357  2.6297 -1.1760
  645MOL0     H87028   9.026  12.596  10.464  3.3428 -1.2622 -2.6485
  645MOL0     H87029   9.129  12.474  10.635  1.9379  0.1082 -0.9809
  645MOL0     H87030   9.062  12.322  10.593  0.8754  0.3985  1.7174
  645MOL0     H87031   9.239  12.472  10.383 -4.3371  1.3674 -0.5133
  645MOL0     H87032   9.206  12.305  10.398 -0.6863 -1.1111  2.7813
  645MOL0     H87033   9.335  12.272  10.600 -1.5405 -0.5306 -2.0593
  645MOL0     H87034   9.334  12.444  10.644  0.0433  0.7795  0.2729
  645MOL0     H87035   9.618  12.420  10.663 -0.3809  0.7718 -0.8490
  645MOL0     H87036   9.773  12.248  10.774  0.5265 -1.1672  0.5229
  645MOL0     H87037   9.880  11.796  10.859 -0.8385 -1.7485  1.5096
  645MOL0     H87038  10.047  11.661  10.985 -1.6281 -0.6116 -3.6967
  645MOL0     H87039  10.184  11.665  11.213  1.2573 -0.4472  1.1874
  645MOL0     H87040  10.221  11.557  11.089  0.5118  0.0535  1.0150
  645MOL0     H87041  10.452  11.545  11.147  0.6708 -1.8378  1.2584
  645MOL0     H87042  10.450  11.681  11.263  3.1498 -1.7972 -0.3783
  645MOL0     H87043  10.449  11.482  11.397 -0.0310  0.3588  1.4329
  645MOL0     H87044  10.285  11.553  11.404  1.0761  2.2070 -0.5654
  645MOL0     H87045  10.390  11.305  11.241 -0.6297  2.6367 -2.9687
  645MOL0     H87046  10.229  11.368  11.224  1.6010  0.4530 -2.8249
  645MOL0     H87047  10.171  11.287  11.437  1.0497 -2.1030  0.3778
  645MOL0     H87048  10.333  11.294  11.505  0.5166  1.0381 -0.0930
  645MOL0     H87049  10.267  11.099  11.283  3.4618  1.0097 -0.7936
  645MOL0     H87050  10.409  11.102  11.395 -0.6284  2.0639  3.6926
  645MOL0     H87051  10.251  10.924  11.440  2.1577  0.9674 -3.0104
  645MOL0     H87052  10.116  11.046  11.451  0.6036 -0.2831 -2.7377
  645MOL0     H87053  10.250  10.958  11.683 -1.1239  1.1528  1.9423
  645MOL0     H87054  10.349  11.098  11.625 -0.2480  0.7064  0.8017
  645MOL0     H87055  10.328  11.966  10.913 -0.5165 -0.7170 -3.2080
  645MOL0     H87056  10.177  12.107  10.802  0.8043  1.1803  2.0723
  645MOL0     H87057   9.637  11.971  10.466  0.2851 -2.3480  4.2390
  645MOL0     H87058   9.477  12.137  10.399 -0.4277 -3.9618  1.2360
  645MOL0     H87059   8.086  11.717  10.174  2.7894  2.3893  3.0595
  645MOL0     H87060   8.046  11.538  10.001  1.6089  0.2217 -0.7224
  645MOL0     H87061   8.317  11.159   9.890 -2.4466 -0.3167  4.1326
  645MOL0     H87062   8.377  10.989   9.698 -0.5767 -0.7456 -2.9197
  645MOL0     H87063   8.084  10.751   9.466 -0.6531  1.1254  0.5535
  645MOL0     H87064   8.076  10.694   9.631  0.4786  0.4650 -0.4802
  645MOL0     H87065   8.295  10.563   9.564 -0.0319 -1.1545 -0.1296
  645MOL0     H87066   8.262  10.625   9.400 -4.0505  1.6350 -1.9799
  645MOL0     H87067   8.041  10.521   9.413  2.1613  4.1049 -3.3841
  645MOL0     H87068   8.085  10.423   9.555 -1.4519 -0.9730 -1.9462
  645MOL0     H87069   8.229  10.420   9.307 -2.3765  2.9357 -0.4093
  645MOL0     H87070   8.235  10.298   9.442  1.6628  0.2926 -0.9596
  645MOL0     H87071   7.880  10.194   9.216 -1.0922  1.6733  1.3431
  645MOL0     H87072   7.981  10.865   9.677 -0.2406 -0.7146  0.4914
  645MOL0     H87073   7.822  11.044   9.726 -0.5727 -1.7419 -0.0997
  645MOL0     H87074   7.818  10.983   9.894  1.3279 -0.6122  1.6646
  645MOL0     H87075   7.837  11.159   9.858 -1.7463 -0.2598 -2.1361
  646MOL0     O87076   5.222   3.075  10.254  0.3196 -0.1423 -0.9588
  646MOL0     C87077   5.186   3.190  10.222  0.0468 -0.0306 -0.6374
  646MOL0     O87078   5.242   3.294  10.280  0.6003 -0.2688 -0.4706
  646MOL0     C87079   5.354   3.276  10.355  0.8175 -0.5660  0.6989
  646MOL0     C87080   5.348   3.257  10.493  0.5248  0.2475 -0.0346
  646MOL0     C87081   5.465   3.259  10.577 -0.4313  0.0178  0.8241
  646MOL0     C87082   5.587   3.282  10.510  0.4233 -0.5138 -0.3057
  646MOL0     O87083   5.701   3.283  10.589  0.4446 -0.2215  0.3808
  646MOL0     C87084   5.835   3.247  10.538 -0.0307 -0.2935  0.4651
  646MOL0     C87085   5.930   3.245  10.655 -0.4260 -0.0749  0.0156
  646MOL0     C87086   6.068   3.221  10.590 -0.3189  0.6595 -0.3944
  646MOL0     C87087   6.170   3.161  10.693 -0.1332  0.3903 -0.1869
  646MOL0     C87088   6.304   3.134  10.635 -0.0332 -0.1535  0.0434
  646MOL0     C87089   6.403   3.086  10.737  0.1480 -0.2837  0.9716
  646MOL0     C87090   6.539   3.099  10.677 -0.6326 -1.2982  0.2342
  646MOL0     C87091   6.644   3.058  10.772 -0.2838  0.0154 -0.3764
  646MOL0     N87092   6.665   2.914  10.742  0.1935  0.3753 -0.7660
  646MOL0     C87093   6.604   2.802  10.809  0.0861 -0.0649  0.4673
  646MOL0     C87094   6.654   2.690  10.757 -0.0012 -0.6581  0.3935
  646MOL0     C87095   6.598   2.560  10.798  0.2393 -0.3478 -0.3268
  646MOL0     C87096   6.452   2.541  10.743 -0.2879  0.2184  0.7682
  646MOL0     C87097   6.440   2.501  10.597 -0.1871 -0.3367  0.3351
  646MOL0     C87098   6.437   2.630  10.503 -0.2277 -0.3538  0.1992
  646MOL0     O87099   6.445   2.574  10.371  0.6094  0.5870  0.0888
  646MOL0     C87100   6.389   2.646  10.265 -0.5382  0.4549 -0.9100
  646MOL0     C87101   6.271   2.727  10.274 -0.0970 -0.0287 -0.8108
  646MOL0     C87102   6.214   2.785  10.167 -0.3467  0.3667 -0.6284
  646MOL0     C87103   6.268   2.769  10.036 -0.5654 -1.3505  0.7021
  646MOL0     C87104   6.215   2.836   9.911  0.2521 -0.4548  0.0085
  646MOL0     O87105   6.261   2.775   9.792  0.2188 -0.6530  0.0490
  646MOL0     C87106   6.187   2.786   9.681  0.0150 -0.8024 -0.4635
  646MOL0     C87107   6.139   2.663   9.639  0.5358 -0.7503 -0.3885
  646MOL0     C87108   6.082   2.660   9.519  0.8395 -0.1601 -0.1842
  646MOL0     C87109   6.054   2.773   9.445 -0.3683 -0.0267  0.6467
  646MOL0     O87110   5.981   2.749   9.336 -0.5700  0.3346  0.0735
  646MOL0     C87111   6.068   2.721   9.223 -0.1899 -0.1244  1.2844
  646MOL0     C87112   5.973   2.707   9.094  0.2704  0.1234 -0.1748
  646MOL0     C87113   5.861   2.602   9.106  0.0158 -0.0947 -0.1434
  646MOL0     C87114   5.749   2.629   9.003 -0.9437  0.1472 -0.0966
  646MOL0     C87115   5.639   2.528   8.998 -0.1859 -0.3294  0.3401
  646MOL0     C87116   5.523   2.559   8.910 -0.5186  0.3061  0.1736
  646MOL0     C87117   5.560   2.602   8.757 -0.1960  0.7275  0.3114
  646MOL0     C87118   5.431   2.620   8.682  0.2342 -0.6114 -0.4267
  646MOL0    Cl87119   5.348   2.460   8.658 -0.0527  0.2651  0.4514
  646MOL0     C87120   6.086   2.901   9.497 -0.2255  0.0640 -0.0523
  646MOL0     C87121   6.167   2.910   9.616  0.1413 -0.4659 -0.7664
  646MOL0     O87122   6.141   2.935   9.925 -0.7573  0.2429  0.2860
  646MOL0     C87123   6.376   2.690  10.027 -0.3802  0.4940 -0.7108
  646MOL0     C87124   6.438   2.627  10.137  0.5764  0.1831 -0.0301
  646MOL0     N87125   6.756   2.728  10.669 -0.0573  1.0253 -0.2576
  646MOL0     N87126   6.756   2.852  10.657  0.4180 -1.1500 -0.9675
  646MOL0     C87127   5.592   3.310  10.373 -0.0964  1.1843 -0.4949
  646MOL0     C87128   5.476   3.307  10.297  0.2071  0.3426 -0.5233
  646MOL0     C87129   5.101   3.225  10.106  0.1386 -0.0089 -0.9611
  646MOL0     C87130   5.127   3.348  10.035 -0.2699 -0.1745 -0.4785
  646MOL0     C87131   5.050   3.393   9.928 -0.3152  0.6457  0.8737
  646MOL0     C87132   4.930   3.326   9.892 -0.3638  1.1849 -1.2388
  646MOL0     O87133   4.853   3.369   9.797  1.1167  0.0400  0.7442
  646MOL0     C87134   4.876   3.495   9.737 -0.1086 -0.5123  0.3482
  646MOL0     C87135   4.758   3.521   9.633 -0.5266 -0.2985  0.0525
  646MOL0     C87136   4.625   3.560   9.690  0.5698  0.6004 -0.2387
  646MOL0     C87137   4.525   3.563   9.571  0.2071  0.5194  0.2718
  646MOL0     C87138   4.395   3.604   9.610  0.2710  0.3838  0.2296
  646MOL0     C87139   4.284   3.650   9.649 -0.1989  0.7132  0.1825
  646MOL0     C87140   4.913   3.199   9.951 -0.3991 -0.2782 -0.3911
  646MOL0     C87141   4.992   3.151  10.060  0.0704  0.5567  0.8705
  646MOL0     C87142   4.939   3.031  10.127 -0.2169  0.6840 -0.5091
  646MOL0     H87143   5.246   3.245  10.530  0.4517 -0.6428 -0.4886
  646MOL0     H87144   5.458   3.233  10.682 -0.1964  0.7851  1.0426
  646MOL0     H87145   5.833   3.153  10.481 -1.0448  1.8006 -3.3063
  646MOL0     H87146   5.874   3.325  10.472 -2.1552  0.8626  0.4880
  646MOL0     H87147   5.897   3.161  10.716  0.6063 -1.5563 -1.3776
  646MOL0     H87148   5.931   3.340  10.708  2.0581 -0.0312 -0.0169
  646MOL0     H87149   6.107   3.319  10.560 -2.4997  2.3113  1.7237
  646MOL0     H87150   6.064   3.150  10.507 -3.5749 -1.0363  1.0300
  646MOL0     H87151   6.170   3.232  10.777  2.1955  1.3443 -0.8958
  646MOL0     H87152   6.119   3.074  10.735 -0.0890  0.6098  0.3432
  646MOL0     H87153   6.309   3.070  10.547  3.0506 -1.7020  1.1658
  646MOL0     H87154   6.335   3.233  10.600 -4.8725 -0.1086 -5.7310
  646MOL0     H87155   6.397   3.144  10.830  0.2212 -0.8820  1.3545
  646MOL0     H87156   6.360   2.989  10.766 -2.7648  1.4358  3.0294
  646MOL0     H87157   6.577   3.200  10.658  0.2628 -2.2437 -4.0617
  646MOL0     H87158   6.551   3.054  10.578  1.1734  0.6408 -0.5228
  646MOL0     H87159   6.731   3.123  10.766 -1.0336  1.3836  2.1519
  646MOL0     H87160   6.609   3.067  10.875  1.2858  1.0096  0.0982
  646MOL0     H87161   6.526   2.818  10.883 -1.6669 -0.6548 -1.1500
  646MOL0     H87162   6.668   2.483  10.764  2.7699  2.3342 -1.5645
  646MOL0     H87163   6.575   2.535  10.902  1.1278 -0.6055 -0.1871
  646MOL0     H87164   6.401   2.461  10.797 -1.9708  1.0367  0.4397
  646MOL0     H87165   6.382   2.625  10.754 -1.1505 -0.1120 -1.6105
  646MOL0     H87166   6.353   2.438  10.577  1.4226 -2.0403 -1.7833
  646MOL0     H87167   6.525   2.437  10.571  1.7889  2.1597  0.2622
  646MOL0     H87168   6.531   2.685  10.515 -0.3506  0.0871 -0.7612
  646MOL0     H87169   6.356   2.698  10.529 -0.1614 -0.5154  0.8358
  646MOL0     H87170   6.214   2.723  10.366 -3.2414 -1.3976 -2.6639
  646MOL0     H87171   6.131   2.853  10.182 -0.8121 -0.7889  2.7769
  646MOL0     H87172   6.164   2.571   9.692  0.1333 -2.2449 -2.6728
  646MOL0     H87173   6.040   2.567   9.483 -0.6065 -0.1287  1.3042
  646MOL0     H87174   6.148   2.795   9.212 -0.3281 -0.0368  0.8256
  646MOL0     H87175   6.126   2.630   9.239 -0.4055  0.0157  3.0672
  646MOL0     H87176   5.919   2.801   9.078 -0.6660 -0.2479  0.7250
  646MOL0     H87177   6.031   2.681   9.005  1.0788  1.6742 -0.1290
  646MOL0     H87178   5.907   2.504   9.088  1.1819  0.0971  1.4491
  646MOL0     H87179   5.813   2.597   9.204 -0.5091 -4.1315 -0.3997
  646MOL0     H87180   5.796   2.624   8.904 -0.5540 -0.8350  0.1283
  646MOL0     H87181   5.698   2.722   9.026 -2.3292 -1.0183  1.7770
  646MOL0     H87182   5.606   2.511   9.101  0.7210  0.2127  0.7374
  646MOL0     H87183   5.689   2.436   8.965 -1.1517 -0.5248 -0.6626
  646MOL0     H87184   5.450   2.477   8.911  2.1995 -2.3534 -1.2196
  646MOL0     H87185   5.478   2.647   8.957  0.4738  1.3695 -0.8054
  646MOL0     H87186   5.621   2.529   8.702 -2.2245 -0.8848  0.0525
  646MOL0     H87187   5.603   2.702   8.756 -0.7005  0.9860 -2.1966
  646MOL0     H87188   5.365   2.689   8.734  0.8087 -1.4359  1.4680
  646MOL0     H87189   5.442   2.667   8.584 -2.0662  0.8300 -0.0598
  646MOL0     H87190   6.047   2.982   9.437 -0.2602 -0.4376 -0.7142
  646MOL0     H87191   6.204   3.006   9.650  0.1646 -0.9507  0.6309
  646MOL0     H87192   6.429   2.686   9.932 -0.2946 -1.3634 -0.6226
  646MOL0     H87193   6.531   2.575  10.120  0.2426 -0.4874  0.1613
  646MOL0     H87194   5.690   3.308  10.328  0.4270 -2.0001  0.5828
  646MOL0     H87195   5.471   3.316  10.189 -1.6984  2.0069 -0.3522
  646MOL0     H87196   5.215   3.403  10.068  0.7039 -2.1673  0.3856
  646MOL0     H87197   5.088   3.476   9.871  1.0857  0.1261  1.0077
  646MOL0     H87198   4.966   3.496   9.676  0.1022 -0.0007  0.6525
  646MOL0     H87199   4.886   3.570   9.817 -3.4371 -0.0434  0.4823
  646MOL0     H87200   4.764   3.433   9.568  2.6341  1.5566 -2.4839
  646MOL0     H87201   4.801   3.596   9.566 -0.4294  1.6606  2.1582
  646MOL0     H87202   4.623   3.659   9.737 -2.2136  0.0514  1.0254
  646MOL0     H87203   4.589   3.495   9.770 -1.9539  0.5214 -1.3210
  646MOL0     H87204   4.563   3.623   9.488  1.4166  2.2533  1.9761
  646MOL0     H87205   4.502   3.466   9.528  1.1263  1.3140 -2.1940
  646MOL0     H87206   4.186   3.689   9.669 -0.8342  0.6542 -2.4519
  646MOL0     H87207   4.826   3.144   9.918  0.3604 -3.6578  2.6811
  646MOL0     H87208   5.009   2.947  10.121  0.6827  1.2320  1.4427
  646MOL0     H87209   4.927   3.044  10.235 -2.9864 -2.3808 -0.3070
  646MOL0     H87210   4.843   2.991  10.093  0.0475  0.2551 -0.7589
  647MOL0     O87211   1.033   8.848  11.271  0.1486 -0.0431  0.2714
  647MOL0     C87212   0.988   8.834  11.157 -0.5537  1.0379 -0.3292
  647MOL0     O87213   0.886   8.744  11.126 -0.6962  0.2945 -0.2617
  647MOL0     C87214   0.857   8.648  11.221 -0.9397  0.1160 -0.1598
  647MOL0     C87215   0.951   8.544  11.232 -0.0073  0.3868  0.3410
  647MOL0     C87216   0.923   8.431  11.308  0.4842 -0.2221 -0.3230
  647MOL0     C87217   0.799   8.424  11.367  0.3334 -0.8942 -0.4915
  647MOL0     O87218   0.780   8.319  11.458 -0.2488 -0.7176 -0.5278
  647MOL0     C87219   0.775   8.193  11.396  0.5465  0.0171  0.2022
  647MOL0     C87220   0.704   8.101  11.489 -0.2499  0.2732 -0.0909
  647MOL0     C87221   0.793   8.055  11.613  0.8242  0.0253  0.4913
  647MOL0     C87222   0.759   7.908  11.644 -0.5526  0.5423 -0.3356
  647MOL0     C87223   0.630   7.883  11.718  0.8239 -0.4786  0.2009
  647MOL0     C87224   0.603   7.731  11.743  0.0917  0.5673 -0.2850
  647MOL0     C87225   0.456   7.702  11.789  0.5232  0.8705 -0.4215
  647MOL0     C87226   0.425   7.722  11.936 -0.1478 -0.7728  0.1612
  647MOL0     N87227   0.503   7.628  12.018 -0.0018  0.1746 -0.2710
  647MOL0     C87228   0.489   7.490  12.033 -0.2245 -0.9191  0.4924
  647MOL0     C87229   0.575   7.469  12.141 -0.2059 -0.2389  0.3223
  647MOL0     C87230   0.612   7.346  12.217  0.1789  0.4526 -0.8102
  647MOL0     C87231   0.555   7.371  12.358 -0.4191  1.1426  0.5009
  647MOL0     C87232   0.399   7.358  12.366  0.0641 -0.3551 -0.1394
  647MOL0     C87233   0.324   7.488  12.323 -0.6275 -0.3375  0.2760
  647MOL0     O87234   0.188   7.467  12.365  0.1047  0.6796  0.3836
  647MOL0     C87235   0.162   7.492  12.502  0.7545 -0.4704  0.0609
  647MOL0     C87236   0.243   7.540  12.605  0.1742 -0.2577 -0.2336
  647MOL0     C87237   0.200   7.554  12.738 -0.1267  0.6371 -1.0155
  647MOL0     C87238   0.072   7.519  12.775 -0.6082 -0.8951  0.0725
  647MOL0     C87239   0.031   7.526  12.918 -0.0191 -0.5673 -0.4616
  647MOL0     O87240   0.124   7.571  13.007  0.0896 -0.5526 -0.3657
  647MOL0     C87241   0.090   7.588  13.141  1.1396 -0.1439  0.0444
  647MOL0     C87242  -0.036   7.607  13.198  0.3452  0.2150 -0.3945
  647MOL0     C87243  -0.050   7.610  13.332 -0.0387 -0.5020 -1.2093
  647MOL0     C87244   0.063   7.611  13.419 -0.3695 -0.1142 -0.1212
  647MOL0     O87245   0.054   7.641  13.554  0.1461 -0.2175 -0.2236
  647MOL0     C87246   0.096   7.540  13.652 -0.2892 -0.6198 -0.1404
  647MOL0     C87247   0.017   7.549  13.781 -0.8751 -0.2417 -0.1578
  647MOL0     C87248   0.033   7.425  13.873  0.5323 -0.2041 -0.4651
  647MOL0     C87249  -0.038   7.468  14.011 -0.4711 -0.3622  0.4532
  647MOL0     C87250  -0.017   7.357  14.116  0.3679  0.0196 -0.3876
  647MOL0     C87251  -0.104   7.369  14.238  0.5748 -0.5576 -0.7173
  647MOL0     C87252  -0.088   7.243  14.329 -0.2937  0.6519 -1.3571
  647MOL0     C87253   0.019   7.244  14.442 -0.6292 -0.9695 -0.1742
  647MOL0    Cl87254   0.037   7.090  14.525  0.1777  0.4375  0.4545
  647MOL0     C87255   0.188   7.580  13.368 -0.1196  0.4077 -0.3155
  647MOL0     C87256   0.200   7.578  13.226  0.6940  0.1791 -0.3897
  647MOL0     O87257  -0.074   7.472  12.951  0.8040  0.6587 -0.0124
  647MOL0     C87258  -0.005   7.463  12.671  0.7212 -1.0658 -0.5026
  647MOL0     C87259   0.040   7.441  12.541 -0.4153 -0.2651  0.6923
  647MOL0     N87260   0.644   7.587  12.168  0.6540 -0.0213 -0.4673
  647MOL0     N87261   0.594   7.678  12.096 -0.3530  0.3018 -0.2246
  647MOL0     C87262   0.699   8.526  11.353 -1.0894  0.0016  0.1569
  647MOL0     C87263   0.733   8.646  11.284 -0.2391  0.2847  0.6674
  647MOL0     C87264   1.045   8.914  11.036 -1.2340  0.0420 -0.4355
  647MOL0     C87265   1.155   8.994  11.071  0.4067 -0.1696  0.1287
  647MOL0     C87266   1.226   9.066  10.985 -0.0299 -0.5244 -0.0840
  647MOL0     C87267   1.199   9.052  10.846  0.2532 -0.8003 -0.3070
  647MOL0     O87268   1.263   9.119  10.749 -0.0601 -0.1866  0.6393
  647MOL0     C87269   1.379   9.186  10.783 -0.5076 -0.4384  1.0229
  647MOL0     C87270   1.424   9.262  10.665  0.0556  0.7026 -0.4983
  647MOL0     C87271   1.532   9.209  10.577  0.7228  0.5588 -0.1191
  647MOL0     C87272   1.553   9.273  10.442  0.6627  0.0610  0.3132
  647MOL0     C87273   1.627   9.402  10.453  0.2730  0.0844  0.1098
  647MOL0     C87274   1.684   9.514  10.452 -0.0690 -0.1452  0.9879
  647MOL0     C87275   1.081   8.984  10.799  1.1668  0.1238 -1.2291
  647MOL0     C87276   1.006   8.910  10.900 -0.2463 -0.5399 -0.2373
  647MOL0     C87277   0.882   8.825  10.860 -0.2544 -0.3248  1.1832
  647MOL0     H87278   1.038   8.541  11.167 -0.9102  0.3020 -0.8901
  647MOL0     H87279   0.992   8.348  11.321 -1.2221 -1.4385  1.6123
  647MOL0     H87280   0.721   8.205  11.302  1.7261 -1.3303 -0.6900
  647MOL0     H87281   0.868   8.148  11.361 -0.9042  0.7809 -5.6229
  647MOL0     H87282   0.663   8.013  11.437 -1.6667  0.3224  0.8797
  647MOL0     H87283   0.619   8.159  11.524 -0.7246 -1.1595  1.2763
  647MOL0     H87284   0.758   8.116  11.697  1.1629 -1.0046  1.3936
  647MOL0     H87285   0.899   8.077  11.598  1.0832  1.0677  3.2657
  647MOL0     H87286   0.772   7.852  11.551  1.1869  1.3492 -0.6116
  647MOL0     H87287   0.841   7.882  11.711 -0.6112  0.0786 -0.4434
  647MOL0     H87288   0.632   7.922  11.820 -0.6386  1.4623 -0.4626
  647MOL0     H87289   0.548   7.930  11.662 -0.5865 -1.3354  1.4935
  647MOL0     H87290   0.614   7.682  11.646  1.4138 -1.3108  0.7339
  647MOL0     H87291   0.671   7.684  11.815  0.7350  0.8520 -0.6937
  647MOL0     H87292   0.442   7.597  11.763 -0.4969  1.5232 -2.8386
  647MOL0     H87293   0.394   7.763  11.722  2.9545 -0.0255 -3.7154
  647MOL0     H87294   0.433   7.823  11.976 -1.2548 -0.8934  0.7269
  647MOL0     H87295   0.317   7.710  11.953 -0.5826  1.9299 -0.2347
  647MOL0     H87296   0.442   7.403  11.987 -1.8992 -1.4335  2.9952
  647MOL0     H87297   0.574   7.252  12.174  0.9176 -1.5661  2.5588
  647MOL0     H87298   0.720   7.342  12.227 -0.0411 -0.5161  2.5067
  647MOL0     H87299   0.594   7.296  12.427 -2.9405  0.7658  1.6154
  647MOL0     H87300   0.575   7.477  12.379 -0.0829  0.5703  3.5108
  647MOL0     H87301   0.366   7.325  12.465 -1.3826 -2.6908 -1.3034
  647MOL0     H87302   0.373   7.268  12.309 -1.2473  0.2451 -0.5188
  647MOL0     H87303   0.328   7.507  12.215  2.4028  2.4267  0.7207
  647MOL0     H87304   0.372   7.579  12.360  4.5952 -1.2915 -3.0976
  647MOL0     H87305   0.348   7.560  12.591 -0.1941  0.7599 -1.7747
  647MOL0     H87306   0.273   7.572  12.815 -0.0642 -0.8248 -0.7126
  647MOL0     H87307  -0.126   7.622  13.140 -0.5304  0.1538  0.9200
  647MOL0     H87308  -0.148   7.617  13.377 -0.0337 -0.3859 -1.2160
  647MOL0     H87309   0.065   7.440  13.620  1.5846 -2.1877  2.5859
  647MOL0     H87310   0.203   7.545  13.672 -0.1002 -0.3522 -1.1329
  647MOL0     H87311   0.063   7.624  13.845 -1.1098 -0.1879 -0.0545
  647MOL0     H87312  -0.081   7.577  13.742  0.4942  1.4782 -2.6617
  647MOL0     H87313  -0.003   7.332  13.827  4.5421 -1.4604 -1.4335
  647MOL0     H87314   0.140   7.405  13.885  0.1732 -1.4269  1.0315
  647MOL0     H87315  -0.146   7.479  14.009 -0.7551 -0.6572  4.5292
  647MOL0     H87316   0.002   7.565  14.043  2.0349 -1.4076  0.7145
  647MOL0     H87317   0.089   7.355  14.142  0.0539 -1.6484  0.8352
  647MOL0     H87318  -0.040   7.264  14.064 -2.1691  1.5472 -2.2428
  647MOL0     H87319  -0.081   7.457  14.299  4.3541 -0.9309 -1.3512
  647MOL0     H87320  -0.209   7.375  14.208  0.5207  1.4321 -0.2590
  647MOL0     H87321  -0.054   7.169  14.257  3.3256 -1.1025  1.8013
  647MOL0     H87322  -0.179   7.207  14.379  0.5926  3.2516  2.6930
  647MOL0     H87323   0.115   7.277  14.399  0.7408 -2.1912  1.8123
  647MOL0     H87324  -0.009   7.326  14.508  1.2459  1.2338 -1.9165
  647MOL0     H87325   0.275   7.554  13.427 -1.8273 -3.0920  0.9470
  647MOL0     H87326   0.299   7.571  13.183  0.9034  0.2569  0.0778
  647MOL0     H87327  -0.111   7.448  12.691  1.2479 -1.4789  2.5989
  647MOL0     H87328  -0.032   7.408  12.467 -1.5846  1.3234  1.0749
  647MOL0     H87329   0.602   8.517  11.402 -0.0763 -2.2417  1.9603
  647MOL0     H87330   0.669   8.733  11.273  2.0464  2.1054  0.8559
  647MOL0     H87331   1.193   8.989  11.172  2.8890 -3.2654 -0.7802
  647MOL0     H87332   1.306   9.126  11.029 -2.2990  3.7942 -1.2397
  647MOL0     H87333   1.454   9.113  10.814 -1.7397 -1.5758  1.4361
  647MOL0     H87334   1.366   9.258  10.865  0.3764  0.3893  0.4485
  647MOL0     H87335   1.467   9.356  10.701 -2.6881  1.1679  1.9264
  647MOL0     H87336   1.341   9.283  10.596  0.7185 -1.4710 -2.0820
  647MOL0     H87337   1.507   9.104  10.555  0.3856  1.2446 -3.4610
  647MOL0     H87338   1.628   9.202  10.629  0.9333  1.2756 -0.4059
  647MOL0     H87339   1.606   9.212  10.368 -1.0223  0.7820 -1.5953
  647MOL0     H87340   1.455   9.285  10.395  1.6843  0.7634 -1.7755
  647MOL0     H87341   1.752   9.597  10.457 -0.1331  0.1358 -1.4874
  647MOL0     H87342   1.060   8.972  10.693  0.6467 -6.6818 -0.7764
  647MOL0     H87343   0.857   8.820  10.754  4.6474 -3.0192 -0.1588
  647MOL0     H87344   0.881   8.718  10.884  1.2426 -0.7290 -0.3769
  647MOL0     H87345   0.801   8.878  10.911 -0.4815  1.0888 -0.5564
  648MOL0     O87346   0.039   9.202   8.385 -0.9576 -0.1791  0.9728
  648MOL0     C87347   0.046   9.087   8.351  0.1298 -0.4809  0.3255
  648MOL0     O87348   0.092   9.049   8.223 -0.7184  0.6004 -0.3198
  648MOL0     C87349   0.111   9.146   8.138 -0.0504  0.7308  0.9288
  648MOL0     C87350   0.233   9.150   8.079 -0.5393 -0.3458  0.3550
  648MOL0     C87351   0.263   9.246   7.980 -0.1144  0.3736  0.2357
  648MOL0     C87352   0.159   9.337   7.927  0.1331  0.5021  0.1653
  648MOL0     O87353   0.170   9.414   7.816 -0.4028 -0.2663  0.2119
  648MOL0     C87354   0.302   9.432   7.766  0.1466 -0.8164 -0.2805
  648MOL0     C87355   0.304   9.556   7.673  0.8295  0.0131 -0.4383
  648MOL0     C87356   0.349   9.679   7.753  0.4753  0.2634 -0.3151
  648MOL0     C87357   0.383   9.800   7.667  0.1621  0.0518  1.0337
  648MOL0     C87358   0.405   9.925   7.758  0.6714  0.4407 -0.0208
  648MOL0     C87359   0.403  10.052   7.667 -0.1768 -0.8105 -1.2375
  648MOL0     C87360   0.432  10.171   7.759 -0.7853  0.0546 -0.7004
  648MOL0     C87361   0.585  10.204   7.763  0.1157 -0.4503 -0.5563
  648MOL0     N87362   0.607  10.324   7.849  0.3653 -0.7481 -0.0125
  648MOL0     C87363   0.721  10.377   7.910  1.6208  0.0128  0.5868
  648MOL0     C87364   0.682  10.508   7.931 -0.2311 -0.7730 -0.3348
  648MOL0     C87365   0.766  10.611   7.996  0.4498 -0.5993  0.2147
  648MOL0     C87366   0.822  10.576   8.130 -0.3907 -0.4013 -0.0315
  648MOL0     C87367   0.927  10.679   8.184  0.1640 -0.0614  0.8177
  648MOL0     C87368   0.946  10.673   8.333 -0.0355 -0.2794  0.1274
  648MOL0     O87369   1.080  10.720   8.373 -0.3890 -0.2375  0.6387
  648MOL0     C87370   1.185  10.630   8.378 -0.8754  0.0872  0.5675
  648MOL0     C87371   1.179  10.495   8.347  0.2333 -0.5023  0.2355
  648MOL0     C87372   1.305  10.429   8.333 -0.3386 -0.8060 -0.5823
  648MOL0     C87373   1.431  10.496   8.351 -0.6670 -0.3166  0.1594
  648MOL0     C87374   1.551  10.419   8.327 -0.7617  0.1380  1.3585
  648MOL0     O87375   1.665  10.498   8.349 -0.1082  0.0215  0.6979
  648MOL0     C87376   1.787  10.445   8.346 -0.4461 -0.1888 -0.9645
  648MOL0     C87377   1.822  10.317   8.381 -1.2398 -0.0240 -0.2918
  648MOL0     C87378   1.956  10.282   8.372 -0.8239  0.5514 -0.6207
  648MOL0     C87379   2.056  10.374   8.327  1.0560 -0.8551  0.4186
  648MOL0     O87380   2.189  10.346   8.304 -0.0670 -0.4738 -0.0569
  648MOL0     C87381   2.217  10.212   8.287 -0.3015  0.4038  0.6359
  648MOL0     C87382   2.272  10.153   8.414 -0.0012  1.0522  0.1829
  648MOL0     C87383   2.379  10.046   8.391 -0.1820  0.4825  0.2353
  648MOL0     C87384   2.346   9.946   8.282 -0.6641  0.0931  0.4796
  648MOL0     C87385   2.433   9.820   8.272  1.2788 -0.1476  0.2829
  648MOL0     C87386   2.407   9.743   8.144  0.0541 -0.6128 -0.0823
  648MOL0     C87387   2.510   9.634   8.134  0.0905  0.0341  1.1602
  648MOL0     C87388   2.460   9.494   8.207  0.8047 -0.5980 -0.1024
  648MOL0    Cl87389   2.587   9.372   8.209  0.1952  0.1105 -0.4976
  648MOL0     C87390   2.025  10.503   8.296  0.7011 -0.3629  0.8825
  648MOL0     C87391   1.888  10.539   8.312  0.3706 -0.6371  0.5056
  648MOL0     O87392   1.547  10.297   8.290 -0.4068 -0.2064  0.6858
  648MOL0     C87393   1.433  10.631   8.382  0.6122 -0.4029  0.0070
  648MOL0     C87394   1.310  10.696   8.403 -0.7214 -0.4830  0.2891
  648MOL0     N87395   0.556  10.539   7.881  0.4987 -0.8128  0.4316
  648MOL0     N87396   0.514  10.423   7.834 -0.3396 -0.1017 -0.2301
  648MOL0     C87397   0.032   9.322   7.996  0.4185 -0.0142  0.9864
  648MOL0     C87398   0.009   9.227   8.101 -0.2697  0.0541 -0.2441
  648MOL0     C87399   0.042   8.981   8.449  0.8851  0.1659 -0.8032
  648MOL0     C87400   0.084   8.852   8.401 -0.1150 -0.2850 -0.1058
  648MOL0     C87401   0.082   8.737   8.488 -0.3235 -0.1144 -0.2816
  648MOL0     C87402   0.057   8.760   8.621 -0.0660  0.4375  1.1248
  648MOL0     O87403   0.038   8.647   8.705 -0.4844  0.2319  0.1511
  648MOL0     C87404  -0.010   8.663   8.838 -0.1859  1.0216  0.5361
  648MOL0     C87405  -0.041   8.526   8.898 -0.1791  1.0212  0.3715
  648MOL0     C87406  -0.057   8.524   9.054 -0.3486  1.0800  0.5645
  648MOL0     C87407  -0.079   8.375   9.088  0.4923 -0.0876 -1.0346
  648MOL0     C87408  -0.101   8.359   9.237 -0.2310  0.3292  0.0788
  648MOL0     C87409  -0.134   8.343   9.356 -0.7459 -0.5049  0.4756
  648MOL0     C87410   0.037   8.890   8.674  0.1715 -0.2079  0.2923
  648MOL0     C87411   0.032   9.003   8.589 -0.1922  0.1918 -0.2316
  648MOL0     C87412   0.001   9.133   8.667  0.0534 -0.3831 -0.4903
  648MOL0     H87413   0.312   9.078   8.096  0.8480  0.2831 -2.6977
  648MOL0     H87414   0.360   9.237   7.933 -0.0777  0.0970  0.3629
  648MOL0     H87415   0.366   9.453   7.852  0.0116  0.5938 -0.5032
  648MOL0     H87416   0.335   9.338   7.719  2.5234 -0.3007  0.2446
  648MOL0     H87417   0.203   9.573   7.634  0.6235 -0.9686 -0.3460
  648MOL0     H87418   0.367   9.536   7.586  1.5460  3.2900 -0.8066
  648MOL0     H87419   0.440   9.646   7.804 -1.6559 -3.0417  1.7268
  648MOL0     H87420   0.275   9.709   7.827 -0.2369  0.5977 -1.1519
  648MOL0     H87421   0.473   9.773   7.611 -1.8766  0.8225 -2.9838
  648MOL0     H87422   0.302   9.809   7.595 -1.4286  0.0655  2.7557
  648MOL0     H87423   0.318   9.923   7.825  0.9432 -0.6585  0.3299
  648MOL0     H87424   0.498   9.924   7.816  0.5107  2.6687  0.3505
  648MOL0     H87425   0.473  10.057   7.584  0.5790 -1.5965 -0.6618
  648MOL0     H87426   0.300  10.070   7.634 -0.5916 -3.2935 -1.4417
  648MOL0     H87427   0.394  10.158   7.861  0.8864  0.1507 -0.0290
  648MOL0     H87428   0.383  10.257   7.713 -0.7260 -1.1220 -3.1128
  648MOL0     H87429   0.647  10.123   7.803  2.3979  1.8200  0.8589
  648MOL0     H87430   0.614  10.227   7.660 -0.9139 -0.0613 -0.7678
  648MOL0     H87431   0.817  10.335   7.939  2.0493 -0.1174 -0.9380
  648MOL0     H87432   0.848  10.634   7.928  0.4463 -1.3863 -0.0723
  648MOL0     H87433   0.704  10.701   8.002 -0.9198 -1.3795 -1.3924
  648MOL0     H87434   0.745  10.569   8.207  2.4477 -1.2562  2.9956
  648MOL0     H87435   0.866  10.476   8.137 -3.0894 -1.6088  1.1682
  648MOL0     H87436   0.901  10.784   8.166 -0.3723 -0.3985 -0.4675
  648MOL0     H87437   1.020  10.652   8.134  0.0568 -0.7432  0.9832
  648MOL0     H87438   0.941  10.566   8.358 -1.2628 -0.2693 -0.0079
  648MOL0     H87439   0.871  10.729   8.389  1.6823  0.8654  1.4037
  648MOL0     H87440   1.087  10.442   8.325 -0.7722  0.7119  1.3816
  648MOL0     H87441   1.310  10.327   8.295  0.6231 -2.9870  4.5350
  648MOL0     H87442   1.754  10.237   8.409 -1.5439 -0.3905 -1.9591
  648MOL0     H87443   1.984  10.178   8.388  0.0876  1.0079  1.0125
  648MOL0     H87444   2.147  10.143   8.238 -0.8873  0.9543  0.6977
  648MOL0     H87445   2.295  10.219   8.210  2.1272  0.9131  2.9967
  648MOL0     H87446   2.314  10.232   8.477  0.7956 -0.7164  1.9555
  648MOL0     H87447   2.191  10.102   8.467 -0.0952  1.4295  0.4096
  648MOL0     H87448   2.474  10.089   8.357  1.0099 -3.4233 -2.0050
  648MOL0     H87449   2.400  10.000   8.488  0.0384 -1.4778 -0.7009
  648MOL0     H87450   2.350   9.994   8.184 -0.8488  0.9127  0.8640
  648MOL0     H87451   2.245   9.908   8.301 -0.2256 -0.5099  1.6868
  648MOL0     H87452   2.421   9.759   8.362 -2.6765 -1.6197 -1.0233
  648MOL0     H87453   2.535   9.859   8.263  0.5654  1.7387 -0.2005
  648MOL0     H87454   2.304   9.705   8.142  0.9995 -3.3774 -0.5963
  648MOL0     H87455   2.420   9.804   8.054 -0.9962  0.0150  0.1738
  648MOL0     H87456   2.610   9.662   8.167  1.2925 -1.0800 -1.2792
  648MOL0     H87457   2.529   9.620   8.028 -1.0097 -1.7400  1.1598
  648MOL0     H87458   2.434   9.505   8.312 -2.5540  0.4669 -0.9261
  648MOL0     H87459   2.373   9.453   8.154  1.6363 -1.4430 -0.8652
  648MOL0     H87460   2.102  10.571   8.263  0.5984 -0.9253 -0.6318
  648MOL0     H87461   1.874  10.644   8.289  0.8936 -0.3883  1.2685
  648MOL0     H87462   1.519  10.689   8.411  0.1761  0.1812  0.1524
  648MOL0     H87463   1.319  10.803   8.423 -2.6925 -0.1542 -0.3946
  648MOL0     H87464  -0.058   9.376   7.965 -1.7893 -4.3720 -1.0773
  648MOL0     H87465  -0.086   9.218   8.154  0.4663 -1.1218  0.9427
  648MOL0     H87466   0.088   8.838   8.294  3.5635  0.2448 -0.1460
  648MOL0     H87467   0.095   8.639   8.445  0.5455 -0.0578 -0.1579
  648MOL0     H87468  -0.102   8.718   8.819  0.1645  0.6374 -2.9375
  648MOL0     H87469   0.053   8.721   8.905 -0.8484  2.1550  0.2064
  648MOL0     H87470   0.047   8.468   8.870  0.5792  1.9310  0.8308
  648MOL0     H87471  -0.133   8.486   8.854 -0.0788  1.6171 -0.4048
  648MOL0     H87472  -0.137   8.587   9.094  0.3109  0.9413  2.1829
  648MOL0     H87473   0.036   8.546   9.108 -0.2390  2.7349 -0.2361
  648MOL0     H87474  -0.159   8.329   9.029 -0.0914 -3.0482  1.7420
  648MOL0     H87475   0.007   8.315   9.056  0.1747 -1.1888  0.0498
  648MOL0     H87476  -0.145   8.347   9.462  1.2406  0.7205  0.7016
  648MOL0     H87477   0.021   8.908   8.780  0.6805 -0.9150  0.5002
  648MOL0     H87478   0.038   9.126   8.770 -0.6093  1.9499 -0.0241
  648MOL0     H87479   0.065   9.216   8.637 -3.1966  2.0185 -1.3606
  648MOL0     H87480  -0.105   9.159   8.662  0.4438  2.8090  3.1373
  649MOL0     O87481   2.487   6.707   0.629  0.2481  0.3947  0.1123
  649MOL0     C87482   2.471   6.673   0.744  0.2755  0.2865  0.0352
  649MOL0     O87483   2.357   6.617   0.796  0.6928 -0.1088  0.3592
  649MOL0     C87484   2.235   6.650   0.742  0.1466  0.5987 -0.3767
  649MOL0     C87485   2.203   6.768   0.671  0.3564  0.0260 -0.3426
  649MOL0     C87486   2.074   6.795   0.632  0.6545  0.5775 -0.7160
  649MOL0     C87487   1.967   6.708   0.652  0.5141 -0.1037  0.0330
  649MOL0     O87488   1.855   6.756   0.593  0.2493  0.5390 -0.9844
  649MOL0     C87489   1.751   6.668   0.579  0.4235  0.3080 -0.2863
  649MOL0     C87490   1.662   6.711   0.466 -0.0482 -0.1725  0.0515
  649MOL0     C87491   1.537   6.619   0.461 -0.0182 -0.0535  0.3993
  649MOL0     C87492   1.564   6.473   0.400 -0.1757 -0.7813 -0.1699
  649MOL0     C87493   1.540   6.462   0.246  0.2818 -0.2357  1.0104
  649MOL0     C87494   1.509   6.315   0.210 -0.8087  1.0073 -0.0565
  649MOL0     C87495   1.624   6.217   0.234 -0.1483  0.5817 -1.0371
  649MOL0     C87496   1.609   6.082   0.149  0.4897  0.1915  0.3150
  649MOL0     N87497   1.483   6.010   0.181 -0.7198  0.4455  0.5393
  649MOL0     C87498   1.468   5.933   0.296  0.1786 -0.4432 -0.2714
  649MOL0     C87499   1.341   5.892   0.299  0.4165  0.3481 -0.2331
  649MOL0     C87500   1.268   5.844   0.414 -0.1780  0.1008  0.1085
  649MOL0     C87501   1.146   5.761   0.376  0.7218 -0.1650 -0.3805
  649MOL0     C87502   1.023   5.852   0.345 -0.2145 -0.4183 -0.6323
  649MOL0     C87503   0.896   5.771   0.321 -0.0223 -1.1333 -1.3035
  649MOL0     O87504   0.867   5.704   0.445  0.5895 -0.7136  0.0142
  649MOL0     C87505   0.740   5.650   0.459 -2.1775 -0.1778 -0.0024
  649MOL0     C87506   0.682   5.568   0.366  0.3954  0.2119 -0.1045
  649MOL0     C87507   0.553   5.513   0.387  0.2205  0.1334 -0.0643
  649MOL0     C87508   0.482   5.529   0.512  0.8479 -1.4369 -0.0092
  649MOL0     C87509   0.354   5.475   0.534  0.0847 -0.3353  0.0351
  649MOL0     O87510   0.313   5.375   0.444 -0.6231 -0.5416  0.0634
  649MOL0     C87511   0.192   5.319   0.471 -0.7919 -0.1155  1.1257
  649MOL0     C87512   0.158   5.242   0.585  0.7864  0.5019  0.3099
  649MOL0     C87513   0.038   5.174   0.589  0.2739 -0.3569 -1.1752
  649MOL0     C87514  -0.058   5.190   0.487  0.2280  0.6145 -0.0883
  649MOL0     O87515  -0.174   5.123   0.495 -0.6491  0.4266  0.4497
  649MOL0     C87516  -0.173   4.983   0.464 -0.3248  0.0220 -0.0620
  649MOL0     C87517  -0.288   4.914   0.525 -0.8644  2.2182 -0.1036
  649MOL0     C87518  -0.254   4.908   0.678 -1.1725 -0.2755  0.1787
  649MOL0     C87519  -0.376   4.870   0.756  0.2216 -0.5049 -0.0271
  649MOL0     C87520  -0.346   4.854   0.898 -0.8848  0.4233 -0.3342
  649MOL0     C87521  -0.437   4.776   0.982 -0.6802 -0.5566  0.2268
  649MOL0     C87522  -0.583   4.816   0.967  0.3040  1.1865  0.1285
  649MOL0     C87523  -0.674   4.733   1.071  1.5073 -0.2566  0.3696
  649MOL0    Cl87524  -0.631   4.762   1.253  0.4133 -0.2121 -0.5491
  649MOL0     C87525  -0.032   5.274   0.377  0.0339 -1.3658 -0.5656
  649MOL0     C87526   0.096   5.328   0.367 -0.4055  0.5520  0.2853
  649MOL0     O87527   0.283   5.526   0.623 -0.4808  0.0351 -0.4481
  649MOL0     C87528   0.543   5.613   0.609 -0.8355  0.4725  0.0628
  649MOL0     C87529   0.670   5.671   0.576 -0.1618  0.3468  0.2123
  649MOL0     N87530   1.289   5.931   0.177 -1.0463 -0.8786 -1.0644
  649MOL0     N87531   1.368   6.005   0.109 -0.1773 -0.3582 -0.4519
  649MOL0     C87532   1.992   6.584   0.724 -1.2131  0.1133 -0.1630
  649MOL0     C87533   2.118   6.565   0.773 -0.7306  0.0850 -0.0601
  649MOL0     C87534   2.596   6.648   0.817 -0.6576  0.0796  0.1566
  649MOL0     C87535   2.581   6.668   0.955 -1.0450 -0.2156  0.7839
  649MOL0     C87536   2.698   6.648   1.035  0.8364  0.3801  1.0438
  649MOL0     C87537   2.826   6.613   0.981  0.5388 -0.4167  0.3910
  649MOL0     O87538   2.933   6.623   1.069  0.3653 -0.5902  0.6250
  649MOL0     C87539   2.949   6.498   1.138 -0.5126 -0.3688  0.7164
  649MOL0     C87540   3.084   6.450   1.165 -0.6350  0.2699  0.1450
  649MOL0     C87541   3.152   6.358   1.049 -0.5594 -0.2338 -1.5917
  649MOL0     C87542   3.272   6.278   1.115 -0.6629  0.5322  0.5732
  649MOL0     C87543   3.291   6.165   1.029 -0.4927 -0.9882  0.6968
  649MOL0     C87544   3.292   6.067   0.965  0.0474 -0.2386 -0.0624
  649MOL0     C87545   2.835   6.603   0.842 -0.2990 -1.1325 -0.7799
  649MOL0     C87546   2.719   6.608   0.760  0.1808 -0.1131 -1.0972
  649MOL0     C87547   2.753   6.588   0.611  0.3156 -1.4127 -0.6316
  649MOL0     H87548   2.282   6.837   0.641  0.0920  0.7781  0.6211
  649MOL0     H87549   2.056   6.884   0.572 -4.6453 -1.0011 -1.9608
  649MOL0     H87550   1.774   6.565   0.550  2.8110  1.5681 -3.4824
  649MOL0     H87551   1.705   6.664   0.678 -0.7859 -3.9003 -0.7927
  649MOL0     H87552   1.725   6.703   0.377  0.6908  2.1561  0.2916
  649MOL0     H87553   1.631   6.814   0.485  0.5448  0.4853 -2.2436
  649MOL0     H87554   1.454   6.669   0.411 -0.0997 -0.1089  0.4800
  649MOL0     H87555   1.524   6.606   0.568 -0.4999 -1.7531  0.1586
  649MOL0     H87556   1.665   6.441   0.430  0.5234  1.2936 -0.1498
  649MOL0     H87557   1.496   6.404   0.452 -1.0189  0.2733  0.1630
  649MOL0     H87558   1.457   6.530   0.224 -0.4163 -0.4371  2.8514
  649MOL0     H87559   1.625   6.512   0.199 -0.0216  0.5752  1.2923
  649MOL0     H87560   1.430   6.284   0.278 -0.6683 -0.2309 -0.4322
  649MOL0     H87561   1.481   6.308   0.104 -1.9700  1.2191  0.2218
  649MOL0     H87562   1.629   6.201   0.342 -2.2918  0.5651 -0.8964
  649MOL0     H87563   1.709   6.280   0.207 -0.3384  3.0345  3.2335
  649MOL0     H87564   1.620   6.110   0.044  0.7382  0.6938  0.4720
  649MOL0     H87565   1.693   6.014   0.167  1.4953  2.1191  3.9149
  649MOL0     H87566   1.549   5.923   0.368  2.4412 -1.2329 -2.7216
  649MOL0     H87567   1.341   5.781   0.466 -1.8006 -3.0584 -1.1848
  649MOL0     H87568   1.236   5.924   0.481  1.3284  1.4707 -0.7474
  649MOL0     H87569   1.174   5.698   0.291 -1.1815 -1.3514 -0.1816
  649MOL0     H87570   1.115   5.686   0.449 -1.0640 -1.6904 -2.5429
  649MOL0     H87571   1.050   5.910   0.256 -0.7182 -0.7391 -0.9992
  649MOL0     H87572   1.004   5.939   0.409 -0.4109 -0.4348 -0.6697
  649MOL0     H87573   0.902   5.696   0.241  4.5592  1.5025 -3.9593
  649MOL0     H87574   0.811   5.836   0.298 -0.8894 -1.3249  1.1447
  649MOL0     H87575   0.739   5.548   0.276 -0.7161 -0.8672 -0.5869
  649MOL0     H87576   0.506   5.442   0.320 -0.4481  0.3542  0.1618
  649MOL0     H87577   0.237   5.227   0.658  0.2511  0.3682  0.8665
  649MOL0     H87578   0.018   5.108   0.673  2.0380 -0.0476 -0.4708
  649MOL0     H87579  -0.184   4.982   0.355  1.1193 -0.0942 -0.2327
  649MOL0     H87580  -0.079   4.931   0.487  0.9285  2.7644  1.5249
  649MOL0     H87581  -0.386   4.958   0.504 -1.7027  0.6395  0.2654
  649MOL0     H87582  -0.280   4.809   0.493 -2.3920  2.3215 -0.9208
  649MOL0     H87583  -0.181   4.830   0.704 -1.8642 -1.8004 -2.1219
  649MOL0     H87584  -0.220   5.010   0.700  0.9478 -0.3646 -2.1997
  649MOL0     H87585  -0.409   4.775   0.713 -0.5153 -1.4505  2.4247
  649MOL0     H87586  -0.443   4.955   0.746  1.9784  0.9389 -0.0298
  649MOL0     H87587  -0.344   4.959   0.930  2.0674  1.0379 -2.0892
  649MOL0     H87588  -0.243   4.820   0.916 -1.9645 -2.0984  1.6816
  649MOL0     H87589  -0.409   4.671   0.974 -1.9215 -0.9491  0.8038
  649MOL0     H87590  -0.428   4.810   1.086 -0.0002 -1.8430  0.6074
  649MOL0     H87591  -0.612   4.794   0.864  2.9700  0.2387 -0.5147
  649MOL0     H87592  -0.595   4.922   0.990  1.2804  1.2739  0.2996
  649MOL0     H87593  -0.780   4.747   1.050  1.2411 -3.6633 -1.1439
  649MOL0     H87594  -0.658   4.625   1.059  0.6893 -0.7340  3.0215
  649MOL0     H87595  -0.112   5.304   0.310 -0.2720 -0.5986  0.1352
  649MOL0     H87596   0.118   5.385   0.277 -2.5277  1.9038  0.5488
  649MOL0     H87597   0.498   5.630   0.706  0.1845 -0.6690  0.7609
  649MOL0     H87598   0.710   5.722   0.663  1.4313 -1.0188  0.3257
  649MOL0     H87599   1.906   6.520   0.740 -0.1303 -2.6699 -3.9922
  649MOL0     H87600   2.124   6.492   0.853  3.8255  0.5814  0.2985
  649MOL0     H87601   2.492   6.698   1.009  0.4610 -0.7793  3.8277
  649MOL0     H87602   2.673   6.656   1.140 -1.7798  0.7441  0.4674
  649MOL0     H87603   2.898   6.425   1.075 -0.4028  0.1676 -0.0044
  649MOL0     H87604   2.873   6.488   1.216 -3.4997 -1.8747 -2.1230
  649MOL0     H87605   3.088   6.389   1.256  0.1619 -2.1197 -1.4030
  649MOL0     H87606   3.148   6.535   1.190 -2.1392  1.2594  0.7444
  649MOL0     H87607   3.179   6.418   0.962  3.7715 -2.5312 -2.0971
  649MOL0     H87608   3.082   6.291   0.998 -1.8575 -0.3863  0.2579
  649MOL0     H87609   3.367   6.331   1.127  0.8026 -1.0525 -2.7347
  649MOL0     H87610   3.249   6.238   1.214  0.9578 -0.6355  0.5120
  649MOL0     H87611   3.303   5.983   0.900 -0.1122 -0.8465  0.6850
  649MOL0     H87612   2.933   6.618   0.799 -1.1732  1.4575 -2.0714
  649MOL0     H87613   2.846   6.530   0.605 -0.6121 -2.7761 -4.0326
  649MOL0     H87614   2.671   6.534   0.563 -3.8601  1.7688  2.1790
  649MOL0     H87615   2.768   6.682   0.558 -2.7922 -0.2269  0.3604
  650MOL0     O87616   3.498   6.713  10.010 -0.5484  0.1717  1.0165
  650MOL0     C87617   3.590   6.684  10.084  0.7065 -1.3697  0.7010
  650MOL0     O87618   3.655   6.565  10.100 -0.0415 -0.0711 -0.6551
  650MOL0     C87619   3.607   6.467  10.015  0.7028  0.2815 -0.4571
  650MOL0     C87620   3.614   6.484   9.877 -0.2895 -0.5669  0.4847
  650MOL0     C87621   3.596   6.375   9.789 -0.4027  0.0971 -0.1410
  650MOL0     C87622   3.562   6.246   9.835 -1.3268  0.7152 -0.5569
  650MOL0     O87623   3.541   6.133   9.768 -0.2333 -0.0775  0.3655
  650MOL0     C87624   3.550   6.151   9.616 -0.3984 -0.3964 -1.0070
  650MOL0     C87625   3.566   6.017   9.551 -0.1421 -0.5312 -0.7907
  650MOL0     C87626   3.685   5.941   9.608  0.4980  1.5808  0.5118
  650MOL0     C87627   3.667   5.787   9.591 -0.0134 -0.7240 -0.6422
  650MOL0     C87628   3.788   5.715   9.634  0.1714  0.1013  0.3852
  650MOL0     C87629   3.806   5.575   9.561 -0.8348  0.8924 -0.9702
  650MOL0     C87630   3.931   5.490   9.608  1.1656  1.1921 -0.9639
  650MOL0     C87631   3.955   5.362   9.525 -0.3531  0.5751 -0.0127
  650MOL0     N87632   3.898   5.233   9.575 -0.0364  0.6525 -0.2364
  650MOL0     C87633   3.765   5.196   9.596  1.2081  0.1810  0.2547
  650MOL0     C87634   3.759   5.063   9.633 -0.7188 -0.3243  0.1331
  650MOL0     C87635   3.636   4.981   9.648  0.4474 -0.3930  0.1141
  650MOL0     C87636   3.595   4.986   9.800  0.1522 -0.8753  0.4067
  650MOL0     C87637   3.713   4.952   9.882 -0.7506 -0.2829 -0.7732
  650MOL0     C87638   3.677   4.921  10.029 -0.5999 -0.1272 -0.0444
  650MOL0     O87639   3.563   4.831  10.041  0.2403  0.4196  0.1266
  650MOL0     C87640   3.583   4.690  10.038  0.4336  0.1506  0.0242
  650MOL0     C87641   3.477   4.602  10.064  0.1467  0.6930 -0.0536
  650MOL0     C87642   3.501   4.465  10.063  1.7395  0.5367  0.7448
  650MOL0     C87643   3.620   4.405  10.037 -0.1370 -0.3779  0.9005
  650MOL0     C87644   3.633   4.258  10.025 -0.7094 -0.8726  1.3716
  650MOL0     O87645   3.749   4.213   9.960  0.2646 -0.4856  0.2483
  650MOL0     C87646   3.757   4.088   9.913 -0.2780  0.1722  0.2377
  650MOL0     C87647   3.874   4.010   9.921  1.1545  0.0074  0.4825
  650MOL0     C87648   3.904   3.900   9.843 -0.0568  0.3791  0.1538
  650MOL0     C87649   3.828   3.871   9.730 -1.0176 -0.2275 -0.7700
  650MOL0     O87650   3.853   3.767   9.651  0.3812 -1.1393 -0.2900
  650MOL0     C87651   3.847   3.793   9.506 -0.1911  0.9684 -0.7405
  650MOL0     C87652   3.896   3.668   9.432 -0.5095 -0.2906 -0.2997
  650MOL0     C87653   3.803   3.547   9.466  0.4414 -0.6810 -0.3887
  650MOL0     C87654   3.855   3.444   9.563 -0.4448  0.1132 -1.4137
  650MOL0     C87655   3.766   3.315   9.550 -0.2989 -0.2629 -0.4125
  650MOL0     C87656   3.816   3.182   9.606  0.2583 -0.3626  0.0846
  650MOL0     C87657   3.870   3.192   9.751  0.7468  0.2660  0.0082
  650MOL0     C87658   3.898   3.058   9.817 -0.4785 -0.6453 -0.6175
  650MOL0    Cl87659   3.758   2.981   9.885  0.3396 -0.5469  0.0126
  650MOL0     C87660   3.707   3.941   9.722  0.0869  0.2148 -0.4298
  650MOL0     C87661   3.663   4.037   9.818  0.0189  0.0750 -0.9564
  650MOL0     O87662   3.529   4.193  10.048  0.2385 -0.4043 -0.5153
  650MOL0     C87663   3.732   4.490  10.010 -0.4147  0.1631  0.4749
  650MOL0     C87664   3.708   4.626  10.003 -0.0934 -0.5753  0.3243
  650MOL0     N87665   3.889   5.020   9.619  0.2398  0.5072  0.2950
  650MOL0     N87666   3.965   5.117   9.577 -0.3915 -0.8109  0.1195
  650MOL0     C87667   3.533   6.242   9.970 -0.1569 -0.7748  0.0515
  650MOL0     C87668   3.567   6.342  10.064  0.0942  1.0331  0.2782
  650MOL0     C87669   3.635   6.781  10.184 -0.3404  0.2811 -0.3778
  650MOL0     C87670   3.764   6.769  10.236 -0.9365  0.3587  0.0293
  650MOL0     C87671   3.809   6.870  10.325 -0.1664 -0.6998 -0.5237
  650MOL0     C87672   3.737   6.978  10.356  0.2158 -0.1638 -0.9942
  650MOL0     O87673   3.792   7.077  10.432 -0.3309 -0.0295 -0.3181
  650MOL0     C87674   3.807   7.211  10.363 -0.5913  0.1816  0.3601
  650MOL0     C87675   3.905   7.310  10.435  0.4630  0.0738  0.2553
  650MOL0     C87676   3.928   7.455  10.364 -0.6267  0.5358  0.2396
  650MOL0     C87677   4.007   7.554  10.454 -0.0860 -0.3459 -0.1039
  650MOL0     C87678   3.917   7.640  10.529  0.2261  1.0126 -0.3027
  650MOL0     C87679   3.839   7.693  10.607  0.1230  0.5350 -1.4298
  650MOL0     C87680   3.605   6.987  10.317  0.8320  0.0919 -0.3315
  650MOL0     C87681   3.554   6.888  10.233 -0.5944 -0.9289 -0.2248
  650MOL0     C87682   3.402   6.888  10.222 -0.6701 -0.1402 -0.3201
  650MOL0     H87683   3.638   6.580   9.834  1.3413 -0.7826  0.8445
  650MOL0     H87684   3.608   6.398   9.684  0.7404 -0.7503 -0.2182
  650MOL0     H87685   3.464   6.202   9.571 -0.7761  2.3230  2.4206
  650MOL0     H87686   3.639   6.211   9.596 -1.4509  2.0666  1.1921
  650MOL0     H87687   3.576   6.024   9.442  0.8680 -0.8366 -0.7260
  650MOL0     H87688   3.482   5.953   9.582  1.5740 -2.7170 -0.3826
  650MOL0     H87689   3.694   5.960   9.715 -4.4894  2.6721  0.9762
  650MOL0     H87690   3.771   5.975   9.551  0.6557  0.1172 -0.1710
  650MOL0     H87691   3.579   5.760   9.650 -0.9851  2.7319 -0.2779
  650MOL0     H87692   3.642   5.771   9.485 -2.8841  1.4575 -0.4220
  650MOL0     H87693   3.884   5.767   9.632  2.2125 -3.3309 -1.8904
  650MOL0     H87694   3.776   5.699   9.742  1.9284  1.3055  0.8069
  650MOL0     H87695   3.718   5.512   9.577  0.4070  0.0018  4.1704
  650MOL0     H87696   3.812   5.607   9.457 -0.4951  1.2829 -0.8308
  650MOL0     H87697   3.924   5.463   9.714  2.8276  0.7967 -0.9279
  650MOL0     H87698   4.016   5.559   9.608  1.0049  1.4428 -2.8008
  650MOL0     H87699   3.929   5.378   9.420  0.1844  0.6450 -0.1384
  650MOL0     H87700   4.062   5.345   9.515  0.0350  1.6216  1.8373
  650MOL0     H87701   3.691   5.275   9.587  4.2827  3.0204 -4.4292
  650MOL0     H87702   3.554   5.017   9.586 -2.2326 -3.7975  1.3757
  650MOL0     H87703   3.657   4.877   9.621 -3.7210 -1.2188 -0.6295
  650MOL0     H87704   3.565   5.085   9.834  0.7431 -0.2261 -0.8750
  650MOL0     H87705   3.509   4.921   9.820 -0.7487  1.3053  4.7500
  650MOL0     H87706   3.782   5.037   9.897 -1.6287  0.0624  1.9673
  650MOL0     H87707   3.770   4.871   9.836  4.3382  1.3742  1.7648
  650MOL0     H87708   3.641   5.012  10.077 -0.9653  0.7248 -1.8439
  650MOL0     H87709   3.754   4.877  10.093 -2.2600  0.0361  2.2001
  650MOL0     H87710   3.373   4.628  10.081  0.6955  3.4064 -0.3508
  650MOL0     H87711   3.414   4.403  10.079  1.8587 -0.0357 -0.7149
  650MOL0     H87712   3.953   4.040   9.990  0.0430  3.5180  0.4111
  650MOL0     H87713   3.989   3.839   9.870  1.0309  1.4714 -0.6849
  650MOL0     H87714   3.742   3.817   9.487 -0.6040  1.0158  1.3199
  650MOL0     H87715   3.900   3.884   9.477 -1.1268  2.1880  1.1559
  650MOL0     H87716   3.907   3.684   9.324  0.8229 -1.5898 -0.3967
  650MOL0     H87717   4.002   3.641   9.444  0.2726  2.5090 -0.2286
  650MOL0     H87718   3.705   3.577   9.503  0.4817 -0.1156 -0.7380
  650MOL0     H87719   3.781   3.494   9.373 -0.1404 -1.0768 -0.0283
  650MOL0     H87720   3.868   3.471   9.668  1.5357 -2.1302 -1.0054
  650MOL0     H87721   3.958   3.427   9.532 -0.2935  1.2708 -1.5958
  650MOL0     H87722   3.734   3.299   9.447  2.2721  0.1277 -1.3612
  650MOL0     H87723   3.684   3.337   9.619 -0.3378  0.4356 -0.6667
  650MOL0     H87724   3.729   3.116   9.605  1.1128 -1.5437  0.4051
  650MOL0     H87725   3.891   3.142   9.537 -0.1196 -0.6258 -0.1752
  650MOL0     H87726   3.807   3.245   9.824  2.6164  1.0529  1.1260
  650MOL0     H87727   3.968   3.239   9.750  1.6024 -1.2963 -3.4195
  650MOL0     H87728   3.953   2.990   9.753 -1.1832 -1.5506 -0.2748
  650MOL0     H87729   3.950   3.086   9.910 -0.3452 -1.1580 -0.5384
  650MOL0     H87730   3.640   3.904   9.645  0.4370 -0.9379 -0.2022
  650MOL0     H87731   3.571   4.090   9.794 -0.2134 -0.1231 -0.5274
  650MOL0     H87732   3.827   4.450   9.977 -2.0953 -3.2132 -0.8196
  650MOL0     H87733   3.796   4.687   9.988  0.3236 -0.5540  2.5179
  650MOL0     H87734   3.472   6.161  10.009  0.3272  0.2455  3.2346
  650MOL0     H87735   3.540   6.326  10.168 -2.0662 -1.1636 -0.5371
  650MOL0     H87736   3.825   6.683  10.210 -0.5192  0.9437 -0.9486
  650MOL0     H87737   3.917   6.871  10.340 -0.4004 -2.2507  1.6212
  650MOL0     H87738   3.705   7.252  10.359 -1.4650 -1.4531  3.0930
  650MOL0     H87739   3.852   7.194  10.266 -1.4563 -0.3479  0.0420
  650MOL0     H87740   4.004   7.263  10.439  1.9393  3.0434  1.5919
  650MOL0     H87741   3.874   7.304  10.540  4.0294 -0.0824  1.4327
  650MOL0     H87742   3.829   7.500  10.347 -0.9399 -0.0931  0.3667
  650MOL0     H87743   3.984   7.428  10.274 -1.2320 -2.1429  0.5729
  650MOL0     H87744   4.067   7.499  10.527  0.8381 -0.3273 -0.8272
  650MOL0     H87745   4.070   7.618  10.391 -1.8398  0.3863 -1.2033
  650MOL0     H87746   3.775   7.719  10.689 -2.2655 -1.5160 -2.5186
  650MOL0     H87747   3.540   7.060  10.366 -1.2829 -2.7169  1.3313
  650MOL0     H87748   3.368   6.799  10.276  4.4252 -0.9432  2.1786
  650MOL0     H87749   3.357   6.974  10.273  0.3251  1.3366 -1.8446
  650MOL0     H87750   3.360   6.892  10.121  0.4976  1.3620 -0.7773
  651MOL0     O87751   9.829   5.196   7.639  0.3076 -0.6266  0.0853
  651MOL0     C87752   9.922   5.263   7.595  0.1598  0.6951  0.1304
  651MOL0     O87753   9.964   5.380   7.639  0.0142 -0.7764  1.1800
  651MOL0     C87754   9.887   5.442   7.737 -0.7695  0.6385  0.4484
  651MOL0     C87755   9.779   5.528   7.705  0.2061 -0.3258 -0.2404
  651MOL0     C87756   9.715   5.587   7.814  0.8724  0.0184  0.6026
  651MOL0     C87757   9.746   5.560   7.949 -0.5400 -0.0076 -0.5309
  651MOL0     O87758   9.690   5.629   8.051 -0.0065 -0.3457 -0.6269
  651MOL0     C87759   9.591   5.542   8.129 -0.0742 -0.2091 -0.0460
  651MOL0     C87760   9.646   5.507   8.262  0.4110  1.3073  0.3424
  651MOL0     C87761   9.541   5.429   8.339  0.4680  0.5826 -0.4657
  651MOL0     C87762   9.607   5.357   8.457  0.2758  0.0787 -0.6614
  651MOL0     C87763   9.505   5.273   8.537  0.3184 -0.1304  0.2712
  651MOL0     C87764   9.434   5.153   8.464 -0.5747 -0.4117  0.7193
  651MOL0     C87765   9.531   5.050   8.396  0.4252 -0.0468  0.1729
  651MOL0     C87766   9.447   4.939   8.320  0.0129 -0.0132 -0.9845
  651MOL0     N87767   9.546   4.869   8.247  0.2268  0.3641 -0.4434
  651MOL0     C87768   9.567   4.738   8.264 -0.2211  0.1392 -0.3194
  651MOL0     C87769   9.665   4.703   8.182  0.6158  0.0080  0.5629
  651MOL0     C87770   9.718   4.568   8.182  0.1396  0.1908  0.6098
  651MOL0     C87771   9.768   4.529   8.315  0.1821  1.1507 -0.1941
  651MOL0     C87772   9.914   4.583   8.341  0.1840 -0.9137  0.5357
  651MOL0     C87773   9.906   4.719   8.419 -0.8192 -0.4520 -0.0184
  651MOL0     O87774   9.860   4.699   8.550 -0.5984 -0.5459  0.9010
  651MOL0     C87775   9.826   4.822   8.618 -1.4904  0.0677  0.8083
  651MOL0     C87776   9.768   4.798   8.742 -0.5314 -0.6162  0.3591
  651MOL0     C87777   9.738   4.905   8.825  0.1212  0.9726  0.0918
  651MOL0     C87778   9.770   5.034   8.780 -0.0818  0.8504  0.0834
  651MOL0     C87779   9.729   5.148   8.872 -0.0753 -1.1474 -0.3979
  651MOL0     O87780   9.687   5.117   8.997 -0.3308 -0.0624 -0.3532
  651MOL0     C87781   9.677   5.218   9.084 -0.0426  0.6422 -0.6574
  651MOL0     C87782   9.780   5.311   9.099 -0.7181  0.3115  0.0702
  651MOL0     C87783   9.766   5.419   9.189 -0.7910  0.4424  0.3263
  651MOL0     C87784   9.655   5.437   9.266 -0.1177 -0.7309  0.1118
  651MOL0     O87785   9.630   5.542   9.353 -0.1267  0.0050 -0.4020
  651MOL0     C87786   9.662   5.672   9.294  1.1115 -0.2850  0.9642
  651MOL0     C87787   9.647   5.790   9.385 -0.3973  0.4064 -0.5034
  651MOL0     C87788   9.733   5.766   9.511 -0.2033  0.0889 -0.8146
  651MOL0     C87789   9.746   5.895   9.588  0.0184 -0.7861 -0.3821
  651MOL0     C87790   9.818   5.879   9.718  1.4440 -0.5501  0.3335
  651MOL0     C87791   9.714   5.838   9.818 -0.4610  1.0882 -0.0349
  651MOL0     C87792   9.775   5.764   9.944 -0.1091 -0.7647 -0.8808
  651MOL0     C87793   9.654   5.696  10.011 -0.0399 -0.4929 -0.1677
  651MOL0    Cl87794   9.688   5.604  10.165  0.4625 -0.5002 -0.1495
  651MOL0     C87795   9.555   5.343   9.258 -0.7645 -0.2185 -0.1705
  651MOL0     C87796   9.559   5.232   9.160  0.6083  0.2145 -0.4950
  651MOL0     O87797   9.741   5.259   8.827 -0.5143 -1.2456  0.6018
  651MOL0     C87798   9.828   5.055   8.655 -0.5524  0.0068  0.5747
  651MOL0     C87799   9.865   4.945   8.577 -0.2815  0.2600  0.0550
  651MOL0     N87800   9.686   4.810   8.102  1.0631 -0.3230  0.4428
  651MOL0     N87801   9.606   4.911   8.137 -0.5325  0.0336 -0.4750
  651MOL0     C87802   9.848   5.465   7.965  0.4595  0.0015  0.2070
  651MOL0     C87803   9.917   5.396   7.865 -0.1966  0.5958 -0.0200
  651MOL0     C87804   9.994   5.216   7.471  0.0931  0.4770 -0.9222
  651MOL0     C87805  10.130   5.268   7.446  0.3578  0.0161 -1.1604
  651MOL0     C87806  10.199   5.222   7.339 -0.8770  0.5764  0.3308
  651MOL0     C87807  10.149   5.123   7.259 -0.4782 -0.4673  0.2206
  651MOL0     O87808  10.226   5.066   7.163  0.2323 -1.2148  0.0180
  651MOL0     C87809  10.258   4.931   7.191 -0.5268 -0.3610  0.0990
  651MOL0     C87810  10.338   4.854   7.076  0.4512 -0.4535  0.3096
  651MOL0     C87811  10.356   4.714   7.117 -0.2812  0.1061  0.2552
  651MOL0     C87812  10.222   4.638   7.105  0.2862 -0.3598 -0.0189
  651MOL0     C87813  10.252   4.497   7.084 -0.2497 -0.7587  0.8978
  651MOL0     C87814  10.285   4.377   7.057  0.6680 -0.0041 -0.2693
  651MOL0     C87815  10.025   5.080   7.278 -0.9844  0.4322 -0.3718
  651MOL0     C87816   9.939   5.129   7.374 -0.6445 -0.5269 -0.4845
  651MOL0     C87817   9.793   5.099   7.374 -0.0102  1.2064 -0.4882
  651MOL0     H87818   9.747   5.545   7.603 -2.4052 -1.4566  0.3277
  651MOL0     H87819   9.628   5.650   7.799  0.8976 -0.2783 -0.9817
  651MOL0     H87820   9.497   5.593   8.153  0.1929 -0.6591  2.1986
  651MOL0     H87821   9.564   5.457   8.066 -0.7377  0.2802 -0.4389
  651MOL0     H87822   9.673   5.598   8.315 -0.3336  2.2480 -0.8537
  651MOL0     H87823   9.733   5.440   8.256 -2.6615 -3.1674  0.2504
  651MOL0     H87824   9.502   5.347   8.278  0.7861 -0.0012  0.1045
  651MOL0     H87825   9.464   5.501   8.368 -0.7251 -0.7486 -0.2383
  651MOL0     H87826   9.702   5.303   8.449  0.7881  0.5442  1.5804
  651MOL0     H87827   9.648   5.436   8.521 -1.3676  0.2063  0.2896
  651MOL0     H87828   9.544   5.242   8.635 -0.5872  1.8017  1.2922
  651MOL0     H87829   9.414   5.325   8.567  0.5556 -0.4108  1.5463
  651MOL0     H87830   9.394   5.094   8.547  0.5819 -2.1768  0.0936
  651MOL0     H87831   9.356   5.180   8.392  0.5034 -0.5811 -0.5509
  651MOL0     H87832   9.593   4.997   8.469  1.9645 -2.7068 -2.8106
  651MOL0     H87833   9.604   5.097   8.330 -0.4413  0.5833 -0.3480
  651MOL0     H87834   9.399   4.873   8.392 -0.1525  1.3238  0.1690
  651MOL0     H87835   9.369   4.982   8.256 -1.0092 -1.1486 -0.5333
  651MOL0     H87836   9.520   4.666   8.331  0.1978 -0.3240 -0.5211
  651MOL0     H87837   9.634   4.507   8.146  0.2418  1.7330 -2.5965
  651MOL0     H87838   9.798   4.560   8.107 -1.1071  3.3995 -1.2897
  651MOL0     H87839   9.707   4.570   8.397  1.2637  1.3312  0.5417
  651MOL0     H87840   9.751   4.421   8.319  0.1312  1.1956  2.2632
  651MOL0     H87841   9.972   4.599   8.250 -1.3432  1.8583 -0.0719
  651MOL0     H87842   9.953   4.513   8.415 -0.2934 -0.2242  1.4584
  651MOL0     H87843   9.843   4.782   8.356 -2.5970 -2.4751 -0.4234
  651MOL0     H87844  10.002   4.771   8.426 -0.4198 -1.3286  1.8148
  651MOL0     H87845   9.740   4.697   8.771  1.9681 -2.0584 -1.7439
  651MOL0     H87846   9.697   4.887   8.924 -0.2139 -2.7222 -0.5471
  651MOL0     H87847   9.873   5.305   9.044 -1.1506 -0.5073 -0.5950
  651MOL0     H87848   9.857   5.476   9.205 -0.0825 -0.8929  1.1995
  651MOL0     H87849   9.759   5.677   9.244  0.1199 -0.3420 -1.0451
  651MOL0     H87850   9.589   5.695   9.216  2.0680  2.9341  0.9053
  651MOL0     H87851   9.687   5.878   9.333 -0.8906  1.5633  1.0014
  651MOL0     H87852   9.544   5.798   9.423 -0.2130  0.0286  0.0878
  651MOL0     H87853   9.687   5.685   9.569  0.6422 -0.0721 -0.3598
  651MOL0     H87854   9.829   5.722   9.484 -1.7191 -3.4352 -1.1027
  651MOL0     H87855   9.653   5.952   9.596 -0.8725 -1.8635 -2.3672
  651MOL0     H87856   9.812   5.959   9.530 -0.7699 -0.8474 -1.3663
  651MOL0     H87857   9.857   5.974   9.756 -2.4143  0.3084  2.7522
  651MOL0     H87858   9.899   5.806   9.704 -1.6077 -4.4085  0.9586
  651MOL0     H87859   9.647   5.913   9.860  0.4010  0.6441  2.3493
  651MOL0     H87860   9.645   5.769   9.769  0.7871 -1.4764  1.5853
  651MOL0     H87861   9.820   5.829  10.020 -2.1979 -0.7306  0.4293
  651MOL0     H87862   9.856   5.697   9.914 -0.9172 -3.5520  2.4685
  651MOL0     H87863   9.578   5.760  10.056 -1.4603 -2.0827 -0.2254
  651MOL0     H87864   9.590   5.645   9.939 -0.5596 -0.0599 -0.0226
  651MOL0     H87865   9.474   5.363   9.328 -0.0770  0.6536  0.4087
  651MOL0     H87866   9.469   5.172   9.167 -1.2080  2.6580 -1.3460
  651MOL0     H87867   9.843   5.156   8.617 -2.1416  0.0935  0.1123
  651MOL0     H87868   9.912   4.965   8.481  2.4431  2.5935  1.7089
  651MOL0     H87869   9.867   5.426   8.065 -1.7263 -0.9201  0.3164
  651MOL0     H87870   9.990   5.319   7.887 -0.1402  0.1312 -1.6707
  651MOL0     H87871  10.166   5.343   7.516  0.7112  1.0763 -2.4279
  651MOL0     H87872  10.297   5.259   7.312 -0.1096 -1.4940  0.1795
  651MOL0     H87873  10.184   4.862   7.232 -0.3006 -0.1783  0.8480
  651MOL0     H87874  10.332   4.940   7.272  2.6263  2.5604 -2.7605
  651MOL0     H87875  10.434   4.898   7.047 -0.3384  0.8281 -0.4837
  651MOL0     H87876  10.280   4.863   6.984 -2.7486  1.7859  2.3525
  651MOL0     H87877  10.391   4.707   7.221 -0.4974 -0.1241  0.3102
  651MOL0     H87878  10.437   4.675   7.055 -0.8188 -0.9418  0.1951
  651MOL0     H87879  10.163   4.625   7.196 -0.8228  0.8923 -0.5304
  651MOL0     H87880  10.160   4.668   7.020  0.7468  0.5433 -0.0467
  651MOL0     H87881  10.294   4.271   7.049 -1.7110 -0.3023  0.3001
  651MOL0     H87882   9.980   5.001   7.219  2.4420 -2.0788  0.1171
  651MOL0     H87883   9.766   5.045   7.465 -1.7873 -0.6521 -2.0068
  651MOL0     H87884   9.727   5.186   7.370 -1.1200  0.5810  2.0775
  651MOL0     H87885   9.772   5.029   7.292  0.3996  0.4381  0.0519
  652MOL0     O87886   0.803   6.714  10.397  0.0410 -0.1717  0.2609
  652MOL0     C87887   0.835   6.829  10.379  0.4260 -0.7664 -1.4491
  652MOL0     O87888   0.744   6.929  10.373  0.4413  0.0873  0.6840
  652MOL0     C87889   0.615   6.915  10.404  0.3457  1.0891  0.3454
  652MOL0     C87890   0.516   6.964  10.322 -0.5599  0.0941  0.0337
  652MOL0     C87891   0.382   6.940  10.367 -0.6182 -0.2201 -0.6793
  652MOL0     C87892   0.353   6.868  10.488 -0.2456 -0.0937  0.8670
  652MOL0     O87893   0.226   6.853  10.542 -0.2092  0.2433  0.5513
  652MOL0     C87894   0.101   6.896  10.469 -0.0587 -0.7780  0.3398
  652MOL0     C87895   0.072   6.804  10.351  0.9782  0.2721 -0.9221
  652MOL0     C87896   0.019   6.669  10.406 -0.7787  0.2328 -0.7720
  652MOL0     C87897  -0.010   6.564  10.296 -0.7792 -0.8550 -0.5540
  652MOL0     C87898  -0.071   6.440  10.353  0.6123  0.2459  0.2633
  652MOL0     C87899   0.012   6.373  10.469 -0.6754  0.4583 -0.9277
  652MOL0     C87900  -0.048   6.234  10.514  0.2995 -0.0304 -0.4395
  652MOL0     C87901  -0.198   6.264  10.546  0.0038 -0.7171  0.5683
  652MOL0     N87902  -0.252   6.150  10.623 -0.0717  0.3878  0.9225
  652MOL0     C87903  -0.263   6.021  10.575  0.5170 -0.3054  0.1228
  652MOL0     C87904  -0.272   5.949  10.695 -0.6619  0.0839 -0.6992
  652MOL0     C87905  -0.309   5.808  10.705  0.6848  1.5165 -0.0437
  652MOL0     C87906  -0.197   5.719  10.660 -0.0860  0.4880  0.7062
  652MOL0     C87907  -0.083   5.699  10.772  0.7685 -0.3603  0.3695
  652MOL0     C87908   0.009   5.578  10.747  0.7071 -0.2650  0.3344
  652MOL0     O87909  -0.069   5.460  10.713 -0.0056 -0.2528 -0.4216
  652MOL0     C87910  -0.168   5.418  10.794  0.2003  0.9923  0.5548
  652MOL0     C87911  -0.164   5.438  10.929  0.5607  0.6909  0.1384
  652MOL0     C87912  -0.261   5.390  11.010  0.9159 -0.1106 -0.4300
  652MOL0     C87913  -0.350   5.292  10.963  0.3298 -0.0469 -0.1048
  652MOL0     C87914  -0.449   5.232  11.060  0.3327 -1.3181  1.0258
  652MOL0     O87915  -0.420   5.242  11.192 -0.3565 -0.2705  0.1004
  652MOL0     C87916  -0.518   5.194  11.276 -0.1115  0.0111  1.2659
  652MOL0     C87917  -0.594   5.287  11.346 -1.1947 -0.2191  0.3998
  652MOL0     C87918  -0.699   5.243  11.430 -0.0762 -0.4399 -0.1097
  652MOL0     C87919  -0.719   5.106  11.462  0.5354  0.2527  0.0779
  652MOL0     O87920  -0.832   5.069  11.530 -0.8153 -0.7454  0.3258
  652MOL0     C87921  -0.829   4.949  11.608 -0.3953 -0.0607  0.0667
  652MOL0     C87922  -0.932   4.934  11.721  0.0645 -1.2390 -0.1453
  652MOL0     C87923  -1.042   4.835  11.700  0.3210  0.6728  0.3699
  652MOL0     C87924  -1.157   4.887  11.614  0.0309  0.3755 -0.0854
  652MOL0     C87925  -1.250   4.983  11.684 -0.2092 -0.1181 -0.4474
  652MOL0     C87926  -1.381   5.017  11.604  0.4767  0.4324 -0.2638
  652MOL0     C87927  -1.497   5.075  11.695  0.5815  0.4292  0.8403
  652MOL0     C87928  -1.629   4.992  11.662 -1.0358  0.1866 -1.3552
  652MOL0    Cl87929  -1.602   4.832  11.738  0.1547  0.3535 -0.2529
  652MOL0     C87930  -0.633   5.013  11.407 -0.6553 -0.4398 -1.1617
  652MOL0     C87931  -0.526   5.058  11.318  0.5709 -0.0958  0.7591
  652MOL0     O87932  -0.547   5.173  11.004  0.1991  0.0222  0.4773
  652MOL0     C87933  -0.347   5.257  10.826 -0.0296  0.3846  0.3724
  652MOL0     C87934  -0.261   5.323  10.741  0.3511 -0.6137 -0.2309
  652MOL0     N87935  -0.276   6.031  10.805  0.1459 -0.5485  0.4053
  652MOL0     N87936  -0.256   6.150  10.763  0.6671 -0.3581  0.0227
  652MOL0     C87937   0.459   6.820  10.569 -0.8923  0.6686 -0.0442
  652MOL0     C87938   0.590   6.855  10.527 -0.4722  1.0146 -0.4074
  652MOL0     C87939   0.967   6.853  10.316 -0.4887  0.3511  0.2909
  652MOL0     C87940   0.978   6.969  10.238 -0.2206  0.5420 -0.6574
  652MOL0     C87941   1.099   7.001  10.173  0.2566  0.3333 -0.0257
  652MOL0     C87942   1.204   6.927  10.183 -0.3703  0.7508 -1.3642
  652MOL0     O87943   1.313   6.963  10.110 -0.1106 -0.2055  0.5389
  652MOL0     C87944   1.435   6.890  10.118 -0.1218  0.9621 -0.8388
  652MOL0     C87945   1.449   6.772  10.014 -0.1907 -0.7222 -0.2884
  652MOL0     C87946   1.583   6.698  10.011  1.2705 -0.6264  0.0436
  652MOL0     C87947   1.634   6.669  10.157  0.5495 -0.5758  0.3755
  652MOL0     C87948   1.550   6.564  10.214 -0.4039  0.2494  0.4659
  652MOL0     C87949   1.488   6.474  10.267 -0.2564  1.2145  0.1780
  652MOL0     C87950   1.201   6.804  10.251  0.3732  0.1595  0.0648
  652MOL0     C87951   1.081   6.773  10.319  0.9582 -0.1011 -0.1072
  652MOL0     C87952   1.088   6.638  10.391 -0.0739  0.4452 -1.0023
  652MOL0     H87953   0.542   7.015  10.229  0.4776 -2.2857 -1.0636
  652MOL0     H87954   0.301   6.979  10.305 -1.1634 -0.2858 -0.0223
  652MOL0     H87955   0.015   6.901  10.535 -2.7866 -2.1215 -2.8373
  652MOL0     H87956   0.122   6.996  10.428 -2.0988 -1.0477 -1.5667
  652MOL0     H87957   0.163   6.781  10.295  2.3196 -0.1658  1.3208
  652MOL0     H87958  -0.002   6.854  10.287 -1.2357 -0.4195  0.9356
  652MOL0     H87959  -0.076   6.696  10.451 -0.5771 -1.6012  0.8688
  652MOL0     H87960   0.097   6.625  10.469  0.2650 -2.6462 -3.7484
  652MOL0     H87961  -0.083   6.612  10.230 -1.7981  0.7676  1.6527
  652MOL0     H87962   0.078   6.545  10.233  1.3609  2.3629  1.1904
  652MOL0     H87963  -0.161   6.478  10.403  0.3030 -0.2168  0.0609
  652MOL0     H87964  -0.092   6.380  10.264  0.1751  1.2914 -0.3569
  652MOL0     H87965   0.117   6.354  10.446 -0.1348 -0.6796  2.0455
  652MOL0     H87966   0.018   6.444  10.553 -0.2039 -1.0615  0.3794
  652MOL0     H87967  -0.001   6.209  10.610 -0.8278  0.9545  0.4013
  652MOL0     H87968  -0.028   6.162  10.434 -2.2979  0.7629 -1.9510
  652MOL0     H87969  -0.212   6.358  10.600 -3.0416 -1.8656  2.0082
  652MOL0     H87970  -0.269   6.275  10.463  0.8695 -0.2676 -0.1332
  652MOL0     H87971  -0.261   5.995  10.470 -1.7465 -4.3121  0.8882
  652MOL0     H87972  -0.337   5.787  10.808 -0.6151 -0.0959 -0.6700
  652MOL0     H87973  -0.397   5.796  10.641 -1.0950  1.0395  2.3368
  652MOL0     H87974  -0.248   5.626  10.632  1.3961 -0.0306 -0.3919
  652MOL0     H87975  -0.151   5.752  10.566 -4.2927 -1.3473 -2.3356
  652MOL0     H87976  -0.130   5.703  10.870 -0.0278  2.0400 -0.0490
  652MOL0     H87977  -0.027   5.793  10.770 -1.7551  1.2296  0.2665
  652MOL0     H87978   0.069   5.552  10.835  0.3004  0.0990  0.7230
  652MOL0     H87979   0.080   5.607  10.669  2.2238 -2.7059  0.7110
  652MOL0     H87980  -0.099   5.512  10.974  2.0193 -1.5267  1.8623
  652MOL0     H87981  -0.279   5.432  11.109  0.3577 -0.2135 -0.4848
  652MOL0     H87982  -0.587   5.395  11.336  1.9273  0.0036  3.2956
  652MOL0     H87983  -0.772   5.314  11.471  0.0463 -1.3506  1.8194
  652MOL0     H87984  -0.843   4.862  11.543 -1.5837 -0.9218  1.4271
  652MOL0     H87985  -0.728   4.963  11.649  0.3586  2.1881 -2.2781
  652MOL0     H87986  -0.879   4.899  11.810  0.2974 -3.9248 -1.2528
  652MOL0     H87987  -0.970   5.031  11.755  0.8713 -0.7651 -0.5421
  652MOL0     H87988  -1.004   4.751  11.641  0.1388 -0.9613  2.4817
  652MOL0     H87989  -1.078   4.802  11.797  2.2762 -0.0248  0.9130
  652MOL0     H87990  -1.223   4.808  11.576 -0.0548 -0.3068  1.3944
  652MOL0     H87991  -1.112   4.926  11.522  3.6065 -0.0005  1.3378
  652MOL0     H87992  -1.200   5.078  11.702  0.2218 -0.3093 -0.6172
  652MOL0     H87993  -1.282   4.944  11.781  1.5045  0.6412  0.4695
  652MOL0     H87994  -1.346   5.094  11.534  3.1647 -1.8170 -1.5940
  652MOL0     H87995  -1.403   4.921  11.558  3.2662  0.2971 -1.5097
  652MOL0     H87996  -1.526   5.175  11.663 -2.3114 -1.0068 -1.5407
  652MOL0     H87997  -1.464   5.078  11.799  0.1532  1.3586  0.9487
  652MOL0     H87998  -1.725   5.029  11.699  0.0883  1.7894  0.1328
  652MOL0     H87999  -1.648   4.984  11.555  1.5229  0.9129 -1.9539
  652MOL0     H88000  -0.638   4.909  11.437 -2.3260  0.6850  3.2022
  652MOL0     H88001  -0.465   4.989  11.261 -3.5565 -2.2503 -1.5716
  652MOL0     H88002  -0.423   5.185  10.798  1.2207 -0.1775 -1.7814
  652MOL0     H88003  -0.255   5.298  10.636  1.5909  1.8177 -0.8195
  652MOL0     H88004   0.453   6.766  10.663  1.8477 -0.6246 -0.5007
  652MOL0     H88005   0.662   6.817  10.599 -0.0566 -1.9612 -2.1941
  652MOL0     H88006   0.901   7.039  10.209  0.0801  1.2399  0.1810
  652MOL0     H88007   1.115   7.090  10.113  0.2954 -1.0360 -2.1731
  652MOL0     H88008   1.452   6.862  10.222 -1.4792 -0.5317 -0.9935
  652MOL0     H88009   1.519   6.953  10.086  0.4355  0.3681 -0.5787
  652MOL0     H88010   1.419   6.800   9.913  1.9166 -4.4237 -2.1704
  652MOL0     H88011   1.374   6.699  10.047 -2.4922  0.7363 -1.9717
  652MOL0     H88012   1.646   6.768   9.954  1.2840 -0.5290  0.1769
  652MOL0     H88013   1.577   6.610   9.946 -0.1029 -2.0187  1.9487
  652MOL0     H88014   1.738   6.637  10.168  0.8648  0.0897 -0.5243
  652MOL0     H88015   1.631   6.765  10.211  1.3267 -0.6775  0.6074
  652MOL0     H88016   1.439   6.392  10.315 -3.3523  3.3695  1.0173
  652MOL0     H88017   1.292   6.745  10.259  0.2531  0.1284  1.4588
  652MOL0     H88018   1.038   6.654  10.487  0.4232 -0.7806 -0.5197
  652MOL0     H88019   1.032   6.564  10.331  0.1965 -0.6641  0.0678
  652MOL0     H88020   1.189   6.606  10.418 -0.1705  1.0980  0.1834
  653MOL0     O88021   2.135   6.324   1.013 -0.7588  0.1403 -0.2761
  653MOL0     C88022   2.148   6.288   1.124 -0.6608 -0.8112  0.0448
  653MOL0     O88023   2.271   6.233   1.180 -0.1548  0.5642  0.2699
  653MOL0     C88024   2.367   6.193   1.093 -0.7800  0.8524  0.4441
  653MOL0     C88025   2.391   6.061   1.043  0.8744 -0.0344  0.5476
  653MOL0     C88026   2.502   6.027   0.968  0.4776  0.0007  0.1382
  653MOL0     C88027   2.594   6.126   0.935 -0.1189 -0.1410  0.3552
  653MOL0     O88028   2.707   6.081   0.875 -0.2025 -1.2233 -0.3513
  653MOL0     C88029   2.764   6.175   0.779 -0.1576 -0.4918 -1.0009
  653MOL0     C88030   2.689   6.175   0.649  0.2278 -0.2577 -0.5227
  653MOL0     C88031   2.769   6.078   0.548 -1.3891  0.1329 -0.4028
  653MOL0     C88032   2.733   6.102   0.395 -1.1616 -0.2451  0.4969
  653MOL0     C88033   2.784   5.973   0.313  1.4143  0.4082  0.1888
  653MOL0     C88034   2.736   5.980   0.164 -0.5729 -0.3020 -0.8892
  653MOL0     C88035   2.799   6.090   0.072  0.2084  0.3635  0.0232
  653MOL0     C88036   2.825   6.043  -0.075 -0.3574  1.7418  1.5087
  653MOL0     N88037   2.889   6.140  -0.166  0.7295 -0.6382 -0.2581
  653MOL0     C88038   2.830   6.199  -0.279 -0.8097  1.0276 -1.4245
  653MOL0     C88039   2.930   6.256  -0.347  0.6801 -1.2778  0.7327
  653MOL0     C88040   2.922   6.305  -0.490  1.3511 -0.0907  0.6860
  653MOL0     C88041   2.885   6.454  -0.495 -1.0228 -0.6563 -0.1348
  653MOL0     C88042   2.989   6.538  -0.429  0.3110  0.9252  0.6610
  653MOL0     C88043   3.034   6.640  -0.524 -0.1612  0.0438  0.6417
  653MOL0     O88044   3.149   6.707  -0.473 -0.2561 -0.1016  0.0167
  653MOL0     C88045   3.278   6.669  -0.519  0.0595 -0.1138  0.9886
  653MOL0     C88046   3.308   6.543  -0.567  0.7940  1.2550 -0.0069
  653MOL0     C88047   3.438   6.504  -0.578  0.6762 -0.0975 -0.4442
  653MOL0     C88048   3.543   6.585  -0.550  0.2742 -1.1884  0.3019
  653MOL0     C88049   3.678   6.522  -0.516  0.4121 -0.3034  0.1118
  653MOL0     O88050   3.759   6.599  -0.428 -0.8883 -0.0155 -0.3494
  653MOL0     C88051   3.886   6.548  -0.410 -0.5163  0.0649  0.2924
  653MOL0     C88052   3.902   6.428  -0.335 -0.5266  0.4382  0.4936
  653MOL0     C88053   4.033   6.384  -0.300  0.2427  0.2094  0.5284
  653MOL0     C88054   4.141   6.447  -0.366  0.3421  0.5290 -0.3943
  653MOL0     O88055   4.257   6.369  -0.360 -0.4930 -0.1841 -0.0202
  653MOL0     C88056   4.366   6.388  -0.455  0.7734  0.5166 -0.4321
  653MOL0     C88057   4.475   6.277  -0.461 -0.1311  0.2449  0.2499
  653MOL0     C88058   4.532   6.251  -0.322  0.1284 -0.3873  0.2710
  653MOL0     C88059   4.628   6.135  -0.329 -0.7135 -0.0260 -0.6117
  653MOL0     C88060   4.722   6.129  -0.201 -0.0554  0.0040 -0.0753
  653MOL0     C88061   4.847   6.050  -0.226 -0.1400  0.8797  0.7103
  653MOL0     C88062   4.833   5.897  -0.242 -0.0391  0.4794  0.1280
  653MOL0     C88063   4.955   5.849  -0.310 -0.2432  0.1269  0.0291
  653MOL0    Cl88064   4.950   5.674  -0.330  0.0347  0.2430 -0.0003
  653MOL0     C88065   4.126   6.553  -0.451  0.3338 -0.4330 -0.8014
  653MOL0     C88066   3.996   6.610  -0.470 -0.8850  0.2720 -0.0874
  653MOL0     O88067   3.702   6.406  -0.554 -0.1036 -0.0234 -0.3981
  653MOL0     C88068   3.518   6.718  -0.513  0.5126  0.3783  0.1922
  653MOL0     C88069   3.379   6.757  -0.493  0.3812 -0.0989  0.1337
  653MOL0     N88070   3.049   6.254  -0.272 -0.3131  0.4528  0.3298
  653MOL0     N88071   3.019   6.183  -0.166  0.1815 -0.1520 -0.2433
  653MOL0     C88072   2.568   6.265   0.968 -0.1062 -0.4780 -0.2558
  653MOL0     C88073   2.459   6.296   1.052  0.4556  0.1060 -0.1395
  653MOL0     C88074   2.045   6.326   1.213  0.0396 -0.5543 -0.4310
  653MOL0     C88075   2.079   6.361   1.349  0.4821  0.0020  0.2864
  653MOL0     C88076   1.974   6.393   1.438 -0.6977 -0.6133  0.5140
  653MOL0     C88077   1.843   6.397   1.401 -0.2429 -0.0886 -0.1736
  653MOL0     O88078   1.747   6.440   1.489  0.1121 -0.4302 -0.7148
  653MOL0     C88079   1.751   6.574   1.542  0.6833  0.9034 -0.1164
  653MOL0     C88080   1.715   6.681   1.435  0.8480  0.3162  1.1092
  653MOL0     C88081   1.573   6.670   1.371  1.2407 -0.2262  0.0775
  653MOL0     C88082   1.555   6.765   1.256  0.0081  0.0620 -0.2735
  653MOL0     C88083   1.413   6.775   1.218 -0.3847 -0.0603 -0.1201
  653MOL0     C88084   1.299   6.788   1.193 -0.7603 -0.3035  0.0536
  653MOL0     C88085   1.813   6.362   1.271 -0.5216 -0.7756  1.1582
  653MOL0     C88086   1.908   6.328   1.176 -0.2434 -0.7424  0.0052
  653MOL0     C88087   1.846   6.286   1.047  0.2319 -0.1038  0.4368
  653MOL0     H88088   2.313   5.990   1.065  3.0699 -1.8625  3.1037
  653MOL0     H88089   2.540   5.928   0.944 -0.6055  0.3848 -4.0531
  653MOL0     H88090   2.770   6.276   0.819 -2.9555 -0.7296  0.2869
  653MOL0     H88091   2.868   6.150   0.759  0.1580  0.8027 -1.0716
  653MOL0     H88092   2.698   6.273   0.601  1.7051 -0.3696 -0.5006
  653MOL0     H88093   2.589   6.131   0.660  0.4050 -0.1616  1.8873
  653MOL0     H88094   2.749   5.974   0.577  2.7532 -0.9000 -0.5984
  653MOL0     H88095   2.876   6.094   0.556 -1.5858  0.4603  2.7939
  653MOL0     H88096   2.626   6.114   0.374 -0.7597 -3.7700 -6.7032
  653MOL0     H88097   2.789   6.190   0.360 -2.2301  0.6216  0.8919
  653MOL0     H88098   2.892   5.955   0.311  1.3234 -0.1335 -0.1408
  653MOL0     H88099   2.744   5.882   0.360 -0.2337  0.7976 -0.3776
  653MOL0     H88100   2.769   5.886   0.120  2.3482  0.2306 -0.0514
  653MOL0     H88101   2.627   5.989   0.157 -0.6094  0.0481 -0.0502
  653MOL0     H88102   2.891   6.126   0.117  0.7786 -0.5062 -0.4237
  653MOL0     H88103   2.745   6.185   0.063 -0.0679  0.0391 -2.7730
  653MOL0     H88104   2.880   5.948  -0.079 -1.8459  0.8351  1.8281
  653MOL0     H88105   2.729   6.013  -0.118  2.5603 -2.9645 -2.9175
  653MOL0     H88106   2.734   6.163  -0.313 -0.1204 -0.8108 -1.5438
  653MOL0     H88107   3.018   6.287  -0.540  1.7761 -0.4453  1.5931
  653MOL0     H88108   2.849   6.249  -0.549 -0.6690 -0.4479  3.3062
  653MOL0     H88109   2.881   6.483  -0.600  3.5266  0.2080 -0.2462
  653MOL0     H88110   2.788   6.474  -0.449  1.4740  1.4757  5.0710
  653MOL0     H88111   3.083   6.483  -0.417  0.2517  0.7034  0.1251
  653MOL0     H88112   2.963   6.577  -0.330  4.1050 -2.8573  3.4608
  653MOL0     H88113   2.957   6.715  -0.545 -1.0452 -0.6105  1.4683
  653MOL0     H88114   3.056   6.586  -0.617  0.3475 -1.1526  1.4407
  653MOL0     H88115   3.234   6.472  -0.603  0.3736  2.0316 -0.7228
  653MOL0     H88116   3.451   6.400  -0.604 -3.1281 -0.7663 -0.2863
  653MOL0     H88117   3.815   6.377  -0.295  0.3187 -0.0811  1.7431
  653MOL0     H88118   4.056   6.299  -0.237 -0.0693 -2.3602 -2.5831
  653MOL0     H88119   4.330   6.400  -0.558 -1.5776  1.7778  0.4419
  653MOL0     H88120   4.408   6.482  -0.417  0.2611  1.4765 -2.1046
  653MOL0     H88121   4.431   6.192  -0.513 -1.1010  0.6499  0.3779
  653MOL0     H88122   4.561   6.312  -0.519 -1.9401  3.2154 -0.8834
  653MOL0     H88123   4.592   6.339  -0.299  1.2912 -0.0615 -3.3100
  653MOL0     H88124   4.457   6.239  -0.244  0.3230 -0.3581  0.4636
  653MOL0     H88125   4.684   6.155  -0.420 -1.5696 -0.7629 -1.3207
  653MOL0     H88126   4.564   6.048  -0.345 -0.1178 -0.2802 -1.6976
  653MOL0     H88127   4.658   6.099  -0.117 -1.3789 -1.4210 -1.5406
  653MOL0     H88128   4.744   6.235  -0.188  2.0761 -0.0306 -2.6812
  653MOL0     H88129   4.877   6.090  -0.324 -1.1774 -4.1897 -2.0595
  653MOL0     H88130   4.920   6.057  -0.146 -0.2692 -0.6498  0.9990
  653MOL0     H88131   4.742   5.882  -0.300 -0.6219  0.5769  0.9898
  653MOL0     H88132   4.827   5.857  -0.140  1.9191  1.1448  0.5411
  653MOL0     H88133   4.962   5.901  -0.405  3.7165  3.5479  1.8357
  653MOL0     H88134   5.041   5.873  -0.246 -2.5557 -0.6789  3.7522
  653MOL0     H88135   4.209   6.593  -0.507 -0.4499  0.8974 -1.0716
  653MOL0     H88136   3.989   6.698  -0.533 -0.2556  1.1445  1.0260
  653MOL0     H88137   3.585   6.790  -0.465 -2.2352  2.2293  1.5104
  653MOL0     H88138   3.349   6.856  -0.459  0.2272  0.0128 -0.3278
  653MOL0     H88139   2.637   6.348   0.954 -0.9809  0.2175 -0.5621
  653MOL0     H88140   2.448   6.393   1.099 -1.1495  0.6941 -1.6139
  653MOL0     H88141   2.185   6.355   1.373  1.1923  3.4781 -1.3981
  653MOL0     H88142   1.995   6.407   1.543  3.9769 -1.8242  0.0037
  653MOL0     H88143   1.840   6.590   1.603  0.4786 -1.1242  0.7810
  653MOL0     H88144   1.661   6.573   1.605 -1.0597  1.4619 -2.4513
  653MOL0     H88145   1.786   6.672   1.352  1.9650 -1.4951  2.1917
  653MOL0     H88146   1.735   6.780   1.479  1.2321  1.3337 -1.2157
  653MOL0     H88147   1.499   6.689   1.449 -1.4643 -3.1389 -1.5752
  653MOL0     H88148   1.555   6.566   1.343 -0.9996 -0.0313  0.6000
  653MOL0     H88149   1.606   6.860   1.278  0.0687 -0.4243  1.8482
  653MOL0     H88150   1.613   6.720   1.175  1.2297  2.4183 -0.8069
  653MOL0     H88151   1.193   6.795   1.193 -0.7214  0.4018  0.9981
  653MOL0     H88152   1.707   6.343   1.254  0.0514 -3.5753  0.1681
  653MOL0     H88153   1.739   6.268   1.056  0.3277 -0.1198  1.7091
  653MOL0     H88154   1.861   6.365   0.973 -0.6240 -0.2682  0.0781
  653MOL0     H88155   1.887   6.189   1.014  0.2476  0.4137 -1.1610
  654MOL0     O88156   7.520   8.919   2.706 -0.8977  0.0955  0.8714
  654MOL0     C88157   7.612   8.841   2.695 -0.2960  0.2820  0.1301
  654MOL0     O88158   7.670   8.773   2.802  0.3143  0.5002  0.7758
  654MOL0     C88159   7.620   8.822   2.914 -0.0840  0.2985 -1.2530
  654MOL0     C88160   7.502   8.758   2.978 -0.5408  0.4460  0.6915
  654MOL0     C88161   7.467   8.803   3.107 -0.3146  0.3211 -0.2936
  654MOL0     C88162   7.542   8.903   3.174 -0.9037  0.4562  0.2630
  654MOL0     O88163   7.499   8.938   3.296 -0.1376 -1.1514 -0.3201
  654MOL0     C88164   7.526   9.075   3.345  0.3476  0.3295 -0.3852
  654MOL0     C88165   7.484   9.081   3.492  0.1497  0.6266  0.6387
  654MOL0     C88166   7.338   9.036   3.502  0.7912  0.3392  0.2696
  654MOL0     C88167   7.309   9.023   3.651  0.2346 -0.1424 -0.3900
  654MOL0     C88168   7.162   8.993   3.679  0.3371 -0.7667 -0.0081
  654MOL0     C88169   7.130   8.900   3.798  0.1052  0.8415 -0.1267
  654MOL0     C88170   7.160   8.970   3.930 -0.0947  0.4457  0.0626
  654MOL0     C88171   7.030   9.036   3.978 -0.9619 -0.3795 -0.2272
  654MOL0     N88172   7.059   9.135   4.087  0.2858 -0.4428  0.0205
  654MOL0     C88173   7.118   9.258   4.058  0.5379  1.0096  0.5400
  654MOL0     C88174   7.180   9.296   4.172  0.3044  0.8354 -0.3534
  654MOL0     C88175   7.273   9.415   4.188  0.8215  0.1417 -0.5391
  654MOL0     C88176   7.394   9.404   4.094  0.6516  0.0145  0.8027
  654MOL0     C88177   7.459   9.269   4.075  0.1800 -0.1984  0.0774
  654MOL0     C88178   7.581   9.276   3.976  0.7718  0.9011 -0.4882
  654MOL0     O88179   7.635   9.138   3.975  0.3201 -0.4690 -0.7945
  654MOL0     C88180   7.700   9.104   3.858 -0.0130 -0.1949 -0.0067
  654MOL0     C88181   7.679   8.969   3.823 -0.1642  0.0416 -0.6722
  654MOL0     C88182   7.762   8.920   3.716 -0.3961 -0.4139 -0.2619
  654MOL0     C88183   7.851   9.012   3.640 -0.2857  0.2469 -0.0828
  654MOL0     C88184   7.923   8.963   3.530  0.5545 -1.2267  0.8388
  654MOL0     O88185   7.909   9.049   3.422 -0.1995  0.5567  0.5058
  654MOL0     C88186   7.977   9.024   3.312  0.3397  0.8332  1.4807
  654MOL0     C88187   7.939   8.915   3.232  0.0925 -0.2974  0.8807
  654MOL0     C88188   8.000   8.888   3.105 -0.3903 -0.3893  0.4093
  654MOL0     C88189   8.103   8.981   3.049  0.5316  0.4496 -0.3095
  654MOL0     O88190   8.167   8.962   2.935  0.0877 -0.0328 -0.3566
  654MOL0     C88191   8.148   8.839   2.867 -0.3427 -0.2656  0.0568
  654MOL0     C88192   8.040   8.872   2.762 -0.4955 -0.1785  0.3710
  654MOL0     C88193   8.057   8.783   2.645 -0.2202 -0.1371  0.9564
  654MOL0     C88194   8.121   8.649   2.661 -0.3391 -0.1780  0.1774
  654MOL0     C88195   8.149   8.612   2.508  0.7880 -0.6018 -0.6728
  654MOL0     C88196   8.183   8.464   2.498 -0.1494 -0.3075 -0.6078
  654MOL0     C88197   8.258   8.405   2.610 -0.1632  0.3419 -0.1492
  654MOL0     C88198   8.289   8.261   2.581 -0.7157  0.1557  0.7951
  654MOL0    Cl88199   8.453   8.260   2.517  0.0332 -0.3662  0.5304
  654MOL0     C88200   8.129   9.092   3.129 -0.7951 -0.0028  0.2641
  654MOL0     C88201   8.071   9.118   3.252 -0.4500  0.1612  0.1347
  654MOL0     O88202   7.974   8.852   3.530 -0.4161  0.1269 -0.2665
  654MOL0     C88203   7.860   9.149   3.675 -0.0925 -0.0190 -0.2752
  654MOL0     C88204   7.791   9.192   3.785  0.1037 -0.6126  0.7305
  654MOL0     N88205   7.155   9.204   4.271 -0.3652 -0.3170  0.5210
  654MOL0     N88206   7.082   9.114   4.218 -0.6025  0.5259 -0.3887
  654MOL0     C88207   7.652   8.965   3.108 -0.7584  1.0852  0.2549
  654MOL0     C88208   7.686   8.920   2.981 -0.2694 -0.6080 -0.8071
  654MOL0     C88209   7.658   8.803   2.549  0.9645 -0.4329 -0.7420
  654MOL0     C88210   7.721   8.680   2.530  0.5748 -0.0681  0.3973
  654MOL0     C88211   7.764   8.630   2.404 -0.2519 -0.0351  0.2502
  654MOL0     C88212   7.725   8.686   2.285  0.1171 -0.6759 -0.8146
  654MOL0     O88213   7.749   8.628   2.170 -0.0971  0.4148  0.6395
  654MOL0     C88214   7.708   8.682   2.038 -0.1219 -0.5044  0.2802
  654MOL0     C88215   7.785   8.803   1.988 -0.5629  0.8133  0.6106
  654MOL0     C88216   7.716   8.868   1.869  0.7567 -0.2601 -0.3992
  654MOL0     C88217   7.701   8.790   1.741 -0.0056  0.0757 -0.1698
  654MOL0     C88218   7.833   8.781   1.690  0.1958  0.5284 -0.6652
  654MOL0     C88219   7.950   8.775   1.657  0.2798  0.4697 -0.1271
  654MOL0     C88220   7.658   8.813   2.306 -0.2141  1.0073  0.8226
  654MOL0     C88221   7.632   8.878   2.430 -0.3765 -0.3524  0.0069
  654MOL0     C88222   7.565   9.005   2.436  0.2922 -0.1470  0.5546
  654MOL0     H88223   7.435   8.680   2.945  0.9762 -1.2894  1.5602
  654MOL0     H88224   7.383   8.767   3.165  2.3856  1.2536  4.6977
  654MOL0     H88225   7.629   9.110   3.333 -0.2536  2.1831 -0.4395
  654MOL0     H88226   7.470   9.149   3.288  0.2729  0.2218 -0.4541
  654MOL0     H88227   7.502   9.182   3.530 -0.0319  0.0185  2.4002
  654MOL0     H88228   7.543   9.015   3.557  2.6168 -1.8757 -3.6640
  654MOL0     H88229   7.312   8.937   3.466 -1.5653  0.7758  0.5781
  654MOL0     H88230   7.260   9.099   3.457 -0.1119 -1.0953 -0.2335
  654MOL0     H88231   7.370   8.941   3.687  1.1552  0.2525 -1.0114
  654MOL0     H88232   7.335   9.120   3.695 -1.8813  1.9329 -3.3296
  654MOL0     H88233   7.125   9.094   3.698  2.5964 -0.3302  2.8380
  654MOL0     H88234   7.116   8.959   3.586 -0.9796  0.4935  0.1555
  654MOL0     H88235   7.030   8.856   3.786 -0.0903  1.1109  0.5210
  654MOL0     H88236   7.199   8.815   3.797  1.4313  1.8775 -1.4696
  654MOL0     H88237   7.235   9.046   3.908  0.3406  0.7303  2.3498
  654MOL0     H88238   7.199   8.900   4.004  4.5920  0.2559 -2.2418
  654MOL0     H88239   6.976   9.082   3.895  0.3136 -1.6345 -1.8080
  654MOL0     H88240   6.958   8.970   4.026 -0.1284 -1.3219 -0.2309
  654MOL0     H88241   7.117   9.308   3.962 -1.3320  4.2935  2.0922
  654MOL0     H88242   7.216   9.508   4.184  0.7781  0.2202  1.0384
  654MOL0     H88243   7.315   9.413   4.290 -1.7013  0.8958  0.5893
  654MOL0     H88244   7.353   9.438   3.999  0.0230 -2.0441  0.2775
  654MOL0     H88245   7.467   9.473   4.136  0.0488  1.7918 -0.9524
  654MOL0     H88246   7.377   9.202   4.047 -0.6280  0.9625 -0.4401
  654MOL0     H88247   7.491   9.230   4.172 -1.9465 -0.8080  0.5994
  654MOL0     H88248   7.666   9.336   4.010  1.9737 -0.7659 -0.4393
  654MOL0     H88249   7.544   9.313   3.880  0.8840  1.2679 -0.3926
  654MOL0     H88250   7.596   8.913   3.863  0.0165 -0.8255 -1.4819
  654MOL0     H88251   7.743   8.820   3.680  0.7734  0.4345 -3.6097
  654MOL0     H88252   7.863   8.851   3.274  1.9557 -0.7467  3.8882
  654MOL0     H88253   7.959   8.806   3.047 -1.1671 -0.2543  0.7554
  654MOL0     H88254   8.247   8.815   2.826 -0.3164 -1.9979  1.0338
  654MOL0     H88255   8.114   8.745   2.911 -1.6005 -0.3990 -1.1223
  654MOL0     H88256   7.947   8.853   2.817  0.3197 -0.7069  1.6190
  654MOL0     H88257   8.032   8.975   2.727 -0.2229 -1.0928 -2.7169
  654MOL0     H88258   7.964   8.768   2.589  0.1346 -3.4713  1.0485
  654MOL0     H88259   8.127   8.835   2.580  2.5977 -4.0371  0.5061
  654MOL0     H88260   8.052   8.574   2.701 -5.1928  2.3910 -2.3951
  654MOL0     H88261   8.219   8.655   2.708 -0.1359 -2.3608  0.1659
  654MOL0     H88262   8.218   8.680   2.457 -0.9637  1.9043  0.0614
  654MOL0     H88263   8.055   8.624   2.453 -0.7539  0.4081  1.9763
  654MOL0     H88264   8.090   8.410   2.480 -1.4663  2.2189 -1.9802
  654MOL0     H88265   8.243   8.450   2.407  0.6640  1.9186 -0.4859
  654MOL0     H88266   8.195   8.411   2.700  0.2744  3.7678  0.0968
  654MOL0     H88267   8.349   8.456   2.645  1.7795 -1.2492 -2.5413
  654MOL0     H88268   8.272   8.193   2.664 -0.6359  0.1273  0.7883
  654MOL0     H88269   8.214   8.216   2.515 -1.7421 -2.5309  3.5787
  654MOL0     H88270   8.189   9.174   3.089 -2.9181  1.2831 -0.4378
  654MOL0     H88271   8.099   9.209   3.304  1.8833  1.2649 -2.7766
  654MOL0     H88272   7.911   9.224   3.615  2.2877 -0.2586  1.3033
  654MOL0     H88273   7.808   9.295   3.813 -0.2503 -1.0981  2.9229
  654MOL0     H88274   7.715   9.039   3.157  1.3698 -1.2085  1.2622
  654MOL0     H88275   7.764   8.971   2.925 -0.0565 -1.0268 -0.9009
  654MOL0     H88276   7.749   8.616   2.613 -0.9041 -3.5113 -1.5312
  654MOL0     H88277   7.825   8.540   2.393  0.0034 -0.0255  1.3891
  654MOL0     H88278   7.605   8.718   2.035 -0.1204 -0.5179 -0.0847
  654MOL0     H88279   7.703   8.605   1.960  0.4512  0.9171 -1.2350
  654MOL0     H88280   7.885   8.776   1.953 -0.9199 -1.0114  0.9315
  654MOL0     H88281   7.807   8.870   2.072  0.0743 -1.4294  2.3262
  654MOL0     H88282   7.763   8.965   1.850 -3.5921  2.2324  0.2997
  654MOL0     H88283   7.613   8.893   1.898  0.0325 -1.7462 -1.5159
  654MOL0     H88284   7.652   8.693   1.757 -1.7343  1.0378  0.6734
  654MOL0     H88285   7.640   8.849   1.672  1.1062 -0.7028 -1.8870
  654MOL0     H88286   8.052   8.778   1.626  1.0078 -5.1345  0.6990
  654MOL0     H88287   7.628   8.859   2.212 -5.2056 -0.6417  1.3206
  654MOL0     H88288   7.567   9.055   2.338 -0.0381 -1.2589 -0.0406
  654MOL0     H88289   7.470   8.989   2.488 -0.2673  1.3024  0.0421
  654MOL0     H88290   7.612   9.073   2.508 -0.8793  1.8994 -0.4932
  655MOL0     O88291   3.043   0.746   1.908 -0.5787 -0.3212  0.7157
  655MOL0     C88292   3.142   0.783   1.843 -0.3079 -0.2006  0.4026
  655MOL0     O88293   3.251   0.701   1.813  0.3013 -0.1234  0.7961
  655MOL0     C88294   3.265   0.587   1.883  0.2726  0.4564 -0.3153
  655MOL0     C88295   3.193   0.471   1.843 -0.4851  0.1014 -0.1137
  655MOL0     C88296   3.171   0.371   1.942  0.7427 -0.4364  0.2123
  655MOL0     C88297   3.242   0.366   2.066 -0.0955 -0.4823 -0.1269
  655MOL0     O88298   3.200   0.270   2.149 -0.7751  0.2089  0.3780
  655MOL0     C88299   3.299   0.225   2.242 -0.0121  0.4825 -0.7814
  655MOL0     C88300   3.280   0.082   2.296 -0.7536  0.2042  0.2189
  655MOL0     C88301   3.133   0.055   2.314  0.3540 -0.3769  0.3810
  655MOL0     C88302   3.065  -0.019   2.202  0.0248 -0.1890 -0.6105
  655MOL0     C88303   2.912  -0.014   2.216 -0.1977 -0.2972 -0.1982
  655MOL0     C88304   2.853  -0.078   2.101 -0.4841 -0.1891 -0.4004
  655MOL0     C88305   2.697  -0.091   2.101  0.8455  0.1990  0.1172
  655MOL0     C88306   2.664  -0.210   2.002  0.3154 -0.0108 -0.8675
  655MOL0     N88307   2.532  -0.176   1.938 -0.2861 -0.3637  0.3945
  655MOL0     C88308   2.405  -0.215   1.978 -0.0796  0.2443  0.0103
  655MOL0     C88309   2.327  -0.168   1.869  1.1641  0.2647 -0.7435
  655MOL0     C88310   2.175  -0.201   1.870 -0.8835 -0.1657 -0.3141
  655MOL0     C88311   2.142  -0.332   1.819 -0.8558 -0.7880 -0.7409
  655MOL0     C88312   2.170  -0.450   1.916  0.8078  0.1678  0.0944
  655MOL0     C88313   2.119  -0.587   1.870  0.2160 -0.1045 -0.8664
  655MOL0     O88314   1.979  -0.590   1.857  0.1115  0.5738 -0.0473
  655MOL0     C88315   1.914  -0.706   1.822  0.0355 -0.8897  0.0924
  655MOL0     C88316   1.776  -0.703   1.822 -0.7408 -0.3547  0.6668
  655MOL0     C88317   1.701  -0.816   1.815  0.0658  0.1033 -0.0718
  655MOL0     C88318   1.762  -0.944   1.815 -1.0930  0.9856  0.5202
  655MOL0     C88319   1.684  -1.071   1.801  0.2350 -0.2592 -0.1403
  655MOL0     O88320   1.756  -1.184   1.804 -0.4089 -0.8687 -0.6622
  655MOL0     C88321   1.691  -1.308   1.794 -0.4066  0.4803 -0.9970
  655MOL0     C88322   1.714  -1.385   1.686 -0.1505 -0.7342  0.4317
  655MOL0     C88323   1.673  -1.520   1.680  0.4468 -0.5575 -0.6947
  655MOL0     C88324   1.617  -1.585   1.791  0.2163  0.6947  0.0642
  655MOL0     O88325   1.571  -1.718   1.801 -0.8544 -0.3259  0.3962
  655MOL0     C88326   1.625  -1.803   1.689  0.6173  0.2123  0.1886
  655MOL0     C88327   1.577  -1.949   1.716  0.9433  0.0280  0.2923
  655MOL0     C88328   1.624  -2.051   1.610 -0.0801 -0.0200 -0.6397
  655MOL0     C88329   1.667  -2.180   1.662  0.5061 -0.1823 -0.4347
  655MOL0     C88330   1.552  -2.290   1.659  0.5292 -1.0436  0.5168
  655MOL0     C88331   1.451  -2.255   1.762  0.1872 -0.5752  0.9894
  655MOL0     C88332   1.346  -2.370   1.775 -0.1185 -0.2680 -0.5424
  655MOL0     C88333   1.216  -2.338   1.845 -0.6795  0.2349  1.0716
  655MOL0    Cl88334   1.245  -2.349   2.034 -0.1123  0.5474  0.3431
  655MOL0     C88335   1.590  -1.505   1.897 -0.8423  1.5741  0.1625
  655MOL0     C88336   1.630  -1.375   1.904  0.5015 -0.8984 -0.0237
  655MOL0     O88337   1.564  -1.067   1.798  0.1807  0.0496  0.1140
  655MOL0     C88338   1.902  -0.953   1.809  0.1610 -0.3544  0.2532
  655MOL0     C88339   1.985  -0.839   1.810 -0.0710 -0.0936 -0.7923
  655MOL0     N88340   2.404  -0.102   1.775  0.2900  0.3179 -0.6124
  655MOL0     N88341   2.528  -0.108   1.816 -0.1016  0.6711 -0.7631
  655MOL0     C88342   3.318   0.484   2.098 -0.0473  0.6792  0.1684
  655MOL0     C88343   3.335   0.590   2.007  0.3505 -0.4618 -0.1283
  655MOL0     C88344   3.151   0.926   1.809  0.5036 -0.1384  0.1808
  655MOL0     C88345   3.238   0.978   1.708 -0.1619  0.9117 -0.4675
  655MOL0     C88346   3.274   1.113   1.685  0.5123 -0.1283  0.1267
  655MOL0     C88347   3.227   1.208   1.772  0.4753 -0.6688 -0.7171
  655MOL0     O88348   3.261   1.338   1.734 -0.4687 -0.4111 -0.1169
  655MOL0     C88349   3.190   1.454   1.782  0.4128 -0.0928  0.6461
  655MOL0     C88350   3.051   1.448   1.703  0.1281 -0.9627  0.1143
  655MOL0     C88351   2.961   1.577   1.700  0.6289  1.0056 -0.3502
  655MOL0     C88352   2.922   1.637   1.838  0.3675  0.2757 -0.5081
  655MOL0     C88353   2.838   1.535   1.909 -0.3381 -0.0299 -0.9532
  655MOL0     C88354   2.768   1.456   1.963 -0.2169 -0.3742 -0.5454
  655MOL0     C88355   3.127   1.164   1.867 -0.4853 -0.3139 -0.6509
  655MOL0     C88356   3.090   1.033   1.891 -0.5158 -0.1646 -0.0504
  655MOL0     C88357   3.000   1.001   2.009 -0.9697 -0.1918  1.2222
  655MOL0     H88358   3.140   0.473   1.748 -0.3149 -1.2348 -0.2566
  655MOL0     H88359   3.103   0.287   1.934 -0.6131  0.4723  1.4626
  655MOL0     H88360   3.400   0.237   2.202  1.2452 -0.7443  1.7790
  655MOL0     H88361   3.292   0.290   2.329  2.0431  0.7930 -0.7982
  655MOL0     H88362   3.339   0.059   2.385  1.1037  1.2925 -0.6645
  655MOL0     H88363   3.328   0.015   2.225  2.0788 -0.5107  2.6055
  655MOL0     H88364   3.084   0.148   2.343  2.4665  0.3679  1.7485
  655MOL0     H88365   3.120  -0.020   2.392  0.6943 -2.0117 -1.0596
  655MOL0     H88366   3.100   0.026   2.109 -1.1198  1.3395 -0.3467
  655MOL0     H88367   3.074  -0.128   2.204 -1.1541 -0.2956  0.8819
  655MOL0     H88368   2.877  -0.055   2.311  0.4225  0.2245  0.2576
  655MOL0     H88369   2.892   0.093   2.206  2.1536  0.1507 -0.6666
  655MOL0     H88370   2.882  -0.019   2.013  2.8154 -3.0661 -1.4635
  655MOL0     H88371   2.906  -0.174   2.095  0.1204  0.1868 -1.3275
  655MOL0     H88372   2.654   0.005   2.068 -1.1725 -0.2263  1.3224
  655MOL0     H88373   2.651  -0.107   2.199  0.0906  1.2098 -0.0556
  655MOL0     H88374   2.749  -0.203   1.935  0.0145 -0.2010 -1.2756
  655MOL0     H88375   2.668  -0.311   2.042  2.9586  0.5552  0.5012
  655MOL0     H88376   2.368  -0.261   2.068  2.6658  0.3357  1.2979
  655MOL0     H88377   2.145  -0.181   1.973 -0.7364  0.7609 -0.4405
  655MOL0     H88378   2.111  -0.134   1.811 -3.5746 -3.9297 -2.0903
  655MOL0     H88379   2.035  -0.330   1.795 -0.8762 -2.0909 -0.8541
  655MOL0     H88380   2.210  -0.351   1.735 -1.3093  2.8747 -2.1012
  655MOL0     H88381   2.118  -0.414   2.005  3.3835 -2.4828  2.9242
  655MOL0     H88382   2.278  -0.467   1.929  0.5792  0.4556  3.0055
  655MOL0     H88383   2.148  -0.662   1.944 -0.4669  0.2492 -0.2282
  655MOL0     H88384   2.170  -0.613   1.776  0.4387 -3.6014  0.0659
  655MOL0     H88385   1.735  -0.604   1.837 -0.2041 -0.2745  1.7231
  655MOL0     H88386   1.593  -0.818   1.809  0.0752  1.2798 -0.8996
  655MOL0     H88387   1.761  -1.333   1.603  1.1751 -3.1016 -0.4161
  655MOL0     H88388   1.693  -1.581   1.592  0.2037  0.1972 -1.2962
  655MOL0     H88389   1.585  -1.765   1.595 -1.8605 -1.0317  0.6588
  655MOL0     H88390   1.733  -1.804   1.671  0.7073 -1.6734  0.6235
  655MOL0     H88391   1.625  -1.982   1.809  0.2889 -2.8333 -0.2781
  655MOL0     H88392   1.467  -1.946   1.721  0.8997  2.4025 -0.6937
  655MOL0     H88393   1.553  -2.064   1.527 -1.3956 -3.4381  0.8448
  655MOL0     H88394   1.715  -2.006   1.569  0.4167 -1.0552 -0.7151
  655MOL0     H88395   1.713  -2.173   1.761  2.5025 -3.1112 -1.0471
  655MOL0     H88396   1.750  -2.221   1.603  1.9172 -2.1511  2.6491
  655MOL0     H88397   1.595  -2.390   1.674  0.7412 -1.1825 -0.8735
  655MOL0     H88398   1.498  -2.285   1.564 -1.3738 -0.0607  1.5835
  655MOL0     H88399   1.504  -2.255   1.858  0.8131  1.3729  0.6662
  655MOL0     H88400   1.401  -2.158   1.758  1.8701  0.4889  3.5090
  655MOL0     H88401   1.382  -2.469   1.806 -1.9319 -1.1424 -1.0894
  655MOL0     H88402   1.326  -2.399   1.671  1.2469 -0.1179 -0.8754
  655MOL0     H88403   1.182  -2.236   1.825  0.3393 -0.0558 -3.0726
  655MOL0     H88404   1.136  -2.401   1.804 -0.0407  0.5055 -0.6673
  655MOL0     H88405   1.538  -1.553   1.979 -1.2661 -2.1942 -2.0821
  655MOL0     H88406   1.626  -1.325   2.000  2.7018 -0.2798 -0.1975
  655MOL0     H88407   1.947  -1.051   1.799  4.9430  1.7124 -2.0459
  655MOL0     H88408   2.092  -0.854   1.821 -0.3035 -2.2544 -0.9809
  655MOL0     H88409   3.359   0.491   2.198  1.2425  2.4792 -0.4337
  655MOL0     H88410   3.388   0.683   2.023 -0.2979  0.0174 -0.6837
  655MOL0     H88411   3.293   0.914   1.639  0.7029  0.2684  0.7764
  655MOL0     H88412   3.349   1.132   1.608  1.2982 -0.1415  0.8725
  655MOL0     H88413   3.250   1.539   1.748 -0.5632  0.3255 -0.0853
  655MOL0     H88414   3.182   1.463   1.891 -0.0623  4.5279  0.4340
  655MOL0     H88415   2.995   1.364   1.745  2.1879 -1.2277  2.5631
  655MOL0     H88416   3.081   1.428   1.600  0.6597 -1.8980  0.4347
  655MOL0     H88417   2.873   1.555   1.640 -1.6053  0.3752  2.8867
  655MOL0     H88418   3.023   1.654   1.653  3.8538  1.6171  4.2073
  655MOL0     H88419   3.008   1.684   1.887  0.3906 -0.1189 -0.1657
  655MOL0     H88420   2.851   1.715   1.812  0.9564  1.4207  1.1246
  655MOL0     H88421   2.710   1.386   2.020  1.7161 -0.6132  1.2729
  655MOL0     H88422   3.094   1.244   1.932  0.4361  2.1571 -3.0373
  655MOL0     H88423   3.055   0.953   2.091  2.5343 -1.8224 -1.7699
  655MOL0     H88424   2.953   1.093   2.045 -1.8472  0.6591 -1.8472
  655MOL0     H88425   2.914   0.945   1.972 -1.9557  2.7052 -1.3258
  656MOL0     O88426   9.967   2.584   1.569  0.7247  0.5103 -0.1177
  656MOL0     C88427   9.887   2.655   1.626 -0.3447 -0.6072  0.4593
  656MOL0     O88428   9.858   2.784   1.592 -0.8828 -0.3173  0.1329
  656MOL0     C88429   9.922   2.868   1.504 -1.4654 -0.8574 -0.1464
  656MOL0     C88430   9.873   2.998   1.494  0.3392 -0.2037 -0.0311
  656MOL0     C88431   9.945   3.097   1.417 -0.2410 -0.1559  0.3580
  656MOL0     C88432  10.062   3.061   1.350  0.3976 -0.2359 -0.4859
  656MOL0     O88433  10.121   3.152   1.270 -0.2211  0.9576 -0.7552
  656MOL0     C88434  10.259   3.146   1.251 -0.9246 -0.5526 -0.5394
  656MOL0     C88435  10.334   3.212   1.371  0.0322  0.3290 -0.1594
  656MOL0     C88436  10.278   3.363   1.406  0.1764  0.1585 -0.0939
  656MOL0     C88437  10.349   3.467   1.308  0.4213  0.4175 -0.2930
  656MOL0     C88438  10.303   3.610   1.345 -1.0063  0.2931  0.0117
  656MOL0     C88439  10.372   3.701   1.247  0.0585 -0.4740 -0.3737
  656MOL0     C88440  10.366   3.856   1.268  0.0127  0.1131 -0.4256
  656MOL0     C88441  10.424   3.938   1.143  0.3813  0.7797 -0.6554
  656MOL0     N88442  10.351   4.060   1.119  0.3168 -0.3054 -0.8947
  656MOL0     C88443  10.401   4.183   1.150 -0.7366  0.2867 -0.2140
  656MOL0     C88444  10.317   4.273   1.091  0.4735  0.4303 -0.0742
  656MOL0     C88445  10.326   4.421   1.091 -0.0101  0.0309  0.3340
  656MOL0     C88446  10.355   4.450   0.941 -0.4176 -0.5808 -0.5463
  656MOL0     C88447  10.390   4.604   0.929 -0.0479 -0.0205  0.6645
  656MOL0     C88448  10.421   4.608   0.770  0.7785  0.1615 -0.8679
  656MOL0     O88449  10.506   4.510   0.719 -1.0709 -0.2881 -0.1927
  656MOL0     C88450  10.620   4.560   0.659 -0.1012 -0.6323  0.2811
  656MOL0     C88451  10.745   4.518   0.708 -0.1412 -1.0738  0.2842
  656MOL0     C88452  10.861   4.537   0.629  0.1405  0.4726  0.4627
  656MOL0     C88453  10.850   4.595   0.493  1.1056  0.0618  1.0309
  656MOL0     C88454  10.961   4.606   0.407 -0.0039 -0.3274 -0.3243
  656MOL0     O88455  10.948   4.691   0.291 -0.2145 -0.4498  0.0537
  656MOL0     C88456  11.042   4.681   0.194 -0.7896  0.8237 -0.1322
  656MOL0     C88457  11.064   4.558   0.128 -0.3271  0.1268  0.4724
  656MOL0     C88458  11.170   4.550   0.035  0.0530  0.2573 -0.6876
  656MOL0     C88459  11.248   4.659  -0.003  0.1834  0.3673  0.2470
  656MOL0     O88460  11.357   4.632  -0.082  0.1604  0.1267  0.0376
  656MOL0     C88461  11.332   4.660  -0.218 -0.2658  1.1808 -0.8214
  656MOL0     C88462  11.427   4.758  -0.262  0.4247  0.1089  0.9372
  656MOL0     C88463  11.406   4.787  -0.412 -0.0727  0.4187 -0.5752
  656MOL0     C88464  11.340   4.928  -0.428 -0.3146  0.5841 -0.1174
  656MOL0     C88465  11.457   5.036  -0.428  0.9658  0.2915  0.6775
  656MOL0     C88466  11.536   5.064  -0.553  0.2783  0.4708  0.3621
  656MOL0     C88467  11.634   5.180  -0.517  0.0863  0.2339 -0.0594
  656MOL0     C88468  11.698   5.236  -0.648 -0.1134 -0.1721 -0.5429
  656MOL0    Cl88469  11.874   5.281  -0.635 -0.6499 -0.0070 -0.4531
  656MOL0     C88470  11.226   4.783   0.064  0.2181  0.1051  0.0962
  656MOL0     C88471  11.130   4.787   0.162  0.2393  0.3927 -0.2680
  656MOL0     O88472  11.056   4.537   0.436  0.1435  0.2421  0.3455
  656MOL0     C88473  10.720   4.650   0.459  0.9571  0.3099  0.0573
  656MOL0     C88474  10.607   4.637   0.537  0.8823 -0.4872 -0.6499
  656MOL0     N88475  10.221   4.196   1.020 -0.1845 -0.0145  0.0271
  656MOL0     N88476  10.248   4.071   1.032  0.3511  0.5444 -0.7380
  656MOL0     C88477  10.106   2.931   1.357  0.2172  0.3705  0.9233
  656MOL0     C88478  10.036   2.838   1.425  0.4302  0.3758 -0.3606
  656MOL0     C88479   9.795   2.594   1.727 -0.7686  0.3265 -0.3566
  656MOL0     C88480   9.816   2.455   1.739  0.0544 -0.1633 -0.4116
  656MOL0     C88481   9.740   2.381   1.838 -0.4341  0.1850  0.8706
  656MOL0     C88482   9.661   2.448   1.932  0.5604 -0.3486  0.4771
  656MOL0     O88483   9.589   2.371   2.020 -0.1030 -0.6484 -0.1668
  656MOL0     C88484   9.502   2.423   2.112 -0.8166 -0.1409  0.1799
  656MOL0     C88485   9.446   2.316   2.208  0.0572 -0.0257  0.1362
  656MOL0     C88486   9.391   2.374   2.340  0.6730 -0.4537  0.1445
  656MOL0     C88487   9.321   2.267   2.438  0.0796  0.1097  1.2661
  656MOL0     C88488   9.176   2.232   2.407  0.4176  0.2957 -0.5464
  656MOL0     C88489   9.059   2.227   2.377  0.5318  0.6540  0.2982
  656MOL0     C88490   9.634   2.582   1.915 -0.3651 -0.7359 -0.5517
  656MOL0     C88491   9.696   2.654   1.816  0.0999  0.9378  0.9129
  656MOL0     C88492   9.658   2.792   1.793  0.6463 -0.3969 -0.3160
  656MOL0     H88493   9.789   3.033   1.554  1.7676  2.0416  0.8067
  656MOL0     H88494   9.913   3.200   1.421 -1.1540 -0.4554  1.1022
  656MOL0     H88495  10.306   3.052   1.219  1.8038  0.7484 -0.6530
  656MOL0     H88496  10.268   3.227   1.178 -1.6664  3.7764  3.6858
  656MOL0     H88497  10.441   3.209   1.348 -0.1137  0.4652 -0.8860
  656MOL0     H88498  10.312   3.152   1.460 -0.6100 -2.3809 -1.9957
  656MOL0     H88499  10.305   3.389   1.509 -1.8535 -1.2536  0.8591
  656MOL0     H88500  10.169   3.363   1.397 -0.1670  0.9908  2.9159
  656MOL0     H88501  10.457   3.453   1.310  0.2241 -1.8992  2.8931
  656MOL0     H88502  10.323   3.444   1.204  0.5515  0.7804 -0.4049
  656MOL0     H88503  10.196   3.624   1.322 -1.0247 -1.8511 -1.6196
  656MOL0     H88504  10.327   3.624   1.450 -0.0942 -1.0673  0.0089
  656MOL0     H88505  10.476   3.669   1.250  0.2664  0.2552  0.7253
  656MOL0     H88506  10.324   3.683   1.150 -4.4206  2.1213  1.0239
  656MOL0     H88507  10.419   3.887   1.359  0.3340 -1.0386 -0.1976
  656MOL0     H88508  10.262   3.883   1.285  0.1128  0.1417  0.1566
  656MOL0     H88509  10.528   3.960   1.172  0.7689 -1.5134 -0.1182
  656MOL0     H88510  10.417   3.883   1.049 -0.9329  3.3453 -2.1706
  656MOL0     H88511  10.493   4.208   1.202 -0.8902  2.8135 -1.0649
  656MOL0     H88512  10.240   4.479   1.126 -0.3567 -0.4057  0.2192
  656MOL0     H88513  10.414   4.446   1.150  0.1335  0.6475 -0.1325
  656MOL0     H88514  10.446   4.393   0.919  1.2076  0.8676  1.8283
  656MOL0     H88515  10.273   4.434   0.870  0.4265  1.2080 -2.0152
  656MOL0     H88516  10.477   4.626   0.992  1.5294  1.1079 -1.7935
  656MOL0     H88517  10.303   4.662   0.961 -2.1096 -1.3174 -2.1599
  656MOL0     H88518  10.453   4.711   0.752 -0.4326  0.4545 -1.4844
  656MOL0     H88519  10.329   4.582   0.716 -0.8172 -1.0046  2.1365
  656MOL0     H88520  10.751   4.460   0.800  1.3421 -0.7881  0.3780
  656MOL0     H88521  10.959   4.508   0.665  0.2330  1.1086  0.7504
  656MOL0     H88522  11.010   4.465   0.139  0.5031 -0.4341 -0.0414
  656MOL0     H88523  11.198   4.451   0.001  0.5621 -0.3214  1.2956
  656MOL0     H88524  11.337   4.568  -0.276 -3.1184 -0.5816  1.4834
  656MOL0     H88525  11.234   4.703  -0.239 -0.6269 -0.2888 -2.3669
  656MOL0     H88526  11.410   4.852  -0.208 -0.3679 -0.3491  1.5065
  656MOL0     H88527  11.530   4.729  -0.240  0.4544 -2.7117 -2.1198
  656MOL0     H88528  11.499   4.774  -0.468 -0.1606  0.7593 -0.8068
  656MOL0     H88529  11.336   4.718  -0.460 -0.3144  0.2744 -0.0230
  656MOL0     H88530  11.265   4.949  -0.350 -1.8607  1.3756 -1.7415
  656MOL0     H88531  11.288   4.917  -0.523 -0.2700 -1.5702  0.0582
  656MOL0     H88532  11.525   5.014  -0.346  0.9939 -2.6145 -0.0102
  656MOL0     H88533  11.407   5.133  -0.414 -0.1228  0.1087 -1.4909
  656MOL0     H88534  11.594   4.973  -0.576 -0.6830 -0.0977  0.1342
  656MOL0     H88535  11.475   5.084  -0.641 -0.1029 -2.2350 -0.0701
  656MOL0     H88536  11.710   5.128  -0.458  0.5839 -2.6356 -2.9614
  656MOL0     H88537  11.597   5.264  -0.458  0.5456 -0.8462  1.8509
  656MOL0     H88538  11.691   5.157  -0.722 -2.8734 -0.9014  0.3962
  656MOL0     H88539  11.658   5.326  -0.695  1.7237  2.1348  1.9175
  656MOL0     H88540  11.282   4.871   0.033 -0.3198  0.4325  0.0465
  656MOL0     H88541  11.116   4.873   0.227 -0.1157 -2.2205  3.4407
  656MOL0     H88542  10.698   4.673   0.355  0.9981 -1.6711 -0.4168
  656MOL0     H88543  10.519   4.677   0.489  0.8550  0.4271  0.1249
  656MOL0     H88544  10.180   2.887   1.292 -1.7355  2.0790 -2.7637
  656MOL0     H88545  10.050   2.731   1.414 -0.3358  0.3529 -1.2178
  656MOL0     H88546   9.880   2.400   1.671  1.3728 -0.3258  0.9174
  656MOL0     H88547   9.754   2.275   1.859  2.6121 -0.4458 -3.1682
  656MOL0     H88548   9.413   2.461   2.061 -1.2032 -0.4061  0.6399
  656MOL0     H88549   9.556   2.503   2.163 -0.5494 -0.0851 -0.1899
  656MOL0     H88550   9.522   2.240   2.224  0.7111 -0.1846 -3.0298
  656MOL0     H88551   9.365   2.265   2.155 -0.0692 -0.3382  0.6211
  656MOL0     H88552   9.328   2.458   2.310  2.4151  1.5566  1.7521
  656MOL0     H88553   9.474   2.421   2.395  0.4389  0.0995  0.0309
  656MOL0     H88554   9.382   2.177   2.451  0.7722  0.5268  0.8943
  656MOL0     H88555   9.318   2.320   2.534 -2.3956  4.2230 -0.8099
  656MOL0     H88556   8.953   2.214   2.366  1.0479 -2.1693 -3.1908
  656MOL0     H88557   9.552   2.628   1.969 -0.8140 -2.6849  0.5196
  656MOL0     H88558   9.742   2.860   1.809  0.2226  0.0967 -0.1404
  656MOL0     H88559   9.634   2.817   1.689  1.3473  2.3623  0.1154
  656MOL0     H88560   9.574   2.823   1.857  1.3220 -1.3344  1.0621
  657MOL0     O88561   0.756   8.629   6.872  0.4639  0.1594 -0.3636
  657MOL0     C88562   0.828   8.729   6.873 -0.5343  0.1129 -0.1484
  657MOL0     O88563   0.907   8.776   6.979  1.3658  0.1219  0.7035
  657MOL0     C88564   0.880   8.725   7.104  0.5249  0.1376 -0.4758
  657MOL0     C88565   0.828   8.808   7.206  0.4148  0.0309 -0.0088
  657MOL0     C88566   0.807   8.752   7.337 -1.0037  0.2462 -0.3430
  657MOL0     C88567   0.849   8.624   7.366 -0.4021 -0.8432 -0.1537
  657MOL0     O88568   0.859   8.570   7.491  0.5022  0.5306  0.1753
  657MOL0     C88569   0.801   8.639   7.605 -0.5489  0.2164  0.2065
  657MOL0     C88570   0.817   8.542   7.718  0.4490 -0.3001  0.6699
  657MOL0     C88571   0.761   8.603   7.847 -0.6296  0.5532 -0.4256
  657MOL0     C88572   0.810   8.504   7.957 -0.1398  0.5225 -0.0222
  657MOL0     C88573   0.807   8.581   8.091  0.5297 -0.4157 -0.5759
  657MOL0     C88574   0.868   8.501   8.207 -0.1241 -0.4516  0.0907
  657MOL0     C88575   0.861   8.591   8.327 -0.1010 -0.5558 -0.5969
  657MOL0     C88576   0.924   8.524   8.447  0.7100  1.0252  0.8018
  657MOL0     N88577   0.965   8.620   8.553  0.7329  0.3136  0.1023
  657MOL0     C88578   0.936   8.619   8.684  0.9327  0.7860 -0.7614
  657MOL0     C88579   1.006   8.720   8.744  0.4055  0.6505 -0.0979
  657MOL0     C88580   0.982   8.778   8.880 -0.4484 -1.0244  0.2291
  657MOL0     C88581   1.087   8.739   8.989  0.4827 -0.3428 -0.4026
  657MOL0     C88582   1.232   8.797   8.981 -0.1338  0.2872 -0.2218
  657MOL0     C88583   1.229   8.952   8.998 -0.2408 -0.1188 -0.5151
  657MOL0     O88584   1.215   8.986   9.138 -0.0493 -0.4153  0.2019
  657MOL0     C88585   1.109   9.068   9.177  0.6498 -0.2951  0.4279
  657MOL0     C88586   0.975   9.060   9.139 -0.8213  0.0879  0.5135
  657MOL0     C88587   0.879   9.145   9.188  0.4791 -0.0162  0.4278
  657MOL0     C88588   0.917   9.232   9.293 -0.6227 -1.1456  0.1349
  657MOL0     C88589   0.813   9.324   9.358  0.2689 -0.1209  0.6463
  657MOL0     O88590   0.839   9.373   9.488  0.0553  0.8507 -0.3927
  657MOL0     C88591   0.809   9.510   9.515 -0.4345  0.4159  0.0325
  657MOL0     C88592   0.802   9.559   9.641 -0.0568 -0.5661  0.2280
  657MOL0     C88593   0.744   9.688   9.672  0.3171 -0.7026  0.2964
  657MOL0     C88594   0.696   9.774   9.572  0.0284  0.3164  0.5098
  657MOL0     O88595   0.636   9.887   9.613  0.1281  0.4751 -0.0053
  657MOL0     C88596   0.508   9.909   9.550  0.3145 -0.0708 -0.6968
  657MOL0     C88597   0.434  10.010   9.634 -0.1072  1.2641 -0.5009
  657MOL0     C88598   0.328  10.092   9.552 -0.7408 -0.8000  0.0479
  657MOL0     C88599   0.255  10.191   9.651  0.9245  0.3337  0.4570
  657MOL0     C88600   0.182  10.130   9.777 -0.5856  0.4211  0.1432
  657MOL0     C88601   0.076  10.023   9.746 -0.7067 -0.1766 -0.1605
  657MOL0     C88602  -0.002   9.963   9.863  0.3703 -0.4127  0.0494
  657MOL0     C88603  -0.134   9.897   9.828 -0.1422 -0.9899  0.1870
  657MOL0    Cl88604  -0.228   9.868   9.976 -0.2586  0.0288  0.1576
  657MOL0     C88605   0.713   9.720   9.443  0.3738 -0.4226  0.3331
  657MOL0     C88606   0.774   9.597   9.414 -0.2168 -1.4120 -0.1364
  657MOL0     O88607   0.711   9.338   9.290 -0.2206 -0.5646  0.2370
  657MOL0     C88608   1.053   9.241   9.336  0.0194 -0.4255 -1.4598
  657MOL0     C88609   1.145   9.176   9.263  0.1238 -0.2891 -0.3305
  657MOL0     N88610   1.094   8.771   8.645  0.3969  0.4445  0.0069
  657MOL0     N88611   1.063   8.713   8.528  0.2780 -0.1070 -0.0758
  657MOL0     C88612   0.881   8.539   7.258 -0.4219  0.1752 -1.0437
  657MOL0     C88613   0.889   8.588   7.133 -0.1923 -0.6866  1.0045
  657MOL0     C88614   0.842   8.798   6.739 -0.0103 -0.5437  0.0696
  657MOL0     C88615   0.923   8.913   6.728 -0.8829  0.9104 -0.8139
  657MOL0     C88616   0.947   8.990   6.609 -0.0512  0.4169  0.2599
  657MOL0     C88617   0.887   8.950   6.483  0.2172 -0.5038 -0.8114
  657MOL0     O88618   0.889   9.015   6.362 -0.0011 -0.3302 -0.4234
  657MOL0     C88619   1.015   9.079   6.322  0.4237  0.3882 -0.5901
  657MOL0     C88620   1.000   9.154   6.187 -0.2935 -0.0994 -0.4516
  657MOL0     C88621   0.989   9.054   6.063  0.7469 -1.0565  0.5277
  657MOL0     C88622   1.131   9.021   6.014  0.0924  0.7209 -0.0871
  657MOL0     C88623   1.148   9.078   5.882 -0.4440  0.3063  0.6612
  657MOL0     C88624   1.160   9.115   5.767 -0.0752  0.9707 -0.5997
  657MOL0     C88625   0.804   8.836   6.493 -0.1965 -0.3381 -0.1050
  657MOL0     C88626   0.781   8.761   6.620 -0.6625  0.5866  0.0750
  657MOL0     C88627   0.701   8.633   6.599  0.3679  0.1992  0.5003
  657MOL0     H88628   0.797   8.911   7.191  1.2540  0.0474 -1.8387
  657MOL0     H88629   0.775   8.815   7.419 -3.9825 -0.5102 -0.7962
  657MOL0     H88630   0.862   8.728   7.628  2.5237 -1.0467 -2.2921
  657MOL0     H88631   0.697   8.669   7.588 -1.4502 -2.7898 -0.0842
  657MOL0     H88632   0.921   8.510   7.719  0.8440  0.4888 -2.4045
  657MOL0     H88633   0.769   8.448   7.688 -1.8610  1.6776 -2.5254
  657MOL0     H88634   0.652   8.611   7.850 -0.7955 -1.3333  1.5512
  657MOL0     H88635   0.796   8.703   7.874 -0.5318 -0.0862  2.0884
  657MOL0     H88636   0.755   8.410   7.968  1.0891 -0.1436  0.7220
  657MOL0     H88637   0.912   8.467   7.941  0.7139  1.1496  3.1487
  657MOL0     H88638   0.873   8.666   8.070 -0.2184 -0.2147 -2.2146
  657MOL0     H88639   0.709   8.626   8.111  1.9700  1.4575  3.4243
  657MOL0     H88640   0.813   8.413   8.243  0.9331 -1.3769 -0.5018
  657MOL0     H88641   0.967   8.462   8.183  1.9929  1.1318  5.0339
  657MOL0     H88642   0.757   8.604   8.356  0.5996  0.8886  1.4841
  657MOL0     H88643   0.915   8.685   8.312  2.6768 -1.9041  0.1143
  657MOL0     H88644   0.848   8.451   8.478  0.3013  1.6798  1.3893
  657MOL0     H88645   1.008   8.470   8.404 -1.2442 -1.7590  0.2062
  657MOL0     H88646   0.858   8.561   8.732  3.3091 -0.0774  2.3192
  657MOL0     H88647   0.990   8.887   8.867  1.2776 -1.4339 -3.3680
  657MOL0     H88648   0.885   8.742   8.915  0.6249 -3.6672  0.6636
  657MOL0     H88649   1.054   8.777   9.086  1.9184  0.4220 -0.1963
  657MOL0     H88650   1.092   8.630   8.992 -3.5962 -0.6769  1.1204
  657MOL0     H88651   1.289   8.755   8.897  1.2662 -0.9884  1.2823
  657MOL0     H88652   1.284   8.756   9.068  0.9805  1.8215 -0.1194
  657MOL0     H88653   1.154   8.989   8.927 -0.3450  0.2931 -0.1954
  657MOL0     H88654   1.322   8.993   8.958 -1.6594  2.9601 -1.0082
  657MOL0     H88655   0.960   8.990   9.058 -0.6884  0.2377  0.3593
  657MOL0     H88656   0.780   9.133   9.146 -0.2305  1.2221  1.6579
  657MOL0     H88657   0.833   9.504   9.730 -0.7478 -0.1938  0.7090
  657MOL0     H88658   0.739   9.725   9.774 -1.0182 -0.0629  0.0122
  657MOL0     H88659   0.517   9.940   9.445 -0.2063 -1.6212 -1.2291
  657MOL0     H88660   0.457   9.813   9.543 -1.4735  0.9456 -3.5690
  657MOL0     H88661   0.401   9.949   9.718  1.4831 -0.2178 -0.8817
  657MOL0     H88662   0.504  10.079   9.682  0.3516 -0.2212  1.0724
  657MOL0     H88663   0.388  10.146   9.478  1.6484 -0.0759  2.3833
  657MOL0     H88664   0.248  10.031   9.509 -1.2160  0.5626 -1.0788
  657MOL0     H88665   0.175  10.231   9.589  1.1481  1.8020  1.0753
  657MOL0     H88666   0.336  10.259   9.677  0.8900  1.0581 -1.2224
  657MOL0     H88667   0.122  10.207   9.825 -0.0320  3.4578 -3.6002
  657MOL0     H88668   0.259  10.098   9.848  2.1690  3.0832 -1.3818
  657MOL0     H88669   0.002  10.064   9.677 -0.2864  1.4102  0.3026
  657MOL0     H88670   0.116   9.935   9.695 -2.1417  0.5641 -2.7553
  657MOL0     H88671  -0.018  10.044   9.934  2.8491 -0.9598  1.3308
  657MOL0     H88672   0.057   9.885   9.912 -1.1737 -2.8955 -1.7760
  657MOL0     H88673  -0.211   9.958   9.778 -2.2953 -2.5498  1.4214
  657MOL0     H88674  -0.121   9.814   9.758 -0.9829  0.3043 -1.5843
  657MOL0     H88675   0.692   9.779   9.354  2.0776 -0.6650 -0.2689
  657MOL0     H88676   0.780   9.581   9.307  0.6939  0.1905 -0.3581
  657MOL0     H88677   1.087   9.307   9.414 -1.3143 -1.3698 -0.0212
  657MOL0     H88678   1.252   9.190   9.278  0.0392 -1.1239  1.3853
  657MOL0     H88679   0.912   8.437   7.275 -0.7059 -0.2038 -2.6096
  657MOL0     H88680   0.915   8.517   7.056  2.5283  0.0870  1.1148
  657MOL0     H88681   0.963   8.945   6.823  0.4494  0.6455 -1.2656
  657MOL0     H88682   1.004   9.082   6.616  0.5357  0.2883 -1.9955
  657MOL0     H88683   1.094   9.004   6.312 -0.7446 -0.9651 -0.1326
  657MOL0     H88684   1.043   9.159   6.390 -1.2484  1.5666 -1.1991
  657MOL0     H88685   1.091   9.214   6.179  1.0103 -1.4099  2.8197
  657MOL0     H88686   0.910   9.216   6.187  0.1503  0.5523 -0.0357
  657MOL0     H88687   0.917   9.084   5.986 -0.7039 -1.3751  1.7091
  657MOL0     H88688   0.944   8.961   6.099 -0.8495 -0.7065 -0.4403
  657MOL0     H88689   1.209   9.062   6.079  0.5479  0.2562 -0.3253
  657MOL0     H88690   1.147   8.913   6.005  1.9805  0.7260  2.1801
  657MOL0     H88691   1.182   9.133   5.664  0.8963 -1.1477 -0.8120
  657MOL0     H88692   0.752   8.805   6.403  1.7289  0.1604 -1.4565
  657MOL0     H88693   0.619   8.630   6.670  0.7790 -0.8542  0.9478
  657MOL0     H88694   0.655   8.650   6.501 -2.2417  0.4772  1.6892
  657MOL0     H88695   0.759   8.541   6.607 -1.1477 -0.7002  1.5682
  658MOL0     O88696   9.343   9.577  11.220 -0.4637  0.0850  0.3659
  658MOL0     C88697   9.239   9.551  11.280  0.0667  0.1657 -0.7511
  658MOL0     O88698   9.226   9.538  11.415 -1.0155  0.5287  0.1936
  658MOL0     C88699   9.325   9.579  11.506 -0.2013  0.7996  0.6409
  658MOL0     C88700   9.268   9.653  11.607  0.1647 -0.2773 -0.4642
  658MOL0     C88701   9.345   9.678  11.719  1.3832  0.6364 -0.0598
  658MOL0     C88702   9.467   9.619  11.737  0.6953  0.1824 -0.3155
  658MOL0     O88703   9.524   9.659  11.856  0.3391 -0.1158 -0.2123
  658MOL0     C88704   9.633   9.577  11.905  0.5256 -0.9106 -0.1327
  658MOL0     C88705   9.662   9.604  12.052 -1.0813  0.7945  0.2410
  658MOL0     C88706   9.803   9.543  12.089  0.8990 -0.0454  0.0994
  658MOL0     C88707   9.797   9.427  12.194  1.0864  0.1449 -0.4271
  658MOL0     C88708   9.773   9.287  12.134  0.2461  0.3581  0.1098
  658MOL0     C88709   9.730   9.192  12.249  0.1793  1.1021  0.1061
  658MOL0     C88710   9.700   9.037  12.219 -0.5321 -1.4881  0.2864
  658MOL0     C88711   9.645   8.956  12.342 -0.1838 -0.7511  0.2333
  658MOL0     N88712   9.743   8.959  12.459 -0.5412  0.0943  0.4870
  658MOL0     C88713   9.883   8.955  12.449  0.3290 -0.6437  0.1346
  658MOL0     C88714   9.928   8.987  12.574  1.6345 -0.2770 -0.5094
  658MOL0     C88715  10.074   9.011  12.601  0.0698  0.4386  0.2854
  658MOL0     C88716  10.112   9.167  12.603  0.1522 -1.0252 -0.3400
  658MOL0     C88717  10.028   9.247  12.711  0.5281  0.1073  1.0843
  658MOL0     C88718  10.083   9.385  12.732 -0.1242 -0.6675 -0.1036
  658MOL0     O88719  10.224   9.380  12.772  0.3894 -0.1973 -0.2659
  658MOL0     C88720  10.247   9.355  12.903 -0.6428 -0.1212 -0.5885
  658MOL0     C88721  10.382   9.358  12.938  0.0088 -0.2577  0.4362
  658MOL0     C88722  10.432   9.325  13.068 -0.0108  0.8965 -0.8489
  658MOL0     C88723  10.341   9.292  13.174 -0.0003 -0.0462 -0.4402
  658MOL0     C88724  10.384   9.280  13.315  0.2831 -0.1213 -0.1960
  658MOL0     O88725  10.528   9.290  13.322  0.3784  0.1899 -0.0568
  658MOL0     C88726  10.607   9.238  13.422  0.0794  0.8097 -0.5394
  658MOL0     C88727  10.746   9.256  13.405  0.3096 -0.1494 -0.1090
  658MOL0     C88728  10.844   9.231  13.506 -0.4447  0.2329  0.4358
  658MOL0     C88729  10.805   9.189  13.634 -0.8102 -0.7214  0.1774
  658MOL0     O88730  10.892   9.163  13.729  0.1302 -0.2664  0.0349
  658MOL0     C88731  11.017   9.253  13.735  0.4166  0.5815  0.4199
  658MOL0     C88732  11.091   9.199  13.860  0.5806 -0.3835 -0.8373
  658MOL0     C88733  11.213   9.285  13.913  1.2323  0.0924  0.4403
  658MOL0     C88734  11.274   9.233  14.048 -0.7425  1.1906  0.1291
  658MOL0     C88735  11.435   9.247  14.058  0.5008  0.7318  0.9213
  658MOL0     C88736  11.470   9.395  14.062  0.7281 -1.0946 -0.5762
  658MOL0     C88737  11.631   9.402  14.046  1.0715  0.7973 -0.3034
  658MOL0     C88738  11.683   9.550  14.062  1.1990  0.5175 -0.3201
  658MOL0    Cl88739  11.647   9.656  13.926  0.0326 -0.1256  0.2404
  658MOL0     C88740  10.669   9.166  13.644 -0.1163  0.1102 -1.3429
  658MOL0     C88741  10.574   9.188  13.544 -0.3830 -0.5042  0.0791
  658MOL0     O88742  10.303   9.283  13.409 -0.8407  0.2379  0.6721
  658MOL0     C88743  10.207   9.303  13.142 -0.3200 -0.0568 -0.3693
  658MOL0     C88744  10.160   9.326  13.008 -0.1927 -0.4054 -0.6170
  658MOL0     N88745   9.820   9.004  12.651 -0.5921  0.1028 -0.2801
  658MOL0     N88746   9.710   8.994  12.584 -0.1633 -0.2668  0.0215
  658MOL0     C88747   9.512   9.535  11.647 -0.9943  0.3093  0.2401
  658MOL0     C88748   9.450   9.521  11.525  0.5814  0.5052 -0.5179
  658MOL0     C88749   9.128   9.522  11.196  0.6578  0.6981  0.9978
  658MOL0     C88750   8.996   9.542  11.248  1.2801 -0.5253  0.1338
  658MOL0     C88751   8.875   9.520  11.177  0.4652 -0.4283 -0.2888
  658MOL0     C88752   8.879   9.474  11.049 -1.1038 -0.3569  0.0605
  658MOL0     O88753   8.757   9.437  10.997 -0.6271 -0.1077  0.5918
  658MOL0     C88754   8.762   9.338  10.895  0.4219 -0.5765 -0.0226
  658MOL0     C88755   8.615   9.338  10.844  0.1460 -0.2251 -0.0324
  658MOL0     C88756   8.587   9.468  10.767  0.0997 -0.9394 -0.5004
  658MOL0     C88757   8.654   9.475  10.627  1.0087 -0.1355 -0.0106
  658MOL0     C88758   8.592   9.373  10.529 -0.2033  0.7038 -0.1704
  658MOL0     C88759   8.531   9.289  10.461 -0.0876 -1.1773  0.5820
  658MOL0     C88760   9.007   9.459  10.994  0.5794 -0.3763  0.4792
  658MOL0     C88761   9.126   9.489  11.056  0.8479  0.6641 -0.4177
  658MOL0     C88762   9.256   9.487  10.972  0.4432 -0.4833  0.5754
  658MOL0     H88763   9.165   9.685  11.601  0.0900  0.1520  2.0231
  658MOL0     H88764   9.299   9.737  11.798  0.1852 -1.9817  1.3172
  658MOL0     H88765   9.614   9.470  11.890  2.1839 -1.0200 -1.7469
  658MOL0     H88766   9.721   9.602  11.846 -0.0895 -1.7892 -1.4582
  658MOL0     H88767   9.579   9.583  12.119 -0.0891  3.2341  2.3784
  658MOL0     H88768   9.682   9.711  12.064  0.1256  0.7869 -1.3223
  658MOL0     H88769   9.870   9.621  12.126  1.0034  0.8013 -1.7717
  658MOL0     H88770   9.854   9.489  12.009 -1.4315 -1.2538 -0.6432
  658MOL0     H88771   9.900   9.416  12.229  0.4698 -0.4512  1.2941
  658MOL0     H88772   9.738   9.450  12.283  1.0513  0.4115 -0.5199
  658MOL0     H88773   9.696   9.287  12.057 -1.7804  0.2686  2.0393
  658MOL0     H88774   9.866   9.248  12.091  1.0061  1.6563  0.5475
  658MOL0     H88775   9.817   9.196  12.316  1.2514 -1.2153 -1.0391
  658MOL0     H88776   9.638   9.238  12.285  0.1010  1.4567 -0.5327
  658MOL0     H88777   9.793   8.992  12.184 -0.2750 -1.3712  0.8047
  658MOL0     H88778   9.630   9.033  12.135  0.2257 -0.9355 -0.3900
  658MOL0     H88779   9.549   8.994  12.379 -0.2762 -0.0824 -0.6541
  658MOL0     H88780   9.633   8.853  12.309  2.3246 -0.5638 -1.5565
  658MOL0     H88781   9.940   8.937  12.358  1.0897 -4.6020  1.1769
  658MOL0     H88782  10.098   8.970  12.699  0.3140  0.6656  0.3217
  658MOL0     H88783  10.134   8.962  12.523  0.0981 -0.5747  0.9340
  658MOL0     H88784  10.217   9.174  12.635 -0.2738 -0.1705  0.9903
  658MOL0     H88785  10.100   9.198  12.499  1.9734 -2.3539 -0.9882
  658MOL0     H88786  10.015   9.179  12.796  0.7223 -1.8917 -0.4128
  658MOL0     H88787   9.929   9.265  12.668  0.9518  1.1635  0.5078
  658MOL0     H88788  10.027   9.442  12.806 -0.9495  0.4578 -1.5348
  658MOL0     H88789  10.072   9.437  12.636  0.7957  0.6664  0.4818
  658MOL0     H88790  10.462   9.365  12.864  0.6285 -1.1293  1.0085
  658MOL0     H88791  10.539   9.314  13.081  0.2430 -0.5229 -3.4020
  658MOL0     H88792  10.787   9.306  13.317  0.2881 -0.6562 -0.4095
  658MOL0     H88793  10.944   9.267  13.484  1.3483 -2.2727  3.6747
  658MOL0     H88794  11.086   9.245  13.651  1.5967 -2.9227  1.5337
  658MOL0     H88795  10.992   9.358  13.751  0.9127  0.6896  0.4893
  658MOL0     H88796  11.017   9.181  13.939  2.6373 -2.3315  0.7785
  658MOL0     H88797  11.137   9.104  13.833  1.2928 -0.5298  0.7730
  658MOL0     H88798  11.286   9.297  13.833 -0.3432  1.8500 -0.8344
  658MOL0     H88799  11.181   9.390  13.925  1.7466  0.5781 -1.8917
  658MOL0     H88800  11.267   9.125  14.059  2.0589  1.1067  2.1476
  658MOL0     H88801  11.225   9.282  14.133  1.5175  3.0224  0.4866
  658MOL0     H88802  11.473   9.206  13.963 -4.5890 -2.2390 -0.2066
  658MOL0     H88803  11.464   9.192  14.148  2.3442  0.6525  0.3181
  658MOL0     H88804  11.428   9.448  13.976  1.7667  0.4492 -0.1836
  658MOL0     H88805  11.434   9.430  14.159  4.0686  3.0863 -0.5496
  658MOL0     H88806  11.665   9.362  13.950  3.0002 -0.4487  0.8273
  658MOL0     H88807  11.672   9.332  14.119 -2.2729  0.4914  1.5183
  658MOL0     H88808  11.635   9.585  14.154  1.3208 -1.3106  0.4859
  658MOL0     H88809  11.789   9.528  14.079  0.8798 -2.1752 -1.2834
  658MOL0     H88810  10.633   9.134  13.741 -3.8002  1.1760 -2.2098
  658MOL0     H88811  10.470   9.170  13.566 -0.4266  0.0990  0.3604
  658MOL0     H88812  10.137   9.299  13.225  0.7529  1.1189  0.6180
  658MOL0     H88813  10.052   9.314  13.000 -0.1471 -0.6330 -0.9334
  658MOL0     H88814   9.592   9.465  11.667 -4.6366 -3.3469  4.1654
  658MOL0     H88815   9.493   9.459  11.448 -1.2244 -2.2803  0.5522
  658MOL0     H88816   8.981   9.590  11.344  0.4794  2.9251 -1.5376
  658MOL0     H88817   8.779   9.532  11.226 -0.0036  2.5722 -1.7399
  658MOL0     H88818   8.786   9.240  10.938 -0.9839 -2.0130 -2.3022
  658MOL0     H88819   8.830   9.369  10.815  1.0760  1.4313  1.2389
  658MOL0     H88820   8.538   9.311  10.917 -0.1009  0.0374 -0.1975
  658MOL0     H88821   8.610   9.257  10.770 -2.4137  1.3952 -1.7709
  658MOL0     H88822   8.608   9.556  10.828 -0.2490 -1.6875  0.7285
  658MOL0     H88823   8.479   9.467  10.755  0.1331 -0.7273 -0.8185
  658MOL0     H88824   8.638   9.573  10.582  0.0774 -1.3859 -2.6612
  658MOL0     H88825   8.759   9.449  10.643  0.8880 -1.4243 -1.1483
  658MOL0     H88826   8.474   9.231  10.391  0.2963 -0.5522 -0.2696
  658MOL0     H88827   9.009   9.435  10.888  0.2224 -0.7808  0.5591
  658MOL0     H88828   9.276   9.585  10.927 -3.8220 -0.6184 -2.1318
  658MOL0     H88829   9.337   9.449  11.035  1.0405  3.1803  2.2872
  658MOL0     H88830   9.246   9.420  10.886 -0.2174 -0.1037  0.3519
  659MOL0     O88831   1.327   5.249   7.673  0.6780 -0.1018 -0.4938
  659MOL0     C88832   1.299   5.167   7.760  0.1823 -0.1125 -1.0140
  659MOL0     O88833   1.248   5.042   7.742 -0.5238  0.2280 -0.7578
  659MOL0     C88834   1.260   4.976   7.623  1.2688  1.1831 -0.6939
  659MOL0     C88835   1.143   4.907   7.579  0.2728 -0.2159 -0.2867
  659MOL0     C88836   1.123   4.867   7.451 -0.0209  0.0631  0.1390
  659MOL0     C88837   1.234   4.873   7.362 -0.1357  0.8868 -0.0782
  659MOL0     O88838   1.234   4.839   7.227 -0.2872  0.1602 -0.1667
  659MOL0     C88839   1.158   4.713   7.196  0.1316  0.3139  0.3836
  659MOL0     C88840   1.217   4.641   7.074 -0.3324  0.4153 -0.1003
  659MOL0     C88841   1.136   4.513   7.044  0.4747 -0.2925 -0.0697
  659MOL0     C88842   1.126   4.471   6.907  0.0230  0.6145  0.3039
  659MOL0     C88843   1.015   4.365   6.887 -0.4178  0.6417  0.5380
  659MOL0     C88844   1.026   4.229   6.957  0.6177  0.6527 -0.6970
  659MOL0     C88845   1.164   4.166   6.930  0.1196 -0.0889 -1.0525
  659MOL0     C88846   1.179   4.021   6.991  0.2087 -0.1461  0.4165
  659MOL0     N88847   1.296   3.948   6.940 -1.0198  0.3882  0.7325
  659MOL0     C88848   1.311   3.819   6.966  0.6281  0.0634  0.1360
  659MOL0     C88849   1.444   3.796   6.946  0.0893  0.5598 -0.6087
  659MOL0     C88850   1.527   3.671   6.953 -0.2224 -0.9085  0.3411
  659MOL0     C88851   1.543   3.627   7.100 -0.6498  0.0716  0.3687
  659MOL0     C88852   1.638   3.507   7.116 -1.2144  0.6234 -1.2472
  659MOL0     C88853   1.788   3.564   7.116 -0.7826 -0.4516 -1.1772
  659MOL0     O88854   1.892   3.477   7.064  0.6330 -0.0378 -0.1472
  659MOL0     C88855   2.025   3.493   7.084  0.3377  0.7765  0.4530
  659MOL0     C88856   2.118   3.383   7.076 -0.0921  0.0269 -0.1788
  659MOL0     C88857   2.253   3.409   7.096 -0.0438 -0.4080 -0.4990
  659MOL0     C88858   2.303   3.539   7.131 -0.6880  0.3206  0.5246
  659MOL0     C88859   2.446   3.565   7.137 -0.9315 -1.0355 -1.2775
  659MOL0     O88860   2.529   3.463   7.103  0.0046 -0.1774 -0.1786
  659MOL0     C88861   2.663   3.482   7.104  0.4341  0.4658  0.2950
  659MOL0     C88862   2.743   3.414   7.190 -0.0474 -0.9887  0.3775
  659MOL0     C88863   2.882   3.443   7.202 -0.3572  0.5769  0.3074
  659MOL0     C88864   2.932   3.532   7.108 -0.0237  0.8379  0.4181
  659MOL0     O88865   3.066   3.567   7.118 -0.1209  0.2331 -0.7451
  659MOL0     C88866   3.142   3.579   7.000 -0.5717 -0.5393  0.2832
  659MOL0     C88867   3.266   3.488   7.009 -0.0483  0.8488 -0.4059
  659MOL0     C88868   3.219   3.342   7.019 -0.2342  1.1682 -0.4337
  659MOL0     C88869   3.334   3.249   6.972  1.0629 -0.7181  0.2253
  659MOL0     C88870   3.348   3.247   6.819  0.2758 -0.0666 -1.0813
  659MOL0     C88871   3.475   3.171   6.773 -0.4229  0.2534 -0.1753
  659MOL0     C88872   3.449   3.020   6.760  0.3033  0.6275 -0.3175
  659MOL0     C88873   3.571   2.943   6.796 -0.2881 -1.1798  0.0344
  659MOL0    Cl88874   3.614   2.971   6.974 -0.1405  0.3447 -0.1663
  659MOL0     C88875   2.848   3.600   7.026  0.9453  0.3636  0.3931
  659MOL0     C88876   2.711   3.577   7.020 -0.1180  0.4045  2.0294
  659MOL0     O88877   2.476   3.677   7.177 -0.4010 -0.4095  0.1519
  659MOL0     C88878   2.206   3.640   7.141 -0.4962  0.2368  0.2589
  659MOL0     C88879   2.072   3.621   7.133 -0.0151 -0.0987 -0.5049
  659MOL0     N88880   1.507   3.907   6.897  0.3241  0.1319  0.5496
  659MOL0     N88881   1.420   4.003   6.899  0.3634  0.2869  0.6107
  659MOL0     C88882   1.357   4.922   7.402  0.2683  0.0801 -0.5244
  659MOL0     C88883   1.370   4.984   7.530 -0.1341  0.1480  0.0659
  659MOL0     C88884   1.309   5.236   7.902  0.5299  0.0829 -0.7146
  659MOL0     C88885   1.417   5.326   7.922  0.3390 -0.2230  0.2501
  659MOL0     C88886   1.421   5.399   8.036  1.6236 -0.0653 -0.4016
  659MOL0     C88887   1.333   5.397   8.143  0.4591 -0.7435  0.4642
  659MOL0     O88888   1.346   5.478   8.246 -0.3287 -0.0744  0.4826
  659MOL0     C88889   1.238   5.501   8.337  0.7720 -0.8657 -0.1608
  659MOL0     C88890   1.127   5.593   8.281  0.8344 -0.3221  0.0008
  659MOL0     C88891   1.006   5.616   8.384 -1.1969 -0.6222  0.5815
  659MOL0     C88892   0.910   5.504   8.406  0.0749  0.1298  0.0078
  659MOL0     C88893   0.863   5.448   8.281 -0.9810 -0.3457 -0.5480
  659MOL0     C88894   0.815   5.406   8.180 -0.1508  0.2936  1.3763
  659MOL0     C88895   1.230   5.301   8.125  0.3595  0.5677 -0.3001
  659MOL0     C88896   1.210   5.228   8.006 -0.0531  0.4782  0.1479
  659MOL0     C88897   1.082   5.159   7.984 -0.0372  0.1431  0.0262
  659MOL0     H88898   1.052   4.887   7.635 -0.4794 -2.2924 -2.1171
  659MOL0     H88899   1.030   4.823   7.414  0.6238 -0.0489 -1.4451
  659MOL0     H88900   1.154   4.635   7.273  3.2213 -3.6856 -3.0094
  659MOL0     H88901   1.055   4.740   7.169  0.5695  0.6202 -1.0903
  659MOL0     H88902   1.321   4.614   7.089  0.1201  1.9580 -0.2468
  659MOL0     H88903   1.228   4.710   6.989  1.7999  0.1352 -0.0980
  659MOL0     H88904   1.040   4.529   7.093  1.3245 -0.2550  1.6886
  659MOL0     H88905   1.196   4.435   7.093  0.3689  1.1281  2.5057
  659MOL0     H88906   1.082   4.551   6.846 -1.6550 -0.8425 -0.4919
  659MOL0     H88907   1.225   4.449   6.868 -0.4193  1.6364 -1.5255
  659MOL0     H88908   0.916   4.410   6.900 -0.1119  2.1021 -1.6300
  659MOL0     H88909   1.014   4.342   6.780 -0.9881 -2.3410  1.0797
  659MOL0     H88910   1.011   4.239   7.065  0.1037 -0.8750 -0.5948
  659MOL0     H88911   0.948   4.160   6.923  1.5332 -0.3795 -0.7776
  659MOL0     H88912   1.244   4.226   6.974 -0.0095 -3.8758  5.6979
  659MOL0     H88913   1.179   4.165   6.822  1.3233 -2.1525 -0.9087
  659MOL0     H88914   1.191   4.027   7.099  2.3068 -1.7601  0.3335
  659MOL0     H88915   1.087   3.965   6.970 -1.0480  1.8715  0.2406
  659MOL0     H88916   1.223   3.766   7.001 -1.9385  1.6499 -3.2761
  659MOL0     H88917   1.461   3.601   6.900  1.3085 -1.4597 -0.9201
  659MOL0     H88918   1.624   3.683   6.903  0.6239  2.8652  2.5338
  659MOL0     H88919   1.590   3.694   7.173  2.0245 -2.3672  1.0763
  659MOL0     H88920   1.442   3.609   7.137 -0.8393  0.3762  0.0189
  659MOL0     H88921   1.624   3.445   7.027 -3.2822  1.0227 -1.2673
  659MOL0     H88922   1.619   3.449   7.206 -1.9775 -0.4894 -2.0919
  659MOL0     H88923   1.809   3.589   7.221  0.4944 -0.4091 -1.4214
  659MOL0     H88924   1.800   3.654   7.056 -0.8110 -1.6802 -3.0886
  659MOL0     H88925   2.079   3.288   7.041 -2.9183  0.6758  0.9879
  659MOL0     H88926   2.329   3.331   7.099  1.0365  0.6303  2.2138
  659MOL0     H88927   2.695   3.339   7.251  0.2625 -3.3317 -2.0784
  659MOL0     H88928   2.949   3.391   7.269 -2.2006 -2.0597  0.2342
  659MOL0     H88929   3.083   3.552   6.912 -0.0606 -0.1014 -0.2013
  659MOL0     H88930   3.183   3.681   6.997  1.8639 -1.4076 -3.3861
  659MOL0     H88931   3.312   3.516   6.914 -1.3785  3.6710 -0.3118
  659MOL0     H88932   3.318   3.509   7.103 -0.4091 -0.0024 -0.0082
  659MOL0     H88933   3.203   3.325   7.126 -2.7848  2.2705 -0.5682
  659MOL0     H88934   3.134   3.318   6.954  1.7102 -2.4578 -1.9406
  659MOL0     H88935   3.319   3.147   7.010  0.1828 -0.1295  1.5049
  659MOL0     H88936   3.428   3.290   7.010 -0.9697  2.1842  2.5480
  659MOL0     H88937   3.353   3.347   6.775 -1.5027 -0.0951 -1.4098
  659MOL0     H88938   3.268   3.189   6.771  1.2206 -1.0496 -1.5160
  659MOL0     H88939   3.494   3.220   6.677  4.0265  1.3336  1.0279
  659MOL0     H88940   3.560   3.188   6.839  1.0016 -3.6900 -0.7268
  659MOL0     H88941   3.420   3.005   6.655 -2.2257  0.6872  0.3170
  659MOL0     H88942   3.367   2.983   6.822 -1.5205  0.7131 -2.5103
  659MOL0     H88943   3.559   2.836   6.778 -0.5497 -1.1902  0.2621
  659MOL0     H88944   3.664   2.968   6.744  0.0364 -2.5719 -0.1101
  659MOL0     H88945   2.893   3.679   6.967 -0.6699  2.5202  1.8857
  659MOL0     H88946   2.656   3.647   6.957  4.1981  1.2556 -1.2605
  659MOL0     H88947   2.236   3.742   7.165 -0.6408  0.0518  1.2653
  659MOL0     H88948   2.009   3.706   7.158  0.2758  0.4420 -1.5418
  659MOL0     H88949   1.430   4.901   7.324 -1.8179 -3.5496 -1.7848
  659MOL0     H88950   1.464   5.022   7.567  0.0544 -0.7968  0.6000
  659MOL0     H88951   1.498   5.327   7.850  0.3306 -0.6138  0.2344
  659MOL0     H88952   1.509   5.460   8.052  1.3228 -0.1909  2.1662
  659MOL0     H88953   1.286   5.545   8.424  0.2107 -1.2844  0.3701
  659MOL0     H88954   1.198   5.409   8.381 -2.2993  1.6801  2.9925
  659MOL0     H88955   1.091   5.548   8.188  0.3998 -3.6822  1.6144
  659MOL0     H88956   1.176   5.684   8.246  0.7276 -0.6281 -0.9817
  659MOL0     H88957   0.952   5.705   8.351  2.2895  0.8672 -1.7748
  659MOL0     H88958   1.042   5.648   8.483 -0.6615 -1.9912  0.8467
  659MOL0     H88959   0.951   5.422   8.466 -0.3707 -0.3420 -0.3275
  659MOL0     H88960   0.823   5.537   8.463  0.6952 -0.8921  1.6243
  659MOL0     H88961   0.783   5.362   8.088  0.9593  0.3677  0.9430
  659MOL0     H88962   1.147   5.288   8.195  0.5525 -2.2874 -0.4669
  659MOL0     H88963   1.059   5.154   7.877  0.0029  1.4111 -0.0583
  659MOL0     H88964   1.089   5.058   8.025 -1.3849 -0.3553 -0.8675
  659MOL0     H88965   1.006   5.209   8.045  0.8035 -1.2211  2.3044
  660MOL0     O88966   5.218   0.442   0.537  0.3282  0.6038  0.1369
  660MOL0     C88967   5.240   0.455   0.656 -0.5502  0.4263  0.5730
  660MOL0     O88968   5.368   0.457   0.703  0.1415  0.3225  0.8419
  660MOL0     C88969   5.466   0.381   0.646 -0.0505 -0.8517  0.5586
  660MOL0     C88970   5.443   0.248   0.602  0.4279  0.1303 -0.5595
  660MOL0     C88971   5.550   0.179   0.552  0.2177  0.2014  0.4627
  660MOL0     C88972   5.678   0.232   0.532  0.0306  0.2663 -0.3112
  660MOL0     O88973   5.787   0.153   0.494  0.2493  0.8490 -0.1204
  660MOL0     C88974   5.913   0.219   0.473 -0.0420  0.0530 -0.2400
  660MOL0     C88975   6.019   0.111   0.455  0.2178 -0.1273 -0.5744
  660MOL0     C88976   5.990   0.044   0.311  0.0863 -0.5167  0.3050
  660MOL0     C88977   6.050  -0.088   0.294  0.9785 -0.0949 -0.0565
  660MOL0     C88978   6.203  -0.085   0.259  0.4763  0.2996  0.2385
  660MOL0     C88979   6.277  -0.213   0.261 -0.3793  0.7077  0.3239
  660MOL0     C88980   6.220  -0.341   0.187 -0.5448  0.3985  0.1375
  660MOL0     C88981   6.317  -0.456   0.181  0.8958  0.1308  0.3227
  660MOL0     N88982   6.317  -0.517   0.310 -0.1489  0.6185 -0.5299
  660MOL0     C88983   6.402  -0.497   0.412  0.1223 -0.0856 -0.1661
  660MOL0     C88984   6.375  -0.583   0.510 -0.6000 -0.2639 -0.7556
  660MOL0     C88985   6.437  -0.588   0.645  0.2119  0.9670 -0.9936
  660MOL0     C88986   6.338  -0.667   0.743  0.7620 -0.1424 -0.2124
  660MOL0     C88987   6.368  -0.635   0.896 -0.2363  0.1124 -0.0219
  660MOL0     C88988   6.294  -0.718   0.984 -1.0907 -0.0003 -0.0234
  660MOL0     O88989   6.156  -0.676   0.972 -0.0149  0.4480 -0.1851
  660MOL0     C88990   6.060  -0.709   1.073  0.6651 -0.4555 -0.1857
  660MOL0     C88991   5.944  -0.631   1.089  0.4789  0.0226  1.1111
  660MOL0     C88992   5.853  -0.631   1.189  0.1197  0.1470  0.1057
  660MOL0     C88993   5.873  -0.734   1.284  0.2764 -0.0373  0.3147
  660MOL0     C88994   5.766  -0.762   1.377  0.8405  0.2151 -0.6329
  660MOL0     O88995   5.652  -0.688   1.361  0.0410 -0.0455  0.1907
  660MOL0     C88996   5.556  -0.685   1.458 -0.5102 -0.2944 -0.0757
  660MOL0     C88997   5.444  -0.763   1.450 -1.0831  0.4069  0.5317
  660MOL0     C88998   5.350  -0.764   1.551 -0.5008 -0.1821  0.4688
  660MOL0     C88999   5.350  -0.667   1.652  0.9797  0.9670 -0.6365
  660MOL0     O89000   5.253  -0.662   1.754 -0.1965 -0.1657 -0.3159
  660MOL0     C89001   5.143  -0.758   1.762 -0.9737 -0.5494  1.4562
  660MOL0     C89002   5.046  -0.721   1.874  0.7115 -0.6236  0.2183
  660MOL0     C89003   4.952  -0.837   1.898 -0.9178 -0.4726  0.0341
  660MOL0     C89004   4.819  -0.833   1.825  0.4655  0.0624 -0.2143
  660MOL0     C89005   4.751  -0.978   1.801 -0.4309  0.1276  0.1767
  660MOL0     C89006   4.639  -0.972   1.690 -0.5124  0.5770  0.4038
  660MOL0     C89007   4.532  -0.878   1.726  1.1264  0.9876 -0.0988
  660MOL0     C89008   4.405  -0.884   1.638 -0.4093 -0.1740 -0.5746
  660MOL0    Cl89009   4.291  -1.011   1.676  0.0264  0.0313  0.1906
  660MOL0     C89010   5.465  -0.587   1.654 -0.7929 -0.0186 -1.1245
  660MOL0     C89011   5.566  -0.592   1.562 -1.4615  0.9381 -1.1122
  660MOL0     O89012   5.775  -0.851   1.463 -0.1379 -0.1040 -0.5680
  660MOL0     C89013   5.984  -0.823   1.274 -0.2793  0.0238 -0.4226
  660MOL0     C89014   6.078  -0.813   1.167 -0.4458  0.6183  0.4624
  660MOL0     N89015   6.291  -0.677   0.447 -0.6770 -0.7414 -1.1021
  660MOL0     N89016   6.255  -0.637   0.334 -0.6387  0.6581  0.2014
  660MOL0     C89017   5.699   0.364   0.574 -0.9021  0.0192 -0.8844
  660MOL0     C89018   5.588   0.434   0.623  0.2647  0.3467 -0.6626
  660MOL0     C89019   5.130   0.503   0.747 -0.1669 -0.5313 -0.6033
  660MOL0     C89020   5.160   0.549   0.882  0.3214 -0.1290 -0.4350
  660MOL0     C89021   5.062   0.603   0.971 -0.6354  0.5223  0.7647
  660MOL0     C89022   4.931   0.590   0.936  1.6693 -0.8668 -0.1822
  660MOL0     O89023   4.817   0.603   1.021 -0.1896  0.1160 -0.4341
  660MOL0     C89024   4.838   0.661   1.153  0.0355  0.0742  0.2554
  660MOL0     C89025   4.709   0.663   1.234  0.5906 -0.0757 -0.0477
  660MOL0     C89026   4.736   0.736   1.373 -0.2646 -0.4106 -0.4425
  660MOL0     C89027   4.615   0.757   1.473 -0.0019 -0.4798 -0.2650
  660MOL0     C89028   4.491   0.821   1.427  0.4095  0.7107  0.0848
  660MOL0     C89029   4.381   0.874   1.407  0.4113  0.4226 -0.2169
  660MOL0     C89030   4.905   0.557   0.805 -0.5583  1.0689 -0.3359
  660MOL0     C89031   4.992   0.504   0.710  0.5957 -0.2619 -0.6551
  660MOL0     C89032   4.923   0.477   0.571  0.0570  0.4188  0.2559
  660MOL0     H89033   5.345   0.202   0.603 -0.1016  1.1714 -1.7263
  660MOL0     H89034   5.546   0.070   0.552  0.1359  0.1988  1.4703
  660MOL0     H89035   5.904   0.283   0.386 -0.1791  2.0412  1.1658
  660MOL0     H89036   5.945   0.284   0.555  0.2304  0.4813 -0.6836
  660MOL0     H89037   6.012   0.044   0.540 -2.8633  1.5005  0.6104
  660MOL0     H89038   6.123   0.145   0.445  1.4950 -2.6966  2.3423
  660MOL0     H89039   6.031   0.105   0.230  0.8342 -0.7443  0.5002
  660MOL0     H89040   5.883   0.029   0.295  0.6350 -3.3491 -1.3657
  660MOL0     H89041   6.043  -0.138   0.391  0.9595 -3.6509 -1.7619
  660MOL0     H89042   5.991  -0.145   0.222 -0.2945  2.4162 -1.1390
  660MOL0     H89043   6.219  -0.035   0.163 -2.0859  0.5995 -0.1146
  660MOL0     H89044   6.252  -0.023   0.335 -2.5630 -0.3784  2.9586
  660MOL0     H89045   6.375  -0.178   0.226 -0.3221  1.0622  0.8344
  660MOL0     H89046   6.287  -0.243   0.366  0.6905  1.4086  0.4394
  660MOL0     H89047   6.188  -0.312   0.086 -0.0241 -1.8555 -0.7217
  660MOL0     H89048   6.125  -0.376   0.229 -0.4671 -2.4984 -1.8048
  660MOL0     H89049   6.279  -0.528   0.108  2.2486 -1.6205  1.2851
  660MOL0     H89050   6.417  -0.442   0.139  1.5545 -0.3330  1.6854
  660MOL0     H89051   6.470  -0.412   0.411  3.8023 -2.6913 -2.7109
  660MOL0     H89052   6.540  -0.626   0.648  0.6942  2.1950 -1.4349
  660MOL0     H89053   6.447  -0.493   0.699  1.0130  0.4527 -0.2076
  660MOL0     H89054   6.232  -0.647   0.725  0.5663 -0.3810  0.6338
  660MOL0     H89055   6.349  -0.775   0.733  1.9453 -0.0836  0.2225
  660MOL0     H89056   6.346  -0.532   0.924 -1.4901 -0.4655  1.2132
  660MOL0     H89057   6.476  -0.649   0.910 -0.0625  0.0515 -1.2857
  660MOL0     H89058   6.335  -0.711   1.085 -0.7368 -1.2017 -0.0679
  660MOL0     H89059   6.316  -0.821   0.954  1.0359  1.2777 -3.4732
  660MOL0     H89060   5.916  -0.568   1.005 -0.0108 -1.9894 -0.3115
  660MOL0     H89061   5.778  -0.553   1.197  1.2257  1.0752  2.8885
  660MOL0     H89062   5.430  -0.847   1.383 -2.1493  1.2069 -0.2831
  660MOL0     H89063   5.264  -0.825   1.525 -2.5502  0.7986  4.1159
  660MOL0     H89064   5.088  -0.753   1.667  0.2061  1.7001  0.8118
  660MOL0     H89065   5.190  -0.851   1.796  0.5333 -0.2780  0.2495
  660MOL0     H89066   5.107  -0.690   1.959  2.4581  1.2765 -1.5997
  660MOL0     H89067   4.991  -0.635   1.835  1.4415  0.0990  0.7410
  660MOL0     H89068   4.996  -0.937   1.900 -1.5122 -0.7437  2.5385
  660MOL0     H89069   4.926  -0.819   2.002  0.3018 -1.5943  0.5571
  660MOL0     H89070   4.844  -0.781   1.732  1.2750 -1.8134 -1.0857
  660MOL0     H89071   4.750  -0.769   1.882  2.1565  1.2395  0.5871
  660MOL0     H89072   4.703  -1.012   1.893  0.8392  0.8492  1.1403
  660MOL0     H89073   4.827  -1.051   1.773  1.8486  2.3661  0.1349
  660MOL0     H89074   4.694  -0.952   1.598  3.4357 -0.7537  2.2312
  660MOL0     H89075   4.602  -1.070   1.658  0.8150  1.2593 -3.9123
  660MOL0     H89076   4.578  -0.779   1.725  1.0095  1.0411 -1.2034
  660MOL0     H89077   4.507  -0.895   1.832  1.8588 -1.8623 -0.2837
  660MOL0     H89078   4.350  -0.789   1.642  0.4867  0.3083  1.5028
  660MOL0     H89079   4.434  -0.895   1.533 -1.9573 -3.7104 -0.7818
  660MOL0     H89080   5.469  -0.502   1.722  3.2496 -0.2512 -0.8832
  660MOL0     H89081   5.657  -0.534   1.558 -1.4604  0.9097 -1.5969
  660MOL0     H89082   5.996  -0.904   1.345  0.3420  1.1805  0.8429
  660MOL0     H89083   6.157  -0.885   1.150 -0.6255  1.0919 -2.9743
  660MOL0     H89084   5.790   0.423   0.574 -0.7977  0.0717  2.5158
  660MOL0     H89085   5.595   0.536   0.658 -0.5289  0.5283 -0.9966
  660MOL0     H89086   5.263   0.534   0.913 -0.2146  1.1954  2.2503
  660MOL0     H89087   5.103   0.631   1.067  1.9665  0.2998 -0.2229
  660MOL0     H89088   4.882   0.761   1.146  0.4047 -0.1084 -0.0547
  660MOL0     H89089   4.908   0.600   1.211  1.8488  2.9605  1.3086
  660MOL0     H89090   4.665   0.563   1.241 -0.7859  0.2605 -2.8233
  660MOL0     H89091   4.632   0.723   1.186 -2.1178 -2.3134  1.1775
  660MOL0     H89092   4.776   0.833   1.343 -2.4587  0.3412 -1.1137
  660MOL0     H89093   4.809   0.674   1.428  0.2426 -0.5470 -1.2485
  660MOL0     H89094   4.595   0.656   1.511  0.8176 -0.3663  0.5083
  660MOL0     H89095   4.654   0.809   1.562  0.1994  0.9859 -1.1780
  660MOL0     H89096   4.281   0.911   1.396  1.0357  2.5489  0.6227
  660MOL0     H89097   4.804   0.528   0.780 -0.7394  0.0687  1.4383
  660MOL0     H89098   4.983   0.410   0.508 -1.8717 -0.3462 -0.8741
  660MOL0     H89099   4.833   0.417   0.591  1.6526 -1.5619  1.9636
  660MOL0     H89100   4.907   0.568   0.512 -0.1954 -0.3312 -0.8528
  661MOL0     O89101   5.167   8.404   5.534  0.5256 -0.2632 -0.7164
  661MOL0     C89102   5.231   8.499   5.487 -1.4897  0.2756 -0.5900
  661MOL0     O89103   5.365   8.511   5.461  0.1324  0.6216  0.6495
  661MOL0     C89104   5.429   8.392   5.449 -0.0159 -0.2243 -0.1641
  661MOL0     C89105   5.422   8.331   5.326  0.0138 -0.4663 -0.8082
  661MOL0     C89106   5.476   8.202   5.309 -0.1531  0.3464 -0.1504
  661MOL0     C89107   5.537   8.128   5.415 -1.3385  0.8481 -0.4460
  661MOL0     O89108   5.578   7.995   5.399 -0.5269 -0.1437 -0.0591
  661MOL0     C89109   5.638   7.931   5.514  0.6562 -0.5060  0.0674
  661MOL0     C89110   5.669   7.789   5.475  0.4679 -0.3251  0.8980
  661MOL0     C89111   5.764   7.787   5.346 -0.5495 -0.4308 -0.1075
  661MOL0     C89112   5.901   7.853   5.372  0.2941  0.7561 -0.5810
  661MOL0     C89113   6.013   7.796   5.283  0.4234  0.7982  0.5016
  661MOL0     C89114   6.142   7.874   5.292 -0.5247 -0.3571 -0.4261
  661MOL0     C89115   6.212   7.851   5.426  0.1278  0.2016 -0.2953
  661MOL0     C89116   6.349   7.903   5.443 -1.1118 -0.6129 -0.2531
  661MOL0     N89117   6.362   8.051   5.413 -0.2189 -0.0250  0.0890
  661MOL0     C89118   6.323   8.152   5.497  1.0441  0.0344 -0.4054
  661MOL0     C89119   6.343   8.268   5.433 -0.0471 -0.0677 -0.6047
  661MOL0     C89120   6.329   8.407   5.488 -0.5718  0.5456  0.6888
  661MOL0     C89121   6.181   8.452   5.524 -0.4067  0.0895  0.1339
  661MOL0     C89122   6.140   8.498   5.667  0.4845  1.0068  0.4798
  661MOL0     C89123   6.169   8.402   5.788 -0.0481  0.8771 -0.7667
  661MOL0     O89124   6.142   8.263   5.778 -0.0987  0.1446 -0.4872
  661MOL0     C89125   6.009   8.225   5.793 -0.6133 -0.1191 -0.9268
  661MOL0     C89126   5.988   8.088   5.794  0.3534  0.3462  0.4183
  661MOL0     C89127   5.861   8.027   5.822 -0.8640  0.3081  1.0751
  661MOL0     C89128   5.751   8.112   5.855 -0.3363  0.1353 -0.1282
  661MOL0     C89129   5.613   8.051   5.860 -0.9202 -0.3040  0.1573
  661MOL0     O89130   5.517   8.146   5.884 -0.2391 -0.2985 -1.0362
  661MOL0     C89131   5.388   8.110   5.901  0.2460 -0.4221  0.9728
  661MOL0     C89132   5.277   8.147   5.813  0.5576 -0.5099  0.8385
  661MOL0     C89133   5.143   8.116   5.854  0.0023  0.6034  0.9086
  661MOL0     C89134   5.114   8.033   5.956 -0.2607 -0.1053 -0.8487
  661MOL0     O89135   4.987   8.002   5.998 -0.0430 -0.3124  0.5449
  661MOL0     C89136   4.943   7.906   6.101  0.1414  0.3037 -0.1549
  661MOL0     C89137   4.790   7.921   6.114  0.5105  0.0950 -0.4202
  661MOL0     C89138   4.751   8.036   6.204  0.6645 -0.1943 -0.1559
  661MOL0     C89139   4.773   8.182   6.158 -0.7261  0.5951  0.5709
  661MOL0     C89140   4.702   8.272   6.255  0.1549 -0.0646 -0.4681
  661MOL0     C89141   4.694   8.414   6.211 -0.6920 -0.1580 -0.1008
  661MOL0     C89142   4.635   8.503   6.324  0.1686  0.0834 -0.6394
  661MOL0     C89143   4.606   8.642   6.282  0.1690 -0.6139 -0.2573
  661MOL0    Cl89144   4.592   8.737   6.427  0.0808 -0.1548  0.1157
  661MOL0     C89145   5.219   7.977   6.025 -0.2638  0.4415  0.7090
  661MOL0     C89146   5.347   8.020   6.006  0.3389 -0.4660  0.3197
  661MOL0     O89147   5.594   7.933   5.862  0.4051  0.0602  0.2870
  661MOL0     C89148   5.780   8.251   5.865  0.4543 -0.7977  0.1317
  661MOL0     C89149   5.897   8.303   5.832  0.5213 -0.5575  0.2321
  661MOL0     N89150   6.395   8.232   5.307 -1.5461 -0.7427  0.0660
  661MOL0     N89151   6.403   8.107   5.295 -0.2608 -0.0247  0.7263
  661MOL0     C89152   5.554   8.196   5.535  0.3866 -0.6571 -0.5484
  661MOL0     C89153   5.504   8.327   5.554 -0.1415 -0.1045 -0.1590
  661MOL0     C89154   5.156   8.619   5.441  0.2857  0.5349 -0.5170
  661MOL0     C89155   5.218   8.716   5.359 -0.3288 -0.0146  0.4407
  661MOL0     C89156   5.154   8.827   5.307 -0.5696 -0.4980 -1.0068
  661MOL0     C89157   5.021   8.860   5.356  0.0945  0.2314 -0.0768
  661MOL0     O89158   4.955   8.968   5.308 -0.1320  1.0077 -0.2380
  661MOL0     C89159   5.026   9.062   5.223 -0.4832  0.1220  0.0712
  661MOL0     C89160   4.936   9.179   5.196  0.0799 -0.0777  0.4475
  661MOL0     C89161   4.994   9.310   5.133  0.0189  0.2881 -0.3918
  661MOL0     C89162   4.982   9.318   4.987  1.1236  0.1418  0.8242
  661MOL0     C89163   5.023   9.186   4.920 -0.2056  0.1831  0.0715
  661MOL0     C89164   5.032   9.069   4.878  0.0616 -0.4281  1.0661
  661MOL0     C89165   4.954   8.771   5.436 -0.1183  0.3450 -1.1999
  661MOL0     C89166   5.018   8.651   5.475  0.3642  0.4333  0.5926
  661MOL0     C89167   4.937   8.579   5.584 -0.4672  0.6411  0.1023
  661MOL0     H89168   5.359   8.374   5.249 -2.4568  1.6912  2.1632
  661MOL0     H89169   5.457   8.138   5.223  1.6551  0.3596 -0.5972
  661MOL0     H89170   5.725   7.990   5.543  0.2562  0.4741 -0.6704
  661MOL0     H89171   5.571   7.939   5.600  1.5497  1.2449  0.6497
  661MOL0     H89172   5.571   7.745   5.457  0.8127 -0.1299 -1.9117
  661MOL0     H89173   5.725   7.750   5.560  0.7600 -0.4986  0.6284
  661MOL0     H89174   5.722   7.851   5.268  1.3083 -1.2500 -1.8770
  661MOL0     H89175   5.780   7.684   5.312 -3.5494 -0.2412 -2.5780
  661MOL0     H89176   5.900   7.962   5.370  2.3226  0.7972 -1.6293
  661MOL0     H89177   5.933   7.829   5.474  1.8203  1.8688 -0.7736
  661MOL0     H89178   6.035   7.691   5.301 -2.0257 -0.1330 -1.4375
  661MOL0     H89179   5.968   7.814   5.185 -1.4888 -1.6528  0.8241
  661MOL0     H89180   6.214   7.854   5.212  1.5783 -1.1094  1.5090
  661MOL0     H89181   6.116   7.980   5.288 -0.5006 -0.0165  3.8675
  661MOL0     H89182   6.217   7.744   5.447  2.1055  0.9302  3.9929
  661MOL0     H89183   6.152   7.893   5.507  1.7044 -1.9676  2.1287
  661MOL0     H89184   6.390   7.897   5.544  2.4129  1.0267 -1.4274
  661MOL0     H89185   6.423   7.860   5.375 -0.9099  0.5889 -0.8167
  661MOL0     H89186   6.291   8.151   5.600  0.0170  2.4923 -0.6338
  661MOL0     H89187   6.395   8.422   5.575  0.7852 -1.6887  0.1449
  661MOL0     H89188   6.369   8.474   5.412  1.1414 -0.3587  0.7439
  661MOL0     H89189   6.140   8.526   5.454  0.1000  0.8619  0.6434
  661MOL0     H89190   6.128   8.357   5.520  0.7104 -0.5470  0.0654
  661MOL0     H89191   6.031   8.508   5.660  0.3802 -0.0525  0.4370
  661MOL0     H89192   6.175   8.599   5.689  2.4256  0.1161  1.7172
  661MOL0     H89193   6.124   8.428   5.884  0.8344 -1.4871  0.3600
  661MOL0     H89194   6.278   8.400   5.791 -0.0722 -0.2033  1.8875
  661MOL0     H89195   6.064   8.018   5.759  0.9001  2.1211 -2.1818
  661MOL0     H89196   5.861   7.919   5.825 -0.0066  0.2580 -0.1744
  661MOL0     H89197   5.298   8.206   5.724  2.3014 -0.1277  1.4543
  661MOL0     H89198   5.059   8.168   5.809 -1.6050 -0.2548  2.7613
  661MOL0     H89199   4.967   7.810   6.053 -0.9455  0.2361 -0.5841
  661MOL0     H89200   4.998   7.912   6.196 -1.4759  0.0786  0.8325
  661MOL0     H89201   4.742   7.937   6.017  0.9952 -0.3202 -0.7343
  661MOL0     H89202   4.749   7.830   6.159 -0.5005 -0.2615 -1.9741
  661MOL0     H89203   4.644   8.025   6.220  0.4699  1.8798  0.2660
  661MOL0     H89204   4.803   8.014   6.298  2.6154 -1.1382 -1.3872
  661MOL0     H89205   4.740   8.203   6.056  1.5521  0.2173 -0.3013
  661MOL0     H89206   4.880   8.204   6.146 -0.6549 -0.9859 -2.9135
  661MOL0     H89207   4.753   8.269   6.351  0.6346 -0.8325 -0.7313
  661MOL0     H89208   4.599   8.239   6.272  0.7006 -0.9311  1.3696
  661MOL0     H89209   4.796   8.452   6.204 -0.7062 -0.2995 -1.2892
  661MOL0     H89210   4.642   8.422   6.115 -1.3386  1.6107  0.3625
  661MOL0     H89211   4.708   8.503   6.406 -2.6138 -1.2515  2.0525
  661MOL0     H89212   4.545   8.447   6.350  0.3887  0.4213  0.9469
  661MOL0     H89213   4.683   8.686   6.218 -2.7620  2.7669 -1.8164
  661MOL0     H89214   4.512   8.645   6.225  0.5663  2.8757 -0.9410
  661MOL0     H89215   5.211   7.909   6.109  0.3992  1.1846  1.4030
  661MOL0     H89216   5.427   7.982   6.069  2.0504  0.9871 -0.9026
  661MOL0     H89217   5.706   8.326   5.891  0.6830  0.4172 -2.4117
  661MOL0     H89218   5.900   8.411   5.839 -0.2519 -0.2303 -3.0844
  661MOL0     H89219   5.608   8.161   5.623  2.1497  2.5037 -0.2408
  661MOL0     H89220   5.519   8.362   5.655 -1.2510  1.8109 -0.5903
  661MOL0     H89221   5.323   8.706   5.331 -0.4116  0.1330  0.0668
  661MOL0     H89222   5.219   8.884   5.241  0.4599  0.6424  0.9031
  661MOL0     H89223   5.061   9.021   5.128  0.6585  0.0665  0.4980
  661MOL0     H89224   5.119   9.096   5.270 -0.4335 -0.2116  0.2175
  661MOL0     H89225   4.876   9.200   5.286 -1.1273  0.4867 -0.4569
  661MOL0     H89226   4.866   9.136   5.123 -1.1449 -1.3963  2.2798
  661MOL0     H89227   5.102   9.320   5.150  0.2370 -3.0495  0.8207
  661MOL0     H89228   4.934   9.393   5.170  0.8362  0.4394  0.6478
  661MOL0     H89229   4.880   9.338   4.955  1.5432  1.0553 -0.0089
  661MOL0     H89230   5.046   9.400   4.952 -1.7998  3.1766  2.0660
  661MOL0     H89231   5.034   8.969   4.839  1.4959 -0.9589  2.3883
  661MOL0     H89232   4.863   8.814   5.477  1.2317  2.7575 -0.4972
  661MOL0     H89233   4.932   8.471   5.564  0.1541  0.6066  0.1367
  661MOL0     H89234   4.975   8.595   5.685 -0.6626 -3.1480  0.9351
  661MOL0     H89235   4.833   8.613   5.578  0.3415  3.1351 -1.4174
  662MOL0     O89236   5.032  11.455   8.690 -0.5836  0.0425  0.5126
  662MOL0     C89237   5.057  11.525   8.583  0.0620  0.3327 -0.4635
  662MOL0     O89238   5.040  11.660   8.575  0.6938  0.2114  0.1215
  662MOL0     C89239   4.979  11.713   8.692 -0.1707 -0.5209  0.9291
  662MOL0     C89240   5.045  11.778   8.795 -0.1122  1.2059  0.4778
  662MOL0     C89241   4.992  11.847   8.891  0.3866 -0.1110 -0.1995
  662MOL0     C89242   4.851  11.851   8.903  0.8293  0.0080 -0.4773
  662MOL0     O89243   4.803  11.924   9.004 -0.0554  0.4556 -0.2238
  662MOL0     C89244   4.669  11.896   9.064 -0.5064 -0.0339  0.4185
  662MOL0     C89245   4.660  11.925   9.213 -0.7486 -0.2601 -0.0787
  662MOL0     C89246   4.787  11.885   9.292 -0.4132  0.3314  0.6520
  662MOL0     C89247   4.792  11.937   9.437 -0.9261  0.2305 -0.1601
  662MOL0     C89248   4.684  11.873   9.521  0.3016  1.1659 -0.7080
  662MOL0     C89249   4.671  11.957   9.647  1.2253 -0.7668 -0.0934
  662MOL0     C89250   4.601  11.892   9.761  0.0537 -0.2401  0.5702
  662MOL0     C89251   4.689  11.842   9.875 -0.2964  0.6653 -0.6671
  662MOL0     N89252   4.778  11.738   9.827 -0.0019 -0.5322  0.2178
  662MOL0     C89253   4.731  11.613   9.785  0.5237  0.0303 -0.9356
  662MOL0     C89254   4.819  11.557   9.702  0.5112  0.8689  0.0301
  662MOL0     C89255   4.809  11.419   9.643  0.5251  0.9254 -0.5946
  662MOL0     C89256   4.894  11.383   9.528  0.3527  0.3813 -0.0333
  662MOL0     C89257   4.866  11.434   9.390  0.1552  0.8360 -0.0475
  662MOL0     C89258   4.994  11.421   9.307 -0.0279  0.6385  0.6494
  662MOL0     O89259   4.971  11.458   9.167 -0.5199 -0.0372  0.1987
  662MOL0     C89260   4.888  11.393   9.086  0.5113 -0.0364 -0.1960
  662MOL0     C89261   4.823  11.458   8.984  0.2306 -0.3170 -0.9993
  662MOL0     C89262   4.736  11.388   8.893 -0.0057 -0.1960  0.6852
  662MOL0     C89263   4.716  11.249   8.903  0.4729 -0.1713 -0.4687
  662MOL0     C89264   4.625  11.162   8.813  0.7437 -0.6683 -0.5370
  662MOL0     O89265   4.529  11.233   8.752 -0.6107 -0.9838 -0.4057
  662MOL0     C89266   4.450  11.169   8.662 -0.5186  0.2128  0.2553
  662MOL0     C89267   4.356  11.080   8.702  0.8636 -0.1520  0.1253
  662MOL0     C89268   4.277  10.999   8.620 -0.1686 -0.5772  0.3094
  662MOL0     C89269   4.293  11.012   8.477  0.5849  0.2719 -0.7225
  662MOL0     O89270   4.231  10.921   8.389  0.1686 -0.8009 -0.3263
  662MOL0     C89271   4.095  10.887   8.416  0.1774 -0.3293 -0.0133
  662MOL0     C89272   4.062  10.739   8.394 -0.3214 -0.2437  0.6263
  662MOL0     C89273   3.918  10.716   8.365  0.3921  0.4392  0.1752
  662MOL0     C89274   3.871  10.571   8.399  0.1001  1.0069  0.1056
  662MOL0     C89275   3.947  10.470   8.323  0.1534 -0.9067 -0.0084
  662MOL0     C89276   3.897  10.325   8.309  0.3343 -0.2891  0.8192
  662MOL0     C89277   3.771  10.300   8.223 -0.8434 -0.0616  0.0449
  662MOL0     C89278   3.734  10.156   8.205  0.1164  1.0609 -0.3572
  662MOL0    Cl89279   3.867  10.049   8.160 -0.8265 -0.1536 -0.1735
  662MOL0     C89280   4.389  11.109   8.442 -0.9175  0.3946  0.0923
  662MOL0     C89281   4.462  11.196   8.531  0.4830  0.5255  0.0100
  662MOL0     O89282   4.656  11.045   8.793 -0.5386  0.0499 -0.9695
  662MOL0     C89283   4.787  11.190   9.007  0.4572  0.2023  0.5363
  662MOL0     C89284   4.873  11.251   9.092  0.2373  0.2523  0.0038
  662MOL0     N89285   4.919  11.652   9.684  0.1458  0.0471 -0.6623
  662MOL0     N89286   4.898  11.757   9.758  0.3776 -0.5434 -0.8425
  662MOL0     C89287   4.767  11.780   8.814 -0.2062 -0.1316  0.2976
  662MOL0     C89288   4.838  11.709   8.709 -0.2042 -0.6463  0.1085
  662MOL0     C89289   5.107  11.449   8.469 -0.0865 -0.5039  0.2464
  662MOL0     C89290   5.182  11.537   8.378 -0.5029 -0.1028 -1.2937
  662MOL0     C89291   5.229  11.491   8.254  0.7708  0.9655 -0.9362
  662MOL0     C89292   5.189  11.368   8.202 -0.4121  1.3242 -0.0865
  662MOL0     O89293   5.215  11.333   8.070  0.4221 -0.4707  0.4036
  662MOL0     C89294   5.273  11.419   7.971 -0.3064 -0.5043  0.3335
  662MOL0     C89295   5.328  11.339   7.860 -0.9935  0.7689  0.5075
  662MOL0     C89296   5.342  11.416   7.724  0.1720  0.4296 -0.0993
  662MOL0     C89297   5.208  11.434   7.651 -0.0477  0.1143  0.5521
  662MOL0     C89298   5.129  11.312   7.616 -0.7514 -0.3874 -0.0389
  662MOL0     C89299   5.070  11.210   7.579  0.8902  0.2331  0.1720
  662MOL0     C89300   5.124  11.286   8.293 -0.0419 -0.4277  0.9684
  662MOL0     C89301   5.075  11.319   8.423  0.8773  0.1142  0.1091
  662MOL0     C89302   4.982  11.221   8.494  0.5565 -0.2792 -0.8541
  662MOL0     H89303   5.152  11.794   8.784  0.3072 -0.9505  0.9260
  662MOL0     H89304   5.063  11.898   8.956  0.2202  0.3243 -0.3565
  662MOL0     H89305   4.600  11.959   9.008  0.6535  0.5685 -0.3617
  662MOL0     H89306   4.650  11.792   9.036  1.0444  0.1394 -1.5466
  662MOL0     H89307   4.572  11.875   9.254  0.1773  0.6519  3.3651
  662MOL0     H89308   4.652  12.033   9.231  1.8492 -0.1908  1.1482
  662MOL0     H89309   4.875  11.930   9.245  0.9617 -2.0488  0.7253
  662MOL0     H89310   4.808  11.778   9.276 -1.5982  0.5810 -4.3114
  662MOL0     H89311   4.897  11.930   9.467  0.5751  0.6456 -4.6249
  662MOL0     H89312   4.768  12.044   9.434  1.0663  0.8777  2.8222
  662MOL0     H89313   4.591  11.885   9.465  0.8153  0.0189 -1.8612
  662MOL0     H89314   4.699  11.766   9.539 -0.1355  0.9770 -1.4337
  662MOL0     H89315   4.772  11.985   9.676  0.1388  1.7221  1.6578
  662MOL0     H89316   4.620  12.043   9.603  3.4190  1.0591  0.7331
  662MOL0     H89317   4.522  11.828   9.721  0.5407 -0.1945 -0.4994
  662MOL0     H89318   4.546  11.979   9.800  1.6299  0.7255  0.7135
  662MOL0     H89319   4.750  11.927   9.907  1.6845 -0.7332 -0.5499
  662MOL0     H89320   4.633  11.807   9.963  1.2284 -2.9451 -0.9380
  662MOL0     H89321   4.637  11.566   9.814  1.3338 -1.1445 -0.1159
  662MOL0     H89322   4.840  11.347   9.719 -1.3448  0.2106 -0.4585
  662MOL0     H89323   4.705  11.394   9.618  0.4994  2.9188 -2.7839
  662MOL0     H89324   4.995  11.414   9.556  0.3440  3.0474 -2.5257
  662MOL0     H89325   4.902  11.275   9.513 -1.1993  0.4552 -1.8016
  662MOL0     H89326   4.818  11.532   9.387 -0.4868  0.5298  0.0161
  662MOL0     H89327   4.793  11.375   9.335 -0.5196  0.3395  1.3323
  662MOL0     H89328   5.035  11.320   9.313 -0.9325  0.1685 -0.5756
  662MOL0     H89329   5.060  11.500   9.344  0.3861  0.7370 -0.2703
  662MOL0     H89330   4.855  11.562   8.972  2.0759 -0.5731  1.0220
  662MOL0     H89331   4.679  11.446   8.822 -3.6705 -1.4909  2.3591
  662MOL0     H89332   4.337  11.073   8.809 -2.3524 -1.4735 -0.4080
  662MOL0     H89333   4.206  10.933   8.668 -1.4229  1.1614  0.9258
  662MOL0     H89334   4.056  10.919   8.513  0.6681  0.7892 -0.1787
  662MOL0     H89335   4.034  10.940   8.342 -2.7767 -0.5015  2.1277
  662MOL0     H89336   4.129  10.701   8.316 -0.8134 -0.5194  0.3390
  662MOL0     H89337   4.085  10.696   8.492 -1.0347  1.0457  1.3892
  662MOL0     H89338   3.862  10.786   8.429 -0.1556 -2.1039  2.6613
  662MOL0     H89339   3.881  10.737   8.263 -0.7426 -1.3183  0.1852
  662MOL0     H89340   3.766  10.559   8.368 -0.4750  2.5943  1.2560
  662MOL0     H89341   3.855  10.558   8.507 -2.6284  0.5950 -0.2551
  662MOL0     H89342   4.043  10.475   8.376  0.4669  1.5475 -0.6634
  662MOL0     H89343   3.952  10.511   8.221 -0.2786  2.7391  1.2975
  662MOL0     H89344   3.980  10.269   8.265  1.7661 -0.0863  3.0772
  662MOL0     H89345   3.874  10.286   8.409  0.0227 -0.6510  0.6100
  662MOL0     H89346   3.800  10.338   8.124  1.0648 -1.9829 -0.2136
  662MOL0     H89347   3.680  10.350   8.257 -2.9315 -1.1672 -3.3935
  662MOL0     H89348   3.702  10.107   8.297  1.2226  0.3671 -0.3219
  662MOL0     H89349   3.650  10.146   8.135 -0.8311 -1.3175  1.0213
  662MOL0     H89350   4.417  11.106   8.337 -0.8303 -0.1626  0.1290
  662MOL0     H89351   4.539  11.264   8.495 -1.2804  1.0372 -3.2088
  662MOL0     H89352   4.773  11.084   9.024  2.3955 -0.0156  1.0639
  662MOL0     H89353   4.910  11.189   9.173 -0.5473 -0.5798 -0.2580
  662MOL0     H89354   4.660  11.778   8.797 -0.4124 -2.1428  1.5586
  662MOL0     H89355   4.782  11.674   8.623  1.5787  0.2820 -1.5262
  662MOL0     H89356   5.211  11.635   8.413 -2.0319 -0.6542  1.9163
  662MOL0     H89357   5.281  11.554   8.182 -0.0460  2.6864 -0.0791
  662MOL0     H89358   5.350  11.484   8.015  1.2937 -0.9582 -1.6390
  662MOL0     H89359   5.197  11.485   7.930 -1.9579 -1.2044  2.1163
  662MOL0     H89360   5.249  11.267   7.836 -0.9194  1.5195 -2.4209
  662MOL0     H89361   5.418  11.287   7.894  0.2881  0.8950 -2.3597
  662MOL0     H89362   5.411  11.367   7.655  0.2001 -0.3173  0.4448
  662MOL0     H89363   5.388  11.515   7.727  0.5269  0.2573  0.1129
  662MOL0     H89364   5.146  11.508   7.701  0.2397  2.1930 -1.9449
  662MOL0     H89365   5.240  11.484   7.559  3.2996 -1.3036  0.7921
  662MOL0     H89366   5.014  11.128   7.539  1.3435  0.5959 -1.2765
  662MOL0     H89367   5.084  11.197   8.246 -2.4106  1.0497 -0.0166
  662MOL0     H89368   4.881  11.253   8.519  0.3515 -1.6311  0.0963
  662MOL0     H89369   4.968  11.131   8.435 -1.8240 -0.2603 -0.4206
  662MOL0     H89370   5.020  11.190   8.592  0.5027  2.0035 -0.0439
  663MOL0     O89371   9.747   9.439   3.326 -0.0986  0.1424 -0.8045
  663MOL0     C89372   9.857   9.385   3.303 -0.3275  0.3901  0.6954
  663MOL0     O89373   9.956   9.427   3.217 -0.7451  0.1550 -0.1160
  663MOL0     C89374   9.921   9.547   3.166  1.0560 -0.6956 -0.3814
  663MOL0     C89375   9.959   9.670   3.212  0.1630 -0.2903  0.2733
  663MOL0     C89376   9.917   9.796   3.160  0.0937  0.3080  0.4332
  663MOL0     C89377   9.833   9.798   3.054 -0.4737 -0.2420 -0.1774
  663MOL0     O89378   9.798   9.921   2.997  0.4966 -0.3628 -0.1927
  663MOL0     C89379   9.769  10.038   3.072  0.3670 -1.2417 -0.0362
  663MOL0     C89380   9.683  10.154   3.010  0.2366  0.4811 -0.0476
  663MOL0     C89381   9.529  10.113   3.006 -0.2362  1.2201  0.0713
  663MOL0     C89382   9.437  10.221   2.983 -0.0704  0.2777  0.7732
  663MOL0     C89383   9.361  10.279   3.105 -0.2852 -0.3308 -0.7207
  663MOL0     C89384   9.236  10.195   3.145 -0.6879 -0.6602  0.6223
  663MOL0     C89385   9.111  10.247   3.067  0.4114 -0.0727  1.4951
  663MOL0     C89386   8.979  10.218   3.134  0.9655  0.8600  0.0262
  663MOL0     N89387   8.950  10.078   3.166 -0.5963  0.4529 -0.1699
  663MOL0     C89388   8.919   9.984   3.074 -0.4028  0.0826 -0.4630
  663MOL0     C89389   8.931   9.873   3.148 -0.2008  1.0110  0.1047
  663MOL0     C89390   8.915   9.736   3.096 -0.7240  0.2812 -0.0570
  663MOL0     C89391   8.826   9.640   3.176  0.0890 -0.0009  0.8498
  663MOL0     C89392   8.679   9.648   3.130 -0.0167 -1.1941 -0.6937
  663MOL0     C89393   8.659   9.531   3.028 -0.1259 -0.2848 -0.9717
  663MOL0     O89394   8.546   9.564   2.940 -0.1950  1.5765 -0.0631
  663MOL0     C89395   8.415   9.576   2.985 -0.5168  0.8338  0.7208
  663MOL0     C89396   8.382   9.504   3.100  0.1367  0.1890  1.0050
  663MOL0     C89397   8.255   9.506   3.144 -0.2407  0.0794 -0.5519
  663MOL0     C89398   8.154   9.578   3.080 -0.0873 -0.9604  0.2151
  663MOL0     C89399   8.013   9.571   3.145  0.2235  0.2447 -0.8208
  663MOL0     O89400   7.987   9.465   3.234 -0.0174 -0.0923  0.0557
  663MOL0     C89401   7.855   9.465   3.291  0.2854  0.5642  0.2248
  663MOL0     C89402   7.733   9.488   3.227 -0.5130 -0.1419  0.1138
  663MOL0     C89403   7.612   9.500   3.300 -0.0973  0.2885 -0.2114
  663MOL0     C89404   7.612   9.501   3.439 -0.8272 -0.2280  0.5979
  663MOL0     O89405   7.509   9.526   3.524 -0.0220  0.4026 -0.3684
  663MOL0     C89406   7.375   9.501   3.481  0.2421 -0.5890  0.4607
  663MOL0     C89407   7.271   9.472   3.598  1.3279  0.4246 -0.3401
  663MOL0     C89408   7.246   9.583   3.693  0.5114 -1.1100 -0.1990
  663MOL0     C89409   7.126   9.541   3.778  0.5982 -0.1357 -0.8117
  663MOL0     C89410   7.123   9.638   3.900  0.5232 -0.1967  0.1807
  663MOL0     C89411   6.975   9.637   3.954  0.7999  0.3592  0.0410
  663MOL0     C89412   6.964   9.733   4.075 -1.2927  1.2662  0.2281
  663MOL0     C89413   6.821   9.778   4.091  0.1026 -0.0123  0.2303
  663MOL0    Cl89414   6.700   9.646   4.079  0.2253  0.4075 -0.2481
  663MOL0     C89415   7.731   9.462   3.499 -0.2960 -0.4695 -0.0106
  663MOL0     C89416   7.849   9.441   3.427 -0.8908 -1.3307  0.4891
  663MOL0     O89417   7.952   9.673   3.139 -0.1052  0.4292 -0.0609
  663MOL0     C89418   8.184   9.641   2.952  0.3354  0.2536 -0.4576
  663MOL0     C89419   8.319   9.631   2.910 -0.0388 -0.6157 -0.1540
  663MOL0     N89420   8.976   9.892   3.278  0.3053  1.1089  0.0620
  663MOL0     N89421   8.970  10.021   3.289 -0.7165  0.3976 -0.3426
  663MOL0     C89422   9.795   9.677   3.001 -0.1499  0.5454  0.2881
  663MOL0     C89423   9.836   9.555   3.050 -0.4584 -0.6020 -0.0919
  663MOL0     C89424   9.889   9.258   3.377 -1.0886  0.0581 -0.1756
  663MOL0     C89425  10.022   9.204   3.359 -0.3207  0.1824  0.0697
  663MOL0     C89426  10.067   9.084   3.418  0.8090  0.4963  0.2221
  663MOL0     C89427   9.978   9.020   3.508  0.4760  0.4463 -0.1581
  663MOL0     O89428  10.010   8.897   3.563  0.3755 -0.2677  0.0729
  663MOL0     C89429  10.147   8.854   3.558  0.1547  0.5101  0.2287
  663MOL0     C89430  10.171   8.723   3.634  0.4688  1.0128  0.8908
  663MOL0     C89431  10.320   8.684   3.643 -0.0854 -0.0347 -0.5216
  663MOL0     C89432  10.338   8.541   3.695 -0.6030 -0.0105 -1.0721
  663MOL0     C89433  10.394   8.540   3.827  0.1011 -0.6206  0.3936
  663MOL0     C89434  10.432   8.533   3.943 -1.4132 -0.1855 -0.0163
  663MOL0     C89435   9.845   9.064   3.527  0.2945  0.0888  0.0662
  663MOL0     C89436   9.810   9.194   3.472  0.3649 -1.0784  0.2016
  663MOL0     C89437   9.688   9.248   3.528 -0.4526 -0.2913 -0.5187
  663MOL0     H89438  10.030   9.671   3.294 -0.8798 -2.4766  1.2862
  663MOL0     H89439   9.964   9.875   3.218 -0.2698 -1.6230  3.6070
  663MOL0     H89440   9.719  10.015   3.167  1.3135  4.2037  2.1266
  663MOL0     H89441   9.863  10.089   3.093 -1.0819  1.2841  0.7831
  663MOL0     H89442   9.708  10.178   2.906  0.2147  1.1039  0.0835
  663MOL0     H89443   9.698  10.248   3.064  1.2299 -0.5817  1.6145
  663MOL0     H89444   9.485  10.071   3.096  0.1116 -1.2319 -0.8200
  663MOL0     H89445   9.530  10.043   2.922  2.5193 -2.5240  2.9050
  663MOL0     H89446   9.492  10.306   2.940  3.1372 -1.0668  1.9208
  663MOL0     H89447   9.369  10.188   2.904  1.0374 -1.9578  0.6794
  663MOL0     H89448   9.434  10.284   3.186  0.4133 -0.8026 -1.3094
  663MOL0     H89449   9.322  10.380   3.089 -2.0143 -0.9438 -0.6415
  663MOL0     H89450   9.247  10.089   3.118  1.8986 -0.6793  1.4385
  663MOL0     H89451   9.227  10.196   3.254 -1.7467 -0.0037  0.5377
  663MOL0     H89452   9.121  10.201   2.968 -0.1424  0.3727  1.2296
  663MOL0     H89453   9.111  10.355   3.049  0.6707 -0.4102 -0.9098
  663MOL0     H89454   8.974  10.280   3.224 -0.9909  1.1747 -0.2342
  663MOL0     H89455   8.893  10.254   3.075  0.1221  0.1035  0.7583
  663MOL0     H89456   8.889   9.999   2.970 -2.6237 -1.9033 -0.1813
  663MOL0     H89457   8.875   9.760   2.997 -0.8535  0.4250  0.0299
  663MOL0     H89458   9.017   9.699   3.087 -0.1659  1.4100  1.1758
  663MOL0     H89459   8.859   9.536   3.166 -0.3496  0.0941 -3.5385
  663MOL0     H89460   8.826   9.667   3.282 -2.1080  0.2171  0.8303
  663MOL0     H89461   8.652   9.744   3.086  0.7524  0.3478  2.0199
  663MOL0     H89462   8.619   9.645   3.221 -1.8490  0.9653 -1.7392
  663MOL0     H89463   8.654   9.430   3.069  0.1337  0.6919  1.6126
  663MOL0     H89464   8.741   9.529   2.955 -0.2468 -0.9496 -1.0926
  663MOL0     H89465   8.454   9.429   3.132  0.2091 -1.5797 -2.6771
  663MOL0     H89466   8.234   9.449   3.235 -0.5397 -0.2374 -0.8143
  663MOL0     H89467   7.729   9.525   3.125 -2.0969  0.6327  0.4384
  663MOL0     H89468   7.529   9.510   3.232  0.4412 -0.0831 -0.9415
  663MOL0     H89469   7.347   9.596   3.434  2.7854  0.6704  1.3187
  663MOL0     H89470   7.367   9.421   3.407  0.1386  1.0675 -1.3946
  663MOL0     H89471   7.173   9.446   3.557  2.0087 -3.0352 -0.0495
  663MOL0     H89472   7.294   9.390   3.665 -0.5632  0.5761  0.5845
  663MOL0     H89473   7.336   9.593   3.755  2.4882  2.3698 -3.2694
  663MOL0     H89474   7.216   9.679   3.651  0.6547 -0.4473  1.1399
  663MOL0     H89475   7.137   9.437   3.813 -0.0977  0.6815  2.1271
  663MOL0     H89476   7.034   9.544   3.718 -1.3915  1.5707  2.1057
  663MOL0     H89477   7.158   9.736   3.866 -0.1144 -0.0016  0.0704
  663MOL0     H89478   7.193   9.606   3.978  0.2945 -1.9154 -0.2664
  663MOL0     H89479   6.908   9.661   3.872 -2.4928  0.1264  2.4654
  663MOL0     H89480   6.956   9.540   4.002 -0.0160 -0.0649 -1.0973
  663MOL0     H89481   7.025   9.819   4.044 -1.5489  1.1085 -0.7374
  663MOL0     H89482   7.001   9.684   4.166 -1.0577 -2.0307 -1.5088
  663MOL0     H89483   6.810   9.823   4.190 -3.1514 -2.6782  1.2423
  663MOL0     H89484   6.800   9.850   4.012  0.8819 -1.7043 -1.6029
  663MOL0     H89485   7.729   9.447   3.606  0.8310 -0.8806 -0.0391
  663MOL0     H89486   7.931   9.408   3.490 -2.4659 -1.2406  2.7031
  663MOL0     H89487   8.094   9.668   2.896 -0.0757 -0.0142  0.0613
  663MOL0     H89488   8.349   9.660   2.810 -1.5060 -1.5011 -0.8706
  663MOL0     H89489   9.725   9.680   2.918  0.2590  1.1989 -0.0489
  663MOL0     H89490   9.795   9.466   3.002 -1.4547 -0.5767  0.6676
  663MOL0     H89491  10.102   9.240   3.296  1.0559 -3.2669 -0.3788
  663MOL0     H89492  10.164   9.041   3.396  1.5900  2.5862 -0.6491
  663MOL0     H89493  10.207   8.938   3.593  1.9752 -0.9397  0.7805
  663MOL0     H89494  10.173   8.831   3.454  2.9353  3.5159  0.1090
  663MOL0     H89495  10.112   8.648   3.581 -3.5210  3.4389  1.4403
  663MOL0     H89496  10.118   8.725   3.730 -2.3029  1.3347 -0.5404
  663MOL0     H89497  10.372   8.754   3.709  0.1967 -1.9308  1.3964
  663MOL0     H89498  10.369   8.694   3.547  1.8497  2.4264  0.6141
  663MOL0     H89499  10.256   8.470   3.682 -1.6075  0.4528  1.8728
  663MOL0     H89500  10.422   8.509   3.634 -0.2396  1.1432 -1.2065
  663MOL0     H89501  10.468   8.527   4.044 -0.5658  2.0395 -0.1221
  663MOL0     H89502   9.769   9.009   3.581 -0.2101  0.3792 -0.3419
  663MOL0     H89503   9.615   9.259   3.447 -0.5671  1.7730 -0.2110
  663MOL0     H89504   9.654   9.189   3.613 -2.6713  0.4518 -0.8152
  663MOL0     H89505   9.703   9.350   3.565  2.4433 -0.4085 -1.1605
  664MOL0     O89506   7.928   6.749   4.423 -0.0162  0.0448 -0.8616
  664MOL0     C89507   7.824   6.720   4.487 -1.4613 -0.5407  0.2626
  664MOL0     O89508   7.801   6.601   4.545  0.1706 -0.0829  0.2429
  664MOL0     C89509   7.913   6.544   4.606 -0.1738 -0.0061  0.1376
  664MOL0     C89510   7.934   6.535   4.745 -0.1502 -0.1811 -0.6071
  664MOL0     C89511   8.045   6.465   4.798 -0.0680 -0.3620  0.5233
  664MOL0     C89512   8.141   6.405   4.712  0.5418  1.0457 -0.3768
  664MOL0     O89513   8.255   6.338   4.772 -0.3042  0.7056 -0.3619
  664MOL0     C89514   8.252   6.197   4.746  0.6005 -0.3699  0.8089
  664MOL0     C89515   8.205   6.119   4.870 -0.5953 -0.4626  1.2368
  664MOL0     C89516   8.057   6.107   4.872  0.5388 -0.6067 -0.5893
  664MOL0     C89517   8.003   5.983   4.966 -0.6363  0.1655 -0.4742
  664MOL0     C89518   8.039   5.844   4.907 -0.5992 -0.5247  0.0162
  664MOL0     C89519   7.959   5.723   4.961 -0.2309  0.4395  0.3826
  664MOL0     C89520   8.013   5.594   4.896 -0.0027 -0.9361 -0.4544
  664MOL0     C89521   7.951   5.467   4.958  0.7020  0.4643  0.0061
  664MOL0     N89522   7.982   5.462   5.103 -0.6059 -0.0307  0.3735
  664MOL0     C89523   7.904   5.498   5.208  0.5026  0.1613  0.0303
  664MOL0     C89524   7.978   5.457   5.310  0.1453  0.0681  0.3284
  664MOL0     C89525   7.929   5.461   5.456 -0.4638 -0.2196  0.5210
  664MOL0     C89526   7.854   5.332   5.496  0.1982  0.6618  0.1224
  664MOL0     C89527   7.713   5.319   5.440  0.7016  0.0867  0.4451
  664MOL0     C89528   7.616   5.414   5.511 -0.0247 -0.4304 -0.1805
  664MOL0     O89529   7.627   5.388   5.653  0.1005  0.5477 -0.1724
  664MOL0     C89530   7.536   5.454   5.730  0.3505 -0.0845  0.4806
  664MOL0     C89531   7.425   5.542   5.686 -0.6426  0.4520  0.0711
  664MOL0     C89532   7.347   5.610   5.783  0.3545 -1.1474 -0.2206
  664MOL0     C89533   7.371   5.589   5.920  0.1043 -0.2483 -0.1237
  664MOL0     C89534   7.283   5.651   6.027  0.3277 -0.4043  0.6233
  664MOL0     O89535   7.177   5.732   5.987  0.2397  0.3549 -0.3945
  664MOL0     C89536   7.098   5.785   6.088  0.5411  1.4067 -0.0811
  664MOL0     C89537   7.156   5.887   6.169  1.1042  0.0613 -0.9303
  664MOL0     C89538   7.091   5.938   6.284  0.6475 -0.5090 -0.2750
  664MOL0     C89539   6.946   5.908   6.301 -0.0817 -0.9355  0.0084
  664MOL0     O89540   6.872   5.969   6.399  0.4472 -0.5396  0.0728
  664MOL0     C89541   6.846   6.112   6.351  0.2795 -0.3421 -0.9810
  664MOL0     C89542   6.722   6.172   6.432 -0.8636 -0.3482  0.7724
  664MOL0     C89543   6.741   6.189   6.581  0.4989 -0.0951 -0.0669
  664MOL0     C89544   6.647   6.300   6.643  0.3762 -0.7252  0.1272
  664MOL0     C89545   6.680   6.323   6.794  0.3245  0.0047 -0.8781
  664MOL0     C89546   6.605   6.444   6.851 -0.0011  0.6039  0.3459
  664MOL0     C89547   6.636   6.500   6.995 -0.1322  0.5351 -0.1802
  664MOL0     C89548   6.538   6.600   7.041  0.7134  0.0576 -0.2455
  664MOL0    Cl89549   6.369   6.535   7.038 -0.2059  0.0168  0.0083
  664MOL0     C89550   6.897   5.804   6.216 -1.1662 -0.1023 -0.5824
  664MOL0     C89551   6.967   5.746   6.114 -0.6440  0.2010  0.1641
  664MOL0     O89552   7.311   5.616   6.140  0.6403 -0.5626 -0.0450
  664MOL0     C89553   7.487   5.521   5.958  0.8916 -0.1082 -0.5168
  664MOL0     C89554   7.561   5.450   5.865 -1.1539  0.2494 -0.7604
  664MOL0     N89555   8.086   5.379   5.266 -0.1336 -0.1041 -0.1022
  664MOL0     N89556   8.089   5.393   5.146  0.1533 -0.1529 -0.1071
  664MOL0     C89557   8.116   6.407   4.577 -0.0065  0.8331  0.3160
  664MOL0     C89558   8.005   6.478   4.521  1.3645 -0.4453 -0.9638
  664MOL0     C89559   7.717   6.813   4.484  0.7840  0.0610 -0.8283
  664MOL0     C89560   7.589   6.769   4.437 -0.1668  0.2241  0.4633
  664MOL0     C89561   7.472   6.853   4.408 -0.5247  0.0748  0.0104
  664MOL0     C89562   7.490   6.991   4.432 -0.2264  0.7617 -0.2769
  664MOL0     O89563   7.394   7.081   4.414  0.4530  0.3530  0.4990
  664MOL0     C89564   7.289   7.040   4.323 -0.0724  0.0590  0.7312
  664MOL0     C89565   7.213   7.165   4.289 -0.3652 -0.1470 -1.0306
  664MOL0     C89566   7.103   7.209   4.391 -0.6718 -0.4386  0.0937
  664MOL0     C89567   7.074   7.357   4.372 -0.5988 -0.8493  0.0038
  664MOL0     C89568   6.956   7.388   4.452  0.0852  0.2353 -1.1614
  664MOL0     C89569   6.858   7.420   4.508  0.3308  1.5019 -0.5043
  664MOL0     C89570   7.616   7.036   4.488 -0.1040  0.4340 -0.1843
  664MOL0     C89571   7.727   6.950   4.512  0.5975 -0.3028 -1.4606
  664MOL0     C89572   7.852   7.015   4.571 -0.3203 -0.4926 -0.0694
  664MOL0     H89573   7.866   6.573   4.821  0.3769 -1.9217  0.8072
  664MOL0     H89574   8.066   6.482   4.903 -1.2809 -1.3556  0.9428
  664MOL0     H89575   8.204   6.174   4.651  2.2348 -0.3023 -0.0651
  664MOL0     H89576   8.355   6.170   4.720  0.7324  1.5524 -0.8711
  664MOL0     H89577   8.249   6.159   4.961  1.5560  0.4282 -0.1297
  664MOL0     H89578   8.237   6.015   4.862 -2.9445 -1.2877  1.6550
  664MOL0     H89579   8.018   6.103   4.770 -2.3951  0.9945  0.3434
  664MOL0     H89580   8.027   6.202   4.917  1.2270 -0.9689  0.6985
  664MOL0     H89581   8.055   5.985   5.062  0.2121 -3.3811 -0.7200
  664MOL0     H89582   7.897   5.991   4.991 -0.6176  0.2192 -0.4092
  664MOL0     H89583   8.036   5.839   4.798 -0.1928 -1.3412  0.0346
  664MOL0     H89584   8.143   5.829   4.938  0.0749  2.2206 -0.6765
  664MOL0     H89585   7.972   5.710   5.069  0.9372 -5.5638 -0.1406
  664MOL0     H89586   7.852   5.727   4.941 -0.1149 -1.5095 -0.8239
  664MOL0     H89587   8.122   5.590   4.910 -0.2888 -2.1407  1.9991
  664MOL0     H89588   7.992   5.595   4.789  2.3137  1.6940 -1.0015
  664MOL0     H89589   7.843   5.468   4.943  0.7602  2.1272 -0.5272
  664MOL0     H89590   8.003   5.389   4.902 -1.2751  1.2330 -3.2228
  664MOL0     H89591   7.799   5.524   5.210  0.0370 -1.2357 -2.3862
  664MOL0     H89592   8.009   5.467   5.531  1.1307  1.6722 -1.1952
  664MOL0     H89593   7.864   5.547   5.473 -0.2567 -0.4127  2.4827
  664MOL0     H89594   7.916   5.250   5.457  1.9423  3.2519 -2.9932
  664MOL0     H89595   7.849   5.323   5.605 -0.0949  2.7018  0.3181
  664MOL0     H89596   7.675   5.217   5.447 -1.3879  0.7655 -0.1591
  664MOL0     H89597   7.715   5.354   5.337 -0.7636  1.6964  0.9155
  664MOL0     H89598   7.515   5.396   5.472  1.0600 -0.9212 -2.9325
  664MOL0     H89599   7.640   5.519   5.490  0.0452 -0.8870 -2.7142
  664MOL0     H89600   7.396   5.560   5.583 -0.7678 -0.2890 -0.0256
  664MOL0     H89601   7.274   5.683   5.748  1.1206 -0.5575 -0.6260
  664MOL0     H89602   7.262   5.908   6.160  1.1614  0.4037  0.3910
  664MOL0     H89603   7.146   6.010   6.343 -0.1535  0.6347 -0.8842
  664MOL0     H89604   6.929   6.174   6.385 -0.8153  0.1363  0.9952
  664MOL0     H89605   6.833   6.126   6.243  0.5815 -1.2729 -1.1509
  664MOL0     H89606   6.698   6.270   6.391  1.4278 -1.0772 -2.7483
  664MOL0     H89607   6.638   6.103   6.415 -0.4952 -1.0205  1.5918
  664MOL0     H89608   6.705   6.093   6.620 -1.1416  0.6656  0.3836
  664MOL0     H89609   6.844   6.211   6.608  1.2389  2.3693 -4.1770
  664MOL0     H89610   6.544   6.269   6.627 -0.2818 -0.5013  3.2859
  664MOL0     H89611   6.651   6.397   6.592 -3.2290 -0.1110  0.8067
  664MOL0     H89612   6.789   6.328   6.794  1.0446 -6.4142 -2.9954
  664MOL0     H89613   6.662   6.236   6.859  4.1944  0.2078  0.7485
  664MOL0     H89614   6.630   6.535   6.795 -1.6826  1.6752  1.2704
  664MOL0     H89615   6.502   6.410   6.845  1.3618 -4.1405 -4.8968
  664MOL0     H89616   6.739   6.537   6.998  0.4643 -0.6326 -2.8039
  664MOL0     H89617   6.626   6.424   7.073 -1.7136  2.6276  1.7564
  664MOL0     H89618   6.562   6.647   7.137  0.6610 -0.8961  0.2445
  664MOL0     H89619   6.541   6.680   6.966 -0.7134 -0.0754 -0.4670
  664MOL0     H89620   6.798   5.764   6.232 -0.4695 -2.0731 -0.8542
  664MOL0     H89621   6.942   5.668   6.042  0.5548  0.6521 -0.7932
  664MOL0     H89622   7.509   5.526   6.064  0.1817 -2.1785 -0.2252
  664MOL0     H89623   7.643   5.399   5.915 -0.2251  2.8509  0.5164
  664MOL0     H89624   8.194   6.364   4.514  1.4476  1.3027  1.7290
  664MOL0     H89625   8.001   6.489   4.413  0.5468 -2.7242 -1.2078
  664MOL0     H89626   7.563   6.664   4.427 -1.9230  0.7657 -1.5422
  664MOL0     H89627   7.382   6.803   4.375 -1.8704  2.7416 -0.5831
  664MOL0     H89628   7.230   6.962   4.374 -0.3398  1.1788  2.2150
  664MOL0     H89629   7.325   7.011   4.224 -2.0388 -1.1198  0.3194
  664MOL0     H89630   7.158   7.157   4.195 -1.8509 -0.3878 -0.1753
  664MOL0     H89631   7.284   7.244   4.266 -0.2843  0.3373  0.7680
  664MOL0     H89632   7.139   7.191   4.492  1.2041  0.4388 -0.3769
  664MOL0     H89633   7.020   7.139   4.377  0.3735 -1.3427 -2.1355
  664MOL0     H89634   7.156   7.415   4.414  2.4611 -4.7004 -0.1847
  664MOL0     H89635   7.055   7.388   4.268  3.6475  0.3590 -0.5876
  664MOL0     H89636   6.765   7.441   4.558 -0.2559 -0.5498 -0.6341
  664MOL0     H89637   7.618   7.142   4.514 -5.1694  0.0021  3.3263
  664MOL0     H89638   7.949   6.970   4.546 -0.2011 -0.9323  1.1261
  664MOL0     H89639   7.864   7.121   4.551 -1.4659 -0.7823 -2.6136
  664MOL0     H89640   7.855   7.008   4.680  0.4524 -2.5305 -0.1717
  665MOL0     O89641   7.907   0.032   8.505  0.4609 -0.3944 -0.7336
  665MOL0     C89642   7.969   0.116   8.450  0.9576  0.0148 -0.0392
  665MOL0     O89643   7.905   0.213   8.372 -0.5189  0.1246  0.3737
  665MOL0     C89644   7.772   0.220   8.377  0.2728 -1.2719  0.3542
  665MOL0     C89645   7.691   0.187   8.262  0.1613 -0.9591 -0.1941
  665MOL0     C89646   7.557   0.215   8.269  0.1508 -0.4279  0.9519
  665MOL0     C89647   7.497   0.285   8.375  0.3704  0.7851 -0.0091
  665MOL0     O89648   7.377   0.330   8.381  0.3875  0.4447  0.5413
  665MOL0     C89649   7.291   0.312   8.265  0.1603 -0.5920  0.0075
  665MOL0     C89650   7.152   0.353   8.304 -0.0911  0.9751 -0.1922
  665MOL0     C89651   7.089   0.274   8.419  0.6163  0.2661  0.4333
  665MOL0     C89652   6.957   0.316   8.468  0.2754 -0.1837 -0.1849
  665MOL0     C89653   6.901   0.224   8.577 -0.5280  0.3638 -0.4195
  665MOL0     C89654   6.799   0.274   8.685  0.1191 -0.1403  0.7454
  665MOL0     C89655   6.679   0.334   8.612 -0.1041 -0.5070  0.0529
  665MOL0     C89656   6.546   0.309   8.698 -0.6590  0.4328  0.4653
  665MOL0     N89657   6.433   0.393   8.652  0.3378 -1.0749  0.6533
  665MOL0     C89658   6.307   0.346   8.619  0.5530 -0.1301 -0.8588
  665MOL0     C89659   6.230   0.462   8.591 -0.2481  0.3908 -0.5251
  665MOL0     C89660   6.085   0.452   8.558  0.1774  0.7385 -0.2078
  665MOL0     C89661   6.056   0.399   8.413  0.0487 -0.1465 -0.3443
  665MOL0     C89662   6.066   0.242   8.411  0.1585 -0.7433 -0.0347
  665MOL0     C89663   5.975   0.195   8.299  0.2302  0.7275 -0.0208
  665MOL0     O89664   6.020   0.264   8.186  0.1253  0.4948  1.2472
  665MOL0     C89665   5.936   0.254   8.068  0.6798 -0.4819  0.1222
  665MOL0     C89666   5.846   0.146   8.043  0.2071 -0.2669 -0.1225
  665MOL0     C89667   5.772   0.138   7.930  0.4224 -0.5799  0.1801
  665MOL0     C89668   5.799   0.219   7.822  1.4333  0.2722 -0.4997
  665MOL0     C89669   5.727   0.204   7.694 -0.4421  0.2321 -0.6243
  665MOL0     O89670   5.762   0.297   7.601  0.3840  0.0932  0.0547
  665MOL0     C89671   5.710   0.270   7.474 -0.5559  0.1395 -1.6668
  665MOL0     C89672   5.639   0.358   7.404 -0.2480  0.7792  0.1608
  665MOL0     C89673   5.606   0.328   7.273 -0.1444 -1.6295 -0.1550
  665MOL0     C89674   5.643   0.212   7.207  0.0515 -0.5459  0.0422
  665MOL0     O89675   5.609   0.170   7.077 -0.6315 -0.1929  0.1546
  665MOL0     C89676   5.469   0.172   7.054 -0.9801  0.5381 -0.2277
  665MOL0     C89677   5.453   0.122   6.911  0.2251 -0.6518  0.9041
  665MOL0     C89678   5.315   0.143   6.853 -0.0274  0.9462 -0.3870
  665MOL0     C89679   5.276   0.291   6.843  0.6788  0.0975  0.5079
  665MOL0     C89680   5.156   0.326   6.746 -0.6568  0.4720 -0.3211
  665MOL0     C89681   5.123   0.479   6.744 -0.1837 -0.3589 -0.8644
  665MOL0     C89682   5.091   0.543   6.880 -0.2205 -0.0239  0.0551
  665MOL0     C89683   5.068   0.694   6.865 -0.2542  0.2085 -0.1438
  665MOL0    Cl89684   5.137   0.784   7.003  0.4761  0.3461  0.1577
  665MOL0     C89685   5.734   0.134   7.270 -0.3751 -0.6041  0.3277
  665MOL0     C89686   5.767   0.157   7.406  0.3421  0.3257 -0.8439
  665MOL0     O89687   5.639   0.112   7.675  0.6205  0.4971  0.4948
  665MOL0     C89688   5.883   0.325   7.845  0.2486  0.0437 -0.3917
  665MOL0     C89689   5.948   0.348   7.968  0.4747  0.7577  0.3723
  665MOL0     N89690   6.314   0.573   8.596 -0.7703  0.0477  0.3604
  665MOL0     N89691   6.434   0.530   8.644  0.1343  0.3290 -0.4087
  665MOL0     C89692   7.574   0.325   8.482  0.1692  0.7241  1.0138
  665MOL0     C89693   7.710   0.293   8.489 -0.2054  0.3242  0.1765
  665MOL0     C89694   8.119   0.103   8.447  0.6083  0.7654  0.4378
  665MOL0     C89695   8.188   0.159   8.346  0.8466  0.1987 -0.4374
  665MOL0     C89696   8.327   0.137   8.341 -0.1726 -0.2791  0.1775
  665MOL0     C89697   8.400   0.047   8.415 -0.7996 -0.3838 -0.2451
  665MOL0     O89698   8.531   0.034   8.380 -0.7380 -0.3283  0.5510
  665MOL0     C89699   8.596  -0.087   8.425  0.2730 -0.0258  0.6435
  665MOL0     C89700   8.708  -0.131   8.332  0.3938  0.8535 -0.7431
  665MOL0     C89701   8.745  -0.279   8.373  0.1831  0.7299 -0.3274
  665MOL0     C89702   8.647  -0.383   8.309 -0.3426  0.7660  0.7939
  665MOL0     C89703   8.669  -0.515   8.376 -0.2697  0.5049 -0.1533
  665MOL0     C89704   8.674  -0.640   8.397  0.1795 -0.3152 -0.3483
  665MOL0     C89705   8.329  -0.002   8.522 -0.7173  0.1060  0.2469
  665MOL0     C89706   8.194   0.018   8.533  0.5234  0.5673 -0.0465
  665MOL0     C89707   8.127  -0.040   8.661  0.3176 -0.4779 -0.0517
  665MOL0     H89708   7.735   0.156   8.168  0.6089 -0.7366 -0.0593
  665MOL0     H89709   7.496   0.180   8.187  0.7845  1.6394 -0.5026
  665MOL0     H89710   7.316   0.366   8.173 -0.7808  0.9378  0.6183
  665MOL0     H89711   7.298   0.204   8.250  0.0240 -0.6484  0.3406
  665MOL0     H89712   7.083   0.331   8.222 -0.4121  1.4746 -0.0572
  665MOL0     H89713   7.147   0.460   8.324 -0.8632  0.9210 -0.0605
  665MOL0     H89714   7.152   0.274   8.509 -1.9903  0.4064  2.3752
  665MOL0     H89715   7.085   0.167   8.397  2.0599  0.4404 -0.8840
  665MOL0     H89716   6.948   0.417   8.509 -2.4835 -1.5834  3.1771
  665MOL0     H89717   6.887   0.324   8.385  1.5178  4.3286 -1.0721
  665MOL0     H89718   6.848   0.142   8.527 -1.3597 -0.5373  1.7985
  665MOL0     H89719   6.982   0.180   8.637 -1.4745  1.6008  1.8874
  665MOL0     H89720   6.777   0.212   8.772  2.1429 -0.2234  1.2460
  665MOL0     H89721   6.855   0.357   8.730 -0.1705 -0.4049  1.5986
  665MOL0     H89722   6.664   0.296   8.510  0.6540  0.8581 -0.5845
  665MOL0     H89723   6.700   0.441   8.611  1.3790 -0.7648 -1.4239
  665MOL0     H89724   6.528   0.201   8.692 -0.3701  0.1567  3.3439
  665MOL0     H89725   6.568   0.326   8.804 -0.9214  2.9590  0.1684
  665MOL0     H89726   6.271   0.245   8.602  0.8891 -0.1773 -1.2905
  665MOL0     H89727   6.040   0.402   8.644  0.2993  1.8715  0.5343
  665MOL0     H89728   6.047   0.555   8.568  1.8858  1.2321  1.8186
  665MOL0     H89729   5.951   0.420   8.389  0.2254 -0.1606 -1.1586
  665MOL0     H89730   6.115   0.444   8.333  0.6399 -2.0382 -1.0093
  665MOL0     H89731   6.039   0.193   8.505  0.3504  0.8818  0.9077
  665MOL0     H89732   6.171   0.213   8.400  0.4063  0.1784 -0.1801
  665MOL0     H89733   5.873   0.229   8.322  1.7066  3.9870  2.6637
  665MOL0     H89734   5.975   0.086   8.298  0.6504  0.6926  1.4691
  665MOL0     H89735   5.840   0.067   8.116  3.3448 -1.5213 -1.0651
  665MOL0     H89736   5.692   0.065   7.931 -0.9558  0.6862  4.0727
  665MOL0     H89737   5.600   0.447   7.451 -0.2670  0.5409  0.6006
  665MOL0     H89738   5.550   0.404   7.219 -0.4997 -2.4640 -0.9761
  665MOL0     H89739   5.432   0.115   7.140  1.0627  1.7008  1.5168
  665MOL0     H89740   5.427   0.271   7.072  0.5190  1.0362  0.7084
  665MOL0     H89741   5.524   0.166   6.841  1.6551  0.0577  2.7375
  665MOL0     H89742   5.475   0.015   6.902  0.0147 -0.5704 -1.0575
  665MOL0     H89743   5.301   0.096   6.756  0.3282  0.1520 -0.0641
  665MOL0     H89744   5.232   0.099   6.910  0.7721 -1.4453 -0.9527
  665MOL0     H89745   5.366   0.352   6.827  0.3019  0.8597  1.2315
  665MOL0     H89746   5.232   0.323   6.937  0.4302  1.4469 -0.0457
  665MOL0     H89747   5.071   0.262   6.771 -0.1550 -2.0644 -4.2704
  665MOL0     H89748   5.195   0.289   6.651 -0.6419  1.2870 -0.6356
  665MOL0     H89749   5.204   0.544   6.709 -0.0017  2.2205  3.5597
  665MOL0     H89750   5.035   0.482   6.679 -3.2200 -2.0883  2.6970
  665MOL0     H89751   5.185   0.531   6.935  0.8003  1.5553 -1.2661
  665MOL0     H89752   5.014   0.490   6.938  0.1055 -3.3999 -2.3056
  665MOL0     H89753   5.101   0.739   6.771 -2.1271  1.1319 -0.4036
  665MOL0     H89754   4.959   0.705   6.861 -0.5130 -2.2314 -1.3124
  665MOL0     H89755   5.784   0.050   7.223 -0.5173 -0.1332 -0.7006
  665MOL0     H89756   5.837   0.102   7.469 -0.4594  0.3968  0.1302
  665MOL0     H89757   5.898   0.406   7.774  1.2019  0.4576  0.2679
  665MOL0     H89758   6.005   0.439   7.981  1.7146 -0.2729  2.5965
  665MOL0     H89759   7.537   0.378   8.569 -0.1794  3.8820 -0.8857
  665MOL0     H89760   7.775   0.323   8.570 -0.2544 -0.7075  0.6103
  665MOL0     H89761   8.148   0.223   8.267  0.3129 -0.4045 -0.6629
  665MOL0     H89762   8.382   0.198   8.270 -2.9469  2.2855  0.0240
  665MOL0     H89763   8.527  -0.170   8.444 -0.0017 -0.4802 -2.0025
  665MOL0     H89764   8.643  -0.067   8.522  1.4293  1.6818 -0.2376
  665MOL0     H89765   8.798  -0.076   8.358  1.8071 -1.9234  0.6742
  665MOL0     H89766   8.687  -0.114   8.226 -2.8010 -0.9014 -0.5303
  665MOL0     H89767   8.741  -0.285   8.483  1.3473  4.7359  0.1023
  665MOL0     H89768   8.843  -0.308   8.335 -1.4651  0.6823 -5.1436
  665MOL0     H89769   8.544  -0.348   8.293 -0.2053  0.5970 -0.5943
  665MOL0     H89770   8.691  -0.391   8.209 -1.4411 -2.4238  0.4758
  665MOL0     H89771   8.684  -0.745   8.414  2.0809  0.1695  2.1313
  665MOL0     H89772   8.387  -0.052   8.598  1.0030  0.1396 -0.9794
  665MOL0     H89773   8.098   0.038   8.732  1.3644 -0.1138 -0.0118
  665MOL0     H89774   8.058  -0.123   8.640  1.6332 -1.4004 -0.8395
  665MOL0     H89775   8.197  -0.100   8.720 -0.5472 -2.0868 -0.5883
  666MOL0     O89776   9.348  11.384   5.079 -0.3501  0.8300 -0.1143
  666MOL0     C89777   9.424  11.296   5.040 -0.6271  1.6242 -0.6884
  666MOL0     O89778   9.557  11.291   5.072 -0.5846  0.7086 -0.2547
  666MOL0     C89779   9.612  11.390   5.140  0.4696 -0.1210  0.3414
  666MOL0     C89780   9.695  11.482   5.080  0.2179 -0.2831 -0.0262
  666MOL0     C89781   9.751  11.586   5.153 -0.2955 -0.2367  0.2511
  666MOL0     C89782   9.715  11.614   5.287 -0.1798  0.9792 -0.1593
  666MOL0     O89783   9.748  11.724   5.361 -0.7739 -0.4197 -0.0189
  666MOL0     C89784   9.878  11.782   5.351  0.3496  0.3334  0.0164
  666MOL0     C89785   9.955  11.762   5.482  0.8321  0.6639 -0.0794
  666MOL0     C89786  10.031  11.627   5.466  0.1310 -0.1808 -0.4576
  666MOL0     C89787   9.993  11.530   5.575 -0.4588 -0.2934 -0.3950
  666MOL0     C89788  10.061  11.391   5.557  0.4495  0.1819 -0.3767
  666MOL0     C89789  10.039  11.325   5.429  0.2663 -0.9180  0.3727
  666MOL0     C89790   9.890  11.258   5.422  0.4573 -0.0115 -0.6215
  666MOL0     C89791   9.896  11.108   5.414 -0.1173 -0.2105  1.0946
  666MOL0     N89792   9.759  11.051   5.395  0.2613 -0.2829 -0.7710
  666MOL0     C89793   9.657  11.054   5.490  0.4524 -0.3352  0.2950
  666MOL0     C89794   9.553  10.984   5.430  0.4994  0.9537 -0.4794
  666MOL0     C89795   9.409  10.957   5.463  0.1282 -0.7612 -0.0676
  666MOL0     C89796   9.376  10.811   5.473 -0.8379 -0.0967 -1.1101
  666MOL0     C89797   9.232  10.782   5.511 -0.2891 -0.6044  0.1195
  666MOL0     C89798   9.202  10.641   5.538 -0.0555  0.1649 -0.3360
  666MOL0     O89799   9.142  10.585   5.418  0.6548  0.8945 -0.1570
  666MOL0     C89800   9.102  10.450   5.410  0.4440 -0.3103 -0.6466
  666MOL0     C89801   9.001  10.415   5.323  0.0357  1.0048  0.2289
  666MOL0     C89802   8.945  10.288   5.328  0.3587  0.0446  0.2726
  666MOL0     C89803   8.996  10.186   5.411  0.7193  0.2474 -0.5462
  666MOL0     C89804   8.927  10.056   5.423  0.4975 -0.3628  0.3656
  666MOL0     O89805   8.970   9.987   5.526 -0.2751 -0.4715 -0.5315
  666MOL0     C89806   8.909   9.871   5.550 -0.0636 -0.5606 -0.1673
  666MOL0     C89807   8.968   9.752   5.498 -0.8527  0.5884 -1.0290
  666MOL0     C89808   8.911   9.629   5.533  0.6041 -0.4160  0.4283
  666MOL0     C89809   8.784   9.622   5.600  1.0413 -0.5456  1.0300
  666MOL0     O89810   8.709   9.499   5.600 -0.7296  0.4714  0.3699
  666MOL0     C89811   8.735   9.407   5.491  0.2749  0.6061  0.4448
  666MOL0     C89812   8.627   9.304   5.495 -0.2620  0.5535 -0.4401
  666MOL0     C89813   8.480   9.361   5.491 -0.5104 -0.3515  1.0167
  666MOL0     C89814   8.447   9.412   5.348  0.5543  0.6463  0.3022
  666MOL0     C89815   8.305   9.452   5.325 -1.1512 -1.2124 -0.9589
  666MOL0     C89816   8.281   9.510   5.192 -0.0368  0.5927  0.6953
  666MOL0     C89817   8.136   9.541   5.163  1.2162 -0.0172  0.2444
  666MOL0     C89818   8.108   9.621   5.037 -0.7159 -0.2038  0.0401
  666MOL0    Cl89819   8.134   9.511   4.906 -0.2167 -0.1961  0.1454
  666MOL0     C89820   8.722   9.737   5.646 -0.0450 -0.2609  0.1018
  666MOL0     C89821   8.783   9.867   5.620 -0.8550 -0.9093  0.0106
  666MOL0     O89822   8.836  10.025   5.340 -0.1851  0.0302 -0.1308
  666MOL0     C89823   9.102  10.223   5.499  0.5564 -0.1549  0.5481
  666MOL0     C89824   9.153  10.358   5.499 -0.8769 -0.4727 -0.2062
  666MOL0     N89825   9.597  10.940   5.307 -0.3644  0.2220  0.1780
  666MOL0     N89826   9.718  10.984   5.285 -0.4376 -0.1299 -0.0283
  666MOL0     C89827   9.628  11.517   5.345  0.1399  0.9325  0.0101
  666MOL0     C89828   9.576  11.405   5.282 -0.6229  0.0286 -0.5566
  666MOL0     C89829   9.368  11.183   4.960 -0.5844  0.5982 -0.2342
  666MOL0     C89830   9.430  11.054   4.959 -0.5802 -0.8761 -0.2506
  666MOL0     C89831   9.383  10.961   4.864  0.4717 -0.8293  0.0057
  666MOL0     C89832   9.280  10.979   4.776 -0.2590 -0.4496  0.4177
  666MOL0     O89833   9.225  10.889   4.683 -0.1388  0.1780  0.7076
  666MOL0     C89834   9.294  10.767   4.657  0.1754 -0.5793  0.5267
  666MOL0     C89835   9.192  10.673   4.602 -1.2222  0.6379 -0.1122
  666MOL0     C89836   9.260  10.530   4.585 -0.4030 -0.0257  1.0797
  666MOL0     C89837   9.176  10.412   4.537  0.2559  1.2958 -0.6763
  666MOL0     C89838   9.087  10.361   4.645 -0.7329  0.1469  0.5357
  666MOL0     C89839   9.002  10.321   4.722  0.3298  0.9061 -0.7365
  666MOL0     C89840   9.220  11.107   4.776 -0.1189  0.6043 -0.2757
  666MOL0     C89841   9.251  11.205   4.877 -0.4700  0.9160  0.5132
  666MOL0     C89842   9.171  11.326   4.869 -0.2209  0.1164  0.4385
  666MOL0     H89843   9.725  11.470   4.976  1.3960 -1.3189  0.4095
  666MOL0     H89844   9.824  11.657   5.115 -1.3529  2.2406  2.4553
  666MOL0     H89845   9.927  11.739   5.264  0.7864 -0.0135  0.4258
  666MOL0     H89846   9.856  11.888   5.333 -3.5632  0.0307  1.8212
  666MOL0     H89847   9.894  11.768   5.572  1.6073  0.1820  0.4826
  666MOL0     H89848  10.023  11.848   5.482  1.9287 -0.1868  0.0362
  666MOL0     H89849  10.139  11.644   5.468  0.3299 -1.3425 -0.7227
  666MOL0     H89850   9.999  11.581   5.373 -0.8956 -0.3265 -0.0420
  666MOL0     H89851  10.020  11.571   5.673 -0.5384 -0.4406 -0.3109
  666MOL0     H89852   9.885  11.512   5.576 -0.4294 -0.4563  0.4383
  666MOL0     H89853  10.170  11.400   5.564  0.2931  0.9859  3.5415
  666MOL0     H89854  10.020  11.331   5.639  0.4591 -0.4259 -0.8110
  666MOL0     H89855  10.056  11.386   5.340  2.1070 -0.4451  1.0032
  666MOL0     H89856  10.108  11.240   5.420 -0.3214 -1.1769 -3.3961
  666MOL0     H89857   9.858  11.280   5.319 -0.6519 -0.6547 -0.4220
  666MOL0     H89858   9.823  11.293   5.500  2.7919  1.7705  0.7244
  666MOL0     H89859   9.951  11.087   5.322 -0.3448  0.4913  0.7906
  666MOL0     H89860   9.956  11.054   5.488 -0.9165 -1.0536  1.1410
  666MOL0     H89861   9.653  11.115   5.580  0.8671 -1.0698  0.8281
  666MOL0     H89862   9.384  11.002   5.560 -3.7690 -0.6240 -0.9809
  666MOL0     H89863   9.349  11.010   5.388  1.8477  0.2439 -0.8095
  666MOL0     H89864   9.398  10.749   5.385  0.7596 -0.9417 -0.1578
  666MOL0     H89865   9.433  10.771   5.558 -0.9346  2.9069  0.4895
  666MOL0     H89866   9.179  10.819   5.423  0.3415 -1.0588 -0.4605
  666MOL0     H89867   9.214  10.847   5.598  0.7332 -0.4154  0.2063
  666MOL0     H89868   9.119  10.626   5.608 -0.4089  3.1602 -0.0037
  666MOL0     H89869   9.291  10.585   5.570 -1.4200 -2.1972 -0.3964
  666MOL0     H89870   8.951  10.476   5.249  2.2480  0.9028 -1.4370
  666MOL0     H89871   8.865  10.257   5.261  0.3517 -2.1352  1.2096
  666MOL0     H89872   9.065   9.755   5.450  0.4563  0.5516  1.4613
  666MOL0     H89873   8.977   9.548   5.505  1.3576 -0.3829  2.0177
  666MOL0     H89874   8.730   9.449   5.390  0.0818 -2.3502 -0.8700
  666MOL0     H89875   8.831   9.358   5.510 -0.1411 -1.0973 -1.4734
  666MOL0     H89876   8.646   9.221   5.426  2.9375  1.1105 -0.3586
  666MOL0     H89877   8.629   9.263   5.597 -1.5066 -3.3751 -1.8095
  666MOL0     H89878   8.411   9.279   5.517 -0.9786 -1.0360 -2.0675
  666MOL0     H89879   8.463   9.440   5.565 -2.6330  0.6638 -0.4650
  666MOL0     H89880   8.478   9.341   5.271  1.0693  1.2763 -0.0826
  666MOL0     H89881   8.513   9.497   5.327  0.8372  1.0014  2.4171
  666MOL0     H89882   8.274   9.508   5.413 -0.3965  1.1772 -2.1287
  666MOL0     H89883   8.250   9.358   5.333  0.1419 -1.8899  0.8798
  666MOL0     H89884   8.345   9.595   5.166 -0.3721 -0.6155 -5.6727
  666MOL0     H89885   8.316   9.431   5.126  1.2257  0.3596  1.5982
  666MOL0     H89886   8.097   9.596   5.249  0.0716 -2.6374  1.5329
  666MOL0     H89887   8.082   9.445   5.163  0.7955  0.2052  1.1556
  666MOL0     H89888   8.005   9.660   5.037 -0.8513 -0.5440 -0.5029
  666MOL0     H89889   8.177   9.704   5.022  1.1078 -1.8467 -1.1624
  666MOL0     H89890   8.629   9.729   5.700 -0.8125  2.3253 -0.7437
  666MOL0     H89891   8.744   9.963   5.652 -1.8711 -1.5333  0.7175
  666MOL0     H89892   9.153  10.145   5.554  3.2931 -1.6531 -3.6344
  666MOL0     H89893   9.227  10.378   5.577 -2.8393  1.1148  1.3598
  666MOL0     H89894   9.605  11.527   5.451 -2.6417 -0.2600 -0.3771
  666MOL0     H89895   9.492  11.353   5.326  0.8032 -0.5369  1.6033
  666MOL0     H89896   9.515  11.049   5.026 -0.6876  2.6477  0.3430
  666MOL0     H89897   9.440  10.869   4.876 -0.9004 -1.4998  1.8046
  666MOL0     H89898   9.339  10.726   4.748 -0.0924  1.2897  1.5681
  666MOL0     H89899   9.372  10.791   4.585 -0.7216  0.8462 -0.0192
  666MOL0     H89900   9.167  10.707   4.501  3.1604 -1.5155 -2.1970
  666MOL0     H89901   9.098  10.678   4.659 -2.0645  0.7682 -1.4474
  666MOL0     H89902   9.281  10.501   4.689 -1.0654 -2.5801  0.5900
  666MOL0     H89903   9.349  10.541   4.524 -1.7749  0.8776 -0.8571
  666MOL0     H89904   9.116  10.421   4.446  0.7830 -0.1121 -1.1999
  666MOL0     H89905   9.245  10.329   4.518  1.1659  2.1171 -1.0429
  666MOL0     H89906   8.928  10.276   4.783 -1.4947  1.8162 -2.1794
  666MOL0     H89907   9.136  11.139   4.715 -2.2730  3.5306  3.7020
  666MOL0     H89908   9.217  11.411   4.819 -0.1355 -0.8159 -1.1372
  666MOL0     H89909   9.088  11.312   4.799  1.2431  0.1160 -1.3619
  666MOL0     H89910   9.133  11.346   4.969  0.4196  2.8019  0.2227
  667MOL0     O89911   3.628   0.593   2.631 -0.1012  0.1075  0.1928
  667MOL0     C89912   3.553   0.534   2.553 -0.7947  0.3927 -0.4365
  667MOL0     O89913   3.598   0.441   2.465  0.7058 -0.1977  0.4082
  667MOL0     C89914   3.723   0.378   2.469  0.0574 -0.8639 -0.1310
  667MOL0     C89915   3.791   0.342   2.589  0.9327  1.3128 -1.0770
  667MOL0     C89916   3.915   0.273   2.590  0.5378 -0.3718  0.3420
  667MOL0     C89917   3.989   0.264   2.470 -0.1489 -0.1724  0.5566
  667MOL0     O89918   4.103   0.193   2.456 -0.3360 -0.5881  0.5166
  667MOL0     C89919   4.198   0.203   2.560  0.2326  0.3238  0.0510
  667MOL0     C89920   4.255   0.350   2.572 -0.7557  0.4755 -0.0215
  667MOL0     C89921   4.402   0.353   2.627  0.7163 -0.3220  0.2683
  667MOL0     C89922   4.446   0.488   2.677  0.7325 -0.7923 -0.2421
  667MOL0     C89923   4.404   0.539   2.811  0.1345  0.5665 -0.0933
  667MOL0     C89924   4.411   0.439   2.926 -0.0475  0.9416  0.6937
  667MOL0     C89925   4.543   0.376   2.979  0.1276  0.5099 -0.9235
  667MOL0     C89926   4.658   0.478   3.007 -0.4988 -0.2524 -0.5784
  667MOL0     N89927   4.766   0.486   2.901  0.4115 -0.3632  0.9917
  667MOL0     C89928   4.829   0.383   2.827 -0.3449  0.7932 -0.2991
  667MOL0     C89929   4.933   0.451   2.761  0.4073  0.7565  0.2230
  667MOL0     C89930   5.040   0.391   2.675  0.5983 -0.2367  0.2707
  667MOL0     C89931   5.165   0.484   2.656  0.5089  0.2995 -0.2265
  667MOL0     C89932   5.123   0.617   2.586  0.4432  0.5657  1.1086
  667MOL0     C89933   5.232   0.665   2.483 -0.9127 -0.4732 -1.0249
  667MOL0     O89934   5.350   0.704   2.557 -0.0490  0.1683 -0.1956
  667MOL0     C89935   5.452   0.752   2.482  0.1559 -0.4016 -0.6169
  667MOL0     C89936   5.515   0.865   2.522  0.1125 -0.3015 -0.7266
  667MOL0     C89937   5.609   0.933   2.450 -0.8027 -0.7136  0.8653
  667MOL0     C89938   5.655   0.872   2.326 -0.2172 -1.0693  0.1330
  667MOL0     C89939   5.764   0.939   2.257 -0.0606  0.2234  0.2605
  667MOL0     O89940   5.823   0.860   2.159 -0.4562 -0.1906  0.6217
  667MOL0     C89941   5.951   0.896   2.106  0.3679  0.5067 -0.3696
  667MOL0     C89942   5.971   0.932   1.974  0.2787 -0.2359  0.3813
  667MOL0     C89943   6.100   0.950   1.931  0.2817  0.0174  0.1730
  667MOL0     C89944   6.210   0.947   2.013  0.1011 -0.2259 -0.0029
  667MOL0     O89945   6.323   0.980   1.949  0.3226 -0.5280 -0.4046
  667MOL0     C89946   6.403   1.083   2.004  0.7988 -0.4129  0.4196
  667MOL0     C89947   6.373   1.221   1.942 -1.1102 -0.2098 -0.4158
  667MOL0     C89948   6.358   1.218   1.787 -0.5716  0.2269 -0.6315
  667MOL0     C89949   6.400   1.356   1.717 -0.5672 -0.6330  0.1129
  667MOL0     C89950   6.373   1.351   1.566  0.0473  0.3477 -0.0202
  667MOL0     C89951   6.224   1.359   1.533  0.0727 -0.1715  0.8035
  667MOL0     C89952   6.204   1.357   1.376  0.8605 -0.8216 -0.3662
  667MOL0     C89953   6.051   1.391   1.341 -0.3420 -0.3010  0.2249
  667MOL0    Cl89954   6.015   1.560   1.393  0.1513  0.2305 -0.3843
  667MOL0     C89955   6.196   0.903   2.139 -0.6413 -0.4756 -0.2354
  667MOL0     C89956   6.067   0.880   2.188  0.5160  0.1409  0.7317
  667MOL0     O89957   5.804   1.055   2.285  0.2442 -0.6630  0.0578
  667MOL0     C89958   5.604   0.747   2.290  0.4180  0.1751 -0.3186
  667MOL0     C89959   5.504   0.686   2.369  0.4010 -0.8546 -0.2605
  667MOL0     N89960   4.928   0.580   2.808 -0.8963 -0.1242 -0.1766
  667MOL0     N89961   4.832   0.603   2.885  0.2795  0.1376 -0.4517
  667MOL0     C89962   3.918   0.293   2.353  0.2118 -0.0354 -0.5363
  667MOL0     C89963   3.793   0.353   2.352 -1.4906 -0.0416  0.9861
  667MOL0     C89964   3.421   0.577   2.546  0.3677 -0.6758 -0.0407
  667MOL0     C89965   3.318   0.520   2.628 -0.0497 -0.5004 -0.8910
  667MOL0     C89966   3.179   0.573   2.618  0.6878 -0.4284 -0.2667
  667MOL0     C89967   3.146   0.675   2.529 -0.7160  0.8150 -0.5273
  667MOL0     O89968   3.026   0.740   2.538  0.3701 -0.1308  0.1797
  667MOL0     C89969   2.978   0.832   2.436 -0.0603 -0.5690  0.5282
  667MOL0     C89970   2.947   0.764   2.300  0.5861 -0.0952  0.9986
  667MOL0     C89971   2.859   0.636   2.304 -0.3113  0.4932  1.0582
  667MOL0     C89972   2.838   0.578   2.169 -1.0426  0.4001  0.2084
  667MOL0     C89973   2.773   0.444   2.189 -0.1015 -0.3197 -1.0789
  667MOL0     C89974   2.737   0.336   2.229  0.9451 -0.3839 -0.4824
  667MOL0     C89975   3.251   0.723   2.447  0.3593 -0.0666  0.4748
  667MOL0     C89976   3.383   0.679   2.451 -0.1698 -0.4031  0.7555
  667MOL0     C89977   3.473   0.752   2.359 -1.3794  0.0196 -0.0219
  667MOL0     H89978   3.734   0.349   2.681  2.1954  1.5438 -0.2929
  667MOL0     H89979   3.961   0.241   2.683  1.5206  0.1809  0.0618
  667MOL0     H89980   4.152   0.177   2.656  0.0157  0.3502 -0.0450
  667MOL0     H89981   4.277   0.129   2.548  0.7501  1.1215 -1.7289
  667MOL0     H89982   4.186   0.414   2.627 -0.1792  0.3669  0.8465
  667MOL0     H89983   4.250   0.393   2.472 -1.8008  0.8518  0.1876
  667MOL0     H89984   4.475   0.319   2.552 -1.2898 -0.2218 -1.8463
  667MOL0     H89985   4.414   0.282   2.709 -1.3905 -0.7557  0.2482
  667MOL0     H89986   4.555   0.486   2.670  0.6474 -1.0441 -1.7902
  667MOL0     H89987   4.406   0.556   2.602 -0.0062 -0.8417  0.0939
  667MOL0     H89988   4.458   0.630   2.840 -1.3343  0.9083  1.7490
  667MOL0     H89989   4.298   0.568   2.801  0.3527  0.5090 -4.5349
  667MOL0     H89990   4.359   0.486   3.010 -1.2175 -1.1440  1.1841
  667MOL0     H89991   4.347   0.352   2.909 -0.1214  1.3488 -1.4316
  667MOL0     H89992   4.579   0.286   2.928  2.9515 -2.3919  5.1638
  667MOL0     H89993   4.523   0.335   3.078 -3.2130  2.0844 -0.8174
  667MOL0     H89994   4.616   0.578   3.023  0.9778  0.5056 -1.1946
  667MOL0     H89995   4.715   0.440   3.092 -2.1068  1.0007  1.1552
  667MOL0     H89996   4.810   0.277   2.823  1.2291  0.4731  0.0781
  667MOL0     H89997   5.069   0.301   2.728 -1.1159 -0.8895  0.1830
  667MOL0     H89998   4.988   0.369   2.581 -1.4001 -1.4296  1.5788
  667MOL0     H89999   5.217   0.501   2.750  2.8661  5.2705 -2.0606
  667MOL0     H90000   5.224   0.424   2.585 -0.0132 -0.9011  0.3251
  667MOL0     H90001   5.113   0.695   2.661  0.3361 -0.6780  2.4252
  667MOL0     H90002   5.031   0.609   2.525  2.9490 -0.4450 -2.9492
  667MOL0     H90003   5.203   0.743   2.412  0.9213  1.7780  0.5487
  667MOL0     H90004   5.261   0.572   2.434 -3.3479 -5.0699  4.9319
  667MOL0     H90005   5.478   0.913   2.612  1.1321 -1.8799  0.5878
  667MOL0     H90006   5.659   1.010   2.509 -1.3960 -1.6489  2.6702
  667MOL0     H90007   5.890   0.944   1.902  0.4804 -0.3189  0.1412
  667MOL0     H90008   6.108   0.972   1.825 -2.3014  2.5123  0.3432
  667MOL0     H90009   6.386   1.098   2.111 -0.4345  1.0102  0.0591
  667MOL0     H90010   6.504   1.047   1.982  0.3132 -0.8538 -1.2364
  667MOL0     H90011   6.283   1.261   1.990 -2.2346 -2.6562 -0.3144
  667MOL0     H90012   6.459   1.281   1.971  0.6952 -0.0614 -5.1708
  667MOL0     H90013   6.412   1.132   1.746  1.0611  1.2796 -0.8084
  667MOL0     H90014   6.252   1.207   1.767 -0.2544 -2.8130 -1.1438
  667MOL0     H90015   6.508   1.366   1.736 -0.3175 -1.8206 -0.5441
  667MOL0     H90016   6.346   1.439   1.763 -1.8390 -0.3423 -1.7997
  667MOL0     H90017   6.425   1.263   1.528  0.0257 -1.4099  3.5392
  667MOL0     H90018   6.417   1.442   1.522  1.1587 -0.5927 -0.9040
  667MOL0     H90019   6.151   1.289   1.575 -1.6150  0.2466 -1.2391
  667MOL0     H90020   6.187   1.454   1.570 -2.8098 -0.6917 -0.4697
  667MOL0     H90021   6.229   1.256   1.341 -1.2654 -1.3977 -0.3499
  667MOL0     H90022   6.265   1.431   1.323 -0.4479  3.0447  2.9528
  667MOL0     H90023   6.039   1.378   1.233 -0.6664  0.1609  0.2015
  667MOL0     H90024   5.988   1.323   1.399 -1.3816  2.3921  2.4562
  667MOL0     H90025   6.279   0.899   2.209 -0.6760 -2.1765 -0.2386
  667MOL0     H90026   6.052   0.858   2.294 -1.7229 -0.4901  0.3435
  667MOL0     H90027   5.646   0.701   2.201 -2.0828  2.1753 -2.7485
  667MOL0     H90028   5.464   0.588   2.344  0.1623 -0.8696  0.1638
  667MOL0     H90029   3.967   0.268   2.260  2.5162  0.6515  0.4215
  667MOL0     H90030   3.757   0.398   2.260 -2.3271 -1.4208  0.6101
  667MOL0     H90031   3.336   0.454   2.712 -0.3524 -2.1879 -2.1006
  667MOL0     H90032   3.105   0.551   2.694  1.0912 -1.9380 -0.2888
  667MOL0     H90033   3.045   0.915   2.412  0.4455 -0.7503  1.2838
  667MOL0     H90034   2.882   0.869   2.472 -2.6455 -2.2520 -3.7663
  667MOL0     H90035   3.039   0.736   2.247  0.1589  0.2082  0.0748
  667MOL0     H90036   2.893   0.832   2.234  0.6606 -1.9187 -1.0826
  667MOL0     H90037   2.760   0.663   2.343 -0.1382  1.9297  0.5727
  667MOL0     H90038   2.901   0.560   2.371  3.5267  0.8815 -0.6483
  667MOL0     H90039   2.767   0.631   2.105  1.1266 -1.2607 -3.9954
  667MOL0     H90040   2.934   0.560   2.119 -1.9579 -1.7118 -0.9104
  667MOL0     H90041   2.716   0.239   2.271 -0.5255  0.0206 -0.2132
  667MOL0     H90042   3.239   0.791   2.363  1.7495 -0.4500 -0.0476
  667MOL0     H90043   3.548   0.795   2.426 -2.5987 -0.6772  1.8535
  667MOL0     H90044   3.513   0.677   2.290  1.9605  2.9808 -1.6654
  667MOL0     H90045   3.432   0.834   2.298 -1.4630  0.2271  0.3123
  668MOL0     O90046   1.905   1.240  10.589 -0.3426 -0.9866  0.2287
  668MOL0     C90047   1.996   1.161  10.575  0.0898  0.5839 -0.1246
  668MOL0     O90048   2.050   1.108  10.687 -0.4059 -0.4195 -0.0866
  668MOL0     C90049   2.029   1.166  10.812  0.0646 -0.0676  0.0290
  668MOL0     C90050   2.099   1.286  10.840  0.1152  0.5274  0.3160
  668MOL0     C90051   2.093   1.331  10.967  0.6432 -0.1848 -0.1217
  668MOL0     C90052   2.022   1.265  11.075 -0.9632  1.1436  0.0655
  668MOL0     O90053   2.021   1.328  11.203  0.0871  0.5355 -0.8751
  668MOL0     C90054   1.982   1.252  11.319  0.4298 -1.0346 -0.9305
  668MOL0     C90055   2.005   1.333  11.448 -0.4247  0.7509 -0.5438
  668MOL0     C90056   1.922   1.282  11.567  0.1677 -0.7880 -0.2932
  668MOL0     C90057   1.960   1.152  11.628 -0.4134 -0.2458 -0.1912
  668MOL0     C90058   1.930   1.130  11.771 -0.0054 -0.8522 -0.3125
  668MOL0     C90059   1.953   0.982  11.807  0.6119  0.1014 -0.5647
  668MOL0     C90060   1.889   0.936  11.938  0.5718 -0.1380 -0.4990
  668MOL0     C90061   1.977   0.821  11.981 -0.4496 -0.5016  0.0622
  668MOL0     N90062   1.914   0.739  12.083 -0.9619  0.6931  0.0105
  668MOL0     C90063   1.974   0.716  12.211 -0.3161  0.7842  0.0729
  668MOL0     C90064   1.902   0.610  12.253  0.5170  0.2562  0.4679
  668MOL0     C90065   1.911   0.525  12.375  0.3790  0.0862 -0.5910
  668MOL0     C90066   1.844   0.389  12.348 -0.2646  0.0328  0.3183
  668MOL0     C90067   1.945   0.300  12.277  1.1143  0.0515 -0.2114
  668MOL0     C90068   1.875   0.170  12.250  0.1599  0.2714  0.2389
  668MOL0     O90069   1.953   0.080  12.174 -0.1160  0.1972 -0.3934
  668MOL0     C90070   1.898  -0.044  12.151 -0.3962 -0.2105 -0.6796
  668MOL0     C90071   1.773  -0.093  12.168  0.7619  1.1245  0.3403
  668MOL0     C90072   1.735  -0.221  12.119 -0.6586 -0.3433 -0.0637
  668MOL0     C90073   1.823  -0.309  12.049  1.3587  0.1501  0.6650
  668MOL0     C90074   1.779  -0.443  12.020 -0.7109  0.4245  0.3338
  668MOL0     O90075   1.870  -0.535  11.988 -0.2782 -0.2405 -0.6260
  668MOL0     C90076   1.836  -0.649  11.917  0.5242 -0.5536 -0.0747
  668MOL0     C90077   1.857  -0.776  11.972 -0.3668  0.2741 -0.1610
  668MOL0     C90078   1.848  -0.891  11.888 -0.2476 -0.3990 -0.4377
  668MOL0     C90079   1.815  -0.889  11.755  0.0679 -0.6610  0.2798
  668MOL0     O90080   1.797  -0.996  11.670 -0.5999  0.1052  0.2262
  668MOL0     C90081   1.830  -1.127  11.710  0.1995 -0.4472 -0.4145
  668MOL0     C90082   1.845  -1.217  11.594 -0.9763 -0.8010 -0.0043
  668MOL0     C90083   1.745  -1.204  11.489  0.3169 -0.2859  0.2102
  668MOL0     C90084   1.599  -1.215  11.533 -0.0494  0.1532 -0.1840
  668MOL0     C90085   1.522  -1.278  11.415 -0.0320  0.6829 -0.2236
  668MOL0     C90086   1.458  -1.174  11.318  0.4812 -0.1280  0.9179
  668MOL0     C90087   1.439  -1.230  11.177  0.1405 -0.1784  0.0898
  668MOL0     C90088   1.398  -1.130  11.070  0.4405  1.0208  0.9176
  668MOL0    Cl90089   1.325  -1.194  10.915 -0.3602 -0.1440 -0.6605
  668MOL0     C90090   1.795  -0.753  11.703  0.6143 -0.7600 -0.8819
  668MOL0     C90091   1.808  -0.634  11.782  0.1048  1.2700 -0.8067
  668MOL0     O90092   1.660  -0.455  12.007  0.0404  0.1152 -0.7802
  668MOL0     C90093   1.951  -0.256  12.032  0.3912 -0.6566  0.7229
  668MOL0     C90094   1.990  -0.126  12.079 -0.3422  0.3377 -0.4012
  668MOL0     N90095   1.800   0.588  12.164 -0.0334  0.3107  0.2684
  668MOL0     N90096   1.800   0.665  12.069  0.0211 -0.0163 -0.2516
  668MOL0     C90097   1.959   1.139  11.043 -0.3317 -0.3418 -0.7668
  668MOL0     C90098   1.966   1.090  10.908 -0.5958  0.3714 -0.2249
  668MOL0     C90099   2.042   1.129  10.439 -0.1591  0.1927 -0.0042
  668MOL0     C90100   1.955   1.143  10.329 -0.3908 -0.2396  0.1768
  668MOL0     C90101   2.007   1.144  10.200  0.0601 -0.3114  0.7809
  668MOL0     C90102   2.144   1.126  10.169  0.1337 -0.2396 -0.1744
  668MOL0     O90103   2.177   1.123  10.034  0.5958  0.1498 -1.4165
  668MOL0     C90104   2.314   1.106  10.016  0.1525 -0.3071 -0.4046
  668MOL0     C90105   2.356   1.119   9.879  0.0104  1.3636  0.2733
  668MOL0     C90106   2.303   1.009   9.793 -0.5010 -0.1181  0.0593
  668MOL0     C90107   2.343   1.019   9.646 -0.1421  0.7225  0.0002
  668MOL0     C90108   2.271   0.923   9.562  0.2313 -0.3551 -0.1262
  668MOL0     C90109   2.208   0.838   9.505 -0.3945 -0.0525 -0.3595
  668MOL0     C90110   2.232   1.119  10.278  0.1679 -0.3012  0.2531
  668MOL0     C90111   2.180   1.114  10.410  0.3030  0.1837 -1.1400
  668MOL0     C90112   2.292   1.102  10.517  0.2362 -0.2431 -0.1079
  668MOL0     H90113   2.158   1.341  10.767  2.4383  0.2533  1.8950
  668MOL0     H90114   2.138   1.424  11.000 -0.1534  0.6665 -1.3614
  668MOL0     H90115   1.875   1.251  11.295  0.4399  2.5368 -1.6974
  668MOL0     H90116   2.031   1.155  11.314  0.6705 -0.8783 -1.7617
  668MOL0     H90117   1.983   1.437  11.423  3.6253  1.7536 -0.6179
  668MOL0     H90118   2.105   1.344  11.490 -1.4225  3.0237  1.4380
  668MOL0     H90119   1.821   1.294  11.527  0.1317 -1.6629 -0.4689
  668MOL0     H90120   1.940   1.353  11.649 -0.1164 -2.3237  1.1651
  668MOL0     H90121   1.901   1.075  11.577 -2.0635 -1.0101  2.6419
  668MOL0     H90122   2.069   1.141  11.615  0.2381 -0.0378  3.7800
  668MOL0     H90123   1.996   1.188  11.836  0.9171 -2.9085  0.6866
  668MOL0     H90124   1.835   1.164  11.814  0.0892 -1.3023  0.2691
  668MOL0     H90125   1.903   0.917  11.734  1.5863 -0.0666 -1.1080
  668MOL0     H90126   2.059   0.957  11.806  0.9435  0.2414  4.8758
  668MOL0     H90127   1.781   0.917  11.937  0.0928  2.2744 -1.6766
  668MOL0     H90128   1.901   1.010  12.019  4.8890 -3.0576  1.9628
  668MOL0     H90129   2.005   0.760  11.894 -1.2169 -1.5190  0.5031
  668MOL0     H90130   2.063   0.866  12.031 -1.2985  0.6027  0.5618
  668MOL0     H90131   2.063   0.753  12.260  0.8818 -1.5104 -0.2080
  668MOL0     H90132   2.011   0.507  12.415  1.3034  2.2325 -1.7751
  668MOL0     H90133   1.865   0.586  12.454  1.2280 -0.0458  0.0164
  668MOL0     H90134   1.811   0.351  12.446  1.7119 -0.4158  0.8541
  668MOL0     H90135   1.745   0.391  12.301 -0.5180 -3.7709  0.3504
  668MOL0     H90136   2.035   0.283  12.336  0.5114  3.2461  1.8737
  668MOL0     H90137   1.980   0.345  12.183  3.4151  0.8219  0.9292
  668MOL0     H90138   1.786   0.210  12.200  0.3891  0.5166  0.0253
  668MOL0     H90139   1.845   0.117  12.341  1.9614  0.1513  0.7892
  668MOL0     H90140   1.694  -0.026  12.203 -0.4963 -0.6877  1.1305
  668MOL0     H90141   1.629  -0.239  12.128 -0.2416 -1.9986  2.6138
  668MOL0     H90142   1.879  -0.775  12.078  2.2653  3.5779 -0.5790
  668MOL0     H90143   1.862  -0.991  11.930 -0.8638 -1.0555 -1.7419
  668MOL0     H90144   1.914  -1.126  11.780 -0.9001 -0.5907  0.9381
  668MOL0     H90145   1.745  -1.175  11.760 -1.1598  0.0234 -2.1774
  668MOL0     H90146   1.939  -1.202  11.539 -0.1895  3.6591  2.0896
  668MOL0     H90147   1.835  -1.318  11.634 -1.3499  0.0379  2.1605
  668MOL0     H90148   1.755  -1.099  11.460 -0.6314 -0.1187  0.4647
  668MOL0     H90149   1.778  -1.260  11.401 -1.5068  1.0994 -1.4129
  668MOL0     H90150   1.561  -1.116  11.561  2.8115  1.2883  0.0505
  668MOL0     H90151   1.593  -1.285  11.617 -2.4946  0.6226  0.1009
  668MOL0     H90152   1.445  -1.342  11.460 -0.0361  0.9905  0.2080
  668MOL0     H90153   1.587  -1.349  11.363  1.1949  0.5182  1.4577
  668MOL0     H90154   1.356  -1.163  11.355  0.8774 -2.5613  3.0034
  668MOL0     H90155   1.513  -1.080  11.323  0.9121 -0.1455 -1.8736
  668MOL0     H90156   1.352  -1.296  11.185  0.2433 -0.2129  1.0144
  668MOL0     H90157   1.525  -1.292  11.149 -0.6504 -0.6108 -1.4733
  668MOL0     H90158   1.316  -1.068  11.109 -3.2600 -1.7382 -1.7651
  668MOL0     H90159   1.489  -1.076  11.043  0.4961  0.5982  0.2450
  668MOL0     H90160   1.790  -0.736  11.596  1.9090  3.7573 -0.4238
  668MOL0     H90161   1.802  -0.536  11.737 -0.8034  1.9215  0.6491
  668MOL0     H90162   2.025  -0.315  11.978 -1.7510 -2.7465 -0.1202
  668MOL0     H90163   2.088  -0.084  12.059 -0.7479  0.5923 -2.0252
  668MOL0     H90164   1.900   1.094  11.123 -1.6558  0.5795 -1.1870
  668MOL0     H90165   1.931   0.993  10.874 -2.7912  2.3242 -4.2051
  668MOL0     H90166   1.847   1.153  10.338 -0.2413 -0.1031  2.3282
  668MOL0     H90167   1.943   1.144  10.112  4.4097  2.1292 -2.8344
  668MOL0     H90168   2.335   1.006  10.055  2.7821  1.5170  3.5628
  668MOL0     H90169   2.380   1.170  10.075  0.5052  0.6202 -1.7470
  668MOL0     H90170   2.465   1.128   9.878 -0.1053  2.9130  0.1117
  668MOL0     H90171   2.330   1.208   9.822  0.9052  2.4305  1.4721
  668MOL0     H90172   2.194   1.018   9.794 -0.5180  0.9499 -2.9798
  668MOL0     H90173   2.336   0.909   9.824  0.1589 -0.5936 -2.0198
  668MOL0     H90174   2.350   1.121   9.608  1.8777  0.7945  0.4476
  668MOL0     H90175   2.444   0.979   9.636 -0.9523 -1.5156  0.2606
  668MOL0     H90176   2.165   0.762   9.442 -2.1246 -1.7210  2.5918
  668MOL0     H90177   2.337   1.094  10.266  0.4559 -0.2500  2.3097
  668MOL0     H90178   2.292   1.009  10.575  1.0694 -0.0108  0.2794
  668MOL0     H90179   2.389   1.114  10.468 -0.7146  3.2432 -1.4553
  668MOL0     H90180   2.283   1.183  10.590  0.2453  0.6275 -1.0439
  669MOL0     O90181   7.549   8.411   5.549 -0.0347  0.2792  1.4898
  669MOL0     C90182   7.652   8.354   5.589 -0.6611 -0.4270  0.5165
  669MOL0     O90183   7.710   8.377   5.716  0.0187  0.0412  0.6545
  669MOL0     C90184   7.657   8.479   5.796 -0.6320  0.8453  0.5967
  669MOL0     C90185   7.754   8.554   5.872  0.4699  0.5288  0.5245
  669MOL0     C90186   7.707   8.660   5.950  0.3985 -0.2023 -0.4483
  669MOL0     C90187   7.570   8.683   5.968  0.7760  0.8742  0.6590
  669MOL0     O90188   7.526   8.778   6.052  0.4516 -0.0624  0.0407
  669MOL0     C90189   7.606   8.852   6.146  0.6908 -0.2139  0.1961
  669MOL0     C90190   7.647   8.769   6.271  0.5619 -0.5104 -0.2896
  669MOL0     C90191   7.755   8.846   6.350 -0.1055 -1.1491 -0.7204
  669MOL0     C90192   7.738   8.811   6.495  0.0510  0.8179  0.4848
  669MOL0     C90193   7.848   8.867   6.591 -0.0580 -0.5622  0.7706
  669MOL0     C90194   7.836   8.820   6.734  0.3246 -0.5737  0.3803
  669MOL0     C90195   7.922   8.882   6.837  0.3065  0.3685  0.3075
  669MOL0     C90196   8.071   8.851   6.816  0.4382  0.3425 -0.9477
  669MOL0     N90197   8.099   8.711   6.779 -0.0202  0.0185 -0.0133
  669MOL0     C90198   8.062   8.599   6.856 -0.0459 -0.2382  0.3784
  669MOL0     C90199   8.112   8.493   6.795  0.1574 -0.0076 -0.3579
  669MOL0     C90200   8.074   8.351   6.836 -0.0206  0.7931 -0.0308
  669MOL0     C90201   8.134   8.244   6.741 -1.2033  0.5730  0.7234
  669MOL0     C90202   8.073   8.104   6.766  0.0571 -0.3328  0.3604
  669MOL0     C90203   8.139   7.992   6.685  0.3198 -0.4836  0.2241
  669MOL0     O90204   8.123   8.017   6.540 -0.5203  0.1188 -0.1298
  669MOL0     C90205   8.004   8.002   6.476  0.5449  0.4267 -0.4528
  669MOL0     C90206   7.884   7.946   6.529  0.3218 -0.5280 -0.1070
  669MOL0     C90207   7.763   7.948   6.466 -0.2734  0.2323  0.1240
  669MOL0     C90208   7.763   8.006   6.336  0.1515 -0.3610  1.0295
  669MOL0     C90209   7.638   8.004   6.264  0.0281 -0.2583 -0.1768
  669MOL0     O90210   7.539   7.920   6.307  0.6531 -0.1419 -0.3821
  669MOL0     C90211   7.413   7.906   6.261  1.0017 -0.2145  0.8796
  669MOL0     C90212   7.331   7.843   6.355  1.0159 -0.5641 -0.3103
  669MOL0     C90213   7.202   7.802   6.321  0.5280  0.6524 -0.5827
  669MOL0     C90214   7.157   7.824   6.195  0.9026  0.3408 -0.3968
  669MOL0     O90215   7.026   7.789   6.160 -0.6476 -0.5554 -0.1557
  669MOL0     C90216   6.995   7.656   6.125 -0.5697  0.0272 -0.1044
  669MOL0     C90217   6.954   7.670   5.977  0.7328  0.5517  0.0973
  669MOL0     C90218   6.979   7.539   5.901  0.5725  0.0637 -0.8161
  669MOL0     C90219   6.936   7.530   5.750  0.2474 -0.9078 -0.6385
  669MOL0     C90220   7.009   7.414   5.665 -0.2631  0.0529 -1.0532
  669MOL0     C90221   6.978   7.280   5.718  0.3561  0.0792 -0.0867
  669MOL0     C90222   7.041   7.183   5.623 -0.5243  0.1636  0.1840
  669MOL0     C90223   7.041   7.037   5.678 -0.0662  0.2602 -0.4520
  669MOL0    Cl90224   6.880   6.970   5.641 -0.1102  0.3775  0.4220
  669MOL0     C90225   7.235   7.869   6.097  0.1238 -0.7209 -0.6132
  669MOL0     C90226   7.362   7.921   6.128 -0.6111  0.3910  0.2873
  669MOL0     O90227   7.634   8.077   6.161 -0.1135  0.0217  0.1641
  669MOL0     C90228   7.880   8.071   6.279  0.2791  1.0160 -0.6826
  669MOL0     C90229   7.994   8.073   6.358 -0.4657 -0.3273  0.3692
  669MOL0     N90230   8.187   8.544   6.696  0.3863  0.2162 -0.8796
  669MOL0     N90231   8.177   8.666   6.683  0.1440  0.7950  0.9221
  669MOL0     C90232   7.474   8.606   5.896  0.2074  0.4034 -0.9254
  669MOL0     C90233   7.524   8.502   5.814  0.7590  0.5021 -1.0579
  669MOL0     C90234   7.723   8.281   5.480  1.0143 -1.0798  0.3660
  669MOL0     C90235   7.862   8.264   5.494 -0.3126  0.9089 -0.2768
  669MOL0     C90236   7.943   8.219   5.385 -0.9240  0.5174 -0.4160
  669MOL0     C90237   7.882   8.178   5.272 -1.2360  0.4847  1.1279
  669MOL0     O90238   7.964   8.139   5.179  0.0826  0.5899 -0.1851
  669MOL0     C90239   7.922   8.161   5.043 -0.1242 -0.0373  0.4164
  669MOL0     C90240   8.043   8.175   4.956  0.1577  0.6098  0.1286
  669MOL0     C90241   8.130   8.291   5.002 -0.4438 -0.0831  0.0575
  669MOL0     C90242   8.195   8.363   4.877  0.6480 -0.2436 -0.1483
  669MOL0     C90243   8.283   8.274   4.810  0.6953  0.7436  0.7724
  669MOL0     C90244   8.348   8.194   4.739 -0.0970 -0.6335  0.0872
  669MOL0     C90245   7.745   8.178   5.268  0.7547  0.1523  0.7007
  669MOL0     C90246   7.666   8.236   5.361  0.5441  0.0921  0.1398
  669MOL0     C90247   7.512   8.216   5.340  0.3545 -0.4491 -0.0630
  669MOL0     H90248   7.858   8.532   5.849  0.4126  0.2851  0.4957
  669MOL0     H90249   7.772   8.732   5.998 -1.8746  2.4775 -1.0575
  669MOL0     H90250   7.683   8.907   6.091  2.8051 -4.2155 -1.3138
  669MOL0     H90251   7.537   8.927   6.186  0.5227 -0.4334  0.3212
  669MOL0     H90252   7.679   8.671   6.234 -2.0554 -1.1694 -1.0083
  669MOL0     H90253   7.556   8.747   6.327  2.1907 -1.9914  1.9990
  669MOL0     H90254   7.758   8.954   6.330 -0.0321 -0.6391  1.8031
  669MOL0     H90255   7.856   8.812   6.323  0.6315 -0.4530  1.0380
  669MOL0     H90256   7.636   8.838   6.525 -0.1445 -0.9570  1.5261
  669MOL0     H90257   7.725   8.704   6.510  0.1257  0.7674  0.2083
  669MOL0     H90258   7.939   8.818   6.556 -2.3508 -1.3040 -5.3557
  669MOL0     H90259   7.863   8.975   6.582 -4.0270  0.1980  1.1630
  669MOL0     H90260   7.733   8.843   6.763  0.0747 -3.3100  2.0640
  669MOL0     H90261   7.857   8.713   6.739  1.9777 -0.4846 -2.5233
  669MOL0     H90262   7.889   8.858   6.938  1.3773  2.2970  1.1641
  669MOL0     H90263   7.907   8.990   6.821 -4.5812 -0.2821 -1.1891
  669MOL0     H90264   8.105   8.918   6.737  2.1294  0.8795  0.1803
  669MOL0     H90265   8.125   8.868   6.910 -1.7629 -3.7615  1.3470
  669MOL0     H90266   8.008   8.587   6.949  1.1673 -0.1995  1.1044
  669MOL0     H90267   8.101   8.325   6.939  0.2692 -1.6310 -0.6477
  669MOL0     H90268   7.966   8.342   6.826 -0.1581  0.9071  1.2161
  669MOL0     H90269   8.101   8.268   6.639 -2.7575  0.9706  1.2984
  669MOL0     H90270   8.244   8.251   6.742 -1.3084  4.0260 -0.5979
  669MOL0     H90271   7.970   8.119   6.734 -0.5299  2.1785  3.0108
  669MOL0     H90272   8.093   8.076   6.870 -1.5140  1.2121  1.1190
  669MOL0     H90273   8.097   7.893   6.704 -0.6040 -0.0916  0.2928
  669MOL0     H90274   8.246   7.970   6.691  0.0316 -3.3742 -2.6178
  669MOL0     H90275   7.889   7.896   6.624 -0.6272 -1.6486 -0.6193
  669MOL0     H90276   7.672   7.926   6.522  1.0472 -0.9893  1.9050
  669MOL0     H90277   7.354   7.822   6.459 -1.7766 -5.7797 -0.4544
  669MOL0     H90278   7.129   7.763   6.392 -1.7674  3.0697 -1.4431
  669MOL0     H90279   7.075   7.581   6.127 -2.6042 -2.2698  1.7665
  669MOL0     H90280   6.914   7.621   6.189  0.4934 -3.1773 -0.3272
  669MOL0     H90281   6.846   7.689   5.981  0.6407  0.5860 -1.6572
  669MOL0     H90282   6.996   7.757   5.926  3.9978 -1.1055 -0.2727
  669MOL0     H90283   7.086   7.516   5.908 -0.0512 -3.6886 -1.6887
  669MOL0     H90284   6.928   7.463   5.961  2.1965  2.2083  3.8030
  669MOL0     H90285   6.951   7.626   5.700 -0.2918  0.3862  1.5852
  669MOL0     H90286   6.827   7.515   5.747 -0.6074  3.6517  0.5771
  669MOL0     H90287   7.118   7.418   5.665 -0.1876 -0.6630  0.7733
  669MOL0     H90288   6.979   7.438   5.563  0.5503 -1.3985 -1.6776
  669MOL0     H90289   7.014   7.259   5.819 -0.0736  3.5572  0.9513
  669MOL0     H90290   6.871   7.259   5.709  0.9271 -2.6160 -1.6201
  669MOL0     H90291   7.147   7.205   5.607  0.4890 -2.2721  2.6665
  669MOL0     H90292   6.994   7.177   5.524  1.0011  0.3349 -0.5831
  669MOL0     H90293   7.119   6.979   5.628  0.7517  0.6805  0.3135
  669MOL0     H90294   7.056   7.035   5.786  2.4127  1.2963 -0.7095
  669MOL0     H90295   7.209   7.869   5.992 -0.7551 -3.1467 -0.4720
  669MOL0     H90296   7.428   7.958   6.050  2.4890  1.2428  3.0537
  669MOL0     H90297   7.894   8.112   6.179  0.6852  2.2187 -0.1494
  669MOL0     H90298   8.089   8.111   6.323  1.2352 -3.1136  1.6205
  669MOL0     H90299   7.366   8.604   5.904  0.3386  0.9494  2.7940
  669MOL0     H90300   7.449   8.434   5.776 -0.4533  0.5010  1.1733
  669MOL0     H90301   7.911   8.299   5.584  0.8848  0.7457 -0.8387
  669MOL0     H90302   8.051   8.224   5.397 -0.6735 -0.5118 -1.8904
  669MOL0     H90303   7.845   8.237   5.026 -3.7227 -3.8187 -2.2097
  669MOL0     H90304   7.871   8.068   5.017 -1.3065  1.0987 -1.5618
  669MOL0     H90305   8.016   8.191   4.851 -0.2923  0.8826  0.2822
  669MOL0     H90306   8.108   8.087   4.954  1.2133  1.3177  1.1967
  669MOL0     H90307   8.213   8.258   5.064 -1.4448  2.5021  3.0264
  669MOL0     H90308   8.068   8.360   5.060 -0.6671 -0.8776  0.7835
  669MOL0     H90309   8.121   8.414   4.815  1.0046  1.2437  0.5864
  669MOL0     H90310   8.257   8.444   4.918 -0.1699  0.0746  0.4786
  669MOL0     H90311   8.387   8.117   4.674 -1.8300 -1.3151 -0.2010
  669MOL0     H90312   7.701   8.130   5.181 -2.0190  0.1968  1.9994
  669MOL0     H90313   7.459   8.191   5.433 -1.0393  1.2155 -0.3606
  669MOL0     H90314   7.465   8.309   5.309  3.8463  0.4963 -3.1320
  669MOL0     H90315   7.477   8.141   5.268  0.1306  0.1305 -0.5565
  670MOL0     O90316   8.440   7.731  11.094  0.0405 -0.4514 -0.4201
  670MOL0     C90317   8.366   7.809  11.027 -0.2888  0.3188 -0.1615
  670MOL0     O90318   8.373   7.830  10.891  0.3231  0.1085  0.1173
  670MOL0     C90319   8.478   7.770  10.821 -0.8488  0.3527  1.1398
  670MOL0     C90320   8.450   7.659  10.742 -0.0769 -0.9523  0.4345
  670MOL0     C90321   8.544   7.595  10.661  0.1456  0.1667  1.0409
  670MOL0     C90322   8.667   7.661  10.645  1.2902 -0.0413  0.2121
  670MOL0     O90323   8.758   7.598  10.556 -0.0722  0.7651 -0.4709
  670MOL0     C90324   8.771   7.656  10.428  0.4946 -0.5614 -0.7718
  670MOL0     C90325   8.765   7.560  10.318  0.5544  0.5009  0.2867
  670MOL0     C90326   8.770   7.628  10.177 -0.4559  0.0465  0.8638
  670MOL0     C90327   8.916   7.633  10.106  0.5435  1.0033 -0.4391
  670MOL0     C90328   8.912   7.717   9.976  0.3115 -0.3195  0.2131
  670MOL0     C90329   9.045   7.708   9.909 -0.5043  0.3943  1.0928
  670MOL0     C90330   9.092   7.827   9.810 -0.4558  1.0159 -0.6902
  670MOL0     C90331   9.219   7.796   9.728  0.0724  0.4464  0.6726
  670MOL0     N90332   9.338   7.756   9.807  0.2568 -0.1902 -0.4316
  670MOL0     C90333   9.426   7.655   9.775 -0.2659 -1.0802 -0.0022
  670MOL0     C90334   9.532   7.666   9.857  1.3997 -0.1696 -1.4440
  670MOL0     C90335   9.669   7.594   9.863  0.1294  0.1989  0.0476
  670MOL0     C90336   9.649   7.445   9.842  0.1369  0.3546  0.5624
  670MOL0     C90337   9.765   7.362   9.912  0.5389  0.1371 -0.5885
  670MOL0     C90338   9.758   7.209   9.874 -1.1150 -0.3462 -0.3233
  670MOL0     O90339   9.885   7.152   9.911 -0.8716  0.3690  0.5423
  670MOL0     C90340   9.891   7.026   9.863  0.0507  0.3621 -1.0842
  670MOL0     C90341   9.863   6.919   9.950  0.0230 -0.9791  0.4862
  670MOL0     C90342   9.885   6.788   9.910  0.2596  0.7594  0.2906
  670MOL0     C90343   9.968   6.768   9.796 -1.3402  0.1849  0.2326
  670MOL0     C90344  10.016   6.630   9.764  0.2914 -0.6454 -0.5387
  670MOL0     O90345  10.081   6.616   9.653  0.0211  0.7712  0.0881
  670MOL0     C90346  10.090   6.490   9.598  0.0970  0.9564  0.0611
  670MOL0     C90347  10.182   6.395   9.634  1.2670 -0.1800  0.8962
  670MOL0     C90348  10.176   6.272   9.560 -0.5719  0.0618  0.2656
  670MOL0     C90349  10.091   6.240   9.455  0.1421  0.3484 -0.4388
  670MOL0     O90350  10.090   6.113   9.399 -0.7044 -0.2921  0.4658
  670MOL0     C90351  10.033   6.103   9.270 -0.7939  0.5539  0.0354
  670MOL0     C90352  10.061   5.961   9.230  1.3983  0.9132  0.5758
  670MOL0     C90353   9.967   5.907   9.119 -0.1073 -0.5243  0.2510
  670MOL0     C90354  10.038   5.784   9.053  0.6037 -0.0834 -1.2099
  670MOL0     C90355   9.939   5.688   8.982 -0.2649 -0.0731  0.1440
  670MOL0     C90356   9.883   5.755   8.852 -0.3899  0.0118 -0.2253
  670MOL0     C90357   9.779   5.671   8.789  0.0367  0.0914  0.1382
  670MOL0     C90358   9.730   5.723   8.661 -0.1197 -0.5509  0.3821
  670MOL0    Cl90359   9.848   5.696   8.534 -0.6137  0.2962 -0.2816
  670MOL0     C90360  10.006   6.346   9.412  0.2357  0.6381  0.5387
  670MOL0     C90361  10.011   6.467   9.484 -0.3754  0.2500  0.2324
  670MOL0     O90362   9.976   6.538   9.841 -0.5020  0.0203  0.2057
  670MOL0     C90363  10.009   6.874   9.716 -0.4717 -0.3387 -0.7998
  670MOL0     C90364   9.972   7.005   9.756 -0.3871  0.8153  0.1452
  670MOL0     N90365   9.509   7.778   9.946 -0.2347  0.1185 -0.1549
  670MOL0     N90366   9.388   7.826   9.914 -0.5051  0.3719  0.2493
  670MOL0     C90367   8.696   7.766  10.726 -1.3791 -0.4987  1.2290
  670MOL0     C90368   8.604   7.819  10.808  0.5158  0.0450 -0.1911
  670MOL0     C90369   8.265   7.881  11.104 -1.3160  0.3337 -0.3334
  670MOL0     C90370   8.136   7.831  11.093  0.6304  0.1076 -0.8478
  670MOL0     C90371   8.042   7.868  11.186 -0.1311 -0.8046  0.2809
  670MOL0     C90372   8.081   7.949  11.296 -0.1942 -0.4704  0.3577
  670MOL0     O90373   7.993   7.970  11.400  0.1728  0.1394 -0.0667
  670MOL0     C90374   8.011   8.085  11.480 -0.3581 -0.1350 -0.0348
  670MOL0     C90375   7.922   8.095  11.594  0.0398 -0.3635 -1.0575
  670MOL0     C90376   7.771   8.080  11.579  1.4823 -0.4711 -0.6289
  670MOL0     C90377   7.703   8.102  11.712 -0.7396  0.9204 -0.6097
  670MOL0     C90378   7.560   8.080  11.701  0.7711 -0.3809  0.5154
  670MOL0     C90379   7.439   8.088  11.684  0.5040  0.9734 -1.0592
  670MOL0     C90380   8.207   8.009  11.298 -0.2137  0.6484 -0.2208
  670MOL0     C90381   8.305   7.971  11.201 -0.3501 -0.2266 -0.4018
  670MOL0     C90382   8.435   8.040  11.217  0.1273  0.4165  0.4069
  670MOL0     H90383   8.353   7.612  10.757 -0.4163 -0.3180  0.2361
  670MOL0     H90384   8.508   7.503  10.617  2.4392 -2.3410  3.9521
  670MOL0     H90385   8.689   7.728  10.423  1.7587  1.1381  1.2678
  670MOL0     H90386   8.863   7.713  10.421  0.5900 -0.4870  0.7127
  670MOL0     H90387   8.677   7.495  10.313  0.1133  1.1673 -0.9498
  670MOL0     H90388   8.857   7.502  10.328 -0.7371 -1.3801  1.7456
  670MOL0     H90389   8.728   7.729  10.180 -1.1737 -0.2130  0.0033
  670MOL0     H90390   8.698   7.584  10.108 -0.1707  0.9116 -0.0104
  670MOL0     H90391   8.971   7.681  10.187  0.0357  0.3329  0.3114
  670MOL0     H90392   8.953   7.532  10.087 -1.3666 -0.2615  2.0098
  670MOL0     H90393   8.837   7.672   9.911 -0.4994  1.3189 -0.0239
  670MOL0     H90394   8.895   7.823   9.996  1.2836 -0.3622  1.4346
  670MOL0     H90395   9.120   7.715   9.988  5.5424  2.6668 -3.9796
  670MOL0     H90396   9.060   7.616   9.854  2.8735  0.0191  2.4088
  670MOL0     H90397   9.107   7.913   9.877 -1.3928  0.2448  0.5632
  670MOL0     H90398   9.004   7.849   9.748 -1.9825  2.1191  1.7259
  670MOL0     H90399   9.199   7.717   9.654 -0.9071 -0.1337  1.5362
  670MOL0     H90400   9.250   7.887   9.676 -3.0765  1.0069 -0.4415
  670MOL0     H90401   9.428   7.585   9.692  0.9973 -0.3268 -0.6386
  670MOL0     H90402   9.741   7.633   9.791  1.1540  0.7537  1.3388
  670MOL0     H90403   9.718   7.616   9.958  1.5850  1.7952 -1.0208
  670MOL0     H90404   9.555   7.407   9.884  0.4541 -1.4255 -0.2594
  670MOL0     H90405   9.648   7.431   9.734  3.0527  0.5220  0.4555
  670MOL0     H90406   9.766   7.371  10.021  0.9327 -2.5345 -0.2880
  670MOL0     H90407   9.862   7.399   9.877 -0.0244 -0.7523 -3.3751
  670MOL0     H90408   9.742   7.206   9.765  0.6252 -0.4383 -0.6004
  670MOL0     H90409   9.675   7.161   9.927 -0.2515  0.7414  2.1370
  670MOL0     H90410   9.818   6.940  10.046  2.1445 -1.2013  1.5888
  670MOL0     H90411   9.854   6.710   9.979  1.6894  0.8191  1.0485
  670MOL0     H90412  10.230   6.414   9.729  0.4859 -1.1330  1.5004
  670MOL0     H90413  10.251   6.200   9.593  0.3024  1.9396  2.7924
  670MOL0     H90414   9.927   6.130   9.274 -0.4244  2.6464 -1.8486
  670MOL0     H90415  10.086   6.168   9.200  1.7005 -0.7591  0.5754
  670MOL0     H90416  10.165   5.945   9.199  0.6986  0.9703 -2.0186
  670MOL0     H90417  10.039   5.896   9.315  0.9180  0.9665  0.4925
  670MOL0     H90418   9.869   5.887   9.163 -1.6252  3.5275 -0.8009
  670MOL0     H90419   9.948   5.980   9.040 -0.7236 -1.3191 -0.3477
  670MOL0     H90420  10.084   5.732   9.137 -1.8312  1.9382  1.5983
  670MOL0     H90421  10.111   5.803   8.974 -0.6883  1.9789 -1.9899
  670MOL0     H90422   9.847   5.659   9.035 -0.7143 -1.0524 -1.1253
  670MOL0     H90423   9.994   5.596   8.961 -3.2711 -1.2228 -4.0457
  670MOL0     H90424   9.835   5.850   8.880  1.9790  1.5499 -1.1215
  670MOL0     H90425   9.962   5.783   8.782 -0.9250 -0.1141 -0.8998
  670MOL0     H90426   9.692   5.652   8.853  1.6391 -1.5441  1.9566
  670MOL0     H90427   9.831   5.575   8.783  0.9345  0.5722 -0.0181
  670MOL0     H90428   9.630   5.682   8.643 -1.4079 -0.2285  5.2534
  670MOL0     H90429   9.703   5.829   8.659 -1.6111 -0.9215 -1.4484
  670MOL0     H90430   9.947   6.337   9.321 -1.8072 -2.2137  2.0092
  670MOL0     H90431   9.952   6.549   9.444  1.9184  0.7220 -2.4792
  670MOL0     H90432  10.063   6.850   9.625 -0.2065  1.5657 -1.1855
  670MOL0     H90433  10.003   7.097   9.707 -0.7819  1.0732  0.3741
  670MOL0     H90434   8.791   7.818  10.723 -0.1204 -2.7045  0.8835
  670MOL0     H90435   8.635   7.915  10.848  1.6884 -0.5670  0.4465
  670MOL0     H90436   8.112   7.756  11.018  0.8629 -2.8135  1.7720
  670MOL0     H90437   7.938   7.844  11.168 -1.2098  2.0873  1.9938
  670MOL0     H90438   8.010   8.170  11.411  1.7373 -2.2703 -2.9724
  670MOL0     H90439   8.112   8.098  11.521  0.9976  0.1734 -3.1511
  670MOL0     H90440   7.939   8.196  11.633  0.4701 -1.0777  0.6974
  670MOL0     H90441   7.952   8.030  11.676 -0.6263  2.0040  1.2219
  670MOL0     H90442   7.757   7.977  11.543  0.3258 -1.0702  1.3520
  670MOL0     H90443   7.740   8.159  11.511 -0.7217 -0.0660  0.7602
  670MOL0     H90444   7.750   8.025  11.774  1.9433  2.7202 -0.2384
  670MOL0     H90445   7.738   8.199  11.748  0.5023  1.6568 -3.5196
  670MOL0     H90446   7.332   8.096  11.678  0.4583  0.9593 -0.3083
  670MOL0     H90447   8.245   8.074  11.376 -1.2386  1.5054 -0.4117
  670MOL0     H90448   8.512   7.985  11.161 -0.8000 -0.7442  0.2397
  670MOL0     H90449   8.417   8.127  11.153 -0.1690 -0.7938 -1.2101
  670MOL0     H90450   8.467   8.058  11.321 -1.1747 -0.2323  0.9376
  671MOL0     O90451   8.253   7.814   0.786  0.2269 -0.3129  1.1135
  671MOL0     C90452   8.286   7.816   0.664 -0.0534 -0.6053 -0.6268
  671MOL0     O90453   8.202   7.834   0.556  0.0208 -0.9715  0.7352
  671MOL0     C90454   8.060   7.861   0.566  0.1032  1.3408 -0.0033
  671MOL0     C90455   7.999   7.919   0.682  0.1659  1.1696 -0.4232
  671MOL0     C90456   7.858   7.924   0.691 -0.2476  0.2809  0.1601
  671MOL0     C90457   7.773   7.889   0.579 -0.4689 -0.2778 -0.2309
  671MOL0     O90458   7.638   7.901   0.581  0.2384  0.0366 -0.0521
  671MOL0     C90459   7.570   7.943   0.708 -0.3191  0.1428 -0.2701
  671MOL0     C90460   7.425   7.967   0.685  0.2648 -0.1851  0.3557
  671MOL0     C90461   7.354   7.837   0.657 -0.2166 -0.6661 -1.0859
  671MOL0     C90462   7.253   7.877   0.549  0.4502  0.0506  0.4211
  671MOL0     C90463   7.133   7.774   0.542  0.1194  0.1256  0.3833
  671MOL0     C90464   7.048   7.807   0.421 -0.3925  0.4633 -0.3137
  671MOL0     C90465   6.915   7.734   0.414  0.1336 -0.7298  0.6844
  671MOL0     C90466   6.825   7.765   0.296  0.7018 -1.9020  1.3861
  671MOL0     N90467   6.698   7.692   0.312 -0.4768 -0.2688  0.4800
  671MOL0     C90468   6.666   7.570   0.243  0.2138 -0.5238  1.0516
  671MOL0     C90469   6.530   7.559   0.247  0.5027  0.5929 -0.0952
  671MOL0     C90470   6.448   7.446   0.202  0.3687 -0.2405 -0.4296
  671MOL0     C90471   6.377   7.466   0.068  0.3910 -0.2031 -0.2379
  671MOL0     C90472   6.458   7.438  -0.059  0.5052  0.7119 -0.0488
  671MOL0     C90473   6.394   7.494  -0.192 -0.6322  0.1288  0.8117
  671MOL0     O90474   6.401   7.397  -0.301  0.4072 -0.4422  0.0201
  671MOL0     C90475   6.305   7.405  -0.393 -0.0825  0.0792 -0.2344
  671MOL0     C90476   6.228   7.301  -0.423 -0.4053 -0.0364 -0.3329
  671MOL0     C90477   6.136   7.317  -0.531 -1.0753 -0.8642 -0.6006
  671MOL0     C90478   6.119   7.434  -0.608 -0.0867  0.8606 -0.6164
  671MOL0     C90479   6.025   7.425  -0.715  0.4606 -0.6069  0.0423
  671MOL0     O90480   5.932   7.336  -0.708 -0.2964 -0.3586  0.2985
  671MOL0     C90481   5.828   7.345  -0.805  0.5990  0.2646  0.4492
  671MOL0     C90482   5.727   7.438  -0.783 -0.3729 -1.4620  0.4382
  671MOL0     C90483   5.623   7.452  -0.871  1.0094  0.3722  0.1801
  671MOL0     C90484   5.611   7.353  -0.972  0.5756 -0.0077 -0.5532
  671MOL0     O90485   5.499   7.350  -1.047 -0.5582 -0.4083  0.5340
  671MOL0     C90486   5.460   7.227  -1.126  0.4982 -0.2464  0.2469
  671MOL0     C90487   5.306   7.220  -1.135 -0.5117 -0.4101  0.7397
  671MOL0     C90488   5.239   7.200  -0.999 -0.2439  0.8518 -0.2142
  671MOL0     C90489   5.198   7.332  -0.922  0.3852 -0.2019 -0.5974
  671MOL0     C90490   5.154   7.311  -0.788  0.5242 -1.3968 -1.0016
  671MOL0     C90491   5.117   7.441  -0.705 -0.4995 -0.4587  0.6836
  671MOL0     C90492   5.241   7.540  -0.696  0.0823  0.6489  0.5357
  671MOL0     C90493   5.249   7.658  -0.792 -0.0217  1.2963 -0.2548
  671MOL0    Cl90494   5.409   7.752  -0.765  0.2102 -0.3832  0.2498
  671MOL0     C90495   5.717   7.256  -0.989  0.1850 -0.7503  0.2860
  671MOL0     C90496   5.827   7.249  -0.907  0.0109 -0.4826 -0.5166
  671MOL0     O90497   6.025   7.521  -0.789 -0.7601 -0.0909  0.4455
  671MOL0     C90498   6.198   7.543  -0.571 -0.6792  0.8424  0.4461
  671MOL0     C90499   6.288   7.526  -0.465 -0.6296  0.7090 -0.7169
  671MOL0     N90500   6.479   7.676   0.313 -0.8315  0.5034  0.2403
  671MOL0     N90501   6.581   7.745   0.354  0.0322 -0.5722 -0.5767
  671MOL0     C90502   7.844   7.848   0.462  0.7898  0.1877 -0.2961
  671MOL0     C90503   7.979   7.833   0.450 -0.1776 -1.0255 -0.8714
  671MOL0     C90504   8.425   7.797   0.619 -0.1189 -0.5712  0.8604
  671MOL0     C90505   8.451   7.769   0.482 -0.9807  0.0204  0.0953
  671MOL0     C90506   8.586   7.747   0.434  0.9441  0.2769  0.1239
  671MOL0     C90507   8.690   7.752   0.525  0.8097  0.9287 -0.7910
  671MOL0     O90508   8.815   7.710   0.490  0.7320  0.2377  0.1588
  671MOL0     C90509   8.909   7.664   0.598 -0.1290 -0.3069  1.2461
  671MOL0     C90510   9.002   7.777   0.636  0.6485 -0.0216 -0.2110
  671MOL0     C90511   9.085   7.819   0.520  0.6751  0.1301 -0.1222
  671MOL0     C90512   9.168   7.937   0.557  0.1495  0.5921  0.3462
  671MOL0     C90513   9.179   8.027   0.449  0.4023  0.1585  0.4691
  671MOL0     C90514   9.199   8.113   0.364  0.8698 -0.2767 -0.2497
  671MOL0     C90515   8.667   7.797   0.658 -0.3416  0.2482 -0.2381
  671MOL0     C90516   8.539   7.811   0.706  0.2031  0.0581 -0.4433
  671MOL0     C90517   8.528   7.838   0.854  0.3458 -0.2907  0.3810
  671MOL0     H90518   8.053   7.959   0.767  1.7932  0.9668 -1.3040
  671MOL0     H90519   7.814   7.972   0.778 -2.2613  2.1346 -1.7460
  671MOL0     H90520   7.581   7.874   0.792  2.2117  1.0774  0.2685
  671MOL0     H90521   7.626   8.032   0.738  0.6829 -0.2797 -0.8350
  671MOL0     H90522   7.415   8.033   0.598 -2.9131  2.0428  2.2159
  671MOL0     H90523   7.377   8.020   0.768 -0.2677  1.0687 -0.7214
  671MOL0     H90524   7.296   7.804   0.744  0.6734 -2.8316 -1.2432
  671MOL0     H90525   7.423   7.758   0.626  0.4674 -1.1268  1.3572
  671MOL0     H90526   7.205   7.975   0.563 -2.9551 -1.1804 -1.4760
  671MOL0     H90527   7.307   7.885   0.454  0.5459  2.8957  0.6229
  671MOL0     H90528   7.174   7.673   0.543 -1.6367 -0.6063  0.6176
  671MOL0     H90529   7.069   7.786   0.629  2.4142 -1.0476  2.3374
  671MOL0     H90530   7.018   7.911   0.434 -2.4667 -0.2857  1.7352
  671MOL0     H90531   7.111   7.802   0.332  0.2192  3.3248 -0.1152
  671MOL0     H90532   6.855   7.749   0.505  1.2022 -3.6951  2.0141
  671MOL0     H90533   6.946   7.629   0.413  3.2245  0.0686 -0.8206
  671MOL0     H90534   6.794   7.869   0.295  1.8580 -1.5505  1.0727
  671MOL0     H90535   6.881   7.742   0.205 -1.6499 -2.9462  0.1010
  671MOL0     H90536   6.744   7.503   0.208 -0.3833  0.1137 -1.7230
  671MOL0     H90537   6.512   7.357   0.201 -1.6952 -1.8017 -1.6449
  671MOL0     H90538   6.363   7.437   0.270 -0.3744 -1.6267 -1.4851
  671MOL0     H90539   6.286   7.405   0.063 -1.4579  2.5175 -2.1816
  671MOL0     H90540   6.345   7.570   0.070 -4.2221 -1.3673 -2.0989
  671MOL0     H90541   6.468   7.329  -0.060  2.3282  0.6633  3.9147
  671MOL0     H90542   6.558   7.481  -0.054  0.7180  0.4572 -1.5388
  671MOL0     H90543   6.458   7.576  -0.224 -0.6647  0.8507  2.5072
  671MOL0     H90544   6.297   7.544  -0.183 -0.0978  0.8932  2.5983
  671MOL0     H90545   6.222   7.210  -0.363 -0.3051  0.7898  0.9775
  671MOL0     H90546   6.087   7.223  -0.554 -3.1257  0.6891 -3.0491
  671MOL0     H90547   5.730   7.513  -0.705 -0.5736  0.6956 -1.5532
  671MOL0     H90548   5.540   7.520  -0.853  1.1857  0.4056  0.8779
  671MOL0     H90549   5.515   7.230  -1.221  1.3376 -0.6200  0.7136
  671MOL0     H90550   5.505   7.135  -1.088 -0.4029 -0.4165  0.9465
  671MOL0     H90551   5.269   7.307  -1.191  2.7422 -0.0689 -1.0869
  671MOL0     H90552   5.282   7.133  -1.196  0.1882 -2.0006  2.6440
  671MOL0     H90553   5.148   7.146  -1.026 -1.4113  2.2551  0.7834
  671MOL0     H90554   5.305   7.138  -0.937  2.9737  2.8234 -1.4229
  671MOL0     H90555   5.115   7.377  -0.977  0.2344  1.9366  1.2568
  671MOL0     H90556   5.284   7.400  -0.919  1.3571 -1.4173  0.5583
  671MOL0     H90557   5.225   7.255  -0.727 -1.0323 -1.9210  0.4361
  671MOL0     H90558   5.060   7.256  -0.781  0.7667 -1.9829 -2.2154
  671MOL0     H90559   5.037   7.499  -0.751  0.2088 -1.2911 -1.7443
  671MOL0     H90560   5.087   7.414  -0.603  1.6889 -0.2306  1.4571
  671MOL0     H90561   5.338   7.489  -0.703 -0.5443 -0.3399 -3.9836
  671MOL0     H90562   5.248   7.579  -0.594  0.1211 -0.9729  1.1838
  671MOL0     H90563   5.234   7.622  -0.894  2.2273  1.1542 -0.5828
  671MOL0     H90564   5.164   7.720  -0.762 -0.4890  0.2154  0.7416
  671MOL0     H90565   5.710   7.172  -1.057 -2.4095 -0.3284 -0.0788
  671MOL0     H90566   5.911   7.181  -0.916  1.8108  1.8282 -2.6092
  671MOL0     H90567   6.184   7.634  -0.629 -4.4627 -0.0604 -0.3313
  671MOL0     H90568   6.363   7.605  -0.465 -0.6462  0.7930  1.6930
  671MOL0     H90569   7.777   7.840   0.377 -0.3678 -1.1989  0.6931
  671MOL0     H90570   8.025   7.791   0.362  2.6971 -0.8293  0.4324
  671MOL0     H90571   8.371   7.736   0.417  0.8217 -3.5663 -0.6059
  671MOL0     H90572   8.608   7.715   0.332  2.4456 -0.4966  0.6591
  671MOL0     H90573   8.968   7.584   0.551  0.2377  0.5086  0.2647
  671MOL0     H90574   8.854   7.622   0.682 -0.9325 -2.2572 -0.1602
  671MOL0     H90575   9.073   7.754   0.716 -0.6032  1.7120  1.4792
  671MOL0     H90576   8.936   7.856   0.674 -0.2270 -0.1051 -1.4940
  671MOL0     H90577   9.017   7.842   0.437 -1.1395 -3.5074  0.1224
  671MOL0     H90578   9.160   7.749   0.483 -0.2623 -1.1202  0.2821
  671MOL0     H90579   9.120   8.004   0.629  0.4851  1.0439  0.1560
  671MOL0     H90580   9.263   7.901   0.597  0.5498  0.9428 -0.2635
  671MOL0     H90581   9.230   8.184   0.291 -0.9650 -0.3705 -1.1770
  671MOL0     H90582   8.743   7.833   0.727  0.4335  0.1187 -1.0124
  671MOL0     H90583   8.452   7.771   0.895 -2.7985  2.8596  0.2555
  671MOL0     H90584   8.622   7.821   0.907  0.5572 -0.4614 -0.0434
  671MOL0     H90585   8.499   7.942   0.872  4.0921  0.7220  1.4133
  672MOL0     O90586   1.891   4.717   9.522 -0.5158 -0.1034  0.6945
  672MOL0     C90587   1.845   4.825   9.559  0.9314  0.0053  0.5841
  672MOL0     O90588   1.834   4.933   9.478 -0.4093  0.4723 -0.6228
  672MOL0     C90589   1.932   4.958   9.379  0.9854  0.2671 -0.1320
  672MOL0     C90590   2.059   4.912   9.394 -0.8472  0.5563 -0.0714
  672MOL0     C90591   2.165   4.953   9.320 -0.2670  0.5455  0.4611
  672MOL0     C90592   2.136   5.050   9.215 -0.3888  0.3102  0.3832
  672MOL0     O90593   2.226   5.101   9.120 -0.5855  0.3149 -0.4329
  672MOL0     C90594   2.361   5.051   9.125  0.1771  0.4459 -0.0509
  672MOL0     C90595   2.435   5.054   8.995 -0.4349 -0.3764 -0.2847
  672MOL0     C90596   2.343   4.991   8.884 -0.4524 -0.2659  0.0730
  672MOL0     C90597   2.412   4.981   8.749 -1.3703 -0.4880 -0.1574
  672MOL0     C90598   2.441   5.120   8.690  0.4264  0.3265 -0.6812
  672MOL0     C90599   2.479   5.127   8.542  0.2476 -0.6791 -0.0168
  672MOL0     C90600   2.514   5.267   8.490 -0.3166  0.1196  0.6786
  672MOL0     C90601   2.545   5.274   8.333 -0.1801 -0.6665  0.4153
  672MOL0     N90602   2.589   5.410   8.295 -0.4107  0.7432 -0.4666
  672MOL0     C90603   2.540   5.485   8.191 -0.5256  0.7430  0.3056
  672MOL0     C90604   2.610   5.598   8.198 -0.1451 -0.3686  0.4213
  672MOL0     C90605   2.574   5.722   8.124  0.5404 -0.2477  0.5300
  672MOL0     C90606   2.427   5.779   8.167 -0.9076  0.5186  0.2190
  672MOL0     C90607   2.361   5.855   8.055 -0.0995 -0.0903  0.0769
  672MOL0     C90608   2.286   5.764   7.959  0.2208 -0.0018  0.1965
  672MOL0     O90609   2.379   5.667   7.901  0.0881  0.6697  1.0159
  672MOL0     C90610   2.321   5.567   7.816  0.0003 -0.1700 -0.5994
  672MOL0     C90611   2.188   5.569   7.774 -1.7291  0.1582 -0.0278
  672MOL0     C90612   2.133   5.474   7.679 -0.5919 -0.6792 -0.3579
  672MOL0     C90613   2.217   5.376   7.622  0.2459 -0.3847  0.5755
  672MOL0     C90614   2.160   5.273   7.531 -0.6559 -0.4892  0.5648
  672MOL0     O90615   2.024   5.289   7.503 -1.1025  0.2128 -0.9179
  672MOL0     C90616   1.956   5.191   7.442  0.1880  0.2974 -0.2815
  672MOL0     C90617   1.872   5.102   7.519  1.1990 -0.3572 -0.6881
  672MOL0     C90618   1.805   5.001   7.449 -0.6983 -0.4296  0.0851
  672MOL0     C90619   1.812   4.987   7.305 -0.2543  0.2279 -0.0853
  672MOL0     O90620   1.726   4.900   7.231 -0.4891  0.0240 -0.6272
  672MOL0     C90621   1.711   4.919   7.088  0.1746  0.1763 -0.4750
  672MOL0     C90622   1.593   5.014   7.059  0.2430 -0.2436  0.0902
  672MOL0     C90623   1.549   4.988   6.908 -0.2303 -0.1973 -0.3684
  672MOL0     C90624   1.445   5.091   6.863 -0.1354  0.2424  0.6122
  672MOL0     C90625   1.406   5.092   6.713 -0.8053  0.0293 -0.7559
  672MOL0     C90626   1.512   5.140   6.609  0.0515 -0.3487 -1.0000
  672MOL0     C90627   1.475   5.105   6.468 -0.1157 -0.5861  0.1234
  672MOL0     C90628   1.323   5.152   6.447 -0.2518  0.6214  0.0752
  672MOL0    Cl90629   1.296   5.312   6.528  0.1100 -0.5001  0.4750
  672MOL0     C90630   1.911   5.066   7.236  0.3535 -0.3938  0.0786
  672MOL0     C90631   1.980   5.164   7.305  0.0112  0.6250  0.1503
  672MOL0     O90632   2.224   5.170   7.502  0.4799 -0.6727  0.1924
  672MOL0     C90633   2.355   5.380   7.660  0.3742 -0.1680 -0.1696
  672MOL0     C90634   2.408   5.470   7.754  1.2196 -0.4825  0.6993
  672MOL0     N90635   2.706   5.592   8.295  0.3352  0.3839  0.7777
  672MOL0     N90636   2.690   5.478   8.358  0.1451  0.0623  1.2636
  672MOL0     C90637   2.009   5.097   9.198  0.2716  0.5258 -1.4018
  672MOL0     C90638   1.908   5.054   9.284  0.4832  0.8008  0.6405
  672MOL0     C90639   1.796   4.844   9.701 -0.0297  0.3553 -0.3534
  672MOL0     C90640   1.718   4.957   9.736  0.4601 -0.3209  0.3487
  672MOL0     C90641   1.667   4.976   9.865  0.9255 -0.3713  0.0827
  672MOL0     C90642   1.694   4.882   9.958 -0.5811  0.1860 -0.1205
  672MOL0     O90643   1.649   4.903  10.091 -0.7410 -0.0145 -0.1278
  672MOL0     C90644   1.569   5.018  10.122 -0.8148  0.1810  0.0535
  672MOL0     C90645   1.506   5.004  10.255  0.3796 -0.2103 -1.0690
  672MOL0     C90646   1.612   5.037  10.365 -0.3873  0.7297  0.3708
  672MOL0     C90647   1.587   5.183  10.417 -0.0756 -0.2686  0.5585
  672MOL0     C90648   1.624   5.281  10.307 -0.1190  0.3540  0.0618
  672MOL0     C90649   1.663   5.355  10.216 -0.3698  0.2081  0.2701
  672MOL0     C90650   1.774   4.774   9.932 -0.3783 -0.3185 -0.2763
  672MOL0     C90651   1.833   4.760   9.807 -0.2499  0.8051 -0.0633
  672MOL0     C90652   1.922   4.637   9.797 -0.0763  0.7715  0.2294
  672MOL0     H90653   2.097   4.851   9.476  1.6946 -1.1413 -2.3504
  672MOL0     H90654   2.262   4.910   9.345  0.2066  0.8998 -0.6836
  672MOL0     H90655   2.417   5.100   9.205  1.2956  0.2846 -0.7292
  672MOL0     H90656   2.349   4.946   9.155  0.9201  0.6596  1.0494
  672MOL0     H90657   2.516   4.984   9.016  0.7921  1.0171 -0.2540
  672MOL0     H90658   2.471   5.156   8.975  1.3716 -0.5497  1.7782
  672MOL0     H90659   2.259   5.058   8.868  1.6850  2.3642 -0.9498
  672MOL0     H90660   2.325   4.891   8.926 -0.5344  0.2116  1.2124
  672MOL0     H90661   2.506   4.925   8.757 -1.6367 -1.2187 -1.8126
  672MOL0     H90662   2.347   4.926   8.681 -0.8051  0.6315 -1.6697
  672MOL0     H90663   2.344   5.169   8.704  0.2684 -0.7957  3.3916
  672MOL0     H90664   2.523   5.164   8.747  1.2835 -0.9325 -0.9011
  672MOL0     H90665   2.559   5.056   8.521 -0.5893 -1.8106  0.4724
  672MOL0     H90666   2.386   5.091   8.497 -1.8879  1.8964  1.9892
  672MOL0     H90667   2.605   5.291   8.546  1.6058  0.5435 -2.3936
  672MOL0     H90668   2.433   5.339   8.508  1.3298  2.0111  0.9418
  672MOL0     H90669   2.628   5.203   8.320 -1.1812 -1.7458 -0.2307
  672MOL0     H90670   2.457   5.240   8.279  1.2412 -1.1230 -1.7609
  672MOL0     H90671   2.462   5.470   8.117 -0.3002 -1.6161  0.4625
  672MOL0     H90672   2.652   5.799   8.123  0.2618  0.0340 -0.0058
  672MOL0     H90673   2.579   5.677   8.024  1.9098  2.2014 -0.5891
  672MOL0     H90674   2.355   5.698   8.185 -0.6429  0.0988 -0.5850
  672MOL0     H90675   2.442   5.838   8.258  0.9241  2.0671 -1.0184
  672MOL0     H90676   2.428   5.921   8.000 -0.5559 -0.1773 -0.5950
  672MOL0     H90677   2.280   5.917   8.094 -1.2958 -1.8132  0.4281
  672MOL0     H90678   2.233   5.814   7.878  0.1477 -1.5299 -0.7308
  672MOL0     H90679   2.206   5.720   8.020 -0.1033 -0.4574 -0.5371
  672MOL0     H90680   2.129   5.654   7.808  1.5169  1.6155  2.6222
  672MOL0     H90681   2.029   5.483   7.650 -0.1460 -0.4341 -1.9629
  672MOL0     H90682   1.870   5.112   7.627  2.8940 -0.6547 -0.6022
  672MOL0     H90683   1.739   4.929   7.496 -1.9318  0.1661 -0.6670
  672MOL0     H90684   1.804   4.948   7.038  0.3155 -0.7216 -0.7452
  672MOL0     H90685   1.681   4.820   7.053 -0.3474  0.2899 -0.3591
  672MOL0     H90686   1.503   4.988   7.117  0.5293 -1.1606  0.1327
  672MOL0     H90687   1.623   5.115   7.087  1.1968 -1.0419  2.1771
  672MOL0     H90688   1.637   4.987   6.844  1.6577 -2.9292  2.0289
  672MOL0     H90689   1.507   4.887   6.897 -1.5824  0.4005 -0.9984
  672MOL0     H90690   1.465   5.190   6.906  2.5146  0.9446 -1.9030
  672MOL0     H90691   1.350   5.061   6.908 -0.0012 -0.3515  0.4986
  672MOL0     H90692   1.317   5.154   6.721 -0.9742 -0.1591 -1.1466
  672MOL0     H90693   1.371   4.992   6.687 -3.0448  0.7003 -0.4952
  672MOL0     H90694   1.533   5.247   6.625  4.5067 -1.3975  2.0841
  672MOL0     H90695   1.604   5.083   6.625  0.4936  0.5821 -0.1322
  672MOL0     H90696   1.488   5.000   6.441 -0.5235 -0.4650 -0.5757
  672MOL0     H90697   1.534   5.158   6.393  1.3226 -1.8642  0.3025
  672MOL0     H90698   1.295   5.171   6.343 -2.1129  1.3560  0.6689
  672MOL0     H90699   1.272   5.060   6.478  1.7670 -0.1999  1.1636
  672MOL0     H90700   1.944   5.043   7.135 -1.1196 -3.8802  0.2475
  672MOL0     H90701   2.048   5.219   7.241 -1.4810 -1.6328 -3.7514
  672MOL0     H90702   2.412   5.301   7.613 -0.3355 -1.0931  0.4881
  672MOL0     H90703   2.510   5.457   7.788  1.3352 -4.0685 -0.5757
  672MOL0     H90704   1.992   5.183   9.133 -2.6740 -0.4557 -2.0845
  672MOL0     H90705   1.806   5.090   9.285 -0.3824 -1.4936  0.0770
  672MOL0     H90706   1.686   5.027   9.659 -0.1269 -2.1965 -1.2083
  672MOL0     H90707   1.610   5.066   9.886  0.5142  0.3727 -3.5055
  672MOL0     H90708   1.487   5.053  10.059 -2.3672  2.5760  3.1394
  672MOL0     H90709   1.644   5.095  10.103  0.9997 -1.5424 -0.1736
  672MOL0     H90710   1.477   4.902  10.281 -0.5906  1.0831  3.9520
  672MOL0     H90711   1.414   5.062  10.254 -0.2869 -1.1774  0.4330
  672MOL0     H90712   1.712   5.011  10.328 -1.2901 -1.3143 -0.8613
  672MOL0     H90713   1.587   4.970  10.447  2.4034 -1.8776 -0.7159
  672MOL0     H90714   1.478   5.179  10.425 -0.3450 -2.2617 -2.4204
  672MOL0     H90715   1.637   5.217  10.508 -0.9646 -1.8524  1.6641
  672MOL0     H90716   1.703   5.437  10.161 -0.1218  0.0090  0.1507
  672MOL0     H90717   1.787   4.706  10.017 -1.3566 -1.1525 -0.7597
  672MOL0     H90718   1.872   4.554   9.746  4.5421 -2.9294  1.0036
  672MOL0     H90719   2.017   4.655   9.744  0.2475 -2.3511 -0.4256
  672MOL0     H90720   1.955   4.605   9.896  3.1863  2.2821 -0.2010
  673MOL0     O90721   0.983  10.611   6.878  0.0153 -0.0285  0.9702
  673MOL0     C90722   1.046  10.540   6.806 -0.6734 -0.6520 -0.3731
  673MOL0     O90723   1.070  10.405   6.820  0.2769  0.1513  0.3219
  673MOL0     C90724   1.049  10.351   6.935  0.2520  1.0297 -0.3304
  673MOL0     C90725   1.125  10.389   7.048  0.2373 -0.5421  0.1200
  673MOL0     C90726   1.130  10.306   7.160  0.8420 -0.6196  0.1453
  673MOL0     C90727   1.046  10.196   7.163  0.4295  0.6174 -0.8396
  673MOL0     O90728   1.058  10.110   7.276  0.2382  0.6536 -0.1489
  673MOL0     C90729   0.938  10.060   7.338  0.2252  0.0344  0.3900
  673MOL0     C90730   0.971   9.989   7.468 -1.5212 -0.9502  0.6022
  673MOL0     C90731   0.842   9.970   7.558 -0.6416  1.0986 -0.1953
  673MOL0     C90732   0.893   9.884   7.681 -0.2552 -0.4856 -0.3170
  673MOL0     C90733   0.778   9.880   7.776 -0.3633  0.5389 -0.3565
  673MOL0     C90734   0.787   9.764   7.878  0.0954 -0.2353 -0.6933
  673MOL0     C90735   0.681   9.781   7.991  0.6889  0.1397 -0.1454
  673MOL0     C90736   0.689   9.677   8.111  0.4465  0.1375 -0.1412
  673MOL0     N90737   0.681   9.533   8.076 -0.0888  0.1468 -0.0497
  673MOL0     C90738   0.756   9.427   8.132  0.5939  0.0141 -0.0103
  673MOL0     C90739   0.716   9.320   8.064  1.0237 -0.1302  0.4372
  673MOL0     C90740   0.759   9.183   8.109 -0.2233  0.5105 -0.2606
  673MOL0     C90741   0.640   9.087   8.080 -0.2283 -0.1467 -0.6359
  673MOL0     C90742   0.660   8.939   8.118 -0.1575 -0.2708 -0.2472
  673MOL0     C90743   0.677   8.921   8.267 -0.3820  0.2358 -0.4910
  673MOL0     O90744   0.553   8.946   8.336 -0.5408  1.0394 -0.2389
  673MOL0     C90745   0.540   8.901   8.468 -0.3227 -0.0942  1.2936
  673MOL0     C90746   0.420   8.851   8.512 -0.6524 -0.1317 -0.7456
  673MOL0     C90747   0.422   8.783   8.631 -0.7493  0.3371  0.6885
  673MOL0     C90748   0.531   8.769   8.717 -0.1600  0.2052  0.1267
  673MOL0     C90749   0.503   8.705   8.846 -0.5421 -0.1997  0.0973
  673MOL0     O90750   0.422   8.590   8.846 -0.5103 -0.9328 -0.5043
  673MOL0     C90751   0.377   8.536   8.960  1.0784  0.6125 -0.2688
  673MOL0     C90752   0.354   8.618   9.074 -0.1738  0.0052 -0.6417
  673MOL0     C90753   0.331   8.557   9.206  0.2642  0.1990  0.4397
  673MOL0     C90754   0.337   8.422   9.216  0.6975  1.0790  0.3635
  673MOL0     O90755   0.297   8.366   9.334  0.4581 -0.2395  0.1298
  673MOL0     C90756   0.399   8.275   9.378 -0.3453 -0.2915 -0.0601
  673MOL0     C90757   0.378   8.265   9.531 -0.6077 -0.1961  0.7507
  673MOL0     C90758   0.244   8.195   9.564  0.3071 -0.2168  0.6500
  673MOL0     C90759   0.197   8.207   9.708 -0.0587  0.7775  0.0750
  673MOL0     C90760   0.081   8.107   9.741 -0.4241 -0.1931 -0.3186
  673MOL0     C90761  -0.054   8.172   9.737  0.4374  0.0379 -0.6823
  673MOL0     C90762  -0.158   8.064   9.782  0.0994  0.3263 -0.1238
  673MOL0     C90763  -0.199   8.082   9.927  0.6402  0.2712 -0.8873
  673MOL0    Cl90764  -0.262   8.247   9.967 -0.4011  0.0012 -0.6009
  673MOL0     C90765   0.354   8.344   9.106 -0.0975  0.1046  0.0090
  673MOL0     C90766   0.377   8.398   8.982  0.0348 -0.2322 -0.3139
  673MOL0     O90767   0.566   8.755   8.938 -0.1331 -0.0773  0.2914
  673MOL0     C90768   0.654   8.809   8.668 -0.5321 -0.6589  1.1996
  673MOL0     C90769   0.661   8.882   8.548 -0.2917  0.7912  0.1084
  673MOL0     N90770   0.626   9.359   7.965  0.0739 -0.1820 -0.2025
  673MOL0     N90771   0.604   9.489   7.979 -0.2830 -0.8335 -0.7576
  673MOL0     C90772   0.970  10.153   7.055 -0.4996  0.0375 -0.6554
  673MOL0     C90773   0.981  10.229   6.944  0.3107  0.2669  0.0383
  673MOL0     C90774   1.120  10.607   6.693 -0.5000 -1.0087 -0.3031
  673MOL0     C90775   1.168  10.529   6.587  0.3152  0.1765 -0.1851
  673MOL0     C90776   1.226  10.572   6.470  0.2357  0.0831 -0.3698
  673MOL0     C90777   1.242  10.710   6.453 -0.6069 -0.1727 -0.2408
  673MOL0     O90778   1.320  10.756   6.355  0.5908  0.0395 -0.0685
  673MOL0     C90779   1.302  10.707   6.224  0.7029  0.0250  1.0293
  673MOL0     C90780   1.393  10.781   6.121  0.2058  0.0874  0.7391
  673MOL0     C90781   1.381  10.926   6.135  0.2176  0.2725  0.1611
  673MOL0     C90782   1.500  11.012   6.088 -0.0573  0.4343  0.4251
  673MOL0     C90783   1.532  10.984   5.947 -1.9120  0.4881 -0.6405
  673MOL0     C90784   1.562  10.957   5.830  0.1753 -0.6896 -0.1766
  673MOL0     C90785   1.194  10.798   6.551 -0.5786 -0.2407  0.0721
  673MOL0     C90786   1.124  10.751   6.666 -0.1014 -0.3665 -0.0471
  673MOL0     C90787   1.085  10.859   6.763  0.0874  1.6085  0.0972
  673MOL0     H90788   1.191  10.474   7.034  0.4471 -0.9517 -1.5743
  673MOL0     H90789   1.207  10.321   7.236  0.7514  0.3304  0.0623
  673MOL0     H90790   0.864  10.139   7.353 -3.1281 -3.0431  1.5128
  673MOL0     H90791   0.882   9.990   7.276 -2.8379  1.6433  1.1340
  673MOL0     H90792   1.059  10.037   7.512 -1.5551  0.4514 -0.8032
  673MOL0     H90793   1.013   9.889   7.451 -1.3128 -1.0717  1.7140
  673MOL0     H90794   0.773   9.916   7.492 -1.2222  0.6245  0.7747
  673MOL0     H90795   0.811  10.071   7.584  0.8526  1.6489 -0.4454
  673MOL0     H90796   0.926   9.788   7.638  0.8029  0.0702 -0.7868
  673MOL0     H90797   0.978   9.930   7.732 -0.4712 -0.2929 -0.1304
  673MOL0     H90798   0.786   9.974   7.833 -1.3792  2.5237 -3.2648
  673MOL0     H90799   0.675   9.878   7.740 -0.5767  1.7060  0.1354
  673MOL0     H90800   0.782   9.680   7.809 -0.2868  0.7393 -1.8778
  673MOL0     H90801   0.878   9.749   7.937 -1.0632  1.0035  1.5695
  673MOL0     H90802   0.578   9.792   7.957 -0.4914  0.2833  3.1162
  673MOL0     H90803   0.706   9.880   8.029  1.6768 -0.5108  1.0100
  673MOL0     H90804   0.785   9.693   8.161  0.5595  0.6374 -0.5121
  673MOL0     H90805   0.614   9.697   8.188 -0.4015 -0.1653 -0.8704
  673MOL0     H90806   0.825   9.429   8.216  1.5266 -1.1917 -0.7107
  673MOL0     H90807   0.840   9.146   8.045 -0.3797 -0.6640  0.1931
  673MOL0     H90808   0.796   9.176   8.212  0.7346 -2.1141 -0.7069
  673MOL0     H90809   0.548   9.126   8.124  0.0350 -0.5422  0.2730
  673MOL0     H90810   0.622   9.101   7.973  0.5533  2.3221 -0.5104
  673MOL0     H90811   0.752   8.914   8.063  0.2049 -1.6422  0.9176
  673MOL0     H90812   0.569   8.888   8.083 -2.9373  2.7022  2.0415
  673MOL0     H90813   0.747   8.989   8.317 -0.4710 -1.8298  2.6859
  673MOL0     H90814   0.714   8.819   8.283 -0.5770  0.1652 -0.4925
  673MOL0     H90815   0.337   8.864   8.443 -0.0456 -0.7058 -1.6200
  673MOL0     H90816   0.327   8.744   8.668  0.0246  0.9319  3.5920
  673MOL0     H90817   0.356   8.726   9.085  0.6202 -0.0879  0.1934
  673MOL0     H90818   0.323   8.621   9.294  2.8244 -0.4298  1.2355
  673MOL0     H90819   0.398   8.173   9.338 -0.7450 -0.1579 -0.4014
  673MOL0     H90820   0.496   8.325   9.366  0.3462 -1.6873 -0.5848
  673MOL0     H90821   0.460   8.204   9.569  0.1269 -1.1828 -2.1692
  673MOL0     H90822   0.381   8.361   9.584  2.3731  1.4044 -2.0022
  673MOL0     H90823   0.160   8.237   9.508 -1.4176 -0.6276  2.7864
  673MOL0     H90824   0.252   8.091   9.533 -0.0960  0.2252 -1.0364
  673MOL0     H90825   0.150   8.305   9.720 -2.5814 -0.1095 -1.7816
  673MOL0     H90826   0.284   8.195   9.774 -1.0684  1.1769  1.5049
  673MOL0     H90827   0.095   8.085   9.847  1.2078  1.8227 -0.0623
  673MOL0     H90828   0.077   8.014   9.684 -0.7538  0.9246 -2.1954
  673MOL0     H90829  -0.053   8.260   9.801  0.7131 -1.6611  1.7731
  673MOL0     H90830  -0.075   8.210   9.636  0.0690  4.0777  0.7439
  673MOL0     H90831  -0.116   7.964   9.771 -2.7151 -1.0038  0.3719
  673MOL0     H90832  -0.244   8.070   9.714 -0.1106 -1.0335 -0.0053
  673MOL0     H90833  -0.270   8.005   9.958 -0.0059  0.1410 -2.5673
  673MOL0     H90834  -0.106   8.067   9.982  1.9391  2.6658 -2.3172
  673MOL0     H90835   0.365   8.236   9.104  1.2105  0.2163  0.2513
  673MOL0     H90836   0.395   8.338   8.893 -0.5961  2.3178 -2.2739
  673MOL0     H90837   0.736   8.789   8.736  0.4672 -0.1438  0.1720
  673MOL0     H90838   0.763   8.913   8.528  0.3172 -1.3558 -0.3905
  673MOL0     H90839   0.928  10.053   7.059  1.2693 -0.7701 -1.1666
  673MOL0     H90840   0.936  10.181   6.858  2.1719 -4.1207  1.2346
  673MOL0     H90841   1.156  10.423   6.606  1.0656 -0.2733 -1.9831
  673MOL0     H90842   1.274  10.496   6.408  1.7080  1.5296 -1.0657
  673MOL0     H90843   1.197  10.695   6.195  1.0366 -3.8642  0.8212
  673MOL0     H90844   1.338  10.604   6.236  0.6490  0.0227  1.1760
  673MOL0     H90845   1.357  10.757   6.021 -2.0351  0.1516  1.4791
  673MOL0     H90846   1.499  10.751   6.121 -0.0224 -0.9041  3.0875
  673MOL0     H90847   1.363  10.962   6.237  6.0606  2.6563  0.7746
  673MOL0     H90848   1.295  10.950   6.072  0.1065 -3.6797 -1.5396
  673MOL0     H90849   1.472  11.117   6.096  1.4597  1.1262 -2.3977
  673MOL0     H90850   1.578  11.000   6.164 -1.6005  1.3999  2.2539
  673MOL0     H90851   1.602  10.929   5.734 -3.2447 -3.5621 -0.9569
  673MOL0     H90852   1.208  10.903   6.528  0.7339 -0.6776 -1.2573
  673MOL0     H90853   1.137  10.955   6.761  1.2621  1.0218  0.9258
  673MOL0     H90854   0.979  10.882   6.750 -0.2997 -0.4479 -0.7680
  673MOL0     H90855   1.080  10.824   6.867 -3.5414 -0.6271 -0.6711
  674MOL0     O90856   2.959   9.700  10.489  0.1611 -0.2905 -0.3418
  674MOL0     C90857   2.964   9.820  10.518 -0.4711  0.1145 -0.0619
  674MOL0     O90858   2.890   9.882  10.613  0.6596  0.1492  0.1773
  674MOL0     C90859   2.825   9.798  10.700 -0.0611  0.7997  0.0353
  674MOL0     C90860   2.862   9.784  10.835  0.3961 -0.1175 -0.7108
  674MOL0     C90861   2.802   9.682  10.908  1.1850 -0.2269  0.1839
  674MOL0     C90862   2.695   9.596  10.861  0.3707 -0.9051  1.5968
  674MOL0     O90863   2.639   9.503  10.932 -0.0370  0.2525 -0.6779
  674MOL0     C90864   2.498   9.483  10.940 -0.3947 -0.0783 -0.1575
  674MOL0     C90865   2.443   9.465  11.084  1.0307  0.2109 -0.2995
  674MOL0     C90866   2.292   9.418  11.091  0.1255  0.3829  0.8463
  674MOL0     C90867   2.245   9.356  11.227 -0.5179  0.5260  0.1957
  674MOL0     C90868   2.103   9.314  11.226 -0.5098 -0.2812 -0.8724
  674MOL0     C90869   2.077   9.192  11.140  0.0681  0.7331  0.3419
  674MOL0     C90870   1.934   9.126  11.155  0.0402  0.0590 -1.2391
  674MOL0     C90871   1.824   9.217  11.101  1.1197 -0.3440 -0.0597
  674MOL0     N90872   1.696   9.168  11.161 -0.3628 -0.5233  0.6534
  674MOL0     C90873   1.638   9.219  11.276  0.5855  0.3487  0.6699
  674MOL0     C90874   1.520   9.151  11.281  0.3226 -0.2272  0.7219
  674MOL0     C90875   1.405   9.181  11.378 -0.2239 -0.3449 -0.7159
  674MOL0     C90876   1.442   9.105  11.505 -0.3906  0.2824  0.1721
  674MOL0     C90877   1.338   9.127  11.613  0.1309  0.3783 -0.3856
  674MOL0     C90878   1.223   9.035  11.594 -0.2050  0.8132  0.8669
  674MOL0     O90879   1.102   9.079  11.657 -0.2694  1.1380 -0.1949
  674MOL0     C90880   0.983   9.002  11.656 -0.7260  0.7133  0.4957
  674MOL0     C90881   0.875   9.043  11.730 -0.2533 -0.3958  0.9402
  674MOL0     C90882   0.754   8.980  11.742 -0.0812 -1.3231 -0.0478
  674MOL0     C90883   0.742   8.852  11.685 -0.0089  0.5343 -0.4645
  674MOL0     C90884   0.616   8.784  11.711  0.2582 -0.2303  0.0194
  674MOL0     O90885   0.523   8.857  11.781  0.5522 -0.4700 -0.6923
  674MOL0     C90886   0.409   8.802  11.827  0.0230 -0.2283 -0.8798
  674MOL0     C90887   0.305   8.888  11.843 -0.0769 -0.3940 -0.0637
  674MOL0     C90888   0.175   8.856  11.894 -0.7173  0.7665  0.1018
  674MOL0     C90889   0.152   8.726  11.916 -0.0379  0.2423 -0.3878
  674MOL0     O90890   0.033   8.674  11.962 -0.0801 -0.3854 -0.3885
  674MOL0     C90891  -0.013   8.738  12.085 -0.0080 -0.6520 -0.2883
  674MOL0     C90892  -0.124   8.845  12.058 -1.3108  0.7875 -0.5079
  674MOL0     C90893  -0.131   8.946  12.174  0.3804  0.0938  0.1436
  674MOL0     C90894  -0.257   9.029  12.142 -0.8031 -0.2224  0.8258
  674MOL0     C90895  -0.364   9.007  12.242  0.3059  0.0946 -0.9592
  674MOL0     C90896  -0.498   9.046  12.170  0.0167 -0.8147  0.3486
  674MOL0     C90897  -0.622   9.000  12.249 -0.2795 -0.3309 -0.2911
  674MOL0     C90898  -0.742   9.088  12.214 -0.3036  0.9244 -0.4638
  674MOL0    Cl90899  -0.905   9.044  12.296  0.0863 -0.0290  0.0048
  674MOL0     C90900   0.256   8.628  11.901 -0.1907  0.1601 -0.6562
  674MOL0     C90901   0.391   8.668  11.864  0.7423  1.0501 -0.1607
  674MOL0     O90902   0.589   8.677  11.655  0.8137  0.2075 -0.4545
  674MOL0     C90903   0.849   8.797  11.610  0.2057 -0.6602 -0.2114
  674MOL0     C90904   0.967   8.868  11.595  0.1852 -0.2828  0.4984
  674MOL0     N90905   1.518   9.061  11.182  0.0801 -0.3170 -0.0658
  674MOL0     N90906   1.624   9.082  11.096  0.6734  0.0848 -0.0607
  674MOL0     C90907   2.667   9.604  10.716  0.8227 -0.2143 -0.4439
  674MOL0     C90908   2.724   9.709  10.640  1.1117  0.2281 -0.1341
  674MOL0     C90909   3.055   9.892  10.420  0.0382  0.0379  0.2357
  674MOL0     C90910   3.097  10.018  10.467  1.1537  1.5811  0.0140
  674MOL0     C90911   3.159  10.103  10.380  0.7564 -0.8299 -0.0458
  674MOL0     C90912   3.203  10.067  10.254  0.1283 -0.4293  0.0236
  674MOL0     O90913   3.283  10.142  10.165 -0.5415 -0.0679 -0.4507
  674MOL0     C90914   3.339  10.268  10.200 -0.7945  0.2574 -0.0745
  674MOL0     C90915   3.253  10.381  10.144  0.5331 -0.4828  0.0951
  674MOL0     C90916   3.320  10.524  10.159 -0.2841  0.5736  0.3707
  674MOL0     C90917   3.397  10.577  10.035  0.7702  0.4012 -0.1893
  674MOL0     C90918   3.402  10.723  10.035  0.4158  0.3724  0.4151
  674MOL0     C90919   3.397  10.845  10.033 -0.1773  0.3342  0.1327
  674MOL0     C90920   3.162   9.940  10.213  0.2658  0.0579 -0.2488
  674MOL0     C90921   3.085   9.853  10.288  0.8056  0.7097  0.1546
  674MOL0     C90922   3.059   9.718  10.219 -0.2026  0.3853 -0.5434
  674MOL0     H90923   2.952   9.835  10.868 -1.7359  1.8889  2.7210
  674MOL0     H90924   2.854   9.654  10.999 -0.5427  0.2030  1.3445
  674MOL0     H90925   2.449   9.575  10.908  0.6151  1.1569  1.6765
  674MOL0     H90926   2.478   9.391  10.884 -1.4203 -1.9563  3.0132
  674MOL0     H90927   2.458   9.557  11.142 -1.5221  1.5007 -1.5308
  674MOL0     H90928   2.498   9.379  11.123  1.6180  0.4952 -0.4807
  674MOL0     H90929   2.280   9.344  11.011  1.3321  0.1425  0.8775
  674MOL0     H90930   2.240   9.508  11.057  1.8085  1.1707  0.2643
  674MOL0     H90931   2.311   9.272  11.247  3.5383  2.7806 -2.4292
  674MOL0     H90932   2.268   9.431  11.303 -2.0809  2.1989 -0.8707
  674MOL0     H90933   2.074   9.282  11.326  0.0802 -1.4724 -1.0672
  674MOL0     H90934   2.040   9.397  11.193 -1.1366  0.1268  1.2315
  674MOL0     H90935   2.094   9.205  11.032  1.3411 -2.2809  0.0771
  674MOL0     H90936   2.148   9.112  11.162 -0.1825  0.0752 -1.1073
  674MOL0     H90937   1.916   9.119  11.263  0.1302  2.7251 -0.9905
  674MOL0     H90938   1.929   9.029  11.105  0.2962 -0.6166  0.0113
  674MOL0     H90939   1.845   9.323  11.117  1.5815 -0.4852  0.3173
  674MOL0     H90940   1.815   9.210  10.993  1.0192  4.0225 -0.4980
  674MOL0     H90941   1.677   9.295  11.343 -0.8738 -1.2181  3.5061
  674MOL0     H90942   1.389   9.286  11.401  0.1001 -0.5596  0.5608
  674MOL0     H90943   1.307   9.141  11.349 -0.9181 -0.0376  1.0979
  674MOL0     H90944   1.460   9.001  11.475 -1.7346 -0.3141  1.3340
  674MOL0     H90945   1.536   9.138  11.552  1.0741 -1.8127 -1.0973
  674MOL0     H90946   1.293   9.226  11.620 -2.0664 -0.4364 -1.8400
  674MOL0     H90947   1.380   9.100  11.711  0.3597 -0.1213 -0.6190
  674MOL0     H90948   1.248   8.938  11.640 -0.3250  2.5284  5.0218
  674MOL0     H90949   1.204   9.026  11.487  2.7076 -2.4418  0.4372
  674MOL0     H90950   0.881   9.133  11.790 -4.3544 -1.4700  3.3350
  674MOL0     H90951   0.680   9.033  11.801  1.6478 -0.5665  1.5432
  674MOL0     H90952   0.321   8.995  11.840 -5.7723  0.7849 -0.4122
  674MOL0     H90953   0.104   8.937  11.908 -0.6781  1.4110 -2.7979
  674MOL0     H90954  -0.046   8.655  12.148  3.1101 -3.3927 -1.9494
  674MOL0     H90955   0.067   8.789  12.138 -2.5062  3.2037  0.1954
  674MOL0     H90956  -0.085   8.896  11.970 -1.5020 -1.2909 -1.8793
  674MOL0     H90957  -0.220   8.794  12.044 -1.1913 -0.1960  1.7686
  674MOL0     H90958  -0.156   8.894  12.267 -1.3571  3.3393  1.6794
  674MOL0     H90959  -0.034   8.998  12.173 -0.3824  1.5748  0.5196
  674MOL0     H90960  -0.299   9.010  12.043  2.3338  1.8477 -1.0784
  674MOL0     H90961  -0.236   9.136  12.135 -0.0108 -0.4670 -1.2485
  674MOL0     H90962  -0.354   9.069  12.332 -0.8219  0.2109 -0.9105
  674MOL0     H90963  -0.365   8.903  12.276  1.7312 -0.2256 -1.8071
  674MOL0     H90964  -0.505   9.154  12.158 -0.8740 -1.0882 -2.1210
  674MOL0     H90965  -0.495   9.012  12.066  4.2109  0.1800 -0.0191
  674MOL0     H90966  -0.600   8.989  12.355 -0.2567  2.3611  0.0572
  674MOL0     H90967  -0.637   8.895  12.221 -0.3338 -1.0301  2.1529
  674MOL0     H90968  -0.718   9.188  12.250  0.1336  0.0781  1.7912
  674MOL0     H90969  -0.756   9.080  12.106  1.4808  0.2741 -0.6884
  674MOL0     H90970   0.228   8.525  11.917  0.0458  0.1716 -0.1444
  674MOL0     H90971   0.471   8.596  11.852  2.1373  2.4915  0.1026
  674MOL0     H90972   0.841   8.697  11.568  0.2939 -0.0400 -1.7567
  674MOL0     H90973   1.048   8.819  11.543  0.4090  0.1263  0.4583
  674MOL0     H90974   2.596   9.537  10.668 -2.2761  1.4069  1.5288
  674MOL0     H90975   2.681   9.724  10.541 -4.2871 -1.5646  1.5723
  674MOL0     H90976   3.084  10.040  10.573 -1.4523  0.8941 -0.1154
  674MOL0     H90977   3.192  10.196  10.427 -0.1485 -2.0695  3.2789
  674MOL0     H90978   3.442  10.274  10.164 -0.9069 -1.6565 -0.8349
  674MOL0     H90979   3.346  10.292  10.306  3.9722  1.9753 -0.5702
  674MOL0     H90980   3.160  10.374  10.203 -0.0290 -0.0591 -0.7277
  674MOL0     H90981   3.234  10.354  10.040 -0.2133 -2.8907  0.7884
  674MOL0     H90982   3.394  10.524  10.240 -0.7670 -0.1938  0.8331
  674MOL0     H90983   3.242  10.590  10.195 -0.8288  1.3492 -2.0720
  674MOL0     H90984   3.498  10.534  10.034  0.5085 -0.2570 -1.7651
  674MOL0     H90985   3.333  10.538   9.955  0.2173 -3.8360  2.0327
  674MOL0     H90986   3.398  10.952  10.028 -3.0970  0.4102 -1.0959
  674MOL0     H90987   3.194   9.916  10.112  2.6937 -2.1132  0.9168
  674MOL0     H90988   2.953   9.713  10.191 -0.8660  2.3432  1.3091
  674MOL0     H90989   3.113   9.713  10.125  0.7405  0.9089 -0.0444
  674MOL0     H90990   3.091   9.636  10.283  0.6375  0.8354 -0.3740
  675MOL0     O90991   0.221   0.905   2.113  0.1377  0.7274 -0.2700
  675MOL0     C90992   0.207   0.952   2.223  0.0518  0.3520  0.3636
  675MOL0     O90993   0.287   1.049   2.282 -0.3045  0.1338 -0.9511
  675MOL0     C90994   0.394   1.103   2.211  0.2243  0.5516  0.6313
  675MOL0     C90995   0.378   1.154   2.077  0.1519  1.1104 -0.2992
  675MOL0     C90996   0.485   1.187   2.003 -1.4019  0.3339  0.2233
  675MOL0     C90997   0.618   1.196   2.047  0.4368 -0.3364 -0.2734
  675MOL0     O90998   0.716   1.244   1.972  0.1963  0.4639 -0.0246
  675MOL0     C90999   0.699   1.375   1.931  0.7048  0.3865  0.2766
  675MOL0     C91000   0.799   1.409   1.818  0.3860 -0.4471  1.1906
  675MOL0     C91001   0.946   1.406   1.855  0.1772 -1.1819 -1.3433
  675MOL0     C91002   0.979   1.456   2.001 -1.2117  0.1842 -0.5522
  675MOL0     C91003   1.128   1.514   2.016  0.4361 -0.4626 -0.7295
  675MOL0     C91004   1.225   1.409   2.028 -0.1185 -0.6869  0.7703
  675MOL0     C91005   1.368   1.462   2.047  0.9804 -0.4793  0.3584
  675MOL0     C91006   1.482   1.358   2.012 -1.0046  0.2424  0.9249
  675MOL0     N91007   1.569   1.330   2.122 -0.3491  0.0697 -0.3743
  675MOL0     C91008   1.560   1.371   2.252 -0.0074  0.4873 -0.3930
  675MOL0     C91009   1.669   1.312   2.312  0.0659  0.4358 -1.5261
  675MOL0     C91010   1.712   1.349   2.459 -0.7067  0.2892  1.6631
  675MOL0     C91011   1.668   1.261   2.570 -0.5564 -0.0536 -1.2403
  675MOL0     C91012   1.672   1.328   2.711  1.1527 -0.3824  0.1514
  675MOL0     C91013   1.593   1.238   2.814  0.1657 -1.0627  0.1375
  675MOL0     O91014   1.584   1.309   2.936  0.7655 -0.3633 -0.1265
  675MOL0     C91015   1.539   1.258   3.049  0.3039 -0.3076 -0.3908
  675MOL0     C91016   1.556   1.332   3.164 -0.0680 -0.5705  0.2227
  675MOL0     C91017   1.515   1.292   3.290  0.4904  0.4148 -0.6867
  675MOL0     C91018   1.435   1.169   3.292  0.1480  0.2085 -0.0899
  675MOL0     C91019   1.390   1.127   3.423  0.0947 -0.2138  0.1371
  675MOL0     O91020   1.380   1.221   3.520  0.1726 -0.4865  0.3475
  675MOL0     C91021   1.350   1.183   3.643 -0.3352 -0.1317  0.3185
  675MOL0     C91022   1.417   1.079   3.715  0.2100 -0.1617 -0.3037
  675MOL0     C91023   1.393   1.055   3.847  0.3496  0.3920 -0.8483
  675MOL0     C91024   1.294   1.121   3.920  0.0547 -0.1743  0.3066
  675MOL0     O91025   1.273   1.067   4.047 -0.7939 -0.3092 -0.0620
  675MOL0     C91026   1.207   1.140   4.144  0.0041  1.0755  0.4507
  675MOL0     C91027   1.099   1.060   4.210 -0.1083  1.0945  0.0587
  675MOL0     C91028   1.156   0.940   4.281 -0.8090  0.5328 -0.3923
  675MOL0     C91029   1.067   0.814   4.273  0.1480  1.0123  0.0572
  675MOL0     C91030   1.147   0.693   4.323  0.6003  0.8043 -0.6453
  675MOL0     C91031   1.206   0.614   4.205 -0.5725  0.2382  0.4195
  675MOL0     C91032   1.291   0.495   4.241  0.4745  0.8155  0.3179
  675MOL0     C91033   1.199   0.369   4.272  0.5293  0.1312  0.6462
  675MOL0    Cl91034   1.296   0.220   4.306 -0.6153 -0.3184  0.3788
  675MOL0     C91035   1.222   1.220   3.847 -0.8291  0.7209  0.3112
  675MOL0     C91036   1.249   1.244   3.712 -0.6709 -0.6858 -0.3821
  675MOL0     O91037   1.374   1.004   3.449 -0.0176 -0.2275 -0.3383
  675MOL0     C91038   1.407   1.091   3.174 -0.7103  0.4228  0.2581
  675MOL0     C91039   1.466   1.133   3.053  0.8532 -0.7101 -0.0990
  675MOL0     N91040   1.731   1.231   2.221  0.7715 -0.2562  0.2017
  675MOL0     N91041   1.669   1.241   2.115  0.0126 -0.1067 -0.2137
  675MOL0     C91042   0.634   1.169   2.182  0.8085  0.4933 -1.1484
  675MOL0     C91043   0.521   1.116   2.267 -0.9741 -0.4139  0.2753
  675MOL0     C91044   0.098   0.908   2.305  0.1186 -0.9860 -0.3103
  675MOL0     C91045   0.082   0.964   2.431  0.0386  0.1558  0.3120
  675MOL0     C91046   0.008   0.906   2.540 -0.2896 -0.7809  0.4068
  675MOL0     C91047  -0.061   0.789   2.518 -1.1805  0.3164 -0.3047
  675MOL0     O91048  -0.142   0.720   2.606  0.0552 -0.0028  0.3215
  675MOL0     C91049  -0.094   0.713   2.738 -0.3380 -0.4456 -0.2928
  675MOL0     C91050  -0.136   0.581   2.810  0.9774  0.1826  0.7314
  675MOL0     C91051  -0.285   0.559   2.829  0.5820  0.1506 -0.2488
  675MOL0     C91052  -0.361   0.514   2.713  0.3807 -0.1777 -0.5895
  675MOL0     C91053  -0.485   0.446   2.763 -0.6754  0.0314  1.4236
  675MOL0     C91054  -0.576   0.379   2.800 -0.2524 -0.3895  0.4813
  675MOL0     C91055  -0.056   0.737   2.382  0.1415  0.3507 -0.6309
  675MOL0     C91056   0.023   0.795   2.277 -0.8642  0.3419 -0.4311
  675MOL0     C91057   0.011   0.725   2.145  0.9113  0.1877 -0.2866
  675MOL0     H91058   0.277   1.155   2.037 -0.6359 -0.2585  1.5344
  675MOL0     H91059   0.476   1.220   1.900  2.0113  2.8341  0.5645
  675MOL0     H91060   0.597   1.401   1.901  0.6312  1.8240  1.6411
  675MOL0     H91061   0.719   1.445   2.013 -0.9235 -0.3964  1.3953
  675MOL0     H91062   0.777   1.508   1.777 -1.5516 -1.4164 -0.2932
  675MOL0     H91063   0.788   1.339   1.735 -1.4778 -0.3227  1.2801
  675MOL0     H91064   1.000   1.471   1.785  0.5583 -0.7434 -0.6575
  675MOL0     H91065   0.990   1.306   1.847  0.4495 -1.7587  3.8658
  675MOL0     H91066   0.918   1.542   2.029 -2.1921 -1.2906  2.2680
  675MOL0     H91067   0.960   1.383   2.080 -0.4981 -1.5404 -1.9079
  675MOL0     H91068   1.145   1.590   1.940 -3.6180  0.1464 -1.2761
  675MOL0     H91069   1.129   1.585   2.099  0.6875  1.4725 -2.3099
  675MOL0     H91070   1.208   1.340   2.111  0.6303 -3.2577 -1.0837
  675MOL0     H91071   1.217   1.344   1.939 -3.8257  1.6021 -0.8330
  675MOL0     H91072   1.387   1.518   2.139 -0.2618 -2.6140  1.9986
  675MOL0     H91073   1.380   1.546   1.977  0.9165  1.2409  2.3176
  675MOL0     H91074   1.433   1.264   1.986  0.3720 -0.2324 -0.0367
  675MOL0     H91075   1.542   1.387   1.925 -2.7646  1.2710 -0.0053
  675MOL0     H91076   1.484   1.425   2.308  0.1300 -1.1606  1.4881
  675MOL0     H91077   1.819   1.369   2.466 -0.8466  0.5649  3.4126
  675MOL0     H91078   1.664   1.445   2.480  1.2196  1.9957 -1.0211
  675MOL0     H91079   1.566   1.225   2.551 -0.5787 -0.5144 -0.2926
  675MOL0     H91080   1.747   1.186   2.576 -0.0323  0.1309 -4.2513
  675MOL0     H91081   1.633   1.430   2.720  1.6452 -0.1175 -0.5550
  675MOL0     H91082   1.780   1.334   2.727  1.2547  0.8889 -0.8225
  675MOL0     H91083   1.644   1.142   2.826  2.2820  0.1992  1.9252
  675MOL0     H91084   1.492   1.215   2.779 -1.5362 -0.4170  4.0875
  675MOL0     H91085   1.610   1.425   3.153 -1.9137  0.6220  0.7761
  675MOL0     H91086   1.536   1.360   3.372 -1.6851  3.2495 -2.2912
  675MOL0     H91087   1.491   1.018   3.664 -1.0473 -1.3399 -0.7557
  675MOL0     H91088   1.448   0.971   3.889  0.9841  0.8703 -0.7187
  675MOL0     H91089   1.273   1.183   4.219 -0.5803  0.8654  1.1004
  675MOL0     H91090   1.161   1.230   4.102 -0.6666  1.2136  1.4599
  675MOL0     H91091   1.034   1.123   4.271 -0.1618 -0.3790  1.5973
  675MOL0     H91092   1.038   1.020   4.128 -0.1468  2.2406 -0.4911
  675MOL0     H91093   1.252   0.906   4.242 -0.4710 -0.5518  1.2478
  675MOL0     H91094   1.176   0.960   4.387  1.3077  0.0988 -0.6703
  675MOL0     H91095   1.034   0.789   4.171 -1.4833 -0.0036  0.8025
  675MOL0     H91096   0.979   0.831   4.335 -0.2275 -3.6695  1.1261
  675MOL0     H91097   1.080   0.620   4.370  2.3821 -0.7404 -0.4116
  675MOL0     H91098   1.228   0.719   4.391 -0.6759  3.9488 -0.1634
  675MOL0     H91099   1.128   0.588   4.134 -2.6315 -1.7776  3.2008
  675MOL0     H91100   1.273   0.689   4.163  0.4899  0.7739  2.9069
  675MOL0     H91101   1.356   0.516   4.327 -0.9373 -2.5902  2.4496
  675MOL0     H91102   1.352   0.478   4.152 -0.9882  2.5208 -1.0952
  675MOL0     H91103   1.138   0.397   4.359 -0.6076 -1.7998  0.5308
  675MOL0     H91104   1.133   0.348   4.187  0.5435 -0.9695  0.8877
  675MOL0     H91105   1.146   1.291   3.878 -1.2486  0.7764 -0.7733
  675MOL0     H91106   1.184   1.320   3.670  1.3004  2.0932  1.2590
  675MOL0     H91107   1.338   1.007   3.176 -1.1939  0.7872 -0.8622
  675MOL0     H91108   1.435   1.098   2.955  0.8987 -0.5858 -0.1582
  675MOL0     H91109   0.730   1.168   2.232 -0.7709 -0.5992  2.1774
  675MOL0     H91110   0.532   1.085   2.371  2.1113 -2.1901 -0.4463
  675MOL0     H91111   0.141   1.050   2.462  0.4704 -1.2798  3.9489
  675MOL0     H91112   0.021   0.957   2.635 -2.2471  3.9051 -1.5359
  675MOL0     H91113  -0.114   0.806   2.791 -0.0388  0.7360 -2.1705
  675MOL0     H91114   0.012   0.688   2.732 -0.3919 -0.6932 -0.2578
  675MOL0     H91115  -0.085   0.564   2.905  0.1928  2.6342  1.6678
  675MOL0     H91116  -0.092   0.510   2.740  2.8438  2.0068 -0.0618
  675MOL0     H91117  -0.326   0.650   2.873  0.6392 -0.5075  1.2197
  675MOL0     H91118  -0.299   0.490   2.913  2.2769  1.2208  0.9784
  675MOL0     H91119  -0.377   0.602   2.649 -1.0957  0.9534  1.2083
  675MOL0     H91120  -0.303   0.443   2.655  0.7051  0.4411 -1.0237
  675MOL0     H91121  -0.655   0.323   2.845  0.7307 -2.7841 -0.6142
  675MOL0     H91122  -0.108   0.643   2.367  1.6920 -0.8101  0.7931
  675MOL0     H91123  -0.068   0.649   2.145  1.0220  0.0715 -0.4586
  675MOL0     H91124  -0.005   0.802   2.068 -4.0475  1.7737  1.9356
  675MOL0     H91125   0.101   0.672   2.114 -1.0395 -2.9382 -1.1007
  676MOL0     O91126   2.193   9.423   2.814  0.7613  0.0837  0.6033
  676MOL0     C91127   2.288   9.425   2.883 -0.6286 -0.9751 -0.6242
  676MOL0     O91128   2.299   9.405   3.020 -0.2105  0.5822  0.7069
  676MOL0     C91129   2.207   9.375   3.106  0.4875 -0.4560 -0.0673
  676MOL0     C91130   2.090   9.303   3.078  0.2448  0.0110 -1.0810
  676MOL0     C91131   1.993   9.274   3.181  0.0915  0.9038  0.4602
  676MOL0     C91132   2.031   9.301   3.319 -0.4931  0.4824  0.1914
  676MOL0     O91133   1.943   9.285   3.419  1.0257 -0.3755  0.2437
  676MOL0     C91134   1.803   9.255   3.402 -0.9133  0.4466 -0.7995
  676MOL0     C91135   1.749   9.229   3.541 -0.4712 -0.5792 -0.1140
  676MOL0     C91136   1.603   9.204   3.554 -0.3649  0.9466  0.1319
  676MOL0     C91137   1.520   9.318   3.548 -0.0029 -0.3531 -0.7081
  676MOL0     C91138   1.380   9.324   3.610  0.1494  0.5356  0.0867
  676MOL0     C91139   1.297   9.199   3.551 -0.7024  0.2351  1.0619
  676MOL0     C91140   1.155   9.201   3.592  0.6577  0.3640  0.2002
  676MOL0     C91141   1.104   9.061   3.599 -1.1177 -0.4000  0.6605
  676MOL0     N91142   1.110   9.001   3.729  1.6063  0.3621 -0.5090
  676MOL0     C91143   1.203   8.900   3.766 -0.2691  0.8845  1.1845
  676MOL0     C91144   1.168   8.865   3.894  0.5771 -0.1303 -0.8741
  676MOL0     C91145   1.232   8.764   3.993  1.5394  0.4780  0.4156
  676MOL0     C91146   1.169   8.774   4.131  1.5025  0.3369 -0.1856
  676MOL0     C91147   1.191   8.909   4.212 -0.0573  0.4758 -0.4235
  676MOL0     C91148   1.126   8.898   4.348 -0.1328 -0.1088  0.4813
  676MOL0     O91149   0.982   8.880   4.337 -0.3790 -0.2213  0.3749
  676MOL0     C91150   0.923   8.811   4.445  0.1639  0.4037 -0.4413
  676MOL0     C91151   0.862   8.692   4.415 -0.2312  0.3493  0.0693
  676MOL0     C91152   0.800   8.613   4.509  0.2009  0.9155 -0.2578
  676MOL0     C91153   0.801   8.646   4.648  0.6401 -0.8336 -0.2387
  676MOL0     C91154   0.739   8.564   4.746  0.3354  0.3972  0.3670
  676MOL0     O91155   0.695   8.628   4.859  0.0985 -0.1408 -0.4112
  676MOL0     C91156   0.669   8.561   4.981 -0.2712 -0.0871  0.5726
  676MOL0     C91157   0.727   8.442   5.035 -0.6901 -0.4019 -0.0525
  676MOL0     C91158   0.681   8.397   5.163 -0.2287  0.1254 -0.3613
  676MOL0     C91159   0.588   8.464   5.243 -0.1918 -0.3668  0.4781
  676MOL0     O91160   0.555   8.413   5.371 -0.7352  0.6144  0.1023
  676MOL0     C91161   0.425   8.447   5.421  0.1978 -1.2988  0.5252
  676MOL0     C91162   0.408   8.370   5.552 -0.3945  0.7741 -0.8208
  676MOL0     C91163   0.511   8.393   5.669  0.9393 -0.1658  0.7783
  676MOL0     C91164   0.430   8.346   5.797 -0.3090  0.1628  0.1003
  676MOL0     C91165   0.532   8.339   5.920 -0.0874 -0.0050 -0.4176
  676MOL0     C91166   0.490   8.269   6.052  0.3477  0.1521  0.5617
  676MOL0     C91167   0.582   8.290   6.177  0.5017 -0.1996 -0.9260
  676MOL0     C91168   0.584   8.435   6.230  0.4475  0.1348 -0.1940
  676MOL0    Cl91169   0.407   8.494   6.245 -0.0743  0.1471 -0.5085
  676MOL0     C91170   0.544   8.587   5.196 -0.3913 -0.1490  0.0462
  676MOL0     C91171   0.580   8.634   5.068  1.1593 -0.1949 -0.1387
  676MOL0     O91172   0.723   8.445   4.721 -0.1941  0.5351 -0.2769
  676MOL0     C91173   0.882   8.756   4.679 -0.3436 -0.1846  0.1632
  676MOL0     C91174   0.946   8.836   4.584 -0.1394 -0.0793  0.1092
  676MOL0     N91175   1.052   8.939   3.933 -0.6985  0.3974 -0.0800
  676MOL0     N91176   1.018   9.013   3.830 -0.6621 -0.2228 -1.0078
  676MOL0     C91177   2.149   9.356   3.343 -0.5936  0.0709 -0.4558
  676MOL0     C91178   2.227   9.399   3.238  0.3144  0.5462 -0.7037
  676MOL0     C91179   2.417   9.471   2.825  0.2754  0.0089 -0.1194
  676MOL0     C91180   2.530   9.442   2.893 -1.2540  0.0157 -0.3582
  676MOL0     C91181   2.656   9.461   2.836  0.3298 -0.8940  0.0478
  676MOL0     C91182   2.674   9.516   2.702  0.0484  0.2529 -0.7308
  676MOL0     O91183   2.802   9.537   2.659 -0.0724 -0.5882  0.2267
  676MOL0     C91184   2.902   9.439   2.693  0.2610  0.2422  0.3225
  676MOL0     C91185   3.015   9.435   2.596  0.4777 -0.1306 -0.7606
  676MOL0     C91186   2.963   9.373   2.469  0.0411  0.0020 -1.3551
  676MOL0     C91187   3.050   9.389   2.340  0.0057  1.4922  0.4901
  676MOL0     C91188   3.089   9.515   2.303 -0.1320 -0.3044 -0.0415
  676MOL0     C91189   3.129   9.620   2.269  0.3401 -0.2028  0.4873
  676MOL0     C91190   2.554   9.544   2.630 -1.2376 -0.1275  0.7176
  676MOL0     C91191   2.428   9.523   2.689  0.3429 -0.4797 -0.0604
  676MOL0     C91192   2.303   9.536   2.584 -0.3622 -0.0295 -0.6837
  676MOL0     H91193   2.076   9.270   2.976 -3.6747  1.1040 -1.0599
  676MOL0     H91194   1.898   9.226   3.160  0.6110 -0.6618  1.5939
  676MOL0     H91195   1.744   9.333   3.352 -1.6009  0.0567 -0.6116
  676MOL0     H91196   1.786   9.164   3.343 -0.5778  1.3685 -2.3812
  676MOL0     H91197   1.774   9.315   3.604 -0.3334  0.3159 -1.3577
  676MOL0     H91198   1.809   9.144   3.575  1.1234  0.9267  1.0699
  676MOL0     H91199   1.584   9.147   3.646  0.1470 -1.7107 -1.3017
  676MOL0     H91200   1.576   9.136   3.472 -1.2125  2.3024 -0.7674
  676MOL0     H91201   1.588   9.394   3.587 -0.9353  0.7795 -1.2270
  676MOL0     H91202   1.499   9.341   3.443 -3.3510 -0.7512 -0.2458
  676MOL0     H91203   1.377   9.334   3.719  0.2506 -2.7182  0.4769
  676MOL0     H91204   1.333   9.413   3.567 -1.7349 -1.3574 -2.0585
  676MOL0     H91205   1.303   9.196   3.442  0.6713  1.0359  1.1054
  676MOL0     H91206   1.346   9.113   3.598  2.2517  1.0497 -0.3394
  676MOL0     H91207   1.085   9.259   3.531  1.2346 -1.8257 -2.7223
  676MOL0     H91208   1.153   9.242   3.694 -1.6596 -2.1276  1.2804
  676MOL0     H91209   0.995   9.071   3.587 -0.8407  1.8575 -0.3652
  676MOL0     H91210   1.155   9.003   3.522  3.5547  3.1361  0.6720
  676MOL0     H91211   1.283   8.855   3.708 -1.1092 -2.2097  2.2459
  676MOL0     H91212   1.210   8.662   3.959  3.1686  0.1912  0.1137
  676MOL0     H91213   1.341   8.771   4.000  1.5967  0.0660  0.0078
  676MOL0     H91214   1.062   8.756   4.120  1.4692  1.3488 -1.7793
  676MOL0     H91215   1.209   8.691   4.190 -0.8560 -0.2477  0.7033
  676MOL0     H91216   1.151   8.998   4.162  0.1892  0.0069 -1.5047
  676MOL0     H91217   1.297   8.929   4.228  0.1362 -0.4927 -0.4373
  676MOL0     H91218   1.146   8.992   4.399  0.1359  0.1723 -0.1383
  676MOL0     H91219   1.179   8.819   4.401 -2.8212 -1.7091  0.9882
  676MOL0     H91220   0.852   8.644   4.318 -0.3000 -0.9055  0.6785
  676MOL0     H91221   0.763   8.517   4.473  0.1618  1.6728 -2.3779
  676MOL0     H91222   0.801   8.391   4.975  0.8152  0.6433  0.8386
  676MOL0     H91223   0.723   8.309   5.211 -0.4638  0.3038  0.1832
  676MOL0     H91224   0.426   8.555   5.437  2.8043 -1.4139  1.6290
  676MOL0     H91225   0.345   8.437   5.347 -0.9745  2.0555  1.1571
  676MOL0     H91226   0.306   8.396   5.581 -2.2855 -4.1828 -2.1182
  676MOL0     H91227   0.427   8.265   5.527  2.6835  0.6720  1.3025
  676MOL0     H91228   0.600   8.333   5.649 -0.2111 -2.0861  1.1653
  676MOL0     H91229   0.540   8.498   5.676  0.5261  0.1442 -1.5408
  676MOL0     H91230   0.398   8.245   5.771 -1.6697  0.3583  0.8984
  676MOL0     H91231   0.340   8.406   5.813 -1.5982 -2.0634  1.8648
  676MOL0     H91232   0.562   8.443   5.933  0.4340 -0.2456  0.3347
  676MOL0     H91233   0.625   8.287   5.899  0.5950  1.4335 -1.1148
  676MOL0     H91234   0.388   8.299   6.077  0.3626  0.4996  0.2066
  676MOL0     H91235   0.489   8.160   6.046  0.0573  0.2190 -1.0868
  676MOL0     H91236   0.681   8.257   6.144  0.8374 -0.8801  0.6497
  676MOL0     H91237   0.556   8.221   6.258  0.1974 -2.0173 -2.5044
  676MOL0     H91238   0.635   8.438   6.326 -4.5171 -0.3668  2.8407
  676MOL0     H91239   0.627   8.495   6.150 -0.4974 -0.4613 -1.1806
  676MOL0     H91240   0.484   8.663   5.245  0.5648  0.5892  0.0998
  676MOL0     H91241   0.545   8.735   5.048  0.9037 -0.0059  1.1547
  676MOL0     H91242   0.896   8.793   4.780 -0.5549 -2.2837  1.0191
  676MOL0     H91243   0.974   8.938   4.608  0.3955 -0.2078  0.0404
  676MOL0     H91244   2.170   9.384   3.446  0.0297 -1.4880 -0.1350
  676MOL0     H91245   2.320   9.449   3.261  2.0720 -2.9059  0.5544
  676MOL0     H91246   2.527   9.395   2.991  0.9827  2.4989  1.0147
  676MOL0     H91247   2.745   9.439   2.894  0.2206 -1.0049  0.1754
  676MOL0     H91248   2.861   9.339   2.706 -0.8553  0.8201  1.4015
  676MOL0     H91249   2.953   9.457   2.788 -1.7754  0.5110  1.4175
  676MOL0     H91250   3.104   9.379   2.625  0.2286 -0.6496 -0.9919
  676MOL0     H91251   3.032   9.539   2.566  0.3016  0.8387  2.2542
  676MOL0     H91252   2.859   9.403   2.449 -0.8046 -2.4852 -0.9913
  676MOL0     H91253   2.952   9.266   2.487 -1.8864  0.7249  3.4858
  676MOL0     H91254   3.135   9.321   2.345 -2.1473 -1.3852  0.9748
  676MOL0     H91255   3.001   9.341   2.254  0.3475  2.6967 -0.3904
  676MOL0     H91256   3.156   9.712   2.221  1.6502  0.1035  1.7341
  676MOL0     H91257   2.566   9.579   2.528  0.6111  1.1772  1.3360
  676MOL0     H91258   2.269   9.438   2.551  1.9193 -1.2412  0.3452
  676MOL0     H91259   2.217   9.590   2.625 -1.4095 -1.3628 -1.0766
  676MOL0     H91260   2.327   9.583   2.487 -3.0155  0.8382 -0.9882
  677MOL0     O91261  10.275   3.011   4.464  0.7088 -0.3094  0.2738
  677MOL0     C91262  10.338   3.102   4.511  0.4881 -0.1314  0.4523
  677MOL0     O91263  10.476   3.105   4.517 -0.5748  0.7794 -0.3054
  677MOL0     C91264  10.555   3.010   4.455 -0.0634 -0.5431  0.5193
  677MOL0     C91265  10.516   2.893   4.385  0.0307 -0.3490 -1.0263
  677MOL0     C91266  10.609   2.791   4.357  0.0371  0.0023  0.0943
  677MOL0     C91267  10.745   2.824   4.359 -0.0398 -0.5569 -0.2989
  677MOL0     O91268  10.840   2.727   4.323  0.5691  0.7471  0.4464
  677MOL0     C91269  10.813   2.643   4.196  0.6904 -0.1680 -0.2993
  677MOL0     C91270  10.849   2.496   4.211 -0.0270  0.4479 -0.6620
  677MOL0     C91271  10.805   2.406   4.090  0.2777 -1.1464 -0.2297
  677MOL0     C91272  10.919   2.406   3.987 -0.0230 -0.5801  0.2122
  677MOL0     C91273  10.925   2.527   3.885 -0.4692 -0.3215  0.1472
  677MOL0     C91274  10.799   2.543   3.785  0.6356 -0.5079 -0.1933
  677MOL0     C91275  10.827   2.622   3.653  0.7223  0.0444 -0.7292
  677MOL0     C91276  10.897   2.758   3.665  0.4585  0.2863 -0.2562
  677MOL0     N91277  10.850   2.832   3.780  0.6737 -0.0939 -0.5500
  677MOL0     C91278  10.725   2.884   3.794 -0.0827 -0.3611 -0.2106
  677MOL0     C91279  10.740   2.935   3.922  0.2165 -0.0730  0.0725
  677MOL0     C91280  10.617   2.988   3.996  0.0999 -0.3248  0.3675
  677MOL0     C91281  10.637   3.135   4.031  0.1895  0.6132 -0.3047
  677MOL0     C91282  10.514   3.184   4.108  0.3785  0.3946 -0.0686
  677MOL0     C91283  10.490   3.332   4.077 -1.0861 -0.3478  0.3947
  677MOL0     O91284  10.381   3.370   4.161 -1.0740 -0.0134 -0.6198
  677MOL0     C91285  10.306   3.487   4.150 -0.5077  0.2578 -0.8564
  677MOL0     C91286  10.298   3.576   4.045  0.0565 -0.0552  0.3067
  677MOL0     C91287  10.229   3.689   4.059 -0.4200  0.2576 -0.2446
  677MOL0     C91288  10.158   3.723   4.175  0.1658  0.0455  0.0544
  677MOL0     C91289  10.079   3.853   4.176 -0.4330 -0.4037 -0.0226
  677MOL0     O91290  10.119   3.941   4.083  0.3092  0.1824  0.4734
  677MOL0     C91291  10.061   4.063   4.068 -0.0795 -0.9961 -0.2202
  677MOL0     C91292   9.926   4.082   4.077  0.0700 -0.3606 -0.6801
  677MOL0     C91293   9.871   4.213   4.065 -0.0606 -0.5643 -0.0691
  677MOL0     C91294   9.953   4.319   4.026  0.4515  0.4458 -0.1271
  677MOL0     O91295   9.917   4.448   4.036 -0.3663 -0.5746 -0.5604
  677MOL0     C91296   9.808   4.480   3.949 -0.4468 -0.6805  0.3838
  677MOL0     C91297   9.719   4.570   4.034  0.4499 -1.1773  0.2641
  677MOL0     C91298   9.609   4.622   3.943  0.0069 -0.3563  0.6466
  677MOL0     C91299   9.544   4.742   4.010 -0.3565 -0.3453 -0.0584
  677MOL0     C91300   9.452   4.818   3.910 -0.3078  1.0039  0.1744
  677MOL0     C91301   9.428   4.960   3.958  0.2124 -0.6943 -0.7285
  677MOL0     C91302   9.324   5.033   3.871  0.3876  1.0141 -0.2807
  677MOL0     C91303   9.371   5.064   3.737 -0.0889  0.0584  0.4157
  677MOL0    Cl91304   9.330   4.952   3.610  0.2106 -0.0276 -0.3587
  677MOL0     C91305  10.086   4.297   4.009 -0.0417 -0.8431  0.2275
  677MOL0     C91306  10.142   4.172   4.036  0.9905 -0.2829  0.5373
  677MOL0     O91307   9.998   3.871   4.265 -0.5739  0.4020  0.8363
  677MOL0     C91308  10.159   3.627   4.285 -0.5384 -1.2403  0.5404
  677MOL0     C91309  10.233   3.509   4.266  0.5485  0.3537 -0.3444
  677MOL0     N91310  10.858   2.903   3.976 -0.5531 -0.5451 -0.3181
  677MOL0     N91311  10.932   2.863   3.893 -0.6501 -0.0260  0.5380
  677MOL0     C91312  10.788   2.944   4.428  0.0077  0.1285  0.8562
  677MOL0     C91313  10.690   3.039   4.471  0.9160  0.4197  0.9789
  677MOL0     C91314  10.273   3.222   4.551  0.8118 -0.7185  0.5444
  677MOL0     C91315  10.347   3.322   4.614 -0.6853  0.7791  0.5496
  677MOL0     C91316  10.291   3.434   4.660  0.5393 -1.3545  0.3187
  677MOL0     C91317  10.161   3.466   4.639  0.7645 -1.1260  0.1646
  677MOL0     O91318  10.096   3.580   4.688  0.4689  0.4986 -0.4848
  677MOL0     C91319  10.157   3.682   4.762 -0.0716  0.1202  0.7211
  677MOL0     C91320  10.114   3.818   4.703 -1.4082 -0.5881  0.2091
  677MOL0     C91321   9.964   3.841   4.678  0.1211  0.2074  0.3515
  677MOL0     C91322   9.872   3.817   4.804  1.0280  0.1656  1.3395
  677MOL0     C91323   9.886   3.928   4.892 -0.1745 -0.2719 -0.0435
  677MOL0     C91324   9.878   4.034   4.956  0.5653  0.3031  0.0236
  677MOL0     C91325  10.081   3.375   4.559  0.5022  0.9498 -0.2628
  677MOL0     C91326  10.129   3.249   4.523  0.0712  0.1344  0.1157
  677MOL0     C91327  10.039   3.157   4.438  0.0500  0.1117 -0.5424
  677MOL0     H91328  10.412   2.877   4.359 -1.0403  1.7998  1.5020
  677MOL0     H91329  10.569   2.701   4.312 -2.1276  0.9417  0.0161
  677MOL0     H91330  10.707   2.646   4.168  0.6531  2.3268 -0.1626
  677MOL0     H91331  10.873   2.688   4.116  1.2989 -1.8222 -0.8158
  677MOL0     H91332  10.805   2.467   4.307 -0.6168  0.3545 -0.9541
  677MOL0     H91333  10.955   2.477   4.230 -0.4718  0.4980  2.2882
  677MOL0     H91334  10.716   2.450   4.045  0.9098  0.1486 -0.2748
  677MOL0     H91335  10.777   2.309   4.132 -2.1498  0.2741  1.6681
  677MOL0     H91336  11.010   2.412   4.047  0.0662 -0.4864  0.0656
  677MOL0     H91337  10.909   2.309   3.937  2.5062  0.1238 -1.8954
  677MOL0     H91338  10.940   2.621   3.938 -0.9378  0.0062 -0.2946
  677MOL0     H91339  11.018   2.521   3.826 -0.6731 -0.1463 -0.1981
  677MOL0     H91340  10.772   2.443   3.750  0.1600  0.1749 -1.8846
  677MOL0     H91341  10.710   2.572   3.842  0.7777 -3.2707  1.6472
  677MOL0     H91342  10.741   2.651   3.592  0.9839  1.5072 -0.4481
  677MOL0     H91343  10.886   2.559   3.586 -2.5896 -2.1314 -1.8199
  677MOL0     H91344  11.003   2.743   3.690 -0.3839 -1.2659  2.9930
  677MOL0     H91345  10.879   2.809   3.570 -1.8221  1.0693  0.5374
  677MOL0     H91346  10.638   2.854   3.737  2.3167 -2.9661 -2.8175
  677MOL0     H91347  10.526   2.987   3.935 -0.1889 -0.6302  0.7905
  677MOL0     H91348  10.590   2.942   4.092  0.5929  3.2171  2.3748
  677MOL0     H91349  10.730   3.140   4.087 -0.0141  1.1768 -0.0046
  677MOL0     H91350  10.659   3.190   3.939 -2.3207  0.1388 -1.2692
  677MOL0     H91351  10.522   3.170   4.217  1.5929  1.9682  0.0809
  677MOL0     H91352  10.425   3.134   4.068 -0.1871  0.4786  1.0280
  677MOL0     H91353  10.459   3.346   3.973  0.7970  0.3166 -0.1066
  677MOL0     H91354  10.581   3.389   4.094  0.8881 -2.0361 -3.3035
  677MOL0     H91355  10.344   3.552   3.950 -3.1300 -3.0634 -0.6981
  677MOL0     H91356  10.217   3.752   3.971 -3.5409  1.3173  0.7995
  677MOL0     H91357   9.855   4.004   4.099  0.3555 -0.6109 -0.6446
  677MOL0     H91358   9.769   4.228   4.098  0.5826  0.8169  1.4491
  677MOL0     H91359   9.842   4.543   3.866 -2.8096  3.0908  2.0071
  677MOL0     H91360   9.751   4.390   3.921 -0.7780 -1.3419  2.9391
  677MOL0     H91361   9.671   4.510   4.112 -1.8966 -0.2385 -0.3974
  677MOL0     H91362   9.776   4.648   4.085  0.5989 -1.3118  0.3062
  677MOL0     H91363   9.646   4.651   3.845  0.1244 -1.0539  0.4732
  677MOL0     H91364   9.547   4.534   3.922  0.8874 -1.1238  1.1647
  677MOL0     H91365   9.623   4.808   4.047 -1.1595 -1.0298  3.1676
  677MOL0     H91366   9.496   4.705   4.101  3.8510 -0.0561  2.5390
  677MOL0     H91367   9.358   4.762   3.903 -0.0231 -0.0973  3.4358
  677MOL0     H91368   9.497   4.819   3.811 -0.3490  0.0714  0.1368
  677MOL0     H91369   9.393   4.961   4.061 -1.6596  3.6599 -1.1794
  677MOL0     H91370   9.525   5.010   3.956  1.5416 -2.7227  3.4933
  677MOL0     H91371   9.276   5.113   3.929  1.1139  0.4750  1.1179
  677MOL0     H91372   9.246   4.957   3.857 -0.6143  1.2822  2.9244
  677MOL0     H91373   9.323   5.159   3.713  1.7844  0.9475  0.0391
  677MOL0     H91374   9.478   5.089   3.735 -0.5752  2.7002 -4.1267
  677MOL0     H91375  10.154   4.378   3.985 -0.2441 -0.4954  0.8338
  677MOL0     H91376  10.250   4.166   4.036  1.0076 -0.2237  1.9887
  677MOL0     H91377  10.095   3.668   4.363  1.4799 -1.2082  2.2786
  677MOL0     H91378  10.228   3.431   4.340  3.0058  0.6376  0.2151
  677MOL0     H91379  10.895   2.957   4.425  0.2032 -1.2958  0.8197
  677MOL0     H91380  10.713   3.134   4.517  1.0048  0.6467  0.4737
  677MOL0     H91381  10.451   3.305   4.640 -0.0059 -0.0528 -2.3127
  677MOL0     H91382  10.362   3.497   4.712  0.6805 -2.8939  2.1027
  677MOL0     H91383  10.263   3.667   4.784  0.0473  0.5892  0.4867
  677MOL0     H91384  10.109   3.665   4.859  0.2872 -2.1746  0.5501
  677MOL0     H91385  10.160   3.833   4.604 -0.8546  0.3727  0.5955
  677MOL0     H91386  10.151   3.899   4.765 -1.7999 -1.8978  2.2392
  677MOL0     H91387   9.932   3.779   4.593 -0.3451 -0.8936  1.3105
  677MOL0     H91388   9.945   3.946   4.655 -2.0322  0.2210  1.9098
  677MOL0     H91389   9.767   3.824   4.774  0.5311 -0.3734  2.8755
  677MOL0     H91390   9.894   3.721   4.851  1.4298  0.1064  1.0425
  677MOL0     H91391   9.868   4.136   4.988  3.3991  1.0805 -1.1610
  677MOL0     H91392   9.981   3.396   4.521  0.3917 -0.5060 -0.8362
  677MOL0     H91393  10.057   3.146   4.331  2.3591  1.4996 -0.3482
  677MOL0     H91394  10.045   3.061   4.491  1.4284  0.6585  0.3627
  677MOL0     H91395   9.937   3.191   4.457  0.0999  0.2082 -0.4441
  678MOL0     O91396  11.174   0.011   9.262  0.4974 -0.6491 -0.5705
  678MOL0     C91397  11.262   0.032   9.180 -0.5180 -0.4706  0.1654
  678MOL0     O91398  11.281  -0.046   9.071  0.1022 -0.6983 -0.1389
  678MOL0     C91399  11.195  -0.149   9.039 -1.3200  0.1272  0.5048
  678MOL0     C91400  11.267  -0.269   9.023  0.1871  0.0562  0.0195
  678MOL0     C91401  11.194  -0.383   8.997 -0.0545  0.8239 -0.6473
  678MOL0     C91402  11.059  -0.369   8.958  0.2802 -0.5311  0.1068
  678MOL0     O91403  10.981  -0.480   8.934 -0.0501 -0.2618  0.7192
  678MOL0     C91404  10.924  -0.483   8.806  0.5574 -0.1648  0.6010
  678MOL0     C91405  10.791  -0.555   8.810  0.0360 -0.2313 -0.0088
  678MOL0     C91406  10.716  -0.555   8.674  0.8367 -0.4780  0.0106
  678MOL0     C91407  10.613  -0.672   8.676  0.3490  0.5049 -0.0106
  678MOL0     C91408  10.549  -0.687   8.540  0.0314  0.1998 -0.0151
  678MOL0     C91409  10.496  -0.836   8.538 -0.0943 -0.2275 -0.0202
  678MOL0     C91410  10.444  -0.865   8.399 -0.0234  0.1217  0.7643
  678MOL0     C91411  10.382  -1.011   8.397 -1.6105  0.0436  0.5078
  678MOL0     N91412  10.264  -1.023   8.478  0.5648 -0.9777 -0.2354
  678MOL0     C91413  10.268  -1.049   8.611 -0.0413  0.5229  0.6861
  678MOL0     C91414  10.139  -1.028   8.653  0.0748  0.0451 -0.0747
  678MOL0     C91415  10.111  -1.048   8.804 -0.3278 -0.2417  0.5354
  678MOL0     C91416  10.162  -1.181   8.871 -0.5545  0.7004 -0.5134
  678MOL0     C91417  10.066  -1.226   8.976 -0.4811  0.3512  0.0471
  678MOL0     C91418  10.111  -1.368   9.031 -0.9014  0.1081 -0.2113
  678MOL0     O91419  10.120  -1.483   8.956  0.4707  0.7354  0.9030
  678MOL0     C91420  10.000  -1.528   8.922  0.8037  0.4688  1.0034
  678MOL0     C91421   9.930  -1.621   8.997 -0.2372  0.3833  0.0494
  678MOL0     C91422   9.794  -1.660   8.971 -0.8792  0.2969  0.7182
  678MOL0     C91423   9.724  -1.615   8.852  0.8641  0.4119  0.3346
  678MOL0     C91424   9.585  -1.643   8.837  0.6538 -0.5457  0.3260
  678MOL0     O91425   9.534  -1.746   8.905 -0.2570 -0.3495 -0.4412
  678MOL0     C91426   9.400  -1.730   8.914  0.4546 -1.0599  0.3118
  678MOL0     C91427   9.315  -1.809   8.833 -0.2801  0.2225  0.2009
  678MOL0     C91428   9.180  -1.796   8.846  0.0652 -0.8663 -0.1149
  678MOL0     C91429   9.127  -1.700   8.938 -0.8688  0.5368  0.5917
  678MOL0     O91430   8.990  -1.701   8.961 -0.0559 -0.4477 -0.0671
  678MOL0     C91431   8.951  -1.680   9.098  0.1949  0.4859  0.3694
  678MOL0     C91432   8.803  -1.718   9.101 -0.0066 -1.0182 -0.4248
  678MOL0     C91433   8.749  -1.722   9.244  0.1171  0.2535  0.1510
  678MOL0     C91434   8.605  -1.778   9.264 -0.0814  0.3377  0.1058
  678MOL0     C91435   8.590  -1.925   9.218  0.1151  0.2195  0.8454
  678MOL0     C91436   8.447  -1.977   9.251 -0.5082  0.8421 -0.1558
  678MOL0     C91437   8.391  -1.972   9.393  0.4916 -0.2359 -0.1681
  678MOL0     C91438   8.286  -2.071   9.430  0.1565  0.0080  0.5273
  678MOL0    Cl91439   8.324  -2.239   9.358  0.0795 -0.2005  0.0175
  678MOL0     C91440   9.215  -1.617   9.018 -0.5894  0.4694  0.1424
  678MOL0     C91441   9.346  -1.636   9.000 -0.7906 -0.3185 -0.2283
  678MOL0     O91442   9.528  -1.599   8.735  0.8734 -0.5032 -0.3127
  678MOL0     C91443   9.808  -1.533   8.761 -0.1519  0.0478  0.2141
  678MOL0     C91444   9.936  -1.491   8.796  0.0354 -0.4264 -0.2694
  678MOL0     N91445  10.060  -1.012   8.542 -0.1748 -0.5263  0.1257
  678MOL0     N91446  10.133  -1.000   8.438  0.9383 -0.5076  0.0100
  678MOL0     C91447  10.995  -0.247   8.960  0.5864 -0.7091 -0.1080
  678MOL0     C91448  11.064  -0.129   9.001 -0.0946  0.0033 -0.4165
  678MOL0     C91449  11.346   0.161   9.199  0.0018 -0.4101  0.3530
  678MOL0     C91450  11.429   0.191   9.091  0.3583 -0.1793  1.1120
  678MOL0     C91451  11.504   0.311   9.092  0.2725 -0.2513  0.3259
  678MOL0     C91452  11.485   0.403   9.201  0.2008 -0.1981  0.1581
  678MOL0     O91453  11.549   0.524   9.209  0.3067  0.5681  0.1873
  678MOL0     C91454  11.615   0.583   9.097 -0.3513  0.4364 -0.4359
  678MOL0     C91455  11.637   0.726   9.153  0.2604  0.2483  0.5961
  678MOL0     C91456  11.507   0.815   9.153  0.1508  0.1870  0.4685
  678MOL0     C91457  11.483   0.884   9.018  0.4684 -1.0338 -0.0303
  678MOL0     C91458  11.601   0.952   8.970 -0.3194  0.1763 -0.4159
  678MOL0     C91459  11.720   0.979   8.941  0.1719  0.0337 -0.2033
  678MOL0     C91460  11.408   0.361   9.307 -0.2672 -0.2850 -0.1311
  678MOL0     C91461  11.339   0.237   9.316 -0.1196 -0.5870 -0.7147
  678MOL0     C91462  11.265   0.215   9.450 -0.2546  0.4169 -0.2959
  678MOL0     H91463  11.373  -0.263   9.044  0.5174  1.2145 -1.7636
  678MOL0     H91464  11.246  -0.479   8.999 -3.3333 -1.0917  1.2296
  678MOL0     H91465  10.908  -0.385   8.759  1.9067 -0.1751  0.0619
  678MOL0     H91466  10.994  -0.531   8.736  1.9811 -0.3587  2.0930
  678MOL0     H91467  10.731  -0.502   8.885 -1.4213  1.8177 -2.4749
  678MOL0     H91468  10.807  -0.661   8.831  0.8817  0.2840  2.2706
  678MOL0     H91469  10.788  -0.581   8.595 -1.4726 -2.4002 -1.5895
  678MOL0     H91470  10.660  -0.461   8.667  0.7879 -0.3484  1.7581
  678MOL0     H91471  10.670  -0.759   8.710 -2.3850 -0.2078  3.2474
  678MOL0     H91472  10.536  -0.664   8.754  0.0664 -0.8566 -0.1218
  678MOL0     H91473  10.474  -0.610   8.518 -2.9665 -1.7825  2.4738
  678MOL0     H91474  10.631  -0.681   8.467  0.4369 -3.4799 -0.0543
  678MOL0     H91475  10.578  -0.904   8.563  1.6090  0.5466 -3.1105
  678MOL0     H91476  10.418  -0.826   8.615 -0.0726  0.1455 -0.0431
  678MOL0     H91477  10.522  -0.861   8.323  1.5356  0.5254  2.3227
  678MOL0     H91478  10.367  -0.793   8.370 -0.3428  0.3785  2.1537
  678MOL0     H91479  10.355  -1.046   8.297 -0.1148 -1.4822  0.5991
  678MOL0     H91480  10.456  -1.085   8.429 -1.0092 -0.9603 -2.7991
  678MOL0     H91481  10.360  -1.057   8.667  0.8869 -2.9304 -1.0385
  678MOL0     H91482  10.153  -0.956   8.846 -1.3471 -0.1531  1.4002
  678MOL0     H91483  10.003  -1.038   8.817 -0.1535  0.8690  1.3194
  678MOL0     H91484  10.169  -1.257   8.792  0.0919  2.3669 -2.1231
  678MOL0     H91485  10.263  -1.185   8.911  1.0861 -1.7427 -4.3282
  678MOL0     H91486   9.971  -1.250   8.929 -0.6238 -0.2447  0.6301
  678MOL0     H91487  10.069  -1.147   9.052  3.1963  0.9070 -0.4869
  678MOL0     H91488  10.043  -1.377   9.116 -1.2263  1.2837 -0.3270
  678MOL0     H91489  10.209  -1.347   9.074 -0.6572  1.2694 -1.2877
  678MOL0     H91490   9.984  -1.657   9.084  3.0772  0.2211 -1.9338
  678MOL0     H91491   9.749  -1.732   9.039  0.9958 -0.1133  1.6122
  678MOL0     H91492   9.348  -1.887   8.765 -1.7199  0.2992 -0.6302
  678MOL0     H91493   9.117  -1.856   8.781  0.0042  0.0233 -0.8950
  678MOL0     H91494   9.014  -1.743   9.161  1.2220  3.2551  2.3424
  678MOL0     H91495   8.975  -1.577   9.127  1.9291 -0.6522  3.4009
  678MOL0     H91496   8.748  -1.636   9.052 -0.5195 -0.0450  1.6680
  678MOL0     H91497   8.777  -1.811   9.049 -0.4392 -0.6530 -0.8731
  678MOL0     H91498   8.826  -1.783   9.291  5.3452  4.2319 -2.2713
  678MOL0     H91499   8.760  -1.619   9.279  1.7640 -0.1064  0.7764
  678MOL0     H91500   8.532  -1.713   9.214 -0.8285  0.2993  1.1206
  678MOL0     H91501   8.586  -1.765   9.371 -2.3104 -0.0191 -0.1988
  678MOL0     H91502   8.667  -1.990   9.261 -0.8787 -0.9789  0.8598
  678MOL0     H91503   8.585  -1.932   9.109 -1.9366 -2.0268  1.0109
  678MOL0     H91504   8.385  -1.908   9.194  1.9303  1.2676 -2.4900
  678MOL0     H91505   8.441  -2.076   9.204  2.6799  1.4815 -2.1899
  678MOL0     H91506   8.345  -1.872   9.401 -0.9719 -0.4747 -3.8730
  678MOL0     H91507   8.471  -1.968   9.467 -1.2839 -4.2238  2.3209
  678MOL0     H91508   8.279  -2.071   9.539  1.3948  1.4405  0.6253
  678MOL0     H91509   8.190  -2.031   9.397  0.2152 -1.6466 -1.9336
  678MOL0     H91510   9.179  -1.537   9.083 -2.3258  0.1554 -0.3860
  678MOL0     H91511   9.417  -1.574   9.055 -1.9204  0.8907 -0.0846
  678MOL0     H91512   9.767  -1.491   8.669  1.7223  2.1520  0.2623
  678MOL0     H91513   9.997  -1.439   8.722  1.6972 -1.9869 -0.0814
  678MOL0     H91514  10.888  -0.238   8.947  0.8536  4.3270 -1.0235
  678MOL0     H91515  11.017  -0.031   9.003  0.6832  0.4270  3.1099
  678MOL0     H91516  11.419   0.125   9.005 -0.1813 -0.8846  1.7032
  678MOL0     H91517  11.571   0.341   9.011 -0.2015  1.8044  0.6389
  678MOL0     H91518  11.564   0.581   9.001 -0.6401  1.7676 -0.3268
  678MOL0     H91519  11.708   0.527   9.091  0.3720  1.5958 -0.3935
  678MOL0     H91520  11.727   0.767   9.106 -0.2672  0.9284  0.1636
  678MOL0     H91521  11.680   0.712   9.253  1.7053 -1.9696 -0.2542
  678MOL0     H91522  11.516   0.893   9.230  0.4828 -0.7590  1.4021
  678MOL0     H91523  11.432   0.742   9.183 -1.4201  1.8719  0.8069
  678MOL0     H91524  11.451   0.818   8.937 -0.5106  0.6845 -1.1112
  678MOL0     H91525  11.400   0.955   9.022 -0.9404 -2.5302 -1.0861
  678MOL0     H91526  11.819   1.006   8.910 -0.3757  1.4679 -0.7918
  678MOL0     H91527  11.415   0.421   9.397 -0.2896 -3.0980  1.8657
  678MOL0     H91528  11.305   0.122   9.491 -1.2587 -0.5821 -1.5044
  678MOL0     H91529  11.283   0.297   9.520 -4.6653  0.5397  0.9741
  678MOL0     H91530  11.157   0.209   9.436 -0.2374 -1.4527  0.0740
  679MOL0     O91531   9.065   1.518   8.122 -0.2779 -0.0974 -0.0012
  679MOL0     C91532   8.999   1.424   8.086  0.6299  0.2969  0.2177
  679MOL0     O91533   9.005   1.362   7.961  0.7904 -0.5230  1.0336
  679MOL0     C91534   9.104   1.398   7.878 -0.4363  0.4200 -0.4626
  679MOL0     C91535   9.224   1.338   7.882 -0.5305  0.3538  0.3459
  679MOL0     C91536   9.329   1.389   7.814  0.5230  0.0694 -0.1571
  679MOL0     C91537   9.316   1.510   7.745 -0.4182 -0.5447 -0.2391
  679MOL0     O91538   9.416   1.588   7.706 -0.8226 -0.4301  0.6418
  679MOL0     C91539   9.555   1.558   7.747 -0.6567 -0.2955 -0.3998
  679MOL0     C91540   9.657   1.644   7.683  0.3712  1.1983 -0.7544
  679MOL0     C91541   9.706   1.765   7.756  0.4067  1.0330 -0.9594
  679MOL0     C91542   9.825   1.724   7.845  0.2157 -0.6081  0.0688
  679MOL0     C91543   9.899   1.848   7.911  0.5967  0.2366 -0.7510
  679MOL0     C91544   9.960   1.949   7.805 -0.0497 -0.2344  0.1285
  679MOL0     C91545  10.051   2.047   7.881 -0.0765 -0.3772  0.1575
  679MOL0     C91546  10.166   1.981   7.957  0.3620  0.4704  0.1112
  679MOL0     N91547  10.278   2.074   7.976  0.4323  0.5027  1.1411
  679MOL0     C91548  10.278   2.200   8.032 -0.0978  0.4709  0.5766
  679MOL0     C91549  10.409   2.230   8.055  0.1127  0.2181  0.3132
  679MOL0     C91550  10.456   2.357   8.126 -0.3128  0.4439 -1.1701
  679MOL0     C91551  10.501   2.343   8.271  0.6245  0.3053  0.7817
  679MOL0     C91552  10.400   2.323   8.369 -0.1136  0.0976 -0.0369
  679MOL0     C91553  10.436   2.340   8.519 -0.5818  0.0339  0.8393
  679MOL0     O91554  10.313   2.335   8.593 -0.1037 -0.3668 -0.5487
  679MOL0     C91555  10.316   2.389   8.720  0.8229 -0.7877 -0.4603
  679MOL0     C91556  10.198   2.439   8.770  1.5351 -0.4235  0.1855
  679MOL0     C91557  10.185   2.482   8.900 -0.3444 -0.3927  0.6043
  679MOL0     C91558  10.297   2.510   8.968  0.0972  0.0409 -0.1809
  679MOL0     C91559  10.288   2.590   9.092  0.6210  0.1766 -0.0434
  679MOL0     O91560  10.406   2.605   9.156 -0.6720 -1.1193  0.0850
  679MOL0     C91561  10.436   2.712   9.239 -0.3730  0.2551  0.3601
  679MOL0     C91562  10.558   2.780   9.226  0.0370  0.5538 -0.3174
  679MOL0     C91563  10.596   2.877   9.318 -0.1389  0.3830  1.7648
  679MOL0     C91564  10.508   2.921   9.404  0.3450  0.0450  0.3013
  679MOL0     O91565  10.527   3.024   9.496  0.3229  0.5585  0.3435
  679MOL0     C91566  10.653   3.098   9.503 -0.0453  0.4338  0.0962
  679MOL0     C91567  10.620   3.201   9.617  0.2036  0.2475  0.2551
  679MOL0     C91568  10.726   3.303   9.664  0.2105  0.1321 -0.2468
  679MOL0     C91569  10.669   3.362   9.798  0.4731 -0.1167  0.8708
  679MOL0     C91570  10.569   3.482   9.769 -0.0053  1.6725  0.1492
  679MOL0     C91571  10.642   3.606   9.731  0.6723  0.0763 -1.2395
  679MOL0     C91572  10.545   3.718   9.693 -0.2093  0.3685  0.2420
  679MOL0     C91573  10.489   3.791   9.827 -0.7577  0.1714  0.6490
  679MOL0    Cl91574  10.416   3.949   9.774  0.0267 -0.2057 -0.0543
  679MOL0     C91575  10.382   2.864   9.409  0.0681  0.2222  0.3885
  679MOL0     C91576  10.349   2.755   9.331  0.8469  0.1599  0.7379
  679MOL0     O91577  10.181   2.639   9.125  0.1078  0.6130 -0.3776
  679MOL0     C91578  10.427   2.474   8.921  1.1164 -0.4691  0.8339
  679MOL0     C91579  10.428   2.402   8.801  0.0283 -0.3444  0.4464
  679MOL0     N91580  10.488   2.139   7.991  0.8308 -0.7597 -0.2786
  679MOL0     N91581  10.405   2.047   7.947 -0.2091 -0.2421  0.0955
  679MOL0     C91582   9.190   1.562   7.726 -0.0313  1.0388  0.2086
  679MOL0     C91583   9.087   1.502   7.795  0.2759 -0.0629  0.3489
  679MOL0     C91584   8.902   1.357   8.181  0.4206  1.4399  0.7717
  679MOL0     C91585   8.877   1.214   8.166 -0.4089 -0.1338  0.0669
  679MOL0     C91586   8.794   1.133   8.255 -0.1972 -0.1633 -0.5377
  679MOL0     C91587   8.734   1.204   8.361  0.6340 -0.3194  1.3412
  679MOL0     O91588   8.675   1.129   8.458  0.8190 -0.1530 -0.5637
  679MOL0     C91589   8.537   1.174   8.484 -0.6799 -0.1802  0.4880
  679MOL0     C91590   8.478   1.136   8.621 -0.0293  0.9602 -0.2407
  679MOL0     C91591   8.462   0.983   8.638  0.0285 -0.3442 -0.4402
  679MOL0     C91592   8.399   0.911   8.524  0.3379 -0.1560 -0.1204
  679MOL0     C91593   8.267   0.966   8.487  1.1396  0.8545  0.4173
  679MOL0     C91594   8.154   0.984   8.446 -1.3576  0.2753 -0.2730
  679MOL0     C91595   8.762   1.347   8.378 -0.1573  1.2098 -1.0615
  679MOL0     C91596   8.841   1.422   8.296 -0.5650  0.5821  0.0158
  679MOL0     C91597   8.844   1.574   8.334  0.1448 -0.1696  0.0726
  679MOL0     H91598   9.231   1.245   7.937 -1.6166 -0.8215 -1.3842
  679MOL0     H91599   9.424   1.336   7.824  0.7954  0.8873  2.2964
  679MOL0     H91600   9.554   1.563   7.856 -1.1433 -2.3764 -0.2516
  679MOL0     H91601   9.587   1.457   7.718  2.9605  0.7477 -0.5522
  679MOL0     H91602   9.624   1.681   7.585 -2.7053 -1.0725 -0.7167
  679MOL0     H91603   9.728   1.566   7.654  0.5363  1.4456 -1.0313
  679MOL0     H91604   9.632   1.817   7.818  0.0923  1.0974 -1.3846
  679MOL0     H91605   9.730   1.846   7.686 -0.9952  2.2773 -0.0608
  679MOL0     H91606   9.797   1.659   7.928  0.3755 -0.8337 -0.0530
  679MOL0     H91607   9.899   1.659   7.797  1.1716 -0.6099  1.4775
  679MOL0     H91608   9.830   1.900   7.980  0.9493 -1.8453  1.3040
  679MOL0     H91609   9.980   1.811   7.974 -0.5634  0.6394  1.0601
  679MOL0     H91610  10.014   1.897   7.725  0.2485  0.8659 -0.4016
  679MOL0     H91611   9.873   2.001   7.765 -1.0894 -1.6164  0.5024
  679MOL0     H91612  10.000   2.109   7.955  1.9279  1.9852 -0.3286
  679MOL0     H91613  10.094   2.115   7.807  2.5242 -0.2156  1.7343
  679MOL0     H91614  10.143   1.962   8.063  0.2338  3.0201  0.5978
  679MOL0     H91615  10.190   1.885   7.910 -0.1320  0.8709 -0.9846
  679MOL0     H91616  10.199   2.273   8.052  1.0273  1.7992  0.3205
  679MOL0     H91617  10.547   2.389   8.075  1.6866 -3.2898 -0.3088
  679MOL0     H91618  10.382   2.437   8.136 -0.4209  0.0839  3.3910
  679MOL0     H91619  10.569   2.257   8.278 -0.0559 -0.2704  0.3837
  679MOL0     H91620  10.568   2.430   8.280  2.9537 -1.2357 -0.5921
  679MOL0     H91621  10.372   2.217   8.368  2.7042 -0.7640  1.3858
  679MOL0     H91622  10.317   2.393   8.355  1.0485  1.6097  0.3656
  679MOL0     H91623  10.474   2.442   8.532 -0.8115  0.0585  1.3334
  679MOL0     H91624  10.515   2.267   8.540  0.7190  1.2420  0.3651
  679MOL0     H91625  10.111   2.445   8.705  2.0057  2.0885 -0.3206
  679MOL0     H91626  10.083   2.510   8.926 -0.8798 -1.4374 -0.3162
  679MOL0     H91627  10.631   2.747   9.152 -1.7405  1.2890 -2.5005
  679MOL0     H91628  10.699   2.910   9.329  0.0615  0.4115  0.0400
  679MOL0     H91629  10.725   3.020   9.531  0.9072  1.1231 -0.4131
  679MOL0     H91630  10.681   3.153   9.413 -0.4755  0.3440 -0.0977
  679MOL0     H91631  10.531   3.260   9.593  1.5490  1.1579 -3.1192
  679MOL0     H91632  10.599   3.136   9.702  3.3807 -0.6553  0.4725
  679MOL0     H91633  10.821   3.253   9.684  0.4777  1.0152  0.7534
  679MOL0     H91634  10.750   3.382   9.591  4.3171  0.2398  0.9603
  679MOL0     H91635  10.742   3.420   9.854  1.1312  1.1607 -1.1724
  679MOL0     H91636  10.616   3.290   9.861  0.9010  0.5890  2.0608
  679MOL0     H91637  10.519   3.510   9.862  3.4570 -1.6005  3.3461
  679MOL0     H91638  10.492   3.452   9.698  0.7793 -1.0315  0.3406
  679MOL0     H91639  10.687   3.644   9.823 -3.5648 -0.4850  1.3482
  679MOL0     H91640  10.713   3.577   9.653 -1.7808  0.5217 -3.8605
  679MOL0     H91641  10.470   3.683   9.622  1.0580  0.0474 -0.9871
  679MOL0     H91642  10.605   3.798   9.649  1.2015 -1.0592 -0.5074
  679MOL0     H91643  10.402   3.729   9.851 -1.2967 -0.0356 -1.5699
  679MOL0     H91644  10.562   3.809   9.906  2.7734  3.7292 -2.9612
  679MOL0     H91645  10.313   2.914   9.476 -0.6696  0.9820 -0.8894
  679MOL0     H91646  10.254   2.707   9.350  0.4835  0.3542 -0.4717
  679MOL0     H91647  10.514   2.478   8.986  0.8436  1.9957  1.1465
  679MOL0     H91648  10.517   2.362   8.755 -0.2217  0.4109 -0.7605
  679MOL0     H91649   9.173   1.648   7.662 -0.4685  0.4278 -0.5169
  679MOL0     H91650   8.987   1.526   7.761  0.2508  0.5959  0.8828
  679MOL0     H91651   8.928   1.162   8.086 -3.1322 -1.0560 -1.1677
  679MOL0     H91652   8.790   1.025   8.252 -3.6276 -0.2360  1.3580
  679MOL0     H91653   8.483   1.129   8.401 -2.2905 -1.2927  2.0580
  679MOL0     H91654   8.529   1.282   8.471  0.3937 -0.2722 -1.2351
  679MOL0     H91655   8.378   1.174   8.641 -1.5541 -2.3459 -0.9570
  679MOL0     H91656   8.532   1.170   8.710 -0.8702 -0.9081  1.0362
  679MOL0     H91657   8.411   0.974   8.734  1.0942 -0.6162  0.1099
  679MOL0     H91658   8.558   0.936   8.660 -0.2360 -0.8331 -0.3203
  679MOL0     H91659   8.464   0.917   8.436  2.5772  1.9673  1.5389
  679MOL0     H91660   8.380   0.807   8.552 -0.9568  0.2968  0.7677
  679MOL0     H91661   8.059   1.006   8.401 -0.0572  1.7173 -2.5200
  679MOL0     H91662   8.709   1.383   8.466  0.4000  1.2337 -0.7291
  679MOL0     H91663   8.946   1.611   8.344  0.2805  0.3827 -2.5235
  679MOL0     H91664   8.804   1.640   8.256  3.0248  0.2915 -1.1314
  679MOL0     H91665   8.783   1.592   8.423  2.6704 -2.9404  2.5613
  680MOL0     O91666   3.574  11.262   4.149  0.4856 -0.3877 -0.7341
  680MOL0     C91667   3.602  11.245   4.272  0.3627 -0.3192  0.8268
  680MOL0     O91668   3.684  11.321   4.340  0.4928  0.0014 -0.3892
  680MOL0     C91669   3.754  11.426   4.303 -0.3407  0.3346 -0.2727
  680MOL0     C91670   3.767  11.481   4.177 -0.1740  0.4960 -0.0453
  680MOL0     C91671   3.860  11.576   4.151 -0.5672 -0.7161 -0.4928
  680MOL0     C91672   3.926  11.638   4.255 -0.2926  0.8082 -0.6080
  680MOL0     O91673   4.016  11.737   4.214 -0.7415  0.0996 -0.2550
  680MOL0     C91674   4.100  11.786   4.320 -0.2808 -0.2796 -0.2740
  680MOL0     C91675   4.170  11.911   4.254  0.1411 -0.2569 -0.5161
  680MOL0     C91676   4.249  11.995   4.363 -0.2945  0.6805 -0.2409
  680MOL0     C91677   4.363  12.077   4.301 -0.1170 -0.3631 -0.4897
  680MOL0     C91678   4.434  12.174   4.401  0.7566  0.8320 -0.2550
  680MOL0     C91679   4.487  12.308   4.345  0.7181 -0.2411 -0.8602
  680MOL0     C91680   4.600  12.296   4.243 -0.1125 -0.5587 -0.9319
  680MOL0     C91681   4.687  12.429   4.212  0.5856  0.6635  0.6059
  680MOL0     N91682   4.615  12.537   4.140 -0.0935 -0.2325 -0.1106
  680MOL0     C91683   4.493  12.527   4.085  0.8122  0.2618  0.8199
  680MOL0     C91684   4.465  12.652   4.040 -0.0080 -0.6798  0.2775
  680MOL0     C91685   4.337  12.711   4.000  0.6146  0.5934  0.2588
  680MOL0     C91686   4.213  12.641   4.053 -0.7497  0.6128 -0.3666
  680MOL0     C91687   4.094  12.703   3.985  0.2276  0.0591  0.2722
  680MOL0     C91688   3.961  12.645   4.037  1.6944  0.6056  0.3750
  680MOL0     O91689   3.840  12.705   3.983 -0.8999  0.9149  0.0841
  680MOL0     C91690   3.724  12.624   3.981 -0.3594  0.3123 -0.6041
  680MOL0     C91691   3.611  12.680   3.911  0.3364 -0.7182 -0.4451
  680MOL0     C91692   3.482  12.623   3.922 -0.3904  0.1029 -0.3240
  680MOL0     C91693   3.459  12.501   3.990  0.1902 -0.5392 -0.5620
  680MOL0     C91694   3.317  12.449   3.989  0.7064 -0.5039  0.7846
  680MOL0     O91695   3.261  12.433   3.867  0.0307 -0.4583  0.0752
  680MOL0     C91696   3.140  12.379   3.865  0.1365 -0.0800  0.5630
  680MOL0     C91697   3.128  12.257   3.806 -0.3496 -0.7508 -0.1817
  680MOL0     C91698   3.004  12.194   3.809 -0.1678 -0.0501  0.5236
  680MOL0     C91699   2.888  12.258   3.857 -0.1307 -0.2449 -0.6568
  680MOL0     O91700   2.770  12.185   3.847 -1.0612 -0.2863  0.7151
  680MOL0     C91701   2.643  12.235   3.884  0.4463  1.1398 -1.2524
  680MOL0     C91702   2.528  12.179   3.795 -1.3337 -1.0211 -1.2630
  680MOL0     C91703   2.543  12.203   3.644 -0.1493 -0.0376  0.3418
  680MOL0     C91704   2.423  12.260   3.575  0.6430 -1.0376 -0.3517
  680MOL0     C91705   2.302  12.170   3.564 -0.7394  0.0517  0.4788
  680MOL0     C91706   2.182  12.234   3.512 -0.3869 -0.1445 -0.2505
  680MOL0     C91707   2.079  12.125   3.475  0.0041  0.6021  0.5912
  680MOL0     C91708   2.122  12.031   3.364  0.5836 -0.1850  0.1486
  680MOL0    Cl91709   1.975  11.940   3.303  0.1439 -0.1854 -0.0597
  680MOL0     C91710   2.898  12.389   3.911 -0.8834  0.2070  0.4463
  680MOL0     C91711   3.031  12.441   3.919 -0.3567  0.0633  0.0362
  680MOL0     O91712   3.257  12.439   4.101 -0.9496  0.4024  0.2830
  680MOL0     C91713   3.568  12.442   4.053 -0.1688 -0.2792 -1.0030
  680MOL0     C91714   3.701  12.495   4.036  0.1791 -0.4597  0.1814
  680MOL0     N91715   4.578  12.740   4.056 -0.2201  0.2715  0.0242
  680MOL0     N91716   4.662  12.664   4.127  0.6242  0.4753 -0.0534
  680MOL0     C91717   3.916  11.584   4.390 -0.2600  0.2161 -0.9056
  680MOL0     C91718   3.826  11.486   4.409 -0.0955 -0.1063  0.3734
  680MOL0     C91719   3.529  11.146   4.362 -0.5242 -0.4390 -0.6941
  680MOL0     C91720   3.591  11.110   4.486 -1.0590 -0.2791 -0.6858
  680MOL0     C91721   3.539  11.014   4.570 -0.1501 -0.3211 -0.0370
  680MOL0     C91722   3.415  10.964   4.546 -0.6213 -0.6831 -0.3943
  680MOL0     O91723   3.351  10.864   4.615 -0.0233 -0.1741 -0.2340
  680MOL0     C91724   3.436  10.808   4.732  0.8698 -0.3646 -0.5707
  680MOL0     C91725   3.345  10.730   4.819 -0.9184  0.5494  0.3013
  680MOL0     C91726   3.315  10.589   4.762  0.3135 -0.5343 -0.1007
  680MOL0     C91727   3.253  10.488   4.868 -0.3383  0.0294  0.1233
  680MOL0     C91728   3.258  10.355   4.810  0.4856 -0.4593 -0.1427
  680MOL0     C91729   3.250  10.246   4.761  0.0220 -0.5608  0.2260
  680MOL0     C91730   3.350  11.001   4.429  0.3889  0.5468  0.3310
  680MOL0     C91731   3.407  11.088   4.334  0.6350  0.0384 -0.0248
  680MOL0     C91732   3.321  11.113   4.212 -0.9030  0.1913 -0.3151
  680MOL0     H91733   3.707  11.443   4.095  0.1397 -0.0763 -0.0194
  680MOL0     H91734   3.875  11.606   4.047  3.3453 -0.8549 -0.1206
  680MOL0     H91735   4.034  11.823   4.400 -3.6234 -1.2894 -2.3550
  680MOL0     H91736   4.172  11.709   4.350  0.3451 -0.8879 -3.0821
  680MOL0     H91737   4.095  11.975   4.207  0.5422 -0.6642 -1.7575
  680MOL0     H91738   4.233  11.870   4.173 -1.8893 -2.1664 -1.2403
  680MOL0     H91739   4.283  11.924   4.440  1.2126 -1.1225 -2.4551
  680MOL0     H91740   4.173  12.062   4.404 -0.4663 -0.1291  0.8255
  680MOL0     H91741   4.427  11.999   4.257 -0.3367  0.1195 -1.7077
  680MOL0     H91742   4.326  12.135   4.216 -0.2087 -2.6922 -2.1253
  680MOL0     H91743   4.354  12.207   4.467  0.8313  2.8913 -1.1181
  680MOL0     H91744   4.509  12.129   4.467  1.7456  1.7446 -0.7270
  680MOL0     H91745   4.398  12.357   4.306 -0.2146 -0.3171  1.0545
  680MOL0     H91746   4.542  12.362   4.423  2.7665  0.0944 -2.4430
  680MOL0     H91747   4.554  12.271   4.148 -4.0799  0.1008  0.6291
  680MOL0     H91748   4.681  12.230   4.278  3.0271  2.8587 -1.0622
  680MOL0     H91749   4.726  12.472   4.305 -1.2435  2.1093  0.7444
  680MOL0     H91750   4.773  12.412   4.146  1.2862  0.6434  1.4978
  680MOL0     H91751   4.420  12.447   4.082 -1.8681  2.5667 -2.7222
  680MOL0     H91752   4.326  12.817   4.026 -0.6392  0.0085  2.3538
  680MOL0     H91753   4.343  12.709   3.891 -1.2559  2.2417  0.0671
  680MOL0     H91754   4.218  12.536   4.022 -1.1041  0.0397  1.4414
  680MOL0     H91755   4.207  12.641   4.162 -1.2126 -2.9892 -0.2589
  680MOL0     H91756   4.100  12.703   3.876 -1.0398  0.0271  0.1869
  680MOL0     H91757   4.085  12.805   4.024  0.9570 -0.0522  0.7416
  680MOL0     H91758   3.949  12.659   4.145 -2.0398  1.9507 -0.0662
  680MOL0     H91759   3.963  12.537   4.020 -0.1261  0.4961  0.7176
  680MOL0     H91760   3.622  12.766   3.846  1.5393 -1.0302 -0.6831
  680MOL0     H91761   3.410  12.683   3.868  1.0834 -0.2026 -2.7962
  680MOL0     H91762   3.214  12.201   3.771  1.0331  0.3849  1.2828
  680MOL0     H91763   3.003  12.093   3.768 -0.1893  0.2888 -0.3279
  680MOL0     H91764   2.611  12.193   3.980  0.2860  1.1768 -1.2901
  680MOL0     H91765   2.645  12.342   3.907 -1.0773  1.9085 -4.2608
  680MOL0     H91766   2.542  12.071   3.808  2.3172 -1.1829 -4.6832
  680MOL0     H91767   2.437  12.222   3.838 -0.0236 -0.3216  0.9881
  680MOL0     H91768   2.632  12.264   3.626 -0.1516  0.5574  2.1413
  680MOL0     H91769   2.580  12.112   3.597  0.6873  0.4968 -0.0557
  680MOL0     H91770   2.450  12.286   3.472 -1.0591  0.2779 -0.5117
  680MOL0     H91771   2.404  12.356   3.624  1.8011 -1.3074  0.6684
  680MOL0     H91772   2.277  12.146   3.668 -0.3808  0.4322  0.6572
  680MOL0     H91773   2.333  12.075   3.519  1.3089  0.0386  1.7491
  680MOL0     H91774   2.155  12.308   3.587  3.0067  2.9569 -1.7802
  680MOL0     H91775   2.213  12.292   3.424  1.6231 -0.2315  0.3363
  680MOL0     H91776   1.982  12.171   3.454  0.5101  0.7808 -1.5403
  680MOL0     H91777   2.063  12.064   3.565  2.7836  0.6906  1.2383
  680MOL0     H91778   2.166  12.084   3.279 -0.8639 -0.7352 -1.0073
  680MOL0     H91779   2.192  11.956   3.401  3.6138  0.5400 -3.5572
  680MOL0     H91780   2.813  12.446   3.945  0.3408  2.1326  0.4557
  680MOL0     H91781   3.053  12.541   3.954  1.6011  0.0496 -1.0461
  680MOL0     H91782   3.558  12.347   4.105  2.0801 -1.0957 -1.9483
  680MOL0     H91783   3.784  12.434   4.072 -0.2921 -1.3767 -0.2546
  680MOL0     H91784   3.965  11.628   4.476 -0.8330 -1.0603  0.1157
  680MOL0     H91785   3.811  11.446   4.508 -0.2243  0.1740  0.4678
  680MOL0     H91786   3.694  11.137   4.506  0.1693 -3.6092 -1.8468
  680MOL0     H91787   3.603  10.982   4.651 -3.0133 -4.2610  0.9506
  680MOL0     H91788   3.475  10.889   4.795  1.2184  0.2404 -1.5407
  680MOL0     H91789   3.529  10.763   4.697  2.0976  0.7923  1.0817
  680MOL0     H91790   3.250  10.783   4.829 -1.1459  0.2159 -0.0822
  680MOL0     H91791   3.388  10.715   4.918 -1.9874 -3.9737  0.2839
  680MOL0     H91792   3.410  10.544   4.731  1.0395 -2.0745  3.7523
  680MOL0     H91793   3.246  10.579   4.678 -0.5602 -1.7477  0.7114
  680MOL0     H91794   3.311  10.489   4.961  1.0913  0.0352 -0.7370
  680MOL0     H91795   3.150  10.511   4.897  0.2004  1.8751  0.7068
  680MOL0     H91796   3.223  10.156   4.710  1.3337 -1.1012  0.4297
  680MOL0     H91797   3.265  10.949   4.387  1.3877  0.7740 -2.1477
  680MOL0     H91798   3.230  11.052   4.218 -0.8456  0.2516  2.0677
  680MOL0     H91799   3.292  11.218   4.217  0.6490  0.6009  2.7204
  680MOL0     H91800   3.379  11.087   4.123  1.2553  1.1410  0.7493
  681MOL0     O91801   3.644  10.333  10.435 -0.3730  0.2944 -0.2397
  681MOL0     C91802   3.598  10.427  10.496  1.4715 -0.2821 -0.1278
  681MOL0     O91803   3.610  10.566  10.460  0.2118 -0.4870 -0.0441
  681MOL0     C91804   3.680  10.607  10.353 -0.0653 -0.4732 -0.6322
  681MOL0     C91805   3.644  10.732  10.301  0.5294  0.3998 -0.0924
  681MOL0     C91806   3.701  10.786  10.185  0.1511 -0.1125  0.3309
  681MOL0     C91807   3.801  10.718  10.114 -0.1117  0.3500  1.0054
  681MOL0     O91808   3.856  10.746   9.995  0.2384  0.3436  0.0517
  681MOL0     C91809   3.790  10.846   9.924 -0.8348  0.8800  0.9802
  681MOL0     C91810   3.878  10.873   9.804  0.9327  0.6247  0.5556
  681MOL0     C91811   3.806  10.963   9.699  0.1910 -1.1337 -0.1472
  681MOL0     C91812   3.902  11.009   9.591 -0.5015 -0.1183 -0.1688
  681MOL0     C91813   3.827  11.089   9.478 -0.5611  0.7372  0.1387
  681MOL0     C91814   3.917  11.184   9.401 -0.5033 -0.4586  0.3915
  681MOL0     C91815   4.052  11.125   9.351 -0.1683  1.2189 -0.4235
  681MOL0     C91816   4.138  11.226   9.289 -0.7398 -0.6025 -0.3094
  681MOL0     N91817   4.275  11.191   9.259  0.0432  0.2048  0.2535
  681MOL0     C91818   4.337  11.105   9.345 -0.8160 -0.1049 -0.2196
  681MOL0     C91819   4.427  11.030   9.270  0.3307 -0.4707 -0.2887
  681MOL0     C91820   4.522  10.917   9.316 -0.9794  0.2292  0.6342
  681MOL0     C91821   4.656  10.922   9.245 -0.6164 -1.6981  0.2890
  681MOL0     C91822   4.761  10.836   9.307 -0.8992  0.7187  0.1398
  681MOL0     C91823   4.885  10.822   9.222  0.1230 -0.2058  0.1756
  681MOL0     O91824   4.987  10.754   9.310  0.4932 -0.2111 -0.3605
  681MOL0     C91825   5.109  10.730   9.256 -0.5471  0.5959 -0.2091
  681MOL0     C91826   5.209  10.692   9.344 -0.5246  1.4857  0.5908
  681MOL0     C91827   5.339  10.680   9.300 -0.3849  1.2998  0.5531
  681MOL0     C91828   5.368  10.673   9.164  0.1636  0.5318  0.3534
  681MOL0     C91829   5.507  10.629   9.126 -0.2516  0.4158  0.5855
  681MOL0     O91830   5.516  10.556   9.011 -0.0845 -0.2899  0.0917
  681MOL0     C91831   5.643  10.534   8.960  0.6598  0.2199  0.3856
  681MOL0     C91832   5.660  10.583   8.833 -0.6591  0.4325 -0.7341
  681MOL0     C91833   5.786  10.563   8.769 -0.2199 -0.0440  0.2008
  681MOL0     C91834   5.887  10.492   8.830  0.2877  0.5007 -1.3351
  681MOL0     O91835   6.010  10.484   8.761  0.1078 -0.1063  0.1081
  681MOL0     C91836   6.121  10.424   8.833 -0.0446  0.2751  0.3278
  681MOL0     C91837   6.242  10.413   8.744  0.3096  0.2081 -0.2225
  681MOL0     C91838   6.368  10.436   8.825 -0.1662  0.8546 -1.1501
  681MOL0     C91839   6.416  10.329   8.919 -0.2624  0.1261 -0.3499
  681MOL0     C91840   6.567  10.350   8.962 -0.8999  0.4122 -0.7468
  681MOL0     C91841   6.622  10.238   9.054 -0.7081  0.7899  0.6951
  681MOL0     C91842   6.556  10.202   9.187 -0.3919 -0.2086 -1.3133
  681MOL0     C91843   6.648  10.126   9.290  0.5029  0.4089 -0.0180
  681MOL0    Cl91844   6.681  10.236   9.435  0.0339 -0.0716  0.0394
  681MOL0     C91845   5.869  10.444   8.959  0.9914 -0.7911 -0.6554
  681MOL0     C91846   5.748  10.464   9.027 -0.4475 -0.0666 -0.4140
  681MOL0     O91847   5.605  10.652   9.195  0.4487  0.3001 -0.0098
  681MOL0     C91848   5.265  10.701   9.072  0.1501 -0.8809  0.1760
  681MOL0     C91849   5.144  10.735   9.117 -0.1245  0.3026 -0.3629
  681MOL0     N91850   4.416  11.086   9.144 -0.1812  0.6175 -0.0451
  681MOL0     N91851   4.325  11.174   9.135  0.0850  0.0007  0.1562
  681MOL0     C91852   3.861  10.604  10.185 -0.1661 -0.6058 -0.0491
  681MOL0     C91853   3.792  10.550  10.296 -0.1590  0.7913 -0.0076
  681MOL0     C91854   3.516  10.403  10.617  0.5851  0.1530 -0.4523
  681MOL0     C91855   3.472  10.505  10.704  0.4918  0.0723 -0.3734
  681MOL0     C91856   3.402  10.481  10.829 -0.9031 -0.0508  0.2830
  681MOL0     C91857   3.370  10.353  10.860  0.0574 -0.0078  0.0657
  681MOL0     O91858   3.306  10.326  10.966 -0.3516 -0.0527 -0.5975
  681MOL0     C91859   3.372  10.349  11.090 -0.4404 -0.4804 -0.6007
  681MOL0     C91860   3.320  10.265  11.206  0.2717 -0.1758  0.7757
  681MOL0     C91861   3.425  10.265  11.323  0.2852 -0.4483  0.0252
  681MOL0     C91862   3.382  10.227  11.462 -0.2209 -0.7207 -1.1494
  681MOL0     C91863   3.307  10.105  11.490  0.5547 -0.7871 -0.5328
  681MOL0     C91864   3.250  10.004  11.516  0.0333 -0.5528  0.5685
  681MOL0     C91865   3.393  10.248  10.765 -0.5791  0.0019  0.4987
  681MOL0     C91866   3.475  10.268  10.658  0.2764  0.9240  0.1862
  681MOL0     C91867   3.508  10.143  10.578  0.1350 -0.4834 -0.3557
  681MOL0     H91868   3.564  10.781  10.355  0.4889  0.9488 -0.6420
  681MOL0     H91869   3.660  10.880  10.148 -1.2102 -1.2651 -1.2214
  681MOL0     H91870   3.689  10.815   9.896 -1.3542  2.0002  1.5706
  681MOL0     H91871   3.773  10.935   9.985 -0.2591  0.0696  2.3839
  681MOL0     H91872   3.892  10.781   9.745 -2.0180  3.1292 -4.8259
  681MOL0     H91873   3.975  10.909   9.838  1.4955  1.2123 -1.5253
  681MOL0     H91874   3.762  11.052   9.745  0.7559 -1.8924  1.9911
  681MOL0     H91875   3.732  10.899   9.651 -1.5982  0.7221  0.0133
  681MOL0     H91876   3.982  11.057   9.649 -0.6530 -1.2003  0.9672
  681MOL0     H91877   3.951  10.921   9.549 -1.4446 -2.0626  2.5232
  681MOL0     H91878   3.793  11.013   9.408  0.1587  0.1399  0.4251
  681MOL0     H91879   3.750  11.149   9.527  2.5676  3.2819  2.4360
  681MOL0     H91880   3.872  11.221   9.309  0.1490 -4.0556 -1.5874
  681MOL0     H91881   3.937  11.274   9.459 -0.8426  0.2687 -0.5997
  681MOL0     H91882   4.019  11.046   9.283 -1.8161  0.0379  1.6410
  681MOL0     H91883   4.094  11.078   9.440 -3.5810  0.5206  0.9841
  681MOL0     H91884   4.092  11.260   9.195 -1.1125 -1.6804 -0.5263
  681MOL0     H91885   4.144  11.317   9.349 -1.5636  1.5178 -3.2038
  681MOL0     H91886   4.318  11.087   9.450 -3.0744  0.9979 -0.3760
  681MOL0     H91887   4.546  10.940   9.421 -0.8538 -0.5960  0.7886
  681MOL0     H91888   4.484  10.816   9.299 -0.0385 -0.1304  0.6130
  681MOL0     H91889   4.647  10.905   9.137  0.4105 -0.4844 -0.0079
  681MOL0     H91890   4.689  11.026   9.246  1.2931 -2.1218 -3.2423
  681MOL0     H91891   4.730  10.737   9.343  0.3618 -0.4348 -1.7940
  681MOL0     H91892   4.795  10.888   9.397 -1.5034  4.1902 -1.4873
  681MOL0     H91893   4.919  10.919   9.184  0.6469  0.4443  2.1754
  681MOL0     H91894   4.864  10.766   9.131  0.1231 -2.0770  1.2762
  681MOL0     H91895   5.188  10.676   9.450  1.7896 -0.2748  0.8509
  681MOL0     H91896   5.424  10.661   9.364 -0.2539 -0.6897 -0.1435
  681MOL0     H91897   5.568  10.607   8.780 -1.1060 -0.8043 -0.5566
  681MOL0     H91898   5.801  10.600   8.668 -1.6242 -2.8513 -1.1382
  681MOL0     H91899   6.143  10.478   8.926  3.5058 -1.4299  0.6629
  681MOL0     H91900   6.097  10.323   8.867 -2.2914 -0.1368 -2.2391
  681MOL0     H91901   6.255  10.322   8.685 -2.8325 -1.2075  1.0085
  681MOL0     H91902   6.230  10.486   8.664 -1.8041 -1.2679 -1.3610
  681MOL0     H91903   6.449  10.446   8.752  0.4367  1.1342 -0.4559
  681MOL0     H91904   6.365  10.530   8.879  0.9878  0.6868 -0.7740
  681MOL0     H91905   6.399  10.233   8.870 -1.2394  1.0884 -2.0093
  681MOL0     H91906   6.351  10.324   9.007  2.0361 -3.4434  1.3689
  681MOL0     H91907   6.562  10.442   9.021  1.9754  1.6085 -2.1846
  681MOL0     H91908   6.629  10.365   8.873 -1.3166 -2.7448 -1.6966
  681MOL0     H91909   6.619  10.145   8.997  0.5393  0.2158  1.5093
  681MOL0     H91910   6.727  10.269   9.062 -0.6805  1.5302 -1.6624
  681MOL0     H91911   6.468  10.142   9.163 -0.7649  0.3409 -1.3251
  681MOL0     H91912   6.511  10.286   9.240 -3.0779 -0.2743 -3.2765
  681MOL0     H91913   6.607  10.030   9.322  0.9352 -0.1889 -1.1645
  681MOL0     H91914   6.746  10.120   9.240  1.3075  1.3261  1.3588
  681MOL0     H91915   5.940  10.386   9.018 -0.1224  0.6432  2.3104
  681MOL0     H91916   5.729  10.411   9.119 -3.5694 -1.7315 -1.8713
  681MOL0     H91917   5.276  10.697   8.964  0.7911 -2.1889  0.2658
  681MOL0     H91918   5.057  10.743   9.054 -2.0057  2.5249  2.2871
  681MOL0     H91919   3.946  10.560  10.134 -0.0817  1.1783 -1.5674
  681MOL0     H91920   3.845  10.463  10.336  0.7009  2.2044  2.0877
  681MOL0     H91921   3.500  10.606  10.677 -2.4515  0.9567 -0.4507
  681MOL0     H91922   3.372  10.555  10.902 -0.2657 -3.0562  3.9115
  681MOL0     H91923   3.352  10.453  11.120 -0.6328  0.7860 -4.5595
  681MOL0     H91924   3.481  10.343  11.086 -0.2923  0.2259  1.1722
  681MOL0     H91925   3.308  10.166  11.162  4.9499 -1.3933  1.6512
  681MOL0     H91926   3.233  10.310  11.255  2.1917  1.7212  2.6676
  681MOL0     H91927   3.460  10.368  11.331 -0.4730 -0.2074  0.4048
  681MOL0     H91928   3.501  10.190  11.300  2.4086  1.1437  1.3585
  681MOL0     H91929   3.479  10.218  11.513 -0.9482 -0.3505  0.3570
  681MOL0     H91930   3.321  10.304  11.510  2.5482  2.6016 -2.5382
  681MOL0     H91931   3.192   9.919  11.545 -0.7308 -0.3597 -0.3381
  681MOL0     H91932   3.363  10.148  10.794 -0.9632  0.0506  0.2682
  681MOL0     H91933   3.486  10.062  10.649  1.4565  0.5822  1.3664
  681MOL0     H91934   3.441  10.147  10.492  2.3599  0.6484 -2.1341
  681MOL0     H91935   3.614  10.140  10.553 -0.2752  1.4694 -2.6153
  682MOL0     O91936   4.489   3.853   1.551  0.7184 -0.0873  0.1095
  682MOL0     C91937   4.376   3.894   1.510 -0.1689  0.5929  0.2348
  682MOL0     O91938   4.289   3.961   1.588  0.1364 -0.1908  0.3771
  682MOL0     C91939   4.327   4.028   1.700  0.6541 -0.2368 -0.2572
  682MOL0     C91940   4.227   4.051   1.803 -0.0825 -0.5678  0.2296
  682MOL0     C91941   4.256   4.139   1.912  0.1304 -0.3658 -0.4965
  682MOL0     C91942   4.377   4.195   1.934 -0.2174  0.4642  0.4128
  682MOL0     O91943   4.401   4.258   2.051 -0.6927  0.0070 -0.1513
  682MOL0     C91944   4.476   4.383   2.045  0.1866 -0.4572 -0.5796
  682MOL0     C91945   4.494   4.437   2.194  0.0720 -0.4340 -0.3667
  682MOL0     C91946   4.377   4.398   2.291 -0.9379  0.0360  0.1458
  682MOL0     C91947   4.229   4.444   2.252  0.3625  0.1912  0.2994
  682MOL0     C91948   4.101   4.367   2.298 -0.1185 -0.7049  0.2606
  682MOL0     C91949   3.974   4.435   2.251  0.7711 -1.0800  0.2995
  682MOL0     C91950   3.931   4.567   2.312 -0.6224 -0.0297 -1.0746
  682MOL0     C91951   3.809   4.625   2.258  0.7478 -0.2104 -0.1615
  682MOL0     N91952   3.783   4.762   2.296 -0.0011  0.0868  0.0256
  682MOL0     C91953   3.694   4.790   2.392  0.2968 -0.7066 -0.7031
  682MOL0     C91954   3.726   4.915   2.440  1.2885 -0.5656 -0.4602
  682MOL0     C91955   3.625   4.996   2.523 -0.1147 -0.2213  0.2091
  682MOL0     C91956   3.484   5.005   2.456 -0.6960  0.4699 -0.0316
  682MOL0     C91957   3.386   5.090   2.529  0.5215 -1.1034 -0.7384
  682MOL0     C91958   3.339   5.037   2.664 -0.0586 -0.5170  0.3278
  682MOL0     O91959   3.292   4.907   2.633  0.5089  0.1681  0.4415
  682MOL0     C91960   3.269   4.822   2.736  0.4325  0.7733  0.3471
  682MOL0     C91961   3.330   4.827   2.860  0.4206 -0.1063 -0.3354
  682MOL0     C91962   3.318   4.721   2.955 -0.4885  0.0171 -0.3368
  682MOL0     C91963   3.229   4.619   2.933 -0.3875  0.7556  0.3408
  682MOL0     C91964   3.212   4.513   3.032 -0.4033  0.9325 -0.2870
  682MOL0     O91965   3.288   4.520   3.141  0.0305  0.4518 -0.6019
  682MOL0     C91966   3.259   4.447   3.253  0.0301  0.4579  0.2513
  682MOL0     C91967   3.182   4.502   3.355 -0.9905  0.3819  1.6072
  682MOL0     C91968   3.166   4.436   3.469 -0.0297  0.0834 -0.1573
  682MOL0     C91969   3.229   4.311   3.490  0.2989 -0.7688  0.7388
  682MOL0     O91970   3.205   4.233   3.595 -0.2023 -0.1653  0.8214
  682MOL0     C91971   3.136   4.281   3.716 -0.2096 -0.2977 -0.3262
  682MOL0     C91972   3.137   4.168   3.822  0.4434 -0.3842 -0.0813
  682MOL0     C91973   3.047   4.216   3.942 -0.0904  1.1703 -0.2313
  682MOL0     C91974   3.067   4.107   4.059 -0.3090  0.0670  0.3499
  682MOL0     C91975   3.001   4.164   4.184  0.2169 -0.0329 -0.2469
  682MOL0     C91976   2.848   4.148   4.193  0.5747 -0.1610  1.0163
  682MOL0     C91977   2.810   3.999   4.237  0.2914 -0.4491 -0.1779
  682MOL0     C91978   2.682   3.970   4.163 -0.4329  0.0761  0.6889
  682MOL0    Cl91979   2.620   3.810   4.194  0.1468  0.2333 -0.0614
  682MOL0     C91980   3.317   4.259   3.389 -0.0321  0.4021  0.0082
  682MOL0     C91981   3.329   4.327   3.276 -0.3411 -1.1094 -0.2462
  682MOL0     O91982   3.135   4.416   3.016 -0.4751 -0.5700  0.0735
  682MOL0     C91983   3.159   4.616   2.808  0.1553  0.6925  1.4431
  682MOL0     C91984   3.186   4.714   2.713 -1.0026  0.7327  0.3924
  682MOL0     N91985   3.816   4.974   2.360 -0.1480  1.4257 -0.2065
  682MOL0     N91986   3.854   4.878   2.277  0.5158  0.0025 -0.2049
  682MOL0     C91987   4.478   4.168   1.843  0.3316  0.5243 -0.7096
  682MOL0     C91988   4.453   4.085   1.730  0.0534  0.0821  0.7770
  682MOL0     C91989   4.355   3.877   1.369  0.1725  0.7273 -0.3952
  682MOL0     C91990   4.236   3.818   1.328 -0.4468  0.0832  0.6694
  682MOL0     C91991   4.196   3.799   1.202 -0.3646  0.3336  1.0805
  682MOL0     C91992   4.276   3.844   1.095 -0.0160 -0.6859  0.8010
  682MOL0     O91993   4.225   3.838   0.964 -0.2132 -0.1932  0.1228
  682MOL0     C91994   4.284   3.933   0.863  0.4581  0.6278 -0.1324
  682MOL0     C91995   4.188   3.956   0.747  1.0468 -0.2143 -0.6862
  682MOL0     C91996   4.164   3.823   0.667 -0.2981  0.0558 -0.1561
  682MOL0     C91997   4.297   3.766   0.599 -0.9756 -0.2773 -0.4277
  682MOL0     C91998   4.262   3.641   0.531  0.6606 -0.7462  0.0266
  682MOL0     C91999   4.207   3.536   0.499 -0.0433 -1.1120  1.0025
  682MOL0     C92000   4.401   3.895   1.128  0.0470 -0.9463 -0.9588
  682MOL0     C92001   4.447   3.908   1.265 -0.0620 -0.1561  0.2929
  682MOL0     C92002   4.586   3.952   1.288 -0.5762 -0.1466 -1.3362
  682MOL0     H92003   4.128   4.007   1.799 -0.2586 -0.3885  1.9859
  682MOL0     H92004   4.181   4.162   1.987  1.6687  1.0810  0.6788
  682MOL0     H92005   4.578   4.369   2.007 -0.0863 -2.3370 -0.6952
  682MOL0     H92006   4.418   4.455   1.986 -1.2175 -0.8781  0.2383
  682MOL0     H92007   4.514   4.544   2.186  2.6084 -0.9948 -3.6348
  682MOL0     H92008   4.584   4.388   2.230 -0.1278 -1.3731 -1.0781
  682MOL0     H92009   4.384   4.448   2.388 -2.2086 -0.2845  0.4170
  682MOL0     H92010   4.386   4.290   2.312  2.6685 -0.4824 -2.9546
  682MOL0     H92011   4.214   4.542   2.298  2.0346  0.6774 -0.1318
  682MOL0     H92012   4.227   4.463   2.144 -1.0940  0.8484  0.4117
  682MOL0     H92013   4.101   4.264   2.261 -1.4452 -0.5432 -0.2309
  682MOL0     H92014   4.108   4.368   2.407  2.3847 -2.6054  0.2074
  682MOL0     H92015   3.991   4.448   2.143 -0.3199  1.2728  0.3655
  682MOL0     H92016   3.891   4.367   2.271 -1.7692  1.7572  0.0746
  682MOL0     H92017   4.008   4.646   2.307 -0.5810 -0.0597 -0.9124
  682MOL0     H92018   3.918   4.567   2.420  0.8980 -1.4292 -0.8631
  682MOL0     H92019   3.803   4.630   2.148  0.9173  1.7275 -0.1183
  682MOL0     H92020   3.725   4.560   2.282 -0.4514  0.9453 -1.0631
  682MOL0     H92021   3.618   4.726   2.436 -1.3853  0.6090 -1.5830
  682MOL0     H92022   3.613   4.954   2.623  1.6982  0.3461  0.7110
  682MOL0     H92023   3.663   5.098   2.536 -0.5170 -0.3959  3.9806
  682MOL0     H92024   3.506   5.033   2.353  1.7435  2.0871  0.8246
  682MOL0     H92025   3.438   4.906   2.456 -1.0191  0.6186  0.1034
  682MOL0     H92026   3.292   5.101   2.474 -0.8301 -2.2712  1.2198
  682MOL0     H92027   3.421   5.193   2.537 -0.8165 -0.2967 -3.8633
  682MOL0     H92028   3.267   5.110   2.702  0.8453  1.0077 -0.8057
  682MOL0     H92029   3.423   5.037   2.734  1.3989 -0.6214 -1.3466
  682MOL0     H92030   3.406   4.899   2.889 -1.3143  0.5142  3.1999
  682MOL0     H92031   3.372   4.729   3.048 -2.1410 -0.2850  0.6968
  682MOL0     H92032   3.125   4.590   3.325  0.6155  0.7299 -0.7637
  682MOL0     H92033   3.096   4.470   3.545 -1.0342 -0.9465 -0.5998
  682MOL0     H92034   3.175   4.373   3.761 -1.6904 -0.2566  0.9589
  682MOL0     H92035   3.036   4.296   3.674 -1.4263  0.5597  2.6196
  682MOL0     H92036   3.090   4.080   3.778  0.0341 -0.9940  1.5043
  682MOL0     H92037   3.242   4.148   3.849  0.3038  0.7051  1.3980
  682MOL0     H92038   3.074   4.315   3.980  2.3285  0.0145  1.2857
  682MOL0     H92039   2.944   4.213   3.904 -0.7474 -0.3655  1.5214
  682MOL0     H92040   3.173   4.082   4.071 -0.8817 -2.7476  0.2525
  682MOL0     H92041   3.015   4.018   4.021  2.2223 -0.0176 -3.4043
  682MOL0     H92042   3.021   4.270   4.203  1.1302  0.4351 -3.3234
  682MOL0     H92043   3.030   4.104   4.271 -1.9342 -2.7833 -1.2789
  682MOL0     H92044   2.812   4.218   4.269  0.0746 -1.1313  1.6930
  682MOL0     H92045   2.794   4.174   4.102 -1.5818 -0.0563  2.2765
  682MOL0     H92046   2.798   3.994   4.345  2.6351  2.0988  0.3082
  682MOL0     H92047   2.894   3.935   4.208  0.9405  0.5651 -0.6048
  682MOL0     H92048   2.608   4.043   4.197  1.5315  0.7392  4.0854
  682MOL0     H92049   2.697   3.984   4.056 -2.4258 -0.1295  0.3456
  682MOL0     H92050   3.364   4.165   3.417 -2.5759 -1.8389 -2.6087
  682MOL0     H92051   3.405   4.299   3.204  1.6176  2.0394  0.4304
  682MOL0     H92052   3.086   4.539   2.784  0.2210  1.1286 -0.3009
  682MOL0     H92053   3.135   4.699   2.618 -0.8444 -2.2211  0.6642
  682MOL0     H92054   4.572   4.224   1.844  0.6287  0.1871 -3.3096
  682MOL0     H92055   4.522   4.076   1.648  0.2281  1.8261  0.7107
  682MOL0     H92056   4.163   3.789   1.402 -1.8637  1.1338 -0.2413
  682MOL0     H92057   4.101   3.760   1.166 -0.0858 -0.1691  0.8786
  682MOL0     H92058   4.376   3.888   0.825 -0.3035 -1.2531  0.1714
  682MOL0     H92059   4.310   4.026   0.915  1.2202 -0.3815  1.3697
  682MOL0     H92060   4.233   4.026   0.677  2.1714  1.1506  1.2889
  682MOL0     H92061   4.100   4.009   0.785  2.5369  2.4341 -0.7131
  682MOL0     H92062   4.097   3.849   0.585  1.5314  3.1598 -0.8378
  682MOL0     H92063   4.128   3.750   0.740  0.2060 -2.2080 -2.0445
  682MOL0     H92064   4.336   3.841   0.530  1.3707  0.4061  1.4811
  682MOL0     H92065   4.374   3.744   0.674 -1.4390  0.0110  0.1365
  682MOL0     H92066   4.146   3.464   0.448  0.7742  0.4056 -2.4468
  682MOL0     H92067   4.459   3.950   1.055  2.2699 -1.9351 -0.0176
  682MOL0     H92068   4.656   3.958   1.204  1.3659  1.0367  0.2554
  682MOL0     H92069   4.589   4.048   1.341  0.9966  0.7836 -3.0177
  682MOL0     H92070   4.626   3.881   1.362 -1.7445  1.3494  0.8517
  683MOL0     O92071   6.108   2.073   5.662 -0.0748  0.3735 -0.3762
  683MOL0     C92072   6.093   1.988   5.575  0.1388 -0.5004  0.2670
  683MOL0     O92073   6.047   2.012   5.448  0.6463 -0.0162  0.5425
  683MOL0     C92074   5.982   2.136   5.439  1.4479  1.1830  0.2370
  683MOL0     C92075   5.887   2.191   5.535  0.1989 -0.1849  0.0520
  683MOL0     C92076   5.851   2.324   5.516 -0.2341  0.8274  0.5532
  683MOL0     C92077   5.875   2.403   5.402 -0.3670 -0.5630 -0.1502
  683MOL0     O92078   5.826   2.531   5.400 -0.1795 -0.7342  0.4207
  683MOL0     C92079   5.845   2.619   5.292 -0.4492  0.1176  0.4894
  683MOL0     C92080   5.728   2.723   5.289 -0.3169  0.0156  0.5110
  683MOL0     C92081   5.697   2.796   5.423  0.4624  0.3086 -0.5946
  683MOL0     C92082   5.791   2.914   5.447 -0.4318 -0.7259 -0.5278
  683MOL0     C92083   5.758   3.037   5.368 -1.0022  0.3276  0.2617
  683MOL0     C92084   5.883   3.108   5.309  0.4874  0.0558 -0.3926
  683MOL0     C92085   5.981   3.159   5.420  0.7063 -1.2679 -0.2394
  683MOL0     C92086   6.056   3.284   5.380  0.3624 -0.0705  0.5136
  683MOL0     N92087   6.106   3.270   5.242  0.2740 -0.4007  0.1606
  683MOL0     C92088   6.216   3.201   5.197 -0.0381  0.2930 -0.2328
  683MOL0     C92089   6.235   3.238   5.072  0.0511 -0.4121 -0.5572
  683MOL0     C92090   6.331   3.185   4.964 -0.2049 -0.6961  0.0247
  683MOL0     C92091   6.402   3.067   5.024  0.0497  0.5592 -0.4308
  683MOL0     C92092   6.490   3.007   4.913 -0.0008  0.8507  0.0868
  683MOL0     C92093   6.598   2.918   4.954  0.7660  0.2763  0.1353
  683MOL0     O92094   6.544   2.798   4.984 -0.2918 -0.4774  0.0428
  683MOL0     C92095   6.613   2.685   5.008 -0.0349  0.2308  0.9000
  683MOL0     C92096   6.755   2.684   5.020 -0.3942  0.3828 -0.0740
  683MOL0     C92097   6.828   2.560   5.025 -0.1385 -0.4463  0.4687
  683MOL0     C92098   6.759   2.443   5.026 -0.5449 -0.0846 -0.0262
  683MOL0     C92099   6.838   2.318   5.023 -0.1288 -0.4783  0.1430
  683MOL0     O92100   6.756   2.206   5.048 -0.4159 -0.2672 -0.2485
  683MOL0     C92101   6.809   2.077   5.055  0.1958  0.1938 -0.9538
  683MOL0     C92102   6.707   1.980   5.051  0.7550  0.5388  0.4294
  683MOL0     C92103   6.749   1.842   5.050  0.1916 -0.3583 -0.7592
  683MOL0     C92104   6.884   1.805   5.064 -0.4484  0.4835 -0.9494
  683MOL0     O92105   6.940   1.686   5.096  0.1513 -0.5873 -0.1020
  683MOL0     C92106   6.884   1.566   5.040 -0.4708 -0.1146 -0.7088
  683MOL0     C92107   6.970   1.441   5.077 -0.0880  1.2805  0.3676
  683MOL0     C92108   6.901   1.315   5.045  0.0663  0.6331  0.3728
  683MOL0     C92109   6.951   1.211   5.149 -0.7971 -0.0804  0.6594
  683MOL0     C92110   6.869   1.087   5.137 -0.0731  0.1665 -0.1377
  683MOL0     C92111   6.909   0.991   5.254  0.4684  0.6644 -0.2184
  683MOL0     C92112   6.808   0.877   5.281 -0.3891  0.0928 -0.3765
  683MOL0     C92113   6.653   0.924   5.273 -0.2780  0.5786 -0.1402
  683MOL0    Cl92114   6.539   0.775   5.302 -0.2455 -0.0346 -0.2449
  683MOL0     C92115   6.978   1.907   5.092  0.7444  0.6388  0.5454
  683MOL0     C92116   6.936   2.040   5.103 -0.6049 -0.4988 -0.1988
  683MOL0     O92117   6.962   2.319   5.023  0.2713  0.0508  0.2789
  683MOL0     C92118   6.618   2.451   5.038 -0.4418  0.0411  0.6097
  683MOL0     C92119   6.545   2.570   5.029 -0.4874  0.1770  0.3914
  683MOL0     N92120   6.141   3.342   5.051 -0.0727  0.2804  0.7542
  683MOL0     N92121   6.055   3.348   5.145 -1.2381 -0.2623 -1.0246
  683MOL0     C92122   5.956   2.345   5.303  0.6465  1.1675  0.2364
  683MOL0     C92123   6.011   2.213   5.322  0.4676  1.1174 -0.0109
  683MOL0     C92124   6.124   1.851   5.602  0.1888 -0.6595  0.2219
  683MOL0     C92125   6.063   1.754   5.504 -0.5127  0.1098 -0.5862
  683MOL0     C92126   6.079   1.612   5.531 -0.5555  0.6374  0.3972
  683MOL0     C92127   6.142   1.560   5.641 -0.1476 -0.2412 -0.9196
  683MOL0     O92128   6.152   1.425   5.647 -0.4815 -0.0394 -0.1323
  683MOL0     C92129   6.189   1.370   5.773 -0.0042  0.1374  0.6504
  683MOL0     C92130   6.132   1.233   5.768 -0.1513 -0.5449 -0.2171
  683MOL0     C92131   5.979   1.209   5.772 -0.0634  0.7687 -0.0287
  683MOL0     C92132   5.885   1.314   5.714 -0.2692 -1.0511  0.7249
  683MOL0     C92133   5.753   1.253   5.675  0.2942 -0.2842  0.7009
  683MOL0     C92134   5.648   1.194   5.647 -1.2626  0.1778  0.2051
  683MOL0     C92135   6.212   1.656   5.722 -0.6971  0.0840 -0.1951
  683MOL0     C92136   6.206   1.794   5.702 -0.6969 -1.0171 -0.5269
  683MOL0     C92137   6.270   1.889   5.799 -1.2161 -0.0934 -0.0873
  683MOL0     H92138   5.867   2.144   5.631  0.2556  1.1649  0.7357
  683MOL0     H92139   5.795   2.362   5.600  1.5671 -1.0892  2.7425
  683MOL0     H92140   5.939   2.672   5.309  0.1414 -0.9874  0.7981
  683MOL0     H92141   5.840   2.570   5.193 -3.7553  3.3755 -1.1934
  683MOL0     H92142   5.648   2.656   5.255 -1.5928  1.0065  1.4727
  683MOL0     H92143   5.744   2.794   5.208 -0.0720 -3.3592 -2.7091
  683MOL0     H92144   5.714   2.718   5.497 -1.1508 -0.7678 -1.2832
  683MOL0     H92145   5.598   2.843   5.431  1.4089  2.3381 -0.1956
  683MOL0     H92146   5.795   2.944   5.552 -0.1594 -3.1778  0.2475
  683MOL0     H92147   5.884   2.861   5.425 -0.9948 -3.2653  2.4273
  683MOL0     H92148   5.701   3.005   5.281  2.9650 -1.4286 -1.9293
  683MOL0     H92149   5.710   3.118   5.425 -0.1654  2.1415 -1.5189
  683MOL0     H92150   5.930   3.046   5.231 -0.4392 -0.7588 -0.3265
  683MOL0     H92151   5.824   3.186   5.260  2.2943 -0.2236 -3.2832
  683MOL0     H92152   6.050   3.080   5.451  0.6047 -0.9150  0.9550
  683MOL0     H92153   5.922   3.188   5.507  1.2387 -0.1612 -0.2336
  683MOL0     H92154   5.979   3.362   5.373  0.7770  0.2827 -5.3055
  683MOL0     H92155   6.130   3.302   5.458 -0.0927 -0.4367  1.0421
  683MOL0     H92156   6.280   3.143   5.263  0.8413 -0.7897 -1.9536
  683MOL0     H92157   6.270   3.155   4.878 -0.9798  2.1546 -0.5536
  683MOL0     H92158   6.398   3.265   4.930 -1.4188  0.9818  1.3958
  683MOL0     H92159   6.464   3.103   5.106  0.1310  3.0793 -1.4997
  683MOL0     H92160   6.335   2.993   5.068  1.8379  1.6568  4.7602
  683MOL0     H92161   6.541   3.084   4.854  1.1088 -0.2814 -0.4886
  683MOL0     H92162   6.418   2.953   4.852 -0.9494 -1.9595  3.3846
  683MOL0     H92163   6.658   2.952   5.039  3.3725 -0.9322 -1.1163
  683MOL0     H92164   6.675   2.907   4.877 -0.6319 -0.2390 -1.2447
  683MOL0     H92165   6.807   2.779   5.024 -2.4743  1.5368  3.4152
  683MOL0     H92166   6.935   2.572   5.018  0.3806 -3.3556  1.8420
  683MOL0     H92167   6.604   2.012   5.051  0.0491 -1.6040  0.9346
  683MOL0     H92168   6.671   1.768   5.036 -1.8695  1.9258 -1.9462
  683MOL0     H92169   6.785   1.558   5.086  0.0158 -0.2308  0.3366
  683MOL0     H92170   6.885   1.588   4.933 -1.5475  0.5537 -0.6001
  683MOL0     H92171   7.061   1.459   5.019  0.1283 -1.2353 -0.1860
  683MOL0     H92172   6.994   1.452   5.183 -0.3627  4.0329  0.2311
  683MOL0     H92173   6.793   1.323   5.055  0.0688  0.9134  0.2056
  683MOL0     H92174   6.916   1.278   4.943  1.7966  3.6775 -0.6150
  683MOL0     H92175   6.950   1.248   5.252  1.1385  0.4140  0.5428
  683MOL0     H92176   7.053   1.186   5.120 -0.6980 -1.9805  2.3691
  683MOL0     H92177   6.882   1.041   5.039 -1.6480 -0.6027 -0.0108
  683MOL0     H92178   6.763   1.108   5.150 -0.3845 -0.8505 -0.9786
  683MOL0     H92179   7.003   0.942   5.227  2.1309  3.0721  0.7695
  683MOL0     H92180   6.936   1.034   5.351 -3.8098  0.8888  1.0863
  683MOL0     H92181   6.813   0.822   5.376 -3.2613  1.8794  0.9518
  683MOL0     H92182   6.817   0.820   5.188 -3.2017  1.5308 -1.6395
  683MOL0     H92183   6.641   1.011   5.339  0.0742 -0.7240  1.7267
  683MOL0     H92184   6.630   0.953   5.170 -1.7779 -0.6816 -0.2036
  683MOL0     H92185   7.075   1.864   5.116  0.9504  2.3310  3.1021
  683MOL0     H92186   7.005   2.114   5.141  1.0355 -2.4380  0.7694
  683MOL0     H92187   6.555   2.373   5.079 -1.3386 -0.3547 -1.3913
  683MOL0     H92188   6.438   2.558   5.042 -0.8976  0.9402 -1.8971
  683MOL0     H92189   5.979   2.396   5.210  0.0145 -0.2570 -0.7392
  683MOL0     H92190   6.064   2.159   5.245 -4.1168 -2.2514 -1.2127
  683MOL0     H92191   6.001   1.781   5.419  0.2476  0.6303 -0.9825
  683MOL0     H92192   6.030   1.542   5.464 -2.0584  1.9493  0.0599
  683MOL0     H92193   6.152   1.422   5.862 -0.1901 -1.8982  1.8276
  683MOL0     H92194   6.298   1.371   5.772  0.0141  1.4685 -1.1786
  683MOL0     H92195   6.175   1.176   5.851  0.6691 -3.5354 -2.5264
  683MOL0     H92196   6.171   1.186   5.677 -2.3591 -3.9241  0.4182
  683MOL0     H92197   5.945   1.189   5.874 -1.8678  1.3349 -0.4942
  683MOL0     H92198   5.957   1.113   5.726 -0.0627 -1.0762  3.4811
  683MOL0     H92199   5.878   1.403   5.778  0.9505  0.8194 -1.5651
  683MOL0     H92200   5.933   1.361   5.628 -0.7082  2.4736  2.2247
  683MOL0     H92201   5.569   1.133   5.608 -0.1668 -0.7360 -0.6819
  683MOL0     H92202   6.271   1.627   5.808 -1.3029 -1.0696 -0.1404
  683MOL0     H92203   6.201   1.937   5.869 -0.6276  1.5230 -0.5707
  683MOL0     H92204   6.342   1.843   5.867 -1.8379  1.0039  1.3700
  683MOL0     H92205   6.334   1.960   5.746  0.7263  0.7225  3.0678
  684MOL0     O92206   6.938   0.706  10.258  0.2030  0.1836 -0.0176
  684MOL0     C92207   6.835   0.734  10.317 -0.4240 -0.1670 -0.2581
  684MOL0     O92208   6.785   0.861  10.338 -0.2203 -0.0636 -0.6866
  684MOL0     C92209   6.850   0.976  10.301 -0.3183 -0.3198  0.7922
  684MOL0     C92210   6.775   1.100  10.293 -0.2444 -0.5702 -0.2457
  684MOL0     C92211   6.841   1.223  10.262  0.4488  0.2219 -0.8474
  684MOL0     C92212   6.976   1.234  10.258  0.3044 -0.4631  0.0980
  684MOL0     O92213   7.036   1.361  10.249  0.7588 -0.0464 -0.7703
  684MOL0     C92214   7.164   1.380  10.306 -0.2945 -0.0527 -0.0583
  684MOL0     C92215   7.194   1.522  10.344 -0.9407 -1.2358  0.0466
  684MOL0     C92216   7.344   1.543  10.358  1.0896 -0.3886 -0.6375
  684MOL0     C92217   7.387   1.670  10.280  0.3186 -0.1406 -0.4905
  684MOL0     C92218   7.529   1.696  10.303  0.6259  0.7581 -0.2684
  684MOL0     C92219   7.594   1.798  10.203  0.0040 -0.1400  0.2900
  684MOL0     C92220   7.733   1.828  10.256  0.5473  0.2037 -0.4517
  684MOL0     C92221   7.826   1.718  10.199 -0.2986  0.2025 -0.0591
  684MOL0     N92222   7.960   1.703  10.259 -0.0005 -0.4531 -0.0353
  684MOL0     C92223   8.035   1.805  10.308  0.5187 -0.1131 -0.9646
  684MOL0     C92224   8.156   1.749  10.356  1.0299  0.4542 -0.1874
  684MOL0     C92225   8.268   1.819  10.426  0.5517  0.7238 -0.0969
  684MOL0     C92226   8.392   1.777  10.357  0.4576  0.0637 -0.0530
  684MOL0     C92227   8.526   1.843  10.397 -0.2455  1.0807 -0.2499
  684MOL0     C92228   8.545   1.852  10.548  0.2632  0.8162  0.0023
  684MOL0     O92229   8.569   1.713  10.581  0.5999  0.1648 -0.3437
  684MOL0     C92230   8.558   1.674  10.712 -1.0429 -0.0504  0.0567
  684MOL0     C92231   8.574   1.766  10.813  0.5055  0.1976 -0.7418
  684MOL0     C92232   8.578   1.727  10.947  0.1559  0.2768 -0.5497
  684MOL0     C92233   8.574   1.592  10.980  0.4181  0.9861  0.2278
  684MOL0     C92234   8.576   1.548  11.121  0.1755  0.8738  0.2897
  684MOL0     O92235   8.649   1.630  11.211 -0.1861  0.4225  0.0957
  684MOL0     C92236   8.688   1.580  11.335 -0.0208  0.4327 -0.0069
  684MOL0     C92237   8.691   1.663  11.454 -0.7805  0.8823  0.1490
  684MOL0     C92238   8.732   1.626  11.583  0.2008  0.6890  0.9657
  684MOL0     C92239   8.758   1.491  11.608 -0.6848 -0.2455  0.0170
  684MOL0     O92240   8.825   1.446  11.726 -0.1919  0.0410  0.0819
  684MOL0     C92241   8.892   1.319  11.722  0.4121  0.7239 -0.1187
  684MOL0     C92242   8.972   1.295  11.847  0.2010 -0.2186 -0.0491
  684MOL0     C92243   9.082   1.398  11.860 -0.9280 -0.8979  1.1866
  684MOL0     C92244   9.164   1.377  11.989 -0.1754  0.9351  0.5887
  684MOL0     C92245   9.269   1.489  12.025  0.9557  0.5544 -0.3981
  684MOL0     C92246   9.390   1.479  11.939  0.1006 -0.6756  0.0214
  684MOL0     C92247   9.490   1.591  11.972 -0.4102  0.4330  0.0016
  684MOL0     C92248   9.631   1.589  11.897 -0.3710 -0.2700 -0.4823
  684MOL0    Cl92249   9.740   1.699  11.999 -0.5593 -0.3258  0.2388
  684MOL0     C92250   8.749   1.402  11.494 -0.4348 -0.0211  0.0045
  684MOL0     C92251   8.709   1.441  11.364 -1.6068 -0.1176  1.0017
  684MOL0     O92252   8.514   1.448  11.158  0.1397 -0.6818 -0.0499
  684MOL0     C92253   8.557   1.493  10.879  0.0955 -0.4275 -0.1808
  684MOL0     C92254   8.547   1.533  10.744  0.3534 -0.0155 -0.7001
  684MOL0     N92255   8.151   1.610  10.331 -0.6440 -1.1397  0.2789
  684MOL0     N92256   8.034   1.585  10.281 -0.0445  0.5749 -0.0361
  684MOL0     C92257   7.052   1.119  10.265 -0.2890  0.0651 -0.1813
  684MOL0     C92258   6.994   0.995  10.286  0.7483  1.0801  0.1996
  684MOL0     C92259   6.746   0.625  10.368 -0.1022  0.2655  0.6393
  684MOL0     C92260   6.612   0.658  10.405 -0.0889 -0.3715 -0.6854
  684MOL0     C92261   6.518   0.563  10.448  0.0426  0.9594  0.5554
  684MOL0     C92262   6.562   0.431  10.466 -0.7589  0.1022  0.2466
  684MOL0     O92263   6.477   0.338  10.513  0.1670  0.6372  0.4282
  684MOL0     C92264   6.392   0.274  10.421 -0.6960  0.6225 -0.0010
  684MOL0     C92265   6.310   0.170  10.505  0.1263  0.0331  0.1133
  684MOL0     C92266   6.212   0.095  10.419 -0.6593 -0.0645  0.4425
  684MOL0     C92267   6.110  -0.001  10.482  0.4677  0.6783 -0.3718
  684MOL0     C92268   5.990   0.068  10.538 -0.3024 -0.3938  0.9426
  684MOL0     C92269   5.900   0.120  10.594  0.8397 -0.2304 -0.4185
  684MOL0     C92270   6.686   0.389  10.421 -0.1987 -0.7698 -0.7961
  684MOL0     C92271   6.782   0.483  10.367  0.0034 -0.3430  0.3863
  684MOL0     C92272   6.893   0.418  10.281 -0.2516  0.2506 -0.4325
  684MOL0     H92273   6.669   1.100  10.314 -0.3367 -0.7653 -0.6908
  684MOL0     H92274   6.781   1.313  10.256  1.3807  1.0295  0.9697
  684MOL0     H92275   7.179   1.316  10.393 -1.3438 -1.3204 -0.7621
  684MOL0     H92276   7.233   1.354  10.225 -0.2350 -0.4645  0.1234
  684MOL0     H92277   7.135   1.549  10.432  0.1841  4.1156 -0.4977
  684MOL0     H92278   7.161   1.583  10.259  0.3468  0.9260  1.0019
  684MOL0     H92279   7.396   1.458  10.312  2.1121 -0.8368  1.2593
  684MOL0     H92280   7.382   1.546  10.460 -2.5524 -3.0826  1.0157
  684MOL0     H92281   7.363   1.654  10.175 -0.1845 -2.4188 -0.0711
  684MOL0     H92282   7.336   1.754  10.328 -0.5724 -1.8443  1.7248
  684MOL0     H92283   7.540   1.726  10.408 -0.8783  1.2985 -0.2321
  684MOL0     H92284   7.584   1.605  10.280  1.9306  0.9657  1.8101
  684MOL0     H92285   7.601   1.761  10.100 -2.7480 -0.5542  0.1809
  684MOL0     H92286   7.529   1.886  10.205  1.4882  1.1303 -2.2161
  684MOL0     H92287   7.728   1.837  10.365 -5.6591 -0.4311 -0.3369
  684MOL0     H92288   7.745   1.931  10.221  0.7540  0.0092 -0.9803
  684MOL0     H92289   7.786   1.617  10.199  2.1173 -0.8166  0.0901
  684MOL0     H92290   7.827   1.748  10.094 -0.4771 -1.0558 -0.4356
  684MOL0     H92291   7.994   1.905  10.315  1.5682  0.4162 -1.9858
  684MOL0     H92292   8.261   1.928  10.417 -1.5752  0.5089 -2.1863
  684MOL0     H92293   8.268   1.787  10.530  0.4824 -0.4294 -0.4374
  684MOL0     H92294   8.407   1.671  10.335  1.7437  0.2957 -0.3441
  684MOL0     H92295   8.380   1.802  10.251  0.0190 -0.9999 -0.2691
  684MOL0     H92296   8.513   1.940  10.347 -1.9802  0.0742 -1.9001
  684MOL0     H92297   8.614   1.801  10.348 -1.3714  0.3598 -1.7535
  684MOL0     H92298   8.460   1.888  10.606  0.3039 -0.2280  0.7349
  684MOL0     H92299   8.638   1.896  10.582 -0.1208 -0.7320  3.4185
  684MOL0     H92300   8.567   1.873  10.796 -2.1353  0.7414  2.5112
  684MOL0     H92301   8.587   1.807  11.020 -1.4261  0.7036 -0.7698
  684MOL0     H92302   8.666   1.768  11.454  1.3887  1.4530 -0.1775
  684MOL0     H92303   8.728   1.705  11.658 -0.0336 -0.6033  2.3757
  684MOL0     H92304   8.814   1.242  11.720  2.3776 -1.4940  1.3565
  684MOL0     H92305   8.947   1.304  11.629  0.9946 -2.1466  0.5743
  684MOL0     H92306   8.898   1.298  11.928 -1.1613 -0.3195 -1.2579
  684MOL0     H92307   9.022   1.198  11.855 -2.2546 -1.4237  2.3211
  684MOL0     H92308   9.149   1.385  11.775  0.0280 -0.5619  1.8710
  684MOL0     H92309   9.029   1.493  11.854  0.9875  0.0922 -1.6287
  684MOL0     H92310   9.214   1.280  11.977  0.5060  1.2646  0.6770
  684MOL0     H92311   9.098   1.378  12.076 -0.2053 -1.9077  0.7018
  684MOL0     H92312   9.305   1.493  12.128 -0.3046  0.8736  0.0465
  684MOL0     H92313   9.221   1.586  12.012 -0.8300  0.0568  1.7548
  684MOL0     H92314   9.446   1.385  11.941  1.0284 -0.1567 -0.5427
  684MOL0     H92315   9.347   1.496  11.840 -1.9400  1.5618  1.1888
  684MOL0     H92316   9.502   1.585  12.080 -3.9794  1.1420  0.5601
  684MOL0     H92317   9.454   1.693  11.950 -0.1647  0.5550  0.1601
  684MOL0     H92318   9.674   1.489  11.888  0.0219 -0.1389 -0.0605
  684MOL0     H92319   9.615   1.625  11.795  0.2569  1.0837 -0.1255
  684MOL0     H92320   8.774   1.297  11.497  1.9688  0.5060  1.6695
  684MOL0     H92321   8.712   1.368  11.284  1.3053 -1.0777  1.8425
  684MOL0     H92322   8.533   1.391  10.905 -4.1849  0.5976  0.6888
  684MOL0     H92323   8.530   1.462  10.663  0.7318 -0.2285 -0.5966
  684MOL0     H92324   7.158   1.111  10.244  0.3459  0.8968  2.2721
  684MOL0     H92325   7.075   0.923  10.279  1.3742  1.8926 -2.1404
  684MOL0     H92326   6.579   0.760  10.422 -1.4187 -1.0587  1.1632
  684MOL0     H92327   6.422   0.593  10.487  0.2005 -0.0292  1.7755
  684MOL0     H92328   6.444   0.226  10.338 -0.8063  0.1838  0.1810
  684MOL0     H92329   6.325   0.342  10.368  0.6860  1.3199 -0.9246
  684MOL0     H92330   6.252   0.218  10.583 -0.1357 -0.6469  0.3447
  684MOL0     H92331   6.384   0.104  10.550 -0.2147  1.0638  2.2870
  684MOL0     H92332   6.265   0.038  10.342  0.0486  0.1352  0.7735
  684MOL0     H92333   6.162   0.170  10.358 -0.8528 -1.0936 -0.7066
  684MOL0     H92334   6.077  -0.081  10.415 -0.8413 -0.0265  1.0511
  684MOL0     H92335   6.167  -0.053  10.560  4.1512  2.6435 -1.5135
  684MOL0     H92336   5.817   0.158  10.650  0.4512 -2.3211  0.5124
  684MOL0     H92337   6.706   0.283  10.432 -0.9551 -0.6538  3.7473
  684MOL0     H92338   6.905   0.318  10.325 -1.0443  1.5798  3.2050
  684MOL0     H92339   6.864   0.433  10.177 -1.9757  3.0812  0.3616
  684MOL0     H92340   6.993   0.462  10.287 -0.8269  1.3992  2.1514
  685MOL0     O92341   9.528  11.294   5.742  0.3203  0.2407  0.1535
  685MOL0     C92342   9.503  11.409   5.760  0.2142 -0.7041 -0.6526
  685MOL0     O92343   9.393  11.479   5.713  0.2434 -0.3479  0.1256
  685MOL0     C92344   9.293  11.403   5.651  0.2166  1.0013 -0.2072
  685MOL0     C92345   9.266  11.442   5.516 -0.2488  0.8755  0.2407
  685MOL0     C92346   9.188  11.358   5.443 -0.4881  0.5289 -0.0877
  685MOL0     C92347   9.124  11.250   5.503 -0.0207  0.3358  0.1879
  685MOL0     O92348   9.055  11.151   5.428 -0.4914 -0.0173 -0.2567
  685MOL0     C92349   8.965  11.206   5.333  0.6454 -0.1741  0.6425
  685MOL0     C92350   8.986  11.166   5.189 -0.9567  0.2535 -0.4568
  685MOL0     C92351   8.966  11.013   5.163 -0.1029  0.0847  0.5654
  685MOL0     C92352   8.947  10.952   5.021  0.4481 -0.9182 -0.1517
  685MOL0     C92353   8.903  10.805   5.013  0.5645  0.1689  1.2577
  685MOL0     C92354   9.003  10.706   5.075 -0.4181 -0.2047  0.3835
  685MOL0     C92355   9.141  10.707   5.008  0.6256 -0.5819 -0.0639
  685MOL0     C92356   9.229  10.616   5.087 -0.6673  0.0077 -0.4294
  685MOL0     N92357   9.369  10.617   5.034 -0.8271  0.2015  0.0937
  685MOL0     C92358   9.467  10.695   5.090 -0.3314  0.1276 -0.3673
  685MOL0     C92359   9.585  10.657   5.047 -0.4491  0.1043 -0.0323
  685MOL0     C92360   9.714  10.725   5.089  0.2840 -0.0084  0.4282
  685MOL0     C92361   9.835  10.657   5.027 -0.2517  0.2015 -0.0716
  685MOL0     C92362   9.969  10.722   5.077 -0.2456 -0.0543  0.5980
  685MOL0     C92363   9.978  10.865   5.049  0.4233 -0.2368  0.1043
  685MOL0     O92364  10.108  10.920   5.077 -0.2047  0.9555  0.1830
  685MOL0     C92365  10.129  11.051   5.061  0.5087 -0.5346 -0.9247
  685MOL0     C92366  10.259  11.102   5.082  0.0079  0.3307  0.5871
  685MOL0     C92367  10.289  11.236   5.060 -0.1126 -0.0131  0.1764
  685MOL0     C92368  10.182  11.323   5.032 -0.2571 -0.1054  0.5465
  685MOL0     C92369  10.207  11.468   5.049  0.2262  0.2614 -0.7189
  685MOL0     O92370  10.342  11.507   5.064  1.1533  0.4858  0.1705
  685MOL0     C92371  10.359  11.642   5.076  1.0592 -0.7657 -0.3611
  685MOL0     C92372  10.300  11.720   5.175 -0.0965  1.7320 -0.4559
  685MOL0     C92373  10.303  11.864   5.175 -0.0785 -0.4490 -0.6265
  685MOL0     C92374  10.375  11.932   5.073 -0.6909 -1.1053 -0.5458
  685MOL0     O92375  10.392  12.071   5.063  0.2205  0.5252  0.5750
  685MOL0     C92376  10.333  12.146   5.169 -0.1908 -0.2233 -0.4292
  685MOL0     C92377  10.428  12.170   5.293  0.0240  0.0786 -0.4886
  685MOL0     C92378  10.565  12.213   5.254  0.0910 -0.1048  0.6139
  685MOL0     C92379  10.657  12.250   5.377  0.0470 -0.5650 -0.7076
  685MOL0     C92380  10.798  12.284   5.337  0.2447  0.1236  0.2132
  685MOL0     C92381  10.897  12.302   5.446 -0.7774  0.2841  0.6848
  685MOL0     C92382  10.871  12.396   5.557 -0.1318  0.9910 -0.2566
  685MOL0     C92383  10.883  12.548   5.511 -0.8861  0.4742 -0.5224
  685MOL0    Cl92384  10.834  12.648   5.641 -0.0047  0.2030 -0.3254
  685MOL0     C92385  10.428  11.857   4.969  0.3447  0.2888  0.2492
  685MOL0     C92386  10.425  11.715   4.979  0.5141 -1.4740 -0.4743
  685MOL0     O92387  10.108  11.542   5.032  0.2200 -0.0004 -0.4635
  685MOL0     C92388  10.054  11.284   5.022  0.8308  0.8782 -0.3577
  685MOL0     C92389  10.018  11.148   5.047 -0.6748  0.2912  0.8602
  685MOL0     N92390   9.567  10.552   4.969 -0.6123  0.2066 -0.7928
  685MOL0     N92391   9.437  10.525   4.966 -1.2847 -0.5999  0.7013
  685MOL0     C92392   9.141  11.225   5.638  0.5699 -0.0789  0.0723
  685MOL0     C92393   9.220  11.304   5.715  0.3653 -0.0772  0.2865
  685MOL0     C92394   9.601  11.495   5.838  0.4176 -0.0149  0.2007
  685MOL0     C92395   9.583  11.634   5.828  1.0286 -0.1684  0.3556
  685MOL0     C92396   9.678  11.728   5.885  0.0533  0.7139 -0.1901
  685MOL0     C92397   9.802  11.689   5.941  0.1143  0.9187  0.2609
  685MOL0     O92398   9.895  11.775   5.990 -0.2363  0.3121 -0.3071
  685MOL0     C92399  10.016  11.725   6.035  0.2652  0.8141  0.2406
  685MOL0     C92400  10.094  11.839   6.096 -0.1064 -0.0678  0.5758
  685MOL0     C92401  10.017  11.912   6.206 -0.0825 -0.5426 -0.9102
  685MOL0     C92402  10.117  12.016   6.279  1.0770 -0.4680  0.4421
  685MOL0     C92403  10.168  12.113   6.188  0.2309 -0.0079 -0.3746
  685MOL0     C92404  10.244  12.181   6.126  0.4438 -0.1038 -0.0258
  685MOL0     C92405   9.820  11.543   5.938  0.2538 -0.5387 -0.2552
  685MOL0     C92406   9.726  11.456   5.890  0.4085 -0.0665 -1.1852
  685MOL0     C92407   9.778  11.313   5.888 -0.4820  0.5071  0.6575
  685MOL0     H92408   9.330  11.516   5.468  1.5931  0.8049  2.3975
  685MOL0     H92409   9.181  11.389   5.339 -1.0720  1.0888  0.1155
  685MOL0     H92410   8.869  11.170   5.371  0.4242 -0.6280 -0.3319
  685MOL0     H92411   8.948  11.314   5.335 -0.5218 -0.2989 -0.7830
  685MOL0     H92412   9.089  11.196   5.169 -0.8851  0.5242  0.3047
  685MOL0     H92413   8.919  11.218   5.119  0.2612  0.4688 -1.5088
  685MOL0     H92414   8.869  11.003   5.213  1.1793 -0.2209  3.1166
  685MOL0     H92415   9.028  10.949   5.226  0.4624  0.7993  0.7475
  685MOL0     H92416   8.874  11.018   4.973  1.4266 -0.6727 -1.3464
  685MOL0     H92417   9.045  10.962   4.974  1.6028  0.0446  2.2828
  685MOL0     H92418   8.804  10.790   5.057  0.6435 -0.9194  1.0992
  685MOL0     H92419   8.884  10.779   4.909 -2.3113 -1.9079  2.1898
  685MOL0     H92420   9.007  10.709   5.184 -0.8321 -3.1088  0.5507
  685MOL0     H92421   8.969  10.605   5.050 -0.0887  0.4896 -3.6537
  685MOL0     H92422   9.196  10.801   5.007  0.9771 -0.7579  1.1277
  685MOL0     H92423   9.125  10.656   4.913 -1.7689  3.2513 -1.9744
  685MOL0     H92424   9.236  10.657   5.188 -1.3475 -1.6551  0.3258
  685MOL0     H92425   9.196  10.512   5.085 -0.5073 -0.1826  2.3713
  685MOL0     H92426   9.455  10.781   5.154  1.5862  1.4736 -1.7279
  685MOL0     H92427   9.710  10.829   5.056  1.4277  1.4547  4.3716
  685MOL0     H92428   9.735  10.724   5.196  2.0833 -4.6335  0.3041
  685MOL0     H92429   9.828  10.554   5.063 -3.2023  0.6468  0.9022
  685MOL0     H92430   9.834  10.662   4.918 -0.5707  0.4763 -0.0586
  685MOL0     H92431  10.052  10.666   5.032 -1.5959 -0.5238 -1.4878
  685MOL0     H92432   9.979  10.715   5.185  1.4715  1.1560  0.5570
  685MOL0     H92433   9.916  10.923   5.117  3.0888  2.9278  0.0848
  685MOL0     H92434   9.953  10.889   4.945 -1.6000  1.5646  0.9464
  685MOL0     H92435  10.336  11.030   5.106 -0.0595  0.8555  2.5720
  685MOL0     H92436  10.389  11.276   5.070 -0.0976 -0.4743  2.3634
  685MOL0     H92437  10.243  11.664   5.249 -0.6251  1.5577 -0.9946
  685MOL0     H92438  10.260  11.909   5.264  0.5523 -0.9790 -0.0478
  685MOL0     H92439  10.309  12.242   5.122 -2.1360 -0.3822  0.1589
  685MOL0     H92440  10.240  12.103   5.206 -2.0179  2.7675 -1.2316
  685MOL0     H92441  10.391  12.239   5.369  0.5400 -0.4978  0.3015
  685MOL0     H92442  10.441  12.079   5.353  0.1793 -0.5875 -1.4941
  685MOL0     H92443  10.617  12.143   5.188  0.2997 -0.5315  1.2266
  685MOL0     H92444  10.553  12.314   5.213  1.0429  0.4642  1.7071
  685MOL0     H92445  10.644  12.165   5.444  1.5107 -1.3681 -1.3843
  685MOL0     H92446  10.624  12.337   5.435  0.5482 -1.7123  1.4237
  685MOL0     H92447  10.799  12.369   5.269  3.7757 -0.9290 -1.2563
  685MOL0     H92448  10.843  12.205   5.276  0.4030  1.8278 -2.0224
  685MOL0     H92449  10.919  12.202   5.484 -0.8524 -0.1752 -0.4370
  685MOL0     H92450  10.996  12.331   5.408 -0.5039  1.4719  2.2120
  685MOL0     H92451  10.947  12.383   5.634 -1.8961  1.8889  1.7229
  685MOL0     H92452  10.770  12.378   5.596 -0.5092 -1.0439 -2.0332
  685MOL0     H92453  10.992  12.554   5.499 -0.5184  0.2831  2.1476
  685MOL0     H92454  10.839  12.577   5.416 -1.5096  1.5474  0.0733
  685MOL0     H92455  10.485  11.905   4.890 -1.9871  5.0027  1.0929
  685MOL0     H92456  10.477  11.645   4.914  2.1275 -2.0920  1.3733
  685MOL0     H92457   9.977  11.358   5.003  0.1907  1.8413  4.7126
  685MOL0     H92458   9.915  11.118   5.034 -0.1739 -0.4572 -2.2058
  685MOL0     H92459   9.079  11.143   5.674  2.1025 -1.9969 -1.4774
  685MOL0     H92460   9.239  11.271   5.817  1.3151  0.1791  0.1988
  685MOL0     H92461   9.498  11.678   5.777  1.4190 -0.9267 -0.9923
  685MOL0     H92462   9.653  11.834   5.886 -3.2782  0.0240  0.7002
  685MOL0     H92463  10.062  11.668   5.953 -0.8427  3.6628 -2.5544
  685MOL0     H92464   9.995  11.645   6.106 -3.7403  1.2046 -0.2929
  685MOL0     H92465  10.088  11.910   6.013  0.5774 -3.6943 -2.8531
  685MOL0     H92466  10.199  11.815   6.119  1.1097  2.3049 -1.8468
  685MOL0     H92467   9.969  11.849   6.282  1.0195 -2.9481 -2.1171
  685MOL0     H92468   9.928  11.956   6.161 -3.0323 -3.3793  1.6448
  685MOL0     H92469  10.059  12.064   6.358 -2.2036 -0.8699 -1.5239
  685MOL0     H92470  10.194  11.962   6.335  0.2251  1.0504  3.3103
  685MOL0     H92471  10.307  12.238   6.060 -2.7499 -0.3748 -3.6491
  685MOL0     H92472   9.913  11.511   5.982 -0.7624  0.6755  3.0580
  685MOL0     H92473   9.704  11.246   5.933  1.0601 -0.6232  1.6024
  685MOL0     H92474   9.788  11.289   5.782  0.7596 -0.8020  1.0312
  685MOL0     H92475   9.873  11.289   5.936 -0.2846 -0.8516 -0.3740
  686MOL0     O92476   5.229   3.862   8.076  0.7049  0.7106  0.0188
  686MOL0     C92477   5.151   3.769   8.096  0.7131 -0.3282 -0.3525
  686MOL0     O92478   5.098   3.680   8.004  0.4491 -0.5899  0.0955
  686MOL0     C92479   5.138   3.664   7.871  0.4601 -0.1158 -1.1549
  686MOL0     C92480   5.237   3.745   7.805  0.0863 -0.3968  0.3217
  686MOL0     C92481   5.248   3.722   7.665 -0.4732 -0.7676 -0.5083
  686MOL0     C92482   5.178   3.614   7.596 -0.0533 -0.0841  0.8948
  686MOL0     O92483   5.178   3.596   7.456  0.6191  0.3179 -0.6427
  686MOL0     C92484   5.258   3.694   7.381  0.4269  0.4587 -0.2277
  686MOL0     C92485   5.267   3.663   7.222  0.6478 -0.5909 -0.8306
  686MOL0     C92486   5.323   3.786   7.141  0.1614  0.1767 -0.6072
  686MOL0     C92487   5.357   3.755   6.998  0.1977  0.1953  0.2948
  686MOL0     C92488   5.439   3.860   6.937 -0.4644 -0.0307  0.1156
  686MOL0     C92489   5.475   3.826   6.791  0.0533  0.5084 -0.0016
  686MOL0     C92490   5.600   3.737   6.776 -0.1660 -0.8435  0.1286
  686MOL0     C92491   5.585   3.592   6.814 -1.0705  0.2005  0.1370
  686MOL0     N92492   5.699   3.512   6.767  0.2969  0.0372  0.3952
  686MOL0     C92493   5.737   3.502   6.636  0.7910 -0.0625 -0.4354
  686MOL0     C92494   5.840   3.411   6.639  0.5147 -0.0912  0.3560
  686MOL0     C92495   5.900   3.338   6.534 -0.6082 -0.4077  0.4279
  686MOL0     C92496   5.806   3.242   6.464  0.0444 -0.6058  0.2018
  686MOL0     C92497   5.734   3.145   6.562  0.1518 -0.2499  0.8382
  686MOL0     C92498   5.677   3.018   6.506 -0.0251  0.0298  0.3588
  686MOL0     O92499   5.597   3.032   6.384 -0.3102  0.1938  0.3163
  686MOL0     C92500   5.467   3.094   6.378  1.7910  0.0846  1.1635
  686MOL0     C92501   5.410   3.122   6.248  0.5673  0.4585 -0.5787
  686MOL0     C92502   5.290   3.199   6.233  0.2088  1.0492 -0.8742
  686MOL0     C92503   5.229   3.265   6.346 -0.4878 -0.2601  0.3258
  686MOL0     C92504   5.091   3.335   6.351  0.8996 -0.4462 -0.2977
  686MOL0     O92505   5.039   3.355   6.240  0.2343 -0.2413  0.6616
  686MOL0     C92506   4.916   3.429   6.237 -0.0347  0.2776 -0.2231
  686MOL0     C92507   4.799   3.359   6.227 -0.3115 -0.3809  1.5557
  686MOL0     C92508   4.678   3.422   6.202  1.0047  0.3753 -0.1697
  686MOL0     C92509   4.668   3.555   6.204 -0.4520 -0.2000  0.3925
  686MOL0     O92510   4.546   3.607   6.186  0.0540 -0.2086 -0.5858
  686MOL0     C92511   4.545   3.647   6.046  0.0618 -0.1044  0.0520
  686MOL0     C92512   4.394   3.670   6.013 -0.3300  0.1410 -0.1584
  686MOL0     C92513   4.320   3.541   6.017  0.3751  0.2411  0.1817
  686MOL0     C92514   4.175   3.553   6.042 -0.1878 -0.2355 -0.1824
  686MOL0     C92515   4.101   3.616   5.922 -0.1910 -0.4555  0.2817
  686MOL0     C92516   3.948   3.590   5.939 -0.8061 -0.4234 -0.2768
  686MOL0     C92517   3.863   3.644   5.820 -0.7570 -0.7501  0.2858
  686MOL0     C92518   3.729   3.565   5.788 -0.3212 -0.6818 -0.3083
  686MOL0    Cl92519   3.603   3.636   5.893 -0.0977 -0.3457 -0.3800
  686MOL0     C92520   4.789   3.643   6.217 -0.6323 -0.8000  0.1421
  686MOL0     C92521   4.907   3.568   6.240 -0.0290 -0.8063 -0.0577
  686MOL0     O92522   5.038   3.359   6.457 -0.4047 -0.1978 -0.2054
  686MOL0     C92523   5.294   3.255   6.470 -0.7009  1.1353  0.3200
  686MOL0     C92524   5.404   3.163   6.483 -0.5115 -0.0262  0.1914
  686MOL0     N92525   5.856   3.366   6.766 -0.3415 -0.2769 -0.4198
  686MOL0     N92526   5.784   3.435   6.845  0.2362  0.0438 -0.1529
  686MOL0     C92527   5.070   3.560   7.670 -1.3897  0.9919 -0.3169
  686MOL0     C92528   5.056   3.581   7.802  0.4955 -0.4013  0.4406
  686MOL0     C92529   5.105   3.749   8.241 -0.7116 -0.2597  0.2761
  686MOL0     C92530   5.054   3.864   8.310  0.0804  0.8971 -0.1423
  686MOL0     C92531   5.010   3.846   8.439 -0.2755 -0.1303 -0.1874
  686MOL0     C92532   4.990   3.723   8.504 -0.7810  0.7050  0.6725
  686MOL0     O92533   4.943   3.721   8.635 -0.2054 -0.0069 -0.0218
  686MOL0     C92534   4.903   3.599   8.690 -0.7909  0.7346  0.7373
  686MOL0     C92535   4.896   3.623   8.840  0.7380 -0.9886  0.5005
  686MOL0     C92536   5.032   3.638   8.910  1.0839 -0.5501 -0.0002
  686MOL0     C92537   5.024   3.674   9.051 -0.2170  0.9050  0.7394
  686MOL0     C92538   4.954   3.581   9.144 -0.1980  0.6287  0.5949
  686MOL0     C92539   4.907   3.484   9.203 -0.6299  0.0805 -0.4460
  686MOL0     C92540   5.012   3.604   8.421  0.0018  0.7545  0.6357
  686MOL0     C92541   5.077   3.620   8.300 -0.7245 -0.3423  0.7425
  686MOL0     C92542   5.096   3.501   8.212 -0.4373  0.4161  1.1988
  686MOL0     H92543   5.298   3.816   7.860 -2.5903  2.7955 -0.5170
  686MOL0     H92544   5.321   3.785   7.616  0.3758 -1.0692  0.3153
  686MOL0     H92545   5.199   3.786   7.386  3.4480  2.6174 -1.2477
  686MOL0     H92546   5.361   3.703   7.418 -0.3286  2.2355  1.6164
  686MOL0     H92547   5.165   3.651   7.186 -0.9468 -0.3498  3.1020
  686MOL0     H92548   5.327   3.572   7.220  0.3567 -0.8547  1.0266
  686MOL0     H92549   5.421   3.819   7.177  0.0870 -0.0444 -0.1927
  686MOL0     H92550   5.255   3.869   7.161  0.8201  0.7743 -0.7896
  686MOL0     H92551   5.423   3.668   6.991  0.6995  0.6996 -3.9591
  686MOL0     H92552   5.269   3.744   6.934  0.2733  0.7130  0.0974
  686MOL0     H92553   5.388   3.957   6.934 -0.7840 -0.1793  0.6183
  686MOL0     H92554   5.530   3.871   6.996 -0.2475 -4.6043  1.0401
  686MOL0     H92555   5.397   3.768   6.741  0.2761  1.2825 -1.3213
  686MOL0     H92556   5.484   3.918   6.732 -3.1956  0.2483 -1.1409
  686MOL0     H92557   5.685   3.781   6.829  0.5653 -1.1443 -0.7839
  686MOL0     H92558   5.629   3.745   6.671 -3.0506 -0.1710 -0.7000
  686MOL0     H92559   5.596   3.594   6.923 -0.5728 -2.6620  0.2323
  686MOL0     H92560   5.490   3.542   6.791 -2.2743  0.7757  3.3457
  686MOL0     H92561   5.697   3.544   6.545  2.7346  0.5927 -1.0370
  686MOL0     H92562   5.944   3.419   6.474  0.8461 -1.0262  0.6172
  686MOL0     H92563   5.985   3.282   6.574 -0.3375 -0.3584 -0.0712
  686MOL0     H92564   5.733   3.301   6.407  2.6232  1.1853 -1.4825
  686MOL0     H92565   5.859   3.181   6.390 -1.3700  0.1088 -1.4770
  686MOL0     H92566   5.649   3.186   6.617 -0.9528 -3.9813  2.2299
  686MOL0     H92567   5.803   3.101   6.634  2.0926 -1.2082 -1.4604
  686MOL0     H92568   5.612   2.973   6.581 -1.5136  1.7356  0.1499
  686MOL0     H92569   5.761   2.951   6.485 -1.0674 -1.0628 -0.4520
  686MOL0     H92570   5.463   3.079   6.164  4.3014  0.7257  1.4589
  686MOL0     H92571   5.244   3.200   6.135 -1.3826  1.9329 -0.1630
  686MOL0     H92572   4.807   3.252   6.235  1.1131 -0.3474  0.9083
  686MOL0     H92573   4.591   3.357   6.196  0.2747  1.3968 -0.7869
  686MOL0     H92574   4.601   3.739   6.028  1.0128 -1.0078 -2.0278
  686MOL0     H92575   4.587   3.567   5.984  0.3144 -1.2633  1.6710
  686MOL0     H92576   4.355   3.746   6.081  1.8296  0.9304  0.2791
  686MOL0     H92577   4.388   3.713   5.913  6.2399  0.8776 -0.7093
  686MOL0     H92578   4.340   3.485   5.925  2.2117 -1.1481  1.3536
  686MOL0     H92579   4.347   3.482   6.105 -1.5406 -3.5296 -1.5278
  686MOL0     H92580   4.150   3.603   6.136 -1.3106  1.3325 -1.2417
  686MOL0     H92581   4.136   3.453   6.059 -1.9352  0.6952  1.6373
  686MOL0     H92582   4.133   3.568   5.829  0.3135 -1.3639  0.9118
  686MOL0     H92583   4.117   3.723   5.934  1.7344 -0.5190 -1.2966
  686MOL0     H92584   3.926   3.483   5.937 -4.0629  0.1411 -1.7170
  686MOL0     H92585   3.922   3.645   6.030 -1.1798  3.0538 -2.3041
  686MOL0     H92586   3.925   3.623   5.732 -2.5868 -0.2009 -1.1908
  686MOL0     H92587   3.851   3.752   5.831 -1.3407 -0.2533 -3.7847
  686MOL0     H92588   3.703   3.587   5.684  1.7900 -0.1728 -0.7780
  686MOL0     H92589   3.742   3.459   5.813 -2.2145 -1.1736 -1.2530
  686MOL0     H92590   4.790   3.750   6.235 -3.6013 -1.1379  3.5257
  686MOL0     H92591   4.994   3.629   6.259 -1.1086  0.4556  1.1316
  686MOL0     H92592   5.255   3.305   6.558 -0.8220 -1.5611  1.9198
  686MOL0     H92593   5.443   3.149   6.583 -1.7003 -1.2328  0.5212
  686MOL0     H92594   4.999   3.495   7.620  0.7870 -3.1473  1.4654
  686MOL0     H92595   4.972   3.544   7.859 -0.1536 -0.9349 -0.8225
  686MOL0     H92596   5.059   3.961   8.262  3.3175  1.0559  0.3290
  686MOL0     H92597   4.987   3.929   8.507  1.3717 -0.0017  0.2449
  686MOL0     H92598   4.975   3.519   8.670 -2.1989  0.1349 -2.7398
  686MOL0     H92599   4.810   3.565   8.643  0.0106 -1.4867  0.6120
  686MOL0     H92600   4.848   3.533   8.880 -2.8937  1.6776  2.6218
  686MOL0     H92601   4.836   3.709   8.868  2.0336  0.9421 -2.2008
  686MOL0     H92602   5.098   3.714   8.867  0.9520 -1.7210 -2.4597
  686MOL0     H92603   5.083   3.542   8.895  1.0145 -0.4933 -0.6527
  686MOL0     H92604   5.129   3.676   9.083 -0.2334 -1.7923  1.1491
  686MOL0     H92605   4.979   3.773   9.064 -0.6191  0.8624 -0.2583
  686MOL0     H92606   4.847   3.405   9.243 -0.7163  1.6524  2.8298
  686MOL0     H92607   4.992   3.502   8.452 -0.2064  1.6097  3.6146
  686MOL0     H92608   5.072   3.402   8.252 -2.4244 -0.6859 -2.2587
  686MOL0     H92609   5.018   3.507   8.135  0.6628 -0.5793 -0.0376
  686MOL0     H92610   5.189   3.505   8.154 -0.5558 -1.2792  0.8468
  687MOL0     O92611   5.229  10.148   3.864 -0.1984 -0.3784  0.8704
  687MOL0     C92612   5.188  10.268   3.861  0.3285 -0.3312  0.0535
  687MOL0     O92613   5.275  10.367   3.887  0.6257 -0.3958 -0.1414
  687MOL0     C92614   5.404  10.341   3.897 -0.6424  0.0889  0.4031
  687MOL0     C92615   5.479  10.294   3.774  0.7052 -0.4460 -0.7753
  687MOL0     C92616   5.610  10.245   3.776  0.6795  0.4960  0.4697
  687MOL0     C92617   5.672  10.244   3.899  0.1400  0.4517  0.2948
  687MOL0     O92618   5.785  10.177   3.924  0.0262 -0.7515 -0.4855
  687MOL0     C92619   5.781  10.027   3.894  0.3281  1.4183 -0.3637
  687MOL0     C92620   5.910   9.971   3.951 -0.4195  0.6398  0.7162
  687MOL0     C92621   5.902   9.898   4.090  1.9108 -0.2795  0.4568
  687MOL0     C92622   5.837   9.992   4.202 -0.6140 -0.5059 -0.4359
  687MOL0     C92623   5.837   9.922   4.336 -0.5301  0.0684  0.5768
  687MOL0     C92624   5.766   9.780   4.336  1.0482  0.0971 -0.9137
  687MOL0     C92625   5.744   9.740   4.479 -0.0354 -0.0229  0.0168
  687MOL0     C92626   5.749   9.594   4.492  0.1844  0.3128 -0.2885
  687MOL0     N92627   5.750   9.545   4.623 -0.8174 -0.0635  0.5111
  687MOL0     C92628   5.857   9.490   4.682 -0.5235 -0.3646  0.2939
  687MOL0     C92629   5.821   9.467   4.807 -0.3462  0.7779 -0.3010
  687MOL0     C92630   5.907   9.390   4.912  0.6854 -0.0983  0.4467
  687MOL0     C92631   5.925   9.244   4.877 -0.3608  0.1373  0.3010
  687MOL0     C92632   5.894   9.141   4.989  0.4348 -0.4687 -0.5041
  687MOL0     C92633   5.954   9.009   4.950  0.0850  0.2464 -0.2437
  687MOL0     O92634   5.912   8.963   4.817 -0.3815  0.4661  0.6641
  687MOL0     C92635   5.941   8.832   4.776 -0.4297 -0.0766  0.7576
  687MOL0     C92636   5.939   8.808   4.636 -0.2820 -0.6325  0.0142
  687MOL0     C92637   5.967   8.683   4.585 -0.7067 -0.4342 -0.7729
  687MOL0     C92638   5.992   8.573   4.677 -0.1617 -0.6946  0.4703
  687MOL0     C92639   6.035   8.451   4.625 -0.9750  1.2957 -0.0460
  687MOL0     O92640   6.045   8.431   4.490  0.2097 -0.1981 -0.6640
  687MOL0     C92641   6.083   8.310   4.438  0.0989  0.0920 -0.2247
  687MOL0     C92642   5.995   8.206   4.427 -0.6214  0.5153  0.1280
  687MOL0     C92643   6.020   8.093   4.349  0.3362 -0.0954 -0.0181
  687MOL0     C92644   6.138   8.100   4.265  0.0773  0.1650 -0.1214
  687MOL0     O92645   6.164   8.004   4.169  0.1122 -0.0858 -0.8663
  687MOL0     C92646   6.051   7.944   4.095  0.2302  0.8003 -0.3032
  687MOL0     C92647   6.114   7.865   3.979  0.1240 -0.5534 -0.9121
  687MOL0     C92648   6.031   7.860   3.851 -0.2577 -0.0472  0.5644
  687MOL0     C92649   6.086   7.772   3.742 -0.0472 -1.0924  1.1115
  687MOL0     C92650   5.988   7.743   3.626  0.0231 -0.3131 -0.6431
  687MOL0     C92651   6.054   7.647   3.517  0.3354  0.8352 -0.0796
  687MOL0     C92652   5.944   7.598   3.426  0.5543  0.1422  1.5346
  687MOL0     C92653   5.988   7.491   3.318  0.2895 -0.5452  0.0930
  687MOL0    Cl92654   5.858   7.431   3.222  0.4956  0.2141  0.3412
  687MOL0     C92655   6.231   8.199   4.277 -0.2196  0.1719 -0.1165
  687MOL0     C92656   6.199   8.308   4.363 -0.2061  0.5879 -0.7154
  687MOL0     O92657   6.041   8.362   4.711  1.2800 -1.2494 -0.0422
  687MOL0     C92658   5.994   8.597   4.814  0.0963 -0.7804 -0.1593
  687MOL0     C92659   5.962   8.726   4.861 -0.9325  0.2836  0.2792
  687MOL0     N92660   5.687   9.501   4.814 -0.2708 -0.8420  0.0471
  687MOL0     N92661   5.641   9.557   4.702 -0.0944  0.4343 -0.0530
  687MOL0     C92662   5.605  10.315   4.013  0.3963  0.5662  0.0822
  687MOL0     C92663   5.472  10.358   4.007 -0.0595  0.3250  0.0509
  687MOL0     C92664   5.050  10.294   3.806  0.6759 -0.0519  0.0861
  687MOL0     C92665   4.957  10.184   3.828  0.1354 -0.0345 -0.4430
  687MOL0     C92666   4.818  10.193   3.778 -0.2801 -0.3644 -0.1800
  687MOL0     C92667   4.778  10.311   3.708  0.2562 -0.4669  0.4871
  687MOL0     O92668   4.656  10.339   3.655  0.2717 -0.1439  0.3137
  687MOL0     C92669   4.552  10.242   3.658 -0.6132 -0.4990 -0.5919
  687MOL0     C92670   4.446  10.248   3.553 -0.2054  0.1794  0.5980
  687MOL0     C92671   4.476  10.229   3.407 -0.1766  0.3732  0.4474
  687MOL0     C92672   4.359  10.218   3.309  0.2011  0.4394  0.2727
  687MOL0     C92673   4.405  10.188   3.164  0.4179  0.1060  0.2458
  687MOL0     C92674   4.445  10.174   3.042 -0.1306  0.3812 -0.8416
  687MOL0     C92675   4.866  10.418   3.695 -0.3909  0.4976 -1.0213
  687MOL0     C92676   4.998  10.411   3.748  0.9819  0.1356 -0.7053
  687MOL0     C92677   5.085  10.534   3.732  0.1950 -0.9583 -0.1152
  687MOL0     H92678   5.430  10.300   3.677 -2.1205  0.4851  0.5879
  687MOL0     H92679   5.664  10.207   3.690 -0.1419 -3.1261  1.4078
  687MOL0     H92680   5.696   9.978   3.942  0.4956  0.3374 -1.1193
  687MOL0     H92681   5.779   9.995   3.790 -1.7829  1.7171 -0.4577
  687MOL0     H92682   5.979  10.056   3.957  0.1091  0.1184  2.2937
  687MOL0     H92683   5.949   9.891   3.887  2.6597  2.5487  0.0025
  687MOL0     H92684   5.999   9.862   4.126  2.3175 -0.8653 -1.1450
  687MOL0     H92685   5.841   9.810   4.068  0.0767  1.3803 -1.6428
  687MOL0     H92686   5.899  10.080   4.219  1.7551 -1.8478 -1.6440
  687MOL0     H92687   5.732  10.020   4.192 -1.0415 -0.0758  3.6797
  687MOL0     H92688   5.937   9.905   4.377 -0.8419 -1.4782  0.7360
  687MOL0     H92689   5.784   9.983   4.409  2.2824  1.4143  1.6507
  687MOL0     H92690   5.665   9.791   4.294  0.9906 -0.0879 -0.8253
  687MOL0     H92691   5.826   9.699   4.294  1.1552 -2.1338  3.0269
  687MOL0     H92692   5.656   9.782   4.528  0.9426  2.1572  0.0077
  687MOL0     H92693   5.818   9.782   4.548 -0.4065 -2.5644  2.1469
  687MOL0     H92694   5.665   9.541   4.448 -1.6990  0.5129  2.7902
  687MOL0     H92695   5.839   9.569   4.434 -0.2326  3.3054 -2.4481
  687MOL0     H92696   5.949   9.452   4.638  1.7705 -1.4751  5.3915
  687MOL0     H92697   6.010   9.426   4.917  1.1916 -1.4907  0.6816
  687MOL0     H92698   5.865   9.409   5.011  3.4850  0.4055  1.6507
  687MOL0     H92699   5.860   9.220   4.793 -0.2558 -0.4501  0.3877
  687MOL0     H92700   6.032   9.236   4.856 -0.3556 -1.4340  0.8514
  687MOL0     H92701   5.785   9.138   5.001  0.4688  1.5149  0.7775
  687MOL0     H92702   5.948   9.182   5.075  0.4323  0.8533 -1.1123
  687MOL0     H92703   5.910   8.949   5.030 -2.7386  0.8451 -1.2010
  687MOL0     H92704   6.063   9.007   4.958  0.0796 -2.2483 -0.0122
  687MOL0     H92705   5.930   8.890   4.566 -0.7659 -1.3954 -0.8296
  687MOL0     H92706   5.982   8.684   4.477 -0.6905  1.4928 -0.7966
  687MOL0     H92707   5.900   8.226   4.475 -2.2791 -1.5412 -2.0198
  687MOL0     H92708   5.946   8.014   4.340  2.7523 -2.8788  2.5074
  687MOL0     H92709   5.995   7.869   4.152 -1.8137  2.3599 -0.1258
  687MOL0     H92710   5.986   8.025   4.063 -1.6630 -0.3295  0.4987
  687MOL0     H92711   6.211   7.909   3.956 -0.1098 -0.1216 -1.0713
  687MOL0     H92712   6.144   7.765   4.014  2.2025  0.2637 -0.1931
  687MOL0     H92713   5.933   7.817   3.875 -1.2417  0.5567 -1.9858
  687MOL0     H92714   6.011   7.961   3.814 -0.4552  0.0756  1.0066
  687MOL0     H92715   6.112   7.672   3.776  0.9750 -1.1053  0.3468
  687MOL0     H92716   6.182   7.808   3.704 -2.0954  2.8794 -1.0331
  687MOL0     H92717   5.956   7.834   3.575  2.0223  2.1698  2.1996
  687MOL0     H92718   5.895   7.698   3.660 -1.3998  0.7295 -2.8743
  687MOL0     H92719   6.131   7.693   3.455 -0.7087  0.6451 -1.5571
  687MOL0     H92720   6.108   7.568   3.571  4.5082  2.6014 -1.3234
  687MOL0     H92721   5.902   7.687   3.378 -0.3876  0.5863  3.0810
  687MOL0     H92722   5.876   7.549   3.497 -1.2879 -1.0051 -0.8721
  687MOL0     H92723   6.051   7.553   3.253 -0.6140  2.0933  1.5804
  687MOL0     H92724   6.040   7.406   3.362 -2.9772 -3.0382 -0.4788
  687MOL0     H92725   6.323   8.198   4.220  0.3366 -0.1504  0.7569
  687MOL0     H92726   6.256   8.401   4.359  1.2454 -0.2117  0.2332
  687MOL0     H92727   6.031   8.527   4.888 -1.2656  1.6966  3.0941
  687MOL0     H92728   5.969   8.745   4.967  4.2767  2.6228 -0.1574
  687MOL0     H92729   5.645  10.301   4.113  1.1565  0.9308 -0.1593
  687MOL0     H92730   5.418  10.407   4.087 -0.2370  1.7408 -0.9064
  687MOL0     H92731   4.994  10.110   3.898  0.8019  0.2271 -0.5117
  687MOL0     H92732   4.743  10.118   3.798  0.8523 -1.4525  0.1236
  687MOL0     H92733   4.512  10.255   3.759  2.9055  2.7146  0.5989
  687MOL0     H92734   4.598  10.142   3.659 -0.0556 -0.2444  1.0841
  687MOL0     H92735   4.399  10.347   3.559 -0.5578  0.0352  0.2354
  687MOL0     H92736   4.375  10.165   3.563 -0.0211 -1.1163 -5.4097
  687MOL0     H92737   4.539  10.140   3.402  1.8800  1.7793 -0.4583
  687MOL0     H92738   4.544  10.308   3.373  0.3668 -0.4877 -0.5148
  687MOL0     H92739   4.296  10.129   3.325 -1.6850  1.6598 -0.0879
  687MOL0     H92740   4.298  10.308   3.321 -0.0996  0.0604  1.8777
  687MOL0     H92741   4.486  10.156   2.945  0.9453 -0.6302 -0.2316
  687MOL0     H92742   4.825  10.505   3.643  0.1789  0.2478 -1.9156
  687MOL0     H92743   5.159  10.505   3.656  1.0802 -2.3231  1.2211
  687MOL0     H92744   5.028  10.620   3.696 -2.4911 -2.7475 -0.4062
  687MOL0     H92745   5.139  10.565   3.822  3.3439 -1.7906 -1.5920
  688MOL0     O92746   2.053   4.876   3.394  0.0411  0.2666 -0.3306
  688MOL0     C92747   2.153   4.914   3.336 -0.8554  0.5191 -1.2340
  688MOL0     O92748   2.272   4.849   3.312 -0.5252  0.2604 -0.0358
  688MOL0     C92749   2.277   4.716   3.330  0.2069 -0.3056  0.8902
  688MOL0     C92750   2.395   4.663   3.352 -0.1306 -0.3343  0.0840
  688MOL0     C92751   2.417   4.526   3.353  0.2860 -0.0675  0.2440
  688MOL0     C92752   2.310   4.436   3.338  0.0753 -0.1105 -0.2164
  688MOL0     O92753   2.342   4.302   3.365  0.3664 -0.0959  0.0201
  688MOL0     C92754   2.247   4.207   3.324 -0.3931 -0.2691  0.2903
  688MOL0     C92755   2.215   4.204   3.179 -0.3014  0.2610  0.2561
  688MOL0     C92756   2.123   4.090   3.130 -0.3087 -0.6883 -1.0584
  688MOL0     C92757   1.995   4.074   3.223 -0.6455  0.7233 -0.5312
  688MOL0     C92758   1.910   3.954   3.172 -1.1357  0.2633 -0.8031
  688MOL0     C92759   1.774   3.961   3.243 -0.8355  0.0045  0.8360
  688MOL0     C92760   1.658   3.885   3.171  0.3300 -0.6620  0.1746
  688MOL0     C92761   1.694   3.740   3.127 -0.5925  0.3225 -0.0531
  688MOL0     N92762   1.620   3.698   3.006 -0.3587 -0.5971  0.1939
  688MOL0     C92763   1.484   3.723   2.981 -0.5687 -0.8626 -0.2066
  688MOL0     C92764   1.460   3.655   2.867  0.0693  1.1771 -0.2039
  688MOL0     C92765   1.334   3.645   2.785  0.3241  0.2139 -0.6359
  688MOL0     C92766   1.233   3.545   2.840  0.1840 -0.2189  0.3261
  688MOL0     C92767   1.116   3.526   2.748  0.2048 -0.0701  0.4997
  688MOL0     C92768   0.985   3.570   2.805  0.4062  0.1643 -0.0915
  688MOL0     O92769   0.882   3.492   2.739 -0.1937 -0.2881 -0.6837
  688MOL0     C92770   0.859   3.485   2.608  0.1375  0.2048  0.7058
  688MOL0     C92771   0.883   3.362   2.550  0.8020 -0.0274  0.3012
  688MOL0     C92772   0.866   3.342   2.413  0.3649 -0.2154  0.1980
  688MOL0     C92773   0.815   3.448   2.334 -1.0621  1.0585  0.3167
  688MOL0     C92774   0.788   3.422   2.189  0.1377 -0.1073 -0.1340
  688MOL0     O92775   0.689   3.486   2.141 -0.2820  0.6825  0.0871
  688MOL0     C92776   0.667   3.494   2.012  0.5965  0.2900  1.2365
  688MOL0     C92777   0.549   3.577   1.988 -0.7299 -0.3789  0.5312
  688MOL0     C92778   0.513   3.625   1.861 -1.3038  0.3297 -0.2581
  688MOL0     C92779   0.582   3.583   1.745  0.1315  0.1201 -0.2357
  688MOL0     O92780   0.527   3.610   1.628 -0.5770 -0.5977  0.0743
  688MOL0     C92781   0.451   3.734   1.602 -0.5587 -0.6392  0.1497
  688MOL0     C92782   0.305   3.702   1.572 -0.6161 -0.0870 -0.4095
  688MOL0     C92783   0.268   3.768   1.439  0.2333  1.3146  0.0581
  688MOL0     C92784   0.127   3.721   1.394 -0.0759  0.6738 -0.1223
  688MOL0     C92785   0.058   3.800   1.280 -0.2684 -0.4220  0.3400
  688MOL0     C92786   0.051   3.950   1.302 -0.2322  0.4876 -0.2742
  688MOL0     C92787  -0.034   4.026   1.207 -0.2663  0.5367  0.9423
  688MOL0     C92788  -0.179   4.003   1.229  0.3744  0.1905  0.9681
  688MOL0    Cl92789  -0.244   3.850   1.165  0.2776 -0.7065 -0.2206
  688MOL0     C92790   0.699   3.499   1.759 -0.6864 -0.8838 -0.4492
  688MOL0     C92791   0.735   3.458   1.896 -0.4157  0.3549 -0.1745
  688MOL0     O92792   0.868   3.354   2.131  0.0831 -0.4486 -0.0647
  688MOL0     C92793   0.801   3.579   2.389 -0.7682 -0.5034 -0.4365
  688MOL0     C92794   0.813   3.596   2.529  0.0537  0.0375  0.1272
  688MOL0     N92795   1.583   3.597   2.817  0.3361  1.7902  0.0752
  688MOL0     N92796   1.673   3.635   2.903  0.4618  0.5503  0.9450
  688MOL0     C92797   2.186   4.488   3.313 -0.3410  0.7702  0.1290
  688MOL0     C92798   2.170   4.627   3.299  0.2083 -1.3495  0.4038
  688MOL0     C92799   2.148   5.052   3.276 -0.9131  0.1164  0.0575
  688MOL0     C92800   2.234   5.079   3.165  0.1943 -0.1678 -0.5476
  688MOL0     C92801   2.225   5.203   3.097  0.7271  1.0450  0.8751
  688MOL0     C92802   2.127   5.290   3.127  0.3775 -0.6803 -0.6054
  688MOL0     O92803   2.110   5.412   3.067 -0.7552  0.2282  0.1923
  688MOL0     C92804   2.075   5.398   2.934  0.4212 -0.3352  0.5129
  688MOL0     C92805   2.058   5.532   2.872  0.2068 -0.7455 -0.1416
  688MOL0     C92806   2.189   5.600   2.824 -0.4097  1.1528  0.0213
  688MOL0     C92807   2.155   5.757   2.817 -0.5234  0.4310  0.6713
  688MOL0     C92808   2.123   5.817   2.948 -0.1123  0.0856  0.2393
  688MOL0     C92809   2.103   5.856   3.062  0.2393 -1.0402 -0.0208
  688MOL0     C92810   2.046   5.264   3.231 -0.3744 -0.0482 -0.5275
  688MOL0     C92811   2.064   5.160   3.313 -0.1007 -0.4001  0.5159
  688MOL0     C92812   1.994   5.150   3.440  1.1229 -0.0860 -0.8717
  688MOL0     H92813   2.490   4.715   3.369 -0.6722  1.6304 -2.3610
  688MOL0     H92814   2.519   4.490   3.365  0.8714  0.9583 -1.3427
  688MOL0     H92815   2.283   4.108   3.355  0.7853  0.0363 -0.0667
  688MOL0     H92816   2.159   4.222   3.388 -0.6391  1.3695 -0.3790
  688MOL0     H92817   2.309   4.196   3.123  0.8019 -0.1334  2.0612
  688MOL0     H92818   2.168   4.299   3.148  0.7285  0.5646 -0.4443
  688MOL0     H92819   2.180   3.997   3.132  0.9016  0.0250 -1.2498
  688MOL0     H92820   2.110   4.119   3.025 -1.4419 -0.3438 -0.8381
  688MOL0     H92821   2.030   4.064   3.326 -1.0172  0.8263 -0.3953
  688MOL0     H92822   1.935   4.165   3.224 -0.6099  0.8320  3.1354
  688MOL0     H92823   1.890   3.967   3.066 -1.9525 -0.4690 -0.7487
  688MOL0     H92824   1.957   3.859   3.198 -3.5200 -0.5375  0.9119
  688MOL0     H92825   1.785   3.925   3.346 -2.3554 -1.1893  0.6185
  688MOL0     H92826   1.737   4.063   3.254 -1.4830 -0.2846  1.4485
  688MOL0     H92827   1.635   3.938   3.079  2.3951 -1.6702 -0.9818
  688MOL0     H92828   1.567   3.876   3.231 -1.5714 -1.0248 -2.5972
  688MOL0     H92829   1.801   3.733   3.107 -1.1092 -1.5227 -2.7061
  688MOL0     H92830   1.670   3.670   3.207  0.4728  1.1706  1.0441
  688MOL0     H92831   1.418   3.773   3.051  2.3888  3.0936  0.1300
  688MOL0     H92832   1.286   3.744   2.781 -2.1945 -0.9566 -1.5317
  688MOL0     H92833   1.365   3.619   2.683  1.6617 -0.7013 -0.0310
  688MOL0     H92834   1.285   3.450   2.856  0.5945  0.2894  2.2297
  688MOL0     H92835   1.203   3.573   2.941 -1.9926 -3.3048  0.6794
  688MOL0     H92836   1.114   3.419   2.724  0.5778  0.5926 -3.0925
  688MOL0     H92837   1.132   3.572   2.650  2.8940  0.2787  1.0228
  688MOL0     H92838   0.983   3.678   2.784  5.9318  1.5107  3.7899
  688MOL0     H92839   0.984   3.547   2.912  1.4550 -1.1153 -0.3315
  688MOL0     H92840   0.924   3.279   2.606  2.1231  0.3535 -0.0721
  688MOL0     H92841   0.874   3.246   2.363 -0.9201  0.0845 -0.6346
  688MOL0     H92842   0.495   3.615   2.073 -1.9563  0.5552 -0.6189
  688MOL0     H92843   0.422   3.683   1.868 -0.4408  2.1461 -2.8417
  688MOL0     H92844   0.464   3.813   1.677 -1.6368  0.1441 -0.4457
  688MOL0     H92845   0.492   3.789   1.517 -1.1215  2.1262  1.5162
  688MOL0     H92846   0.281   3.595   1.575  0.7914 -0.3951  1.9533
  688MOL0     H92847   0.244   3.753   1.647  0.3455  0.3193  0.1140
  688MOL0     H92848   0.260   3.875   1.463 -1.2668  1.4359 -0.8977
  688MOL0     H92849   0.330   3.736   1.354 -0.9091 -0.4354 -0.1494
  688MOL0     H92850   0.054   3.724   1.476 -1.8773 -1.4938 -1.4962
  688MOL0     H92851   0.144   3.618   1.361  1.0294  0.5115  0.9122
  688MOL0     H92852  -0.043   3.758   1.284  0.1266 -1.3367  3.4855
  688MOL0     H92853   0.101   3.775   1.183  0.6539  1.2366  0.2893
  688MOL0     H92854   0.014   3.965   1.403 -3.8251  0.9127 -1.5080
  688MOL0     H92855   0.154   3.984   1.286 -0.0373  0.0263 -0.0166
  688MOL0     H92856  -0.017   3.991   1.104  0.7155 -1.8986  1.8658
  688MOL0     H92857  -0.008   4.132   1.213 -1.1321  0.6790  2.6182
  688MOL0     H92858  -0.208   4.002   1.335 -0.6544  0.2398  0.6913
  688MOL0     H92859  -0.233   4.085   1.181  0.3087  0.7620  1.9819
  688MOL0     H92860   0.759   3.468   1.675 -1.3397 -0.0399 -1.2538
  688MOL0     H92861   0.833   3.410   1.902  0.4351  1.9756 -0.3632
  688MOL0     H92862   0.769   3.665   2.331 -2.8314 -0.0815  1.2112
  688MOL0     H92863   0.794   3.699   2.557 -4.1925  0.5841 -3.6600
  688MOL0     H92864   2.088   4.442   3.305 -0.5546  1.0692  0.9519
  688MOL0     H92865   2.070   4.659   3.272  1.1770  1.0188 -0.6434
  688MOL0     H92866   2.299   4.996   3.142 -1.3527 -1.0745 -1.8390
  688MOL0     H92867   2.292   5.234   3.016 -0.0554 -1.2703 -0.7485
  688MOL0     H92868   1.984   5.343   2.910 -1.2848  2.3393  0.5110
  688MOL0     H92869   2.158   5.357   2.875  0.9491 -1.0410  1.7046
  688MOL0     H92870   1.999   5.596   2.939 -1.1285 -3.9294  1.9267
  688MOL0     H92871   1.987   5.513   2.791 -0.4641  0.3616  0.1508
  688MOL0     H92872   2.225   5.585   2.722 -3.5695  2.3577 -1.4187
  688MOL0     H92873   2.275   5.580   2.889  0.6287  0.2620 -1.5566
  688MOL0     H92874   2.238   5.807   2.766 -1.1826  0.5759 -0.2697
  688MOL0     H92875   2.073   5.770   2.746 -2.0643  0.6970  2.4402
  688MOL0     H92876   2.108   5.912   3.153  0.8050 -1.2008  0.0538
  688MOL0     H92877   1.972   5.335   3.269 -0.1793 -1.2791  2.3693
  688MOL0     H92878   1.898   5.098   3.431  1.3947 -0.6077 -0.7598
  688MOL0     H92879   2.055   5.087   3.505 -0.1244 -1.8084 -1.3079
  688MOL0     H92880   1.960   5.236   3.500  0.0373 -0.7111 -0.5586
  689MOL0     O92881   6.589   1.722   8.461  0.1344  0.0661 -0.5061
  689MOL0     C92882   6.524   1.616   8.460 -0.0929 -0.1402  0.2359
  689MOL0     O92883   6.462   1.564   8.345  0.0643  0.0038 -0.5789
  689MOL0     C92884   6.519   1.617   8.229 -0.0834  0.6235 -0.5692
  689MOL0     C92885   6.631   1.558   8.169 -0.3710  0.2835 -0.2893
  689MOL0     C92886   6.674   1.614   8.049  0.1064  0.7956  0.0036
  689MOL0     C92887   6.626   1.732   7.997 -0.3489 -0.2567 -0.3187
  689MOL0     O92888   6.686   1.788   7.884 -0.4268  0.8277  0.2658
  689MOL0     C92889   6.688   1.927   7.875 -0.2445  0.0021 -0.0541
  689MOL0     C92890   6.819   1.980   7.821 -0.1857 -0.0937 -0.3950
  689MOL0     C92891   6.845   1.946   7.673  0.1111  0.5600 -0.3733
  689MOL0     C92892   6.955   1.843   7.652 -0.3067 -0.2363  0.0008
  689MOL0     C92893   6.942   1.738   7.544  0.1900 -0.7013  1.5556
  689MOL0     C92894   6.843   1.632   7.579  0.9074 -0.2648  0.2751
  689MOL0     C92895   6.815   1.539   7.465 -0.2921  0.2075 -0.8645
  689MOL0     C92896   6.728   1.418   7.501  0.4583 -0.2884 -0.4714
  689MOL0     N92897   6.673   1.330   7.391  0.3853 -1.4151 -0.5871
  689MOL0     C92898   6.666   1.191   7.406  0.1112 -0.8234 -0.2192
  689MOL0     C92899   6.601   1.153   7.293 -0.0398 -0.2276  0.0564
  689MOL0     C92900   6.565   1.019   7.243 -0.0439 -0.1174 -0.3066
  689MOL0     C92901   6.426   0.978   7.290  0.5834 -0.4697 -0.5632
  689MOL0     C92902   6.382   0.831   7.278 -0.0426 -0.0302  0.6004
  689MOL0     C92903   6.367   0.787   7.129  0.0616 -0.2416  0.0086
  689MOL0     O92904   6.230   0.755   7.097  0.3305 -0.8673 -0.4239
  689MOL0     C92905   6.199   0.768   6.960  0.5719 -0.1478 -0.1759
  689MOL0     C92906   6.069   0.801   6.938  0.3638  0.1742 -0.9091
  689MOL0     C92907   6.017   0.815   6.810  0.1403  0.6341  0.2055
  689MOL0     C92908   6.098   0.785   6.695  0.4522  0.6970  0.9111
  689MOL0     C92909   6.039   0.782   6.557 -0.4748 -0.7394 -0.7254
  689MOL0     O92910   5.905   0.796   6.540 -0.8268 -0.1174  0.7175
  689MOL0     C92911   5.862   0.761   6.413 -0.1687 -0.6624  0.0435
  689MOL0     C92912   5.838   0.867   6.313  0.7321 -0.3716  0.1046
  689MOL0     C92913   5.790   0.827   6.191 -0.4810  0.6115  0.8321
  689MOL0     C92914   5.770   0.697   6.157 -0.5630 -0.3811 -0.3846
  689MOL0     O92915   5.722   0.655   6.035 -0.0277  0.2293  0.5420
  689MOL0     C92916   5.639   0.744   5.957 -0.1449  0.5594 -0.2356
  689MOL0     C92917   5.708   0.816   5.842 -0.2286  0.4616 -0.2099
  689MOL0     C92918   5.801   0.724   5.768 -0.7368  0.1556  0.8753
  689MOL0     C92919   5.892   0.812   5.675 -0.5976 -0.8603  0.4030
  689MOL0     C92920   5.996   0.715   5.601  0.3902 -0.0037 -0.0502
  689MOL0     C92921   6.124   0.775   5.550 -0.3053  0.2747  0.5297
  689MOL0     C92922   6.208   0.870   5.640 -0.1733 -0.5505 -0.1558
  689MOL0     C92923   6.343   0.921   5.580 -0.1506  0.2886 -0.0192
  689MOL0    Cl92924   6.297   1.029   5.447  0.1045 -0.5301  0.0739
  689MOL0     C92925   5.807   0.598   6.244 -0.2390  0.6631 -0.9706
  689MOL0     C92926   5.855   0.627   6.368 -0.5910  0.2307 -0.6308
  689MOL0     O92927   6.122   0.757   6.471  0.5264  0.1677 -0.0273
  689MOL0     C92928   6.233   0.766   6.718  0.3568  0.4174 -0.1452
  689MOL0     C92929   6.283   0.747   6.850  0.0683  0.2471 -0.1283
  689MOL0     N92930   6.586   1.261   7.205  0.7102  0.2843 -0.0164
  689MOL0     N92931   6.626   1.373   7.266 -0.2152 -0.6048 -0.2692
  689MOL0     C92932   6.512   1.788   8.050  0.2219  0.1810  0.1249
  689MOL0     C92933   6.450   1.718   8.163  0.0156  0.0590 -0.8751
  689MOL0     C92934   6.532   1.526   8.583 -0.4115  0.7647 -0.4273
  689MOL0     C92935   6.653   1.527   8.655  0.0884  0.2454  0.4478
  689MOL0     C92936   6.661   1.436   8.758 -0.2964 -0.1020  0.0308
  689MOL0     C92937   6.572   1.332   8.780 -0.3220  0.0852 -0.1448
  689MOL0     O92938   6.614   1.230   8.866  0.6046  0.1699  0.1933
  689MOL0     C92939   6.675   1.129   8.783  0.1733 -0.2138  0.1308
  689MOL0     C92940   6.745   1.023   8.858 -0.6337  0.1328  0.1244
  689MOL0     C92941   6.802   0.913   8.764 -0.0093 -0.2097  0.8979
  689MOL0     C92942   6.714   0.792   8.723  0.3699 -0.0612 -1.2054
  689MOL0     C92943   6.768   0.712   8.620  0.4248 -0.0169 -0.8396
  689MOL0     C92944   6.797   0.664   8.511 -0.0795 -0.7113 -0.0524
  689MOL0     C92945   6.460   1.331   8.708  0.0184  0.3865 -0.3028
  689MOL0     C92946   6.443   1.420   8.608  1.0060  0.2994  0.3460
  689MOL0     C92947   6.298   1.425   8.541  0.3633  0.2303 -0.0776
  689MOL0     H92948   6.677   1.468   8.207 -1.6783 -0.1567  0.3121
  689MOL0     H92949   6.765   1.579   8.001  0.4387 -0.6737  1.6269
  689MOL0     H92950   6.607   1.960   7.809 -1.7216 -2.7992  0.1758
  689MOL0     H92951   6.683   1.972   7.975 -0.8133 -3.9846  1.9341
  689MOL0     H92952   6.905   1.948   7.882 -1.4057 -0.0059  1.4453
  689MOL0     H92953   6.817   2.089   7.828 -1.4820 -0.2111  1.7127
  689MOL0     H92954   6.884   2.034   7.620  0.5974  0.6519  0.1324
  689MOL0     H92955   6.745   1.920   7.636 -0.4935 -0.4723  1.8387
  689MOL0     H92956   7.049   1.897   7.637  0.5949 -2.0102 -1.1289
  689MOL0     H92957   6.962   1.788   7.746 -1.4874 -0.5723 -0.0903
  689MOL0     H92958   6.894   1.788   7.460 -4.1904 -0.9548  3.6125
  689MOL0     H92959   7.031   1.684   7.511 -0.6729 -1.9942  1.2499
  689MOL0     H92960   6.874   1.569   7.663 -4.1716 -0.7560  2.1150
  689MOL0     H92961   6.746   1.674   7.605  0.8572 -1.6691  2.6561
  689MOL0     H92962   6.911   1.496   7.433  0.0366  1.5727 -1.8301
  689MOL0     H92963   6.769   1.584   7.376 -2.7747 -1.2295 -0.4065
  689MOL0     H92964   6.790   1.354   7.564  1.9786  1.7089  0.1618
  689MOL0     H92965   6.634   1.447   7.550  0.8768 -1.5921  1.2262
  689MOL0     H92966   6.706   1.124   7.481  0.2767  1.1056  1.4821
  689MOL0     H92967   6.566   1.018   7.134  0.9632 -1.8864 -0.3343
  689MOL0     H92968   6.639   0.946   7.279 -0.8133 -1.0212 -0.5361
  689MOL0     H92969   6.424   1.005   7.396 -1.5459 -2.2344 -0.0877
  689MOL0     H92970   6.353   1.033   7.229 -0.9443 -3.3577 -1.5466
  689MOL0     H92971   6.286   0.798   7.319 -0.1752 -2.0407 -1.1590
  689MOL0     H92972   6.464   0.769   7.315 -0.9980 -0.3208  2.3515
  689MOL0     H92973   6.424   0.694   7.115  0.5948 -0.2282  1.8748
  689MOL0     H92974   6.405   0.874   7.074  1.4565 -1.0759 -0.3972
  689MOL0     H92975   5.994   0.819   7.013  0.3257  1.9653 -1.3220
  689MOL0     H92976   5.915   0.831   6.778  0.6227  0.6427 -1.4812
  689MOL0     H92977   5.856   0.970   6.343  0.1820 -0.7729  1.9540
  689MOL0     H92978   5.793   0.898   6.109 -0.0362 -0.1578  0.1643
  689MOL0     H92979   5.560   0.691   5.903  1.3924 -0.7354 -1.3034
  689MOL0     H92980   5.578   0.804   6.024 -0.7026  1.0126 -1.1276
  689MOL0     H92981   5.633   0.849   5.770  0.9706  1.8067 -0.9071
  689MOL0     H92982   5.763   0.898   5.889  0.2729 -1.7165  3.3787
  689MOL0     H92983   5.861   0.669   5.841 -2.5362 -4.7878 -0.9256
  689MOL0     H92984   5.755   0.648   5.704  1.6250 -0.4889 -0.1717
  689MOL0     H92985   5.950   0.877   5.741 -4.4037  1.2938  1.9718
  689MOL0     H92986   5.824   0.870   5.612 -0.9752  0.8324  2.2532
  689MOL0     H92987   5.938   0.658   5.527 -0.4551 -1.2914  1.5444
  689MOL0     H92988   6.034   0.645   5.675  1.1535  0.1144 -0.3202
  689MOL0     H92989   6.195   0.697   5.520  1.5693  0.5883  3.6871
  689MOL0     H92990   6.102   0.841   5.466  0.9194 -2.5971 -2.2302
  689MOL0     H92991   6.231   0.822   5.736 -3.7083  3.3534  3.0287
  689MOL0     H92992   6.140   0.954   5.657 -0.3911 -1.1637  2.3154
  689MOL0     H92993   6.397   0.963   5.665  0.3664 -3.9750  2.0555
  689MOL0     H92994   6.394   0.834   5.536 -0.5569  0.1337 -0.1816
  689MOL0     H92995   5.792   0.496   6.209  1.8900 -0.3439  0.7234
  689MOL0     H92996   5.902   0.550   6.429  0.4327  2.6478  1.8481
  689MOL0     H92997   6.303   0.743   6.638  1.1960  1.6705  0.1930
  689MOL0     H92998   6.383   0.708   6.868 -1.0090 -2.1310  1.1649
  689MOL0     H92999   6.471   1.880   8.011  1.1235  0.5286 -0.0207
  689MOL0     H93000   6.362   1.761   8.211 -0.1311 -3.1608  2.1890
  689MOL0     H93001   6.731   1.596   8.626  1.4753 -2.1586 -2.0727
  689MOL0     H93002   6.752   1.434   8.817 -0.6864 -1.1770  0.6343
  689MOL0     H93003   6.754   1.176   8.725  1.2377 -0.4835  1.3202
  689MOL0     H93004   6.605   1.084   8.711  0.5066 -1.7460  0.7315
  689MOL0     H93005   6.670   0.969   8.916  0.8108 -0.8791  1.1299
  689MOL0     H93006   6.828   1.069   8.912  0.1482  0.6671 -1.4580
  689MOL0     H93007   6.892   0.874   8.812 -0.4294 -0.7271  1.2777
  689MOL0     H93008   6.819   0.960   8.667 -3.7131 -0.7903 -0.1909
  689MOL0     H93009   6.722   0.733   8.814 -0.1597 -2.2580 -2.5027
  689MOL0     H93010   6.609   0.819   8.706 -0.7558 -3.2279  0.0292
  689MOL0     H93011   6.824   0.627   8.414 -2.0204 -3.3127  0.2972
  689MOL0     H93012   6.403   1.239   8.719  1.7050 -0.7222 -0.4302
  689MOL0     H93013   6.295   1.350   8.461 -2.4793  0.9570 -0.7338
  689MOL0     H93014   6.228   1.392   8.618  1.4845  0.9665  1.3062
  689MOL0     H93015   6.270   1.517   8.488  2.3374  0.4515 -0.8437
  690MOL0     O93016   4.534  11.394   0.678 -0.0230 -0.2574  0.2868
  690MOL0     C93017   4.515  11.510   0.646 -0.3369  0.8525  0.3200
  690MOL0     O93018   4.607  11.594   0.607 -0.2172  0.4779 -0.8604
  690MOL0     C93019   4.730  11.549   0.576 -0.2876 -0.1557  0.1572
  690MOL0     C93020   4.810  11.459   0.648 -0.4392  0.2259  0.1859
  690MOL0     C93021   4.944  11.437   0.607  0.3865 -0.4500 -0.5284
  690MOL0     C93022   4.987  11.497   0.487  0.3197 -0.6793 -0.0360
  690MOL0     O93023   5.111  11.479   0.429  0.3809  0.4155  0.5716
  690MOL0     C93024   5.190  11.368   0.459  0.7037  0.6023 -0.5784
  690MOL0     C93025   5.324  11.393   0.400  0.2480  1.2922 -0.0868
  690MOL0     C93026   5.438  11.303   0.447  0.1503  1.0247  0.0232
  690MOL0     C93027   5.574  11.320   0.369  0.4785 -0.5610 -0.8337
  690MOL0     C93028   5.693  11.229   0.401 -0.0166 -0.3783  0.0272
  690MOL0     C93029   5.706  11.122   0.308 -0.5817  0.1554  1.0849
  690MOL0     C93030   5.843  11.043   0.332  0.3959  0.8097 -0.5418
  690MOL0     C93031   5.900  11.032   0.482 -0.2278 -0.3393 -0.3279
  690MOL0     N93032   5.822  10.928   0.560  0.0015  0.5739  0.6778
  690MOL0     C93033   5.840  10.788   0.558  0.6071  0.0846 -0.6641
  690MOL0     C93034   5.736  10.747   0.639  0.0612 -0.0681 -0.0387
  690MOL0     C93035   5.732  10.606   0.674 -0.1652  0.0848 -0.2665
  690MOL0     C93036   5.703  10.588   0.824 -0.4772  0.9367  0.0095
  690MOL0     C93037   5.714  10.443   0.874 -0.1241 -0.3629  0.7696
  690MOL0     C93038   5.673  10.436   1.019 -0.3259  0.2982  0.8635
  690MOL0     O93039   5.559  10.350   1.029 -0.0158 -0.0753  0.3696
  690MOL0     C93040   5.510  10.330   1.154  0.9084 -0.2844  0.5613
  690MOL0     C93041   5.427  10.218   1.151  0.6323 -0.0837  0.0138
  690MOL0     C93042   5.376  10.176   1.276 -0.5697  0.0396  0.1227
  690MOL0     C93043   5.392  10.242   1.396  0.3708  0.1106 -0.0504
  690MOL0     C93044   5.327  10.194   1.521  0.2994 -0.4214 -0.5563
  690MOL0     O93045   5.322  10.284   1.627  0.4943  0.0816 -0.1660
  690MOL0     C93046   5.242  10.263   1.741 -1.0742 -0.8806 -0.1815
  690MOL0     C93047   5.313  10.262   1.859 -0.5068  0.5940 -0.0856
  690MOL0     C93048   5.247  10.238   1.981 -0.6720  1.1368  0.3920
  690MOL0     C93049   5.108  10.239   1.985  0.3953 -0.2845  0.2212
  690MOL0     O93050   5.043  10.204   2.100 -0.0481  0.0833  0.5006
  690MOL0     C93051   4.912  10.263   2.153 -0.4306 -0.1779  1.1891
  690MOL0     C93052   4.859  10.164   2.251  0.3581 -0.3847  0.0319
  690MOL0     C93053   4.950  10.143   2.372 -0.0423 -0.8964 -0.0766
  690MOL0     C93054   4.875  10.039   2.463 -0.4697  0.6626 -0.1986
  690MOL0     C93055   4.889  10.068   2.617 -0.6724 -0.0342  0.2638
  690MOL0     C93056   4.836   9.963   2.717  0.2569 -0.0459  0.0589
  690MOL0     C93057   4.839   9.818   2.666  0.7452 -0.8586  0.3978
  690MOL0     C93058   4.779   9.719   2.764  0.0504  0.8378 -0.4081
  690MOL0    Cl93059   4.785   9.558   2.688 -0.6654 -0.7550  0.4242
  690MOL0     C93060   5.040  10.245   1.865  0.2285 -0.5753 -0.4228
  690MOL0     C93061   5.102  10.256   1.744  0.3060  0.2810  0.9654
  690MOL0     O93062   5.286  10.082   1.527  0.4331  0.0944 -0.1375
  690MOL0     C93063   5.462  10.367   1.390  0.0329 -0.6673 -0.3058
  690MOL0     C93064   5.529  10.406   1.267  0.4782  0.7904 -0.2014
  690MOL0     N93065   5.659  10.856   0.679 -0.1861 -0.5589  0.5961
  690MOL0     N93066   5.705  10.965   0.632 -0.2897 -0.1149  0.1586
  690MOL0     C93067   4.904  11.584   0.420 -1.4701  0.4448  0.5928
  690MOL0     C93068   4.785  11.619   0.470 -0.1515  0.0201 -0.8845
  690MOL0     C93069   4.382  11.558   0.661  0.6204 -0.3998 -0.3218
  690MOL0     C93070   4.301  11.508   0.758  0.3029 -0.1474 -1.5533
  690MOL0     C93071   4.193  11.574   0.813  0.0733 -0.4184 -0.2998
  690MOL0     C93072   4.136  11.679   0.746  0.3050 -0.2272  1.7262
  690MOL0     O93073   4.014  11.736   0.766  0.0631  0.0865  0.7573
  690MOL0     C93074   3.921  11.672   0.849  0.6128  1.4783  0.6772
  690MOL0     C93075   3.787  11.744   0.869  0.4789 -0.1607  0.5199
  690MOL0     C93076   3.710  11.749   0.739  0.3493  0.0014  0.2418
  690MOL0     C93077   3.610  11.863   0.745 -0.5326 -0.2246  0.5591
  690MOL0     C93078   3.533  11.852   0.619 -0.0559 -0.6476  0.0002
  690MOL0     C93079   3.466  11.844   0.518  0.8763  0.4216 -0.1322
  690MOL0     C93080   4.211  11.723   0.628  0.2779 -0.3222 -0.5201
  690MOL0     C93081   4.325  11.660   0.582 -1.1160  0.1180  0.5935
  690MOL0     C93082   4.395  11.731   0.461  0.6341 -0.9842  1.1528
  690MOL0     H93083   4.777  11.397   0.731  1.3205 -1.3303 -0.2118
  690MOL0     H93084   4.997  11.364   0.668 -2.1972 -2.6216 -0.6746
  690MOL0     H93085   5.197  11.344   0.566  0.0666 -1.4392 -0.9489
  690MOL0     H93086   5.143  11.287   0.402 -0.1573 -0.4103  1.4737
  690MOL0     H93087   5.360  11.491   0.431  0.4257  0.6817  1.7793
  690MOL0     H93088   5.301  11.386   0.293 -2.5380 -0.0192  0.5083
  690MOL0     H93089   5.409  11.203   0.414  1.5634  0.6389 -0.0844
  690MOL0     H93090   5.443  11.302   0.556 -2.9046 -0.3521  0.2718
  690MOL0     H93091   5.540  11.307   0.265  0.8823 -0.1678 -1.0172
  690MOL0     H93092   5.603  11.425   0.372 -0.2080 -0.3827  1.3875
  690MOL0     H93093   5.782  11.292   0.406  0.4430 -0.6346 -2.9690
  690MOL0     H93094   5.659  11.182   0.494 -1.8980 -3.9973 -2.2463
  690MOL0     H93095   5.624  11.050   0.316 -0.7763  0.2426  0.0667
  690MOL0     H93096   5.710  11.156   0.204  1.7386 -2.0110  0.3696
  690MOL0     H93097   5.931  11.068   0.272  3.0552  0.0913  2.7146
  690MOL0     H93098   5.820  10.944   0.292  0.3087  0.2542  0.8306
  690MOL0     H93099   6.000  10.988   0.481  0.6008  1.4821 -0.9278
  690MOL0     H93100   5.906  11.125   0.539  0.9812 -0.8621  0.4505
  690MOL0     H93101   5.915  10.714   0.533  0.4320 -1.6548  3.1361
  690MOL0     H93102   5.657  10.559   0.610 -0.3180  0.9696 -0.7511
  690MOL0     H93103   5.829  10.555   0.660  0.0124 -0.1442  1.5297
  690MOL0     H93104   5.783  10.645   0.873  1.3583 -0.6176 -1.0255
  690MOL0     H93105   5.601  10.623   0.843 -0.2725  1.0290  0.9869
  690MOL0     H93106   5.815  10.402   0.873 -0.2186 -0.5920 -0.0683
  690MOL0     H93107   5.662  10.374   0.807  3.2679 -0.9954 -1.4681
  690MOL0     H93108   5.663  10.535   1.065  1.4036  0.8023  0.2263
  690MOL0     H93109   5.752  10.385   1.074  0.2765 -2.3517 -2.2095
  690MOL0     H93110   5.405  10.174   1.055  2.0050  0.0550 -0.3798
  690MOL0     H93111   5.315  10.087   1.284 -0.8221  0.3494  2.5715
  690MOL0     H93112   5.421  10.277   1.852 -0.2609 -1.4332 -1.1843
  690MOL0     H93113   5.306  10.229   2.071 -1.6490 -1.4101  0.8482
  690MOL0     H93114   4.926  10.366   2.185 -2.4349  1.1198 -1.6570
  690MOL0     H93115   4.841  10.271   2.070  1.2186  2.4188 -0.0772
  690MOL0     H93116   4.754  10.182   2.276  0.6066  2.1891 -0.5082
  690MOL0     H93117   4.868  10.066   2.204 -0.5248 -0.3289 -0.2671
  690MOL0     H93118   5.053  10.109   2.356  2.1584  3.5111  2.6546
  690MOL0     H93119   4.954  10.243   2.416 -0.6472 -0.8639 -0.0844
  690MOL0     H93120   4.908   9.940   2.431  0.7916  0.4861  1.5039
  690MOL0     H93121   4.767  10.047   2.445 -0.6402  0.9019  0.8655
  690MOL0     H93122   4.847  10.168   2.633 -1.4095  0.0533 -1.9421
  690MOL0     H93123   4.997  10.078   2.636 -0.8120  0.6051  0.7588
  690MOL0     H93124   4.900   9.977   2.805 -0.0036 -0.0270  0.2450
  690MOL0     H93125   4.731   9.978   2.742 -0.5097 -3.0857 -0.7955
  690MOL0     H93126   4.943   9.784   2.659  0.8520 -0.8218  1.5761
  690MOL0     H93127   4.792   9.805   2.568 -1.3352  4.6910  0.2871
  690MOL0     H93128   4.831   9.714   2.860  0.0026  0.2427 -0.4139
  690MOL0     H93129   4.674   9.746   2.779 -1.4340 -2.5019 -3.4084
  690MOL0     H93130   4.933  10.226   1.862  0.3000 -2.1281  2.8115
  690MOL0     H93131   5.042  10.270   1.655  1.1052  1.1468  0.5433
  690MOL0     H93132   5.468  10.423   1.483  0.6777  2.1871 -1.9432
  690MOL0     H93133   5.595  10.491   1.276 -0.1749  1.1375  1.7496
  690MOL0     H93134   4.938  11.636   0.332 -2.6473 -1.3919 -1.0425
  690MOL0     H93135   4.731  11.701   0.422 -1.1492  0.0505  0.2552
  690MOL0     H93136   4.338  11.424   0.817 -0.0510  1.4262  1.0546
  690MOL0     H93137   4.150  11.540   0.907  3.0644  0.2805  1.4356
  690MOL0     H93138   3.954  11.661   0.953 -4.1129  0.3876  2.3410
  690MOL0     H93139   3.912  11.572   0.805  0.2689  1.8677 -0.1504
  690MOL0     H93140   3.796  11.847   0.903 -4.3848  0.5762  0.2395
  690MOL0     H93141   3.722  11.685   0.935  1.9937 -0.8801  1.4309
  690MOL0     H93142   3.649  11.661   0.715 -1.7658  1.9202 -1.9732
  690MOL0     H93143   3.768  11.771   0.649 -1.1627 -0.0207 -0.7578
  690MOL0     H93144   3.552  11.872   0.837  0.9220 -1.0303  1.5924
  690MOL0     H93145   3.662  11.959   0.736 -1.8504  0.6573  1.8512
  690MOL0     H93146   3.414  11.809   0.431 -3.3321 -2.2664  3.0402
  690MOL0     H93147   4.170  11.815   0.587 -2.0594 -1.1438 -0.1746
  690MOL0     H93148   4.340  11.822   0.435  1.1382 -1.6460 -2.9930
  690MOL0     H93149   4.495  11.765   0.488  0.7568 -1.3126  1.1185
  690MOL0     H93150   4.390  11.677   0.366 -1.8252 -1.1836  1.3397
  691MOL0     O93151   8.471   6.106  10.482 -0.6881 -0.3843 -0.2553
  691MOL0     C93152   8.447   6.228  10.481  0.5349  0.2781  0.3013
  691MOL0     O93153   8.501   6.317  10.569  0.6256  0.1475 -0.7406
  691MOL0     C93154   8.529   6.278  10.697  0.3418 -0.8546 -0.8231
  691MOL0     C93155   8.483   6.343  10.806  0.0006  0.2458  0.0536
  691MOL0     C93156   8.529   6.301  10.934 -0.1926 -0.0149  0.3394
  691MOL0     C93157   8.626   6.207  10.952 -0.5867  0.3073 -0.2979
  691MOL0     O93158   8.672   6.172  11.079  0.2749 -0.0180  0.2131
  691MOL0     C93159   8.808   6.143  11.083 -0.1310  0.9481 -0.0369
  691MOL0     C93160   8.858   6.167  11.224  0.6879 -0.8354  0.2032
  691MOL0     C93161   9.004   6.184  11.245  0.5129 -0.4121 -0.2527
  691MOL0     C93162   9.024   6.219  11.391 -1.1021  0.6061  0.6460
  691MOL0     C93163   8.975   6.118  11.497 -0.4778  0.3237 -0.1378
  691MOL0     C93164   9.043   6.159  11.625  0.4255 -0.0954 -0.6182
  691MOL0     C93165   8.994   6.061  11.730 -0.0278 -0.0022 -0.4749
  691MOL0     C93166   9.034   6.116  11.874  0.4127  0.9580  0.9720
  691MOL0     N93167   9.180   6.121  11.889 -0.5161  0.5452  0.0794
  691MOL0     C93168   9.239   6.245  11.877 -0.3399  0.2110  0.8040
  691MOL0     C93169   9.368   6.210  11.862  0.0698  0.8925 -0.3162
  691MOL0     C93170   9.487   6.299  11.859 -0.8572  0.5823 -0.2033
  691MOL0     C93171   9.517   6.350  12.001 -0.8080  0.8438 -0.6243
  691MOL0     C93172   9.598   6.246  12.081 -0.0748  0.0268 -0.2231
  691MOL0     C93173   9.687   6.309  12.179 -0.4069  0.0998 -0.1319
  691MOL0     O93174   9.777   6.394  12.109 -0.4733 -0.4317  0.3036
  691MOL0     C93175   9.899   6.350  12.065  0.0956 -0.3409 -0.0195
  691MOL0     C93176   9.990   6.445  12.025  0.5156 -0.0461 -0.3360
  691MOL0     C93177  10.114   6.405  11.973 -0.3809 -1.1426  0.2777
  691MOL0     C93178  10.148   6.271  11.961 -0.3082  0.4395  0.6086
  691MOL0     C93179  10.276   6.226  11.903 -0.1508 -0.6939 -0.1890
  691MOL0     O93180  10.385   6.312  11.915  0.0471 -0.2960  0.0839
  691MOL0     C93181  10.499   6.286  11.846  0.2262 -0.4601 -1.0540
  691MOL0     C93182  10.520   6.342  11.729 -0.6747  0.7530  0.7676
  691MOL0     C93183  10.627   6.304  11.645  0.1110  0.8166 -0.6057
  691MOL0     C93184  10.733   6.227  11.699  0.2404  1.0351 -0.1052
  691MOL0     O93185  10.856   6.192  11.630  0.8607  0.0717  0.1309
  691MOL0     C93186  10.900   6.282  11.523 -0.4776  0.2870  0.2652
  691MOL0     C93187  11.035   6.225  11.465  0.5647 -0.6482 -0.2408
  691MOL0     C93188  11.079   6.303  11.340  1.0737 -0.1369 -0.1697
  691MOL0     C93189  11.193   6.248  11.252  0.6745  0.2507 -0.5835
  691MOL0     C93190  11.181   6.285  11.092 -0.0867 -0.9604 -0.6855
  691MOL0     C93191  11.164   6.434  11.056  0.6872  0.6056  0.4352
  691MOL0     C93192  11.168   6.442  10.902  0.7848  0.7283 -0.0391
  691MOL0     C93193  11.134   6.582  10.860  0.3161  0.4843 -0.1405
  691MOL0    Cl93194  11.140   6.597  10.683  0.3731 -0.5903  0.0094
  691MOL0     C93195  10.712   6.162  11.822 -0.5588  0.0487  0.5978
  691MOL0     C93196  10.596   6.189  11.897 -0.4024 -0.5491 -0.4565
  691MOL0     O93197  10.271   6.123  11.834 -0.2236 -0.0198 -0.9818
  691MOL0     C93198  10.056   6.172  12.009  0.8401 -0.6665 -0.1410
  691MOL0     C93199   9.933   6.216  12.057  0.0534  0.4088 -0.2819
  691MOL0     N93200   9.384   6.071  11.873 -0.0481 -0.6931  0.4912
  691MOL0     N93201   9.266   6.023  11.875 -0.1106 -0.0650  0.4429
  691MOL0     C93202   8.679   6.155  10.836 -0.1854 -0.2796 -0.2753
  691MOL0     C93203   8.631   6.187  10.710 -0.3199 -0.8459  0.5426
  691MOL0     C93204   8.378   6.276  10.358  0.0384  0.1705  0.8784
  691MOL0     C93205   8.348   6.181  10.254  0.2731  0.2851 -0.6048
  691MOL0     C93206   8.278   6.214  10.134 -0.4008 -0.4225  0.0678
  691MOL0     C93207   8.250   6.348  10.096  0.3148 -0.2754  1.4366
  691MOL0     O93208   8.210   6.364   9.961 -0.2321 -0.0344 -0.4143
  691MOL0     C93209   8.215   6.500   9.914 -0.0504 -0.5707 -0.2191
  691MOL0     C93210   8.089   6.539   9.837  0.0102 -0.3439 -0.8992
  691MOL0     C93211   8.028   6.440   9.739  0.2663 -0.1179 -0.9057
  691MOL0     C93212   7.990   6.493   9.601 -0.5085 -0.1082  0.1538
  691MOL0     C93213   7.961   6.378   9.514 -0.3858 -0.5099  0.2850
  691MOL0     C93214   7.928   6.289   9.438 -0.2543 -1.0539 -0.5923
  691MOL0     C93215   8.276   6.444  10.200  0.1169  0.5518 -0.4635
  691MOL0     C93216   8.337   6.407  10.329 -0.8223 -0.9386  0.0367
  691MOL0     C93217   8.348   6.529  10.433  0.1403  0.4762 -0.4344
  691MOL0     H93218   8.416   6.428  10.807  0.9362  1.0212  2.2941
  691MOL0     H93219   8.488   6.355  11.020 -2.7764 -1.7747  0.3295
  691MOL0     H93220   8.834   6.046  11.039 -4.6020  1.0224 -3.5382
  691MOL0     H93221   8.865   6.216  11.025 -0.8931  0.0782 -1.9888
  691MOL0     H93222   8.821   6.082  11.282 -1.5828 -0.7346 -0.9978
  691MOL0     H93223   8.804   6.255  11.261 -1.7668 -2.3170  0.3996
  691MOL0     H93224   9.049   6.265  11.188 -4.0070  1.2827 -1.8791
  691MOL0     H93225   9.061   6.094  11.218  2.7385  1.4201 -2.0551
  691MOL0     H93226   9.132   6.235  11.398 -0.8683  0.7846 -2.3968
  691MOL0     H93227   8.963   6.309  11.405 -1.9937  1.0134 -4.2889
  691MOL0     H93228   8.866   6.112  11.510 -0.1345 -2.8017  2.7611
  691MOL0     H93229   9.007   6.018  11.463  0.8033  1.0022 -1.0109
  691MOL0     H93230   9.152   6.147  11.616  0.5648  0.4849  0.2154
  691MOL0     H93231   9.016   6.261  11.653  0.0852 -0.9620  2.5026
  691MOL0     H93232   9.027   5.959  11.712 -2.3727 -0.8915 -0.0324
  691MOL0     H93233   8.885   6.061  11.733 -0.0728  1.8387  2.1521
  691MOL0     H93234   8.980   6.208  11.899 -1.8679 -0.8052  3.1380
  691MOL0     H93235   8.993   6.041  11.943 -1.0339  1.8644  1.1576
  691MOL0     H93236   9.190   6.340  11.859 -3.9618 -1.7536 -0.7652
  691MOL0     H93237   9.579   6.256  11.819  0.4135  1.8539  1.2364
  691MOL0     H93238   9.475   6.390  11.799  1.9090 -0.2479 -2.2255
  691MOL0     H93239   9.568   6.446  11.990  1.2236 -0.0293  0.6928
  691MOL0     H93240   9.423   6.369  12.053 -1.2042 -0.5362 -0.7945
  691MOL0     H93241   9.650   6.177  12.013  3.2347  2.9886 -0.9803
  691MOL0     H93242   9.527   6.180  12.131 -0.0839  0.7251  0.7132
  691MOL0     H93243   9.735   6.230  12.236  1.9118  2.1595  0.9760
  691MOL0     H93244   9.628   6.373  12.246  1.7310  0.5290  1.4199
  691MOL0     H93245   9.967   6.549  12.043  0.4022 -0.3323  1.3540
  691MOL0     H93246  10.186   6.484  11.958 -1.1928 -0.5572 -0.6692
  691MOL0     H93247  10.451   6.419  11.694 -0.6425  0.1898 -0.6127
  691MOL0     H93248  10.633   6.343  11.544  0.3695 -2.3640 -1.9472
  691MOL0     H93249  10.826   6.297  11.444 -0.8338 -1.0515  0.3106
  691MOL0     H93250  10.931   6.375  11.572  1.2594 -0.7022  1.1473
  691MOL0     H93251  11.104   6.224  11.549 -0.8673  1.8703  1.0658
  691MOL0     H93252  11.016   6.120  11.436  0.0034 -0.8039  0.6565
  691MOL0     H93253  10.992   6.296  11.273  2.9536  1.4968 -3.0234
  691MOL0     H93254  11.089   6.410  11.363 -3.5151 -0.0292  2.4949
  691MOL0     H93255  11.197   6.139  11.254  2.6037  0.2941  0.5287
  691MOL0     H93256  11.289   6.288  11.287  0.3615 -2.1994  3.7724
  691MOL0     H93257  11.103   6.224  11.046 -2.2703  0.9158  0.2858
  691MOL0     H93258  11.276   6.251  11.051 -1.2999 -1.0382 -3.6302
  691MOL0     H93259  11.070   6.472  11.097  0.6412  0.1337  0.7898
  691MOL0     H93260  11.246   6.493  11.097 -0.1164  2.5994 -0.7359
  691MOL0     H93261  11.096   6.366  10.869  1.1743  0.4289 -0.2030
  691MOL0     H93262  11.271   6.420  10.873 -0.6420 -4.0553 -2.5225
  691MOL0     H93263  11.038   6.604  10.907 -0.6954  1.5448 -2.5076
  691MOL0     H93264  11.209   6.653  10.894  1.1682  0.3985 -1.7165
  691MOL0     H93265  10.782   6.098  11.875 -1.9154  1.8863  5.1789
  691MOL0     H93266  10.586   6.140  11.993 -0.6803  1.3969  0.5369
  691MOL0     H93267  10.088   6.069  12.003  0.3048 -1.0920  2.8019
  691MOL0     H93268   9.856   6.145  12.086  0.5464  0.0308  0.1174
  691MOL0     H93269   8.757   6.081  10.850 -1.2822 -1.5734 -0.7410
  691MOL0     H93270   8.664   6.131  10.624 -0.0494  2.6467 -1.8266
  691MOL0     H93271   8.364   6.075  10.272 -1.6059  0.2095  0.8903
  691MOL0     H93272   8.256   6.127  10.073 -1.8657 -0.7867  1.0499
  691MOL0     H93273   8.298   6.511   9.844 -0.9976 -1.0242 -1.4526
  691MOL0     H93274   8.234   6.577   9.989  0.3418 -0.0195 -0.8697
  691MOL0     H93275   8.128   6.621   9.776  1.2363 -0.1991  0.0412
  691MOL0     H93276   8.012   6.576   9.907 -0.0233 -0.6418 -0.7793
  691MOL0     H93277   7.937   6.393   9.779 -0.5983  0.0137 -2.6077
  691MOL0     H93278   8.106   6.366   9.719  0.2999 -0.2388 -0.3197
  691MOL0     H93279   7.901   6.557   9.609 -1.6400 -1.7753  1.3636
  691MOL0     H93280   8.071   6.553   9.558 -0.9660  0.3283 -0.1156
  691MOL0     H93281   7.908   6.212   9.366 -1.9943  1.5612 -3.1608
  691MOL0     H93282   8.249   6.547  10.184 -0.6246  0.6384  1.1509
  691MOL0     H93283   8.321   6.510  10.537  0.1329  1.7500 -0.1910
  691MOL0     H93284   8.448   6.573  10.428  0.5689 -0.2673  1.1184
  691MOL0     H93285   8.283   6.611  10.400  2.0491  1.5461 -1.7672
  692MOL0     O93286  10.781  10.741   6.488 -0.7137  0.1756 -0.8685
  692MOL0     C93287  10.747  10.757   6.605 -0.7909  0.0027  1.9373
  692MOL0     O93288  10.835  10.789   6.706  0.3590 -0.5209  0.3025
  692MOL0     C93289  10.972  10.802   6.695 -0.0464 -0.6472 -0.3733
  692MOL0     C93290  11.043  10.873   6.585 -0.2252 -1.3472  0.4847
  692MOL0     C93291  11.181  10.910   6.583  1.4859  0.0709 -0.6695
  692MOL0     C93292  11.261  10.871   6.693 -0.4494  0.4498  0.0902
  692MOL0     O93293  11.391  10.893   6.710 -0.5388  1.3128  0.5445
  692MOL0     C93294  11.468  10.941   6.598  0.6408 -0.7962 -0.3384
  692MOL0     C93295  11.619  10.917   6.640  0.0157  0.6783  0.0817
  692MOL0     C93296  11.717  10.882   6.518 -0.1296 -0.0757 -0.5921
  692MOL0     C93297  11.725  10.993   6.409 -0.9371  0.1110 -0.8706
  692MOL0     C93298  11.827  10.941   6.310 -0.1688 -0.6911  0.3744
  692MOL0     C93299  11.755  10.857   6.205  0.6696 -0.3948 -0.0035
  692MOL0     C93300  11.721  10.921   6.070 -0.7210 -0.3112 -0.4590
  692MOL0     C93301  11.625  11.041   6.074 -0.1076 -0.0679 -0.5655
  692MOL0     N93302  11.491  11.018   6.119 -0.8306 -0.6999 -0.0556
  692MOL0     C93303  11.414  10.905   6.081  0.4767 -0.1620 -0.0987
  692MOL0     C93304  11.287  10.943   6.125 -0.1807 -0.1219 -0.0514
  692MOL0     C93305  11.182  10.840   6.132 -0.2107 -0.7294  0.2372
  692MOL0     C93306  11.029  10.876   6.093 -0.0829 -0.6895 -0.6376
  692MOL0     C93307  10.946  10.746   6.083 -0.5175 -0.4647  0.1873
  692MOL0     C93308  10.802  10.777   6.047  0.2687 -0.5362  0.1415
  692MOL0     O93309  10.735  10.654   6.047 -0.2470  0.7539  0.2964
  692MOL0     C93310  10.600  10.646   6.031  0.6595 -0.9809  0.5604
  692MOL0     C93311  10.514  10.752   6.034 -0.1017 -0.9093 -0.0824
  692MOL0     C93312  10.384  10.724   6.016  0.6182  0.5505  0.7288
  692MOL0     C93313  10.339  10.598   5.983  0.3860  0.5413  0.3526
  692MOL0     C93314  10.189  10.573   5.963  0.0467  0.2370  1.1420
  692MOL0     O93315  10.140  10.442   5.964 -0.0474 -0.7918 -0.5454
  692MOL0     C93316  10.006  10.432   5.949  0.1319 -0.8155 -0.1550
  692MOL0     C93317   9.960  10.405   5.818  0.4661 -0.9076 -0.6620
  692MOL0     C93318   9.831  10.380   5.787  1.1340 -0.0888  1.2425
  692MOL0     C93319   9.729  10.386   5.888  0.7192  1.4295  0.5359
  692MOL0     O93320   9.590  10.362   5.880  0.5211  0.4316 -0.2793
  692MOL0     C93321   9.538  10.322   5.752 -1.0675 -0.5969  0.4901
  692MOL0     C93322   9.406  10.253   5.778  0.6184 -0.3249  0.4302
  692MOL0     C93323   9.431  10.115   5.851 -0.1664  0.4243  0.4262
  692MOL0     C93324   9.317  10.046   5.910 -0.2380 -0.6551  0.3089
  692MOL0     C93325   9.360   9.920   5.988 -0.1245 -0.4848 -0.4863
  692MOL0     C93326   9.363   9.789   5.901  0.2906  0.1792 -1.0488
  692MOL0     C93327   9.412   9.670   5.985 -0.0829 -0.3783 -0.5834
  692MOL0     C93328   9.381   9.535   5.909 -0.0535  0.2613 -0.5284
  692MOL0    Cl93329   9.473   9.528   5.756  0.3335 -0.0017 -0.4766
  692MOL0     C93330   9.772  10.409   6.020 -0.1203  0.0519 -0.0564
  692MOL0     C93331   9.906  10.433   6.049  1.1513  0.7455  0.4413
  692MOL0     O93332  10.120  10.674   5.937  0.7657  0.2219  0.2186
  692MOL0     C93333  10.429  10.491   5.972 -0.4897  0.0074  1.1282
  692MOL0     C93334  10.568  10.512   5.999  0.1880  0.0160  0.0857
  692MOL0     N93335  11.291  11.053   6.198 -1.4874 -0.3500 -0.5024
  692MOL0     N93336  11.416  11.102   6.188 -0.4539  0.4815  0.1702
  692MOL0     C93337  11.195  10.793   6.801 -0.6958 -0.6050  0.1510
  692MOL0     C93338  11.063  10.762   6.801  0.4201 -0.3315 -0.3063
  692MOL0     C93339  10.604  10.743   6.637  0.8161 -0.2857  0.1246
  692MOL0     C93340  10.569  10.719   6.767 -0.1499 -0.0431 -0.2159
  692MOL0     C93341  10.443  10.697   6.816 -0.0656 -0.3132 -0.3175
  692MOL0     C93342  10.333  10.706   6.725  0.7541  0.8197  0.5042
  692MOL0     O93343  10.198  10.686   6.753  0.2306 -0.1851  0.4448
  692MOL0     C93344  10.148  10.682   6.885  0.6500  0.6847 -0.7311
  692MOL0     C93345  10.161  10.819   6.955 -0.6037  0.2944 -0.5965
  692MOL0     C93346  10.096  10.947   6.884  0.9047  0.0958  0.7546
  692MOL0     C93347  10.038  11.041   6.985  0.9168 -1.4917  0.4737
  692MOL0     C93348   9.893  11.021   6.996 -0.4418 -0.4907 -0.0348
  692MOL0     C93349   9.780  10.999   6.981  1.0982 -0.3903  0.6365
  692MOL0     C93350  10.368  10.723   6.588  0.3271  0.7363 -0.7361
  692MOL0     C93351  10.495  10.743   6.543  0.1404  0.7370  0.1499
  692MOL0     C93352  10.514  10.763   6.391  0.7155  0.5057  0.5959
  692MOL0     H93353  10.987  10.896   6.494 -1.1975 -0.4557  1.2714
  692MOL0     H93354  11.225  10.977   6.510  1.5110  0.6378 -0.1389
  692MOL0     H93355  11.430  10.899   6.504 -4.2072  0.4829  0.7783
  692MOL0     H93356  11.462  11.050   6.587 -2.1994 -0.7503  0.6975
  692MOL0     H93357  11.620  10.825   6.698  0.1211  0.5098 -0.1847
  692MOL0     H93358  11.659  11.002   6.697  4.1879 -1.3629  0.5980
  692MOL0     H93359  11.695  10.781   6.481  1.9138 -0.3324 -1.1971
  692MOL0     H93360  11.806  10.864   6.580 -0.4634  1.4808  0.3914
  692MOL0     H93361  11.630  11.018   6.361 -0.6662  0.7815 -1.0635
  692MOL0     H93362  11.743  11.091   6.453 -1.6861 -0.3300  0.4940
  692MOL0     H93363  11.874  11.011   6.240 -1.0802 -2.1620 -1.7915
  692MOL0     H93364  11.902  10.882   6.364  0.1711 -0.5736  0.0345
  692MOL0     H93365  11.830  10.785   6.171  0.9949 -0.2892  0.4863
  692MOL0     H93366  11.671  10.798   6.243  1.9401 -2.1892  0.1600
  692MOL0     H93367  11.687  10.853   5.992 -0.0734 -0.3716 -0.7011
  692MOL0     H93368  11.821  10.946   6.033  0.7492 -3.0524  1.2420
  692MOL0     H93369  11.661  11.111   6.150 -0.3612 -0.3473 -0.1831
  692MOL0     H93370  11.623  11.084   5.974 -0.8193 -0.6840 -0.8259
  692MOL0     H93371  11.424  10.821   6.013 -1.9030 -0.4907 -0.1037
  692MOL0     H93372  11.213  10.755   6.070  2.5576 -0.8959  1.6990
  692MOL0     H93373  11.181  10.807   6.236 -4.2437 -4.7973 -0.7417
  692MOL0     H93374  10.981  10.946   6.160 -2.4590 -1.4650 -1.4260
  692MOL0     H93375  11.015  10.927   5.997 -5.2270  1.2462  0.8333
  692MOL0     H93376  10.956  10.700   6.181  0.1462  3.5254  2.2198
  692MOL0     H93377  10.987  10.687   6.000  1.6551 -1.5918  1.9603
  692MOL0     H93378  10.783  10.843   5.961 -0.6447  2.6259  2.5656
  692MOL0     H93379  10.759  10.832   6.132 -0.1230  1.1354 -1.0693
  692MOL0     H93380  10.530  10.858   6.051 -3.1057 -0.3762 -0.0073
  692MOL0     H93381  10.309  10.797   5.986  1.8049  1.8938  0.9256
  692MOL0     H93382  10.023  10.395   5.730 -0.3914 -0.1847 -1.3946
  692MOL0     H93383   9.806  10.369   5.682  1.2174  3.0630  0.8170
  692MOL0     H93384   9.531  10.418   5.699 -0.1092  0.4110  2.0643
  692MOL0     H93385   9.609  10.257   5.700  2.4807  1.0798  2.7583
  692MOL0     H93386   9.342  10.320   5.835 -1.0239  1.0636 -2.8068
  692MOL0     H93387   9.355  10.243   5.683 -0.1316  1.5179  0.5957
  692MOL0     H93388   9.486  10.044   5.788 -0.1379  0.1586  0.7535
  692MOL0     H93389   9.496  10.127   5.937 -1.1582 -0.0333  1.2638
  692MOL0     H93390   9.229  10.018   5.851  0.0802 -1.4381  0.1865
  692MOL0     H93391   9.286  10.114   5.990  1.6352 -0.2748  0.7518
  692MOL0     H93392   9.294   9.896   6.071  0.8854 -0.5918  0.3067
  692MOL0     H93393   9.461   9.931   6.029 -0.6703 -0.1393  0.8325
  692MOL0     H93394   9.259   9.778   5.869 -0.7773  0.9749  1.8292
  692MOL0     H93395   9.436   9.788   5.820  1.9499 -2.0473  0.3341
  692MOL0     H93396   9.368   9.667   6.085 -3.8076 -2.5987 -2.0729
  692MOL0     H93397   9.519   9.690   5.996  0.0569  1.4241 -3.8863
  692MOL0     H93398   9.410   9.463   5.987 -0.2887  1.7444  0.9835
  692MOL0     H93399   9.274   9.530   5.886 -0.0385  1.1343 -0.8000
  692MOL0     H93400   9.699  10.395   6.099 -0.3802  2.5081  0.2266
  692MOL0     H93401   9.931  10.459   6.151  1.2293 -0.7984  0.8285
  692MOL0     H93402  10.403  10.389   5.945  0.7949  0.9244 -5.1617
  692MOL0     H93403  10.653  10.445   6.001  1.7092  1.8226 -0.7660
  692MOL0     H93404  11.256  10.763   6.885  1.9785  0.1810 -1.3938
  692MOL0     H93405  11.008  10.715   6.882 -0.7764  1.2084 -0.1666
  692MOL0     H93406  10.642  10.733   6.845 -0.9864  1.6778  0.3161
  692MOL0     H93407  10.431  10.678   6.922 -2.2335  1.6234 -0.1138
  692MOL0     H93408  10.202  10.606   6.942 -4.0504 -5.7280 -3.5687
  692MOL0     H93409  10.043  10.654   6.876  0.9987 -0.5419 -1.1678
  692MOL0     H93410  10.267  10.843   6.962 -0.8692  3.0665 -3.7310
  692MOL0     H93411  10.135  10.806   7.060  3.4651  0.6102  0.5983
  692MOL0     H93412  10.017  10.919   6.814  1.8224 -1.6759  0.3749
  692MOL0     H93413  10.175  11.003   6.834 -0.8459  0.3875 -1.8805
  692MOL0     H93414  10.071  11.014   7.086 -2.3529  0.9494  2.4133
  692MOL0     H93415  10.077  11.143   6.977  0.3400 -1.0566  2.5407
  692MOL0     H93416   9.674  10.985   6.975  0.9764  0.8129 -0.4809
  692MOL0     H93417  10.285  10.727   6.517 -0.8427 -2.9739  0.2175
  692MOL0     H93418  10.570  10.855   6.372 -1.6806  1.9123 -0.0980
  692MOL0     H93419  10.551  10.670   6.349 -1.3621  0.9170 -2.5156
  692MOL0     H93420  10.413  10.770   6.348  1.0074 -1.3614 -0.5122
  693MOL0     O93421  10.162   1.797  10.345 -0.2547  0.4380  0.5433
  693MOL0     C93422  10.058   1.865  10.346 -0.3834 -0.5764  0.2960
  693MOL0     O93423  10.025   1.965  10.263 -0.1862  0.2284 -0.4861
  693MOL0     C93424  10.125   2.012  10.177  0.0838  0.2154 -0.4823
  693MOL0     C93425  10.171   1.940  10.070 -0.5085  0.4602  0.5207
  693MOL0     C93426  10.274   1.982   9.974  0.0727 -0.9065  0.3024
  693MOL0     C93427  10.333   2.107  10.003  0.4355  0.2757  0.6998
  693MOL0     O93428  10.416   2.151   9.895 -0.2628 -0.2392 -0.9997
  693MOL0     C93429  10.524   2.062   9.883  0.5385  0.1929 -0.3923
  693MOL0     C93430  10.641   2.140   9.827  0.0819  0.2411 -0.5025
  693MOL0     C93431  10.773   2.057   9.829  0.7187  0.0058  0.1185
  693MOL0     C93432  10.886   2.165   9.809  0.2476 -0.0821  0.5438
  693MOL0     C93433  11.026   2.107   9.785  0.3861  0.3604 -0.6673
  693MOL0     C93434  11.056   2.071   9.639  0.7765  0.3328 -0.3693
  693MOL0     C93435  11.199   2.016   9.622  0.6415 -0.2862 -0.2950
  693MOL0     C93436  11.245   2.036   9.470  0.5358  0.0869 -1.0969
  693MOL0     N93437  11.143   1.986   9.373  0.5203 -0.2569  0.1173
  693MOL0     C93438  11.147   1.868   9.321 -1.0366 -0.1129  0.5960
  693MOL0     C93439  11.036   1.857   9.251 -0.4677 -0.0430  0.6458
  693MOL0     C93440  10.992   1.736   9.172  0.9671 -0.5199  0.7395
  693MOL0     C93441  10.989   1.616   9.273 -0.1129 -0.0212 -0.0793
  693MOL0     C93442  10.902   1.637   9.400  0.7884  0.6147 -0.4038
  693MOL0     C93443  10.797   1.514   9.407  0.1177 -0.1441 -0.3789
  693MOL0     O93444  10.877   1.397   9.407 -0.4447  0.0975 -0.2261
  693MOL0     C93445  10.808   1.269   9.413  0.0506 -0.2834 -0.9335
  693MOL0     C93446  10.848   1.158   9.325  0.3703  0.3330 -1.0406
  693MOL0     C93447  10.779   1.037   9.336  0.2501  0.5001 -0.6676
  693MOL0     C93448  10.670   1.023   9.423  0.0961  0.2573  0.4378
  693MOL0     C93449  10.601   0.887   9.422 -0.0856 -0.3900  0.3084
  693MOL0     O93450  10.476   0.893   9.471  1.2475  0.3094  0.8800
  693MOL0     C93451  10.389   0.785   9.466 -0.4813 -0.2354  0.4387
  693MOL0     C93452  10.298   0.769   9.570  0.0659  0.3942 -0.2995
  693MOL0     C93453  10.206   0.675   9.559  0.5802  0.3805  0.1052
  693MOL0     C93454  10.185   0.589   9.447  0.2274 -0.0705  0.3963
  693MOL0     O93455  10.085   0.496   9.452 -0.1996  0.2353  0.0498
  693MOL0     C93456  10.072   0.412   9.337 -0.6970 -0.1919  0.6366
  693MOL0     C93457   9.964   0.305   9.350 -0.3713  0.3564 -0.5827
  693MOL0     C93458   9.816   0.328   9.335 -0.6506  0.0231 -0.2800
  693MOL0     C93459   9.779   0.304   9.187  0.7845  0.9708  0.2493
  693MOL0     C93460   9.632   0.365   9.156  0.7450 -0.0073 -0.5378
  693MOL0     C93461   9.504   0.341   9.249  0.5761 -0.2447 -1.0825
  693MOL0     C93462   9.486   0.458   9.345  0.2760 -0.3161 -1.2313
  693MOL0     C93463   9.349   0.464   9.396  0.4415  0.0886 -0.6140
  693MOL0    Cl93464   9.226   0.495   9.262 -0.0538 -0.1976  0.6366
  693MOL0     C93465  10.264   0.617   9.335  0.1515 -0.4904 -0.5043
  693MOL0     C93466  10.366   0.709   9.343  0.6986 -0.2904 -1.0298
  693MOL0     O93467  10.667   0.789   9.403  0.5049  0.2713  0.5828
  693MOL0     C93468  10.628   1.134   9.498 -0.0511 -0.1454 -0.0098
  693MOL0     C93469  10.697   1.260   9.499 -0.0181  0.0884  0.7130
  693MOL0     N93470  10.973   1.974   9.244  0.1451 -0.0831 -0.4439
  693MOL0     N93471  11.041   2.064   9.318 -0.1009  1.0593  0.1027
  693MOL0     C93472  10.289   2.192  10.105  0.8869 -0.0392  0.3378
  693MOL0     C93473  10.183   2.145  10.184  0.1528  0.6903  0.3459
  693MOL0     C93474   9.963   1.853  10.459 -0.0798 -0.1714  0.3588
  693MOL0     C93475   9.834   1.925  10.450  0.0964  0.0302  0.3813
  693MOL0     C93476   9.735   1.917  10.556  0.3833 -0.0645 -1.3248
  693MOL0     C93477   9.759   1.835  10.670 -0.1311  0.8911 -1.0598
  693MOL0     O93478   9.684   1.844  10.789 -0.7189  0.5227 -0.2737
  693MOL0     C93479   9.646   1.980  10.828  0.1767 -0.3774  0.6576
  693MOL0     C93480   9.773   2.055  10.875  0.9207  0.7951 -0.6339
  693MOL0     C93481   9.834   1.987  10.991  0.3376  1.1928 -0.0098
  693MOL0     C93482   9.949   2.069  11.065 -0.1317  0.6842  0.3416
  693MOL0     C93483  10.007   2.017  11.187  0.6248  0.0284  0.5691
  693MOL0     C93484  10.054   1.965  11.287 -0.3785  0.7005 -0.7914
  693MOL0     C93485   9.878   1.765  10.671  0.7834 -0.1870 -0.6926
  693MOL0     C93486   9.977   1.765  10.572 -0.1586  0.2156  0.4094
  693MOL0     C93487  10.096   1.677  10.600 -0.9598 -0.1231 -0.3671
  693MOL0     H93488  10.133   1.840  10.057 -0.3033  0.4693 -0.2331
  693MOL0     H93489  10.292   1.936   9.878  0.8689 -2.7390  1.2936
  693MOL0     H93490  10.546   2.013   9.978 -1.3814  3.3583  1.8795
  693MOL0     H93491  10.497   1.992   9.803 -1.3316  1.3636 -0.8407
  693MOL0     H93492  10.646   2.230   9.889 -1.9047  1.1576 -1.5974
  693MOL0     H93493  10.602   2.169   9.730  0.1419  2.6993  0.1442
  693MOL0     H93494  10.776   2.001   9.735  1.2735 -1.2852  0.8729
  693MOL0     H93495  10.783   1.986   9.912  0.2731 -1.5909 -1.1375
  693MOL0     H93496  10.878   2.239   9.729  0.2550  2.5993  2.8531
  693MOL0     H93497  10.890   2.227   9.899  0.8395  1.5238 -0.5542
  693MOL0     H93498  11.096   2.186   9.813  0.4227 -0.0619  0.4756
  693MOL0     H93499  11.046   2.017   9.844  1.2621  0.5187 -0.7081
  693MOL0     H93500  10.990   1.990   9.606  3.6126 -2.2527 -0.1274
  693MOL0     H93501  11.040   2.159   9.576  1.1524  1.0290  0.4902
  693MOL0     H93502  11.217   1.912   9.654  1.6882 -0.3085 -0.9132
  693MOL0     H93503  11.265   2.083   9.678 -0.2363  0.2770  0.0726
  693MOL0     H93504  11.263   2.141   9.447 -0.1524  0.5875  0.4924
  693MOL0     H93505  11.338   1.980   9.473  1.9944  2.4208 -0.4541
  693MOL0     H93506  11.223   1.797   9.351  0.0626  1.4025  1.5562
  693MOL0     H93507  10.910   1.750   9.102  1.7357  3.2004  0.3613
  693MOL0     H93508  11.083   1.734   9.112  1.0787  0.4984  0.8455
  693MOL0     H93509  10.947   1.535   9.213  0.3696 -0.0104 -0.4421
  693MOL0     H93510  11.090   1.591   9.308 -1.1507 -1.7884  1.8990
  693MOL0     H93511  10.843   1.729   9.393 -2.7895 -1.6451 -3.7181
  693MOL0     H93512  10.970   1.639   9.486  2.1260 -0.7783 -1.3738
  693MOL0     H93513  10.730   1.517   9.320  0.1242  0.6106 -0.3644
  693MOL0     H93514  10.755   1.522   9.507  1.4116 -0.0408  0.1807
  693MOL0     H93515  10.936   1.178   9.265  0.3160  0.9682 -0.9168
  693MOL0     H93516  10.819   0.951   9.283  0.4977  0.9088 -1.1578
  693MOL0     H93517  10.294   0.833   9.658  1.4192  3.1486 -2.1046
  693MOL0     H93518  10.138   0.673   9.644  2.6332  0.4945  1.8523
  693MOL0     H93519  10.055   0.469   9.245  2.3468 -1.0647 -0.5881
  693MOL0     H93520  10.166   0.358   9.324 -2.0153 -2.3913 -0.2283
  693MOL0     H93521   9.998   0.225   9.284  0.9740  1.6843 -1.5465
  693MOL0     H93522   9.980   0.268   9.452 -0.4014 -0.9594 -1.0383
  693MOL0     H93523   9.752   0.255   9.388 -0.8974  0.1172 -0.4444
  693MOL0     H93524   9.790   0.429   9.368  0.3339 -0.4144  2.0727
  693MOL0     H93525   9.779   0.206   9.140 -0.5230  1.2810 -0.4504
  693MOL0     H93526   9.850   0.370   9.136  0.5225  1.0447 -0.0187
  693MOL0     H93527   9.593   0.322   9.063 -3.1176 -1.0867  1.3649
  693MOL0     H93528   9.637   0.473   9.142 -1.8500  0.2191 -0.3462
  693MOL0     H93529   9.426   0.343   9.172  0.0140  0.8834 -0.5110
  693MOL0     H93530   9.506   0.253   9.313 -0.1559 -1.7218 -3.0033
  693MOL0     H93531   9.507   0.548   9.286 -1.1447 -0.2361 -1.6309
  693MOL0     H93532   9.563   0.451   9.423 -0.1896  1.0247 -0.6373
  693MOL0     H93533   9.327   0.374   9.455 -0.8399 -0.3133 -1.6593
  693MOL0     H93534   9.350   0.555   9.456  0.1669 -0.9847  1.0874
  693MOL0     H93535  10.251   0.573   9.237 -0.3313 -2.9601  0.5815
  693MOL0     H93536  10.433   0.743   9.265  2.4874  0.4754  0.7520
  693MOL0     H93537  10.534   1.129   9.551  0.9621  4.8320  3.0195
  693MOL0     H93538  10.666   1.339   9.567 -1.5806 -0.2297  0.3969
  693MOL0     H93539  10.332   2.291  10.106  1.8508 -0.3442 -2.6327
  693MOL0     H93540  10.126   2.213  10.246 -1.7032  1.5485 -2.1311
  693MOL0     H93541   9.814   1.974  10.356 -0.3284  1.2380  1.0712
  693MOL0     H93542   9.645   1.977  10.556  1.2744  1.6072  2.6153
  693MOL0     H93543   9.577   1.979  10.913  1.1619  2.2082  1.5819
  693MOL0     H93544   9.597   2.031  10.744  3.1315 -0.1800 -1.0662
  693MOL0     H93545   9.749   2.157  10.909  0.1763 -0.2918  2.3604
  693MOL0     H93546   9.852   2.060  10.799  1.1800  0.7773 -0.3653
  693MOL0     H93547   9.854   1.887  10.953 -4.4797 -0.2833  0.7314
  693MOL0     H93548   9.758   1.979  11.069 -1.2073  0.3406 -1.5441
  693MOL0     H93549  10.020   2.090  10.985  0.5689 -2.0527  0.1358
  693MOL0     H93550   9.896   2.158  11.100 -1.2911  1.0078 -2.0311
  693MOL0     H93551  10.102   1.908  11.364  2.8881 -0.8445 -3.7293
  693MOL0     H93552   9.887   1.710  10.764 -0.9277  0.3169 -0.1877
  693MOL0     H93553  10.109   1.673  10.709  0.3647  1.9807 -0.3981
  693MOL0     H93554  10.074   1.580  10.556  0.6406 -1.5650  1.7981
  693MOL0     H93555  10.192   1.715  10.566 -0.4033 -1.4382 -0.3183
  694MOL0     O93556   0.054   5.647   4.235 -0.3885 -0.1368  0.4941
  694MOL0     C93557   0.088   5.547   4.170  0.1707 -0.1568  0.6805
  694MOL0     O93558  -0.003   5.459   4.112 -0.8596 -0.8063  0.2715
  694MOL0     C93559  -0.126   5.492   4.119 -0.2929  0.0491 -0.7478
  694MOL0     C93560  -0.198   5.465   4.237 -0.6891 -0.0661 -1.1346
  694MOL0     C93561  -0.333   5.489   4.234 -0.0610 -0.2724  0.1739
  694MOL0     C93562  -0.404   5.538   4.122  0.3500  0.1034  0.0939
  694MOL0     O93563  -0.538   5.528   4.136  0.1853  0.1734  0.3860
  694MOL0     C93564  -0.616   5.637   4.078 -0.2539 -0.2778 -0.9078
  694MOL0     C93565  -0.765   5.627   4.116 -0.0672  0.6062 -0.8567
  694MOL0     C93566  -0.828   5.489   4.098 -0.1897 -0.7248  0.8527
  694MOL0     C93567  -0.976   5.497   4.146 -0.0187  0.2531  0.7902
  694MOL0     C93568  -1.025   5.357   4.185  0.1167  0.0940  0.4269
  694MOL0     C93569  -1.176   5.360   4.208  0.5083  0.6771 -0.0996
  694MOL0     C93570  -1.230   5.219   4.231  0.7193  0.9391  0.0230
  694MOL0     C93571  -1.367   5.221   4.302 -0.2611 -0.5973 -0.0648
  694MOL0     N93572  -1.375   5.280   4.435  0.1839  0.0505 -0.2772
  694MOL0     C93573  -1.342   5.222   4.551  0.3278 -0.0623 -0.3707
  694MOL0     C93574  -1.379   5.286   4.658 -0.1275 -0.1166 -0.4750
  694MOL0     C93575  -1.382   5.237   4.803 -0.1628 -0.7173  0.3924
  694MOL0     C93576  -1.258   5.170   4.844  0.8229 -0.2629  0.8575
  694MOL0     C93577  -1.260   5.105   4.988  0.1679 -0.0769 -0.4946
  694MOL0     C93578  -1.133   5.013   5.018 -0.0071 -0.2320  0.3677
  694MOL0     O93579  -1.099   4.906   4.929 -0.1822  0.2802 -0.2082
  694MOL0     C93580  -1.200   4.818   4.901 -1.1157  1.2032 -0.3842
  694MOL0     C93581  -1.325   4.801   4.972 -0.8343 -0.9461 -0.2595
  694MOL0     C93582  -1.420   4.713   4.925  0.2642  0.5702  0.1559
  694MOL0     C93583  -1.395   4.629   4.819  0.5326 -0.2129 -0.9604
  694MOL0     C93584  -1.501   4.542   4.763  0.8652 -0.2793 -0.0223
  694MOL0     O93585  -1.473   4.463   4.655 -0.2958  0.7741  0.7747
  694MOL0     C93586  -1.551   4.354   4.615  0.1971 -0.7720 -1.1857
  694MOL0     C93587  -1.523   4.329   4.485 -0.2072 -0.1607  1.1202
  694MOL0     C93588  -1.597   4.225   4.426  0.2904  0.5772 -0.0759
  694MOL0     C93589  -1.682   4.145   4.496 -0.0275  0.1474  0.2251
  694MOL0     O93590  -1.736   4.026   4.442  0.4863 -0.5889  0.0437
  694MOL0     C93591  -1.881   4.012   4.454  0.0848  0.0107  0.6143
  694MOL0     C93592  -1.905   3.877   4.507 -0.4701 -0.2562 -0.2309
  694MOL0     C93593  -1.897   3.771   4.395 -0.0651 -1.3125 -0.0860
  694MOL0     C93594  -1.918   3.630   4.465  0.1854  0.0921  0.4843
  694MOL0     C93595  -1.857   3.502   4.401  0.9197  0.0056 -0.9172
  694MOL0     C93596  -1.957   3.397   4.342 -0.5376  0.4356  0.2648
  694MOL0     C93597  -2.047   3.430   4.221  0.7554 -0.8906 -1.2785
  694MOL0     C93598  -2.070   3.305   4.137 -0.0297  1.1790 -0.1725
  694MOL0    Cl93599  -2.208   3.192   4.204 -0.4670 -0.0075 -0.2166
  694MOL0     C93600  -1.719   4.177   4.629  0.3654 -0.2165 -0.3160
  694MOL0     C93601  -1.651   4.280   4.697 -0.5932 -0.0197  0.6460
  694MOL0     O93602  -1.609   4.549   4.819 -0.0147  0.7524 -0.3864
  694MOL0     C93603  -1.275   4.640   4.752  0.9132 -0.2712  0.6821
  694MOL0     C93604  -1.180   4.730   4.786  0.1109  0.6528 -0.6678
  694MOL0     N93605  -1.427   5.399   4.608 -0.4891 -0.4634  0.5070
  694MOL0     N93606  -1.416   5.398   4.479 -0.1369 -0.3677  0.0986
  694MOL0     C93607  -0.328   5.574   4.010 -0.2657 -0.2818 -0.2415
  694MOL0     C93608  -0.188   5.545   4.010  0.2084  0.0342  1.2027
  694MOL0     C93609   0.231   5.510   4.144 -0.3810 -0.9436 -0.0275
  694MOL0     C93610   0.269   5.382   4.089  0.1348 -0.5766  0.5904
  694MOL0     C93611   0.398   5.352   4.035 -0.1545 -0.6346  0.1436
  694MOL0     C93612   0.498   5.448   4.058  0.6868 -0.0945  1.3712
  694MOL0     O93613   0.625   5.401   4.032 -0.0591 -0.2758  0.0650
  694MOL0     C93614   0.746   5.455   4.079  0.1183  0.3265 -0.5108
  694MOL0     C93615   0.788   5.579   3.990  0.1069  0.1414  0.4412
  694MOL0     C93616   0.817   5.572   3.837  0.7011 -0.2044  0.0156
  694MOL0     C93617   0.913   5.451   3.827  0.0659 -0.3840  0.2922
  694MOL0     C93618   1.029   5.465   3.912 -1.3245  1.4438  0.2522
  694MOL0     C93619   1.122   5.450   3.991  0.0720 -0.5704  0.2794
  694MOL0     C93620   0.475   5.572   4.120  0.1321  0.3607  0.1278
  694MOL0     C93621   0.342   5.606   4.150  1.2786  0.5367 -0.3023
  694MOL0     C93622   0.316   5.740   4.208 -0.4039  0.8101  0.4335
  694MOL0     H93623  -0.139   5.430   4.321 -0.8286  0.7066 -0.7085
  694MOL0     H93624  -0.400   5.461   4.315 -1.6132 -0.8283 -1.2225
  694MOL0     H93625  -0.584   5.736   4.111 -3.5022  0.4788  0.3279
  694MOL0     H93626  -0.615   5.618   3.970  2.6591  2.9456 -1.6146
  694MOL0     H93627  -0.811   5.692   4.041  0.7054  0.3430 -1.5720
  694MOL0     H93628  -0.775   5.662   4.219  0.5707  1.1053 -0.9651
  694MOL0     H93629  -0.765   5.410   4.139  1.7728  0.4792  0.2621
  694MOL0     H93630  -0.825   5.468   3.991  0.4318 -1.6300  1.0395
  694MOL0     H93631  -0.991   5.552   4.239 -3.2349  0.3913  0.3160
  694MOL0     H93632  -1.039   5.549   4.073  1.7127 -0.1240 -1.0694
  694MOL0     H93633  -1.000   5.296   4.098  0.6953  2.8717 -1.5111
  694MOL0     H93634  -0.963   5.315   4.264 -1.0971 -0.1276  1.2842
  694MOL0     H93635  -1.179   5.414   4.303  2.5923 -1.0881  1.0582
  694MOL0     H93636  -1.224   5.421   4.131 -1.9874  0.9682  1.5635
  694MOL0     H93637  -1.164   5.162   4.297 -1.9454 -1.1248  1.0927
  694MOL0     H93638  -1.243   5.149   4.149  0.4009 -0.5513  1.3052
  694MOL0     H93639  -1.441   5.272   4.239 -2.8586 -1.1875  2.2818
  694MOL0     H93640  -1.420   5.125   4.306  1.6558 -1.6967 -0.2459
  694MOL0     H93641  -1.297   5.124   4.564 -0.3990 -0.8778 -3.3735
  694MOL0     H93642  -1.401   5.320   4.872  2.3637  0.0998  0.1847
  694MOL0     H93643  -1.456   5.156   4.801  1.0816 -1.8679 -0.8526
  694MOL0     H93644  -1.257   5.082   4.779 -2.2155 -0.1047  0.4711
  694MOL0     H93645  -1.187   5.252   4.832 -0.2596  0.9919  2.5214
  694MOL0     H93646  -1.355   5.052   4.993 -0.1973  0.6009 -0.2667
  694MOL0     H93647  -1.269   5.187   5.059 -0.8340 -0.2452 -0.4156
  694MOL0     H93648  -1.138   4.985   5.124  1.7021 -2.2151 -0.0223
  694MOL0     H93649  -1.043   5.075   5.013  0.2735 -0.7186 -3.4734
  694MOL0     H93650  -1.352   4.860   5.060 -0.5180 -3.2913  1.4908
  694MOL0     H93651  -1.516   4.707   4.974  0.5583  1.4857  0.8801
  694MOL0     H93652  -1.447   4.373   4.421  0.1656 -1.5448  0.5565
  694MOL0     H93653  -1.575   4.199   4.323 -0.4639 -2.7941  0.4798
  694MOL0     H93654  -1.913   4.093   4.520 -0.1698  0.2954  0.1428
  694MOL0     H93655  -1.937   4.012   4.360 -1.1734  1.7943  1.3058
  694MOL0     H93656  -1.824   3.842   4.571  0.8844  1.3392 -1.0061
  694MOL0     H93657  -1.999   3.876   4.563 -0.8193 -1.2568 -0.8189
  694MOL0     H93658  -1.970   3.779   4.314  1.6798  1.1716 -1.5963
  694MOL0     H93659  -1.795   3.777   4.354  0.0877  3.3175  0.3712
  694MOL0     H93660  -2.024   3.633   4.490  0.3093  3.9390  1.2449
  694MOL0     H93661  -1.862   3.641   4.559 -0.3693  0.9780  0.7330
  694MOL0     H93662  -1.805   3.450   4.482 -3.0303  2.4610  3.7349
  694MOL0     H93663  -1.784   3.510   4.320 -1.2628 -0.2917 -3.0324
  694MOL0     H93664  -1.897   3.310   4.315 -1.6375  0.1047 -1.2287
  694MOL0     H93665  -2.034   3.367   4.413 -2.4457  0.0357 -1.8482
  694MOL0     H93666  -1.990   3.502   4.163  0.0989  0.7782  0.0772
  694MOL0     H93667  -2.132   3.487   4.259  1.4287 -0.9236  0.3661
  694MOL0     H93668  -2.103   3.351   4.043 -0.2428 -0.8961 -1.1684
  694MOL0     H93669  -1.986   3.236   4.127 -0.4350  0.7291 -0.5475
  694MOL0     H93670  -1.787   4.126   4.697 -0.8079  2.9587  1.1266
  694MOL0     H93671  -1.666   4.303   4.802  0.0476 -2.0507  1.2289
  694MOL0     H93672  -1.259   4.567   4.673 -3.8055 -0.4836 -0.3860
  694MOL0     H93673  -1.091   4.742   4.725 -0.5568 -1.8188 -2.2688
  694MOL0     H93674  -0.379   5.610   3.921 -0.2086  1.9933  0.5616
  694MOL0     H93675  -0.149   5.561   3.910  0.3998  0.7196  1.3867
  694MOL0     H93676   0.185   5.313   4.079  0.7537 -1.3999  0.9519
  694MOL0     H93677   0.410   5.267   3.969 -3.4530 -1.3214  0.2647
  694MOL0     H93678   0.823   5.377   4.089 -1.4629 -0.9856  3.2700
  694MOL0     H93679   0.721   5.478   4.183  0.2256 -0.4721 -0.3004
  694MOL0     H93680   0.873   5.623   4.042 -0.7293  2.4955 -0.0668
  694MOL0     H93681   0.703   5.648   3.988  1.2350  1.6302 -2.9660
  694MOL0     H93682   0.869   5.664   3.807  0.0173  0.7939  1.7076
  694MOL0     H93683   0.721   5.563   3.784 -1.2531  4.3501  2.1596
  694MOL0     H93684   0.856   5.359   3.838 -1.4037  0.3396 -0.8995
  694MOL0     H93685   0.942   5.450   3.721 -0.4932 -2.1622  0.1302
  694MOL0     H93686   1.191   5.433   4.072 -2.8414 -1.0325  2.8326
  694MOL0     H93687   0.551   5.647   4.141 -0.6494  1.4113 -0.6466
  694MOL0     H93688   0.405   5.803   4.209 -1.1828  2.0629  3.6275
  694MOL0     H93689   0.234   5.785   4.151  0.6432  1.2553 -0.7695
  694MOL0     H93690   0.287   5.743   4.313 -1.0029  0.6641  0.2742
  695MOL0     O93691  10.683   2.877   8.871  0.0777  0.3882  0.1216
  695MOL0     C93692  10.640   2.956   8.784  0.0535 -1.1195 -0.0499
  695MOL0     O93693  10.670   2.955   8.651 -0.0515  0.1146  0.0489
  695MOL0     C93694  10.741   2.841   8.606 -0.3313  0.4326 -0.7735
  695MOL0     C93695  10.683   2.761   8.508 -0.0111 -0.4982 -0.7015
  695MOL0     C93696  10.764   2.673   8.442 -0.5045  0.7100  0.2808
  695MOL0     C93697  10.897   2.649   8.482  1.0183  0.3794 -0.2618
  695MOL0     O93698  10.971   2.564   8.408  0.1227  0.3330  0.1289
  695MOL0     C93699  10.943   2.427   8.421 -0.0665  0.2066  0.0500
  695MOL0     C93700  10.914   2.368   8.286  0.1580  0.0429  0.1379
  695MOL0     C93701  10.934   2.220   8.278 -0.5114  0.0173  0.3479
  695MOL0     C93702  10.862   2.142   8.173 -0.2048  0.6598  0.6791
  695MOL0     C93703  10.913   2.170   8.029  0.3839  0.6887  0.2303
  695MOL0     C93704  10.843   2.293   7.961 -0.0499 -0.4352 -0.9656
  695MOL0     C93705  10.858   2.289   7.815  0.0873 -0.2768 -0.1092
  695MOL0     C93706  11.004   2.308   7.764  0.6506  1.0923 -0.4194
  695MOL0     N93707  10.997   2.351   7.620  0.8982 -0.0945 -0.9600
  695MOL0     C93708  10.953   2.283   7.515  0.2891  0.1716  0.8053
  695MOL0     C93709  10.962   2.371   7.416  0.4966 -0.7098  1.0493
  695MOL0     C93710  10.881   2.344   7.292  1.1668 -0.9107  0.6212
  695MOL0     C93711  10.955   2.251   7.197  0.4297  0.5232 -0.1938
  695MOL0     C93712  10.876   2.258   7.063  0.5771 -0.0651 -1.0669
  695MOL0     C93713  10.735   2.187   7.074  0.0514  0.1401 -0.0341
  695MOL0     O93714  10.763   2.058   7.133  0.2273  0.1028  0.7108
  695MOL0     C93715  10.665   1.964   7.140 -0.3751 -0.7803  0.0525
  695MOL0     C93716  10.539   1.974   7.087  0.1146  0.7559 -0.3393
  695MOL0     C93717  10.450   1.863   7.104 -0.3203  0.1295 -1.1689
  695MOL0     C93718  10.486   1.742   7.170 -0.4981  0.4069  0.0924
  695MOL0     C93719  10.409   1.610   7.167  0.4008 -0.5483 -0.1721
  695MOL0     O93720  10.463   1.506   7.226 -0.7291  0.2780  0.4564
  695MOL0     C93721  10.411   1.375   7.242  0.0450  0.0770 -0.4164
  695MOL0     C93722  10.499   1.271   7.292 -0.9385  0.4731  0.5032
  695MOL0     C93723  10.438   1.155   7.328  0.6290  1.5090  1.0033
  695MOL0     C93724  10.303   1.135   7.309  0.0644  0.8311  0.1388
  695MOL0     O93725  10.257   1.008   7.346 -0.1377  0.0075  0.4742
  695MOL0     C93726  10.136   0.998   7.423 -0.5904 -0.4558  0.0582
  695MOL0     C93727  10.073   0.864   7.378  0.8305 -0.8649  0.3337
  695MOL0     C93728  10.141   0.740   7.422  0.1729 -0.4802 -0.8152
  695MOL0     C93729  10.103   0.691   7.561  0.0662  0.2461 -0.6840
  695MOL0     C93730  10.167   0.548   7.598 -0.6994  0.3925  0.5403
  695MOL0     C93731  10.296   0.586   7.667 -0.3233  0.0410  0.3664
  695MOL0     C93732  10.360   0.451   7.716 -0.0995  0.0227  0.2776
  695MOL0     C93733  10.512   0.451   7.722 -0.0828  0.2463 -0.0809
  695MOL0    Cl93734  10.574   0.447   7.560  0.4935 -0.1902  0.1225
  695MOL0     C93735  10.218   1.220   7.251  0.9002 -0.3043 -0.1319
  695MOL0     C93736  10.277   1.345   7.221  0.7104 -0.0802  0.5069
  695MOL0     O93737  10.298   1.614   7.101 -0.2000 -0.0028 -0.5642
  695MOL0     C93738  10.612   1.743   7.231  0.1000 -0.6465 -0.2021
  695MOL0     C93739  10.692   1.854   7.220 -0.0680 -0.5043 -0.5854
  695MOL0     N93740  11.012   2.490   7.459  0.0888 -0.3137  0.0468
  695MOL0     N93741  11.031   2.481   7.584 -0.1935  0.3105  0.2680
  695MOL0     C93742  10.957   2.731   8.575  0.1812 -0.5661  0.7778
  695MOL0     C93743  10.880   2.828   8.634 -0.6514  0.1066  0.4767
  695MOL0     C93744  10.568   3.084   8.833 -0.6186  0.3630 -0.8188
  695MOL0     C93745  10.627   3.207   8.800 -0.4711  0.3983 -0.8866
  695MOL0     C93746  10.565   3.324   8.858  0.7696 -0.0829 -0.3076
  695MOL0     C93747  10.456   3.316   8.952 -0.1701 -0.7562  0.2646
  695MOL0     O93748  10.406   3.442   9.002 -0.2743  0.0082 -0.2181
  695MOL0     C93749  10.318   3.452   9.115 -0.6358 -0.3463  1.2942
  695MOL0     C93750  10.374   3.448   9.251  0.1461 -0.6535  0.1564
  695MOL0     C93751  10.497   3.359   9.299  0.5746 -0.3211  0.3944
  695MOL0     C93752  10.632   3.397   9.240 -1.1382 -0.2714  0.7179
  695MOL0     C93753  10.668   3.528   9.282  0.8134  0.3882  0.1618
  695MOL0     C93754  10.696   3.634   9.332 -0.2023  0.4460  0.0781
  695MOL0     C93755  10.414   3.194   8.995  0.7556  0.2125  0.8078
  695MOL0     C93756  10.466   3.079   8.928  0.6769  0.6714 -0.5262
  695MOL0     C93757  10.404   2.946   8.985 -0.8735 -0.4815  0.6893
  695MOL0     H93758  10.584   2.770   8.463  0.1279  0.0782 -0.8958
  695MOL0     H93759  10.727   2.610   8.362 -0.3066  0.2605  0.5383
  695MOL0     H93760  11.042   2.393   8.451  0.0955 -1.5000 -2.2019
  695MOL0     H93761  10.866   2.404   8.495 -0.8107  1.6646 -0.2400
  695MOL0     H93762  10.983   2.418   8.217 -1.2459  1.6914 -0.1268
  695MOL0     H93763  10.814   2.387   8.246  0.9133 -0.5866 -2.2355
  695MOL0     H93764  10.897   2.184   8.375 -0.2307  1.0677  0.8620
  695MOL0     H93765  11.040   2.195   8.267 -0.3932  0.9773 -0.8973
  695MOL0     H93766  10.894   2.037   8.178  0.0164  0.6956  0.0521
  695MOL0     H93767  10.754   2.158   8.182 -0.1149  0.8492  1.5212
  695MOL0     H93768  11.022   2.167   8.016  0.4758  0.1528  1.0411
  695MOL0     H93769  10.881   2.079   7.978  0.1108  0.9219 -0.0168
  695MOL0     H93770  10.739   2.289   7.994  1.4072 -1.3636  4.4458
  695MOL0     H93771  10.898   2.377   8.005  1.3336 -2.4893  1.5029
  695MOL0     H93772  10.805   2.380   7.786  0.3606  0.7233  2.3260
  695MOL0     H93773  10.799   2.208   7.773 -3.0885  0.5671  2.3091
  695MOL0     H93774  11.053   2.389   7.819  0.7088  0.9311 -0.2348
  695MOL0     H93775  11.062   2.216   7.768  0.5919  0.6811  7.4937
  695MOL0     H93776  10.918   2.182   7.499  0.3315 -0.0402  1.9388
  695MOL0     H93777  10.781   2.305   7.314 -0.5608  3.9106  2.5645
  695MOL0     H93778  10.868   2.441   7.244  0.2511 -1.0402  0.5840
  695MOL0     H93779  11.059   2.281   7.182  1.8104 -2.9681  1.3859
  695MOL0     H93780  10.960   2.148   7.231  0.4404 -0.4671 -2.9903
  695MOL0     H93781  10.944   2.210   6.991  4.6726  2.2746  0.8578
  695MOL0     H93782  10.867   2.366   7.055 -0.1114  0.3906  3.4501
  695MOL0     H93783  10.702   2.177   6.970 -1.2094 -0.1111  0.3711
  695MOL0     H93784  10.662   2.239   7.137 -1.1884 -2.1760  0.5697
  695MOL0     H93785  10.510   2.061   7.029  0.6318  0.0937 -1.6263
  695MOL0     H93786  10.350   1.860   7.063 -1.1418 -0.9305  0.8024
  695MOL0     H93787  10.605   1.279   7.313 -1.3801  0.6823  2.9374
  695MOL0     H93788  10.488   1.063   7.357 -0.7591  0.0283 -1.0282
  695MOL0     H93789  10.158   0.999   7.530  0.4736  2.0608 -0.1012
  695MOL0     H93790  10.080   1.090   7.404  1.0421 -0.0694 -3.9622
  695MOL0     H93791   9.968   0.867   7.410 -0.0119  0.6319 -2.2421
  695MOL0     H93792  10.079   0.873   7.269  2.1823 -0.0041  0.4648
  695MOL0     H93793  10.112   0.666   7.347  1.9143 -0.3755 -1.6379
  695MOL0     H93794  10.247   0.765   7.424 -0.0963  0.7154  0.7930
  695MOL0     H93795   9.995   0.681   7.571  0.2935 -0.1537  1.8819
  695MOL0     H93796  10.126   0.769   7.634 -0.0053  1.6508 -2.0923
  695MOL0     H93797  10.181   0.500   7.501  0.4675 -1.2591  1.4808
  695MOL0     H93798  10.109   0.493   7.673 -0.3140  1.0035  1.3111
  695MOL0     H93799  10.360   0.636   7.594 -1.1735 -0.6861 -0.9051
  695MOL0     H93800  10.287   0.650   7.755 -0.1823 -0.9440  1.1199
  695MOL0     H93801  10.335   0.367   7.651  1.6696 -0.0610 -0.3321
  695MOL0     H93802  10.333   0.436   7.821 -0.1779 -0.5008  0.1858
  695MOL0     H93803  10.552   0.545   7.762  3.2063 -0.5427 -1.2346
  695MOL0     H93804  10.550   0.371   7.786 -0.5257 -0.3195 -0.5203
  695MOL0     H93805  10.116   1.188   7.238  0.7184  0.8565 -1.8385
  695MOL0     H93806  10.207   1.411   7.170 -1.9985 -2.0861  1.3504
  695MOL0     H93807  10.646   1.652   7.280 -0.1618 -0.3999  0.4480
  695MOL0     H93808  10.788   1.857   7.270 -0.2092 -0.2817 -0.3253
  695MOL0     H93809  11.064   2.716   8.579  0.7446 -0.5795 -5.3693
  695MOL0     H93810  10.932   2.887   8.709 -0.8420  3.3796 -1.7335
  695MOL0     H93811  10.718   3.208   8.742 -1.4891 -3.0094 -2.7690
  695MOL0     H93812  10.600   3.419   8.819 -1.5156 -0.4015 -3.5042
  695MOL0     H93813  10.252   3.365   9.113  1.3785 -1.9565  1.2903
  695MOL0     H93814  10.262   3.546   9.103 -0.9762 -0.4425  2.0301
  695MOL0     H93815  10.286   3.418   9.309 -0.0380  0.9234  0.7571
  695MOL0     H93816  10.395   3.549   9.289 -0.0430 -0.7511  0.5213
  695MOL0     H93817  10.478   3.255   9.272  1.6952  0.1562 -2.6046
  695MOL0     H93818  10.497   3.363   9.408 -0.0546 -2.3902  0.5172
  695MOL0     H93819  10.712   3.329   9.270 -2.3600 -2.3315 -0.4284
  695MOL0     H93820  10.631   3.384   9.131 -3.0321  2.7266  0.2535
  695MOL0     H93821  10.694   3.734   9.371 -2.4444  1.2036 -1.7718
  695MOL0     H93822  10.334   3.178   9.066 -0.6510 -0.4980 -0.8636
  695MOL0     H93823  10.387   2.943   9.093  0.8346  0.5474  1.0316
  695MOL0     H93824  10.301   2.945   8.950 -1.2485 -1.4218  1.7750
  695MOL0     H93825  10.466   2.861   8.957 -0.8956 -0.3614  0.2706
  696MOL0     O93826   7.520   3.309   5.369  0.0187 -0.0924  0.3868
  696MOL0     C93827   7.479   3.201   5.407 -0.4548  0.7507  0.6855
  696MOL0     O93828   7.363   3.178   5.480 -0.2197 -0.3036  0.3942
  696MOL0     C93829   7.294   3.273   5.552 -1.1475 -0.4170 -0.5712
  696MOL0     C93830   7.156   3.272   5.558 -0.1496  0.5548  0.5832
  696MOL0     C93831   7.082   3.374   5.628 -0.1887 -0.2500 -0.3431
  696MOL0     C93832   7.156   3.472   5.695  0.1799 -0.1119  0.5422
  696MOL0     O93833   7.096   3.576   5.764  0.7644  0.1310 -0.3321
  696MOL0     C93834   7.129   3.580   5.905  0.2028 -1.0033 -0.6533
  696MOL0     C93835   7.134   3.723   5.945  0.7400 -0.1596  0.1733
  696MOL0     C93836   7.170   3.725   6.096  0.1287 -0.5656 -0.4338
  696MOL0     C93837   7.181   3.882   6.143  0.5222  0.7388  0.0767
  696MOL0     C93838   7.224   3.900   6.286 -0.8043 -0.0905  0.3705
  696MOL0     C93839   7.247   4.042   6.313 -0.8265 -0.3444 -0.1071
  696MOL0     C93840   7.302   4.061   6.454  0.6253 -0.3054 -0.6771
  696MOL0     C93841   7.374   4.190   6.485 -0.4691 -0.0019  0.7642
  696MOL0     N93842   7.516   4.210   6.435 -0.1165 -0.1774  0.3268
  696MOL0     C93843   7.578   4.132   6.334  0.3338  0.1878 -0.8490
  696MOL0     C93844   7.690   4.194   6.309 -0.3059 -0.3247 -0.2005
  696MOL0     C93845   7.790   4.162   6.195 -1.4310  0.0774  0.5069
  696MOL0     C93846   7.832   4.284   6.116 -1.0916  0.2810 -0.0480
  696MOL0     C93847   7.895   4.250   5.980  0.1787  0.5152 -0.1548
  696MOL0     C93848   7.934   4.372   5.895 -0.3184 -0.1589 -0.4662
  696MOL0     O93849   8.046   4.445   5.950  0.2808  0.4096  0.6236
  696MOL0     C93850   8.169   4.382   5.985 -0.2774 -0.9099 -0.2912
  696MOL0     C93851   8.221   4.421   6.112 -0.4700 -0.9899  0.0425
  696MOL0     C93852   8.322   4.352   6.175  0.4329  0.9671  0.7459
  696MOL0     C93853   8.380   4.249   6.098  1.6705  0.2901 -0.3113
  696MOL0     C93854   8.503   4.185   6.149 -0.3785  0.5194  0.1807
  696MOL0     O93855   8.522   4.048   6.105  0.2570  0.0923 -0.0309
  696MOL0     C93856   8.641   3.987   6.115 -0.2416  0.6042 -1.0906
  696MOL0     C93857   8.662   3.880   6.211 -0.3552  0.3799 -0.5016
  696MOL0     C93858   8.777   3.801   6.207 -0.4445  0.2760 -0.2913
  696MOL0     C93859   8.864   3.808   6.103 -0.9000  0.6984  0.3874
  696MOL0     O93860   8.976   3.735   6.089  0.0053 -0.3925 -0.4395
  696MOL0     C93861   8.977   3.597   6.129 -0.1322 -0.1886  0.2471
  696MOL0     C93862   9.092   3.521   6.071  0.1442  0.6421  0.1641
  696MOL0     C93863   9.087   3.375   6.091  0.1012  0.1085 -0.6057
  696MOL0     C93864   8.966   3.305   6.034 -0.4391  0.0491 -0.3877
  696MOL0     C93865   8.979   3.152   6.066  0.2104 -0.8116  0.0961
  696MOL0     C93866   8.839   3.082   6.045 -0.4139  1.2695  0.0250
  696MOL0     C93867   8.812   3.048   5.893  0.8848  0.0875  0.5026
  696MOL0     C93868   8.667   2.983   5.874  0.0634 -0.0712  0.2282
  696MOL0    Cl93869   8.539   3.109   5.889  0.1773  0.3489  0.4440
  696MOL0     C93870   8.843   3.906   6.013  0.1588 -0.1946 -0.1836
  696MOL0     C93871   8.737   3.998   6.022  0.1345  0.7457  0.4163
  696MOL0     O93872   8.583   4.248   6.213 -0.3288 -1.0821 -0.1961
  696MOL0     C93873   8.328   4.211   5.972  0.3022  0.6844  0.2310
  696MOL0     C93874   8.221   4.279   5.922 -0.6736 -0.8688  0.7145
  696MOL0     N93875   7.719   4.295   6.402  0.0689  1.3200 -0.0217
  696MOL0     N93876   7.611   4.298   6.475 -0.1416  0.3920 -0.6263
  696MOL0     C93877   7.301   3.482   5.674  0.3260 -1.0310  0.0239
  696MOL0     C93878   7.369   3.384   5.600 -0.5823 -0.1383 -0.2836
  696MOL0     C93879   7.563   3.094   5.356  0.0116  0.1743 -0.9691
  696MOL0     C93880   7.526   2.965   5.419  0.1313 -0.7713 -0.3054
  696MOL0     C93881   7.599   2.853   5.394 -0.6097  0.4292  0.1213
  696MOL0     C93882   7.696   2.849   5.293 -1.1936 -0.1764  0.1015
  696MOL0     O93883   7.749   2.728   5.262  0.0762  0.0428 -0.1904
  696MOL0     C93884   7.769   2.687   5.122  0.4070  0.6228  0.2830
  696MOL0     C93885   7.851   2.561   5.124  0.2624  0.0276  0.4101
  696MOL0     C93886   7.898   2.536   4.978 -0.6529  0.0456  0.5728
  696MOL0     C93887   8.039   2.455   4.990  0.2347  0.3259  0.5974
  696MOL0     C93888   8.014   2.327   5.055 -0.2346 -0.8889  0.3620
  696MOL0     C93889   8.009   2.236   5.125 -0.3548  0.9659 -0.2280
  696MOL0     C93890   7.729   2.972   5.239 -0.3984 -0.2751 -0.8268
  696MOL0     C93891   7.670   3.095   5.269 -0.1701 -0.3232 -0.2789
  696MOL0     C93892   7.715   3.214   5.185  0.2510  0.1164  0.2634
  696MOL0     H93893   7.098   3.192   5.512  0.0556  2.6502 -3.8122
  696MOL0     H93894   6.974   3.376   5.638 -0.5968 -1.2269 -3.3031
  696MOL0     H93895   7.043   3.542   5.961 -1.2733  1.7580 -0.8962
  696MOL0     H93896   7.220   3.527   5.932  0.3970  0.0536  0.8599
  696MOL0     H93897   7.033   3.760   5.925  0.3600 -2.2096 -2.1786
  696MOL0     H93898   7.198   3.782   5.879  1.6754 -0.3746  0.8725
  696MOL0     H93899   7.269   3.682   6.107  0.4899  0.1990 -0.6198
  696MOL0     H93900   7.096   3.677   6.161  3.5178 -1.0222  3.4692
  696MOL0     H93901   7.262   3.922   6.081 -0.3574  0.8423 -1.0359
  696MOL0     H93902   7.084   3.930   6.129  0.1523  0.3553  1.2096
  696MOL0     H93903   7.157   3.861   6.363 -0.7764 -1.5812 -0.3136
  696MOL0     H93904   7.323   3.855   6.294 -0.8526 -0.5678 -1.3441
  696MOL0     H93905   7.309   4.085   6.234 -1.5427 -0.8717 -0.9834
  696MOL0     H93906   7.156   4.103   6.303 -0.7248 -0.2593 -0.5568
  696MOL0     H93907   7.374   3.983   6.481 -0.4583 -0.2741  2.8472
  696MOL0     H93908   7.221   4.070   6.527 -1.0394  1.4033 -2.5990
  696MOL0     H93909   7.324   4.268   6.427  1.3741  0.4059 -0.3854
  696MOL0     H93910   7.358   4.225   6.588 -0.8474  0.4702  0.5519
  696MOL0     H93911   7.537   4.043   6.287  0.4689 -1.1939  1.5148
  696MOL0     H93912   7.879   4.117   6.239 -1.5753 -0.7342 -0.0077
  696MOL0     H93913   7.746   4.088   6.128  0.7586 -0.9209  0.0776
  696MOL0     H93914   7.751   4.355   6.099  0.8009  1.9034 -3.5574
  696MOL0     H93915   7.915   4.341   6.159 -1.3127  1.7561 -1.4886
  696MOL0     H93916   7.818   4.193   5.928 -1.4430  0.5724  2.0464
  696MOL0     H93917   7.985   4.189   5.989 -0.2579 -0.0892  0.1762
  696MOL0     H93918   7.851   4.443   5.883 -1.6258 -1.1580  2.0760
  696MOL0     H93919   7.967   4.328   5.800  1.0522 -1.1020  0.4180
  696MOL0     H93920   8.172   4.505   6.161 -2.3845 -1.4618 -0.9792
  696MOL0     H93921   8.377   4.382   6.264  1.3125 -1.1161  0.9795
  696MOL0     H93922   8.590   3.862   6.290 -0.4247  0.7624 -0.4776
  696MOL0     H93923   8.798   3.739   6.293 -2.0069  0.9439  0.6210
  696MOL0     H93924   8.988   3.600   6.237  2.0368  1.0125  0.0352
  696MOL0     H93925   8.884   3.551   6.095  0.3222 -0.1789 -1.0704
  696MOL0     H93926   9.104   3.544   5.965  1.3434  1.0213  0.3660
  696MOL0     H93927   9.188   3.547   6.117 -0.1999  0.2342  1.1428
  696MOL0     H93928   9.178   3.331   6.050  1.1735  1.9983 -0.3756
  696MOL0     H93929   9.093   3.363   6.199  0.8461 -2.1487 -0.8434
  696MOL0     H93930   8.961   3.325   5.927  6.2081  0.7093 -1.0177
  696MOL0     H93931   8.873   3.331   6.086 -1.2566 -1.6776 -0.9313
  696MOL0     H93932   9.017   3.141   6.169  1.6698 -0.4808 -0.3809
  696MOL0     H93933   9.058   3.109   6.004  0.5139  1.3981 -1.1486
  696MOL0     H93934   8.845   2.989   6.101  2.2287  1.1493 -0.3460
  696MOL0     H93935   8.753   3.135   6.087 -0.6317 -1.4724  3.4886
  696MOL0     H93936   8.886   2.970   5.874  1.9175  1.4001 -1.1290
  696MOL0     H93937   8.824   3.132   5.825 -1.0199 -2.6936 -3.7116
  696MOL0     H93938   8.662   2.952   5.769  2.1240 -0.2982  0.1511
  696MOL0     H93939   8.652   2.897   5.940  0.8331 -1.4365 -1.3039
  696MOL0     H93940   8.898   3.910   5.919 -4.6721 -1.8945 -3.4768
  696MOL0     H93941   8.719   4.080   5.953  2.1445 -1.2380 -2.7648
  696MOL0     H93942   8.379   4.132   5.918  2.5630  2.9137 -1.1223
  696MOL0     H93943   8.188   4.255   5.821 -3.3672 -1.3722  1.6465
  696MOL0     H93944   7.343   3.572   5.719  1.5929 -1.7873  0.3927
  696MOL0     H93945   7.477   3.385   5.598 -0.5762  0.5151  0.1219
  696MOL0     H93946   7.444   2.949   5.489  0.2438  0.1823  0.0573
  696MOL0     H93947   7.557   2.761   5.432 -0.4768  0.8134  1.2519
  696MOL0     H93948   7.823   2.757   5.058 -0.0232 -0.7799 -1.7196
  696MOL0     H93949   7.671   2.661   5.081  0.5779 -0.4452  0.5150
  696MOL0     H93950   7.797   2.477   5.170 -1.8873  0.7654 -0.6283
  696MOL0     H93951   7.932   2.588   5.192  0.8824  0.9125 -0.6646
  696MOL0     H93952   7.921   2.635   4.939 -0.3456  0.3065  1.3963
  696MOL0     H93953   7.826   2.488   4.910  0.6878  0.2810 -1.0665
  696MOL0     H93954   8.079   2.434   4.890  0.9847  1.6880  0.5985
  696MOL0     H93955   8.120   2.514   5.034  0.3114  4.0539 -3.8385
  696MOL0     H93956   7.983   2.154   5.188  0.3726  0.4302 -0.6187
  696MOL0     H93957   7.816   2.979   5.174 -0.8009  2.0699 -1.2238
  696MOL0     H93958   7.782   3.183   5.105 -0.5551 -2.1323  0.4019
  696MOL0     H93959   7.630   3.268   5.141  0.7536  0.0096 -0.8506
  696MOL0     H93960   7.775   3.268   5.259 -2.3116 -2.2281  4.4386
  697MOL0     O93961   3.118   9.031   5.630  0.4172  0.2036  0.7216
  697MOL0     C93962   3.184   9.125   5.662 -1.3838 -0.1554  0.4254
  697MOL0     O93963   3.218   9.151   5.796  0.2002 -0.8987  0.3562
  697MOL0     C93964   3.178   9.063   5.883 -0.4556  0.1614 -0.2805
  697MOL0     C93965   3.059   9.072   5.957  0.3606 -0.3885 -0.0962
  697MOL0     C93966   3.024   8.976   6.063  0.4381 -0.2815 -0.7988
  697MOL0     C93967   3.112   8.877   6.087 -0.2556 -0.3335 -0.4751
  697MOL0     O93968   3.100   8.777   6.180  0.7722  0.2836  0.3763
  697MOL0     C93969   2.967   8.758   6.235 -0.2149  0.6266 -0.5843
  697MOL0     C93970   2.955   8.636   6.334 -0.4963  0.3111  0.1973
  697MOL0     C93971   2.938   8.504   6.256 -0.7137  0.0684 -0.5726
  697MOL0     C93972   3.062   8.455   6.190  0.8425  0.1100 -0.5301
  697MOL0     C93973   3.051   8.306   6.180 -0.4474 -0.2012  0.9043
  697MOL0     C93974   3.164   8.261   6.082  0.2825 -0.1156  0.7400
  697MOL0     C93975   3.196   8.111   6.077  0.3109  0.5593  0.0731
  697MOL0     C93976   3.284   8.064   5.955 -0.6577  0.0843  0.3467
  697MOL0     N93977   3.428   8.078   5.980  0.3234 -0.1839 -0.5877
  697MOL0     C93978   3.517   8.011   5.911  0.1483 -0.6383 -0.7950
  697MOL0     C93979   3.633   8.021   5.973 -0.8534  0.1977 -0.3191
  697MOL0     C93980   3.772   7.983   5.927  0.0971 -0.9865 -0.5877
  697MOL0     C93981   3.791   7.836   5.890 -0.6465  0.0297  0.4729
  697MOL0     C93982   3.709   7.808   5.767  0.2736 -0.3395 -0.9370
  697MOL0     C93983   3.812   7.764   5.659  0.0617  0.2143 -1.0239
  697MOL0     O93984   3.869   7.642   5.718  1.1283 -0.8624 -0.1022
  697MOL0     C93985   3.810   7.515   5.682 -0.4613 -0.5203  0.5948
  697MOL0     C93986   3.731   7.492   5.575 -0.0235 -0.0488  0.2054
  697MOL0     C93987   3.691   7.358   5.540 -0.0382  0.4144  0.1503
  697MOL0     C93988   3.715   7.247   5.623  0.6677  0.7024  0.0538
  697MOL0     C93989   3.654   7.113   5.591  0.0169 -0.0514 -0.7452
  697MOL0     O93990   3.565   7.106   5.486 -0.0945 -0.2454 -0.0831
  697MOL0     C93991   3.479   7.004   5.481 -0.4591  0.1091 -0.9702
  697MOL0     C93992   3.343   7.017   5.498  0.8505 -0.2519  0.4405
  697MOL0     C93993   3.258   6.907   5.509  1.2051 -0.3247  0.6420
  697MOL0     C93994   3.302   6.779   5.472  0.0004 -0.4638  0.9544
  697MOL0     O93995   3.212   6.672   5.470 -1.0016 -0.4279 -0.2382
  697MOL0     C93996   3.249   6.537   5.438 -0.1238 -0.3957  0.8183
  697MOL0     C93997   3.254   6.489   5.291  0.9708 -0.3893  0.0129
  697MOL0     C93998   3.293   6.335   5.276  0.3952 -0.6022 -0.7751
  697MOL0     C93999   3.259   6.282   5.130 -0.4283  1.0237 -0.4024
  697MOL0     C94000   3.273   6.134   5.135 -0.3644 -0.0704 -0.4385
  697MOL0     C94001   3.342   6.097   4.995  0.0826 -0.7266 -0.7080
  697MOL0     C94002   3.348   5.945   4.951  0.3961 -0.7204 -0.1254
  697MOL0     C94003   3.416   5.855   5.052 -0.1941 -0.0979  0.7365
  697MOL0    Cl94004   3.430   5.680   4.998  0.2354  0.3672 -0.3473
  697MOL0     C94005   3.438   6.771   5.422  0.3762  1.1294 -0.6285
  697MOL0     C94006   3.526   6.878   5.427 -1.2518 -0.4639 -0.4670
  697MOL0     O94007   3.667   7.021   5.677  1.0696  0.1585  0.3587
  697MOL0     C94008   3.786   7.274   5.737 -0.2617 -0.2366 -0.3131
  697MOL0     C94009   3.843   7.401   5.758  0.0377  0.5628 -1.6662
  697MOL0     N94010   3.607   8.104   6.082 -0.6818  0.5607  0.0905
  697MOL0     N94011   3.490   8.143   6.084 -0.0203  0.3980  0.5944
  697MOL0     C94012   3.231   8.863   6.009  0.1573  1.4372  0.0392
  697MOL0     C94013   3.264   8.954   5.915 -0.4190  0.4504 -0.0819
  697MOL0     C94014   3.236   9.224   5.556 -1.4287  0.1562 -0.2858
  697MOL0     C94015   3.282   9.354   5.606  0.1955 -1.0291  0.1420
  697MOL0     C94016   3.326   9.452   5.513 -0.8631  0.7576  0.6186
  697MOL0     C94017   3.320   9.422   5.373  0.3608  0.1805  0.3358
  697MOL0     O94018   3.350   9.535   5.303  0.7856 -0.8866  1.0316
  697MOL0     C94019   3.333   9.519   5.157  0.9163  0.3171  0.1635
  697MOL0     C94020   3.448   9.456   5.083 -0.2740  0.2286  0.2019
  697MOL0     C94021   3.578   9.532   5.105 -0.2015  0.5719  0.7256
  697MOL0     C94022   3.702   9.451   5.069 -0.9951  1.3052 -1.3110
  697MOL0     C94023   3.825   9.523   5.108  0.0441 -0.9846  0.1537
  697MOL0     C94024   3.930   9.586   5.136 -0.0424  0.9129 -0.1447
  697MOL0     C94025   3.268   9.295   5.329  1.1517  0.2425  0.4012
  697MOL0     C94026   3.239   9.193   5.418 -0.4376 -0.2414  0.3450
  697MOL0     C94027   3.199   9.064   5.351 -1.0609  0.1955  0.4957
  697MOL0     H94028   2.985   9.148   5.935  0.3015 -0.0356  1.2353
  697MOL0     H94029   2.924   8.971   6.106  0.9412 -0.1019  0.3969
  697MOL0     H94030   2.924   8.843   6.289 -0.2467  0.9670 -1.1367
  697MOL0     H94031   2.892   8.743   6.157 -1.2322  1.8248  0.1201
  697MOL0     H94032   2.864   8.653   6.391 -0.5154  0.5087  0.1095
  697MOL0     H94033   3.043   8.647   6.399 -0.1034 -0.6963 -0.1468
  697MOL0     H94034   2.855   8.504   6.185  0.9848 -0.8112 -2.6631
  697MOL0     H94035   2.896   8.439   6.334  2.0704 -0.0759  0.9473
  697MOL0     H94036   3.072   8.490   6.087  0.3322 -0.4568 -0.7803
  697MOL0     H94037   3.154   8.480   6.244  0.7355  3.6136 -1.7281
  697MOL0     H94038   3.076   8.241   6.264  2.5396  0.3953  0.6116
  697MOL0     H94039   2.950   8.279   6.149 -1.3342  2.7436  0.9727
  697MOL0     H94040   3.143   8.290   5.979 -1.4824 -2.6575  0.2844
  697MOL0     H94041   3.259   8.310   6.103  1.4726 -1.4003 -1.2366
  697MOL0     H94042   3.108   8.045   6.078  0.5625  0.2148 -0.1252
  697MOL0     H94043   3.254   8.085   6.166  1.6962 -1.0375 -1.2305
  697MOL0     H94044   3.274   7.957   5.934 -0.8052  0.4185 -1.4158
  697MOL0     H94045   3.253   8.107   5.860  0.8923 -0.2230 -0.3342
  697MOL0     H94046   3.500   7.964   5.815 -0.2198  1.0682 -1.5905
  697MOL0     H94047   3.795   8.038   5.835 -0.7952  2.2286  0.9667
  697MOL0     H94048   3.848   8.002   6.003  0.4919  1.6127 -1.5311
  697MOL0     H94049   3.897   7.826   5.867 -0.9328 -2.5292 -0.0223
  697MOL0     H94050   3.754   7.774   5.973 -1.0594 -3.4993 -2.1107
  697MOL0     H94051   3.663   7.901   5.733 -0.5303  0.1080  1.2166
  697MOL0     H94052   3.628   7.738   5.788  0.5056 -0.0955  0.9541
  697MOL0     H94053   3.888   7.841   5.645  0.7574  0.8331  4.2928
  697MOL0     H94054   3.757   7.760   5.564 -0.0721  0.7062 -0.9650
  697MOL0     H94055   3.699   7.567   5.503  0.7603  0.6904  0.6277
  697MOL0     H94056   3.643   7.333   5.446  2.2765 -1.3140 -0.6569
  697MOL0     H94057   3.300   7.115   5.518 -3.2873 -1.7770  0.0374
  697MOL0     H94058   3.152   6.921   5.528  0.4248 -2.3669 -1.6457
  697MOL0     H94059   3.347   6.521   5.484  0.9533  0.2215 -1.1390
  697MOL0     H94060   3.176   6.473   5.488  2.0438 -1.5337  2.7438
  697MOL0     H94061   3.162   6.510   5.236  0.3199 -3.7959 -0.4016
  697MOL0     H94062   3.337   6.545   5.247  1.3317 -2.9212 -2.8770
  697MOL0     H94063   3.401   6.321   5.289  0.2228 -0.9876  0.3761
  697MOL0     H94064   3.249   6.277   5.358  2.4505  2.4610  2.8185
  697MOL0     H94065   3.312   6.339   5.053 -2.0804  0.9008 -1.6722
  697MOL0     H94066   3.153   6.293   5.107 -0.4690  0.2300 -0.5945
  697MOL0     H94067   3.174   6.086   5.136  0.1540 -1.2881 -2.5376
  697MOL0     H94068   3.329   6.098   5.222  0.8960 -2.8814 -2.2747
  697MOL0     H94069   3.285   6.157   4.923  2.7668  3.3452  0.2327
  697MOL0     H94070   3.444   6.136   4.991  0.7942 -2.5110 -0.5604
  697MOL0     H94071   3.399   5.928   4.856 -2.6620 -2.9063 -1.5545
  697MOL0     H94072   3.249   5.898   4.946 -0.0035  0.0101  0.5439
  697MOL0     H94073   3.516   5.881   5.089  0.1485  0.4353 -0.4921
  697MOL0     H94074   3.353   5.859   5.141  0.2268  4.1776  1.0579
  697MOL0     H94075   3.478   6.676   5.388  2.6832  1.1293  1.7400
  697MOL0     H94076   3.627   6.875   5.387 -1.8188 -0.9053 -1.9237
  697MOL0     H94077   3.812   7.192   5.803  3.3137  0.7094 -0.2974
  697MOL0     H94078   3.910   7.415   5.841 -3.1765  0.2141  1.2106
  697MOL0     H94079   3.309   8.790   6.023  0.8581  2.0789 -0.4330
  697MOL0     H94080   3.362   8.951   5.870  0.8504 -0.8977  2.5836
  697MOL0     H94081   3.291   9.379   5.711  0.3894  0.9515 -0.2970
  697MOL0     H94082   3.354   9.552   5.544 -1.7730  1.2704 -0.1548
  697MOL0     H94083   3.339   9.622   5.118  0.2105 -0.7461 -3.0851
  697MOL0     H94084   3.237   9.474   5.130  1.4790 -1.0860  0.4743
  697MOL0     H94085   3.429   9.451   4.975 -2.0992 -4.1200  0.4896
  697MOL0     H94086   3.451   9.351   5.115  2.3212 -0.4782 -2.0158
  697MOL0     H94087   3.571   9.579   5.204 -1.1497  1.1730  0.3814
  697MOL0     H94088   3.572   9.611   5.030  1.9492  1.4066  1.3674
  697MOL0     H94089   3.700   9.352   5.116 -0.0724 -0.3177 -4.4365
  697MOL0     H94090   3.708   9.441   4.960 -0.2886  2.4146 -1.3854
  697MOL0     H94091   4.029   9.624   5.152  0.3364 -0.7612  2.0143
  697MOL0     H94092   3.246   9.280   5.224  0.8343  1.4988  0.2781
  697MOL0     H94093   3.093   9.037   5.352 -0.1131 -4.5449 -1.2472
  697MOL0     H94094   3.218   9.044   5.245  0.5825 -1.8471  1.0987
  697MOL0     H94095   3.251   8.982   5.401  0.6609 -0.5093 -2.2182
  698MOL0     O94096   7.050   2.390  10.134  0.7735  0.3526 -0.8476
  698MOL0     C94097   7.103   2.438  10.234 -0.2117  0.0021 -0.2975
  698MOL0     O94098   7.230   2.487  10.242 -0.3934 -0.3075  0.1569
  698MOL0     C94099   7.301   2.467  10.125 -0.2947  0.5299 -0.5959
  698MOL0     C94100   7.296   2.549  10.018  0.1796 -0.4257  0.8068
  698MOL0     C94101   7.356   2.521   9.895 -0.1777  0.9720 -0.1308
  698MOL0     C94102   7.444   2.405   9.892 -0.1964 -0.6205 -0.4651
  698MOL0     O94103   7.515   2.345   9.789 -0.2517 -0.5675  0.6914
  698MOL0     C94104   7.545   2.439   9.684  0.2139  1.3706  0.5836
  698MOL0     C94105   7.643   2.552   9.726  0.4156 -0.4871  0.0647
  698MOL0     C94106   7.767   2.511   9.805  0.3376  0.5965  0.4844
  698MOL0     C94107   7.880   2.614   9.779  0.7909 -0.4203  0.3359
  698MOL0     C94108   8.021   2.570   9.822  0.9322 -0.6174 -0.7198
  698MOL0     C94109   8.073   2.458   9.739 -0.2603  0.4480  0.2433
  698MOL0     C94110   8.223   2.433   9.760 -0.9891  0.3103 -0.4000
  698MOL0     C94111   8.294   2.350   9.653 -0.4737 -0.4538  0.3529
  698MOL0     N94112   8.434   2.358   9.685  0.3420 -0.1344  0.4764
  698MOL0     C94113   8.522   2.471   9.685  0.2545 -0.1524  0.4117
  698MOL0     C94114   8.644   2.420   9.716  0.8835  0.2562 -0.1468
  698MOL0     C94115   8.773   2.492   9.738  0.0171 -0.6343  1.3814
  698MOL0     C94116   8.837   2.478   9.604  0.1771 -0.3536 -0.2633
  698MOL0     C94117   8.975   2.555   9.594 -0.1365  0.8493  0.3446
  698MOL0     C94118   9.078   2.507   9.694  0.4158 -0.1964  0.1281
  698MOL0     O94119   9.209   2.533   9.663 -0.7336  0.7759  0.5293
  698MOL0     C94120   9.274   2.647   9.692  0.8771  0.7433 -0.1448
  698MOL0     C94121   9.299   2.694   9.824  0.4902 -0.0330 -0.6096
  698MOL0     C94122   9.372   2.819   9.840  0.7616 -0.6057  0.1074
  698MOL0     C94123   9.406   2.900   9.733  0.9715  1.2000  1.0089
  698MOL0     C94124   9.462   3.033   9.761 -0.1296  0.4069  0.2409
  698MOL0     O94125   9.494   3.065   9.894 -0.6968 -0.1669 -0.0690
  698MOL0     C94126   9.584   3.175   9.906 -0.0071 -0.3095  0.0249
  698MOL0     C94127   9.706   3.179   9.852 -0.1895 -1.0880 -0.9850
  698MOL0     C94128   9.783   3.284   9.866  0.2279 -0.3811 -0.0028
  698MOL0     C94129   9.754   3.388   9.954  0.2168 -0.1552  0.5875
  698MOL0     O94130   9.851   3.489   9.978  0.1747 -0.1187  0.2756
  698MOL0     C94131   9.820   3.584  10.080  0.4466 -0.5088 -0.5139
  698MOL0     C94132   9.851   3.537  10.224 -0.3634 -0.2560  0.7381
  698MOL0     C94133   9.908   3.633  10.316 -0.0330 -0.3907 -0.0385
  698MOL0     C94134   9.916   3.612  10.469 -0.4143 -0.1654  0.9543
  698MOL0     C94135   9.984   3.489  10.520 -0.1582  0.3719  0.7132
  698MOL0     C94136  10.137   3.515  10.499  0.5437 -0.3140 -0.7553
  698MOL0     C94137  10.222   3.403  10.541 -0.0901 -0.1786 -0.0088
  698MOL0     C94138  10.236   3.294  10.433  0.8876 -0.7925 -0.0991
  698MOL0    Cl94139  10.330   3.173  10.516 -0.4994  0.1090 -0.0535
  698MOL0     C94140   9.631   3.384  10.023  0.1482  0.0806  0.6421
  698MOL0     C94141   9.548   3.275  10.003 -0.1273  0.6007  0.4664
  698MOL0     O94142   9.490   3.105   9.665 -0.0954  0.2832 -0.0879
  698MOL0     C94143   9.377   2.845   9.601 -0.4328 -0.8901 -0.4910
  698MOL0     C94144   9.311   2.717   9.586 -0.6638 -0.5248  0.3696
  698MOL0     N94145   8.635   2.283   9.737  0.4324 -0.3449  0.1835
  698MOL0     N94146   8.509   2.247   9.722 -1.1817 -0.4108 -0.1288
  698MOL0     C94147   7.452   2.325  10.008  0.0498  1.0092  0.1563
  698MOL0     C94148   7.372   2.349  10.111  1.0452  0.0261 -0.9779
  698MOL0     C94149   7.036   2.409  10.362  0.7541 -0.9090 -1.0161
  698MOL0     C94150   7.113   2.343  10.458  0.2157  0.2009  0.1691
  698MOL0     C94151   7.068   2.313  10.588 -0.4914 -0.2713 -0.4652
  698MOL0     C94152   6.938   2.356  10.624  1.7889  0.2191  0.8426
  698MOL0     O94153   6.873   2.305  10.733 -0.6252 -0.3705 -0.3106
  698MOL0     C94154   6.946   2.254  10.843 -0.0683 -0.2127  0.2385
  698MOL0     C94155   6.853   2.302  10.956  0.0924  0.0419 -1.0780
  698MOL0     C94156   6.911   2.261  11.090 -0.8354  0.8821 -1.2819
  698MOL0     C94157   6.847   2.324  11.212 -0.2172  0.0445  0.0972
  698MOL0     C94158   6.719   2.251  11.237  0.0475  0.2990 -0.5088
  698MOL0     C94159   6.607   2.199  11.251 -1.0089 -0.4342 -0.2516
  698MOL0     C94160   6.859   2.423  10.531  0.3201 -0.3842 -1.1629
  698MOL0     C94161   6.903   2.456  10.403  0.3935 -0.3047  1.2001
  698MOL0     C94162   6.811   2.533  10.309  0.4095 -1.0310  0.3441
  698MOL0     H94163   7.229   2.633  10.032 -0.4096 -0.0663 -3.1074
  698MOL0     H94164   7.337   2.594   9.816  0.9073 -1.3276 -2.6651
  698MOL0     H94165   7.571   2.381   9.596 -1.3377 -1.6485  1.9678
  698MOL0     H94166   7.456   2.494   9.651  0.9944  4.2518  2.8134
  698MOL0     H94167   7.602   2.637   9.780  3.8466  3.0529 -2.3924
  698MOL0     H94168   7.668   2.612   9.638 -0.5073 -0.1340  0.0236
  698MOL0     H94169   7.794   2.412   9.768  0.7792  1.2437 -1.0050
  698MOL0     H94170   7.728   2.515   9.907  0.9883  1.0814  0.7177
  698MOL0     H94171   7.885   2.656   9.678 -1.7377 -1.0634 -0.1331
  698MOL0     H94172   7.858   2.706   9.834  0.5727 -0.7346  0.7810
  698MOL0     H94173   8.081   2.661   9.812 -1.3041  0.9942 -0.2667
  698MOL0     H94174   8.023   2.537   9.927  1.6738 -0.3969 -0.6552
  698MOL0     H94175   8.023   2.363   9.759 -0.0237  0.5363  1.3346
  698MOL0     H94176   8.068   2.498   9.637  2.4279 -2.4582 -1.1791
  698MOL0     H94177   8.235   2.373   9.851 -1.0840  0.3063 -0.3909
  698MOL0     H94178   8.264   2.533   9.775 -1.9340  0.3055  3.1551
  698MOL0     H94179   8.260   2.246   9.661 -2.1307  0.1636  1.8948
  698MOL0     H94180   8.270   2.386   9.553 -1.7290  2.0527  1.4737
  698MOL0     H94181   8.498   2.573   9.657 -1.3411 -0.8815 -1.0910
  698MOL0     H94182   8.753   2.597   9.764  0.1855  0.0622 -1.0596
  698MOL0     H94183   8.827   2.432   9.812 -0.2393 -2.1611  0.3668
  698MOL0     H94184   8.863   2.377   9.571 -0.0716 -0.5852  0.2546
  698MOL0     H94185   8.771   2.524   9.530  0.6691 -0.1723 -0.5956
  698MOL0     H94186   8.952   2.659   9.620 -0.0908  0.7443  0.8215
  698MOL0     H94187   9.006   2.553   9.489 -0.3013  0.4839  0.3015
  698MOL0     H94188   9.068   2.398   9.706 -0.0384 -0.3521 -1.4613
  698MOL0     H94189   9.051   2.554   9.789 -0.6461  2.1612 -1.2767
  698MOL0     H94190   9.260   2.636   9.907  1.0961  1.9741  1.1361
  698MOL0     H94191   9.395   2.840   9.944  1.2403 -4.1947  0.8551
  698MOL0     H94192   9.732   3.095   9.787 -1.0298 -1.4240 -0.9018
  698MOL0     H94193   9.874   3.280   9.807 -0.1154 -2.6123 -0.4609
  698MOL0     H94194   9.899   3.658  10.062 -0.1496  0.1748 -0.3823
  698MOL0     H94195   9.723   3.633  10.069 -0.8823 -2.4415  1.7999
  698MOL0     H94196   9.759   3.492  10.261 -1.8316  2.1309  0.1706
  698MOL0     H94197   9.917   3.450  10.226 -1.6598 -1.4934 -2.6485
  698MOL0     H94198  10.010   3.654  10.283 -0.0462  0.0296  0.1793
  698MOL0     H94199   9.855   3.729  10.309 -1.7053 -1.3845 -2.5731
  698MOL0     H94200   9.808   3.602  10.487 -1.0726 -2.0922 -2.9150
  698MOL0     H94201   9.964   3.702  10.507  2.1087 -0.1601 -1.8865
  698MOL0     H94202   9.950   3.403  10.462 -6.4613  2.5664  0.3329
  698MOL0     H94203   9.963   3.480  10.627  2.3198 -1.5120  1.1121
  698MOL0     H94204  10.169   3.539  10.398 -0.9615 -0.8994 -1.3955
  698MOL0     H94205  10.160   3.601  10.563 -0.3990 -0.0435 -0.7664
  698MOL0     H94206  10.192   3.358  10.636 -0.3130 -1.9307 -0.8733
  698MOL0     H94207  10.324   3.441  10.546 -0.7398  1.6703 -0.1164
  698MOL0     H94208  10.136   3.262  10.402  1.1218  0.5459 -2.4969
  698MOL0     H94209  10.284   3.329  10.341  2.5032 -0.7297  0.7311
  698MOL0     H94210   9.593   3.459  10.091 -1.4922 -0.0071 -0.1311
  698MOL0     H94211   9.452   3.266  10.053 -0.5526 -1.3527 -0.5992
  698MOL0     H94212   9.383   2.908   9.512 -0.3648 -2.1648 -1.4155
  698MOL0     H94213   9.276   2.685   9.488  0.9536  0.0392 -0.4330
  698MOL0     H94214   7.522   2.242  10.020  0.5428  1.5860  1.4206
  698MOL0     H94215   7.373   2.271  10.187  3.0676 -0.0306 -1.0137
  698MOL0     H94216   7.211   2.321  10.419 -0.6044  1.9728 -3.3392
  698MOL0     H94217   7.128   2.258  10.660  1.3601  1.1376 -0.8484
  698MOL0     H94218   7.045   2.297  10.863 -1.1295  2.0020  1.0899
  698MOL0     H94219   6.951   2.146  10.826  0.1107 -0.0077 -1.1971
  698MOL0     H94220   6.751   2.263  10.948 -0.6269  2.1574 -4.1248
  698MOL0     H94221   6.853   2.411  10.952  2.0674  0.1960  1.1363
  698MOL0     H94222   7.019   2.280  11.084 -0.3082 -1.7144 -1.2399
  698MOL0     H94223   6.909   2.152  11.103 -3.5444  1.1423  1.5602
  698MOL0     H94224   6.914   2.313  11.297 -0.0102 -1.5039 -0.2449
  698MOL0     H94225   6.828   2.431  11.193 -0.6513  0.4844  2.6707
  698MOL0     H94226   6.514   2.151  11.275 -0.1018 -0.5906  3.6759
  698MOL0     H94227   6.757   2.447  10.559  0.4532 -1.4730  0.3778
  698MOL0     H94228   6.717   2.480  10.291  1.7389 -2.8563 -1.9525
  698MOL0     H94229   6.798   2.638  10.334 -3.5994 -1.7582  1.9485
  698MOL0     H94230   6.866   2.536  10.214  1.5924 -0.2324  1.0189
  699MOL0     O94231   8.955   5.349   8.313 -0.1436 -0.4145  0.3016
  699MOL0     C94232   8.937   5.363   8.191 -0.5494 -0.5275 -0.0820
  699MOL0     O94233   8.849   5.446   8.139  0.5858  0.6088  0.6028
  699MOL0     C94234   8.748   5.478   8.216 -0.5761 -1.1015 -0.3243
  699MOL0     C94235   8.744   5.594   8.292 -1.0080 -0.0115  0.0440
  699MOL0     C94236   8.643   5.648   8.365  0.0528  0.4245  0.8264
  699MOL0     C94237   8.530   5.568   8.378 -0.4924 -0.4565  0.8137
  699MOL0     O94238   8.434   5.618   8.459 -0.0944 -0.6153  0.3399
  699MOL0     C94239   8.434   5.561   8.593  0.3881  0.3836  1.1439
  699MOL0     C94240   8.335   5.617   8.689  0.0545  0.4456 -0.1520
  699MOL0     C94241   8.306   5.540   8.814  0.4729 -0.6536 -0.3480
  699MOL0     C94242   8.185   5.616   8.875 -0.8876  0.4153  0.3131
  699MOL0     C94243   8.149   5.607   9.023 -0.6284 -0.0896 -1.0014
  699MOL0     C94244   8.206   5.483   9.085 -1.2426  0.2153 -0.7265
  699MOL0     C94245   8.186   5.475   9.239  0.1435  0.1377 -0.0443
  699MOL0     C94246   8.268   5.565   9.345  0.1125  0.5502  0.4110
  699MOL0     N94247   8.405   5.520   9.362 -0.0499  0.4089  0.0618
  699MOL0     C94248   8.457   5.437   9.459  0.0207  0.2764 -0.8063
  699MOL0     C94249   8.593   5.429   9.434  0.2903 -0.5971 -0.1777
  699MOL0     C94250   8.680   5.348   9.523 -0.5365 -0.0785  0.8561
  699MOL0     C94251   8.742   5.446   9.629 -0.4581 -0.6103  0.3145
  699MOL0     C94252   8.848   5.354   9.684  0.9387 -0.0833  0.2312
  699MOL0     C94253   8.784   5.295   9.813  0.3300  0.1329 -0.4665
  699MOL0     O94254   8.773   5.401   9.906  0.4155 -0.0490 -0.6845
  699MOL0     C94255   8.817   5.379  10.038 -0.1184 -0.2555  0.0320
  699MOL0     C94256   8.821   5.255  10.111  0.1840 -0.0904  0.0935
  699MOL0     C94257   8.871   5.247  10.241  0.3278  0.4070 -0.7395
  699MOL0     C94258   8.904   5.363  10.318  0.0370 -0.2235  0.1618
  699MOL0     C94259   8.947   5.364  10.460  0.0911 -0.4393  0.9249
  699MOL0     O94260   8.993   5.244  10.508 -1.1373 -0.5462  0.1388
  699MOL0     C94261   9.042   5.261  10.633 -0.9723 -0.3036  0.7067
  699MOL0     C94262   9.169   5.310  10.650  0.8780 -0.5179 -0.2100
  699MOL0     C94263   9.220   5.325  10.781  1.0291 -0.0006  0.1800
  699MOL0     C94264   9.138   5.304  10.895 -0.7319 -0.5215 -0.5040
  699MOL0     O94265   9.189   5.332  11.033 -0.0374  0.3318  0.0229
  699MOL0     C94266   9.283   5.435  11.044  0.3720 -0.3154 -0.5810
  699MOL0     C94267   9.344   5.451  11.189  1.0265  0.4641 -0.6703
  699MOL0     C94268   9.418   5.581  11.191 -0.5063  0.2287  1.9099
  699MOL0     C94269   9.527   5.587  11.302  0.5710  0.1747  0.2166
  699MOL0     C94270   9.598   5.717  11.342  0.4361 -0.3116 -0.8737
  699MOL0     C94271   9.496   5.828  11.375 -0.2189 -0.1426 -0.3857
  699MOL0     C94272   9.552   5.967  11.403  0.5785  0.5685 -0.3139
  699MOL0     C94273   9.645   5.973  11.532  0.8886 -0.9436  0.2403
  699MOL0    Cl94274   9.800   5.890  11.497 -0.4772 -0.0391 -0.3280
  699MOL0     C94275   9.007   5.255  10.881  0.7716  1.1102  0.3487
  699MOL0     C94276   8.969   5.224  10.747  0.8260  0.1810 -0.3384
  699MOL0     O94277   8.918   5.463  10.526 -0.1350 -0.8234 -0.4331
  699MOL0     C94278   8.888   5.490  10.256  0.0421  0.6621 -0.2510
  699MOL0     C94279   8.850   5.494  10.115  0.8473 -0.9310 -0.5377
  699MOL0     N94280   8.609   5.490   9.307  0.2344 -0.3388 -0.5444
  699MOL0     N94281   8.496   5.550   9.271 -0.1267 -0.9594  0.7879
  699MOL0     C94282   8.538   5.440   8.324 -0.1677  0.5390  0.8076
  699MOL0     C94283   8.641   5.397   8.230 -0.1688  0.5600 -0.0415
  699MOL0     C94284   9.041   5.306   8.103 -0.4809  0.1517 -0.5072
  699MOL0     C94285   9.172   5.283   8.152  0.3416 -0.0108 -0.1260
  699MOL0     C94286   9.262   5.224   8.069  0.4302 -0.2433 -1.2790
  699MOL0     C94287   9.228   5.189   7.942 -0.7588  0.5124  0.8817
  699MOL0     O94288   9.319   5.149   7.841  1.1124  0.6219 -0.1328
  699MOL0     C94289   9.465   5.149   7.852  0.5651  0.3675 -0.4014
  699MOL0     C94290   9.518   5.005   7.851 -0.8788 -0.8007 -0.1210
  699MOL0     C94291   9.518   4.941   7.713 -0.1095  0.9860  0.0299
  699MOL0     C94292   9.552   4.787   7.739 -0.1700  0.0415  0.7444
  699MOL0     C94293   9.523   4.693   7.632  0.3529 -0.0119  0.5845
  699MOL0     C94294   9.482   4.633   7.536 -0.1010  0.2184 -0.2193
  699MOL0     C94295   9.103   5.198   7.896 -0.6394  0.2555 -0.0437
  699MOL0     C94296   9.007   5.263   7.973  0.8301 -0.4887  0.4162
  699MOL0     C94297   8.876   5.268   7.902 -0.1108  0.8888 -0.7983
  699MOL0     H94298   8.828   5.663   8.291  0.9584 -2.1378  2.4441
  699MOL0     H94299   8.648   5.749   8.404  0.7600  0.4607  0.6527
  699MOL0     H94300   8.419   5.453   8.598 -1.3358  0.6257  1.8823
  699MOL0     H94301   8.531   5.584   8.637 -0.1810  3.5213  1.0027
  699MOL0     H94302   8.242   5.626   8.632 -0.7562  0.5072  1.1518
  699MOL0     H94303   8.378   5.716   8.707  0.4920  0.8441 -2.8947
  699MOL0     H94304   8.396   5.538   8.877 -0.9452  1.6896  1.9832
  699MOL0     H94305   8.263   5.440   8.805  0.5658 -0.5615 -2.3226
  699MOL0     H94306   8.191   5.720   8.842  0.7836  0.3412  0.2907
  699MOL0     H94307   8.098   5.572   8.824 -0.4466  0.1101 -0.1822
  699MOL0     H94308   8.197   5.693   9.072  0.8009 -0.8193 -1.0722
  699MOL0     H94309   8.043   5.611   9.048 -0.2229  0.4376  0.7704
  699MOL0     H94310   8.177   5.393   9.029 -1.4404  0.1537 -0.5249
  699MOL0     H94311   8.314   5.499   9.072 -0.8557 -2.1621 -0.9829
  699MOL0     H94312   8.221   5.377   9.270 -0.6178 -0.4438 -0.9608
  699MOL0     H94313   8.080   5.499   9.251 -0.4317 -1.5680 -1.3270
  699MOL0     H94314   8.261   5.671   9.319  2.3497  1.7115  3.8076
  699MOL0     H94315   8.214   5.548   9.438 -1.0853 -0.3925 -0.4413
  699MOL0     H94316   8.406   5.367   9.524  2.2522  0.0531  0.8126
  699MOL0     H94317   8.621   5.269   9.570 -2.6754  0.1273 -1.3113
  699MOL0     H94318   8.750   5.292   9.460 -0.9461 -1.1588  1.3265
  699MOL0     H94319   8.794   5.533   9.587  1.0717 -1.2066  0.9075
  699MOL0     H94320   8.679   5.498   9.702 -0.0488 -2.2764  1.9352
  699MOL0     H94321   8.930   5.415   9.724 -2.3468  3.0129  2.9780
  699MOL0     H94322   8.890   5.279   9.617 -1.3351 -1.4647  0.2638
  699MOL0     H94323   8.845   5.215   9.856  0.1677  0.9639  1.4386
  699MOL0     H94324   8.693   5.249   9.775  1.4612 -1.5626 -1.2034
  699MOL0     H94325   8.802   5.159  10.064  2.9479  0.0865 -1.5909
  699MOL0     H94326   8.871   5.153  10.295 -0.5267  0.2393 -1.0026
  699MOL0     H94327   9.214   5.343  10.556 -0.4947 -0.9124 -1.0334
  699MOL0     H94328   9.321   5.357  10.802  2.1810 -3.1569  0.0936
  699MOL0     H94329   9.369   5.420  10.978  1.0000  0.4233  0.0597
  699MOL0     H94330   9.225   5.526  11.027 -1.2105 -1.2406 -0.3577
  699MOL0     H94331   9.247   5.462  11.239 -0.4910  2.5146 -3.6946
  699MOL0     H94332   9.396   5.358  11.214 -1.0164  0.0374  2.6302
  699MOL0     H94333   9.462   5.580  11.091  1.6621 -0.0093  2.8201
  699MOL0     H94334   9.339   5.656  11.197  1.3072  2.3837  0.3350
  699MOL0     H94335   9.600   5.508  11.280  0.2833 -0.0075 -0.0788
  699MOL0     H94336   9.481   5.553  11.395 -0.6617  1.7637  0.2198
  699MOL0     H94337   9.670   5.747  11.264  1.9710 -1.6336 -0.0168
  699MOL0     H94338   9.662   5.694  11.427  1.9113 -1.4806 -2.2393
  699MOL0     H94339   9.441   5.837  11.281 -1.9740  1.3188  0.7160
  699MOL0     H94340   9.425   5.795  11.451 -3.4756 -0.1046 -3.1928
  699MOL0     H94341   9.465   6.030  11.425  0.9451  1.0151 -0.1368
  699MOL0     H94342   9.597   6.003  11.311  3.6241  0.1094  0.8719
  699MOL0     H94343   9.659   6.079  11.553 -1.9298 -0.8170  2.1510
  699MOL0     H94344   9.599   5.939  11.626 -1.3652  2.5200  0.5674
  699MOL0     H94345   8.956   5.210  10.966  0.1050  0.5040 -0.3482
  699MOL0     H94346   8.872   5.177  10.734  0.7579 -1.2391  4.0361
  699MOL0     H94347   8.890   5.582  10.312  1.1885  0.6896 -0.3195
  699MOL0     H94348   8.855   5.592  10.069  0.1272 -0.7757 -0.3039
  699MOL0     H94349   8.455   5.375   8.351  0.6604 -0.9153  0.0345
  699MOL0     H94350   8.631   5.297   8.189 -1.1932 -0.5239  2.5974
  699MOL0     H94351   9.203   5.305   8.253 -1.2224 -2.9477  1.1239
  699MOL0     H94352   9.356   5.195   8.115 -1.1286 -2.5882  0.6461
  699MOL0     H94353   9.499   5.195   7.945 -3.7569  1.6061  0.8022
  699MOL0     H94354   9.504   5.206   7.768 -0.1355  1.1126 -0.2336
  699MOL0     H94355   9.456   4.944   7.917 -1.5614 -3.2909 -2.8411
  699MOL0     H94356   9.621   5.000   7.889  0.2015  0.8069 -2.5381
  699MOL0     H94357   9.597   4.998   7.664 -3.4958  6.1676 -0.1964
  699MOL0     H94358   9.420   4.955   7.666 -0.0399  3.0271  0.4165
  699MOL0     H94359   9.661   4.781   7.746 -0.0293 -4.5985 -1.8759
  699MOL0     H94360   9.507   4.750   7.831 -0.1714  0.4966  0.9293
  699MOL0     H94361   9.438   4.581   7.454 -1.1026 -0.6242  0.8125
  699MOL0     H94362   9.084   5.157   7.797  1.1947  1.1732 -0.8212
  699MOL0     H94363   8.792   5.269   7.973 -0.0467 -1.2683 -0.6164
  699MOL0     H94364   8.870   5.352   7.832  2.4431  1.3899 -0.5215
  699MOL0     H94365   8.855   5.175   7.848  2.1023 -0.2464  0.1526
  700MOL0     O94366   6.596  10.831   3.709 -0.7899 -0.2582 -0.9595
  700MOL0     C94367   6.520  10.921   3.691 -0.8124 -1.5229 -0.7603
  700MOL0     O94368   6.395  10.910   3.665 -0.6745 -0.7390 -0.2046
  700MOL0     C94369   6.324  10.805   3.722 -0.6948 -0.4769 -0.2475
  700MOL0     C94370   6.338  10.666   3.681 -0.5033  0.1219 -0.1138
  700MOL0     C94371   6.266  10.554   3.743  0.6471 -0.5852 -0.6565
  700MOL0     C94372   6.191  10.587   3.857 -1.7908  0.3134 -0.2720
  700MOL0     O94373   6.163  10.479   3.942  0.5187 -0.3544  0.5419
  700MOL0     C94374   6.066  10.501   4.048  0.1624  0.4150 -0.4585
  700MOL0     C94375   6.015  10.370   4.109 -0.6787 -0.2421 -0.0705
  700MOL0     C94376   6.118  10.296   4.195 -0.7374  1.0159  0.9254
  700MOL0     C94377   6.217  10.201   4.113  0.2589  0.3190  0.6013
  700MOL0     C94378   6.297  10.103   4.201  0.8499  0.5529  0.4487
  700MOL0     C94379   6.373  10.007   4.105  0.3880 -0.5563  0.5918
  700MOL0     C94380   6.435   9.871   4.156 -0.5534  0.4772 -0.0353
  700MOL0     C94381   6.325   9.761   4.171  0.0262 -0.0006 -0.0101
  700MOL0     N94382   6.279   9.718   4.034  0.2110  0.0953 -0.8207
  700MOL0     C94383   6.316   9.599   3.976  0.0089 -0.8405  0.7557
  700MOL0     C94384   6.233   9.591   3.863  0.1859 -0.1240 -1.2542
  700MOL0     C94385   6.262   9.508   3.740  0.1871  0.4564 -0.3624
  700MOL0     C94386   6.225   9.361   3.757 -0.3651  0.2693 -0.6631
  700MOL0     C94387   6.074   9.321   3.769  0.3374 -0.2635  0.6483
  700MOL0     C94388   6.054   9.178   3.816  0.4432  0.1801 -0.3384
  700MOL0     O94389   5.919   9.147   3.827  0.4083  0.1010  0.3154
  700MOL0     C94390   5.864   9.031   3.774  0.0352  1.0913 -0.1183
  700MOL0     C94391   5.728   9.023   3.784  0.0667  0.2870  0.1458
  700MOL0     C94392   5.659   8.906   3.767  0.6296  1.2579  1.7319
  700MOL0     C94393   5.720   8.788   3.737 -0.6892  0.0425 -0.4286
  700MOL0     C94394   5.656   8.658   3.729 -0.9353  0.0163 -0.5024
  700MOL0     O94395   5.734   8.543   3.751 -0.4373 -0.3552 -0.5487
  700MOL0     C94396   5.679   8.423   3.716 -0.6558  0.5447  1.1275
  700MOL0     C94397   5.635   8.407   3.581 -0.8548 -0.4017  1.1487
  700MOL0     C94398   5.588   8.280   3.545 -0.2839  0.4394 -0.3224
  700MOL0     C94399   5.579   8.171   3.642 -0.4958  0.8739  0.3189
  700MOL0     O94400   5.543   8.038   3.614  0.3049 -0.4362 -0.6502
  700MOL0     C94401   5.530   7.995   3.479  0.0842 -0.3164 -0.2775
  700MOL0     C94402   5.495   7.845   3.495  0.4775  0.3385 -0.8283
  700MOL0     C94403   5.473   7.775   3.358 -0.7138  0.0604 -0.2060
  700MOL0     C94404   5.538   7.634   3.363  0.2174 -0.1023  0.7361
  700MOL0     C94405   5.486   7.544   3.252 -0.4832  0.2914 -0.6762
  700MOL0     C94406   5.520   7.590   3.114 -1.4680  0.6590  0.5598
  700MOL0     C94407   5.478   7.493   3.001  0.7492 -0.6687 -0.0848
  700MOL0     C94408   5.518   7.539   2.860 -0.0941  0.3713 -0.0716
  700MOL0    Cl94409   5.700   7.528   2.831  0.8033  0.5185  0.1341
  700MOL0     C94410   5.620   8.194   3.771  0.5741  0.8670  0.5431
  700MOL0     C94411   5.677   8.319   3.804 -0.2429  0.4273  1.1333
  700MOL0     O94412   5.538   8.658   3.715  0.8217 -0.4215  0.4178
  700MOL0     C94413   5.861   8.796   3.736  0.2494  0.5668  0.2143
  700MOL0     C94414   5.934   8.915   3.744  0.8583 -0.1998 -0.4539
  700MOL0     N94415   6.143   9.700   3.861 -0.2548  0.5312  1.0464
  700MOL0     N94416   6.173   9.769   3.968  0.4051 -0.9544  0.4495
  700MOL0     C94417   6.179  10.726   3.900  0.2017  0.3933  0.4559
  700MOL0     C94418   6.235  10.832   3.823  0.5673 -0.1551 -0.5905
  700MOL0     C94419   6.588  11.057   3.663  0.9010  0.1465  0.0364
  700MOL0     C94420   6.724  11.057   3.637  0.2173  0.1796  0.1916
  700MOL0     C94421   6.797  11.173   3.610  0.1600 -0.0261 -1.9142
  700MOL0     C94422   6.747  11.295   3.631 -0.1405  0.2251  0.2566
  700MOL0     O94423   6.803  11.416   3.626 -0.0698  0.8441 -0.2620
  700MOL0     C94424   6.913  11.432   3.718 -0.0019  0.7384  0.0471
  700MOL0     C94425   7.016  11.544   3.678 -0.2858  0.6200 -0.3094
  700MOL0     C94426   6.990  11.681   3.731  0.7782  0.4555 -0.4218
  700MOL0     C94427   7.017  11.786   3.621 -0.1601  0.1034 -1.2421
  700MOL0     C94428   6.938  11.908   3.662 -0.7769 -1.3440 -0.3943
  700MOL0     C94429   6.865  11.989   3.712  0.5900 -0.2204  0.2458
  700MOL0     C94430   6.602  11.304   3.655  0.0944  0.4032 -0.2407
  700MOL0     C94431   6.529  11.187   3.674 -0.2978  0.2268  0.0107
  700MOL0     C94432   6.381  11.205   3.707 -0.0346 -0.2465 -0.9270
  700MOL0     H94433   6.405  10.653   3.596  0.4741  0.5403  0.5677
  700MOL0     H94434   6.283  10.450   3.716  0.8698 -1.0065  1.0236
  700MOL0     H94435   6.122  10.562   4.119  1.4608 -0.7008 -0.4905
  700MOL0     H94436   5.984  10.560   4.006  2.4946  3.3219 -1.2457
  700MOL0     H94437   5.975  10.297   4.037  1.0608 -1.7939  0.4613
  700MOL0     H94438   5.937  10.400   4.179  2.7708  3.5646  2.6120
  700MOL0     H94439   6.061  10.241   4.271 -2.0270 -0.8975 -1.2822
  700MOL0     H94440   6.187  10.369   4.238 -1.2421  0.3238  3.0585
  700MOL0     H94441   6.153  10.135   4.054 -0.5340  1.1230  0.5337
  700MOL0     H94442   6.284  10.247   4.040 -0.0624 -3.4587 -2.3968
  700MOL0     H94443   6.376  10.164   4.246  1.8166 -0.1588 -0.2515
  700MOL0     H94444   6.249  10.045   4.281  3.3617 -3.2070 -0.4843
  700MOL0     H94445   6.307   9.980   4.022  2.5104 -1.4304 -0.9018
  700MOL0     H94446   6.444  10.065   4.044 -1.4521  1.2230  0.0032
  700MOL0     H94447   6.486   9.883   4.252 -2.2711 -1.2401  1.1827
  700MOL0     H94448   6.513   9.841   4.085  0.1639  1.2081  0.4252
  700MOL0     H94449   6.376   9.673   4.211 -0.7202  0.1739  1.3677
  700MOL0     H94450   6.250   9.800   4.240 -1.6374 -0.8578 -1.2698
  700MOL0     H94451   6.394   9.530   4.007 -0.8732 -0.3335  4.5265
  700MOL0     H94452   6.207   9.541   3.651  1.5306 -1.0648 -1.8097
  700MOL0     H94453   6.370   9.508   3.725  0.5327 -0.3047  1.7192
  700MOL0     H94454   6.256   9.317   3.662  1.1314 -1.6017  0.6131
  700MOL0     H94455   6.286   9.327   3.841  0.9007 -1.5478 -2.2215
  700MOL0     H94456   6.034   9.327   3.667  1.5934 -0.9096  0.0967
  700MOL0     H94457   6.017   9.389   3.833 -0.2159  2.0590 -2.0875
  700MOL0     H94458   6.092   9.167   3.918 -0.9759  2.8727  0.5908
  700MOL0     H94459   6.114   9.115   3.749  0.5765  1.5714 -1.5715
  700MOL0     H94460   5.667   9.110   3.808 -1.8989 -1.6999  3.1051
  700MOL0     H94461   5.554   8.909   3.794 -0.3179 -2.8982 -0.4906
  700MOL0     H94462   5.635   8.488   3.509 -1.6589 -1.2992  0.0918
  700MOL0     H94463   5.565   8.267   3.440  1.6466  1.0463 -0.8827
  700MOL0     H94464   5.451   8.045   3.422  3.1614  1.0126 -3.7876
  700MOL0     H94465   5.621   8.002   3.419 -0.8828 -1.5575 -1.9585
  700MOL0     H94466   5.578   7.797   3.548  0.0118  0.1513 -0.2585
  700MOL0     H94467   5.412   7.833   3.565 -0.4669  1.3929 -1.7215
  700MOL0     H94468   5.366   7.767   3.340 -0.5742  2.0245 -2.3116
  700MOL0     H94469   5.510   7.834   3.273  1.7660 -2.4440 -1.0410
  700MOL0     H94470   5.521   7.587   3.461  2.2511  0.5668  1.4579
  700MOL0     H94471   5.647   7.644   3.360  0.2119 -0.0160  0.8252
  700MOL0     H94472   5.379   7.525   3.261 -0.4715  0.4935 -0.0604
  700MOL0     H94473   5.521   7.441   3.263 -1.7920 -0.3587 -2.1053
  700MOL0     H94474   5.472   7.687   3.096 -1.0930  0.6015 -0.9190
  700MOL0     H94475   5.626   7.615   3.102 -1.7226  2.2849  1.3942
  700MOL0     H94476   5.376   7.455   2.993  1.0121 -0.9200 -3.1689
  700MOL0     H94477   5.550   7.414   3.024  2.4082  0.8421  0.1583
  700MOL0     H94478   5.471   7.481   2.780  1.7774  2.5722 -3.0021
  700MOL0     H94479   5.480   7.638   2.835 -1.4385 -0.9097 -3.8414
  700MOL0     H94480   5.605   8.120   3.849 -3.4160  0.8734 -0.0121
  700MOL0     H94481   5.692   8.348   3.907  0.7950  2.6094  0.4148
  700MOL0     H94482   5.927   8.711   3.721  0.6075  1.1070 -1.4561
  700MOL0     H94483   6.041   8.903   3.730  1.5429  4.0961 -0.5126
  700MOL0     H94484   6.131  10.734   3.997 -1.4467 -2.0639 -0.0690
  700MOL0     H94485   6.223  10.932   3.864  3.3159  0.1850 -0.3935
  700MOL0     H94486   6.770  10.959   3.630 -1.2398 -0.5068 -0.0717
  700MOL0     H94487   6.899  11.160   3.575  0.9115 -0.5744  0.3401
  700MOL0     H94488   6.968  11.337   3.724  1.0271  1.3354  0.3729
  700MOL0     H94489   6.871  11.439   3.819 -2.6861 -0.1738 -0.9099
  700MOL0     H94490   7.019  11.537   3.568  2.4884 -2.1483 -0.1844
  700MOL0     H94491   7.115  11.511   3.709  0.1652  1.3953 -0.8735
  700MOL0     H94492   7.049  11.697   3.822  0.3694 -6.2092  1.5599
  700MOL0     H94493   6.884  11.672   3.758  0.3239  0.4183 -2.1083
  700MOL0     H94494   7.124  11.804   3.608 -0.2911  1.6283 -0.4530
  700MOL0     H94495   6.976  11.754   3.525 -1.8773  1.6646 -1.0992
  700MOL0     H94496   6.805  12.066   3.755 -0.2068 -0.4594 -0.3960
  700MOL0     H94497   6.560  11.400   3.683 -1.9096 -1.1377  2.5945
  700MOL0     H94498   6.326  11.145   3.634  0.1608 -2.7037  0.8103
  700MOL0     H94499   6.358  11.162   3.804 -1.5003  2.3367 -0.0210
  700MOL0     H94500   6.357  11.312   3.709  2.8144  0.4721 -0.0039
  701MOL0     O94501   4.419   0.427   3.342  0.1368  0.6775  0.1682
  701MOL0     C94502   4.411   0.548   3.341 -0.1567 -0.1377 -0.1014
  701MOL0     O94503   4.302   0.624   3.316  0.0276 -0.6374 -0.3003
  701MOL0     C94504   4.184   0.554   3.329 -0.4983  1.1037  0.0277
  701MOL0     C94505   4.148   0.500   3.460  0.0854  0.1627 -0.6962
  701MOL0     C94506   4.021   0.442   3.472  0.0926 -0.0191 -0.3783
  701MOL0     C94507   3.937   0.422   3.362  0.2378  0.3928  0.1538
  701MOL0     O94508   3.826   0.346   3.356  0.0144  0.3931  0.0085
  701MOL0     C94509   3.757   0.302   3.476 -0.2174 -0.3689 -0.4298
  701MOL0     C94510   3.805   0.163   3.522  0.1693 -0.2625 -0.3587
  701MOL0     C94511   3.801   0.068   3.406  0.4341 -0.8025  0.7490
  701MOL0     C94512   3.666   0.017   3.368  0.0732 -0.4459 -0.2640
  701MOL0     C94513   3.680  -0.112   3.289  0.2945  0.8397  0.5168
  701MOL0     C94514   3.545  -0.181   3.255  0.6438 -0.0422  0.7682
  701MOL0     C94515   3.426  -0.080   3.219 -0.1255  0.6622 -0.2428
  701MOL0     C94516   3.327  -0.131   3.117 -0.7768  0.0045 -0.2906
  701MOL0     N94517   3.211  -0.045   3.119 -1.0016  0.0766  1.1393
  701MOL0     C94518   3.093  -0.061   3.193 -0.5556  0.4406  0.6050
  701MOL0     C94519   3.000   0.012   3.126 -0.5186  0.7414 -0.0075
  701MOL0     C94520   2.852  -0.000   3.150 -0.5051 -0.2973  0.2320
  701MOL0     C94521   2.771  -0.114   3.079 -0.6679  0.6042 -0.3764
  701MOL0     C94522   2.763  -0.090   2.925 -0.4031 -1.2766  0.3572
  701MOL0     C94523   2.689  -0.213   2.873  0.9024  0.6271 -0.1603
  701MOL0     O94524   2.549  -0.222   2.894  0.0843  0.1170 -0.0760
  701MOL0     C94525   2.482  -0.325   2.836 -0.4439  0.2397 -0.8054
  701MOL0     C94526   2.547  -0.423   2.757  1.1094  0.2125 -0.4012
  701MOL0     C94527   2.460  -0.511   2.688  0.7871  0.6865 -0.3762
  701MOL0     C94528   2.320  -0.506   2.702  0.2765  0.8141 -0.4882
  701MOL0     C94529   2.238  -0.613   2.655  0.1831  0.7864 -0.3573
  701MOL0     O94530   2.111  -0.608   2.696 -0.2393 -0.6904 -0.6237
  701MOL0     C94531   2.029  -0.719   2.691 -1.0940  0.3242  0.6865
  701MOL0     C94532   1.899  -0.684   2.679 -0.0108 -0.4675  0.6234
  701MOL0     C94533   1.801  -0.783   2.682 -0.0971  1.6209  0.0994
  701MOL0     C94534   1.834  -0.924   2.677  0.8553  0.1926  0.2654
  701MOL0     O94535   1.721  -1.006   2.689  0.1112  0.2821 -0.7906
  701MOL0     C94536   1.730  -1.146   2.658 -0.1456 -1.0482  0.0621
  701MOL0     C94537   1.593  -1.202   2.639 -0.0889  0.4095  0.2844
  701MOL0     C94538   1.537  -1.166   2.502  0.8666  0.0773  0.7085
  701MOL0     C94539   1.398  -1.221   2.453  0.3483  0.2334  0.3873
  701MOL0     C94540   1.358  -1.177   2.314  0.1417  0.9395  0.2384
  701MOL0     C94541   1.305  -1.038   2.293  0.1247  0.3420  0.6949
  701MOL0     C94542   1.226  -1.031   2.158  0.4087 -0.5168  0.6278
  701MOL0     C94543   1.243  -0.898   2.096  0.2146 -0.9985 -0.0509
  701MOL0    Cl94544   1.146  -0.885   1.943 -0.1467 -0.0768 -0.1647
  701MOL0     C94545   1.963  -0.958   2.680 -1.0870 -0.5627  0.0162
  701MOL0     C94546   2.061  -0.863   2.694 -0.4177  0.0036  0.8325
  701MOL0     O94547   2.285  -0.701   2.586  0.1658 -0.2149 -0.2619
  701MOL0     C94548   2.270  -0.405   2.779  0.3115 -0.2479 -0.2448
  701MOL0     C94549   2.347  -0.320   2.843 -0.0181 -0.9594 -0.5173
  701MOL0     N94550   3.058   0.085   3.025  0.4532 -0.4796  0.6869
  701MOL0     N94551   3.179   0.036   3.024 -0.3829 -0.7290 -0.1893
  701MOL0     C94552   3.976   0.469   3.236  0.6616  0.4789 -0.3369
  701MOL0     C94553   4.100   0.528   3.221 -0.0663 -0.6680 -0.2242
  701MOL0     C94554   4.534   0.621   3.337 -0.2256  0.3482 -0.0105
  701MOL0     C94555   4.530   0.751   3.289  0.9278 -0.6601 -0.0785
  701MOL0     C94556   4.644   0.826   3.288 -0.3307  0.4620  0.3882
  701MOL0     C94557   4.760   0.783   3.332  0.6004  0.4138  0.0907
  701MOL0     O94558   4.864   0.869   3.320  0.2330 -0.1711 -0.0640
  701MOL0     C94559   4.884   0.945   3.441  0.6752 -0.5161 -0.3008
  701MOL0     C94560   4.929   1.082   3.402 -0.0418  0.5258 -0.1929
  701MOL0     C94561   4.826   1.177   3.348  0.4688 -0.8789  1.3355
  701MOL0     C94562   4.751   1.274   3.444  0.1959  0.8936 -0.0879
  701MOL0     C94563   4.675   1.361   3.352 -0.4053 -0.3829  0.3994
  701MOL0     C94564   4.607   1.442   3.298  1.2614  0.0014 -0.4902
  701MOL0     C94565   4.770   0.655   3.396 -0.4040 -0.2736 -0.1409
  701MOL0     C94566   4.652   0.576   3.395  0.4711  1.0529  0.5734
  701MOL0     C94567   4.664   0.436   3.453  0.5764  0.2068 -0.8869
  701MOL0     H94568   4.212   0.517   3.545 -0.6871  1.6736 -0.3629
  701MOL0     H94569   3.998   0.411   3.573 -1.3159  3.7738  0.6204
  701MOL0     H94570   3.771   0.377   3.554  3.0296  0.0842 -1.2672
  701MOL0     H94571   3.652   0.292   3.450 -0.0773  0.3845 -1.3331
  701MOL0     H94572   3.741   0.129   3.604 -1.8367 -5.7168 -3.6291
  701MOL0     H94573   3.907   0.169   3.560  0.6105 -0.9868 -1.3689
  701MOL0     H94574   3.861  -0.021   3.431 -0.9592 -2.4501 -1.4289
  701MOL0     H94575   3.847   0.115   3.319  1.4859  0.4573  1.9466
  701MOL0     H94576   3.630   0.004   3.470  0.3160 -0.4647 -0.1795
  701MOL0     H94577   3.592   0.087   3.327  0.3874  0.1069  0.1071
  701MOL0     H94578   3.716  -0.082   3.190  3.5651 -0.5624  1.1681
  701MOL0     H94579   3.751  -0.182   3.334 -0.2172  0.3461  0.5684
  701MOL0     H94580   3.563  -0.255   3.176 -0.4550 -0.5101  0.9372
  701MOL0     H94581   3.505  -0.226   3.346 -2.2791  0.7872  0.0084
  701MOL0     H94582   3.471   0.010   3.176  0.4693 -1.1706 -3.7950
  701MOL0     H94583   3.381  -0.051   3.315  2.2893  1.9469  0.5791
  701MOL0     H94584   3.380  -0.125   3.021 -2.3592 -1.7315 -1.3345
  701MOL0     H94585   3.312  -0.238   3.134  1.7737 -0.1017  1.8643
  701MOL0     H94586   3.074  -0.124   3.279  0.6480  0.0527  0.6104
  701MOL0     H94587   2.836   0.017   3.257  0.3779  1.8174  0.0812
  701MOL0     H94588   2.806   0.085   3.099 -1.3178 -2.7488 -3.5684
  701MOL0     H94589   2.818  -0.212   3.085  2.2810  1.8681 -0.8840
  701MOL0     H94590   2.671  -0.110   3.123 -0.4188  3.6649  0.1219
  701MOL0     H94591   2.865  -0.071   2.890 -0.8874  1.2346  0.1430
  701MOL0     H94592   2.709  -0.000   2.894  2.6913  0.8032  0.5219
  701MOL0     H94593   2.733  -0.302   2.918 -1.5661  0.8166  2.9405
  701MOL0     H94594   2.706  -0.214   2.765 -2.3983  2.7740 -0.8459
  701MOL0     H94595   2.653  -0.444   2.757  0.6620 -2.5394 -1.4692
  701MOL0     H94596   2.501  -0.593   2.629 -1.3111 -1.0758  0.4824
  701MOL0     H94597   1.869  -0.580   2.672 -0.4661 -0.5981  0.6220
  701MOL0     H94598   1.700  -0.743   2.679  0.4290  3.0098 -2.4893
  701MOL0     H94599   1.785  -1.149   2.564  1.3659 -0.8975  0.9196
  701MOL0     H94600   1.782  -1.192   2.742 -0.0130  1.3645  1.3855
  701MOL0     H94601   1.606  -1.310   2.650 -0.4245  0.4532  1.1797
  701MOL0     H94602   1.522  -1.153   2.707  0.4692  1.8852 -0.1424
  701MOL0     H94603   1.532  -1.057   2.487 -0.0950 -0.1958 -1.3470
  701MOL0     H94604   1.612  -1.206   2.432  0.9065 -2.0800  1.9182
  701MOL0     H94605   1.316  -1.194   2.520  0.0663  1.3912 -0.3987
  701MOL0     H94606   1.400  -1.331   2.460 -1.2298 -0.0474 -2.2358
  701MOL0     H94607   1.280  -1.245   2.280  2.0975 -0.1505 -2.3969
  701MOL0     H94608   1.442  -1.194   2.246  1.0103  0.0782  1.4683
  701MOL0     H94609   1.244  -1.011   2.380  0.0880 -0.5034  0.9430
  701MOL0     H94610   1.385  -0.963   2.285 -0.5303  1.0058  0.2646
  701MOL0     H94611   1.119  -1.046   2.175  0.5388  0.7331  3.1687
  701MOL0     H94612   1.270  -1.096   2.082  1.7251  2.5239 -1.4035
  701MOL0     H94613   1.215  -0.818   2.166  1.4459 -0.3770 -0.2420
  701MOL0     H94614   1.346  -0.880   2.064  1.1467 -0.7082  2.8159
  701MOL0     H94615   1.999  -1.060   2.677  1.4413  0.2397  0.6690
  701MOL0     H94616   2.165  -0.894   2.693 -0.6565 -0.8673 -1.0253
  701MOL0     H94617   2.164  -0.384   2.780  0.1788 -0.7190 -1.5386
  701MOL0     H94618   2.306  -0.246   2.911  1.9754 -0.8005  0.5934
  701MOL0     H94619   3.904   0.470   3.154  1.3866 -0.9904 -1.0415
  701MOL0     H94620   4.122   0.561   3.120  3.7574  0.0223  0.6971
  701MOL0     H94621   4.436   0.799   3.263  0.2530 -0.3984  2.5129
  701MOL0     H94622   4.645   0.917   3.229 -1.6142 -1.0631 -2.1728
  701MOL0     H94623   4.969   0.896   3.490  2.6416  1.8427 -1.1293
  701MOL0     H94624   4.801   0.952   3.512  1.4819  0.4461  0.5863
  701MOL0     H94625   5.003   1.081   3.322 -0.7112  3.5429 -0.9562
  701MOL0     H94626   4.968   1.133   3.491  0.9377  0.5306 -0.6192
  701MOL0     H94627   4.761   1.109   3.292  3.0722 -2.6161  0.2249
  701MOL0     H94628   4.890   1.242   3.288  1.2586 -1.0612  1.9535
  701MOL0     H94629   4.678   1.228   3.511  2.0078  1.4091  2.3892
  701MOL0     H94630   4.822   1.338   3.497  2.6120 -1.7928  0.1532
  701MOL0     H94631   4.545   1.513   3.248  0.9662 -0.8667 -1.3911
  701MOL0     H94632   4.865   0.624   3.439 -0.4010 -1.9297 -1.2425
  701MOL0     H94633   4.766   0.421   3.490  0.5629 -0.1194 -0.9785
  701MOL0     H94634   4.593   0.407   3.531  3.1192  0.6384  1.7656
  701MOL0     H94635   4.658   0.367   3.368  2.6945  0.0653 -0.9658
  702MOL0     O94636   5.804   1.423   8.754  0.1754 -0.7755  0.3153
  702MOL0     C94637   5.917   1.483   8.769 -0.4497 -0.0259  0.3994
  702MOL0     O94638   5.972   1.583   8.694 -0.0130 -0.1618  0.9920
  702MOL0     C94639   5.893   1.642   8.597  0.7648 -0.1937  0.0877
  702MOL0     C94640   5.780   1.710   8.648 -0.3892  0.6022 -0.3730
  702MOL0     C94641   5.679   1.769   8.563  0.2118  0.0009  0.3418
  702MOL0     C94642   5.711   1.776   8.426  0.3298 -0.1278 -0.0439
  702MOL0     O94643   5.636   1.843   8.334  0.1527 -0.1725 -0.4039
  702MOL0     C94644   5.659   1.841   8.194  0.3592 -0.8534 -0.0890
  702MOL0     C94645   5.524   1.855   8.121  0.5667 -0.8699 -0.5059
  702MOL0     C94646   5.476   2.007   8.134  0.4867 -0.0108  0.0864
  702MOL0     C94647   5.503   2.093   8.005 -0.3645  0.2473  0.3949
  702MOL0     C94648   5.434   2.231   8.019 -0.5682 -0.4144  0.1046
  702MOL0     C94649   5.443   2.312   7.884  0.6343 -0.5009 -0.1613
  702MOL0     C94650   5.575   2.385   7.877  0.2476 -0.8497 -0.1467
  702MOL0     C94651   5.584   2.488   7.749 -0.4767 -0.3464 -0.2090
  702MOL0     N94652   5.718   2.548   7.743  0.4168  0.1776  0.7340
  702MOL0     C94653   5.805   2.523   7.647 -0.7444 -0.7261  0.7903
  702MOL0     C94654   5.876   2.635   7.651 -0.3003 -0.4664  1.0801
  702MOL0     C94655   5.979   2.663   7.550 -0.2079 -0.0339 -0.8133
  702MOL0     C94656   6.012   2.815   7.551  0.8990 -0.7082 -0.3055
  702MOL0     C94657   6.132   2.859   7.465 -1.0011  1.5720  0.1102
  702MOL0     C94658   6.106   2.850   7.313  0.7647  0.3762  1.0645
  702MOL0     O94659   6.181   2.956   7.259 -0.2296  0.8412  0.3081
  702MOL0     C94660   6.252   2.930   7.143 -0.2661 -0.6490 -0.2160
  702MOL0     C94661   6.365   3.007   7.135  1.1195 -1.3190 -0.3219
  702MOL0     C94662   6.466   2.969   7.040 -0.4996  0.2352 -0.4358
  702MOL0     C94663   6.460   2.865   6.953  1.1934  1.1907 -0.1410
  702MOL0     C94664   6.579   2.819   6.883  0.4975  1.1541 -0.5225
  702MOL0     O94665   6.697   2.848   6.942  0.5031 -0.0234  0.1274
  702MOL0     C94666   6.811   2.818   6.868 -0.9846 -0.2451 -0.2230
  702MOL0     C94667   6.829   2.706   6.783 -0.0699 -1.4171  0.3451
  702MOL0     C94668   6.958   2.676   6.737 -1.1125  0.2970  0.0039
  702MOL0     C94669   7.077   2.751   6.774  0.3762 -0.1181  0.5004
  702MOL0     O94670   7.201   2.716   6.721  0.1129  0.2709  0.2971
  702MOL0     C94671   7.307   2.808   6.731  0.6346 -0.3296  0.8548
  702MOL0     C94672   7.442   2.765   6.658 -0.1269 -0.2811 -0.1501
  702MOL0     C94673   7.437   2.761   6.514 -0.1334 -0.5373  0.2892
  702MOL0     C94674   7.568   2.689   6.455  0.8644  0.7077  0.1504
  702MOL0     C94675   7.548   2.545   6.390  0.6484 -0.6077 -0.1919
  702MOL0     C94676   7.671   2.494   6.315  0.4656 -0.6746 -0.1512
  702MOL0     C94677   7.647   2.353   6.245 -1.3248  0.2078  0.1340
  702MOL0     C94678   7.781   2.276   6.264 -1.0325  0.3823 -0.5703
  702MOL0    Cl94679   7.933   2.365   6.213 -0.0384 -0.0635 -0.2483
  702MOL0     C94680   7.054   2.862   6.860 -0.1212  0.6067 -0.6006
  702MOL0     C94681   6.927   2.888   6.913  0.4872  0.7180 -0.5839
  702MOL0     O94682   6.566   2.777   6.762  0.2726  0.5754  0.2463
  702MOL0     C94683   6.325   2.811   6.948  0.1922 -0.0023 -0.4467
  702MOL0     C94684   6.222   2.841   7.045 -1.0763 -0.2797  0.0964
  702MOL0     N94685   5.829   2.734   7.739 -0.2925 -0.1586 -0.1294
  702MOL0     N94686   5.736   2.672   7.804 -0.8559  0.4056  0.5156
  702MOL0     C94687   5.832   1.720   8.376  0.3303  1.2689  0.4579
  702MOL0     C94688   5.925   1.649   8.453 -0.0591  0.2889 -0.0609
  702MOL0     C94689   5.999   1.456   8.897  0.7712  0.3613  0.0507
  702MOL0     C94690   6.025   1.327   8.941  1.0482 -0.6078  0.1771
  702MOL0     C94691   6.115   1.295   9.048 -0.5227 -0.4892 -0.2310
  702MOL0     C94692   6.189   1.399   9.105  0.6715 -0.0546 -0.6162
  702MOL0     O94693   6.278   1.383   9.202  0.3335 -0.2264  0.7875
  702MOL0     C94694   6.265   1.280   9.291 -0.2914  0.1142 -0.0558
  702MOL0     C94695   6.410   1.254   9.339  0.5200 -0.0482  0.6017
  702MOL0     C94696   6.422   1.168   9.469 -0.2698  0.5514  0.0219
  702MOL0     C94697   6.568   1.130   9.502  0.4282  0.2934  0.0254
  702MOL0     C94698   6.594   1.038   9.612  0.1470  0.5438 -0.6639
  702MOL0     C94699   6.609   0.946   9.691 -0.6454  0.3225 -0.1658
  702MOL0     C94700   6.162   1.535   9.069  0.9467  1.5096 -0.2856
  702MOL0     C94701   6.063   1.558   8.970 -0.0792 -0.4322 -0.1707
  702MOL0     C94702   6.036   1.710   8.946  0.7423  0.7312 -0.0938
  702MOL0     H94703   5.765   1.702   8.755 -1.6498 -0.0349 -0.5743
  702MOL0     H94704   5.588   1.813   8.602  0.2966 -0.3793  0.9738
  702MOL0     H94705   5.723   1.926   8.169 -2.9922  2.1147  0.4950
  702MOL0     H94706   5.698   1.749   8.151  2.0931 -0.5336  0.7331
  702MOL0     H94707   5.447   1.794   8.170 -0.1368 -1.3398 -2.1422
  702MOL0     H94708   5.537   1.817   8.020 -0.1570 -0.7011 -0.6709
  702MOL0     H94709   5.520   2.054   8.222 -1.5740  2.2683  0.0113
  702MOL0     H94710   5.367   2.002   8.130  0.5494 -1.3138 -0.8433
  702MOL0     H94711   5.612   2.097   7.997 -0.1035 -2.1920  1.5534
  702MOL0     H94712   5.464   2.040   7.918  0.1709 -2.7564  1.8295
  702MOL0     H94713   5.333   2.215   8.058  0.0955 -1.1090  1.6059
  702MOL0     H94714   5.482   2.282   8.103 -2.2293  1.4478  0.0272
  702MOL0     H94715   5.420   2.250   7.797 -0.0153  0.1017 -0.4297
  702MOL0     H94716   5.366   2.389   7.879 -1.9409 -2.9486 -0.7715
  702MOL0     H94717   5.644   2.301   7.864  2.9938  1.3831 -1.1381
  702MOL0     H94718   5.583   2.451   7.963 -0.8396 -3.0050  1.6962
  702MOL0     H94719   5.570   2.427   7.659 -0.9004  1.2926 -1.2974
  702MOL0     H94720   5.517   2.574   7.751  1.3024  1.0955  0.3139
  702MOL0     H94721   5.825   2.443   7.577  2.7554  0.3594  0.3453
  702MOL0     H94722   6.059   2.590   7.556 -1.0795 -0.8833  1.2571
  702MOL0     H94723   5.934   2.650   7.451 -1.3352  1.6556 -0.5820
  702MOL0     H94724   5.935   2.872   7.497  2.1688  1.2622 -0.1224
  702MOL0     H94725   6.016   2.852   7.654 -1.0366 -0.6308 -0.2301
  702MOL0     H94726   6.220   2.803   7.496 -1.3727  0.9232  0.0044
  702MOL0     H94727   6.140   2.962   7.502 -3.9125  1.6563  0.7673
  702MOL0     H94728   5.999   2.861   7.289  0.7469 -2.2648 -0.4026
  702MOL0     H94729   6.154   2.755   7.289  3.9315  2.0714  0.0835
  702MOL0     H94730   6.386   3.084   7.209  2.3873 -1.9026 -0.0454
  702MOL0     H94731   6.562   3.018   7.047 -1.1613  1.4021  1.2403
  702MOL0     H94732   6.743   2.645   6.760 -0.7698 -0.0030 -0.9910
  702MOL0     H94733   6.964   2.583   6.682  1.5447 -0.0949  0.8561
  702MOL0     H94734   7.274   2.906   6.693  0.7060 -0.2054  1.1088
  702MOL0     H94735   7.319   2.819   6.839 -1.9624  0.9468  1.1095
  702MOL0     H94736   7.517   2.839   6.686 -0.0772  0.2787 -1.6817
  702MOL0     H94737   7.469   2.667   6.699 -0.1340  1.0054  3.2459
  702MOL0     H94738   7.346   2.724   6.466  2.2790 -2.3601 -3.3363
  702MOL0     H94739   7.457   2.865   6.487  3.2953 -1.2445 -0.3241
  702MOL0     H94740   7.641   2.674   6.534 -0.6418 -0.3345  1.4212
  702MOL0     H94741   7.609   2.748   6.372 -3.4346  0.8106 -2.2147
  702MOL0     H94742   7.464   2.560   6.321  1.0176  3.0141 -0.0803
  702MOL0     H94743   7.521   2.463   6.456 -2.7167  1.1658  0.8815
  702MOL0     H94744   7.698   2.568   6.239  0.3147 -0.1028  0.3443
  702MOL0     H94745   7.759   2.502   6.379  0.2771  2.0063 -0.0986
  702MOL0     H94746   7.601   2.359   6.146 -1.1793 -1.0587 -0.0336
  702MOL0     H94747   7.576   2.289   6.299 -0.1597 -0.4381  0.9347
  702MOL0     H94748   7.807   2.257   6.369 -0.0667 -1.7466 -1.1403
  702MOL0     H94749   7.772   2.176   6.221  0.3293 -2.0346  4.0330
  702MOL0     H94750   7.128   2.933   6.897 -1.2420  1.5370 -0.0984
  702MOL0     H94751   6.909   2.959   6.993 -0.0089 -2.1350  2.0569
  702MOL0     H94752   6.313   2.734   6.873  2.1400 -0.0084 -0.8003
  702MOL0     H94753   6.126   2.793   7.032 -1.0633 -0.2158 -0.2462
  702MOL0     H94754   5.856   1.747   8.273  0.5118  1.3909  0.5316
  702MOL0     H94755   6.020   1.613   8.414  0.2833  1.8972 -0.7804
  702MOL0     H94756   5.984   1.242   8.888 -1.1831  0.4043  0.1289
  702MOL0     H94757   6.132   1.191   9.071  3.0706  0.3522  1.6437
  702MOL0     H94758   6.220   1.192   9.242  0.4982 -0.3999  0.1316
  702MOL0     H94759   6.207   1.304   9.380 -1.3916 -2.5503  0.0573
  702MOL0     H94760   6.447   1.356   9.351  2.0441 -0.2563 -1.8444
  702MOL0     H94761   6.464   1.203   9.259 -0.2201 -0.4983  0.3728
  702MOL0     H94762   6.362   1.078   9.454 -0.9471  0.7048  1.5770
  702MOL0     H94763   6.389   1.235   9.549  1.6303  2.6912 -0.8569
  702MOL0     H94764   6.627   1.104   9.414  0.5301 -0.1598  0.2226
  702MOL0     H94765   6.601   1.222   9.551 -2.5236  1.9271 -0.8296
  702MOL0     H94766   6.609   0.854   9.746 -2.2111 -1.4459 -2.9259
  702MOL0     H94767   6.202   1.619   9.125 -0.1872  2.1119 -0.3591
  702MOL0     H94768   5.929   1.714   8.924  0.8913  0.7968 -0.8216
  702MOL0     H94769   6.048   1.759   9.043  1.5324 -1.8140  1.1886
  702MOL0     H94770   6.077   1.753   8.855 -2.3067  0.8565 -1.5374
  703MOL0     O94771   6.935   6.672   4.653 -0.4668 -0.3057 -0.1848
  703MOL0     C94772   6.974   6.683   4.535  0.2029 -0.5512  0.5995
  703MOL0     O94773   7.077   6.602   4.478  0.0206 -0.2059 -0.9166
  703MOL0     C94774   7.179   6.545   4.554 -1.1216 -0.3792  0.2379
  703MOL0     C94775   7.293   6.484   4.494  0.8389 -0.3951  0.3382
  703MOL0     C94776   7.395   6.420   4.565  0.7442  0.4306 -0.3368
  703MOL0     C94777   7.388   6.398   4.698  0.1256  0.6084 -1.0754
  703MOL0     O94778   7.491   6.345   4.771 -0.2106  0.4569 -0.0560
  703MOL0     C94779   7.607   6.308   4.708 -1.0811 -0.3794  0.1116
  703MOL0     C94780   7.696   6.249   4.823 -0.9025 -1.1057 -0.3472
  703MOL0     C94781   7.630   6.152   4.919 -0.4097  0.6830 -0.2564
  703MOL0     C94782   7.565   6.041   4.841  0.5153 -0.1190  0.3619
  703MOL0     C94783   7.484   5.933   4.913 -0.7388 -0.5995 -0.8101
  703MOL0     C94784   7.571   5.819   4.958 -0.3329  0.0893 -0.0918
  703MOL0     C94785   7.501   5.718   5.056  0.6265  0.1009  0.2895
  703MOL0     C94786   7.465   5.769   5.194  0.7536  0.3886 -0.5524
  703MOL0     N94787   7.357   5.674   5.244 -0.5429  0.3488  0.5596
  703MOL0     C94788   7.215   5.699   5.257 -1.4147  0.1475 -0.6395
  703MOL0     C94789   7.166   5.589   5.306 -0.5269 -0.3859  0.4982
  703MOL0     C94790   7.020   5.577   5.308  0.0228  0.3208  0.7381
  703MOL0     C94791   6.949   5.552   5.438 -0.2856 -0.2550  0.4812
  703MOL0     C94792   6.794   5.558   5.441  0.3136 -0.8974  1.4344
  703MOL0     C94793   6.740   5.438   5.365  0.0684 -0.0286 -0.6129
  703MOL0     O94794   6.597   5.421   5.376 -0.0980  0.3568 -0.1755
  703MOL0     C94795   6.514   5.500   5.303  0.3762 -0.0842  0.4346
  703MOL0     C94796   6.389   5.526   5.364  0.8011  0.9186  1.4274
  703MOL0     C94797   6.291   5.618   5.310 -0.7017 -0.3327  0.0860
  703MOL0     C94798   6.328   5.689   5.197  0.3463 -0.1149  0.3090
  703MOL0     C94799   6.238   5.775   5.131  0.7308 -0.7660 -0.3823
  703MOL0     O94800   6.258   5.779   4.992 -0.3275 -0.3247 -0.3399
  703MOL0     C94801   6.181   5.855   4.917  0.5879 -0.8008 -0.0830
  703MOL0     C94802   6.071   5.802   4.837  0.7724 -0.8533  0.9569
  703MOL0     C94803   5.976   5.887   4.775 -1.2732  0.1927 -0.3285
  703MOL0     C94804   5.980   6.028   4.789 -0.0419  1.0163  0.4564
  703MOL0     O94805   5.892   6.101   4.721  0.2743 -0.1184  0.4653
  703MOL0     C94806   5.769   6.117   4.798  0.6270 -0.4734 -0.3161
  703MOL0     C94807   5.689   6.222   4.731  0.6678  0.7668  0.2899
  703MOL0     C94808   5.536   6.193   4.729  0.2881  0.1353  0.4604
  703MOL0     C94809   5.448   6.306   4.677  0.9643 -1.1703  0.0029
  703MOL0     C94810   5.301   6.255   4.668  0.6821 -0.2128 -0.3458
  703MOL0     C94811   5.193   6.363   4.645  0.2548 -0.7184  0.1250
  703MOL0     C94812   5.048   6.307   4.658  0.6976 -0.4789 -0.4880
  703MOL0     C94813   4.935   6.361   4.551  0.0037  0.4603  0.0528
  703MOL0    Cl94814   4.782   6.271   4.618 -0.0649  0.1099  0.2173
  703MOL0     C94815   6.086   6.075   4.865  0.2216 -0.6639  0.7317
  703MOL0     C94816   6.179   5.993   4.931  0.1357 -0.6502 -0.4776
  703MOL0     O94817   6.149   5.829   5.191 -0.1336 -0.1261  0.0283
  703MOL0     C94818   6.442   5.654   5.130 -0.5850  0.1111 -0.4635
  703MOL0     C94819   6.538   5.576   5.185  0.6166 -0.3379  0.4436
  703MOL0     N94820   7.276   5.500   5.336 -0.3486  1.0574 -0.2256
  703MOL0     N94821   7.389   5.553   5.303 -0.3319  0.2752 -0.0256
  703MOL0     C94822   7.285   6.462   4.765 -0.3472 -0.2003 -0.1713
  703MOL0     C94823   7.187   6.528   4.691  0.5985  0.8146 -0.1307
  703MOL0     C94824   6.910   6.789   4.454 -0.3050  0.1389 -0.6585
  703MOL0     C94825   6.880   6.908   4.528 -0.0258  0.3521  0.3589
  703MOL0     C94826   6.801   7.005   4.470  0.4740 -0.1311 -0.2484
  703MOL0     C94827   6.754   6.993   4.341  0.2689  0.0372 -0.0773
  703MOL0     O94828   6.707   7.110   4.281  0.3068 -0.0799 -0.6587
  703MOL0     C94829   6.622   7.109   4.156 -0.3201  0.2514 -0.9320
  703MOL0     C94830   6.504   7.201   4.173 -0.2245  0.6440 -0.0224
  703MOL0     C94831   6.557   7.338   4.203 -0.7009 -0.2924 -0.0884
  703MOL0     C94832   6.533   7.383   4.342 -0.6207  0.8887 -1.2576
  703MOL0     C94833   6.413   7.452   4.348 -0.3778 -0.0401 -0.1938
  703MOL0     C94834   6.307   7.510   4.330  0.0345 -0.2752  0.5051
  703MOL0     C94835   6.793   6.888   4.265 -0.3585 -1.1288  0.5234
  703MOL0     C94836   6.863   6.777   4.319 -0.4764 -0.2955 -0.0679
  703MOL0     C94837   6.870   6.651   4.235 -0.4149 -0.0932 -0.5381
  703MOL0     H94838   7.297   6.485   4.386 -0.4160  0.1407  0.2717
  703MOL0     H94839   7.483   6.384   4.513  0.9327 -0.7542  0.7633
  703MOL0     H94840   7.581   6.234   4.633 -1.3342 -0.2215  0.0444
  703MOL0     H94841   7.660   6.394   4.666 -0.1531  0.0508  2.0555
  703MOL0     H94842   7.732   6.337   4.877 -3.2621  1.0836 -2.1196
  703MOL0     H94843   7.777   6.208   4.762  2.2348  1.4803  1.7000
  703MOL0     H94844   7.553   6.200   4.979 -0.9590 -3.3458  2.7072
  703MOL0     H94845   7.704   6.120   4.993  0.0542 -1.0550 -1.4163
  703MOL0     H94846   7.487   6.071   4.770  1.2693  0.2732 -0.3110
  703MOL0     H94847   7.637   6.010   4.765  3.0205  0.5489  2.3034
  703MOL0     H94848   7.428   5.971   4.999  2.0134 -0.7052  1.1780
  703MOL0     H94849   7.406   5.888   4.851  1.8630 -2.0803 -3.2434
  703MOL0     H94850   7.623   5.779   4.871 -0.5409  2.0664 -1.1851
  703MOL0     H94851   7.652   5.840   5.029 -0.3610  2.0193 -0.5822
  703MOL0     H94852   7.568   5.636   5.083  1.3092  1.3283  2.5846
  703MOL0     H94853   7.416   5.683   4.998 -0.9347  0.1434  2.4378
  703MOL0     H94854   7.550   5.771   5.263  0.7688  1.0779 -0.5750
  703MOL0     H94855   7.413   5.866   5.194  1.2216  0.6508  0.1807
  703MOL0     H94856   7.165   5.793   5.235 -2.3433 -0.7676 -2.6317
  703MOL0     H94857   6.977   5.671   5.272 -2.0120 -1.0363 -0.6726
  703MOL0     H94858   6.978   5.503   5.239  0.1339 -0.1479  1.1707
  703MOL0     H94859   6.981   5.454   5.476  3.3184  0.0019 -1.4537
  703MOL0     H94860   6.971   5.627   5.515 -4.0859 -0.6320  2.1714
  703MOL0     H94861   6.760   5.652   5.396 -0.1943 -2.0468 -0.7254
  703MOL0     H94862   6.757   5.555   5.543  0.6833 -1.1865  1.5628
  703MOL0     H94863   6.783   5.358   5.426 -1.2680  0.5500  1.1704
  703MOL0     H94864   6.792   5.431   5.270  2.5183  2.5419  0.3880
  703MOL0     H94865   6.374   5.482   5.462  0.6494  1.2466  1.5524
  703MOL0     H94866   6.195   5.623   5.362 -0.8383  0.1957 -0.2088
  703MOL0     H94867   6.064   5.697   4.811 -0.3298 -0.4904 -0.2989
  703MOL0     H94868   5.894   5.859   4.709 -1.4039  1.6090 -0.7911
  703MOL0     H94869   5.718   6.021   4.804 -1.9152  0.7991 -0.5088
  703MOL0     H94870   5.796   6.155   4.897  3.1119  2.3920 -1.9193
  703MOL0     H94871   5.716   6.317   4.778 -0.9107  0.0681  2.8157
  703MOL0     H94872   5.713   6.219   4.624 -1.1669  3.4472 -0.3176
  703MOL0     H94873   5.520   6.108   4.661  3.2673  1.6324 -2.4173
  703MOL0     H94874   5.504   6.168   4.830 -3.6210  0.1133 -0.6335
  703MOL0     H94875   5.474   6.344   4.578 -0.4306 -2.4845 -0.9225
  703MOL0     H94876   5.442   6.387   4.751 -1.0565 -0.7308 -0.5718
  703MOL0     H94877   5.281   6.205   4.763  0.0841  0.2826 -0.1991
  703MOL0     H94878   5.288   6.170   4.600 -2.7124 -0.2266  0.1211
  703MOL0     H94879   5.217   6.447   4.710  1.1067 -1.1052  0.3231
  703MOL0     H94880   5.213   6.400   4.544  1.8388 -1.4539  0.1362
  703MOL0     H94881   5.005   6.328   4.756 -1.6882 -2.5512 -0.9920
  703MOL0     H94882   5.037   6.198   4.656 -0.7034 -0.4016 -4.5212
  703MOL0     H94883   4.921   6.470   4.550 -0.5543  0.3943 -1.2033
  703MOL0     H94884   4.950   6.336   4.445 -2.2507  2.1194 -0.7385
  703MOL0     H94885   6.100   6.183   4.869 -2.3995 -0.2511  0.3243
  703MOL0     H94886   6.252   6.039   4.997 -0.3046 -0.9244  0.2172
  703MOL0     H94887   6.459   5.690   5.028 -4.0616 -0.9100 -1.5236
  703MOL0     H94888   6.637   5.557   5.146  0.4657  0.2145 -0.2432
  703MOL0     H94889   7.280   6.445   4.872  0.8482 -0.3501 -0.1309
  703MOL0     H94890   7.109   6.579   4.746  0.5419 -1.0564  1.6191
  703MOL0     H94891   6.913   6.920   4.631  2.6467  0.2743 -0.4199
  703MOL0     H94892   6.774   7.095   4.524  1.3848 -0.2120  0.3587
  703MOL0     H94893   6.574   7.012   4.140 -0.2196  0.1160 -0.4540
  703MOL0     H94894   6.683   7.141   4.071  1.2359  0.5420  0.2406
  703MOL0     H94895   6.440   7.161   4.251  0.9972 -1.7582 -0.1669
  703MOL0     H94896   6.431   7.199   4.091 -1.1428  1.1798  0.7625
  703MOL0     H94897   6.521   7.414   4.133  0.0858  1.4745  1.3652
  703MOL0     H94898   6.663   7.341   4.179 -0.7092  3.1722 -0.1686
  703MOL0     H94899   6.528   7.301   4.415 -3.3768  2.9519  1.1256
  703MOL0     H94900   6.610   7.450   4.382 -1.2442  1.2479 -0.6404
  703MOL0     H94901   6.218   7.560   4.298  0.0728 -1.8913 -2.5253
  703MOL0     H94902   6.766   6.883   4.160  2.3182  0.0857 -0.3195
  703MOL0     H94903   6.775   6.631   4.183  1.0138 -2.8404 -2.3307
  703MOL0     H94904   6.937   6.664   4.150 -1.8447 -0.6863 -1.8026
  703MOL0     H94905   6.895   6.567   4.300  2.5383  1.5084  0.5493
  704MOL0     O94906  10.738   2.626   6.986  0.2172  0.6187 -0.6959
  704MOL0     C94907  10.712   2.685   7.095  0.1730 -0.0306  0.9845
  704MOL0     O94908  10.630   2.647   7.197  1.0451  0.3594 -0.1077
  704MOL0     C94909  10.522   2.557   7.174 -0.1428 -0.1093  0.4246
  704MOL0     C94910  10.460   2.490   7.287  0.1828 -0.8481  0.3623
  704MOL0     C94911  10.349   2.402   7.264 -0.3546 -0.4891 -0.8704
  704MOL0     C94912  10.304   2.366   7.142  0.5158 -0.3050 -0.6850
  704MOL0     O94913  10.192   2.284   7.138 -0.9292 -0.1559  0.5273
  704MOL0     C94914  10.149   2.220   7.017 -1.4413 -0.5899  0.5643
  704MOL0     C94915  10.048   2.124   7.066  0.9645  1.2767  1.3204
  704MOL0     C94916   9.976   2.037   6.959  0.7952 -1.0348 -0.4316
  704MOL0     C94917   9.873   1.945   7.023 -1.0273 -0.7716 -0.2120
  704MOL0     C94918   9.736   2.012   7.025 -0.1710  0.8007  0.3190
  704MOL0     C94919   9.675   2.037   6.890  0.0543 -0.9440 -0.1190
  704MOL0     C94920   9.532   1.985   6.880 -0.5871 -0.0887  0.5005
  704MOL0     C94921   9.481   1.992   6.732 -0.3582 -0.1790  0.4577
  704MOL0     N94922   9.507   2.119   6.668  0.6507 -0.4982  0.3225
  704MOL0     C94923   9.430   2.238   6.658 -0.3169 -0.0409 -0.2556
  704MOL0     C94924   9.491   2.319   6.571 -0.9894 -0.8843 -0.2335
  704MOL0     C94925   9.442   2.455   6.544  0.4698 -0.0673  0.1536
  704MOL0     C94926   9.307   2.478   6.474  0.5791  0.7335  0.3897
  704MOL0     C94927   9.288   2.406   6.337 -0.7348  1.1937 -0.2622
  704MOL0     C94928   9.299   2.253   6.332  0.9082 -0.4296  0.3749
  704MOL0     O94929   9.226   2.209   6.444 -0.8603 -0.4748 -0.1248
  704MOL0     C94930   9.129   2.120   6.430  0.6645  0.7889  0.8117
  704MOL0     C94931   9.128   2.024   6.328  0.4617 -0.1512  0.8654
  704MOL0     C94932   9.021   1.941   6.318  0.9248  0.2502 -0.3489
  704MOL0     C94933   8.906   1.942   6.402  0.4921 -0.4183  0.3482
  704MOL0     C94934   8.792   1.859   6.370 -0.5387 -0.4117  0.5334
  704MOL0     O94935   8.817   1.729   6.348 -0.1621  0.3697  0.8765
  704MOL0     C94936   8.700   1.667   6.311 -0.2006  0.1483  0.7372
  704MOL0     C94937   8.666   1.647   6.175 -0.6937 -1.1613  0.0931
  704MOL0     C94938   8.546   1.571   6.140 -0.6866 -0.3862  0.9003
  704MOL0     C94939   8.453   1.519   6.236 -1.1270  0.1633  0.9054
  704MOL0     O94940   8.348   1.443   6.203  0.4618 -0.2823 -0.3103
  704MOL0     C94941   8.269   1.490   6.099  0.6235 -0.0045  0.7441
  704MOL0     C94942   8.166   1.384   6.085 -0.3617  0.1633 -0.3657
  704MOL0     C94943   8.077   1.389   5.956  0.7083  0.3625 -0.0848
  704MOL0     C94944   7.943   1.342   5.992  0.4178  0.9617  0.4425
  704MOL0     C94945   7.839   1.357   5.871  0.3099  0.0716  0.3447
  704MOL0     C94946   7.821   1.243   5.772 -0.4594  0.1871  0.3119
  704MOL0     C94947   7.741   1.289   5.654 -0.2949  0.3646  0.0201
  704MOL0     C94948   7.841   1.346   5.552 -0.5398 -0.0491 -0.1719
  704MOL0    Cl94949   7.747   1.352   5.396 -0.8464 -0.0940  0.4652
  704MOL0     C94950   8.501   1.530   6.368 -0.8683  0.2852  0.8960
  704MOL0     C94951   8.617   1.602   6.407 -0.0257  0.1009  0.8902
  704MOL0     O94952   8.678   1.918   6.372 -0.5909  1.0214 -0.3269
  704MOL0     C94953   8.899   2.051   6.489 -0.0479 -0.3363  0.1892
  704MOL0     C94954   9.012   2.140   6.503  0.3313  0.5846 -0.8169
  704MOL0     N94955   9.609   2.258   6.521  0.6202 -0.7807 -0.5586
  704MOL0     N94956   9.614   2.139   6.583 -0.2564 -0.1986 -0.6056
  704MOL0     C94957  10.355   2.431   7.033 -0.1025  0.0586  0.3107
  704MOL0     C94958  10.459   2.520   7.048 -0.9284 -0.6139 -0.1365
  704MOL0     C94959  10.800   2.814   7.126  0.7301  0.4116 -0.4325
  704MOL0     C94960  10.810   2.855   7.262  0.6525  0.8133  0.7935
  704MOL0     C94961  10.904   2.963   7.293  1.3181  0.3913 -0.3820
  704MOL0     C94962  10.976   3.022   7.193  1.2819  0.6245  0.1368
  704MOL0     O94963  11.068   3.117   7.225 -0.1370  0.0356  0.1759
  704MOL0     C94964  11.013   3.254   7.223 -0.9151  0.1834 -0.1640
  704MOL0     C94965  11.018   3.334   7.352 -0.5692 -0.9149 -0.1860
  704MOL0     C94966  10.890   3.308   7.434 -0.7886 -0.2493  1.4437
  704MOL0     C94967  10.902   3.393   7.556 -0.4358 -0.0067 -0.0316
  704MOL0     C94968  10.897   3.539   7.550 -0.4909 -0.0309  0.2606
  704MOL0     C94969  10.910   3.660   7.523  0.7714 -0.0818  1.3193
  704MOL0     C94970  10.957   2.984   7.062  1.1859 -0.2589 -0.4456
  704MOL0     C94971  10.868   2.884   7.028 -0.0520 -0.2882 -0.9834
  704MOL0     C94972  10.859   2.851   6.876 -0.1968  0.7747 -0.8833
  704MOL0     H94973  10.486   2.514   7.390 -2.9359 -0.6971  1.2176
  704MOL0     H94974  10.303   2.358   7.353 -0.3615  1.4871  0.1630
  704MOL0     H94975  10.099   2.287   6.947  2.7834  0.5016 -1.7440
  704MOL0     H94976  10.236   2.177   6.966  0.0020  1.2996  1.3140
  704MOL0     H94977   9.973   2.183   7.119 -1.0355  2.0731 -2.0886
  704MOL0     H94978  10.089   2.047   7.132 -1.6850 -2.2579 -0.7935
  704MOL0     H94979  10.047   1.977   6.902 -0.9426 -2.7431 -0.9412
  704MOL0     H94980   9.923   2.105   6.892  1.2575  1.7332  1.8190
  704MOL0     H94981   9.881   1.844   6.981 -0.6737 -0.5595 -0.6724
  704MOL0     H94982   9.909   1.922   7.123  0.9763 -2.1217 -1.1625
  704MOL0     H94983   9.660   1.948   7.071  0.2292  0.7910  0.9858
  704MOL0     H94984   9.743   2.109   7.075  1.9126  0.2429  1.2284
  704MOL0     H94985   9.676   2.146   6.880  1.3526 -0.9202 -0.0129
  704MOL0     H94986   9.727   1.989   6.806  0.1609  2.1022 -1.9569
  704MOL0     H94987   9.473   2.039   6.954  1.7441  1.5872  1.2606
  704MOL0     H94988   9.531   1.879   6.906 -1.0925  0.0229  0.9503
  704MOL0     H94989   9.517   1.906   6.674  2.3115  0.2240  1.3750
  704MOL0     H94990   9.372   1.983   6.733 -0.4980  1.3249  1.2598
  704MOL0     H94991   9.329   2.248   6.696 -0.6350 -1.4554 -0.6480
  704MOL0     H94992   9.417   2.505   6.638  3.3446  0.0400  0.9742
  704MOL0     H94993   9.528   2.505   6.497  1.8754 -1.2955  1.3148
  704MOL0     H94994   9.232   2.449   6.548  0.4729  0.9292  0.3610
  704MOL0     H94995   9.288   2.585   6.461 -1.3776  0.4783  0.8119
  704MOL0     H94996   9.372   2.441   6.277 -1.5495 -2.7517 -4.2423
  704MOL0     H94997   9.188   2.426   6.297 -0.4570  0.5858 -1.2770
  704MOL0     H94998   9.400   2.211   6.335  0.2974 -2.0177 -0.3776
  704MOL0     H94999   9.249   2.228   6.238  0.3153 -0.9122  0.8107
  704MOL0     H95000   9.210   2.021   6.257 -0.6658 -0.0592 -0.5012
  704MOL0     H95001   9.003   1.875   6.233 -0.4327  0.6951 -0.4397
  704MOL0     H95002   8.726   1.680   6.091 -1.5120 -1.3606 -0.5850
  704MOL0     H95003   8.524   1.562   6.034 -2.6736 -0.9519  1.3078
  704MOL0     H95004   8.216   1.583   6.121  2.0176  1.4140 -1.4600
  704MOL0     H95005   8.325   1.503   6.005  1.4784 -0.4188  1.1850
  704MOL0     H95006   8.219   1.288   6.089  1.8893  1.3793 -0.0222
  704MOL0     H95007   8.099   1.392   6.171  0.9408  0.9179  0.6004
  704MOL0     H95008   8.064   1.494   5.927 -5.7288  0.0436  0.2274
  704MOL0     H95009   8.116   1.334   5.870 -1.8452 -0.1829 -0.9745
  704MOL0     H95010   7.909   1.394   6.083 -0.1540  1.5644 -0.1045
  704MOL0     H95011   7.951   1.238   6.023 -1.9372  0.8150  0.7820
  704MOL0     H95012   7.868   1.447   5.815 -1.8062  0.1703 -0.6708
  704MOL0     H95013   7.739   1.382   5.908 -0.6835  0.6001 -2.4675
  704MOL0     H95014   7.916   1.205   5.733 -0.7254 -3.1052  2.4988
  704MOL0     H95015   7.774   1.157   5.820  2.2054 -1.1654  0.6803
  704MOL0     H95016   7.679   1.376   5.681  0.7101  0.7175  1.3173
  704MOL0     H95017   7.684   1.201   5.623 -1.7921  0.3623  2.5032
  704MOL0     H95018   7.866   1.447   5.587  0.9556 -0.0528 -1.1367
  704MOL0     H95019   7.934   1.289   5.548  0.9317  1.9950  1.9140
  704MOL0     H95020   8.448   1.475   6.445  0.4714 -4.0703 -0.9831
  704MOL0     H95021   8.639   1.598   6.514 -0.9378  3.0405  1.2721
  704MOL0     H95022   8.817   2.074   6.556 -0.1129 -1.1624  0.4069
  704MOL0     H95023   9.022   2.218   6.577  7.1312 -1.9686  1.7523
  704MOL0     H95024  10.302   2.401   6.943  2.7925 -1.0750 -1.1503
  704MOL0     H95025  10.482   2.570   6.954 -1.8907 -0.3621 -0.2492
  704MOL0     H95026  10.750   2.804   7.337  1.5908 -0.3217  0.7953
  704MOL0     H95027  10.941   2.981   7.394  2.9917  1.9386 -1.2145
  704MOL0     H95028  10.914   3.255   7.175 -1.0386 -0.1694  0.0802
  704MOL0     H95029  11.080   3.298   7.148  1.8328 -2.7406  0.3941
  704MOL0     H95030  11.017   3.439   7.319 -3.6748 -0.1045  2.0539
  704MOL0     H95031  11.109   3.310   7.407  0.6927  1.5121 -1.0557
  704MOL0     H95032  10.879   3.200   7.443  3.4939 -1.0995 -0.6203
  704MOL0     H95033  10.799   3.343   7.385 -1.9940 -4.3989  0.3843
  704MOL0     H95034  10.820   3.372   7.625 -1.0148  1.4893 -0.2135
  704MOL0     H95035  10.997   3.366   7.602  1.4849 -1.4770 -4.2740
  704MOL0     H95036  10.925   3.759   7.487 -1.4038  0.1467  0.8676
  704MOL0     H95037  11.005   3.040   6.983 -1.9546 -1.4396 -3.4444
  704MOL0     H95038  10.895   2.940   6.823 -0.4846  0.7643 -1.0940
  704MOL0     H95039  10.921   2.769   6.840  0.0179  1.2254 -1.5532
  704MOL0     H95040  10.755   2.830   6.848 -0.7315 -0.0846  1.4906
  705MOL0     O95041   3.919   4.735   6.056  0.2994  0.0467 -0.1600
  705MOL0     C95042   3.925   4.624   6.007  0.3067  0.1501 -0.4783
  705MOL0     O95043   3.956   4.511   6.079  0.6447 -0.2980 -0.5224
  705MOL0     C95044   4.017   4.513   6.207 -1.1414 -0.5435  0.2917
  705MOL0     C95045   3.991   4.410   6.291  0.6306  0.2134  0.1288
  705MOL0     C95046   4.036   4.408   6.423  0.9099  0.3834 -0.2137
  705MOL0     C95047   4.131   4.491   6.467 -0.3839  0.4872 -0.2949
  705MOL0     O95048   4.193   4.474   6.588 -1.4669  0.3856 -0.4456
  705MOL0     C95049   4.335   4.491   6.618 -0.5491 -0.2873  0.4782
  705MOL0     C95050   4.375   4.398   6.732  0.2804 -0.2406  0.9693
  705MOL0     C95051   4.523   4.417   6.777  0.0424 -0.1361  1.0350
  705MOL0     C95052   4.618   4.414   6.654  0.4281 -0.2247  0.4628
  705MOL0     C95053   4.765   4.402   6.688  0.2347  0.9236 -0.3655
  705MOL0     C95054   4.846   4.374   6.559  1.6951 -0.2521 -0.2564
  705MOL0     C95055   4.999   4.345   6.570  0.0456  0.1947  0.3177
  705MOL0     C95056   5.032   4.216   6.635  0.2026  0.7678 -0.1228
  705MOL0     N95057   5.158   4.212   6.701 -0.2974  0.5263  0.3992
  705MOL0     C95058   5.192   4.273   6.816 -0.7959 -0.8760  0.8007
  705MOL0     C95059   5.323   4.250   6.837  1.0271 -0.9943  1.1320
  705MOL0     C95060   5.408   4.327   6.934 -0.5820 -0.4151  0.7330
  705MOL0     C95061   5.492   4.223   7.018  0.0053 -0.2939 -0.2259
  705MOL0     C95062   5.588   4.281   7.116  1.2348 -0.4758  0.4757
  705MOL0     C95063   5.726   4.317   7.053 -0.4440  0.9845  0.6503
  705MOL0     O95064   5.809   4.205   7.033 -0.1295 -0.1467  0.0022
  705MOL0     C95065   5.886   4.154   7.139 -0.1202 -0.5212 -0.1701
  705MOL0     C95066   5.995   4.222   7.193 -0.5862  0.2290 -0.5006
  705MOL0     C95067   6.053   4.176   7.311  0.8497  0.0343  0.1243
  705MOL0     C95068   6.023   4.056   7.365 -0.2447  0.5434 -0.2010
  705MOL0     C95069   6.110   4.001   7.469  0.3677  0.0358 -0.5475
  705MOL0     O95070   6.223   4.074   7.520 -0.1285 -0.0039  0.3826
  705MOL0     C95071   6.313   4.005   7.593  0.6207 -0.6671 -1.3693
  705MOL0     C95072   6.313   4.026   7.728  0.3593 -0.1399  0.1716
  705MOL0     C95073   6.398   3.959   7.808  0.0156  0.4766 -1.0604
  705MOL0     C95074   6.482   3.846   7.771 -0.1795 -0.6645  0.2253
  705MOL0     O95075   6.568   3.788   7.856 -0.0060 -0.8236 -0.2947
  705MOL0     C95076   6.651   3.691   7.796  0.6501 -0.2327  0.0194
  705MOL0     C95077   6.709   3.603   7.908 -0.5440  0.4240 -0.1174
  705MOL0     C95078   6.783   3.686   8.004 -0.4597  1.0765 -0.2061
  705MOL0     C95079   6.761   3.629   8.146  0.1087 -0.5488 -0.0126
  705MOL0     C95080   6.856   3.723   8.236  0.5945  0.5732  1.2476
  705MOL0     C95081   6.859   3.679   8.385  0.2785  0.9256  0.2922
  705MOL0     C95082   6.922   3.779   8.481 -0.6595  0.5919  0.2008
  705MOL0     C95083   6.927   3.757   8.626  0.8916  0.1639  0.1449
  705MOL0    Cl95084   7.086   3.787   8.699  0.0528  0.1796  0.2189
  705MOL0     C95085   6.481   3.830   7.625 -0.0572 -0.0972  0.6210
  705MOL0     C95086   6.395   3.906   7.542 -0.9006 -0.2201 -0.0875
  705MOL0     O95087   6.097   3.878   7.492  0.7027 -0.1891  0.8642
  705MOL0     C95088   5.913   3.985   7.308 -0.0544 -0.0413 -0.1493
  705MOL0     C95089   5.848   4.038   7.199 -0.3284 -0.3644 -0.8107
  705MOL0     N95090   5.363   4.152   6.743 -0.2923  0.0645 -0.0520
  705MOL0     N95091   5.267   4.125   6.667  0.2814  0.7412  0.0632
  705MOL0     C95092   4.159   4.598   6.380 -1.0414 -0.5714 -0.6041
  705MOL0     C95093   4.116   4.609   6.253  0.3912  1.0632  0.0197
  705MOL0     C95094   3.866   4.621   5.872 -0.1801  0.1542 -0.2202
  705MOL0     C95095   3.796   4.733   5.816 -0.3485  0.3487  0.4703
  705MOL0     C95096   3.749   4.733   5.681 -0.1245 -0.1116  0.2773
  705MOL0     C95097   3.765   4.618   5.608  0.1983 -0.0457  0.9174
  705MOL0     O95098   3.694   4.621   5.494 -0.0226 -1.0215 -0.3331
  705MOL0     C95099   3.749   4.557   5.376 -0.3046  0.5603 -0.3153
  705MOL0     C95100   3.665   4.420   5.370 -1.0700  0.4187  1.6337
  705MOL0     C95101   3.503   4.452   5.357 -0.7895 -0.0901 -0.7497
  705MOL0     C95102   3.396   4.346   5.345  0.2632  0.1371  0.0479
  705MOL0     C95103   3.395   4.278   5.467  0.2844  1.1393 -0.9731
  705MOL0     C95104   3.395   4.210   5.569  0.3462  0.2459 -0.0775
  705MOL0     C95105   3.848   4.513   5.653  0.0597  0.4103 -0.0923
  705MOL0     C95106   3.896   4.514   5.786 -0.1953 -0.0926 -0.8878
  705MOL0     C95107   3.982   4.392   5.834  0.9937  0.2419  0.7763
  705MOL0     H95108   3.925   4.332   6.253  1.1099 -0.2150  0.1642
  705MOL0     H95109   3.978   4.339   6.484 -0.0910  1.0556 -0.3691
  705MOL0     H95110   4.397   4.453   6.536 -0.1850  2.7931 -0.8172
  705MOL0     H95111   4.374   4.591   6.643 -0.0715 -0.6707  1.2873
  705MOL0     H95112   4.367   4.297   6.691  0.7005  0.6087 -1.3582
  705MOL0     H95113   4.316   4.405   6.824 -2.2896  1.6143 -0.7027
  705MOL0     H95114   4.551   4.332   6.839  3.8560  0.6336  0.6403
  705MOL0     H95115   4.544   4.510   6.830 -1.2296 -0.3345  1.9326
  705MOL0     H95116   4.595   4.329   6.588  3.0292 -2.5036  2.2463
  705MOL0     H95117   4.601   4.510   6.604  1.1199 -0.0878  0.4805
  705MOL0     H95118   4.807   4.491   6.737  0.6702  0.2543  0.4910
  705MOL0     H95119   4.778   4.315   6.752 -2.2674  0.6834 -0.1208
  705MOL0     H95120   4.803   4.280   6.522  0.4096  0.2409 -0.0343
  705MOL0     H95121   4.826   4.454   6.487 -1.9951  2.0240  2.8983
  705MOL0     H95122   5.035   4.427   6.634  2.8971 -1.1462  0.6090
  705MOL0     H95123   5.059   4.355   6.479 -0.6859 -0.6401 -0.2642
  705MOL0     H95124   4.957   4.185   6.709  1.9935  1.5518  2.1411
  705MOL0     H95125   5.029   4.139   6.558 -1.5442 -1.0862  1.6544
  705MOL0     H95126   5.132   4.338   6.879  0.1316  1.0833 -0.2511
  705MOL0     H95127   5.472   4.403   6.888 -1.9399  0.6077  0.4697
  705MOL0     H95128   5.345   4.380   7.007 -2.4560 -0.9640 -0.4244
  705MOL0     H95129   5.416   4.179   7.083 -0.7147  0.3404 -0.6325
  705MOL0     H95130   5.556   4.156   6.961  3.8654  3.0998 -0.3725
  705MOL0     H95131   5.607   4.207   7.194 -1.2424 -2.4657 -0.6570
  705MOL0     H95132   5.556   4.375   7.163  2.3408  0.1669 -0.0100
  705MOL0     H95133   5.777   4.402   7.098 -1.4947  0.7874  2.3197
  705MOL0     H95134   5.707   4.350   6.950  0.6439  0.1224  0.1460
  705MOL0     H95135   6.022   4.315   7.144 -2.7739  0.8023 -0.7578
  705MOL0     H95136   6.132   4.239   7.350  0.3734 -1.6982  4.4557
  705MOL0     H95137   6.247   4.097   7.775  0.6400  0.6027 -0.5241
  705MOL0     H95138   6.398   3.992   7.912 -2.6299 -0.8826 -0.5386
  705MOL0     H95139   6.593   3.621   7.736 -2.3291  2.2256 -0.2265
  705MOL0     H95140   6.725   3.744   7.735  1.7931 -3.8027 -1.9963
  705MOL0     H95141   6.618   3.559   7.951  0.0912 -1.2405 -0.3992
  705MOL0     H95142   6.778   3.523   7.878 -1.4618 -1.7815  3.0343
  705MOL0     H95143   6.891   3.683   7.986  0.1475  1.0002  2.8724
  705MOL0     H95144   6.750   3.790   7.996  1.4725  1.8369  0.9421
  705MOL0     H95145   6.786   3.523   8.159 -2.4355 -1.2866 -0.6283
  705MOL0     H95146   6.659   3.649   8.180 -0.0161 -0.7567 -0.2677
  705MOL0     H95147   6.813   3.822   8.222 -0.1205 -0.0175 -1.2662
  705MOL0     H95148   6.960   3.730   8.203  0.6504  2.4641  1.6799
  705MOL0     H95149   6.759   3.642   8.411  0.4502  0.9118  0.9627
  705MOL0     H95150   6.915   3.585   8.393 -2.4212 -1.1475 -2.6723
  705MOL0     H95151   6.866   3.872   8.469  1.1527  1.8218  0.8836
  705MOL0     H95152   7.026   3.799   8.453 -0.4207  0.3767  0.9347
  705MOL0     H95153   6.843   3.808   8.673  0.5588 -2.9251  3.3305
  705MOL0     H95154   6.911   3.653   8.656 -2.4283  0.9054  1.4025
  705MOL0     H95155   6.550   3.765   7.571 -0.5578 -0.3444  0.2707
  705MOL0     H95156   6.381   3.904   7.435 -0.9230  0.6596 -0.1061
  705MOL0     H95157   5.878   3.886   7.333  1.2248 -0.3958  0.3536
  705MOL0     H95158   5.755   3.992   7.169  0.1811 -1.6287 -0.5161
  705MOL0     H95159   4.236   4.666   6.414 -1.7030 -0.0211 -0.1866
  705MOL0     H95160   4.160   4.669   6.173  2.4618  2.2443  1.9062
  705MOL0     H95161   3.782   4.822   5.877  2.6425  1.2192  0.0735
  705MOL0     H95162   3.700   4.821   5.641 -0.1607  0.1442  0.8846
  705MOL0     H95163   3.857   4.546   5.381  0.5526  3.6708 -5.3366
  705MOL0     H95164   3.739   4.606   5.279 -0.0985  2.0168  0.3816
  705MOL0     H95165   3.666   4.348   5.452 -2.8366 -1.4909  0.0883
  705MOL0     H95166   3.699   4.369   5.279  2.7492  1.7543  2.1352
  705MOL0     H95167   3.495   4.516   5.268  1.0089  0.7471 -0.3528
  705MOL0     H95168   3.476   4.522   5.436 -0.6155  0.7616 -1.4216
  705MOL0     H95169   3.302   4.400   5.328  0.4742  0.1799 -1.0480
  705MOL0     H95170   3.392   4.286   5.255 -1.1929  2.3652 -1.4768
  705MOL0     H95171   3.382   4.139   5.648 -2.4426 -2.4933 -2.7421
  705MOL0     H95172   3.866   4.429   5.587 -1.0801  2.0971 -2.7180
  705MOL0     H95173   4.075   4.442   5.861  1.5557 -0.6227  0.4951
  705MOL0     H95174   3.935   4.338   5.917  0.5610  1.0291  1.0552
  705MOL0     H95175   3.984   4.317   5.754  0.6805 -5.1285  5.2161
  706MOL0     O95176   2.628   6.246   5.688  0.3693 -0.3052 -0.6934
  706MOL0     C95177   2.537   6.211   5.760  0.2687 -0.4489  0.6935
  706MOL0     O95178   2.534   6.108   5.849  0.3228 -0.5194 -0.0617
  706MOL0     C95179   2.633   6.018   5.835 -0.3020 -0.1467 -0.4548
  706MOL0     C95180   2.647   5.950   5.723 -0.1440 -0.2019  0.3295
  706MOL0     C95181   2.740   5.843   5.715 -0.0820  0.2484  0.8337
  706MOL0     C95182   2.805   5.796   5.827  0.5665  0.3477 -0.3025
  706MOL0     O95183   2.874   5.684   5.841 -0.4802 -0.3261  0.3877
  706MOL0     C95184   2.897   5.589   5.734  0.0300  0.2555 -0.5532
  706MOL0     C95185   2.955   5.463   5.796 -0.3071  0.5684 -0.7480
  706MOL0     C95186   3.080   5.487   5.888 -0.9820  0.0480  1.1942
  706MOL0     C95187   3.150   5.359   5.931  0.1796 -0.3170 -0.5412
  706MOL0     C95188   3.238   5.287   5.824 -0.0579  0.0293 -0.1586
  706MOL0     C95189   3.344   5.380   5.758 -0.3236  0.3120  0.8539
  706MOL0     C95190   3.471   5.388   5.851 -0.0063 -0.3307  1.2030
  706MOL0     C95191   3.587   5.451   5.792  0.4647  0.0002  0.4936
  706MOL0     N95192   3.578   5.596   5.797  0.0708  1.0670  0.3788
  706MOL0     C95193   3.553   5.665   5.912  0.5659  0.1281 -0.0064
  706MOL0     C95194   3.567   5.798   5.884 -0.7589  0.8346  0.6062
  706MOL0     C95195   3.581   5.899   5.978  0.6601 -0.7618  0.1898
  706MOL0     C95196   3.460   5.990   5.971  0.1394 -0.2028 -0.3109
  706MOL0     C95197   3.333   5.908   5.993 -0.6354  0.0781  0.1310
  706MOL0     C95198   3.211   5.995   5.996 -0.5161 -0.5656  0.1974
  706MOL0     O95199   3.171   6.033   6.127  0.2831  0.7416 -0.0886
  706MOL0     C95200   3.053   6.098   6.131  1.8845  0.0029  0.4890
  706MOL0     C95201   2.978   6.137   6.027  0.5272  0.5269 -0.4782
  706MOL0     C95202   2.869   6.220   6.061 -0.0450 -0.0348 -0.3782
  706MOL0     C95203   2.833   6.261   6.194  0.2896 -0.0293  0.1705
  706MOL0     C95204   2.718   6.349   6.225  0.2375  0.2583  0.1664
  706MOL0     O95205   2.691   6.380   6.360  0.1654 -0.1962  0.0415
  706MOL0     C95206   2.572   6.455   6.381 -0.6815  0.2646  0.7738
  706MOL0     C95207   2.464   6.382   6.435  0.8972 -0.6172  0.2754
  706MOL0     C95208   2.331   6.441   6.443  0.4808  0.0300  0.8751
  706MOL0     C95209   2.305   6.572   6.395  0.8107 -0.5298  0.0225
  706MOL0     O95210   2.189   6.636   6.385  0.4292 -0.7909  0.2622
  706MOL0     C95211   2.059   6.569   6.389  0.1378 -0.1357  1.2361
  706MOL0     C95212   2.018   6.518   6.522 -0.4210  0.5240 -0.0566
  706MOL0     C95213   1.896   6.419   6.502 -0.1011 -0.2635 -0.0361
  706MOL0     C95214   1.784   6.480   6.402 -0.6455 -0.7064  0.0734
  706MOL0     C95215   1.651   6.419   6.432  0.5201 -0.2992 -0.8604
  706MOL0     C95216   1.549   6.483   6.339  0.0791  0.1230 -0.7870
  706MOL0     C95217   1.513   6.628   6.392  0.0780  0.4104 -0.1269
  706MOL0     C95218   1.392   6.691   6.313 -0.7538 -0.6250  0.3514
  706MOL0    Cl95219   1.308   6.799   6.436 -0.4964 -0.8310 -0.2304
  706MOL0     C95220   2.414   6.640   6.332  0.1044 -0.1211 -0.4303
  706MOL0     C95221   2.549   6.582   6.329 -0.2108 -0.2734  0.3725
  706MOL0     O95222   2.652   6.388   6.122 -0.9895  0.2448 -0.3083
  706MOL0     C95223   2.915   6.208   6.298  1.6630 -0.1780  0.4932
  706MOL0     C95224   3.020   6.129   6.264 -0.1227  0.4657 -0.8409
  706MOL0     N95225   3.589   5.807   5.754 -1.0913 -0.4448  0.1866
  706MOL0     N95226   3.581   5.693   5.700 -0.4030 -0.0129  0.5347
  706MOL0     C95227   2.779   5.864   5.947 -0.0752  0.4093 -0.2035
  706MOL0     C95228   2.695   5.976   5.954 -0.1418 -0.0146 -0.7837
  706MOL0     C95229   2.434   6.317   5.765 -0.6767  0.2519  0.7378
  706MOL0     C95230   2.423   6.358   5.893  0.4881 -0.2666  0.0132
  706MOL0     C95231   2.328   6.454   5.919 -0.3546  0.3388  0.4526
  706MOL0     C95232   2.245   6.500   5.825  1.1010 -0.3211  0.2420
  706MOL0     O95233   2.159   6.593   5.864  0.0888 -0.2722  0.9267
  706MOL0     C95234   2.029   6.590   5.806  0.1571 -0.0247 -0.3829
  706MOL0     C95235   1.933   6.689   5.874 -1.1533  0.4058  0.2990
  706MOL0     C95236   1.945   6.687   6.029 -0.2323 -0.0863 -1.0648
  706MOL0     C95237   1.884   6.807   6.096  0.4571 -0.4794 -0.2369
  706MOL0     C95238   1.739   6.823   6.064  0.9406  0.1799 -0.9410
  706MOL0     C95239   1.626   6.827   6.027 -0.7123  0.0170  0.4050
  706MOL0     C95240   2.258   6.463   5.686  0.3688  0.4172  0.1703
  706MOL0     C95241   2.364   6.367   5.648 -0.2728 -0.7260  0.4975
  706MOL0     C95242   2.384   6.315   5.506  0.4412 -0.4956  0.1204
  706MOL0     H95243   2.593   5.979   5.633  1.1733  1.9607  0.1686
  706MOL0     H95244   2.763   5.797   5.619  3.0282  3.5717 -0.2285
  706MOL0     H95245   2.805   5.568   5.679 -1.8229  1.4203  1.8844
  706MOL0     H95246   2.975   5.633   5.672  0.9780  2.5281  2.0556
  706MOL0     H95247   2.983   5.393   5.717  3.3833  0.8544  0.1423
  706MOL0     H95248   2.881   5.410   5.857  1.9533 -1.3338  0.4839
  706MOL0     H95249   3.056   5.550   5.974  0.5442  0.3558  1.4232
  706MOL0     H95250   3.143   5.546   5.821 -0.5354 -0.4431  1.1736
  706MOL0     H95251   3.218   5.386   6.012 -1.5458  0.6884  0.6366
  706MOL0     H95252   3.088   5.290   5.988  1.6910 -0.2907  1.2289
  706MOL0     H95253   3.290   5.203   5.871 -0.9789 -0.3985  0.1111
  706MOL0     H95254   3.172   5.244   5.748  0.8424 -1.2741 -0.2310
  706MOL0     H95255   3.378   5.330   5.667 -1.2212 -0.4035  0.9074
  706MOL0     H95256   3.304   5.472   5.714  1.3108 -0.3568 -2.3103
  706MOL0     H95257   3.492   5.282   5.871 -2.6871 -1.3302 -0.6891
  706MOL0     H95258   3.446   5.442   5.943 -0.0321  2.9212 -0.5539
  706MOL0     H95259   3.677   5.411   5.839 -1.3215 -2.3616  2.0901
  706MOL0     H95260   3.597   5.425   5.686  0.3027 -0.0164  0.4825
  706MOL0     H95261   3.544   5.635   6.016 -0.3759  4.4485  1.3739
  706MOL0     H95262   3.582   5.849   6.075  1.3851  1.4009  1.3735
  706MOL0     H95263   3.678   5.950   5.966  1.4040 -2.2914 -0.6066
  706MOL0     H95264   3.463   6.063   6.052 -0.2990  0.1320 -0.5878
  706MOL0     H95265   3.459   6.056   5.884  4.0245  3.1881  1.8518
  706MOL0     H95266   3.337   5.841   6.079 -0.7324 -0.0503  0.0356
  706MOL0     H95267   3.318   5.850   5.901  0.4730 -0.9830  0.6048
  706MOL0     H95268   3.130   5.963   5.930 -0.1461  0.1253 -0.6227
  706MOL0     H95269   3.252   6.088   5.955  1.3696 -1.4371 -0.0415
  706MOL0     H95270   2.979   6.095   5.927 -0.3531  0.3832 -0.4329
  706MOL0     H95271   2.815   6.263   5.977  5.0317  1.1351 -3.4738
  706MOL0     H95272   2.489   6.282   6.470  0.8643  0.3389  3.3089
  706MOL0     H95273   2.260   6.383   6.502 -2.2553 -0.3575 -2.4897
  706MOL0     H95274   1.987   6.642   6.351  1.9352  1.2974  0.4008
  706MOL0     H95275   2.072   6.486   6.319  1.5309  3.1342 -2.8125
  706MOL0     H95276   2.096   6.458   6.570 -2.2092 -1.2937  0.6765
  706MOL0     H95277   1.989   6.597   6.592  1.8919  1.0800  0.3582
  706MOL0     H95278   1.933   6.321   6.469 -1.7709 -1.2310  0.8654
  706MOL0     H95279   1.855   6.421   6.603 -2.4584  1.6057 -0.9448
  706MOL0     H95280   1.813   6.466   6.298  0.6011 -0.6248  0.3904
  706MOL0     H95281   1.771   6.584   6.434  1.6496  0.2454 -1.8533
  706MOL0     H95282   1.617   6.420   6.536  0.0678 -0.4373 -1.0032
  706MOL0     H95283   1.656   6.321   6.384  1.0540  0.1298 -1.7160
  706MOL0     H95284   1.586   6.496   6.237 -0.0918  0.0954 -0.8530
  706MOL0     H95285   1.457   6.424   6.339 -0.6856  1.1154  2.6176
  706MOL0     H95286   1.601   6.693   6.386  1.6047 -1.2871  2.2703
  706MOL0     H95287   1.481   6.628   6.497  0.1193  2.6534 -0.0663
  706MOL0     H95288   1.437   6.756   6.238  2.9452  1.4814  3.9773
  706MOL0     H95289   1.326   6.618   6.266  0.1411 -0.5669 -1.0335
  706MOL0     H95290   2.382   6.737   6.293 -1.8907  0.1132  1.5743
  706MOL0     H95291   2.633   6.635   6.284 -1.6979  3.3477  1.5156
  706MOL0     H95292   2.898   6.244   6.399 -0.0304  1.4224 -0.3073
  706MOL0     H95293   3.089   6.091   6.339 -0.0463  1.5637 -0.3372
  706MOL0     H95294   2.828   5.827   6.037 -0.0430 -1.1346 -0.8200
  706MOL0     H95295   2.682   6.024   6.050 -1.2010  0.5700 -1.2043
  706MOL0     H95296   2.487   6.336   5.978  0.8338  1.8941  0.3890
  706MOL0     H95297   2.325   6.501   6.017 -0.1590  1.5026 -0.0819
  706MOL0     H95298   1.981   6.493   5.821 -1.8905  1.0528  0.3926
  706MOL0     H95299   2.030   6.609   5.698  0.6140  2.2775 -0.0273
  706MOL0     H95300   1.829   6.670   5.845 -1.6368 -1.7378  3.0520
  706MOL0     H95301   1.952   6.793   5.846 -3.1095  0.6074 -0.4199
  706MOL0     H95302   2.048   6.689   6.068 -0.7400  0.7610  0.2787
  706MOL0     H95303   1.888   6.599   6.059 -2.9678  2.3820  1.6370
  706MOL0     H95304   1.883   6.806   6.205 -2.2054 -1.3770 -0.1910
  706MOL0     H95305   1.947   6.893   6.071  1.7058 -1.0400  0.8419
  706MOL0     H95306   1.524   6.844   5.999  0.0278  0.5063 -2.3100
  706MOL0     H95307   2.208   6.516   5.606  4.6784  2.2123 -1.6414
  706MOL0     H95308   2.333   6.222   5.481 -2.0218  0.8671 -0.2218
  706MOL0     H95309   2.344   6.394   5.442  1.4123  1.3551  1.6891
  706MOL0     H95310   2.492   6.312   5.490  0.7273  2.4640  0.8625
  707MOL0     O95311  10.131  10.700   0.297 -1.1671 -0.2672 -0.3747
  707MOL0     C95312  10.049  10.624   0.343 -0.9858 -0.2699  0.7351
  707MOL0     O95313   9.936  10.655   0.414  0.4458 -0.9348 -0.6523
  707MOL0     C95314   9.902  10.787   0.431 -0.2890 -0.0757  0.2706
  707MOL0     C95315   9.878  10.875   0.323 -0.3239 -0.3388  0.2033
  707MOL0     C95316   9.870  11.014   0.342  0.0816 -0.9805  0.2787
  707MOL0     C95317   9.858  11.060   0.474  0.2262 -0.6145 -0.1533
  707MOL0     O95318   9.867  11.197   0.500  0.0466  0.1496 -0.3447
  707MOL0     C95319   9.915  11.242   0.630 -0.0580  0.2695 -0.1037
  707MOL0     C95320   9.930  11.395   0.613  0.5265  0.0202 -0.9537
  707MOL0     C95321  10.027  11.469   0.714  1.0515 -0.0461  0.4607
  707MOL0     C95322  10.016  11.623   0.705 -0.1260  0.0579  0.9523
  707MOL0     C95323  10.103  11.699   0.797  0.4288 -0.1803 -0.6712
  707MOL0     C95324  10.098  11.850   0.759 -0.2908 -0.0070  0.1431
  707MOL0     C95325  10.186  11.925   0.856 -0.6084 -0.0368 -0.0375
  707MOL0     C95326  10.195  12.072   0.824  0.6042  0.3688 -0.0563
  707MOL0     N95327  10.298  12.153   0.882 -0.3455  0.8210 -0.1047
  707MOL0     C95328  10.274  12.261   0.962 -0.1045 -0.1591 -0.2350
  707MOL0     C95329  10.401  12.300   1.002 -0.0110 -0.3115  0.8761
  707MOL0     C95330  10.452  12.423   1.087  0.3918  0.7024  0.8768
  707MOL0     C95331  10.534  12.518   0.996 -0.0720  0.3961 -0.4542
  707MOL0     C95332  10.625  12.612   1.070  0.1219 -0.0880  0.2078
  707MOL0     C95333  10.669  12.718   0.968 -1.0987 -0.5882  0.4984
  707MOL0     O95334  10.779  12.799   1.014 -0.5682 -0.7261  0.3722
  707MOL0     C95335  10.841  12.878   0.917  0.0427  0.3374 -0.6482
  707MOL0     C95336  10.801  12.897   0.784 -0.8314  0.2246 -0.0581
  707MOL0     C95337  10.891  12.977   0.701 -1.3465 -0.1313  0.3685
  707MOL0     C95338  11.013  13.031   0.743 -0.4007 -0.1696 -0.1937
  707MOL0     C95339  11.102  13.115   0.656  0.5696  0.2911  0.4623
  707MOL0     O95340  11.060  13.142   0.533  0.0861  0.2577  0.0869
  707MOL0     C95341  11.120  13.239   0.463  0.5170 -0.2217 -0.3660
  707MOL0     C95342  11.194  13.216   0.346 -0.0459 -0.3167 -0.1524
  707MOL0     C95343  11.245  13.318   0.266 -0.5758 -0.1984  0.2478
  707MOL0     C95344  11.234  13.446   0.316 -0.2104  0.0269  0.4391
  707MOL0     O95345  11.307  13.541   0.256 -0.0675 -1.0635  0.1815
  707MOL0     C95346  11.402  13.621   0.334 -0.3077  0.1284  0.1888
  707MOL0     C95347  11.419  13.767   0.276 -0.5636  0.0686  0.2210
  707MOL0     C95348  11.568  13.811   0.274  0.0365  0.4341  1.0772
  707MOL0     C95349  11.625  13.827   0.413  0.1016  0.8839 -0.7238
  707MOL0     C95350  11.777  13.860   0.417  0.7663 -0.0642  0.3828
  707MOL0     C95351  11.811  13.992   0.361 -0.5193  0.2418 -0.4963
  707MOL0     C95352  11.967  14.011   0.360 -0.4408  0.5229 -0.3892
  707MOL0     C95353  12.020  14.112   0.264 -0.2911  0.2132 -0.0882
  707MOL0    Cl95354  12.009  14.274   0.324 -0.3335 -0.1085  0.3407
  707MOL0     C95355  11.165  13.475   0.437 -0.1897 -0.6041  0.4467
  707MOL0     C95356  11.115  13.370   0.513  0.5120  0.1500  0.0127
  707MOL0     O95357  11.204  13.157   0.706 -0.8779 -0.0318 -0.3571
  707MOL0     C95358  11.043  13.025   0.878  0.7298  0.8466 -0.9133
  707MOL0     C95359  10.959  12.940   0.962 -0.4048  0.0543 -0.0780
  707MOL0     N95360  10.484  12.207   0.945  0.5640  0.1035  0.4817
  707MOL0     N95361  10.422  12.132   0.861 -0.6227  0.3785 -0.3827
  707MOL0     C95362   9.863  10.968   0.577 -0.0392 -0.6226  0.5760
  707MOL0     C95363   9.896  10.836   0.560  1.1850  0.1009  0.4099
  707MOL0     C95364  10.071  10.479   0.325  0.8184 -0.1316  0.3037
  707MOL0     C95365  10.065  10.418   0.197 -0.0081 -0.2865  0.2734
  707MOL0     C95366  10.088  10.287   0.188 -0.5587 -0.4119 -0.3623
  707MOL0     C95367  10.105  10.208   0.302  1.3451  0.7397 -0.1909
  707MOL0     O95368  10.114  10.073   0.274 -0.2898 -0.0075 -0.1782
  707MOL0     C95369  10.027   9.987   0.351 -0.0996  0.7375  0.4259
  707MOL0     C95370   9.888  10.015   0.310 -0.4120  0.2279  0.8907
  707MOL0     C95371   9.799  10.040   0.429 -0.4701  0.2612  0.1516
  707MOL0     C95372   9.655  10.076   0.380 -0.2382  0.3073 -0.6545
  707MOL0     C95373   9.608  10.002   0.257  0.1269  0.2597 -0.3376
  707MOL0     C95374   9.570   9.936   0.156  0.5417  0.6725 -0.8600
  707MOL0     C95375  10.122  10.264   0.425  0.2944 -0.5624  0.5589
  707MOL0     C95376  10.103  10.396   0.436 -0.8460 -0.2228  0.0255
  707MOL0     C95377  10.122  10.454   0.575  0.7235 -0.8434  0.5712
  707MOL0     H95378   9.896  10.840   0.222  0.7125  0.7445 -0.0202
  707MOL0     H95379   9.881  11.101   0.277  1.2471 -0.8243  0.6743
  707MOL0     H95380   9.844  11.222   0.710 -0.1531  2.3968  0.4051
  707MOL0     H95381  10.014  11.205   0.660  0.0364  1.9331  1.8954
  707MOL0     H95382   9.828  11.434   0.611  0.2914 -0.4284  0.9039
  707MOL0     H95383   9.979  11.390   0.515  0.6489 -2.8251 -0.8451
  707MOL0     H95384  10.133  11.445   0.697  0.6164 -1.7146 -0.1404
  707MOL0     H95385   9.992  11.443   0.814 -0.7640  1.9967  0.4328
  707MOL0     H95386  10.051  11.647   0.605  1.6731 -1.3234  1.1831
  707MOL0     H95387   9.910  11.645   0.718 -0.8094 -1.9497 -0.6015
  707MOL0     H95388  10.064  11.693   0.899 -3.7998  2.5088 -1.8833
  707MOL0     H95389  10.206  11.664   0.784  0.5397  0.1805 -0.7778
  707MOL0     H95390  10.137  11.869   0.659 -2.0261  0.7127 -0.4400
  707MOL0     H95391   9.996  11.890   0.761 -0.4767 -0.4517 -0.1632
  707MOL0     H95392  10.288  11.884   0.858 -0.1971  1.0112  0.9394
  707MOL0     H95393  10.165  11.909   0.962 -0.8917  2.8342  0.4023
  707MOL0     H95394  10.196  12.076   0.714 -0.3501  0.4926 -0.0693
  707MOL0     H95395  10.099  12.118   0.848 -0.7965 -1.9881 -0.8849
  707MOL0     H95396  10.188  12.320   0.992  0.8414  0.9573  0.3403
  707MOL0     H95397  10.359  12.471   1.121 -2.5284 -3.1135 -0.9085
  707MOL0     H95398  10.516  12.393   1.171 -0.6317  0.0604  1.4608
  707MOL0     H95399  10.596  12.450   0.937 -3.9386 -1.4291 -2.8086
  707MOL0     H95400  10.470  12.581   0.935  1.2382  1.8402 -0.4052
  707MOL0     H95401  10.708  12.551   1.108 -0.0607  0.6790  1.9182
  707MOL0     H95402  10.577  12.659   1.156 -2.0915  0.3156 -1.1837
  707MOL0     H95403  10.586  12.785   0.944 -1.8566 -1.5026  0.4746
  707MOL0     H95404  10.703  12.654   0.886  2.6813 -1.3695  2.4524
  707MOL0     H95405  10.708  12.867   0.736 -2.7677  3.9548  0.9707
  707MOL0     H95406  10.862  12.998   0.598  0.6249  1.8546  0.1368
  707MOL0     H95407  11.199  13.110   0.323 -0.4854 -1.0505  2.7492
  707MOL0     H95408  11.310  13.300   0.181 -1.2798 -0.3235 -0.2741
  707MOL0     H95409  11.364  13.617   0.437  1.9494  0.8561  1.1050
  707MOL0     H95410  11.498  13.570   0.328 -1.0393 -1.1745 -1.2402
  707MOL0     H95411  11.382  13.773   0.174 -0.7603  0.1766  0.2968
  707MOL0     H95412  11.361  13.843   0.330 -0.1800  0.3029  0.3035
  707MOL0     H95413  11.626  13.740   0.215  0.1695  1.5494 -0.1924
  707MOL0     H95414  11.559  13.908   0.223  0.2995  0.0982  0.3820
  707MOL0     H95415  11.608  13.740   0.477  0.6931  0.2530 -1.3990
  707MOL0     H95416  11.585  13.908   0.474  0.3101  1.2021 -1.0010
  707MOL0     H95417  11.840  13.779   0.376  0.6824 -1.1837  2.3455
  707MOL0     H95418  11.806  13.863   0.522 -0.7840  0.0203  0.8315
  707MOL0     H95419  11.763  14.002   0.263 -2.4907  2.4576  0.5863
  707MOL0     H95420  11.769  14.067   0.428  2.7741  1.9775 -0.1905
  707MOL0     H95421  12.012  13.912   0.345 -3.9872 -2.4634  5.1577
  707MOL0     H95422  11.998  14.025   0.464 -2.1946 -3.9716  0.9794
  707MOL0     H95423  12.129  14.103   0.256  0.2193  4.5454 -0.5618
  707MOL0     H95424  11.960  14.103   0.173 -1.2794 -0.6154  0.6244
  707MOL0     H95425  11.123  13.572   0.460 -0.3861  0.1584 -2.6609
  707MOL0     H95426  11.066  13.397   0.606 -0.1231 -0.3008 -0.1813
  707MOL0     H95427  11.113  13.092   0.927 -0.0654  1.0357 -0.0045
  707MOL0     H95428  10.967  12.932   1.070 -1.5499 -0.9614 -0.0483
  707MOL0     H95429   9.846  10.991   0.682  3.0358 -1.3822  1.3355
  707MOL0     H95430   9.913  10.756   0.632 -1.2963 -1.6721 -0.8509
  707MOL0     H95431  10.051  10.466   0.101  0.3374  0.4386  0.5828
  707MOL0     H95432  10.093  10.236   0.093  3.1906  0.3777 -0.7490
  707MOL0     H95433  10.041  10.001   0.459  0.5232  0.8336  0.3357
  707MOL0     H95434  10.045   9.880   0.338  0.7876  0.7056  1.6680
  707MOL0     H95435   9.863   9.928   0.249  1.7966  2.2945 -3.4032
  707MOL0     H95436   9.881  10.092   0.232 -1.9797 -1.5581 -0.8295
  707MOL0     H95437   9.830  10.119   0.498 -0.8024  1.7063 -1.2745
  707MOL0     H95438   9.786   9.949   0.489  2.0606 -0.1097  0.2264
  707MOL0     H95439   9.588  10.055   0.463 -0.6257 -0.0244 -1.0460
  707MOL0     H95440   9.656  10.180   0.346  0.8702 -0.1133 -2.0007
  707MOL0     H95441   9.541   9.875   0.073  1.8735 -0.4830 -0.5277
  707MOL0     H95442  10.138  10.195   0.507 -1.0315 -1.0952  0.4002
  707MOL0     H95443  10.056  10.540   0.589  1.6339 -0.2014  0.9746
  707MOL0     H95444  10.098  10.380   0.652 -3.0652 -0.8701 -0.4545
  707MOL0     H95445  10.225  10.482   0.597  0.0642 -0.8812  4.2156
  708MOL0     O95446   7.948   5.044   8.124  0.2645 -0.1394 -0.4611
  708MOL0     C95447   8.046   5.123   8.134 -0.1308 -0.2051 -0.3620
  708MOL0     O95448   8.158   5.116   8.052 -0.0273 -0.2352 -0.2997
  708MOL0     C95449   8.172   5.028   7.959 -0.3229 -0.7808  0.4070
  708MOL0     C95450   8.168   4.893   7.978 -0.1614  0.7513 -0.0817
  708MOL0     C95451   8.184   4.803   7.870  0.4300  1.5516  0.2963
  708MOL0     C95452   8.194   4.853   7.733 -0.1888  0.8771 -0.9106
  708MOL0     O95453   8.212   4.776   7.620 -0.5693 -0.0721 -0.6553
  708MOL0     C95454   8.345   4.720   7.618 -0.7476  0.9355 -0.1953
  708MOL0     C95455   8.351   4.573   7.680  0.4602 -1.3065 -0.3802
  708MOL0     C95456   8.477   4.513   7.617 -0.7305 -0.2031  0.5028
  708MOL0     C95457   8.495   4.364   7.661 -0.1721 -0.4398 -0.2390
  708MOL0     C95458   8.628   4.312   7.612 -0.1630 -0.0077  1.1988
  708MOL0     C95459   8.642   4.155   7.638 -0.3082  0.0370 -0.9102
  708MOL0     C95460   8.551   4.075   7.551  0.6444  0.6391  0.4904
  708MOL0     C95461   8.561   4.098   7.394 -0.5081 -0.7201  0.3901
  708MOL0     N95462   8.464   4.022   7.312  0.1185  0.4209 -0.3143
  708MOL0     C95463   8.431   4.050   7.180 -0.2730  0.5420 -0.0283
  708MOL0     C95464   8.335   3.963   7.149  1.4913  1.1886  0.0032
  708MOL0     C95465   8.272   3.960   7.010  0.3860 -0.0693 -0.8840
  708MOL0     C95466   8.125   3.994   7.018  0.5435 -0.2540 -0.4289
  708MOL0     C95467   8.028   3.883   7.075 -0.0481 -1.0076 -0.4977
  708MOL0     C95468   7.890   3.932   7.103  0.1774 -0.0958 -0.2010
  708MOL0     O95469   7.828   3.978   6.974  0.3020 -0.4434 -0.3080
  708MOL0     C95470   7.765   4.100   6.985  0.4520 -0.0157  0.0254
  708MOL0     C95471   7.701   4.136   6.869 -0.5083 -1.0093 -0.4674
  708MOL0     C95472   7.624   4.250   6.863  0.4606  0.5887 -0.1105
  708MOL0     C95473   7.598   4.331   6.977 -0.6422  0.7355 -0.0146
  708MOL0     C95474   7.520   4.458   6.978  0.1616 -0.3539 -0.0144
  708MOL0     O95475   7.515   4.529   7.089  0.1680 -0.0601  0.5039
  708MOL0     C95476   7.451   4.652   7.085 -0.0313  0.4311  0.7361
  708MOL0     C95477   7.322   4.668   7.030 -0.6060 -0.2268 -0.8776
  708MOL0     C95478   7.260   4.793   7.027  0.5831  0.5323  0.3146
  708MOL0     C95479   7.324   4.900   7.085 -0.7649 -0.1349 -0.2128
  708MOL0     O95480   7.268   5.026   7.084  0.1557  0.0780 -0.1814
  708MOL0     C95481   7.164   5.038   7.188 -0.6803  0.2536  0.6861
  708MOL0     C95482   7.023   5.069   7.140 -0.6065  0.4272  0.1719
  708MOL0     C95483   6.914   5.080   7.254 -0.7962  0.1960 -0.5977
  708MOL0     C95484   6.929   5.206   7.354 -0.2023 -0.9560  1.2884
  708MOL0     C95485   6.843   5.194   7.489 -0.1630  0.0909  0.0655
  708MOL0     C95486   6.836   5.326   7.563  0.1693 -0.3198  0.8978
  708MOL0     C95487   6.782   5.306   7.707  0.6558  0.0747  0.9335
  708MOL0     C95488   6.753   5.437   7.780 -0.0724  0.3951  0.9763
  708MOL0    Cl95489   6.916   5.511   7.813  0.6125 -0.4602 -0.0875
  708MOL0     C95490   7.459   4.891   7.143  0.1831  0.6364 -0.4345
  708MOL0     C95491   7.512   4.758   7.139 -0.5496 -0.3029 -0.3038
  708MOL0     O95492   7.480   4.497   6.867 -0.1391 -0.7419 -0.2753
  708MOL0     C95493   7.656   4.290   7.101  0.6032  0.7390  1.1858
  708MOL0     C95494   7.736   4.174   7.103 -0.2147 -1.3076 -0.2141
  708MOL0     N95495   8.310   3.880   7.258 -0.5239  0.1382 -0.2973
  708MOL0     N95496   8.382   3.920   7.357 -0.5591 -1.1541 -0.2111
  708MOL0     C95497   8.199   4.989   7.721  0.5189 -0.7412 -0.0844
  708MOL0     C95498   8.197   5.077   7.830  0.1762  0.3546  0.3187
  708MOL0     C95499   8.058   5.222   8.242 -0.0690 -0.4998  1.0271
  708MOL0     C95500   7.970   5.197   8.351 -1.0930  0.1727  0.3664
  708MOL0     C95501   7.959   5.302   8.444  0.2286 -0.3316  0.6996
  708MOL0     C95502   8.022   5.428   8.443  0.4086  0.2570  0.5163
  708MOL0     O95503   8.018   5.523   8.538 -0.1055  0.0987  0.2123
  708MOL0     C95504   7.953   5.646   8.507 -0.1754 -0.6979  1.3919
  708MOL0     C95505   7.806   5.630   8.540  0.3307  1.2235 -0.9013
  708MOL0     C95506   7.808   5.617   8.698  0.6963 -0.7118 -0.9764
  708MOL0     C95507   7.666   5.641   8.749  0.3232  1.0770  0.4508
  708MOL0     C95508   7.670   5.631   8.896 -0.2598 -0.6645  0.1033
  708MOL0     C95509   7.657   5.612   9.018 -0.4883  0.4260 -0.1774
  708MOL0     C95510   8.114   5.440   8.332  0.1711 -0.1531 -0.8974
  708MOL0     C95511   8.130   5.344   8.238  0.1359  0.4522  0.4798
  708MOL0     C95512   8.232   5.368   8.130 -0.0112 -0.9865 -0.0924
  708MOL0     H95513   8.163   4.866   8.083  1.1213 -1.3116 -0.4710
  708MOL0     H95514   8.195   4.695   7.871 -1.0082  1.2774  4.7421
  708MOL0     H95515   8.375   4.719   7.513 -3.6720  1.3865 -1.1338
  708MOL0     H95516   8.420   4.793   7.649 -1.9708  2.3298 -0.4486
  708MOL0     H95517   8.253   4.530   7.657  1.3857 -2.7922 -1.7214
  708MOL0     H95518   8.368   4.582   7.788  2.4151 -3.1103 -0.4660
  708MOL0     H95519   8.574   4.557   7.641 -0.9629  0.0428  1.0141
  708MOL0     H95520   8.471   4.516   7.507  0.4838  2.4806  0.4311
  708MOL0     H95521   8.499   4.371   7.770  4.5830 -4.1968  0.1650
  708MOL0     H95522   8.404   4.312   7.627 -1.9069  1.3355  1.4161
  708MOL0     H95523   8.650   4.338   7.508  1.7912 -3.0240  0.7341
  708MOL0     H95524   8.705   4.370   7.664  2.4616  0.3747 -2.6872
  708MOL0     H95525   8.743   4.133   7.605 -0.2403 -1.9113  0.4311
  708MOL0     H95526   8.630   4.146   7.747  1.3275  1.7165 -0.5364
  708MOL0     H95527   8.443   4.082   7.570  0.9535  1.3911  2.0803
  708MOL0     H95528   8.569   3.969   7.567 -1.3984 -0.3948 -2.9614
  708MOL0     H95529   8.555   4.204   7.367  1.1413 -0.8950 -0.8354
  708MOL0     H95530   8.661   4.083   7.352 -0.2225 -0.9065  1.1309
  708MOL0     H95531   8.483   4.122   7.118  1.1960  0.8754  1.4963
  708MOL0     H95532   8.317   4.041   6.952 -2.4889  0.9786 -1.8294
  708MOL0     H95533   8.270   3.858   6.971 -3.5178  0.1532 -1.6291
  708MOL0     H95534   8.110   4.081   7.082 -0.5222  0.1640 -1.2263
  708MOL0     H95535   8.092   4.025   6.918  0.1005  0.5438 -0.0441
  708MOL0     H95536   8.069   3.840   7.167  1.6513  0.1261 -0.6830
  708MOL0     H95537   8.023   3.803   7.000 -1.3304  0.4431 -2.0562
  708MOL0     H95538   7.880   3.976   7.203 -1.2729 -1.2297  0.1879
  708MOL0     H95539   7.821   3.850   7.125 -2.7145  1.1791 -3.4436
  708MOL0     H95540   7.721   4.074   6.783  0.5048 -2.3741  0.7139
  708MOL0     H95541   7.589   4.283   6.766 -0.1691  1.3951  0.3767
  708MOL0     H95542   7.268   4.591   6.975 -0.9819 -0.5762 -0.0373
  708MOL0     H95543   7.164   4.812   6.980  1.5409  2.0523 -1.1388
  708MOL0     H95544   7.154   4.954   7.258  1.2408 -1.4331 -0.9656
  708MOL0     H95545   7.204   5.127   7.237  2.4640  1.7607 -4.0000
  708MOL0     H95546   7.014   5.160   7.081 -3.1472  0.3713  0.3624
  708MOL0     H95547   6.994   4.990   7.070  0.5779 -1.2547  1.4974
  708MOL0     H95548   6.814   5.092   7.210  0.0582  0.1659 -2.6694
  708MOL0     H95549   6.918   4.991   7.318 -3.3681 -0.4772 -1.2527
  708MOL0     H95550   6.908   5.291   7.288  0.1382 -1.5553  0.3935
  708MOL0     H95551   7.031   5.227   7.385  0.7260 -2.1421 -0.7704
  708MOL0     H95552   6.877   5.115   7.557 -1.1191  0.1979  0.6888
  708MOL0     H95553   6.743   5.172   7.449 -0.7711  4.3098 -1.2216
  708MOL0     H95554   6.939   5.364   7.567 -1.1170  3.5785  1.4339
  708MOL0     H95555   6.776   5.400   7.510  2.1046  2.2379  2.0631
  708MOL0     H95556   6.860   5.242   7.749 -1.8749 -2.5745  1.8851
  708MOL0     H95557   6.693   5.243   7.702  0.8695 -0.1339 -0.8867
  708MOL0     H95558   6.682   5.500   7.726 -2.4107 -1.3277  1.8532
  708MOL0     H95559   6.696   5.415   7.871 -0.6942  2.1537  1.0464
  708MOL0     H95560   7.507   4.984   7.171  2.8930 -0.9797  0.6632
  708MOL0     H95561   7.605   4.738   7.191 -0.3721  1.4986  0.1728
  708MOL0     H95562   7.651   4.335   7.200  1.1667  1.4900  0.8760
  708MOL0     H95563   7.794   4.161   7.194 -2.6665  0.2374  1.6998
  708MOL0     H95564   8.219   5.027   7.621 -0.3432 -1.4038 -0.5259
  708MOL0     H95565   8.227   5.178   7.805  0.9092 -0.2877 -1.6060
  708MOL0     H95566   7.910   5.108   8.361  1.0222 -1.3223  0.4479
  708MOL0     H95567   7.887   5.289   8.524  0.0265  1.3462  0.8286
  708MOL0     H95568   7.961   5.681   8.403 -0.3466  0.4222  1.7381
  708MOL0     H95569   8.000   5.728   8.562  2.3379  0.0656 -1.5607
  708MOL0     H95570   7.767   5.534   8.504  1.7344  1.4433 -3.1995
  708MOL0     H95571   7.736   5.705   8.503 -1.0177  1.1851  1.3676
  708MOL0     H95572   7.878   5.688   8.742  2.9077 -4.5779  2.4581
  708MOL0     H95573   7.841   5.516   8.724 -0.1719 -0.3282  2.0645
  708MOL0     H95574   7.628   5.732   8.702 -1.4824 -0.9725 -2.4059
  708MOL0     H95575   7.606   5.553   8.723  3.2263 -0.7588 -0.5776
  708MOL0     H95576   7.652   5.564   9.114 -1.8016 -2.5390 -1.5993
  708MOL0     H95577   8.170   5.532   8.336 -0.7135  0.3699  1.8327
  708MOL0     H95578   8.304   5.443   8.166 -1.1603  2.2543 -3.8099
  708MOL0     H95579   8.299   5.284   8.110  0.5071 -1.8019  4.0485
  708MOL0     H95580   8.191   5.407   8.037 -1.8662 -0.9762  0.7028
  709MOL0     O95581   7.264   9.898   4.060 -0.1065 -0.7378 -0.0740
  709MOL0     C95582   7.318   9.943   3.959  0.0711 -0.4397 -0.1409
  709MOL0     O95583   7.431   9.900   3.906 -0.0867 -1.0963 -0.6976
  709MOL0     C95584   7.506   9.794   3.958  0.2072  0.3151  0.0531
  709MOL0     C95585   7.557   9.791   4.090  0.2612  0.2690 -0.2568
  709MOL0     C95586   7.664   9.711   4.127 -0.6463 -0.2947 -0.1352
  709MOL0     C95587   7.740   9.639   4.036 -0.0827  0.2245  0.3367
  709MOL0     O95588   7.862   9.584   4.065  0.3153  0.8395 -0.4488
  709MOL0     C95589   7.884   9.541   4.204  0.0020 -0.5011  0.2561
  709MOL0     C95590   7.982   9.422   4.225  0.1582 -1.1180  1.0774
  709MOL0     C95591   7.918   9.284   4.194  0.7946  0.0746 -0.0698
  709MOL0     C95592   8.030   9.185   4.169  0.5443  0.8937  0.4770
  709MOL0     C95593   7.963   9.055   4.110 -0.6788 -0.3742  0.1686
  709MOL0     C95594   8.071   8.950   4.096  0.0991 -0.8293 -0.4714
  709MOL0     C95595   8.028   8.823   4.014 -1.0268  0.5532 -0.5103
  709MOL0     C95596   7.899   8.760   4.077  0.7380 -0.4956 -0.4575
  709MOL0     N95597   7.841   8.664   3.978 -0.4482 -0.4028 -0.1543
  709MOL0     C95598   7.909   8.573   3.907 -0.1517  0.1343  0.8535
  709MOL0     C95599   7.823   8.527   3.811  0.1060  0.5550 -0.2689
  709MOL0     C95600   7.855   8.421   3.708  0.0099  0.2770  0.0090
  709MOL0     C95601   7.930   8.488   3.590 -0.4203  0.5359 -0.1754
  709MOL0     C95602   7.973   8.389   3.481 -0.1469 -0.3412 -0.3486
  709MOL0     C95603   8.059   8.467   3.374  0.5835  0.0084 -0.2305
  709MOL0     O95604   8.081   8.373   3.270  0.5933 -0.6920  0.2475
  709MOL0     C95605   8.172   8.416   3.175 -0.4123 -0.1644  0.2968
  709MOL0     C95606   8.247   8.323   3.117  0.2278 -0.2533 -0.4402
  709MOL0     C95607   8.334   8.349   3.015  0.6607  0.6779  0.1689
  709MOL0     C95608   8.362   8.486   2.978  0.0038 -0.4412  0.7684
  709MOL0     C95609   8.466   8.526   2.877  0.2764  0.4160  0.1969
  709MOL0     O95610   8.485   8.662   2.861 -0.7217  0.5125  0.4073
  709MOL0     C95611   8.573   8.707   2.761  0.5902  0.5402 -0.1992
  709MOL0     C95612   8.711   8.669   2.769 -0.6054 -0.6835  0.2106
  709MOL0     C95613   8.796   8.720   2.675 -0.2240 -0.5646  0.6374
  709MOL0     C95614   8.750   8.797   2.572 -0.4351  0.4227  0.1518
  709MOL0     O95615   8.851   8.843   2.491  0.1556  0.0061  0.3433
  709MOL0     C95616   8.839   8.978   2.454 -0.7532 -0.3008  0.9387
  709MOL0     C95617   8.966   9.046   2.450  0.7248 -0.3089  0.7103
  709MOL0     C95618   9.069   8.986   2.367 -0.8087 -0.2383  0.0049
  709MOL0     C95619   9.148   9.082   2.278 -0.5925 -0.5064  0.2878
  709MOL0     C95620   9.254   9.146   2.368  0.0836 -1.7352 -0.9059
  709MOL0     C95621   9.335   9.262   2.314  0.0909 -0.3800 -0.1813
  709MOL0     C95622   9.379   9.343   2.437 -0.1115 -0.7267 -0.2858
  709MOL0     C95623   9.490   9.442   2.403  0.5524  0.6789 -1.2820
  709MOL0    Cl95624   9.533   9.542   2.540  0.3434 -0.2200 -0.2554
  709MOL0     C95625   8.609   8.836   2.566 -0.4405  0.2065  0.8438
  709MOL0     C95626   8.524   8.791   2.660 -1.2000  0.2885  0.0739
  709MOL0     O95627   8.525   8.447   2.819 -0.4960  0.0694  0.0425
  709MOL0     C95628   8.285   8.584   3.037 -0.1261 -0.5677 -0.9523
  709MOL0     C95629   8.188   8.550   3.135  0.4180 -0.3266 -0.3071
  709MOL0     N95630   7.702   8.590   3.828  0.2878  0.1834  0.3283
  709MOL0     N95631   7.711   8.664   3.929 -0.2725 -0.4579  0.9104
  709MOL0     C95632   7.693   9.643   3.904  0.3253  0.6269 -0.3240
  709MOL0     C95633   7.583   9.722   3.869  0.4712  0.1125  0.2218
  709MOL0     C95634   7.287  10.076   3.905 -0.4102 -0.0588 -0.3727
  709MOL0     C95635   7.386  10.155   3.850  1.1082  1.0189  0.1022
  709MOL0     C95636   7.367  10.287   3.826 -0.2848 -0.0318 -0.0538
  709MOL0     C95637   7.255  10.354   3.876  0.0400  0.3362  0.4780
  709MOL0     O95638   7.258  10.493   3.876 -0.1608 -0.6442  0.5246
  709MOL0     C95639   7.350  10.555   3.967  0.1309 -1.1194 -0.3070
  709MOL0     C95640   7.351  10.509   4.117 -0.1890 -0.1046  0.1766
  709MOL0     C95641   7.226  10.536   4.204 -0.1627 -0.7085 -0.5559
  709MOL0     C95642   7.204  10.681   4.241  0.0470 -0.7864 -0.3269
  709MOL0     C95643   7.065  10.706   4.286  0.5857 -0.3496  0.3700
  709MOL0     C95644   6.950  10.716   4.315  0.6856 -0.4655  0.3590
  709MOL0     C95645   7.147  10.275   3.915 -0.3595  0.0324 -0.2216
  709MOL0     C95646   7.160  10.137   3.926  0.2343  0.0411 -0.3152
  709MOL0     C95647   7.036  10.065   3.977  0.1883  0.2267  0.5828
  709MOL0     H95648   7.508   9.854   4.163  1.4986  2.5036 -1.2400
  709MOL0     H95649   7.696   9.728   4.230 -1.1545  1.2400 -0.2145
  709MOL0     H95650   7.929   9.629   4.249  0.5562 -0.7337  0.1695
  709MOL0     H95651   7.796   9.512   4.263  0.0813 -0.2429  0.4993
  709MOL0     H95652   8.003   9.435   4.331 -3.1666 -0.8209  1.8166
  709MOL0     H95653   8.076   9.441   4.172  0.1190 -2.1279  0.6102
  709MOL0     H95654   7.852   9.304   4.109  0.6978 -3.5870 -1.0337
  709MOL0     H95655   7.852   9.243   4.270  0.7291  1.4913  0.6755
  709MOL0     H95656   8.114   9.216   4.107  1.0860  2.4492  1.9132
  709MOL0     H95657   8.080   9.173   4.266  0.4510 -1.1235  0.3221
  709MOL0     H95658   7.886   9.026   4.182 -1.3755  0.6831 -0.1371
  709MOL0     H95659   7.919   9.077   4.013 -1.2331 -0.6222  0.3632
  709MOL0     H95660   8.158   8.992   4.043 -0.3012 -3.8053 -3.8389
  709MOL0     H95661   8.105   8.915   4.194 -1.3713 -0.3870  0.2174
  709MOL0     H95662   8.120   8.763   4.012  0.2231  2.3954 -0.4186
  709MOL0     H95663   7.994   8.852   3.914 -1.5049 -0.9709 -0.8177
  709MOL0     H95664   7.914   8.708   4.172  2.0382 -0.7249 -0.7719
  709MOL0     H95665   7.821   8.835   4.096  1.0405 -0.0773 -0.8307
  709MOL0     H95666   8.016   8.557   3.902  0.2140  2.3989 -0.0261
  709MOL0     H95667   7.923   8.358   3.766  1.5496  2.7532  1.0181
  709MOL0     H95668   7.772   8.362   3.667 -1.7457  2.4740  0.2039
  709MOL0     H95669   7.868   8.573   3.562 -2.0239 -1.0419 -1.7013
  709MOL0     H95670   8.025   8.527   3.628 -0.8216  0.1233  1.3442
  709MOL0     H95671   7.884   8.342   3.437 -0.6073 -0.1213  0.3251
  709MOL0     H95672   8.033   8.306   3.521 -0.9886 -0.4768  0.6692
  709MOL0     H95673   8.155   8.512   3.403  2.4154 -2.5145 -1.9095
  709MOL0     H95674   7.986   8.543   3.346 -0.8608 -0.3061  2.3987
  709MOL0     H95675   8.234   8.218   3.143  1.4539 -0.6900 -1.5000
  709MOL0     H95676   8.390   8.262   2.983 -0.2007 -0.3257  1.3095
  709MOL0     H95677   8.756   8.616   2.853  1.5243  2.4244  1.2013
  709MOL0     H95678   8.901   8.696   2.688 -0.6273 -1.0002  4.2590
  709MOL0     H95679   8.780   8.986   2.362  0.4065  1.6042  0.2771
  709MOL0     H95680   8.775   9.040   2.517 -0.1002 -0.5356  1.8514
  709MOL0     H95681   8.962   9.153   2.427  1.6883 -0.4105  0.0200
  709MOL0     H95682   8.998   9.044   2.555  0.2368  1.6014  0.9270
  709MOL0     H95683   9.130   8.927   2.436  1.0983  0.1542 -1.2962
  709MOL0     H95684   9.019   8.921   2.294 -1.1909  2.4524 -2.3121
  709MOL0     H95685   9.084   9.157   2.229  0.0050  0.1550  0.4972
  709MOL0     H95686   9.212   9.034   2.203  0.1201  0.6659  0.1034
  709MOL0     H95687   9.323   9.068   2.401  1.5362 -0.6738 -1.3202
  709MOL0     H95688   9.206   9.170   2.464 -0.4680 -1.1736 -1.3114
  709MOL0     H95689   9.423   9.215   2.268  1.9912  0.3347  2.4654
  709MOL0     H95690   9.268   9.315   2.246  1.8708 -0.0094 -1.7613
  709MOL0     H95691   9.417   9.283   2.520 -1.1733 -1.7924 -0.5465
  709MOL0     H95692   9.289   9.399   2.463 -0.2503 -0.1997 -1.7897
  709MOL0     H95693   9.568   9.372   2.373  0.1361  0.3715 -1.6669
  709MOL0     H95694   9.457   9.502   2.317 -6.0000 -1.8713 -1.1495
  709MOL0     H95695   8.588   8.911   2.491  3.3996  0.2557 -0.4247
  709MOL0     H95696   8.418   8.810   2.668 -1.7522 -2.8941  4.8146
  709MOL0     H95697   8.301   8.690   3.019  0.8506 -0.1711  1.7121
  709MOL0     H95698   8.128   8.626   3.183  0.3136 -3.2000  4.8100
  709MOL0     H95699   7.741   9.584   3.827 -0.0180  0.7499 -0.6333
  709MOL0     H95700   7.547   9.726   3.767 -0.7953  2.1005  0.6748
  709MOL0     H95701   7.478  10.114   3.808  0.2163  1.2707 -2.2923
  709MOL0     H95702   7.445  10.342   3.774  0.0225 -1.1890 -0.8727
  709MOL0     H95703   7.340  10.663   3.973  0.8388 -1.1171  1.3598
  709MOL0     H95704   7.448  10.523   3.930  0.3480  0.0583 -0.7709
  709MOL0     H95705   7.437  10.546   4.174 -0.3922 -1.1716  1.2143
  709MOL0     H95706   7.383  10.404   4.121 -1.0694 -0.5293 -2.2190
  709MOL0     H95707   7.230  10.473   4.293 -0.2456  0.6961  0.4771
  709MOL0     H95708   7.143  10.503   4.141 -1.0621 -0.3778  0.4357
  709MOL0     H95709   7.285  10.714   4.308  0.0421 -1.0485 -0.1922
  709MOL0     H95710   7.221  10.737   4.149 -0.9359  0.5660  0.2779
  709MOL0     H95711   6.847  10.735   4.339  0.3490  0.0095 -1.3434
  709MOL0     H95712   7.060  10.323   3.958  0.7903 -0.2513  2.6587
  709MOL0     H95713   7.025   9.974   3.917  3.3500  0.1448 -0.0776
  709MOL0     H95714   7.037  10.035   4.082 -2.3864 -2.2323  0.0442
  709MOL0     H95715   6.941  10.116   3.961 -0.3719 -1.3544 -1.6568
  710MOL0     O95716   4.733   1.304   1.349  0.2537 -0.2863  0.2482
  710MOL0     C95717   4.694   1.192   1.334  0.2806 -0.5485  0.2059
  710MOL0     O95718   4.662   1.110   1.439  0.3542 -1.0116  0.3084
  710MOL0     C95719   4.607   1.165   1.553  0.6028 -0.3596 -0.3864
  710MOL0     C95720   4.469   1.202   1.562  0.5242 -0.1509  0.0077
  710MOL0     C95721   4.424   1.250   1.687  0.0197 -0.3562 -0.3986
  710MOL0     C95722   4.499   1.244   1.806 -0.1764  0.0846  0.1145
  710MOL0     O95723   4.432   1.285   1.917  0.9225  0.4407  0.4317
  710MOL0     C95724   4.498   1.282   2.053 -0.1580  0.0576  0.8818
  710MOL0     C95725   4.431   1.366   2.155 -0.0989 -0.5361  0.2054
  710MOL0     C95726   4.469   1.337   2.302 -0.6164  0.7585  0.5853
  710MOL0     C95727   4.412   1.436   2.396  0.2352 -0.9014 -0.1647
  710MOL0     C95728   4.251   1.424   2.405 -0.2078  0.1035 -0.4606
  710MOL0     C95729   4.215   1.499   2.534 -0.2143 -1.2778 -0.6242
  710MOL0     C95730   4.066   1.499   2.574  1.1640 -0.8136  0.1763
  710MOL0     C95731   4.029   1.613   2.674 -0.1307 -0.6382 -0.1939
  710MOL0     N95732   3.896   1.618   2.725 -0.3236  0.4607 -0.2300
  710MOL0     C95733   3.829   1.516   2.780 -0.5622 -0.4381  1.2635
  710MOL0     C95734   3.709   1.576   2.812 -1.0262 -0.3015 -0.0771
  710MOL0     C95735   3.591   1.510   2.882 -0.2146 -0.3662  0.4585
  710MOL0     C95736   3.544   1.374   2.830  0.0615 -0.5463  0.4600
  710MOL0     C95737   3.412   1.349   2.891  0.3464  0.7608  0.1106
  710MOL0     C95738   3.288   1.388   2.800  0.2788 -0.3105 -0.2027
  710MOL0     O95739   3.297   1.527   2.768  0.0958  0.1577 -0.1911
  710MOL0     C95740   3.266   1.570   2.642 -0.0869 -0.4285  1.3248
  710MOL0     C95741   3.187   1.511   2.547  0.4873  1.7250 -0.0667
  710MOL0     C95742   3.162   1.572   2.424  0.1101  0.4328 -0.4015
  710MOL0     C95743   3.234   1.683   2.380  0.2549 -0.0160  0.1909
  710MOL0     C95744   3.213   1.739   2.238 -0.5332 -0.5454 -0.2141
  710MOL0     O95745   3.318   1.806   2.192 -0.1906 -0.0071  0.4086
  710MOL0     C95746   3.314   1.832   2.064 -0.6603 -0.3371 -0.7754
  710MOL0     C95747   3.217   1.900   1.991 -0.6389  0.4220 -0.7413
  710MOL0     C95748   3.223   1.915   1.856  0.0539  0.8521  0.2119
  710MOL0     C95749   3.316   1.859   1.779 -0.1352  0.5825  0.4593
  710MOL0     O95750   3.308   1.888   1.645  0.0709 -0.7631 -0.0513
  710MOL0     C95751   3.364   1.789   1.562 -0.3785  0.7162  1.1791
  710MOL0     C95752   3.359   1.847   1.420  0.2095 -0.2882 -0.3089
  710MOL0     C95753   3.458   1.777   1.324 -0.2206 -0.3261  0.7025
  710MOL0     C95754   3.548   1.870   1.242 -0.7980 -0.8337  0.5664
  710MOL0     C95755   3.628   1.812   1.129  0.9673 -0.4068 -0.4812
  710MOL0     C95756   3.552   1.751   1.008 -0.4145 -0.1795 -0.4955
  710MOL0     C95757   3.441   1.850   0.958 -0.5013  0.1021 -0.4304
  710MOL0     C95758   3.484   1.987   0.918 -1.0513 -0.1761  0.6525
  710MOL0    Cl95759   3.347   2.069   0.849  0.0499  0.0271 -0.3406
  710MOL0     C95760   3.415   1.774   1.842 -0.1452 -0.2374 -0.7108
  710MOL0     C95761   3.407   1.760   1.987  0.0788 -0.2439  0.4908
  710MOL0     O95762   3.106   1.721   2.184 -0.7562 -0.1503  0.3957
  710MOL0     C95763   3.318   1.744   2.472  0.3265 -0.1885 -0.3013
  710MOL0     C95764   3.335   1.689   2.602 -0.2749 -0.2975  0.4117
  710MOL0     N95765   3.710   1.714   2.782 -0.5342  0.0285 -0.0478
  710MOL0     N95766   3.824   1.732   2.727  0.0894 -0.2387 -0.6837
  710MOL0     C95767   4.638   1.223   1.788 -0.0308 -1.0016 -0.3225
  710MOL0     C95768   4.687   1.173   1.667 -0.6099 -0.4389 -0.0514
  710MOL0     C95769   4.669   1.147   1.195  0.2508  1.0453 -0.0053
  710MOL0     C95770   4.610   1.021   1.168  0.6332  0.2689 -0.2400
  710MOL0     C95771   4.595   0.973   1.033 -0.1155 -0.5019 -0.4485
  710MOL0     C95772   4.631   1.042   0.919  0.1813  0.5302 -0.9206
  710MOL0     O95773   4.628   0.978   0.802 -0.6272 -0.9071 -0.0416
  710MOL0     C95774   4.718   0.868   0.775  0.5217  0.1939 -0.8000
  710MOL0     C95775   4.849   0.925   0.725  0.1855  0.6098 -0.0850
  710MOL0     C95776   4.844   1.012   0.599  0.0354  0.0241 -0.3712
  710MOL0     C95777   4.820   0.929   0.472 -0.7970  0.2399 -0.6320
  710MOL0     C95778   4.697   0.960   0.399  0.5882 -0.7736  0.8107
  710MOL0     C95779   4.594   0.976   0.335  0.4430  0.0599  0.0707
  710MOL0     C95780   4.679   1.168   0.940  0.4454 -0.6671  0.6917
  710MOL0     C95781   4.703   1.217   1.072  0.0876  0.4402  0.4503
  710MOL0     C95782   4.766   1.356   1.083 -0.9711 -1.1731 -0.0837
  710MOL0     H95783   4.405   1.204   1.475  0.4405  0.3777  0.0796
  710MOL0     H95784   4.320   1.283   1.688 -0.1757 -0.9695  0.0073
  710MOL0     H95785   4.498   1.178   2.086 -0.1277 -0.9891 -2.1057
  710MOL0     H95786   4.605   1.304   2.045  0.1739 -1.9439 -1.7628
  710MOL0     H95787   4.324   1.368   2.131  0.6030 -0.4370 -3.6546
  710MOL0     H95788   4.465   1.468   2.136 -0.5549  0.1092  2.5653
  710MOL0     H95789   4.578   1.331   2.312 -0.5772 -1.0438 -0.4602
  710MOL0     H95790   4.430   1.236   2.321  1.8856 -0.4252 -0.0729
  710MOL0     H95791   4.458   1.414   2.493  0.8839  0.7786 -0.0638
  710MOL0     H95792   4.428   1.540   2.365 -2.5648 -0.6136 -0.8873
  710MOL0     H95793   4.203   1.483   2.326 -4.0665 -1.8288  0.1900
  710MOL0     H95794   4.210   1.323   2.409 -2.3166  0.9552  1.4421
  710MOL0     H95795   4.269   1.456   2.618  1.7722  1.0467 -0.6178
  710MOL0     H95796   4.255   1.600   2.520 -1.0654 -1.3167 -4.8911
  710MOL0     H95797   4.032   1.404   2.616  1.2478 -0.7178  0.4632
  710MOL0     H95798   4.010   1.520   2.483  1.9489  1.5556  0.1755
  710MOL0     H95799   4.092   1.590   2.761 -0.6183 -0.6603  0.1581
  710MOL0     H95800   4.062   1.710   2.634  0.2765 -0.0574  1.4668
  710MOL0     H95801   3.856   1.411   2.788  0.0763 -0.4404 -0.4047
  710MOL0     H95802   3.604   1.500   2.990 -2.4379 -1.3387  0.6990
  710MOL0     H95803   3.514   1.582   2.852  1.1969  0.6860 -0.7697
  710MOL0     H95804   3.527   1.375   2.722 -0.9954  0.5956  0.6123
  710MOL0     H95805   3.615   1.294   2.856 -2.1000 -2.2087  1.6284
  710MOL0     H95806   3.382   1.405   2.980  0.7611  0.0864  0.6809
  710MOL0     H95807   3.408   1.242   2.916  2.3073  0.6806  0.2378
  710MOL0     H95808   3.190   1.348   2.828 -0.7131  0.9532 -1.7007
  710MOL0     H95809   3.308   1.344   2.702 -2.8793  1.9214 -2.0604
  710MOL0     H95810   3.133   1.422   2.578 -0.2136  1.5626 -1.6498
  710MOL0     H95811   3.097   1.523   2.352  0.0119 -0.6420  0.3817
  710MOL0     H95812   3.149   1.943   2.064 -0.5073 -3.3912  1.9108
  710MOL0     H95813   3.139   1.963   1.806 -0.9357 -1.6992 -0.7236
  710MOL0     H95814   3.470   1.775   1.586 -0.5081  0.4127  1.5637
  710MOL0     H95815   3.296   1.704   1.567 -0.7079  0.6587 -2.1694
  710MOL0     H95816   3.261   1.841   1.372  1.2979 -0.3641 -2.6356
  710MOL0     H95817   3.379   1.955   1.427  3.5105 -0.8174 -0.2526
  710MOL0     H95818   3.524   1.713   1.384 -0.6994  0.2775  1.9026
  710MOL0     H95819   3.399   1.712   1.259 -4.7939  5.2624 -1.6014
  710MOL0     H95820   3.618   1.912   1.315  0.3059  0.7877 -1.3119
  710MOL0     H95821   3.489   1.957   1.212  2.9931  1.7797 -0.1307
  710MOL0     H95822   3.680   1.723   1.167  0.8150 -1.2294 -2.1178
  710MOL0     H95823   3.707   1.881   1.101  2.9711 -0.7517  3.5185
  710MOL0     H95824   3.618   1.722   0.926  3.5631  0.3451  2.2278
  710MOL0     H95825   3.498   1.662   1.041 -1.3131 -0.2201 -1.9748
  710MOL0     H95826   3.365   1.871   1.033 -0.2813 -1.6538  0.3215
  710MOL0     H95827   3.376   1.806   0.882  0.7174 -0.4447 -1.1986
  710MOL0     H95828   3.534   2.046   0.996 -0.6508  1.7990 -1.0070
  710MOL0     H95829   3.564   1.976   0.845 -1.1462  2.7874 -0.0245
  710MOL0     H95830   3.501   1.731   1.791  2.0992  0.8125  1.9339
  710MOL0     H95831   3.477   1.686   2.023  2.3662  2.3044  1.5885
  710MOL0     H95832   3.375   1.836   2.459 -0.0672  0.4637  2.0353
  710MOL0     H95833   3.398   1.733   2.679 -0.0348 -1.9096  1.1710
  710MOL0     H95834   4.706   1.243   1.870 -0.7693 -3.6592  1.0745
  710MOL0     H95835   4.793   1.149   1.661 -0.2150  0.5726  1.9258
  710MOL0     H95836   4.578   0.963   1.254  0.8170  4.2693  2.7846
  710MOL0     H95837   4.546   0.879   1.011  0.2947 -0.6223 -0.8672
  710MOL0     H95838   4.679   0.793   0.706  0.7031  0.1655 -0.8735
  710MOL0     H95839   4.743   0.805   0.860  3.9819 -1.0216 -2.5298
  710MOL0     H95840   4.926   0.850   0.706  1.5402  2.3796 -2.0475
  710MOL0     H95841   4.882   0.973   0.818 -5.0383  2.9184  0.9220
  710MOL0     H95842   4.940   1.065   0.593 -0.3637  0.7707 -0.2814
  710MOL0     H95843   4.757   1.076   0.616 -3.2215 -4.0747 -0.0780
  710MOL0     H95844   4.903   0.949   0.405 -0.4629 -1.6198 -0.8436
  710MOL0     H95845   4.800   0.824   0.495  0.6792 -0.0953 -0.7858
  710MOL0     H95846   4.507   1.009   0.280  0.3276 -0.6639 -0.1889
  710MOL0     H95847   4.686   1.225   0.848  0.9554 -1.1711  0.4123
  710MOL0     H95848   4.856   1.352   1.146  0.3121 -1.2704 -1.8549
  710MOL0     H95849   4.792   1.387   0.982  1.8808  0.4199  1.0125
  710MOL0     H95850   4.691   1.423   1.126 -0.9006  0.7268 -2.6907
  711MOL0     O95851   9.359   2.866   4.534 -0.0868 -0.1250 -0.1037
  711MOL0     C95852   9.334   2.901   4.653  0.3083  0.2867  0.1385
  711MOL0     O95853   9.358   2.829   4.764  0.0029  0.4190  0.9264
  711MOL0     C95854   9.404   2.700   4.758 -0.4432 -0.1556 -0.2080
  711MOL0     C95855   9.475   2.621   4.659 -0.4855  0.0955  0.2551
  711MOL0     C95856   9.486   2.490   4.671 -0.8603  0.4789  0.2652
  711MOL0     C95857   9.453   2.411   4.783 -0.2467 -0.6830 -0.1348
  711MOL0     O95858   9.467   2.273   4.804 -0.5803  0.4152 -0.1306
  711MOL0     C95859   9.570   2.200   4.735  0.2095 -0.9916  0.4777
  711MOL0     C95860   9.579   2.059   4.805  0.0146  0.8924 -0.3533
  711MOL0     C95861   9.652   1.947   4.721 -0.5061  0.9973  0.3742
  711MOL0     C95862   9.795   1.929   4.760  0.1658  0.1791 -0.8937
  711MOL0     C95863   9.807   1.844   4.895 -0.6906 -0.0655  0.0524
  711MOL0     C95864   9.957   1.819   4.925  0.6286  1.4075  0.3659
  711MOL0     C95865   9.982   1.796   5.074  0.3431  0.5085  0.1850
  711MOL0     C95866   9.949   1.917   5.164  0.3946 -0.1176  0.3717
  711MOL0     N95867   9.970   1.897   5.313 -0.2986 -0.1700 -0.2746
  711MOL0     C95868  10.090   1.866   5.377 -0.0052 -0.0410 -0.1537
  711MOL0     C95869  10.044   1.830   5.503 -0.6658  0.0271 -0.6693
  711MOL0     C95870  10.133   1.791   5.622  0.7743 -0.1424 -0.5337
  711MOL0     C95871  10.244   1.681   5.583 -0.3452 -0.9001 -0.1265
  711MOL0     C95872  10.374   1.752   5.528 -0.0769 -0.1630 -0.0989
  711MOL0     C95873  10.482   1.649   5.526  0.3480 -0.6321  0.0058
  711MOL0     O95874  10.497   1.606   5.386 -0.2421  0.2406 -0.2752
  711MOL0     C95875  10.583   1.502   5.351 -0.0023 -0.3222  0.0548
  711MOL0     C95876  10.560   1.451   5.222 -0.3915  0.0931 -0.3046
  711MOL0     C95877  10.642   1.358   5.158  1.1366 -0.1350  0.1921
  711MOL0     C95878  10.762   1.314   5.226  0.7526 -0.8848 -0.3197
  711MOL0     C95879  10.877   1.241   5.167 -0.1627  1.6555 -0.0293
  711MOL0     O95880  10.979   1.201   5.252  0.5760  0.3625  0.1400
  711MOL0     C95881  11.092   1.147   5.196 -0.0761  0.2327  0.8436
  711MOL0     C95882  11.086   1.027   5.123  0.6425 -0.1479 -0.1282
  711MOL0     C95883  11.205   0.966   5.066  0.4315 -0.8966 -0.2942
  711MOL0     C95884  11.324   1.031   5.081 -0.7625 -0.3024 -0.9720
  711MOL0     O95885  11.437   0.966   5.035  0.0737  0.3301 -0.6344
  711MOL0     C95886  11.544   1.050   4.990  0.3166 -0.3281  0.3217
  711MOL0     C95887  11.655   1.032   5.086  0.2377  0.1143  0.5080
  711MOL0     C95888  11.798   1.060   5.024  0.7918  0.4250  0.8246
  711MOL0     C95889  11.827   1.059   4.865 -0.2066  0.4844 -0.3538
  711MOL0     C95890  11.979   1.042   4.813 -0.4837 -0.6038 -0.5836
  711MOL0     C95891  11.983   1.017   4.668  0.2383 -0.6914  0.4714
  711MOL0     C95892  12.129   1.037   4.621 -0.2275 -0.7100 -0.8802
  711MOL0     C95893  12.128   1.004   4.473 -0.7484  0.6160 -0.0150
  711MOL0    Cl95894  12.301   1.048   4.440 -0.3886  0.1991  0.6350
  711MOL0     C95895  11.331   1.145   5.168 -0.3027  0.2079 -0.0712
  711MOL0     C95896  11.213   1.207   5.204  0.0951 -0.2092 -0.4599
  711MOL0     O95897  10.862   1.204   5.051  0.0368 -0.2029  0.3388
  711MOL0     C95898  10.775   1.369   5.359  0.3262 -0.1669 -0.8068
  711MOL0     C95899  10.677   1.446   5.422 -0.0313  0.2478  0.5520
  711MOL0     N95900   9.903   1.859   5.518 -0.3860 -0.0301 -0.6204
  711MOL0     N95901   9.865   1.909   5.399  0.2175  0.8336  0.1070
  711MOL0     C95902   9.400   2.486   4.886  1.1151  0.1938  0.1682
  711MOL0     C95903   9.378   2.622   4.870  0.2356  0.2878 -0.3390
  711MOL0     C95904   9.254   3.021   4.666 -0.7567  0.0732 -0.5064
  711MOL0     C95905   9.269   3.120   4.570 -0.0127  0.3888 -0.5727
  711MOL0     C95906   9.213   3.254   4.595  0.4934  0.5054  1.5536
  711MOL0     C95907   9.126   3.277   4.695  1.8266 -0.0732 -0.4396
  711MOL0     O95908   9.062   3.398   4.719  0.0443  0.3143 -0.0497
  711MOL0     C95909   9.067   3.493   4.617  0.4444 -0.0734 -0.0299
  711MOL0     C95910   8.959   3.593   4.643  0.2340 -0.2045 -0.1894
  711MOL0     C95911   8.878   3.639   4.517  0.1593 -0.4483  0.7934
  711MOL0     C95912   8.798   3.760   4.551  0.2266  0.0075 -0.2402
  711MOL0     C95913   8.722   3.814   4.441  0.2185  0.4275  0.2657
  711MOL0     C95914   8.648   3.868   4.358 -0.2884 -0.0586 -0.4060
  711MOL0     C95915   9.082   3.168   4.772  1.2002  0.0809 -0.0048
  711MOL0     C95916   9.150   3.040   4.769 -0.0925 -0.1710  0.6671
  711MOL0     C95917   9.126   2.954   4.882 -0.0068 -0.8548  0.7784
  711MOL0     H95918   9.517   2.657   4.566  0.8297  0.2929  0.9045
  711MOL0     H95919   9.534   2.441   4.587 -0.5402 -2.6860  2.1072
  711MOL0     H95920   9.540   2.185   4.631  0.9194  0.5922  0.0196
  711MOL0     H95921   9.667   2.251   4.735 -1.4914  2.6017 -0.7876
  711MOL0     H95922   9.479   2.018   4.820  1.2006 -1.4217  2.0592
  711MOL0     H95923   9.626   2.068   4.903  0.8516  0.0479 -0.6609
  711MOL0     H95924   9.641   1.966   4.614 -1.5613 -2.8628 -0.3299
  711MOL0     H95925   9.603   1.850   4.730  1.8413 -0.4553 -1.2058
  711MOL0     H95926   9.857   1.885   4.682  0.5640  1.4284 -1.3169
  711MOL0     H95927   9.830   2.027   4.795 -0.8618  0.8832 -1.7477
  711MOL0     H95928   9.762   1.902   4.976 -0.8207  0.3757 -0.3300
  711MOL0     H95929   9.769   1.741   4.889  2.7934 -1.3758 -4.2359
  711MOL0     H95930   9.996   1.733   4.869  0.5035 -0.2910  2.7244
  711MOL0     H95931  10.006   1.908   4.884  1.4997  0.2467 -1.2078
  711MOL0     H95932  10.087   1.766   5.090 -0.0097 -0.0755  1.5820
  711MOL0     H95933   9.925   1.708   5.106  0.4858  0.4549  0.2947
  711MOL0     H95934  10.013   1.995   5.124 -0.3910 -0.1727 -1.0290
  711MOL0     H95935   9.847   1.951   5.142  1.3336  0.9164 -2.7691
  711MOL0     H95936  10.191   1.875   5.338  0.4929  1.2080  1.3297
  711MOL0     H95937  10.194   1.874   5.658  2.0256 -0.5115 -1.7010
  711MOL0     H95938  10.071   1.741   5.697  0.0503 -0.8408 -1.5676
  711MOL0     H95939  10.277   1.617   5.666 -0.9989  0.7371  1.4585
  711MOL0     H95940  10.205   1.622   5.500 -2.5570  1.0452 -0.5757
  711MOL0     H95941  10.408   1.838   5.586  1.1256  0.0377 -1.0665
  711MOL0     H95942  10.353   1.797   5.430 -1.4545 -0.7044 -0.0659
  711MOL0     H95943  10.463   1.565   5.593  1.3133 -0.4082  0.5858
  711MOL0     H95944  10.573   1.699   5.562 -0.4282  0.1902  0.8784
  711MOL0     H95945  10.471   1.483   5.167 -0.5538  0.1170 -0.0303
  711MOL0     H95946  10.641   1.334   5.052 -0.6776  1.5835 -0.2412
  711MOL0     H95947  10.991   0.975   5.129  1.0501 -1.0514 -1.1701
  711MOL0     H95948  11.180   0.877   5.010 -1.1958  0.1393 -1.3059
  711MOL0     H95949  11.570   1.014   4.890  3.1155 -0.7957  1.1274
  711MOL0     H95950  11.519   1.157   4.992 -1.3527 -0.6797 -0.1656
  711MOL0     H95951  11.636   1.096   5.173 -0.5553  0.5322  0.0284
  711MOL0     H95952  11.665   0.926   5.111 -2.1416 -0.9796 -2.6372
  711MOL0     H95953  11.829   1.157   5.065 -2.3067  1.1567  1.7533
  711MOL0     H95954  11.860   0.982   5.069 -1.6541 -0.2888  3.2877
  711MOL0     H95955  11.788   1.148   4.816 -1.4571  0.9568  1.4009
  711MOL0     H95956  11.770   0.973   4.829  0.5317 -1.2816  2.3539
  711MOL0     H95957  12.026   0.954   4.857  1.5232  0.9327  0.5644
  711MOL0     H95958  12.030   1.131   4.852 -1.3487 -0.2563 -0.2091
  711MOL0     H95959  11.952   0.915   4.647 -4.1192  0.7440 -1.3190
  711MOL0     H95960  11.919   1.081   4.606  1.8631  1.3554  0.7759
  711MOL0     H95961  12.197   0.966   4.670  0.6277  1.2780  0.9865
  711MOL0     H95962  12.155   1.143   4.628  0.0837 -0.7878 -0.8598
  711MOL0     H95963  12.126   0.896   4.462  2.2108  0.1578  2.4905
  711MOL0     H95964  12.064   1.062   4.406  1.2569  3.5870  0.3990
  711MOL0     H95965  11.423   1.197   5.191 -0.2436 -0.1628  0.5265
  711MOL0     H95966  11.223   1.301   5.257 -0.8488  0.5962 -1.6418
  711MOL0     H95967  10.863   1.348   5.420  0.7558  1.8367 -0.6852
  711MOL0     H95968  10.706   1.470   5.524  2.4916  1.6930 -0.4386
  711MOL0     H95969   9.385   2.424   4.974 -1.4355  1.9548  1.0925
  711MOL0     H95970   9.326   2.662   4.956 -1.1715 -1.3664 -0.3611
  711MOL0     H95971   9.336   3.103   4.486  1.6847  1.0404  0.5847
  711MOL0     H95972   9.239   3.343   4.538  0.7508  0.9212  2.3005
  711MOL0     H95973   9.054   3.441   4.522  1.0500 -1.3766  0.5628
  711MOL0     H95974   9.165   3.541   4.605  0.6687 -0.8907 -1.7149
  711MOL0     H95975   9.008   3.683   4.683 -0.2328  1.1190 -2.4559
  711MOL0     H95976   8.885   3.565   4.719 -1.4055  0.4969 -1.4643
  711MOL0     H95977   8.815   3.563   4.470  0.4753  1.2135 -2.6340
  711MOL0     H95978   8.954   3.665   4.443  1.6125  0.8871  2.6515
  711MOL0     H95979   8.718   3.731   4.620  0.0478  1.0612  0.0150
  711MOL0     H95980   8.856   3.845   4.590  2.0676 -1.0294 -0.6136
  711MOL0     H95981   8.579   3.914   4.291 -1.5855  1.9387  2.1226
  711MOL0     H95982   9.009   3.181   4.851  3.0252 -1.8442  2.1503
  711MOL0     H95983   9.186   2.982   4.968 -0.9051 -0.6163  1.3454
  711MOL0     H95984   9.022   2.971   4.912  0.4450  2.4180  0.8319
  711MOL0     H95985   9.141   2.850   4.852 -0.0869 -0.1323 -2.0656
  712MOL0     O95986   6.094   1.431   3.728 -0.0995 -0.7690  0.4726
  712MOL0     C95987   6.170   1.475   3.812 -0.4162  0.8012 -0.6865
  712MOL0     O95988   6.185   1.606   3.843 -0.3657 -0.6163  0.1598
  712MOL0     C95989   6.127   1.702   3.768  0.3525 -0.1525 -0.9296
  712MOL0     C95990   6.199   1.764   3.667 -0.9887 -0.3079 -0.2808
  712MOL0     C95991   6.139   1.878   3.605  1.0738  0.3924  0.3288
  712MOL0     C95992   6.022   1.941   3.656 -0.1596 -0.8059 -0.4109
  712MOL0     O95993   5.987   2.072   3.621  0.3183 -0.1107  0.3697
  712MOL0     C95994   5.992   2.176   3.718  0.4169 -0.4209 -0.0613
  712MOL0     C95995   5.943   2.305   3.657  1.3005 -0.9053 -0.5307
  712MOL0     C95996   5.801   2.351   3.710 -1.4038  0.6355 -0.2520
  712MOL0     C95997   5.738   2.463   3.653  0.4141 -0.3423 -0.5544
  712MOL0     C95998   5.829   2.583   3.642 -1.0272 -0.2058 -0.3692
  712MOL0     C95999   5.753   2.708   3.602  0.5269  0.5941 -0.7934
  712MOL0     C96000   5.842   2.834   3.605  1.0824  0.3154 -0.4058
  712MOL0     C96001   5.763   2.963   3.598 -0.1527  0.7093  0.2960
  712MOL0     N96002   5.655   2.975   3.699 -0.1055 -0.2456  0.0948
  712MOL0     C96003   5.667   2.978   3.832  0.5502  0.5285 -0.5211
  712MOL0     C96004   5.539   2.988   3.884 -0.2969  0.3190  0.3684
  712MOL0     C96005   5.501   2.992   4.032 -0.2712 -0.4120 -0.0865
  712MOL0     C96006   5.445   2.862   4.097  0.4403  0.0245 -0.9822
  712MOL0     C96007   5.525   2.736   4.086  0.1453 -0.2154 -0.2917
  712MOL0     C96008   5.462   2.642   4.186 -0.2909 -0.0755  0.7463
  712MOL0     O96009   5.492   2.686   4.318  0.2999 -0.1632 -0.6797
  712MOL0     C96010   5.432   2.617   4.420 -0.6370  0.7936 -0.8121
  712MOL0     C96011   5.338   2.519   4.414 -0.6769 -0.1474  0.4704
  712MOL0     C96012   5.286   2.454   4.530 -0.2037 -1.1312 -0.4854
  712MOL0     C96013   5.330   2.497   4.658  0.9999 -0.2526 -0.1597
  712MOL0     C96014   5.298   2.417   4.779  1.0445 -0.3462  0.3654
  712MOL0     O96015   5.316   2.464   4.908  0.3064  0.0239  0.1190
  712MOL0     C96016   5.282   2.383   5.015  0.7569 -0.8092  0.2345
  712MOL0     C96017   5.215   2.459   5.120  0.6035  0.5503  0.2643
  712MOL0     C96018   5.148   2.395   5.229 -0.3892 -0.6133  0.3383
  712MOL0     C96019   5.156   2.256   5.237  0.4892  0.4954  1.1046
  712MOL0     O96020   5.114   2.178   5.339  0.2261  0.4488  0.6502
  712MOL0     C96021   5.047   2.245   5.452 -0.1883 -0.7934 -0.2804
  712MOL0     C96022   4.990   2.134   5.550  0.6967 -0.0086 -0.1602
  712MOL0     C96023   5.098   2.050   5.599  0.4182 -0.2976 -0.1857
  712MOL0     C96024   5.048   1.971   5.719 -0.0759  0.0099  0.4544
  712MOL0     C96025   5.075   1.820   5.710  0.9165  1.1200 -0.0115
  712MOL0     C96026   5.031   1.749   5.837  0.6177 -0.4155 -0.4867
  712MOL0     C96027   5.102   1.607   5.841  0.2523 -0.0836  0.5149
  712MOL0     C96028   5.249   1.610   5.894  0.1962 -0.1111  0.2591
  712MOL0    Cl96029   5.253   1.638   6.065  0.0513  0.2987 -0.7707
  712MOL0     C96030   5.225   2.189   5.140 -0.0652  1.6672 -0.9420
  712MOL0     C96031   5.289   2.246   5.030  0.4945 -0.7958  0.4842
  712MOL0     O96032   5.264   2.302   4.747 -0.0727 -0.5706  0.2090
  712MOL0     C96033   5.398   2.621   4.663  0.5291 -1.2680 -0.8428
  712MOL0     C96034   5.453   2.672   4.550 -0.3159 -0.7241  0.9066
  712MOL0     N96035   5.448   2.979   3.780  0.0143  0.1205 -0.4462
  712MOL0     N96036   5.521   2.973   3.671 -0.6323 -0.1272  0.3339
  712MOL0     C96037   5.958   1.878   3.762  0.0253  0.0874  0.3041
  712MOL0     C96038   6.004   1.756   3.812  0.2960  0.1958 -0.1366
  712MOL0     C96039   6.247   1.370   3.893 -0.0812 -0.0921 -0.2378
  712MOL0     C96040   6.340   1.416   3.989 -0.4818  0.0519  0.0131
  712MOL0     C96041   6.411   1.337   4.083  0.0591  0.2740  0.2374
  712MOL0     C96042   6.379   1.191   4.079  0.2641 -0.3506  0.0062
  712MOL0     O96043   6.433   1.096   4.162  0.0815 -0.2793 -0.0107
  712MOL0     C96044   6.484   1.148   4.289 -0.2514  0.9730  0.8272
  712MOL0     C96045   6.529   1.018   4.362  0.9133 -0.0208  0.0726
  712MOL0     C96046   6.425   0.940   4.447  0.5992  0.6833  0.9668
  712MOL0     C96047   6.462   0.795   4.467 -0.3541 -0.5061  0.0360
  712MOL0     C96048   6.379   0.747   4.579 -0.2906  0.8059  0.3948
  712MOL0     C96049   6.326   0.690   4.680 -0.1517  0.1298  0.3736
  712MOL0     C96050   6.298   1.139   3.975  0.1914 -0.6162 -0.8778
  712MOL0     C96051   6.237   1.229   3.881  1.1083 -0.5768 -0.0130
  712MOL0     C96052   6.154   1.156   3.778  0.1940 -0.0379  0.1252
  712MOL0     H96053   6.297   1.725   3.644 -0.0131  1.2938  0.9431
  712MOL0     H96054   6.194   1.923   3.523  4.3182 -1.7056  1.1782
  712MOL0     H96055   5.933   2.156   3.808  0.6074  2.3096  0.7391
  712MOL0     H96056   6.095   2.175   3.756  0.9373  0.1862 -1.4136
  712MOL0     H96057   5.947   2.293   3.549  0.0649 -1.2838 -0.5517
  712MOL0     H96058   6.005   2.385   3.696 -1.5144  1.0171  0.2928
  712MOL0     H96059   5.811   2.350   3.819  2.5366 -2.0164 -0.4144
  712MOL0     H96060   5.730   2.271   3.689 -1.9545  1.7028 -2.7235
  712MOL0     H96061   5.711   2.443   3.549 -0.5880  1.3697 -0.6652
  712MOL0     H96062   5.646   2.471   3.712  0.7751 -1.1994  0.1473
  712MOL0     H96063   5.885   2.593   3.736  2.2772  3.3330 -2.4227
  712MOL0     H96064   5.912   2.556   3.576 -0.7070 -1.2573  0.4269
  712MOL0     H96065   5.697   2.702   3.508 -0.6366 -1.2894 -0.0335
  712MOL0     H96066   5.688   2.717   3.689  0.8185 -1.3578 -0.3314
  712MOL0     H96067   5.917   2.827   3.525  1.7309  1.0797  0.1256
  712MOL0     H96068   5.892   2.832   3.701 -0.5580 -0.1880  0.4827
  712MOL0     H96069   5.825   3.051   3.619 -1.8474  1.4503  2.6535
  712MOL0     H96070   5.719   2.980   3.499 -0.5434  1.5157  0.5929
  712MOL0     H96071   5.747   2.967   3.904 -1.7415  3.1725  2.7926
  712MOL0     H96072   5.593   3.013   4.087  0.6144 -0.1396 -1.6099
  712MOL0     H96073   5.438   3.078   4.060  1.7899  0.2467  3.0723
  712MOL0     H96074   5.436   2.895   4.201  1.8798 -0.8661 -0.5538
  712MOL0     H96075   5.345   2.847   4.056  1.0947  1.7695 -3.4688
  712MOL0     H96076   5.627   2.764   4.115  0.1717  1.2254 -1.6483
  712MOL0     H96077   5.519   2.696   3.984  0.3217  0.3790 -0.5349
  712MOL0     H96078   5.497   2.540   4.167 -0.0090 -0.4067  2.8079
  712MOL0     H96079   5.353   2.640   4.175 -0.2016  0.6441 -0.4754
  712MOL0     H96080   5.303   2.473   4.322 -1.5334 -1.4759  1.4320
  712MOL0     H96081   5.214   2.373   4.519 -0.6450 -0.6561 -1.2172
  712MOL0     H96082   5.208   2.566   5.104 -1.2399  0.8395  2.4876
  712MOL0     H96083   5.088   2.459   5.291  0.6230  0.3088  0.3905
  712MOL0     H96084   5.124   2.288   5.515  0.7699 -1.8527 -0.6860
  712MOL0     H96085   4.978   2.321   5.414 -0.7189 -0.6687  0.8798
  712MOL0     H96086   4.939   2.204   5.617 -2.1935 -2.4030  0.3757
  712MOL0     H96087   4.916   2.071   5.500 -0.5651 -0.3513  2.0138
  712MOL0     H96088   5.138   1.989   5.516  1.2102  0.4572 -0.3726
  712MOL0     H96089   5.179   2.114   5.634 -0.2113 -0.4232  1.5978
  712MOL0     H96090   4.942   1.993   5.732 -0.3687 -1.3912  0.6169
  712MOL0     H96091   5.092   2.016   5.809 -1.3904 -2.7803  2.6350
  712MOL0     H96092   5.183   1.802   5.711  0.7615  0.1076 -0.5458
  712MOL0     H96093   5.044   1.772   5.617  1.1612 -0.3065  0.6219
  712MOL0     H96094   5.056   1.799   5.931  1.7159 -0.8500 -0.5320
  712MOL0     H96095   4.922   1.740   5.834  0.4690  0.5413  1.0285
  712MOL0     H96096   5.102   1.558   5.744  1.3634 -1.6407  1.2612
  712MOL0     H96097   5.037   1.547   5.905  0.3960  2.3347  3.1121
  712MOL0     H96098   5.300   1.515   5.876 -0.9612 -0.5395 -0.8587
  712MOL0     H96099   5.303   1.686   5.836 -0.0290  0.2272  0.4878
  712MOL0     H96100   5.242   2.083   5.157  1.0589  2.0085  0.2106
  712MOL0     H96101   5.329   2.182   4.952 -0.8265 -2.1461  0.8565
  712MOL0     H96102   5.419   2.671   4.757 -1.9050  1.9494 -1.8446
  712MOL0     H96103   5.529   2.748   4.541  1.1275 -2.2682 -1.1010
  712MOL0     H96104   5.874   1.939   3.794 -0.2987 -0.3258  0.2531
  712MOL0     H96105   5.952   1.711   3.896 -0.8715  0.1671 -0.8678
  712MOL0     H96106   6.349   1.524   3.993  0.0291 -0.0236  2.5604
  712MOL0     H96107   6.483   1.378   4.152  2.9776 -4.0255  0.1560
  712MOL0     H96108   6.419   1.203   4.357 -2.2309  0.5963 -0.6721
  712MOL0     H96109   6.572   1.211   4.274  0.8048 -0.6464 -0.0937
  712MOL0     H96110   6.602   1.054   4.435  3.7553 -1.9605 -1.6131
  712MOL0     H96111   6.579   0.960   4.284  0.8201  0.6070 -0.4684
  712MOL0     H96112   6.340   0.933   4.379  0.0876 -0.9103  1.7177
  712MOL0     H96113   6.408   1.005   4.534 -2.3045  1.7461 -0.2725
  712MOL0     H96114   6.455   0.738   4.374  3.1914  0.6341 -1.1177
  712MOL0     H96115   6.566   0.790   4.502  0.2120 -2.9717 -1.7213
  712MOL0     H96116   6.287   0.636   4.764 -5.0010  2.8225  0.2651
  712MOL0     H96117   6.289   1.033   3.955 -1.8985 -0.3772 -1.4487
  712MOL0     H96118   6.130   1.051   3.797  0.4294 -0.2645 -0.7488
  712MOL0     H96119   6.051   1.194   3.784  0.8662  1.9298 -0.0658
  712MOL0     H96120   6.203   1.168   3.681  1.6498  1.1574  0.9722
  713MOL0     O96121   0.888   1.415   9.810 -0.5800 -0.4234 -0.0714
  713MOL0     C96122   0.942   1.341   9.723  0.4083 -0.9939 -0.6491
  713MOL0     O96123   0.990   1.217   9.753 -0.4795  0.3697  1.1273
  713MOL0     C96124   0.945   1.162   9.866  0.4484 -0.0487  0.7454
  713MOL0     C96125   1.031   1.117   9.964 -0.3082  0.1482  0.0466
  713MOL0     C96126   0.982   1.052  10.080  0.7766 -0.6539  0.4378
  713MOL0     C96127   0.841   1.035  10.102 -0.8338 -0.3607  0.1795
  713MOL0     O96128   0.791   0.965  10.206  0.0050 -0.2736 -1.2053
  713MOL0     C96129   0.850   0.989  10.335  0.7421 -0.1379  0.6933
  713MOL0     C96130   0.728   0.993  10.432 -0.4325 -0.7930 -0.0083
  713MOL0     C96131   0.630   0.887  10.402  0.1720  0.7556  0.9163
  713MOL0     C96132   0.551   0.847  10.529 -0.1580  0.2148  0.5491
  713MOL0     C96133   0.611   0.729  10.615 -1.0954 -0.1519  1.1070
  713MOL0     C96134   0.597   0.591  10.532  0.7772  0.4281 -0.6367
  713MOL0     C96135   0.617   0.469  10.630 -0.6610  0.0016 -0.5760
  713MOL0     C96136   0.490   0.424  10.710 -0.2526 -1.0657  1.1268
  713MOL0     N96137   0.399   0.344  10.622 -0.1756 -0.4592 -0.0397
  713MOL0     C96138   0.298   0.399  10.551 -0.0973 -0.2160  0.0558
  713MOL0     C96139   0.247   0.284  10.491  1.0293 -0.2694 -0.1565
  713MOL0     C96140   0.150   0.304  10.378 -0.4367  0.2977  0.2697
  713MOL0     C96141   0.002   0.252  10.377 -0.9231 -0.4985  0.5564
  713MOL0     C96142  -0.067   0.286  10.512  0.1609 -0.5873  0.0412
  713MOL0     C96143  -0.218   0.246  10.510 -0.5317 -0.3669 -0.2068
  713MOL0     O96144  -0.274   0.273  10.643 -0.3748  0.7920 -0.4084
  713MOL0     C96145  -0.361   0.377  10.663  0.1439  0.6237  0.1587
  713MOL0     C96146  -0.494   0.340  10.660  0.2134  0.2911 -0.4081
  713MOL0     C96147  -0.590   0.447  10.670  0.5086 -0.6148  0.6658
  713MOL0     C96148  -0.548   0.586  10.676  0.2235 -0.4817  0.2749
  713MOL0     C96149  -0.648   0.690  10.672  0.6451  0.0594 -0.2738
  713MOL0     O96150  -0.599   0.816  10.634 -0.2821 -0.0510  0.1465
  713MOL0     C96151  -0.676   0.930  10.650  0.6565  0.0286 -0.0903
  713MOL0     C96152  -0.715   1.002  10.540  0.5993  0.4214  0.6096
  713MOL0     C96153  -0.761   1.131  10.554 -0.3136 -0.3744  0.2345
  713MOL0     C96154  -0.786   1.186  10.680 -0.0430 -0.8396  0.7196
  713MOL0     O96155  -0.855   1.299  10.698  0.4248 -0.0075 -0.0622
  713MOL0     C96156  -0.939   1.352  10.595 -0.4227 -0.2277 -0.4001
  713MOL0     C96157  -1.072   1.270  10.573  0.2087  0.3016 -0.4675
  713MOL0     C96158  -1.187   1.352  10.507  0.5373  0.8242 -0.8628
  713MOL0     C96159  -1.180   1.365  10.353  0.4804 -0.1978 -0.4394
  713MOL0     C96160  -1.310   1.434  10.300 -1.1162 -0.5492  0.0388
  713MOL0     C96161  -1.312   1.423  10.141  0.5387  0.0632  1.7326
  713MOL0     C96162  -1.433   1.501  10.082  0.6728  0.3971  0.3429
  713MOL0     C96163  -1.441   1.518   9.926 -0.2559  0.5742  0.0034
  713MOL0    Cl96164  -1.303   1.624   9.861 -0.2316 -0.2214 -0.2592
  713MOL0     C96165  -0.764   1.110  10.792  0.4895  0.0681  0.9917
  713MOL0     C96166  -0.705   0.979  10.779 -0.4610 -0.0289  0.4051
  713MOL0     O96167  -0.767   0.665  10.691 -0.2741 -0.0474 -0.5391
  713MOL0     C96168  -0.407   0.616  10.665  0.0185  0.1138  0.0552
  713MOL0     C96169  -0.324   0.509  10.680  0.4067 -0.5127  0.5420
  713MOL0     N96170   0.304   0.173  10.540  0.6457 -0.0368 -0.3107
  713MOL0     N96171   0.410   0.210  10.610  0.5530 -0.6120 -0.3641
  713MOL0     C96172   0.754   1.092  10.007  0.3861  0.2241 -0.1942
  713MOL0     C96173   0.805   1.149   9.892  0.7265  0.0979  0.2615
  713MOL0     C96174   0.988   1.407   9.601  0.2098 -0.6186  0.0639
  713MOL0     C96175   1.105   1.357   9.535 -0.0829  0.8503  0.2201
  713MOL0     C96176   1.153   1.419   9.420  0.4413 -0.0297  0.5933
  713MOL0     C96177   1.092   1.528   9.361  0.4707 -0.9172  0.1873
  713MOL0     O96178   1.127   1.581   9.239  0.3393  0.3786  0.9547
  713MOL0     C96179   1.259   1.552   9.189 -0.1091  0.1530 -0.4229
  713MOL0     C96180   1.303   1.641   9.070 -0.8694  0.9565  0.3633
  713MOL0     C96181   1.249   1.578   8.933  0.0942  0.5510 -0.4372
  713MOL0     C96182   1.093   1.601   8.899  0.1511  0.6290  0.6714
  713MOL0     C96183   1.067   1.602   8.753  0.0308  0.0356  1.3995
  713MOL0     C96184   1.044   1.613   8.634 -0.1969  0.2224  0.4938
  713MOL0     C96185   0.966   1.567   9.417 -0.4276  0.4409  0.4480
  713MOL0     C96186   0.917   1.510   9.537 -0.0131  0.5200 -0.1724
  713MOL0     C96187   0.775   1.546   9.571 -0.0022 -0.0927  0.5133
  713MOL0     H96188   1.139   1.122   9.950 -0.3820  0.2617 -0.4832
  713MOL0     H96189   1.053   1.011  10.150  0.6096  0.8847  1.5561
  713MOL0     H96190   0.912   0.900  10.349  0.1750 -0.4919  0.9934
  713MOL0     H96191   0.910   1.080  10.325 -1.9338  1.4923 -2.8992
  713MOL0     H96192   0.682   1.091  10.420 -1.6285 -1.5175 -1.9727
  713MOL0     H96193   0.754   0.987  10.538  0.1734 -3.8307 -0.2265
  713MOL0     H96194   0.681   0.803  10.353 -2.5581  1.6027 -4.0419
  713MOL0     H96195   0.553   0.921  10.332  0.3163  2.1718  1.4309
  713MOL0     H96196   0.545   0.931  10.600  4.4061  1.2395  0.0089
  713MOL0     H96197   0.453   0.812  10.497  0.1357 -0.7585  0.7002
  713MOL0     H96198   0.717   0.750  10.636 -0.9032  1.4312 -0.9896
  713MOL0     H96199   0.557   0.714  10.708 -1.7549 -0.3262  0.7046
  713MOL0     H96200   0.495   0.584  10.494  0.2711  0.5359  0.6550
  713MOL0     H96201   0.677   0.592  10.457  1.5818 -3.3736 -0.0764
  713MOL0     H96202   0.691   0.500  10.706  2.3736 -1.2135 -2.8416
  713MOL0     H96203   0.664   0.383  10.581  1.1191 -0.3030  1.4862
  713MOL0     H96204   0.517   0.364  10.798  3.1320 -1.2206  0.1114
  713MOL0     H96205   0.448   0.518  10.748  2.5560 -0.1704  2.2338
  713MOL0     H96206   0.289   0.507  10.556  0.2675 -0.2306  3.6556
  713MOL0     H96207   0.139   0.412  10.367  0.4451  0.3980  0.2809
  713MOL0     H96208   0.201   0.275  10.286  0.3924 -0.5771  0.9799
  713MOL0     H96209  -0.042   0.296  10.287  3.5025  0.9283 -1.2016
  713MOL0     H96210   0.001   0.143  10.373  3.7271 -0.8080  1.8063
  713MOL0     H96211  -0.061   0.394  10.529 -2.6024 -0.3066 -0.2999
  713MOL0     H96212  -0.020   0.225  10.590 -1.3540 -2.0381 -0.1150
  713MOL0     H96213  -0.217   0.141  10.481  4.7845 -0.5528 -0.2313
  713MOL0     H96214  -0.270   0.298  10.428  2.3014  0.4818 -1.5873
  713MOL0     H96215  -0.520   0.235  10.657  2.5547 -0.5272  2.6061
  713MOL0     H96216  -0.696   0.424  10.671  0.6211 -1.4294 -1.3804
  713MOL0     H96217  -0.702   0.973  10.437  2.0824  0.4762  0.7638
  713MOL0     H96218  -0.759   1.198  10.469  2.7602 -2.1658 -1.2377
  713MOL0     H96219  -0.971   1.455  10.611 -0.0967 -0.3860  1.5670
  713MOL0     H96220  -0.881   1.359  10.503  2.4577  2.9244  1.4018
  713MOL0     H96221  -1.057   1.198  10.492  0.4696  1.9558 -1.9508
  713MOL0     H96222  -1.104   1.209  10.657 -0.8536 -1.9890 -2.4074
  713MOL0     H96223  -1.278   1.306  10.546  2.2260 -2.4987 -0.4102
  713MOL0     H96224  -1.186   1.450  10.556  0.1551 -0.3592  1.7081
  713MOL0     H96225  -1.180   1.267  10.303  1.9075 -0.2176 -0.4509
  713MOL0     H96226  -1.089   1.418  10.323 -1.9807  3.3190 -2.3654
  713MOL0     H96227  -1.306   1.535  10.342  3.7007 -0.4555 -0.0835
  713MOL0     H96228  -1.404   1.388  10.334 -0.2716 -0.9311  2.0067
  713MOL0     H96229  -1.219   1.461  10.098 -1.1765  2.5228 -0.0885
  713MOL0     H96230  -1.323   1.315  10.128  0.9712 -0.2265  3.4701
  713MOL0     H96231  -1.441   1.605  10.117 -2.0423  0.3314  0.1255
  713MOL0     H96232  -1.527   1.460  10.118 -0.9923  3.6558  0.1032
  713MOL0     H96233  -1.450   1.421   9.877  0.8553  0.7452 -0.5822
  713MOL0     H96234  -1.529   1.578   9.902 -0.1935 -0.4132 -3.1495
  713MOL0     H96235  -0.787   1.150  10.890 -1.0611 -2.4232  1.7386
  713MOL0     H96236  -0.670   0.915  10.860 -0.9855 -0.0433  0.6196
  713MOL0     H96237  -0.372   0.719  10.674 -0.5834  0.3457 -0.1869
  713MOL0     H96238  -0.219   0.528  10.700  0.7235 -3.0155  1.4833
  713MOL0     H96239   0.647   1.073  10.014  0.9633 -3.1191  2.4331
  713MOL0     H96240   0.730   1.179   9.820  0.2686 -4.8106 -1.7074
  713MOL0     H96241   1.168   1.272   9.557  1.7830  1.6013 -1.9078
  713MOL0     H96242   1.242   1.373   9.380 -0.3686  0.0683 -1.4861
  713MOL0     H96243   1.277   1.449   9.157  2.4761  0.7022 -0.9847
  713MOL0     H96244   1.326   1.562   9.274 -2.0092  0.4580  1.1015
  713MOL0     H96245   1.412   1.633   9.065 -0.7997  2.3859 -2.5251
  713MOL0     H96246   1.261   1.737   9.101 -3.5212  0.4935 -1.4785
  713MOL0     H96247   1.266   1.469   8.935 -0.5941  0.4220  1.8047
  713MOL0     H96248   1.315   1.627   8.862 -0.7792 -1.2163 -2.6075
  713MOL0     H96249   1.030   1.526   8.946  0.1799 -0.9534 -1.6433
  713MOL0     H96250   1.066   1.701   8.935  0.8205  1.8836 -2.0166
  713MOL0     H96251   1.032   1.605   8.528 -3.1574  0.7523  0.7081
  713MOL0     H96252   0.903   1.638   9.365 -1.5444  1.4434  3.0210
  713MOL0     H96253   0.729   1.607   9.494 -1.7928 -1.8856  0.0689
  713MOL0     H96254   0.706   1.462   9.585  0.1245 -0.5026 -1.1461
  713MOL0     H96255   0.793   1.603   9.663  0.6525 -0.0735  0.3770
  714MOL0     O96256   7.358   8.189  10.829 -0.2281 -0.1809 -0.7956
  714MOL0     C96257   7.363   8.268  10.732 -0.3661 -0.5917 -0.1287
  714MOL0     O96258   7.272   8.371  10.714  0.3124 -0.1653 -0.5583
  714MOL0     C96259   7.171   8.384  10.816 -0.1872  0.4781 -0.1000
  714MOL0     C96260   7.038   8.358  10.787  0.1343 -0.3303 -0.5949
  714MOL0     C96261   6.948   8.361  10.892  0.6661 -0.7266  0.2385
  714MOL0     C96262   6.984   8.413  11.021 -0.1230 -0.3568 -0.2908
  714MOL0     O96263   6.893   8.423  11.126 -0.6109 -0.3974  0.2368
  714MOL0     C96264   6.755   8.447  11.103  1.3037  0.7313 -0.7541
  714MOL0     C96265   6.681   8.315  11.110  0.0891  0.0436  0.9216
  714MOL0     C96266   6.544   8.319  11.040 -1.1957 -0.1615  0.3642
  714MOL0     C96267   6.434   8.409  11.113 -0.2333 -0.7920 -0.2922
  714MOL0     C96268   6.290   8.383  11.070 -0.5312 -0.3178 -0.0870
  714MOL0     C96269   6.264   8.454  10.940  0.2093  0.4678  0.3056
  714MOL0     C96270   6.115   8.438  10.899 -0.2780  0.7008 -0.0701
  714MOL0     C96271   6.067   8.494  10.763 -0.1576 -0.5384  0.9064
  714MOL0     N96272   6.160   8.478  10.643 -0.4046 -0.3877 -0.7631
  714MOL0     C96273   6.248   8.583  10.597 -0.3985 -0.1468 -0.4789
  714MOL0     C96274   6.304   8.538  10.483 -1.0820  0.0450  0.9258
  714MOL0     C96275   6.390   8.621  10.396 -0.6701 -0.8379  0.4557
  714MOL0     C96276   6.324   8.740  10.311 -0.5794 -0.9868 -0.6036
  714MOL0     C96277   6.410   8.821  10.213  1.3321  0.2195 -0.5485
  714MOL0     C96278   6.338   8.945  10.167 -1.1822  1.1387 -0.2189
  714MOL0     O96279   6.203   8.907  10.141  0.0902 -0.2919  0.0321
  714MOL0     C96280   6.169   8.851  10.015  0.0673 -0.3202  0.5372
  714MOL0     C96281   6.260   8.796   9.925  0.2889  0.2054  0.4290
  714MOL0     C96282   6.214   8.723   9.806 -0.0048  0.3248 -1.4501
  714MOL0     C96283   6.070   8.698   9.799 -0.0123  0.6802 -0.0327
  714MOL0     C96284   6.014   8.606   9.705 -0.6720  0.7814  0.9822
  714MOL0     O96285   5.881   8.595   9.691  0.1741  0.1465 -0.2250
  714MOL0     C96286   5.837   8.510   9.590  0.9514 -0.3853 -0.2910
  714MOL0     C96287   5.851   8.378   9.617 -0.4922 -1.0155 -0.2100
  714MOL0     C96288   5.831   8.283   9.519 -0.1977  0.9711  0.8489
  714MOL0     C96289   5.770   8.317   9.395  0.0343  1.3287 -0.4258
  714MOL0     O96290   5.758   8.239   9.276  0.1462 -0.8642 -0.5372
  714MOL0     C96291   5.715   8.104   9.296  0.3666 -0.0924 -0.4284
  714MOL0     C96292   5.696   8.060   9.155  0.6594  0.0356  0.0738
  714MOL0     C96293   5.835   8.033   9.090 -0.2514  0.7626  0.4471
  714MOL0     C96294   5.825   7.981   8.952  0.1264 -0.4016 -0.7266
  714MOL0     C96295   5.946   7.905   8.910 -0.4869  0.2832  0.7101
  714MOL0     C96296   5.932   7.901   8.751  0.1549  0.5005  0.7163
  714MOL0     C96297   6.049   7.812   8.699 -0.0635 -0.4759  0.2924
  714MOL0     C96298   6.031   7.782   8.547  0.1283 -0.0572  0.0984
  714MOL0    Cl96299   6.104   7.638   8.502 -0.2382  0.0640  0.1377
  714MOL0     C96300   5.756   8.451   9.369  0.4016 -0.1532  1.1291
  714MOL0     C96301   5.786   8.548   9.467 -0.1320 -0.0966  0.4317
  714MOL0     O96302   6.098   8.544   9.641  0.2267  0.5076 -0.0065
  714MOL0     C96303   5.988   8.747   9.901 -0.7539  0.6135 -0.5424
  714MOL0     C96304   6.041   8.829  10.000 -0.1055  0.3286  0.8259
  714MOL0     N96305   6.247   8.414  10.458 -0.1758 -0.4385  0.1889
  714MOL0     N96306   6.178   8.375  10.559  0.2586  1.2972 -0.1732
  714MOL0     C96307   7.114   8.468  11.040 -0.0702 -1.1950 -0.6858
  714MOL0     C96308   7.204   8.444  10.935 -0.3413 -0.4661  0.1347
  714MOL0     C96309   7.464   8.243  10.624 -0.1645  0.1082 -0.1754
  714MOL0     C96310   7.548   8.127  10.639 -0.3722 -0.2537  0.7214
  714MOL0     C96311   7.634   8.087  10.533 -1.0356 -0.9001 -0.6778
  714MOL0     C96312   7.641   8.163  10.419 -0.0535 -0.4489 -0.3937
  714MOL0     O96313   7.712   8.137  10.308 -0.0238 -0.3806 -0.2896
  714MOL0     C96314   7.772   8.005  10.282  0.0611 -0.6961  0.0723
  714MOL0     C96315   7.865   8.016  10.163  0.4330  0.4728  0.3893
  714MOL0     C96316   7.995   8.079  10.206 -0.8047  0.7680 -0.0642
  714MOL0     C96317   8.108   8.050  10.096  0.9520 -0.4122  0.1947
  714MOL0     C96318   8.206   8.161  10.110 -0.6348 -0.0853 -0.1102
  714MOL0     C96319   8.298   8.247  10.113  0.9048  0.2109 -0.1421
  714MOL0     C96320   7.561   8.277  10.400  0.1204  0.4056 -0.6969
  714MOL0     C96321   7.469   8.312  10.498  1.1548  0.2895  0.3248
  714MOL0     C96322   7.392   8.442  10.478  0.1588 -1.1408  0.5817
  714MOL0     H96323   7.020   8.326  10.685 -0.2634 -0.1788 -0.5742
  714MOL0     H96324   6.851   8.317  10.870  1.6922 -1.7290 -2.6795
  714MOL0     H96325   6.708   8.511  11.178  0.5390 -0.4209 -0.2347
  714MOL0     H96326   6.738   8.486  11.002 -1.2061  0.2525 -0.5767
  714MOL0     H96327   6.674   8.278  11.213 -1.5367  1.0527  1.2169
  714MOL0     H96328   6.732   8.237  11.053 -4.3447 -0.5376 -2.9274
  714MOL0     H96329   6.511   8.216  11.025 -1.3686  0.0430 -0.6934
  714MOL0     H96330   6.559   8.361  10.940  2.8934  2.3807  1.7438
  714MOL0     H96331   6.452   8.396  11.220  2.4648 -0.6777 -0.6529
  714MOL0     H96332   6.467   8.512  11.096  1.1746 -0.8176  1.8837
  714MOL0     H96333   6.273   8.275  11.067 -0.5719 -0.4467  2.4200
  714MOL0     H96334   6.215   8.424  11.138 -0.3593  3.2057 -1.7847
  714MOL0     H96335   6.277   8.561  10.962 -1.4457  0.5986  0.7436
  714MOL0     H96336   6.331   8.425  10.858  3.1198 -0.4154  2.7850
  714MOL0     H96337   6.045   8.484  10.970  0.2760  1.4928 -0.0233
  714MOL0     H96338   6.098   8.330  10.901  5.3056 -0.4849 -0.7103
  714MOL0     H96339   5.984   8.428  10.735  1.7111 -3.0872  1.0370
  714MOL0     H96340   6.053   8.601  10.779  0.6959 -0.5004  1.4938
  714MOL0     H96341   6.243   8.684  10.635  1.2884  0.4875 -1.7958
  714MOL0     H96342   6.465   8.671  10.457 -0.9636 -0.2777  0.3621
  714MOL0     H96343   6.454   8.579  10.318 -2.0964  2.4261 -2.7940
  714MOL0     H96344   6.241   8.702  10.250 -3.1521  1.0436  1.4011
  714MOL0     H96345   6.277   8.807  10.383 -1.6854  0.4941 -2.6011
  714MOL0     H96346   6.441   8.755  10.132 -1.9911  0.6893 -2.3996
  714MOL0     H96347   6.503   8.834  10.269 -0.1637 -1.5661  2.6162
  714MOL0     H96348   6.384   8.989  10.079 -1.2653 -1.0137 -1.4067
  714MOL0     H96349   6.347   9.001  10.261  1.6299 -0.2574  0.4411
  714MOL0     H96350   6.364   8.817   9.943  0.4199 -0.3972  0.3875
  714MOL0     H96351   6.277   8.676   9.732 -0.6595 -1.5481 -0.8861
  714MOL0     H96352   5.888   8.355   9.717 -2.0383 -0.2245  0.5800
  714MOL0     H96353   5.859   8.181   9.544  3.6592  1.6814  0.0103
  714MOL0     H96354   5.797   8.047   9.342  0.2915 -0.9650 -1.3381
  714MOL0     H96355   5.627   8.108   9.361  0.5406  1.3952 -0.2381
  714MOL0     H96356   5.629   7.974   9.146  0.4555  0.1009  0.8838
  714MOL0     H96357   5.651   8.141   9.098 -1.9110 -1.0466  0.4223
  714MOL0     H96358   5.889   8.127   9.083 -2.0798  1.7263 -2.0856
  714MOL0     H96359   5.884   7.958   9.154 -3.3577  0.1713  2.3921
  714MOL0     H96360   5.809   8.075   8.900 -1.3188 -0.2936 -0.1331
  714MOL0     H96361   5.737   7.919   8.931  1.4069 -2.4985 -0.1854
  714MOL0     H96362   5.945   7.801   8.943 -2.3129 -0.3026 -0.9503
  714MOL0     H96363   6.038   7.955   8.940  0.6549  1.0205 -3.3600
  714MOL0     H96364   5.841   7.851   8.717  0.5243 -1.4737  2.3919
  714MOL0     H96365   5.932   8.004   8.713 -0.3420  1.0790  2.1723
  714MOL0     H96366   6.055   7.722   8.762 -2.6970 -1.0092 -0.0815
  714MOL0     H96367   6.141   7.869   8.714  0.3680 -0.6675 -1.4029
  714MOL0     H96368   5.926   7.764   8.523  1.0081 -2.2829 -2.6352
  714MOL0     H96369   6.064   7.867   8.487  3.3736 -2.5098 -1.9072
  714MOL0     H96370   5.711   8.488   9.276  2.8698 -0.6554 -0.3406
  714MOL0     H96371   5.767   8.655   9.460  1.0465  0.1307  0.3168
  714MOL0     H96372   5.885   8.719   9.922 -0.2352 -0.1193  1.1685
  714MOL0     H96373   5.979   8.882  10.072 -0.6077  1.0474 -0.1136
  714MOL0     H96374   7.154   8.521  11.125  1.9207 -0.3200 -2.0946
  714MOL0     H96375   7.305   8.483  10.947 -0.3583  0.7525 -2.8501
  714MOL0     H96376   7.554   8.070  10.731  0.7434 -3.0828 -0.9257
  714MOL0     H96377   7.686   7.993  10.549 -0.2019 -0.5089 -1.0641
  714MOL0     H96378   7.693   7.937  10.249 -1.4112  1.5962 -1.3995
  714MOL0     H96379   7.829   7.974  10.370  1.6196  0.8790 -0.3398
  714MOL0     H96380   7.825   8.069  10.076 -0.2954  2.5534  1.9164
  714MOL0     H96381   7.895   7.912  10.146 -1.4470  0.0080 -0.2701
  714MOL0     H96382   8.027   8.026  10.296 -3.1108 -3.4762 -1.5063
  714MOL0     H96383   7.984   8.183  10.238  1.0589  1.0883 -0.3275
  714MOL0     H96384   8.153   7.951  10.110  1.8558 -0.4943 -2.5889
  714MOL0     H96385   8.069   8.054   9.993 -0.7697  0.9562  0.8562
  714MOL0     H96386   8.375   8.320  10.105  1.3098 -0.3835 -1.8938
  714MOL0     H96387   7.579   8.335  10.310 -0.4153  1.8198  0.0771
  714MOL0     H96388   7.380   8.494  10.573  0.9557 -0.0368  0.1159
  714MOL0     H96389   7.428   8.527  10.418  1.3559  1.3465  4.4316
  714MOL0     H96390   7.292   8.425  10.437 -0.6244  2.0566  0.9193
  715MOL0     O96391   0.851   6.621   2.014  0.2068 -0.5009 -0.0696
  715MOL0     C96392   0.908   6.645   1.910 -0.8615  0.1452  0.1623
  715MOL0     O96393   0.844   6.648   1.788  0.0359  0.8158 -0.4547
  715MOL0     C96394   0.712   6.671   1.785 -0.1674  0.2250 -0.0912
  715MOL0     C96395   0.660   6.794   1.823  0.8646 -0.1649  0.1660
  715MOL0     C96396   0.523   6.808   1.825 -0.2822 -0.4992  0.1806
  715MOL0     C96397   0.435   6.708   1.799  0.6630  0.4145 -0.5629
  715MOL0     O96398   0.299   6.715   1.797  0.7159  0.5585  0.4534
  715MOL0     C96399   0.219   6.812   1.870 -0.5965 -0.8123 -0.6667
  715MOL0     C96400   0.146   6.750   1.988  0.5301  0.1973 -0.0965
  715MOL0     C96401   0.079   6.857   2.081  0.5971 -0.0909 -0.7008
  715MOL0     C96402   0.006   6.783   2.201 -0.3674  0.5751 -0.4623
  715MOL0     C96403  -0.117   6.706   2.169  0.2421 -0.8504  1.3393
  715MOL0     C96404  -0.200   6.689   2.300  0.7621  0.3951  0.3833
  715MOL0     C96405  -0.314   6.600   2.267  0.2709  0.7245  0.0283
  715MOL0     C96406  -0.381   6.544   2.393 -0.1917 -0.2924  0.8836
  715MOL0     N96407  -0.508   6.483   2.349  0.8603  0.4742  0.2258
  715MOL0     C96408  -0.515   6.387   2.248 -0.2660 -0.0947 -0.7510
  715MOL0     C96409  -0.651   6.352   2.232 -0.3801 -1.2235 -0.3426
  715MOL0     C96410  -0.694   6.242   2.144 -0.5895 -0.6473 -0.2787
  715MOL0     C96411  -0.781   6.143   2.229 -0.2528 -0.8321  0.4978
  715MOL0     C96412  -0.812   6.029   2.130  0.7802 -0.7196 -0.6145
  715MOL0     C96413  -0.858   5.911   2.211  0.3908 -1.4414  0.7461
  715MOL0     O96414  -0.951   5.940   2.312 -0.1585  0.2740 -0.3045
  715MOL0     C96415  -0.969   5.843   2.410 -0.2469  0.5705  0.5283
  715MOL0     C96416  -1.071   5.878   2.491  0.3566  0.3428 -1.8300
  715MOL0     C96417  -1.115   5.804   2.598 -0.0443 -0.0093 -0.0981
  715MOL0     C96418  -1.061   5.677   2.610 -0.0266  0.2830 -1.0014
  715MOL0     C96419  -1.103   5.595   2.735 -0.5831 -1.3613 -0.4548
  715MOL0     O96420  -1.231   5.623   2.784  0.3747  0.2923  0.7425
  715MOL0     C96421  -1.316   5.513   2.806 -1.3026  0.3179 -0.2234
  715MOL0     C96422  -1.440   5.547   2.874 -0.3326  0.5390  0.1202
  715MOL0     C96423  -1.531   5.442   2.898  0.6907  0.9682  0.4745
  715MOL0     C96424  -1.508   5.312   2.846  1.0912  0.3604 -0.2887
  715MOL0     O96425  -1.607   5.218   2.832  0.6238 -0.5290  0.3094
  715MOL0     C96426  -1.586   5.095   2.908 -1.0035 -1.4283 -0.4725
  715MOL0     C96427  -1.714   5.019   2.899  0.3170 -0.5806 -0.2855
  715MOL0     C96428  -1.764   4.984   2.762 -0.5954  0.4210  0.1612
  715MOL0     C96429  -1.881   4.901   2.776 -0.0045 -0.2023 -0.1041
  715MOL0     C96430  -1.930   4.870   2.639  0.1480 -0.3681  0.2258
  715MOL0     C96431  -1.978   4.724   2.636 -0.4494 -1.4358  0.5860
  715MOL0     C96432  -2.123   4.725   2.668  0.1235  0.4903 -0.3574
  715MOL0     C96433  -2.177   4.585   2.729 -0.4397  0.1475 -0.5134
  715MOL0    Cl96434  -2.151   4.463   2.601  0.0126 -0.1122 -0.3897
  715MOL0     C96435  -1.380   5.273   2.801 -0.5431  0.0370 -0.2197
  715MOL0     C96436  -1.283   5.375   2.778  0.1121 -0.3661  0.6169
  715MOL0     O96437  -1.009   5.522   2.776 -0.0457 -0.6284 -0.0746
  715MOL0     C96438  -0.965   5.635   2.518 -0.5488  0.1879 -0.6297
  715MOL0     C96439  -0.914   5.712   2.417  0.4983  0.2983 -1.1958
  715MOL0     N96440  -0.721   6.420   2.335  0.8691 -0.4253 -0.5944
  715MOL0     N96441  -0.638   6.504   2.395  0.1838  0.4274  0.1368
  715MOL0     C96442   0.490   6.587   1.751  0.3204 -0.4438 -0.8894
  715MOL0     C96443   0.624   6.566   1.745 -0.5198 -0.4690 -0.5266
  715MOL0     C96444   1.056   6.686   1.915 -0.6136 -0.0770 -0.0557
  715MOL0     C96445   1.134   6.664   1.801 -0.8689 -0.7006 -1.2411
  715MOL0     C96446   1.276   6.689   1.800 -0.2555 -0.3635  0.0524
  715MOL0     C96447   1.340   6.732   1.921 -0.6388 -0.6153 -0.5718
  715MOL0     O96448   1.474   6.728   1.927  0.4348  0.1248  0.3592
  715MOL0     C96449   1.529   6.860   1.946 -0.3075 -0.2564 -0.4401
  715MOL0     C96450   1.627   6.885   1.832 -0.6433 -1.3350 -0.5207
  715MOL0     C96451   1.557   6.895   1.699 -0.0649 -1.3133 -0.6312
  715MOL0     C96452   1.451   7.016   1.685 -0.1869  0.7814  0.6380
  715MOL0     C96453   1.379   7.009   1.550  0.5361 -0.4498  0.6335
  715MOL0     C96454   1.310   7.008   1.450  0.3273 -1.1175  0.4957
  715MOL0     C96455   1.267   6.759   2.034  1.0808 -0.2543  0.3888
  715MOL0     C96456   1.124   6.743   2.030  0.0795  0.0461  0.9601
  715MOL0     C96457   1.040   6.784   2.150 -0.4044 -0.1480  0.7748
  715MOL0     H96458   0.737   6.861   1.861 -0.4317  0.0026  2.7253
  715MOL0     H96459   0.489   6.908   1.850 -0.9922 -0.1864 -1.8405
  715MOL0     H96460   0.264   6.905   1.907 -1.5782 -1.1463  1.5253
  715MOL0     H96461   0.137   6.848   1.808 -1.6882  0.9249  1.6367
  715MOL0     H96462   0.226   6.700   2.045 -0.2732 -0.6473  0.3208
  715MOL0     H96463   0.071   6.679   1.953 -0.7465  1.7020 -0.5168
  715MOL0     H96464   0.010   6.920   2.024  1.8645  0.9215 -1.1727
  715MOL0     H96465   0.155   6.925   2.122  1.1442  1.6056 -4.1674
  715MOL0     H96466   0.081   6.719   2.248 -2.0454 -0.8410  0.3848
  715MOL0     H96467  -0.026   6.854   2.278 -1.0599 -2.7548  2.6002
  715MOL0     H96468  -0.175   6.769   2.102  1.2964 -0.7562  0.4873
  715MOL0     H96469  -0.099   6.609   2.122  0.6485 -1.5694  2.8812
  715MOL0     H96470  -0.155   6.630   2.380 -1.9737 -0.9199  1.0748
  715MOL0     H96471  -0.223   6.791   2.334  2.9279  0.6461  1.2682
  715MOL0     H96472  -0.282   6.513   2.209  0.6529 -0.0130  1.3045
  715MOL0     H96473  -0.390   6.658   2.214 -0.1514  1.8969  1.8125
  715MOL0     H96474  -0.310   6.480   2.446 -2.8850 -2.9624  1.5416
  715MOL0     H96475  -0.397   6.624   2.466  2.5252 -1.1179  2.4922
  715MOL0     H96476  -0.429   6.338   2.202 -2.9677 -3.5370 -2.6652
  715MOL0     H96477  -0.745   6.275   2.053 -2.8381  1.4389  1.6022
  715MOL0     H96478  -0.603   6.202   2.099 -0.4536 -0.7564  0.0883
  715MOL0     H96479  -0.731   6.103   2.317 -0.6356  4.1149  3.3118
  715MOL0     H96480  -0.876   6.193   2.249  0.4867  0.2644  1.3746
  715MOL0     H96481  -0.720   5.987   2.087  1.6642  0.6882 -0.1403
  715MOL0     H96482  -0.884   6.069   2.058  0.8892  2.7465  1.0231
  715MOL0     H96483  -0.780   5.840   2.240  0.9353 -1.8130 -1.4476
  715MOL0     H96484  -0.914   5.853   2.138  0.6905 -1.3800  0.4642
  715MOL0     H96485  -1.112   5.973   2.460 -1.1235  0.1341 -0.6211
  715MOL0     H96486  -1.189   5.839   2.669 -1.0474  1.2545 -1.6862
  715MOL0     H96487  -1.455   5.654   2.883  0.8480  1.2255 -3.7921
  715MOL0     H96488  -1.627   5.465   2.944  0.3261  3.1920 -1.2288
  715MOL0     H96489  -1.499   5.047   2.865 -1.5546 -0.9912 -2.1498
  715MOL0     H96490  -1.578   5.116   3.015 -0.1185 -0.7746 -0.6538
  715MOL0     H96491  -1.704   4.930   2.962 -0.8949 -0.0587  0.6837
  715MOL0     H96492  -1.795   5.078   2.943 -0.7212 -3.3333  1.7790
  715MOL0     H96493  -1.791   5.083   2.724  3.2102  1.7776  0.6118
  715MOL0     H96494  -1.686   4.935   2.703  0.0892 -0.4291  1.7121
  715MOL0     H96495  -1.961   4.948   2.834  0.7043  0.0370  0.7066
  715MOL0     H96496  -1.853   4.811   2.831  1.9586 -0.9658 -2.2206
  715MOL0     H96497  -1.846   4.874   2.569  0.4508  0.7200  0.6315
  715MOL0     H96498  -2.009   4.937   2.606  0.6094  1.2268  2.1370
  715MOL0     H96499  -1.969   4.687   2.534  0.2726  0.6589 -0.1622
  715MOL0     H96500  -1.919   4.647   2.688  1.8112 -2.3957 -3.0213
  715MOL0     H96501  -2.171   4.755   2.574  1.0553  2.0978 -0.3517
  715MOL0     H96502  -2.175   4.792   2.737 -0.8851 -0.5884 -0.0337
  715MOL0     H96503  -2.124   4.561   2.821 -2.5194  1.3116  1.0585
  715MOL0     H96504  -2.282   4.601   2.754 -0.5691 -2.4765  0.9073
  715MOL0     H96505  -1.353   5.173   2.767 -0.0389 -0.4160  1.4274
  715MOL0     H96506  -1.188   5.342   2.736 -0.5649 -0.5139 -0.8736
  715MOL0     H96507  -0.925   5.536   2.537  0.1689  0.0816 -2.5081
  715MOL0     H96508  -0.846   5.667   2.345  2.4059 -0.3438  0.9041
  715MOL0     H96509   0.412   6.512   1.743 -2.5750  2.2664 -0.3577
  715MOL0     H96510   0.678   6.478   1.711 -0.4206 -0.3249 -0.7408
  715MOL0     H96511   1.086   6.630   1.710 -3.4728 -1.0391  0.1516
  715MOL0     H96512   1.338   6.642   1.725  0.7721  1.4806 -0.3030
  715MOL0     H96513   1.581   6.876   2.041 -0.8746  3.0334 -0.5631
  715MOL0     H96514   1.455   6.940   1.946  1.6038  1.6126  0.3422
  715MOL0     H96515   1.701   6.805   1.831 -0.7213 -1.5391  2.1981
  715MOL0     H96516   1.676   6.981   1.849 -3.2007  0.4646 -2.6301
  715MOL0     H96517   1.521   6.798   1.667 -1.7531 -1.0098  0.2513
  715MOL0     H96518   1.643   6.925   1.638 -0.3108 -0.8793 -0.7737
  715MOL0     H96519   1.379   7.019   1.767  0.6318  1.7359  1.3359
  715MOL0     H96520   1.510   7.108   1.682  2.5150 -0.7535  2.6123
  715MOL0     H96521   1.240   7.019   1.369 -0.2331  2.4734  1.3130
  715MOL0     H96522   1.313   6.819   2.111 -0.4595  2.3726 -0.6145
  715MOL0     H96523   0.998   6.698   2.203 -1.6931  1.0470  1.7526
  715MOL0     H96524   1.102   6.831   2.226 -2.0758  2.4394  0.6740
  715MOL0     H96525   0.957   6.850   2.121  1.5084  2.2061  0.3620
  716MOL0     O96526  10.756   8.883   7.676 -0.4428  0.0777 -0.3748
  716MOL0     C96527  10.761   8.966   7.770  0.1767 -0.3811 -0.4200
  716MOL0     O96528  10.800   9.098   7.752 -0.0454  0.2666  0.1007
  716MOL0     C96529  10.813   9.144   7.622 -0.7511  0.4601  0.3257
  716MOL0     C96530  10.738   9.259   7.586  0.0264  0.4150  0.2949
  716MOL0     C96531  10.746   9.283   7.447 -0.4691 -0.5401  0.3526
  716MOL0     C96532  10.824   9.210   7.364 -0.4413 -0.9130  0.6310
  716MOL0     O96533  10.805   9.254   7.240 -0.3922 -0.6988  0.6935
  716MOL0     C96534  10.925   9.269   7.154  0.3330  0.8092  0.8114
  716MOL0     C96535  10.898   9.366   7.047  0.0829  0.1131  0.8833
  716MOL0     C96536  11.024   9.431   6.988  0.0469  0.2337 -0.1655
  716MOL0     C96537  11.003   9.467   6.851  0.3595  0.0910  0.5773
  716MOL0     C96538  11.120   9.534   6.791 -0.2399  0.6643 -0.6841
  716MOL0     C96539  11.237   9.441   6.762 -0.7802  0.4064 -0.2103
  716MOL0     C96540  11.346   9.475   6.651  0.0163 -0.0208 -0.2286
  716MOL0     C96541  11.403   9.623   6.663 -0.2112 -0.9201 -0.0056
  716MOL0     N96542  11.398   9.697   6.535 -0.0702 -0.7219 -1.8968
  716MOL0     C96543  11.280   9.748   6.487  0.1599  0.4979  0.2996
  716MOL0     C96544  11.311   9.835   6.392 -0.1422  0.1898 -0.6160
  716MOL0     C96545  11.202   9.906   6.324  1.0301 -0.7082 -0.3802
  716MOL0     C96546  11.246   9.943   6.182  0.7176  0.4151  0.1859
  716MOL0     C96547  11.139   9.993   6.087  0.3061 -0.6893  0.3510
  716MOL0     C96548  11.204  10.002   5.946 -0.5706  0.1656  0.3982
  716MOL0     O96549  11.112   9.994   5.834 -0.4589  0.0825  0.2280
  716MOL0     C96550  11.168   9.960   5.710 -0.0297  1.1606  0.2356
  716MOL0     C96551  11.292   9.984   5.669  0.5449  0.1057 -0.0365
  716MOL0     C96552  11.337   9.944   5.538  0.0558 -0.2540 -0.5412
  716MOL0     C96553  11.250   9.870   5.448  0.2584  0.5345 -0.0155
  716MOL0     C96554  11.296   9.826   5.321  0.1938  0.3224  0.1285
  716MOL0     O96555  11.209   9.790   5.223 -0.0502  0.1613  0.1541
  716MOL0     C96556  11.250   9.746   5.101 -0.9781  0.3053  0.1010
  716MOL0     C96557  11.182   9.634   5.056 -0.6765 -0.2442 -0.0099
  716MOL0     C96558  11.220   9.567   4.932 -0.3470  0.4814 -0.4124
  716MOL0     C96559  11.331   9.613   4.862 -1.3890 -0.4610  0.3251
  716MOL0     O96560  11.356   9.558   4.742  0.4200 -0.3483  0.6060
  716MOL0     C96561  11.488   9.546   4.688 -0.3026 -0.5829  0.5764
  716MOL0     C96562  11.581   9.454   4.757  0.4319 -0.0782  0.5059
  716MOL0     C96563  11.721   9.463   4.695 -0.4960 -0.2833  0.2544
  716MOL0     C96564  11.725   9.418   4.552  0.7489 -0.6032 -0.2287
  716MOL0     C96565  11.860   9.375   4.489  0.5211 -0.8939 -0.9762
  716MOL0     C96566  11.973   9.475   4.520  0.4981  0.3314 -0.0712
  716MOL0     C96567  12.098   9.469   4.432  0.5704 -0.1168  0.2016
  716MOL0     C96568  12.182   9.594   4.454 -1.5784  0.3999  0.3806
  716MOL0    Cl96569  12.326   9.553   4.353  0.4248  0.4015  0.0203
  716MOL0     C96570  11.395   9.731   4.903 -0.3412  0.3943 -0.6867
  716MOL0     C96571  11.353   9.796   5.019 -0.1135  1.4374 -0.1575
  716MOL0     O96572  11.419   9.805   5.324 -0.8431 -0.0055  0.2863
  716MOL0     C96573  11.117   9.860   5.486 -0.5122 -0.3832 -0.4571
  716MOL0     C96574  11.077   9.905   5.618  0.3563 -0.1001  0.5843
  716MOL0     N96575  11.443   9.834   6.374 -0.5768  0.2319 -0.7636
  716MOL0     N96576  11.494   9.748   6.458 -0.2447 -0.1040 -0.4748
  716MOL0     C96577  10.911   9.117   7.404  0.9650  1.0704  0.8227
  716MOL0     C96578  10.913   9.087   7.540 -0.7081 -0.5870  0.0520
  716MOL0     C96579  10.723   8.910   7.908 -1.3033  0.6265 -1.1771
  716MOL0     C96580  10.744   8.998   8.019  0.4498  1.3097  0.5192
  716MOL0     C96581  10.727   8.953   8.158  0.3832  0.0415  0.6508
  716MOL0     C96582  10.677   8.824   8.180  0.8427  0.0606 -0.6973
  716MOL0     O96583  10.657   8.768   8.304 -0.3671  0.4193  0.1699
  716MOL0     C96584  10.761   8.769   8.393  0.3219 -0.0814 -0.4668
  716MOL0     C96585  10.887   8.708   8.321 -0.6051  0.3867  0.6318
  716MOL0     C96586  11.009   8.681   8.392  0.1157  0.5170  0.5917
  716MOL0     C96587  11.090   8.813   8.411 -0.3942 -0.2866 -0.0397
  716MOL0     C96588  11.035   8.911   8.507  0.9298  0.1035  0.6316
  716MOL0     C96589  10.985   8.993   8.578  0.1859 -0.3605 -0.5193
  716MOL0     C96590  10.626   8.749   8.076 -0.8941  0.2112 -0.5390
  716MOL0     C96591  10.652   8.787   7.943 -0.4829 -0.2687  0.1297
  716MOL0     C96592  10.611   8.682   7.846  0.1921 -0.3250 -0.5230
  716MOL0     H96593  10.664   9.318   7.640 -3.2359  0.0458 -3.2937
  716MOL0     H96594  10.689   9.364   7.402 -1.0991  0.5410  2.9430
  716MOL0     H96595  11.010   9.308   7.212  0.1635  1.2459  0.7719
  716MOL0     H96596  10.957   9.171   7.118 -1.1923  0.0003  1.5815
  716MOL0     H96597  10.824   9.436   7.087 -1.1386 -0.4408 -0.3349
  716MOL0     H96598  10.839   9.323   6.965  1.5981 -0.7226  0.1940
  716MOL0     H96599  11.102   9.355   6.996 -0.4170 -0.1046  1.8679
  716MOL0     H96600  11.055   9.515   7.051 -1.7513 -0.8743  2.3826
  716MOL0     H96601  10.957   9.393   6.785  0.5882  0.1484  0.3475
  716MOL0     H96602  10.930   9.547   6.863  0.5609 -0.0244  3.1445
  716MOL0     H96603  11.086   9.567   6.692 -0.6222  0.4093 -0.6408
  716MOL0     H96604  11.153   9.619   6.851 -0.1309  0.0385  0.1554
  716MOL0     H96605  11.305   9.438   6.848  2.2015  2.3961 -2.2844
  716MOL0     H96606  11.206   9.338   6.740  2.1847 -0.6992  0.2532
  716MOL0     H96607  11.308   9.468   6.548 -0.5707  0.9753 -0.0907
  716MOL0     H96608  11.424   9.398   6.649  0.6521  0.6139 -0.5276
  716MOL0     H96609  11.351   9.672   6.745 -2.5834 -4.2238  0.6694
  716MOL0     H96610  11.509   9.615   6.689  0.5951  1.8775 -1.9663
  716MOL0     H96611  11.180   9.731   6.526  0.3685 -1.4871  0.0526
  716MOL0     H96612  11.114   9.842   6.314 -1.9176  3.0036 -0.3860
  716MOL0     H96613  11.163   9.993   6.377 -0.1919 -1.1377 -0.5343
  716MOL0     H96614  11.330  10.013   6.188  0.5055  0.6978 -0.0592
  716MOL0     H96615  11.279   9.847   6.141 -0.7115  1.0050 -2.5819
  716MOL0     H96616  11.108  10.089   6.129 -0.6339 -0.6725 -0.3463
  716MOL0     H96617  11.055   9.923   6.087 -0.1671 -0.1304  0.1496
  716MOL0     H96618  11.271   9.916   5.940  0.2567  0.8147  0.2871
  716MOL0     H96619  11.266  10.092   5.947  0.4652 -0.4496 -2.1733
  716MOL0     H96620  11.353  10.043   5.736 -1.5331  0.2608  1.8261
  716MOL0     H96621  11.443   9.958   5.515 -0.2116  3.1564 -0.1756
  716MOL0     H96622  11.095   9.599   5.111 -3.8261 -0.1540 -4.4254
  716MOL0     H96623  11.172   9.478   4.893 -2.2532  1.0006  0.6514
  716MOL0     H96624  11.472   9.517   4.583 -1.3819  0.2517  0.5028
  716MOL0     H96625  11.532   9.646   4.684  1.4666 -1.3542 -0.9653
  716MOL0     H96626  11.587   9.475   4.864  3.2506 -2.7010  0.9969
  716MOL0     H96627  11.547   9.350   4.745 -1.7446  0.6499 -0.1600
  716MOL0     H96628  11.752   9.567   4.709 -4.4238  0.8458  2.0941
  716MOL0     H96629  11.802   9.405   4.740 -1.1486 -1.6477 -0.2618
  716MOL0     H96630  11.707   9.506   4.489  0.1252  0.3895  1.3000
  716MOL0     H96631  11.642   9.347   4.546 -0.6148  0.9206  0.0782
  716MOL0     H96632  11.843   9.364   4.381 -0.6952 -2.2928 -0.6822
  716MOL0     H96633  11.867   9.272   4.526  1.4479 -1.3081 -2.2648
  716MOL0     H96634  11.936   9.578   4.509 -0.5747  0.1148  1.2264
  716MOL0     H96635  12.002   9.465   4.625  2.2108 -3.0461 -0.7479
  716MOL0     H96636  12.069   9.473   4.327 -1.0028  0.3754  0.6111
  716MOL0     H96637  12.161   9.384   4.458  0.0992  0.3586  3.3610
  716MOL0     H96638  12.141   9.695   4.441  2.4166  2.2148  0.5971
  716MOL0     H96639  12.211   9.592   4.560 -2.4427 -1.8282  0.6385
  716MOL0     H96640  11.483   9.765   4.849  0.4037 -2.0300 -1.0967
  716MOL0     H96641  11.406   9.874   5.072 -0.7451  1.5061  0.3773
  716MOL0     H96642  11.051   9.805   5.420 -1.7167 -1.0354  1.2329
  716MOL0     H96643  10.976   9.893   5.656  0.6465  0.7617  1.7045
  716MOL0     H96644  10.968   9.070   7.325 -2.7256  0.6721 -1.8612
  716MOL0     H96645  10.985   9.013   7.573 -1.1228 -0.1773  2.0098
  716MOL0     H96646  10.779   9.097   7.991 -0.1521  0.9532 -1.6629
  716MOL0     H96647  10.755   9.014   8.243 -3.6345 -2.1253  3.9357
  716MOL0     H96648  10.746   8.701   8.478  2.5835  0.1698  0.2200
  716MOL0     H96649  10.774   8.875   8.418 -0.7217 -0.1575  0.4545
  716MOL0     H96650  10.921   8.779   8.245 -1.1375  0.6561  0.6396
  716MOL0     H96651  10.864   8.609   8.280  1.3879  0.4861 -0.8859
  716MOL0     H96652  11.078   8.624   8.329  1.0661 -1.0564  2.9234
  716MOL0     H96653  10.975   8.630   8.483 -3.3180  2.4775  0.5693
  716MOL0     H96654  11.188   8.783   8.450  0.0324 -0.4619 -1.2070
  716MOL0     H96655  11.118   8.857   8.315 -1.1503  0.0240 -0.1252
  716MOL0     H96656  10.946   9.071   8.640  2.3008  0.2940  0.0601
  716MOL0     H96657  10.575   8.655   8.096  2.6389 -2.1238 -1.5351
  716MOL0     H96658  10.585   8.593   7.905  4.3778 -0.5291  1.3943
  716MOL0     H96659  10.516   8.713   7.801  0.0272  1.4566  0.9227
  716MOL0     H96660  10.682   8.658   7.766  1.5644 -0.9085  0.8045
  717MOL0     O96661   0.105  10.263   2.682 -0.2503  0.5399  0.0681
  717MOL0     C96662   0.199  10.204   2.648 -1.5459  0.6459  1.0396
  717MOL0     O96663   0.320  10.196   2.716  0.2362  0.1760  0.2512
  717MOL0     C96664   0.342  10.272   2.825 -0.2069  0.6169 -0.5766
  717MOL0     C96665   0.289  10.399   2.849 -0.7123  0.2245 -0.3149
  717MOL0     C96666   0.304  10.469   2.969 -0.4127  0.1139  0.0305
  717MOL0     C96667   0.376  10.408   3.076 -0.2598 -0.4131 -0.0909
  717MOL0     O96668   0.411  10.469   3.190 -0.8555 -1.0790 -0.2379
  717MOL0     C96669   0.337  10.572   3.260  0.0942  0.3105 -0.1824
  717MOL0     C96670   0.185  10.556   3.266 -0.3438 -0.1225  0.1478
  717MOL0     C96671   0.148  10.432   3.360  0.6002  0.2301 -0.1136
  717MOL0     C96672   0.008  10.455   3.408 -0.6283  0.0693 -0.3592
  717MOL0     C96673  -0.031  10.378   3.540 -1.0234  0.7668  0.9199
  717MOL0     C96674   0.006  10.231   3.532  0.0712  0.3472  0.3989
  717MOL0     C96675  -0.069  10.161   3.415 -0.1097 -0.1488 -0.0607
  717MOL0     C96676  -0.042  10.019   3.406 -0.5820  0.6155  0.1379
  717MOL0     N96677   0.108   9.972   3.421  0.2489 -0.0979  1.0685
  717MOL0     C96678   0.163   9.921   3.540  0.1773  0.3490 -0.0060
  717MOL0     C96679   0.291   9.894   3.517 -0.8586  0.2031  0.2760
  717MOL0     C96680   0.392   9.836   3.608 -0.5953 -0.3453 -1.0365
  717MOL0     C96681   0.489   9.949   3.659  0.2127  0.0679  0.7754
  717MOL0     C96682   0.547   9.909   3.794 -0.3682  0.0730 -0.1728
  717MOL0     C96683   0.631  10.016   3.859 -0.3272 -0.0034  0.3746
  717MOL0     O96684   0.678   9.964   3.982  0.0199  0.6804 -0.2922
  717MOL0     C96685   0.781  10.028   4.044  0.5985  0.0154 -0.1935
  717MOL0     C96686   0.852   9.964   4.140 -0.9107  0.5882  0.5410
  717MOL0     C96687   0.952  10.031   4.214 -0.4387  0.8270 -0.0731
  717MOL0     C96688   0.999  10.159   4.171  0.4938 -1.0472 -1.4948
  717MOL0     C96689   1.106  10.238   4.247  1.0831 -0.5252 -0.1277
  717MOL0     O96690   1.122  10.371   4.204 -0.1711 -0.5700  0.4949
  717MOL0     C96691   1.190  10.469   4.282 -1.3056  1.0392 -0.4204
  717MOL0     C96692   1.209  10.590   4.225  0.4257  1.0988 -0.2265
  717MOL0     C96693   1.270  10.694   4.291 -0.5709  0.4772 -0.9178
  717MOL0     C96694   1.320  10.673   4.423  0.3718 -1.4382 -0.7270
  717MOL0     O96695   1.383  10.777   4.491 -0.7100  0.1071 -0.9010
  717MOL0     C96696   1.371  10.919   4.458 -0.6229 -0.3654 -1.2445
  717MOL0     C96697   1.509  10.973   4.398 -0.0705 -0.2279  0.4039
  717MOL0     C96698   1.508  11.124   4.390 -1.3831 -0.4591  0.3275
  717MOL0     C96699   1.610  11.164   4.290 -0.4642  0.6642  0.1315
  717MOL0     C96700   1.632  11.317   4.282  0.8071 -0.2403  1.1397
  717MOL0     C96701   1.749  11.358   4.186  0.2830 -0.7759  0.7883
  717MOL0     C96702   1.727  11.488   4.098  0.1702 -0.5375 -0.6995
  717MOL0     C96703   1.863  11.565   4.089  0.4433  0.1185 -0.7750
  717MOL0    Cl96704   1.962  11.494   3.957  0.1507  0.1196  0.5925
  717MOL0     C96705   1.309  10.548   4.481  0.5457  0.6069 -0.1207
  717MOL0     C96706   1.240  10.441   4.414  0.1543  0.0652  0.5267
  717MOL0     O96707   1.158  10.186   4.343 -0.1605  0.3606 -0.4979
  717MOL0     C96708   0.930  10.224   4.065 -0.1977  0.4834 -0.0460
  717MOL0     C96709   0.819  10.162   4.011  1.3716 -0.1487  0.8604
  717MOL0     N96710   0.320   9.929   3.382  0.2300  0.5138  0.6018
  717MOL0     N96711   0.212   9.975   3.331  1.0106 -0.1225 -0.1088
  717MOL0     C96712   0.427  10.285   3.049 -1.0485  0.6838  0.3034
  717MOL0     C96713   0.410  10.213   2.936 -0.3726 -0.0197  0.3617
  717MOL0     C96714   0.208  10.137   2.519 -0.5123 -0.4601 -0.8342
  717MOL0     C96715   0.126  10.195   2.416  0.3738 -0.6127 -0.4913
  717MOL0     C96716   0.126  10.140   2.282 -0.2500 -0.4514 -0.4037
  717MOL0     C96717   0.223  10.052   2.247  0.3901  0.4967 -0.2529
  717MOL0     O96718   0.232  10.014   2.112 -1.2920  0.5136 -0.6332
  717MOL0     C96719   0.330   9.924   2.066  0.3806 -0.1792 -0.8409
  717MOL0     C96720   0.464   9.994   2.057  1.1554  0.2092 -0.8323
  717MOL0     C96721   0.462  10.146   2.048 -0.7244 -0.6576  0.6533
  717MOL0     C96722   0.608  10.202   2.012  0.2830  0.1091  0.0728
  717MOL0     C96723   0.660  10.181   1.875 -0.0593  0.6491  0.0406
  717MOL0     C96724   0.688  10.136   1.769  0.1483 -0.3341  0.2133
  717MOL0     C96725   0.292   9.987   2.347  0.0842  0.1384 -0.1955
  717MOL0     C96726   0.289  10.030   2.476  0.1585 -0.0355 -1.0301
  717MOL0     C96727   0.374   9.943   2.569  0.5904  0.9304 -0.6511
  717MOL0     H96728   0.226  10.441   2.772 -0.8151 -0.0633 -0.3893
  717MOL0     H96729   0.260  10.567   2.988  0.8555  0.8883 -0.8848
  717MOL0     H96730   0.374  10.588   3.362  1.8808 -2.4487 -0.2957
  717MOL0     H96731   0.340  10.668   3.208  1.1585  0.5737  0.3212
  717MOL0     H96732   0.150  10.541   3.163  2.3435  0.1147 -0.8693
  717MOL0     H96733   0.146  10.650   3.306 -0.6602 -0.9486  1.8749
  717MOL0     H96734   0.216  10.423   3.445 -0.8681 -1.2533  0.9641
  717MOL0     H96735   0.148  10.341   3.300 -2.3500 -2.8576  4.0253
  717MOL0     H96736  -0.016  10.561   3.416 -0.7048  0.3464 -3.2438
  717MOL0     H96737  -0.056  10.411   3.331 -1.1098 -1.9602  1.1035
  717MOL0     H96738   0.033  10.428   3.614  2.2916  0.1569 -1.3006
  717MOL0     H96739  -0.139  10.383   3.557 -1.8724 -1.9067 -2.5601
  717MOL0     H96740   0.115  10.222   3.527  0.2056  1.5521  0.8156
  717MOL0     H96741  -0.032  10.187   3.625 -1.0683  4.6715  2.2315
  717MOL0     H96742  -0.044  10.202   3.317  1.3785  2.2351  1.2209
  717MOL0     H96743  -0.177  10.179   3.420 -0.1010  0.8135 -2.2694
  717MOL0     H96744  -0.089   9.968   3.490  1.3768 -0.8555  0.4052
  717MOL0     H96745  -0.089   9.982   3.315  2.6976 -0.8245 -1.1239
  717MOL0     H96746   0.117   9.898   3.636  1.8122  3.1180  1.5792
  717MOL0     H96747   0.349   9.779   3.691  0.6679 -0.5021 -0.4648
  717MOL0     H96748   0.461   9.769   3.557 -1.5517 -2.2758  0.0916
  717MOL0     H96749   0.573   9.956   3.590 -0.9487 -0.0146 -0.6864
  717MOL0     H96750   0.432  10.041   3.648 -0.2107 -0.3663 -0.8939
  717MOL0     H96751   0.598   9.813   3.777 -1.7812 -0.6199 -0.6400
  717MOL0     H96752   0.474   9.866   3.864 -2.8856  1.1290 -2.0079
  717MOL0     H96753   0.565  10.103   3.868 -2.5589 -1.5718 -0.0505
  717MOL0     H96754   0.719  10.044   3.801  0.5860 -1.0133  1.2460
  717MOL0     H96755   0.828   9.862   4.166  4.4339 -2.1199 -3.1363
  717MOL0     H96756   1.002   9.984   4.298  0.3112  1.8236  0.0606
  717MOL0     H96757   1.176  10.615   4.125  0.4243  0.3062 -0.4273
  717MOL0     H96758   1.288  10.786   4.236  1.8073  0.7945  0.2410
  717MOL0     H96759   1.293  10.932   4.382 -2.6955 -1.7359  0.5302
  717MOL0     H96760   1.347  10.972   4.550 -1.9381 -2.2899 -0.4061
  717MOL0     H96761   1.590  10.959   4.470 -0.5407  0.1728  1.0162
  717MOL0     H96762   1.520  10.914   4.306 -0.5133 -1.9760  1.4291
  717MOL0     H96763   1.416  11.173   4.359 -0.8288  0.5468  0.2390
  717MOL0     H96764   1.544  11.172   4.481 -0.3285  0.7964 -0.7228
  717MOL0     H96765   1.587  11.129   4.189  0.0239 -1.8007  0.8077
  717MOL0     H96766   1.699  11.104   4.311 -2.0933 -2.2065 -0.5822
  717MOL0     H96767   1.641  11.370   4.377  2.1538 -0.0723  0.9326
  717MOL0     H96768   1.536  11.353   4.244 -0.0247 -1.7473  1.7431
  717MOL0     H96769   1.837  11.366   4.251  0.1905  1.8774  0.7174
  717MOL0     H96770   1.771  11.284   4.109  0.2427 -2.6691  2.5213
  717MOL0     H96771   1.661  11.556   4.152  0.7232  1.7215 -2.6988
  717MOL0     H96772   1.671  11.478   4.005 -0.0313  1.6116 -0.8511
  717MOL0     H96773   1.840  11.670   4.070  0.2742  0.7893  2.6012
  717MOL0     H96774   1.925  11.551   4.177  0.3601 -0.5122 -0.8122
  717MOL0     H96775   1.343  10.538   4.584 -0.1124  3.8219  0.5238
  717MOL0     H96776   1.235  10.352   4.476  0.8378  0.0209  0.5315
  717MOL0     H96777   0.960  10.321   4.028 -1.0507  0.3490 -1.1636
  717MOL0     H96778   0.767  10.214   3.931  2.7905  1.0305  0.6609
  717MOL0     H96779   0.484  10.240   3.130 -1.6513  2.3618  1.7098
  717MOL0     H96780   0.469  10.125   2.915 -1.9181 -1.1804  0.6697
  717MOL0     H96781   0.061  10.280   2.435 -2.7129 -3.0894  1.0993
  717MOL0     H96782   0.066  10.192   2.209  0.6909  2.9524  1.0582
  717MOL0     H96783   0.303   9.896   1.963 -3.2760  1.5901 -0.5504
  717MOL0     H96784   0.335   9.834   2.128 -2.0578  0.9729  1.2164
  717MOL0     H96785   0.515   9.959   1.966  0.2277  1.8750 -2.0455
  717MOL0     H96786   0.521   9.967   2.146  1.4198  0.0074 -1.0596
  717MOL0     H96787   0.429  10.197   2.139  0.8897  0.9284  0.3988
  717MOL0     H96788   0.381  10.177   1.981  1.0519  1.1073 -0.8006
  717MOL0     H96789   0.616  10.310   2.029  1.4138 -0.4933  4.8952
  717MOL0     H96790   0.679  10.160   2.085  3.0564  1.3391 -1.7246
  717MOL0     H96791   0.706  10.104   1.668 -0.3047 -0.1514  0.0721
  717MOL0     H96792   0.351   9.897   2.332  0.3464  0.7028 -2.9844
  717MOL0     H96793   0.462   9.917   2.510  0.8435  0.8816 -0.2530
  717MOL0     H96794   0.416   9.987   2.660 -1.8737  0.7986  0.6214
  717MOL0     H96795   0.315   9.857   2.600  1.9720 -0.5647 -1.9941
  718MOL0     O96796   6.002  10.883   6.386  0.3362 -0.6852  0.1094
  718MOL0     C96797   6.097  10.932   6.330 -0.7644  1.3046  0.8367
  718MOL0     O96798   6.230  10.903   6.344  0.0128 -0.8840  0.9699
  718MOL0     C96799   6.262  10.794   6.409 -0.0453  0.3194  0.4575
  718MOL0     C96800   6.341  10.703   6.341 -0.4070  1.1215 -0.2187
  718MOL0     C96801   6.361  10.573   6.404  0.3917 -0.6952  0.3614
  718MOL0     C96802   6.308  10.552   6.524 -0.3895  0.3942  0.1110
  718MOL0     O96803   6.327  10.426   6.581 -0.0534  0.3477 -0.2109
  718MOL0     C96804   6.247  10.321   6.516 -0.3038 -0.1104  0.1052
  718MOL0     C96805   6.224  10.209   6.623  0.6655  0.0433  0.0146
  718MOL0     C96806   6.144  10.279   6.733  0.2985  0.3446 -0.6226
  718MOL0     C96807   6.095  10.170   6.833  0.5205 -0.0595 -0.5765
  718MOL0     C96808   5.979  10.190   6.937 -0.0393  0.7787 -0.2183
  718MOL0     C96809   5.971  10.325   6.996  1.3667 -0.2528 -0.6115
  718MOL0     C96810   6.085  10.359   7.093  0.4034  0.1548 -0.6108
  718MOL0     C96811   6.090  10.495   7.166  0.6228 -0.3790  0.6640
  718MOL0     N96812   6.055  10.601   7.070  0.7658  0.0979  0.5643
  718MOL0     C96813   5.916  10.627   7.055  0.4386 -0.0826  0.4348
  718MOL0     C96814   5.912  10.714   6.951 -0.6786  0.1174  1.0267
  718MOL0     C96815   5.784  10.759   6.895  0.0280  0.1355 -0.2252
  718MOL0     C96816   5.793  10.781   6.741 -0.6641  0.8220  0.0491
  718MOL0     C96817   5.653  10.800   6.679 -0.1083 -0.0163  0.1454
  718MOL0     C96818   5.674  10.855   6.534 -0.2646  1.0383  0.4602
  718MOL0     O96819   5.732  10.982   6.529 -0.5383 -0.1118 -0.3689
  718MOL0     C96820   5.700  11.071   6.428  0.1522 -0.3090 -1.2489
  718MOL0     C96821   5.776  11.191   6.422 -0.2590  0.3319 -0.6883
  718MOL0     C96822   5.756  11.294   6.332 -0.0632  0.0495  0.0869
  718MOL0     C96823   5.652  11.284   6.235  1.5012 -0.6482  0.8149
  718MOL0     C96824   5.637  11.386   6.129  0.0242 -0.5238  0.0977
  718MOL0     O96825   5.738  11.481   6.111  0.6074 -0.2410  0.1636
  718MOL0     C96826   5.734  11.572   6.007  0.0824 -0.1581  0.1351
  718MOL0     C96827   5.663  11.682   6.035  0.5906 -0.1304 -0.2872
  718MOL0     C96828   5.638  11.775   5.942  0.5950  0.3870  0.0123
  718MOL0     C96829   5.672  11.750   5.808 -0.1887 -0.4165  0.3717
  718MOL0     O96830   5.621  11.846   5.729  0.2581 -0.5636  0.0077
  718MOL0     C96831   5.653  11.852   5.591  0.5059 -1.2851 -0.4073
  718MOL0     C96832   5.656  11.998   5.531  0.1268  0.2798  0.7544
  718MOL0     C96833   5.605  11.996   5.378 -0.2010 -0.4442  0.1213
  718MOL0     C96834   5.590  12.134   5.303  0.2277  0.1760 -1.0107
  718MOL0     C96835   5.704  12.227   5.355 -0.3348  0.4872  0.1016
  718MOL0     C96836   5.695  12.354   5.258  0.4563  0.0429 -0.5579
  718MOL0     C96837   5.791  12.470   5.298  0.3998 -0.7464  0.0748
  718MOL0     C96838   5.931  12.434   5.262 -0.1596  0.2257 -0.5675
  718MOL0    Cl96839   6.029  12.577   5.293 -0.1553 -0.6176  0.0758
  718MOL0     C96840   5.730  11.630   5.776  0.4325  0.0163  0.6398
  718MOL0     C96841   5.765  11.540   5.876 -0.4903 -0.2551 -0.5586
  718MOL0     O96842   5.531  11.383   6.060 -0.2975  0.5590 -0.4370
  718MOL0     C96843   5.574  11.165   6.236 -0.1134  0.1612 -1.4454
  718MOL0     C96844   5.596  11.065   6.334 -0.3064  1.0179 -0.5795
  718MOL0     N96845   6.046  10.739   6.918  0.2712  0.1872  0.0089
  718MOL0     N96846   6.132  10.655   6.972  0.1610 -0.2015  0.2486
  718MOL0     C96847   6.242  10.651   6.595  0.5664  0.1822 -0.0648
  718MOL0     C96848   6.210  10.769   6.532 -0.2799  0.4598  0.8340
  718MOL0     C96849   6.065  11.039   6.231 -0.1442 -0.3164 -0.3855
  718MOL0     C96850   5.961  11.026   6.143  0.8492 -0.1592  0.4444
  718MOL0     C96851   5.942  11.119   6.035 -0.8066  0.3359  0.8253
  718MOL0     C96852   6.031  11.225   6.022 -0.1382 -0.2975  0.1673
  718MOL0     O96853   6.004  11.311   5.924 -0.3109  0.1924  0.5063
  718MOL0     C96854   6.093  11.422   5.896 -0.2444  1.0375 -0.4117
  718MOL0     C96855   6.195  11.365   5.804 -0.8123 -0.1372 -0.1847
  718MOL0     C96856   6.143  11.323   5.661  1.4173 -0.3961 -0.9741
  718MOL0     C96857   6.051  11.427   5.586 -0.8791 -0.5747 -0.2722
  718MOL0     C96858   6.007  11.372   5.458  0.8805 -0.4777  1.0629
  718MOL0     C96859   5.957  11.325   5.352  0.5881 -0.0220  0.4859
  718MOL0     C96860   6.138  11.246   6.116 -0.4527  0.7751 -0.2596
  718MOL0     C96861   6.147  11.153   6.223 -0.2329 -0.0175  0.7805
  718MOL0     C96862   6.238  11.194   6.337  0.4664  0.3422 -0.0823
  718MOL0     H96863   6.381  10.715   6.241  1.7371  1.5417  0.6310
  718MOL0     H96864   6.421  10.495   6.357  0.5113 -1.7719  2.2104
  718MOL0     H96865   6.149  10.359   6.485 -0.0641  2.0830  1.7926
  718MOL0     H96866   6.310  10.273   6.440  4.6486  2.4292  2.2091
  718MOL0     H96867   6.319  10.167   6.659  1.9470  1.0791 -1.9835
  718MOL0     H96868   6.174  10.119   6.588 -2.3335  1.8148 -0.5857
  718MOL0     H96869   6.051  10.325   6.699 -0.4026  0.0752  0.8340
  718MOL0     H96870   6.207  10.338   6.800  1.9831 -0.3779 -1.4942
  718MOL0     H96871   6.062  10.092   6.763 -0.6812  0.3691 -0.5138
  718MOL0     H96872   6.186  10.132   6.878  0.5785  1.8594  1.0663
  718MOL0     H96873   5.877  10.179   6.899 -1.0842  2.1321  1.9718
  718MOL0     H96874   5.991  10.111   7.011 -0.7985 -0.6737 -1.5925
  718MOL0     H96875   5.952  10.401   6.919  0.4785  0.0311 -0.1263
  718MOL0     H96876   5.880  10.314   7.056 -0.2069 -0.2311 -2.8649
  718MOL0     H96877   6.177  10.350   7.036  2.2904  0.6598  2.1399
  718MOL0     H96878   6.089  10.276   7.164 -4.3886 -0.0671 -0.2477
  718MOL0     H96879   6.016  10.498   7.246 -0.4244  2.9858 -0.2738
  718MOL0     H96880   6.186  10.526   7.208  0.5546  1.2894 -0.3206
  718MOL0     H96881   5.837  10.591   7.122 -0.9517 -0.6100 -1.4135
  718MOL0     H96882   5.721  10.672   6.916  3.8771 -2.0919  3.5374
  718MOL0     H96883   5.731  10.848   6.932 -2.3204 -1.0248 -0.5756
  718MOL0     H96884   5.842  10.878   6.727 -2.2552  1.4723 -1.2566
  718MOL0     H96885   5.845  10.702   6.685 -2.6408 -0.2515 -0.3552
  718MOL0     H96886   5.592  10.876   6.729 -1.2531  1.6124 -3.4238
  718MOL0     H96887   5.601  10.704   6.669  1.0139 -0.7220  0.8863
  718MOL0     H96888   5.576  10.858   6.486  1.0846  0.6808 -2.5165
  718MOL0     H96889   5.745  10.793   6.479  3.1485  1.5294  3.9329
  718MOL0     H96890   5.856  11.212   6.493 -0.7683 -1.3515  0.4554
  718MOL0     H96891   5.820  11.381   6.333 -2.3341  1.9764  4.4877
  718MOL0     H96892   5.623  11.709   6.132 -1.8425  0.8746 -1.4864
  718MOL0     H96893   5.589  11.868   5.967  2.5651  1.6281 -0.5365
  718MOL0     H96894   5.756  11.817   5.577  0.5400 -0.4520 -2.7462
  718MOL0     H96895   5.582  11.785   5.541 -3.6250  1.5894  1.0087
  718MOL0     H96896   5.588  12.071   5.576 -2.2428 -1.4012  0.0809
  718MOL0     H96897   5.763  12.019   5.534  1.3526 -4.7517  1.6656
  718MOL0     H96898   5.684  11.948   5.319 -1.3359  0.6536 -2.4098
  718MOL0     H96899   5.523  11.926   5.361  1.3710 -2.9663  2.2133
  718MOL0     H96900   5.494  12.180   5.332  0.6694 -0.2369  1.2628
  718MOL0     H96901   5.596  12.116   5.195 -2.0954 -3.1760 -0.7276
  718MOL0     H96902   5.796  12.173   5.333 -0.7112 -0.6793  1.2258
  718MOL0     H96903   5.699  12.235   5.464 -0.7164 -1.6404  0.2785
  718MOL0     H96904   5.716  12.328   5.153 -2.0632 -1.6312 -0.7328
  718MOL0     H96905   5.590  12.381   5.261 -0.9565 -4.6135  1.4805
  718MOL0     H96906   5.785  12.478   5.407 -1.2321  2.2053 -0.1513
  718MOL0     H96907   5.766  12.569   5.260 -0.3299 -0.8642  0.2293
  718MOL0     H96908   5.964  12.352   5.327  0.9216  0.6025 -0.6179
  718MOL0     H96909   5.945  12.403   5.158  0.3993 -4.8671  0.7643
  718MOL0     H96910   5.766  11.613   5.675 -2.1247  3.5659 -1.0718
  718MOL0     H96911   5.815  11.449   5.843  3.3363  1.8935 -1.2192
  718MOL0     H96912   5.498  11.152   6.160 -1.1138 -0.7103 -0.3434
  718MOL0     H96913   5.547  10.969   6.322  3.2332 -0.8458 -1.2363
  718MOL0     H96914   6.200  10.638   6.694  1.5849  1.2651  0.5292
  718MOL0     H96915   6.138  10.836   6.576 -1.4659 -0.9712  1.1633
  718MOL0     H96916   5.899  10.937   6.150  2.4158 -1.5367 -1.7822
  718MOL0     H96917   5.852  11.108   5.976 -2.0676  2.4394  2.2340
  718MOL0     H96918   6.133  11.476   5.982  2.9093  0.6622 -1.5148
  718MOL0     H96919   6.030  11.493   5.841 -1.8523 -0.3090 -0.4072
  718MOL0     H96920   6.244  11.276   5.845 -2.1594 -0.2892  1.1958
  718MOL0     H96921   6.267  11.446   5.807 -0.9368  0.0058  3.9528
  718MOL0     H96922   6.076  11.237   5.677  0.6691  0.0480 -1.6401
  718MOL0     H96923   6.223  11.286   5.596  0.2639 -3.2032 -0.9433
  718MOL0     H96924   5.967  11.463   5.646 -0.4845 -0.7862  0.4061
  718MOL0     H96925   6.109  11.516   5.560 -1.8987  1.2260  3.1299
  718MOL0     H96926   5.926  11.294   5.254 -0.9901 -0.9576  1.2421
  718MOL0     H96927   6.198  11.337   6.112  2.2764 -0.9563 -2.1358
  718MOL0     H96928   6.339  11.165   6.308  0.7444  1.1433  0.0705
  718MOL0     H96929   6.215  11.296   6.368  1.6881  0.2093  1.3468
  718MOL0     H96930   6.207  11.131   6.421 -4.3550 -0.7485 -2.2897
  719MOL0     O96931   5.749   2.522   1.011 -0.4514 -0.2884  0.0282
  719MOL0     C96932   5.683   2.440   0.941 -0.0254  0.1357 -0.3369
  719MOL0     O96933   5.596   2.482   0.851 -0.2367  0.3094  0.1301
  719MOL0     C96934   5.575   2.622   0.833 -0.3497 -0.3316  0.0851
  719MOL0     C96935   5.579   2.670   0.701  0.3684 -0.5517  0.0555
  719MOL0     C96936   5.563   2.807   0.669  1.7169 -1.3063 -0.3628
  719MOL0     C96937   5.543   2.901   0.775 -0.7895  0.1847  0.6777
  719MOL0     O96938   5.522   3.030   0.729  0.2784  0.0044 -0.4014
  719MOL0     C96939   5.476   3.124   0.833 -0.4100  0.7079 -0.2103
  719MOL0     C96940   5.445   3.260   0.761 -0.1675  0.5757 -0.1448
  719MOL0     C96941   5.557   3.317   0.663  0.0828  0.3073  1.2942
  719MOL0     C96942   5.686   3.364   0.735  0.1755  0.2348  0.0160
  719MOL0     C96943   5.796   3.421   0.642  0.1919 -0.2040 -0.0694
  719MOL0     C96944   5.925   3.447   0.726  0.3805 -0.2485 -0.7050
  719MOL0     C96945   6.033   3.545   0.670 -0.3178  0.0160  0.5079
  719MOL0     C96946   6.150   3.574   0.779  0.6133 -0.6466 -0.4104
  719MOL0     N96947   6.228   3.694   0.723  0.9001  0.0872 -0.1144
  719MOL0     C96948   6.198   3.823   0.738 -0.5635  0.1692 -0.4041
  719MOL0     C96949   6.295   3.886   0.671  0.0269 -0.4819  0.3287
  719MOL0     C96950   6.299   4.037   0.640  0.1302 -0.0912 -0.2093
  719MOL0     C96951   6.177   4.130   0.662  0.1984  0.1986  0.3249
  719MOL0     C96952   6.166   4.156   0.810  0.5448  0.6586 -0.5946
  719MOL0     C96953   6.063   4.267   0.835  0.3601 -0.0947 -0.7110
  719MOL0     O96954   5.937   4.217   0.800  0.2061 -0.1836 -0.2293
  719MOL0     C96955   5.842   4.315   0.788 -0.6188 -1.0130 -0.2295
  719MOL0     C96956   5.746   4.299   0.694  0.2917 -0.9580 -0.0799
  719MOL0     C96957   5.636   4.388   0.671  0.0982  0.4332  0.0321
  719MOL0     C96958   5.637   4.503   0.748  0.4254  0.0508 -0.0746
  719MOL0     C96959   5.537   4.613   0.744  1.0581  1.0869 -0.2392
  719MOL0     O96960   5.434   4.602   0.652 -0.2658  0.3966  0.5438
  719MOL0     C96961   5.337   4.699   0.642 -0.4945  0.5802 -0.1805
  719MOL0     C96962   5.257   4.722   0.754 -0.4436 -0.0368 -0.4352
  719MOL0     C96963   5.154   4.823   0.747 -0.2427 -0.3207  0.3969
  719MOL0     C96964   5.135   4.894   0.625  0.5642 -0.3052 -0.9320
  719MOL0     O96965   5.053   5.006   0.625  0.6545 -0.4361 -0.4173
  719MOL0     C96966   5.016   5.080   0.743  0.7486  0.2835  0.7190
  719MOL0     C96967   4.962   5.218   0.720 -0.1443 -0.1198 -0.0238
  719MOL0     C96968   5.034   5.278   0.600  0.5048  0.6414  0.0553
  719MOL0     C96969   5.059   5.432   0.621  0.8219  0.1994  0.0740
  719MOL0     C96970   5.081   5.485   0.476 -0.8644 -0.1056  0.2526
  719MOL0     C96971   5.153   5.618   0.476 -0.3900 -0.5007  0.9194
  719MOL0     C96972   5.199   5.669   0.339  0.1978 -0.5401 -0.3345
  719MOL0     C96973   5.271   5.805   0.350 -0.2433 -0.1723  0.7340
  719MOL0    Cl96974   5.182   5.935   0.441  0.1391  0.1573  0.3020
  719MOL0     C96975   5.212   4.864   0.522  0.0006 -0.1490  0.2146
  719MOL0     C96976   5.307   4.759   0.518  0.2635 -0.2042 -0.5044
  719MOL0     O96977   5.558   4.713   0.807  0.7472 -0.0505  0.4542
  719MOL0     C96978   5.740   4.518   0.847  0.5574  0.5468 -0.3666
  719MOL0     C96979   5.834   4.426   0.874  0.0270 -0.0960 -1.3099
  719MOL0     N96980   6.385   3.796   0.622 -0.4508 -1.5508  0.5955
  719MOL0     N96981   6.342   3.682   0.653 -0.6647  0.4895  0.2220
  719MOL0     C96982   5.538   2.853   0.909 -0.0639  1.0939  1.0298
  719MOL0     C96983   5.563   2.718   0.935  0.1386 -0.5183  0.1317
  719MOL0     C96984   5.684   2.295   0.977  0.6393  0.3809 -0.2429
  719MOL0     C96985   5.680   2.221   0.863  0.0162  1.1074  0.1010
  719MOL0     C96986   5.673   2.079   0.876 -0.3185  1.5645 -0.7905
  719MOL0     C96987   5.651   2.013   0.995 -1.2934  0.0359 -0.1608
  719MOL0     O96988   5.634   1.879   0.984  0.0086  0.2361  0.1051
  719MOL0     C96989   5.607   1.805   1.106 -0.4573 -0.2019  0.5461
  719MOL0     C96990   5.460   1.830   1.133  0.9669  0.6455  0.4466
  719MOL0     C96991   5.403   1.754   1.249  0.0747  0.0082 -0.4860
  719MOL0     C96992   5.253   1.774   1.281 -0.1168  0.5400  0.9379
  719MOL0     C96993   5.163   1.764   1.163 -1.2286 -0.4147  0.1970
  719MOL0     C96994   5.092   1.736   1.068 -1.1002  0.6952 -0.3501
  719MOL0     C96995   5.688   2.086   1.108  0.3771  0.9013  0.9154
  719MOL0     C96996   5.696   2.229   1.104  0.3417  0.1021  0.2422
  719MOL0     C96997   5.689   2.301   1.238  0.4463  0.1449 -0.1310
  719MOL0     H96998   5.602   2.609   0.614  4.1262  0.8736 -0.1245
  719MOL0     H96999   5.564   2.848   0.569 -3.2890  2.3319  0.6655
  719MOL0     H97000   5.388   3.079   0.881 -0.1424  1.4991  1.0730
  719MOL0     H97001   5.550   3.143   0.911 -2.3197  2.3136  1.3354
  719MOL0     H97002   5.420   3.329   0.842  1.0751  0.0557  0.7065
  719MOL0     H97003   5.363   3.263   0.689 -0.2299  3.9027 -0.0738
  719MOL0     H97004   5.526   3.408   0.610  2.0726  1.0341  1.3111
  719MOL0     H97005   5.583   3.251   0.579 -1.4094  2.2167 -0.7788
  719MOL0     H97006   5.654   3.447   0.799  0.7512  2.1342 -2.0567
  719MOL0     H97007   5.743   3.286   0.787  0.7523  1.0872  0.6840
  719MOL0     H97008   5.808   3.363   0.550 -0.0974 -0.6423  0.1671
  719MOL0     H97009   5.754   3.516   0.608  3.4427  1.2064 -0.5666
  719MOL0     H97010   5.896   3.485   0.825  1.4350 -0.0586 -0.4562
  719MOL0     H97011   5.970   3.348   0.742  2.2812  0.6085 -0.4548
  719MOL0     H97012   5.982   3.636   0.637  0.7275  0.7603  0.8728
  719MOL0     H97013   6.079   3.506   0.579 -3.6011 -3.1029 -0.0546
  719MOL0     H97014   6.108   3.589   0.879 -3.4922  0.4917 -2.0934
  719MOL0     H97015   6.222   3.493   0.770  1.6780  0.3565 -1.1917
  719MOL0     H97016   6.116   3.872   0.789  2.1625  3.0882  1.5854
  719MOL0     H97017   6.379   4.096   0.685  2.7627  0.0398 -4.4401
  719MOL0     H97018   6.316   4.039   0.531 -5.2106 -0.1860 -1.2990
  719MOL0     H97019   6.198   4.229   0.619 -1.9322  1.7706  2.6091
  719MOL0     H97020   6.093   4.072   0.622  0.8631  0.4425 -1.5532
  719MOL0     H97021   6.259   4.196   0.851 -0.5540  0.3940  2.3513
  719MOL0     H97022   6.143   4.064   0.865 -0.2580  0.2767 -1.5424
  719MOL0     H97023   6.097   4.358   0.785 -2.0326  0.2707 -1.8446
  719MOL0     H97024   6.072   4.271   0.944  1.8060 -2.5079 -0.6672
  719MOL0     H97025   5.761   4.211   0.632  0.8416 -0.9179 -0.0080
  719MOL0     H97026   5.566   4.361   0.592 -1.0548  2.2057  0.3907
  719MOL0     H97027   5.263   4.666   0.846  2.8572 -0.0993 -0.5557
  719MOL0     H97028   5.102   4.851   0.838  2.9985 -1.2319  2.7194
  719MOL0     H97029   4.934   5.024   0.789 -0.4238  1.4582  0.1334
  719MOL0     H97030   5.096   5.081   0.818  2.1935  0.1622 -0.7655
  719MOL0     H97031   4.856   5.198   0.703  0.3753 -1.0580 -2.4967
  719MOL0     H97032   4.976   5.279   0.810 -0.7612 -1.0241  0.7045
  719MOL0     H97033   5.135   5.238   0.598  1.7583  3.3866  1.5162
  719MOL0     H97034   4.980   5.247   0.511 -3.1011 -0.0164  2.2718
  719MOL0     H97035   5.152   5.450   0.675 -0.2572 -0.0827  2.1255
  719MOL0     H97036   4.974   5.481   0.670 -0.5996 -1.9460 -0.0934
  719MOL0     H97037   4.983   5.478   0.427 -0.5838 -1.7441 -0.1296
  719MOL0     H97038   5.147   5.409   0.433 -0.9662 -0.1787  0.2256
  719MOL0     H97039   5.077   5.687   0.513  1.2792  1.6448  0.4950
  719MOL0     H97040   5.246   5.612   0.533  0.7753 -1.1784 -0.9728
  719MOL0     H97041   5.112   5.685   0.274  0.9371 -0.2089 -1.2564
  719MOL0     H97042   5.260   5.593   0.289 -1.8134 -0.4743 -3.1518
  719MOL0     H97043   5.364   5.774   0.400 -0.6175  0.0178  1.5637
  719MOL0     H97044   5.310   5.845   0.256  0.5450 -3.0608 -0.3045
  719MOL0     H97045   5.207   4.918   0.428  1.7053 -0.8617 -0.3290
  719MOL0     H97046   5.364   4.738   0.428  0.1511  0.7476 -0.8166
  719MOL0     H97047   5.752   4.607   0.908 -1.1849 -0.2969  1.3184
  719MOL0     H97048   5.913   4.457   0.943  0.0691  2.3741 -2.3552
  719MOL0     H97049   5.525   2.925   0.989 -3.2980  2.3365 -0.4760
  719MOL0     H97050   5.550   2.682   1.037 -0.5842  0.6908  0.4837
  719MOL0     H97051   5.677   2.272   0.767 -0.1441  2.2661  0.7041
  719MOL0     H97052   5.657   2.018   0.788 -0.5245 -0.4946  0.5801
  719MOL0     H97053   5.676   1.819   1.190  2.7682 -1.4198 -1.7016
  719MOL0     H97054   5.620   1.701   1.075  1.4558 -0.4321  1.9362
  719MOL0     H97055   5.414   1.812   1.036  1.4932  0.1147  0.2927
  719MOL0     H97056   5.447   1.936   1.158  0.8045  0.5922  0.5847
  719MOL0     H97057   5.456   1.777   1.342 -0.0639 -0.3920 -0.3069
  719MOL0     H97058   5.405   1.647   1.231  0.3987 -0.3432  1.4258
  719MOL0     H97059   5.221   1.705   1.359 -3.5734 -1.6535 -2.1010
  719MOL0     H97060   5.243   1.873   1.328 -3.6949  2.0063 -2.3176
  719MOL0     H97061   5.036   1.725   0.977 -2.4928  1.2602  0.4048
  719MOL0     H97062   5.713   2.050   1.207  0.4816  1.8623  1.2524
  719MOL0     H97063   5.764   2.379   1.223  0.7876 -0.2352 -0.3987
  719MOL0     H97064   5.592   2.351   1.249  0.5663  0.3664 -0.0778
  719MOL0     H97065   5.707   2.246   1.330  0.2884  0.5930  0.1685
  720MOL0     O97066   3.437   2.396   5.635  0.6030 -0.3686  0.6869
  720MOL0     C97067   3.429   2.517   5.645  0.3357  0.0368  0.1688
  720MOL0     O97068   3.360   2.574   5.748 -0.6012 -0.0869 -0.5205
  720MOL0     C97069   3.306   2.492   5.841 -0.1250 -0.2994  0.3440
  720MOL0     C97070   3.170   2.523   5.876 -0.5619 -0.4718  0.2054
  720MOL0     C97071   3.112   2.484   5.987 -0.8178 -0.1971 -0.2526
  720MOL0     C97072   3.181   2.399   6.066 -0.7171 -0.7373 -0.9146
  720MOL0     O97073   3.136   2.333   6.177  0.1298  0.2542  0.4670
  720MOL0     C97074   3.071   2.416   6.264  0.2730  0.4300 -0.9439
  720MOL0     C97075   3.142   2.412   6.397 -0.3113 -0.9368 -1.0991
  720MOL0     C97076   3.058   2.491   6.508 -0.3468  0.2572  0.9392
  720MOL0     C97077   3.137   2.518   6.633  0.9975  0.3041  0.6458
  720MOL0     C97078   3.067   2.609   6.736  1.1777  0.2531 -0.3852
  720MOL0     C97079   3.165   2.615   6.857 -0.5477 -1.5282  0.6759
  720MOL0     C97080   3.113   2.722   6.964 -0.2862  0.9976  0.7576
  720MOL0     C97081   3.227   2.735   7.068  0.7327 -0.0666 -0.2957
  720MOL0     N97082   3.236   2.613   7.155 -0.1329  0.2093  0.2573
  720MOL0     C97083   3.341   2.528   7.132 -0.1104  0.0112  0.5518
  720MOL0     C97084   3.313   2.422   7.203  0.4612  0.3607  0.9256
  720MOL0     C97085   3.392   2.292   7.206 -0.3001 -0.2653  0.4784
  720MOL0     C97086   3.366   2.204   7.337 -0.6932 -0.6264  0.4025
  720MOL0     C97087   3.473   2.236   7.446 -0.2674  0.7454  0.7669
  720MOL0     C97088   3.438   2.169   7.581 -0.1279 -0.2555 -0.0033
  720MOL0     O97089   3.495   2.038   7.572  0.0878  0.6187  0.2199
  720MOL0     C97090   3.624   2.011   7.605  1.2714 -0.2412 -0.1864
  720MOL0     C97091   3.658   1.873   7.632 -0.5856 -0.1078 -0.0363
  720MOL0     C97092   3.783   1.850   7.684  0.4127 -0.2996  0.0879
  720MOL0     C97093   3.870   1.950   7.722  0.2845 -1.9250 -0.5285
  720MOL0     C97094   3.974   1.931   7.822 -0.4574  1.0642 -0.1920
  720MOL0     O97095   4.011   2.033   7.901 -0.2136  0.7827  0.5502
  720MOL0     C97096   4.117   2.000   7.985  0.8221 -0.6027  0.2466
  720MOL0     C97097   4.252   1.985   7.941  0.1360 -0.5322 -0.8773
  720MOL0     C97098   4.351   1.958   8.035 -0.7036 -0.4262  0.8341
  720MOL0     C97099   4.318   1.958   8.166 -0.5536 -0.1185  0.1379
  720MOL0     O97100   4.423   1.930   8.252 -0.3431 -0.9703 -1.1530
  720MOL0     C97101   4.426   1.962   8.391 -0.3333  0.0309 -0.1716
  720MOL0     C97102   4.553   1.921   8.472 -0.2860  0.1709  0.0755
  720MOL0     C97103   4.532   1.896   8.617  0.5877  0.5190 -0.3707
  720MOL0     C97104   4.477   2.025   8.676 -0.7330  0.2279 -1.3432
  720MOL0     C97105   4.448   2.019   8.829 -0.0638 -0.0625 -0.1501
  720MOL0     C97106   4.438   2.147   8.913  0.2742 -0.5398 -0.4313
  720MOL0     C97107   4.365   2.109   9.044 -0.3302  0.8293 -0.3915
  720MOL0     C97108   4.389   2.215   9.161  0.3294 -0.8407  0.2988
  720MOL0    Cl97109   4.340   2.375   9.130  0.4928  0.2007  0.0638
  720MOL0     C97110   4.187   1.984   8.210 -1.0813  0.2557  0.3493
  720MOL0     C97111   4.085   1.993   8.120 -0.1741 -0.5020  0.0217
  720MOL0     O97112   4.030   1.822   7.822  0.1731  0.0926  0.0028
  720MOL0     C97113   3.843   2.081   7.687 -0.2822 -0.4140 -0.2492
  720MOL0     C97114   3.717   2.106   7.627 -0.3037  0.7871 -0.3574
  720MOL0     N97115   3.188   2.439   7.274  0.4546  0.2778 -0.2125
  720MOL0     N97116   3.147   2.561   7.238 -0.2640 -0.4008  0.0149
  720MOL0     C97117   3.309   2.357   6.032  0.3678  0.5726  0.2840
  720MOL0     C97118   3.374   2.407   5.919 -0.1292  0.5459  0.3653
  720MOL0     C97119   3.496   2.602   5.550  0.2994 -0.9689  0.9367
  720MOL0     C97120   3.453   2.739   5.551  0.2476 -0.6684  1.2806
  720MOL0     C97121   3.494   2.832   5.455 -0.7349 -0.5419  0.0912
  720MOL0     C97122   3.582   2.790   5.354  0.5005 -0.0154  0.4341
  720MOL0     O97123   3.639   2.883   5.266  0.1091 -0.4532 -0.0456
  720MOL0     C97124   3.728   2.849   5.157  0.1162 -0.9317  0.2709
  720MOL0     C97125   3.789   2.978   5.107  0.3857 -0.8984  1.0156
  720MOL0     C97126   3.662   3.070   5.068 -0.7869  1.1243  0.3497
  720MOL0     C97127   3.697   3.190   4.975  0.2244  0.4133  0.1864
  720MOL0     C97128   3.646   3.149   4.839 -0.7082  0.6293 -0.0317
  720MOL0     C97129   3.618   3.103   4.732  0.0234  0.1762  0.4858
  720MOL0     C97130   3.619   2.658   5.346  0.7628 -0.2508 -0.7704
  720MOL0     C97131   3.576   2.559   5.441 -0.4645  0.0463  0.6773
  720MOL0     C97132   3.628   2.418   5.416  0.1946  0.2661  0.2177
  720MOL0     H97133   3.115   2.592   5.813 -0.9322 -1.4092 -0.5256
  720MOL0     H97134   3.007   2.506   6.005 -0.7927 -0.2929  0.0149
  720MOL0     H97135   3.042   2.516   6.233  1.7331  1.1673 -0.0553
  720MOL0     H97136   2.983   2.355   6.288  1.9992 -2.7799 -2.1258
  720MOL0     H97137   3.241   2.458   6.393 -0.8699  0.6989  1.5526
  720MOL0     H97138   3.158   2.306   6.422 -2.7047 -0.9915  0.5445
  720MOL0     H97139   2.957   2.449   6.521 -1.8352  2.9521 -0.9856
  720MOL0     H97140   3.038   2.592   6.472  0.6879  0.5729  1.2341
  720MOL0     H97141   3.162   2.421   6.677 -2.4472 -0.8089  0.3875
  720MOL0     H97142   3.236   2.560   6.610  1.9747 -2.2449 -0.1962
  720MOL0     H97143   3.043   2.710   6.702  1.9692  0.8224  0.6937
  720MOL0     H97144   2.968   2.573   6.768 -1.0516  3.3417 -3.0677
  720MOL0     H97145   3.183   2.512   6.890  1.5704 -1.2609  0.5206
  720MOL0     H97146   3.262   2.644   6.814 -1.0265 -3.1429 -1.7346
  720MOL0     H97147   3.020   2.698   7.016 -0.5302  2.6632  1.1299
  720MOL0     H97148   3.106   2.820   6.917  0.4930  0.3889 -0.6757
  720MOL0     H97149   3.327   2.763   7.035  0.3402  2.6536  0.6114
  720MOL0     H97150   3.194   2.821   7.127 -0.2949  1.9209 -3.5418
  720MOL0     H97151   3.424   2.553   7.068 -2.1308  1.1629 -1.7968
  720MOL0     H97152   3.367   2.227   7.122 -0.6018  1.6582 -0.9955
  720MOL0     H97153   3.496   2.322   7.187 -0.0173 -1.0572  0.7542
  720MOL0     H97154   3.272   2.233   7.384 -0.4260  3.0019 -0.9546
  720MOL0     H97155   3.374   2.096   7.317 -1.3836 -0.8197  1.1321
  720MOL0     H97156   3.488   2.343   7.465  2.5252  0.2827  1.6638
  720MOL0     H97157   3.571   2.211   7.404 -1.0385  3.5751 -3.3175
  720MOL0     H97158   3.330   2.156   7.588  0.0503 -1.4630  0.7970
  720MOL0     H97159   3.474   2.224   7.669  0.3186  1.6769 -1.3400
  720MOL0     H97160   3.594   1.789   7.605 -1.8929  0.2578  1.7426
  720MOL0     H97161   3.801   1.749   7.719 -0.3434 -0.5288 -0.1546
  720MOL0     H97162   4.283   1.972   7.837  1.3256 -0.3128 -0.5679
  720MOL0     H97163   4.458   1.957   8.017 -1.1311 -1.9941 -2.2360
  720MOL0     H97164   4.393   2.063   8.413 -3.0884 -0.4681 -1.5882
  720MOL0     H97165   4.356   1.888   8.431 -1.1494  0.2223 -1.1960
  720MOL0     H97166   4.596   1.837   8.418 -0.0831  1.3996 -1.7735
  720MOL0     H97167   4.626   2.002   8.462 -1.7661  1.3542 -1.7589
  720MOL0     H97168   4.457   1.819   8.641 -0.2456  1.2272 -0.6567
  720MOL0     H97169   4.623   1.862   8.667 -0.8304 -1.5522  0.9593
  720MOL0     H97170   4.378   2.052   8.638 -2.0571  2.2910  2.9216
  720MOL0     H97171   4.557   2.099   8.664  0.0511 -0.6932 -1.9222
  720MOL0     H97172   4.524   1.960   8.881  0.4558  0.4728 -0.2940
  720MOL0     H97173   4.355   1.962   8.836 -0.1016 -0.1829 -1.3949
  720MOL0     H97174   4.542   2.170   8.938  0.3636 -0.5758 -0.7646
  720MOL0     H97175   4.395   2.235   8.865  0.9379  0.0452  0.0232
  720MOL0     H97176   4.395   2.008   9.075 -1.4121 -0.1446 -2.3383
  720MOL0     H97177   4.263   2.107   9.004  0.1708  0.5952 -1.7237
  720MOL0     H97178   4.336   2.184   9.251  0.6746 -1.1597  0.3947
  720MOL0     H97179   4.493   2.232   9.189 -0.4602  2.8039  1.5225
  720MOL0     H97180   4.165   1.978   8.316 -0.2904 -3.2185  0.4262
  720MOL0     H97181   3.985   2.020   8.153 -0.7221 -1.0287 -1.1330
  720MOL0     H97182   3.911   2.158   7.722  2.8090 -3.5416  1.3877
  720MOL0     H97183   3.692   2.211   7.623  0.9276  1.5771  5.0530
  720MOL0     H97184   3.364   2.291   6.097 -0.2417 -0.1108  0.1169
  720MOL0     H97185   3.479   2.384   5.904  0.6917  2.5212  2.4643
  720MOL0     H97186   3.383   2.790   5.617  0.2603 -1.0880  1.6183
  720MOL0     H97187   3.458   2.935   5.457  0.9833  0.0779  0.7075
  720MOL0     H97188   3.688   2.797   5.069 -0.2951 -2.3156  1.2339
  720MOL0     H97189   3.805   2.782   5.196  0.1135 -1.7201 -0.9901
  720MOL0     H97190   3.861   2.974   5.025 -0.5277  2.5394 -0.1449
  720MOL0     H97191   3.843   3.025   5.190  2.6814  0.4055 -1.0598
  720MOL0     H97192   3.617   3.114   5.157  0.2647  2.4901  0.2476
  720MOL0     H97193   3.586   3.008   5.020 -0.1147 -0.7590  1.6106
  720MOL0     H97194   3.653   3.283   5.012  0.2263  0.6974 -0.5034
  720MOL0     H97195   3.806   3.196   4.979  0.2983  0.3615 -1.1312
  720MOL0     H97196   3.585   3.059   4.641 -7.5618  3.4767  0.9232
  720MOL0     H97197   3.685   2.629   5.265 -1.3883  1.2083 -3.1807
  720MOL0     H97198   3.651   2.372   5.512 -0.6882  2.5995  1.6217
  720MOL0     H97199   3.542   2.356   5.391 -0.6244  1.8601 -1.1010
  720MOL0     H97200   3.714   2.412   5.348 -1.0984  1.0649 -1.6002
  721MOL0     O97201   4.559   1.970   7.251 -0.2234  0.3648  0.4127
  721MOL0     C97202   4.650   1.990   7.333  0.4625 -0.6799  0.2348
  721MOL0     O97203   4.634   2.082   7.432  0.0510  0.7577 -0.5367
  721MOL0     C97204   4.528   2.172   7.439  0.2011  0.2817  0.2957
  721MOL0     C97205   4.473   2.187   7.565  0.4419  0.4919 -0.6500
  721MOL0     C97206   4.363   2.270   7.585  0.2800 -0.1606  0.9645
  721MOL0     C97207   4.303   2.342   7.476 -0.6349  0.6312  0.0201
  721MOL0     O97208   4.190   2.422   7.473 -0.1982  0.8340  0.6617
  721MOL0     C97209   4.139   2.475   7.590 -0.5361 -0.0048 -0.9776
  721MOL0     C97210   4.030   2.558   7.526  0.4494 -1.0816  0.1344
  721MOL0     C97211   3.972   2.652   7.640  0.7155  1.7338 -0.6231
  721MOL0     C97212   3.898   2.776   7.589 -0.4896  0.3658 -0.1229
  721MOL0     C97213   3.828   2.851   7.709  1.1899  0.7828  0.0618
  721MOL0     C97214   3.807   2.993   7.676  0.4226  0.3083  0.0559
  721MOL0     C97215   3.734   3.063   7.796  0.4206 -1.1649  0.0864
  721MOL0     C97216   3.731   3.215   7.756  0.0543  0.3863 -0.1598
  721MOL0     N97217   3.636   3.276   7.853 -0.7352  1.1596  1.0068
  721MOL0     C97218   3.518   3.334   7.819 -0.1835  0.7318  0.1128
  721MOL0     C97219   3.477   3.383   7.937 -0.1545 -0.8958  0.0679
  721MOL0     C97220   3.344   3.460   7.948 -0.6193  0.2695  0.1616
  721MOL0     C97221   3.218   3.387   8.001 -0.0887  0.8419  0.2111
  721MOL0     C97222   3.192   3.276   7.911  0.2750  0.8023  0.5496
  721MOL0     C97223   3.105   3.324   7.797  1.0638  0.4972  0.7836
  721MOL0     O97224   3.035   3.204   7.768  0.2952 -0.1059 -0.1225
  721MOL0     C97225   2.907   3.191   7.707 -1.1080 -0.2793 -0.0563
  721MOL0     C97226   2.848   3.066   7.739 -0.3462  0.5504 -0.3382
  721MOL0     C97227   2.720   3.038   7.687  0.5541 -0.2651 -0.1420
  721MOL0     C97228   2.663   3.123   7.586  0.2058  0.4316 -0.8860
  721MOL0     C97229   2.543   3.076   7.514  0.2919 -1.1569 -0.5569
  721MOL0     O97230   2.468   3.173   7.455  0.3452  0.5217 -0.1571
  721MOL0     C97231   2.348   3.139   7.395 -0.4672  1.0030  0.1976
  721MOL0     C97232   2.227   3.158   7.458  0.0853 -0.1654 -0.4295
  721MOL0     C97233   2.110   3.114   7.406  0.7981 -0.4883 -0.0736
  721MOL0     C97234   2.110   3.059   7.277  0.1085 -0.0241  0.2478
  721MOL0     O97235   1.999   3.007   7.219  0.2431 -0.2345 -0.6681
  721MOL0     C97236   1.876   3.080   7.228  0.6376  0.0200 -0.3476
  721MOL0     C97237   1.811   3.074   7.083 -1.0331 -0.0313  0.5169
  721MOL0     C97238   1.665   3.127   7.083  0.3988 -0.6038  0.2649
  721MOL0     C97239   1.559   3.031   7.129 -0.1110 -0.4213  0.2753
  721MOL0     C97240   1.419   3.082   7.090 -0.0874  0.0964 -0.2297
  721MOL0     C97241   1.309   2.976   7.136 -0.3714  0.4598 -0.3559
  721MOL0     C97242   1.317   2.849   7.053 -0.0871  0.3321  0.1653
  721MOL0     C97243   1.199   2.759   7.101  0.5019 -0.2359  0.1649
  721MOL0    Cl97244   1.219   2.710   7.276  0.0892 -0.0494 -0.0002
  721MOL0     C97245   2.228   3.035   7.210  0.4491 -0.8260  0.1280
  721MOL0     C97246   2.342   3.085   7.262 -0.3115 -0.3336 -0.2050
  721MOL0     O97247   2.523   2.960   7.510  0.0439 -0.5200  0.0048
  721MOL0     C97248   2.720   3.248   7.566 -0.3708 -0.3336  0.2114
  721MOL0     C97249   2.838   3.289   7.623 -0.4078 -0.0338  0.2610
  721MOL0     N97250   3.557   3.348   8.039  0.0443 -0.2988  0.1662
  721MOL0     N97251   3.655   3.287   7.992 -0.6390 -0.1646 -0.0950
  721MOL0     C97252   4.364   2.329   7.353 -0.3329  0.8089  0.9111
  721MOL0     C97253   4.474   2.247   7.330 -0.3051 -0.0419  0.3815
  721MOL0     C97254   4.766   1.903   7.330 -0.6983 -0.3190 -0.6059
  721MOL0     C97255   4.831   1.869   7.211 -0.1284 -0.0845 -0.7920
  721MOL0     C97256   4.950   1.795   7.213  0.6995 -0.2688  0.7981
  721MOL0     C97257   5.002   1.743   7.330  0.4350 -1.0657  0.1779
  721MOL0     O97258   5.108   1.654   7.312  0.2755 -0.3421 -0.0564
  721MOL0     C97259   5.202   1.643   7.419 -0.0142  0.4837  0.6084
  721MOL0     C97260   5.287   1.515   7.396 -0.1208  0.5994 -0.0366
  721MOL0     C97261   5.412   1.506   7.489 -0.1717 -0.4606  0.5184
  721MOL0     C97262   5.544   1.556   7.423 -0.2068  0.0188 -0.2228
  721MOL0     C97263   5.651   1.522   7.505 -0.2441  0.3834 -0.2254
  721MOL0     C97264   5.740   1.483   7.576  0.2119  0.0587 -0.5976
  721MOL0     C97265   4.929   1.769   7.445 -0.2351  0.7434  0.2724
  721MOL0     C97266   4.816   1.854   7.451  1.0424 -0.3060 -0.0123
  721MOL0     C97267   4.749   1.870   7.588  0.4003  0.1681  0.4605
  721MOL0     H97268   4.524   2.134   7.646  2.5770  1.5693 -1.2228
  721MOL0     H97269   4.311   2.274   7.681  0.2501  2.6489  0.9219
  721MOL0     H97270   4.102   2.399   7.659 -1.8098  1.6030  0.1819
  721MOL0     H97271   4.211   2.531   7.651 -0.3339 -0.9612 -0.3203
  721MOL0     H97272   3.951   2.502   7.477  1.0858  0.5614 -3.0341
  721MOL0     H97273   4.080   2.619   7.450  2.1481 -1.9162  0.5277
  721MOL0     H97274   4.055   2.664   7.710  1.1751 -1.6039 -0.4118
  721MOL0     H97275   3.900   2.596   7.700  1.4172  2.0169  0.5192
  721MOL0     H97276   3.984   2.839   7.566  0.6690 -0.9932  0.3560
  721MOL0     H97277   3.845   2.753   7.496  0.0643 -1.6882  0.0261
  721MOL0     H97278   3.731   2.809   7.735  1.8955  0.4196  2.3077
  721MOL0     H97279   3.884   2.847   7.802  1.1457 -2.9324  0.0791
  721MOL0     H97280   3.902   3.043   7.656 -0.7096  2.8215  0.5742
  721MOL0     H97281   3.748   3.006   7.585 -1.6207 -0.0947  1.2348
  721MOL0     H97282   3.796   3.037   7.881 -0.5234 -2.1889  0.4768
  721MOL0     H97283   3.632   3.033   7.820 -1.1564  2.2164 -1.6493
  721MOL0     H97284   3.829   3.264   7.764 -0.6691  1.7957  0.4237
  721MOL0     H97285   3.686   3.219   7.656  0.7897  0.7521 -0.4847
  721MOL0     H97286   3.468   3.337   7.723 -0.7859  4.1256  0.3941
  721MOL0     H97287   3.366   3.540   8.019 -1.1328 -1.3517  2.2629
  721MOL0     H97288   3.316   3.494   7.849 -1.4992 -0.3623  0.1797
  721MOL0     H97289   3.226   3.342   8.100 -1.1920  0.2294  0.0306
  721MOL0     H97290   3.130   3.449   8.021 -1.7484 -0.9758 -1.1515
  721MOL0     H97291   3.133   3.206   7.971 -4.4510  2.1724 -2.0002
  721MOL0     H97292   3.279   3.231   7.862 -0.6910 -0.2038 -0.3073
  721MOL0     H97293   3.174   3.360   7.720 -1.2983  0.5899 -1.4201
  721MOL0     H97294   3.037   3.407   7.821  0.7864  0.9939 -1.4611
  721MOL0     H97295   2.895   2.996   7.807 -2.4483 -0.0737  0.5431
  721MOL0     H97296   2.663   2.954   7.725  0.5765  0.8853  2.7107
  721MOL0     H97297   2.223   3.198   7.559  1.9519 -1.6886  0.3143
  721MOL0     H97298   2.020   3.133   7.463  1.4981 -0.0367  0.9122
  721MOL0     H97299   1.823   3.032   7.310  0.6167  0.1594 -0.2781
  721MOL0     H97300   1.887   3.185   7.257  1.6362  0.2423 -1.4316
  721MOL0     H97301   1.863   3.134   7.006 -1.2396 -1.0973 -0.4784
  721MOL0     H97302   1.816   2.977   7.034  4.0688 -0.3699  1.1382
  721MOL0     H97303   1.661   3.224   7.133 -1.2887 -0.1165 -0.7443
  721MOL0     H97304   1.628   3.150   6.983 -4.6556 -1.7687  1.6040
  721MOL0     H97305   1.579   3.016   7.235 -0.3503 -0.5031  0.3094
  721MOL0     H97306   1.579   2.942   7.070 -5.0479 -0.1942 -2.2532
  721MOL0     H97307   1.412   3.094   6.982 -0.7884 -0.5996 -0.2781
  721MOL0     H97308   1.396   3.182   7.128  1.7548 -0.9873  4.4981
  721MOL0     H97309   1.322   2.967   7.245  1.8774 -1.4965 -0.7036
  721MOL0     H97310   1.212   3.022   7.116 -0.0732  2.8040  2.7404
  721MOL0     H97311   1.414   2.799   7.059  0.3238  0.8484 -1.5898
  721MOL0     H97312   1.303   2.878   6.949  0.1824 -0.6602 -0.1657
  721MOL0     H97313   1.115   2.827   7.086  2.3017  2.3348  1.1881
  721MOL0     H97314   1.190   2.666   7.043  0.0879 -0.5173  0.6714
  721MOL0     H97315   2.239   2.984   7.114  0.6523 -4.4595  1.8870
  721MOL0     H97316   2.439   3.078   7.214  0.2357 -1.2843  0.9781
  721MOL0     H97317   2.678   3.314   7.491 -1.3822 -1.6454 -0.4408
  721MOL0     H97318   2.869   3.388   7.592 -1.3234  0.5539  1.1294
  721MOL0     H97319   4.337   2.382   7.262  1.7957  0.0364 -0.2572
  721MOL0     H97320   4.523   2.239   7.233  1.0020  1.7323  0.8498
  721MOL0     H97321   4.791   1.899   7.114 -2.1127  0.1001  0.0503
  721MOL0     H97322   5.009   1.761   7.129  1.8980  0.2549  1.4000
  721MOL0     H97323   5.151   1.644   7.516  4.2553  3.8561  3.2026
  721MOL0     H97324   5.254   1.739   7.426  0.8339  0.0141  0.9144
  721MOL0     H97325   5.319   1.514   7.291  1.6658  1.2929  0.4497
  721MOL0     H97326   5.222   1.429   7.415 -2.7831  1.7850 -2.9485
  721MOL0     H97327   5.429   1.399   7.503  2.0095 -0.0930  0.9564
  721MOL0     H97328   5.400   1.560   7.583  1.6970  2.5253 -0.8174
  721MOL0     H97329   5.557   1.517   7.322 -1.0158 -0.4542 -0.1537
  721MOL0     H97330   5.538   1.665   7.410 -0.3413  0.0600  0.1658
  721MOL0     H97331   5.836   1.460   7.617 -0.4904  2.0994  2.4567
  721MOL0     H97332   4.958   1.716   7.536  1.3487  0.5957 -0.2798
  721MOL0     H97333   4.650   1.826   7.585  1.3815 -2.1068 -1.0426
  721MOL0     H97334   4.802   1.819   7.669 -2.6646 -3.1431  0.5921
  721MOL0     H97335   4.749   1.977   7.613  0.9107  0.2684  0.0658
  722MOL0     O97336  11.443   1.945   6.796  0.2103 -0.1356 -0.1259
  722MOL0     C97337  11.348   1.987   6.864  0.3265 -0.3726 -0.4023
  722MOL0     O97338  11.224   2.040   6.816  0.0686 -0.0942  1.2783
  722MOL0     C97339  11.221   2.103   6.694 -0.1989 -0.5480  0.8344
  722MOL0     C97340  11.178   2.030   6.579  0.4748  1.0370  0.7452
  722MOL0     C97341  11.146   2.098   6.457  1.3397  0.3296  0.0734
  722MOL0     C97342  11.152   2.242   6.457  0.0792 -0.0329  0.3705
  722MOL0     O97343  11.124   2.311   6.346  0.0426 -0.0654  0.2743
  722MOL0     C97344  11.140   2.260   6.211 -0.2604  0.2151  0.6749
  722MOL0     C97345  11.148   2.390   6.128 -0.8741 -1.2639 -0.5656
  722MOL0     C97346  11.279   2.458   6.170  0.3912 -0.1224  0.2382
  722MOL0     C97347  11.287   2.604   6.110  0.9994  0.1562 -0.4413
  722MOL0     C97348  11.419   2.683   6.133 -0.6587  0.8445  0.4545
  722MOL0     C97349  11.409   2.819   6.067  0.9374  0.0689 -0.3602
  722MOL0     C97350  11.545   2.875   6.046 -0.1850  0.1363  0.0131
  722MOL0     C97351  11.579   2.973   6.157  0.4516 -0.7157 -0.2748
  722MOL0     N97352  11.560   2.924   6.297  0.3820  0.2690 -0.6143
  722MOL0     C97353  11.633   2.821   6.347 -0.1227  0.5993  0.4103
  722MOL0     C97354  11.608   2.819   6.477 -0.1369 -0.3352 -0.3301
  722MOL0     C97355  11.678   2.731   6.587  0.4878  0.5274 -0.3823
  722MOL0     C97356  11.599   2.599   6.625  0.0567 -0.0525  0.3987
  722MOL0     C97357  11.575   2.513   6.496 -0.4213  0.1642 -1.3756
  722MOL0     C97358  11.565   2.370   6.538 -0.0228 -0.1783 -0.0809
  722MOL0     O97359  11.679   2.302   6.480 -0.0052 -0.9178  0.0371
  722MOL0     C97360  11.671   2.169   6.468  0.2723  0.4669  0.0648
  722MOL0     C97361  11.755   2.105   6.377  0.0065  0.3400  0.6432
  722MOL0     C97362  11.784   1.972   6.364  0.1613 -0.6242  0.6208
  722MOL0     C97363  11.703   1.886   6.434  0.8002 -1.0789  0.0802
  722MOL0     C97364  11.718   1.747   6.414 -0.4248  0.0639  0.4072
  722MOL0     O97365  11.836   1.706   6.355  0.3247  0.2079 -0.0071
  722MOL0     C97366  11.832   1.586   6.288 -0.0106  0.5377 -0.9658
  722MOL0     C97367  11.734   1.560   6.187  1.0448 -0.7709 -0.5613
  722MOL0     C97368  11.738   1.429   6.128  0.7139 -0.8328  0.7863
  722MOL0     C97369  11.841   1.348   6.152  0.6554 -0.5979  0.3733
  722MOL0     O97370  11.860   1.223   6.102  0.4829  0.8678  0.3937
  722MOL0     C97371  11.747   1.141   6.068 -0.2541  0.6825 -0.9312
  722MOL0     C97372  11.785   0.987   6.057  0.6176  0.6900 -0.6410
  722MOL0     C97373  11.882   0.968   5.936  0.4820  0.1329 -0.4818
  722MOL0     C97374  11.922   0.824   5.908  0.5736  0.1501 -0.2743
  722MOL0     C97375  11.995   0.799   5.775  0.1346  0.2057  0.1218
  722MOL0     C97376  12.030   0.652   5.768  0.6369 -0.9467  1.0054
  722MOL0     C97377  12.105   0.577   5.880 -0.3562  0.1507 -0.2966
  722MOL0     C97378  12.242   0.636   5.912 -0.8143 -0.3058 -0.3943
  722MOL0    Cl97379  12.355   0.616   5.767  0.2401 -0.3152 -0.5259
  722MOL0     C97380  11.950   1.377   6.233  0.5511  0.3560 -1.0877
  722MOL0     C97381  11.944   1.494   6.307 -0.5061 -0.5439 -0.6172
  722MOL0     O97382  11.630   1.664   6.445  0.0574  0.2338 -0.2048
  722MOL0     C97383  11.614   1.932   6.532  0.6806 -0.7004  0.6543
  722MOL0     C97384  11.598   2.074   6.546 -0.0420  0.6007  1.2105
  722MOL0     N97385  11.519   2.923   6.499 -0.5772  0.9319 -0.3405
  722MOL0     N97386  11.504   2.996   6.395 -0.0486  0.4241  0.3848
  722MOL0     C97387  11.205   2.303   6.570 -0.7483  0.9160 -0.4174
  722MOL0     C97388  11.226   2.240   6.690 -0.6763 -0.3669 -0.6598
  722MOL0     C97389  11.346   1.975   7.019 -0.3559 -0.3765 -0.5654
  722MOL0     C97390  11.261   2.055   7.088  0.0551  0.4868 -0.0652
  722MOL0     C97391  11.260   2.057   7.227 -0.5136 -0.0505  0.9513
  722MOL0     C97392  11.349   1.975   7.306  0.1632 -0.2735  0.4255
  722MOL0     O97393  11.344   1.964   7.442  0.3761  0.2306  0.3282
  722MOL0     C97394  11.245   2.031   7.521  0.6066 -0.4640  0.1087
  722MOL0     C97395  11.112   1.945   7.539 -0.6598  0.3260  0.2331
  722MOL0     C97396  11.120   1.848   7.662  0.0456 -0.2599 -0.5652
  722MOL0     C97397  11.146   1.912   7.795  0.2421  0.1458  0.4847
  722MOL0     C97398  11.115   1.823   7.905 -1.6337  0.1071  0.1971
  722MOL0     C97399  11.075   1.741   7.975  0.2830 -0.1033  0.3396
  722MOL0     C97400  11.429   1.888   7.236 -0.5473  0.2071  0.6168
  722MOL0     C97401  11.425   1.887   7.098  0.1435 -0.0346 -0.1355
  722MOL0     C97402  11.512   1.793   7.032 -0.6009 -0.1760 -0.4359
  722MOL0     H97403  11.147   1.926   6.578 -0.5676  1.3172 -1.2013
  722MOL0     H97404  11.097   2.060   6.367  1.5714 -0.8836  0.4519
  722MOL0     H97405  11.235   2.211   6.191  0.0956  0.3795  1.8941
  722MOL0     H97406  11.053   2.199   6.183 -1.6940  1.7239  1.6729
  722MOL0     H97407  11.064   2.457   6.148 -0.3594 -0.1474 -1.9634
  722MOL0     H97408  11.145   2.372   6.020 -4.1757  2.6208 -1.3599
  722MOL0     H97409  11.356   2.409   6.111 -2.0426 -3.4321 -0.4792
  722MOL0     H97410  11.297   2.457   6.278  0.8309  0.1381  0.1702
  722MOL0     H97411  11.271   2.593   6.002 -1.3038  2.0872 -0.3912
  722MOL0     H97412  11.198   2.652   6.150 -0.1520  0.0509 -2.7191
  722MOL0     H97413  11.441   2.686   6.240  0.1398 -0.0860  0.3318
  722MOL0     H97414  11.492   2.616   6.088 -0.8785 -1.0471  2.7144
  722MOL0     H97415  11.362   2.813   5.968 -1.5445  3.0659  0.4613
  722MOL0     H97416  11.343   2.884   6.124 -0.5229 -0.9477 -0.8167
  722MOL0     H97417  11.546   2.919   5.945  0.3945 -0.0308 -0.0601
  722MOL0     H97418  11.622   2.798   6.041  1.8057  1.9378  1.1976
  722MOL0     H97419  11.681   3.010   6.146  0.9337 -1.3441  1.6886
  722MOL0     H97420  11.514   3.060   6.148 -0.0808 -0.9035  1.3545
  722MOL0     H97421  11.690   2.749   6.290  1.5699  2.9763 -1.1188
  722MOL0     H97422  11.778   2.700   6.553  0.0820 -1.8918  0.4774
  722MOL0     H97423  11.678   2.789   6.680  1.1464  1.7425 -1.1078
  722MOL0     H97424  11.654   2.550   6.706  0.1452  1.0313  1.0047
  722MOL0     H97425  11.504   2.642   6.656  0.4355  3.0438 -2.2170
  722MOL0     H97426  11.651   2.532   6.420 -0.6785  0.6332 -1.5220
  722MOL0     H97427  11.479   2.535   6.448  0.7748  0.9016 -3.6152
  722MOL0     H97428  11.473   2.326   6.498  1.3478 -4.3193  0.8322
  722MOL0     H97429  11.560   2.367   6.647  1.6032  1.4506  0.0740
  722MOL0     H97430  11.813   2.171   6.314 -0.2528 -0.1512 -0.1189
  722MOL0     H97431  11.855   1.957   6.283  2.1013 -1.3577  2.3714
  722MOL0     H97432  11.657   1.628   6.152  1.6506 -2.0321 -4.9242
  722MOL0     H97433  11.676   1.409   6.041  5.1819  1.5464 -3.3871
  722MOL0     H97434  11.672   1.148   6.148 -2.4759  4.1587 -3.0231
  722MOL0     H97435  11.692   1.161   5.975  0.3835 -1.6245 -1.8826
  722MOL0     H97436  11.830   0.962   6.154 -2.0089 -2.6273 -0.0838
  722MOL0     H97437  11.696   0.925   6.044 -1.1892  2.8328  0.7646
  722MOL0     H97438  11.838   1.018   5.850  0.7557  1.8691  0.3369
  722MOL0     H97439  11.972   1.023   5.965 -1.3662  1.4117  3.6059
  722MOL0     H97440  11.841   0.750   5.913 -1.2361  2.1110  3.6671
  722MOL0     H97441  11.983   0.800   5.996 -2.2036  0.2198  1.8002
  722MOL0     H97442  12.084   0.863   5.775  0.2218  0.2384  3.2612
  722MOL0     H97443  11.929   0.817   5.689  0.9005  0.0482 -0.5136
  722MOL0     H97444  11.938   0.596   5.750  1.4218 -1.1196 -3.5909
  722MOL0     H97445  12.097   0.637   5.682 -0.6202 -2.8435  0.2982
  722MOL0     H97446  12.132   0.480   5.838 -0.3283 -0.7103  1.5928
  722MOL0     H97447  12.050   0.562   5.974 -0.1408  2.7942  0.3470
  722MOL0     H97448  12.227   0.741   5.941  1.2175 -0.4861  1.5750
  722MOL0     H97449  12.296   0.589   5.994 -0.7229 -1.6315 -1.1906
  722MOL0     H97450  12.029   1.303   6.237 -0.1216 -0.4431 -2.0968
  722MOL0     H97451  12.024   1.542   6.363 -1.8721  0.2215  0.7464
  722MOL0     H97452  11.561   1.850   6.581  0.4472 -0.2840  1.1000
  722MOL0     H97453  11.539   2.113   6.629  0.0142  2.5989  0.3792
  722MOL0     H97454  11.213   2.411   6.558 -0.5045  0.7016 -2.4354
  722MOL0     H97455  11.253   2.305   6.773 -1.0241 -0.5800 -0.3793
  722MOL0     H97456  11.202   2.123   7.027  1.6826  1.5502 -0.5272
  722MOL0     H97457  11.195   2.120   7.286  1.0617 -0.1409  2.9016
  722MOL0     H97458  11.211   2.116   7.462  0.8300 -1.5921 -1.7396
  722MOL0     H97459  11.284   2.068   7.617 -2.9708  2.8231  0.5377
  722MOL0     H97460  11.093   1.876   7.456  2.6046 -1.4065  0.7455
  722MOL0     H97461  11.028   2.014   7.548 -2.7481 -1.8843 -1.0333
  722MOL0     H97462  11.188   1.765   7.642 -0.5801 -0.6061 -1.3257
  722MOL0     H97463  11.020   1.805   7.672 -0.4004  0.3546 -2.1092
  722MOL0     H97464  11.247   1.952   7.803  0.3139 -0.2523  1.8105
  722MOL0     H97465  11.086   2.003   7.811  0.3304  0.2219  0.3800
  722MOL0     H97466  11.029   1.665   8.034 -0.9187  1.3256  1.3147
  722MOL0     H97467  11.495   1.832   7.302 -1.0016  0.3075  1.1661
  722MOL0     H97468  11.547   1.718   7.104  0.1263 -0.0129 -0.6129
  722MOL0     H97469  11.462   1.742   6.949 -0.5108 -1.6592  0.3877
  722MOL0     H97470  11.595   1.839   6.979 -1.2376  0.2127 -1.1233
  723MOL0     O97471   7.936  10.481   6.444  0.4651 -0.4641 -0.5259
  723MOL0     C97472   7.889  10.384   6.507  0.1184 -0.2577  0.1909
  723MOL0     O97473   7.779  10.389   6.590 -0.0328  0.3287 -0.6456
  723MOL0     C97474   7.669  10.460   6.539  0.4953  0.2418 -0.2958
  723MOL0     C97475   7.656  10.482   6.399  0.4072 -0.0326 -0.6618
  723MOL0     C97476   7.540  10.539   6.351 -0.3522 -0.7751 -0.0986
  723MOL0     C97477   7.438  10.590   6.425 -0.4492  0.3331  0.1682
  723MOL0     O97478   7.334  10.657   6.356 -0.7476  0.9855 -0.7355
  723MOL0     C97479   7.214  10.688   6.434 -0.4304  0.6136 -0.3462
  723MOL0     C97480   7.099  10.726   6.338 -0.7184 -0.1205  0.4245
  723MOL0     C97481   7.145  10.847   6.246 -0.2115  0.3430 -0.5678
  723MOL0     C97482   7.027  10.916   6.170  0.5849  0.0722 -0.5444
  723MOL0     C97483   7.075  11.031   6.069 -0.1218  0.4844  0.1129
  723MOL0     C97484   6.973  11.114   5.992 -0.2036  0.9090 -0.1690
  723MOL0     C97485   6.848  11.039   5.947  0.0283 -0.8086 -0.3216
  723MOL0     C97486   6.758  11.124   5.853  0.3396 -0.0494 -0.1571
  723MOL0     N97487   6.657  11.201   5.931 -0.2124  0.5612 -0.5919
  723MOL0     C97488   6.672  11.284   6.038  0.6185 -0.2419  0.2727
  723MOL0     C97489   6.547  11.327   6.072 -0.0588 -1.0245  0.2790
  723MOL0     C97490   6.512  11.412   6.194 -0.3484  0.1070  0.4847
  723MOL0     C97491   6.562  11.554   6.177  0.0122  0.2260 -0.3502
  723MOL0     C97492   6.564  11.621   6.316 -0.5850 -0.0106 -0.2129
  723MOL0     C97493   6.602  11.771   6.312  0.1097 -0.7424  0.2723
  723MOL0     O97494   6.739  11.785   6.287 -0.6108  1.6207  0.0766
  723MOL0     C97495   6.807  11.899   6.340 -0.0229  0.0547 -0.6490
  723MOL0     C97496   6.740  12.009   6.404 -0.1234  1.0116 -0.3816
  723MOL0     C97497   6.828  12.111   6.455 -0.2794 -0.6084  0.4230
  723MOL0     C97498   6.968  12.095   6.459  0.2862  0.0453 -0.1371
  723MOL0     C97499   7.050  12.195   6.524 -0.2914 -0.5315  0.7047
  723MOL0     O97500   6.994  12.262   6.631  0.1954  0.2600 -0.0372
  723MOL0     C97501   7.083  12.306   6.735  0.9920  0.3458 -0.8789
  723MOL0     C97502   7.202  12.372   6.716 -0.0312  0.1559  0.0735
  723MOL0     C97503   7.295  12.382   6.818 -0.4600  0.0722 -0.1794
  723MOL0     C97504   7.256  12.342   6.948  0.6348  0.3182  0.0988
  723MOL0     O97505   7.336  12.360   7.057  0.5551 -0.2131  0.1368
  723MOL0     C97506   7.482  12.376   7.041 -0.3620  0.3315  1.0469
  723MOL0     C97507   7.530  12.520   7.030  0.7061  0.2549 -0.7765
  723MOL0     C97508   7.678  12.522   7.004 -0.1772  0.9993  0.3764
  723MOL0     C97509   7.716  12.491   6.850 -0.3711 -0.3492 -0.1851
  723MOL0     C97510   7.843  12.560   6.812 -0.3567  0.1824 -0.6413
  723MOL0     C97511   7.962  12.471   6.871 -0.1998 -0.3840 -0.1874
  723MOL0     C97512   8.099  12.545   6.847 -0.6931 -0.6224  0.5004
  723MOL0     C97513   8.172  12.460   6.734  0.1786  0.0513 -0.4350
  723MOL0    Cl97514   8.324  12.538   6.691 -0.0702  0.1875  0.2333
  723MOL0     C97515   7.131  12.285   6.967  0.4009 -0.1129 -0.1691
  723MOL0     C97516   7.042  12.272   6.860  0.2869  0.0944  1.2033
  723MOL0     O97517   7.169  12.195   6.495  0.4956  0.0285 -0.0600
  723MOL0     C97518   7.029  11.977   6.405  0.7051 -0.7273 -0.5870
  723MOL0     C97519   6.947  11.885   6.341  0.6109 -0.9804  0.5977
  723MOL0     N97520   6.459  11.290   5.968 -0.8224  0.4984 -0.0243
  723MOL0     N97521   6.528  11.211   5.891  1.1353 -0.3568  1.0285
  723MOL0     C97522   7.450  10.559   6.565  1.3734 -0.6830  0.9525
  723MOL0     C97523   7.562  10.505   6.616 -0.0644 -0.1774  0.4429
  723MOL0     C97524   7.963  10.252   6.514  0.0870  0.2990  0.1318
  723MOL0     C97525   7.881  10.137   6.532  0.0455 -0.6932  0.3992
  723MOL0     C97526   7.946  10.017   6.523 -0.9296  0.0914  0.0252
  723MOL0     C97527   8.080  10.004   6.503 -0.0986  0.6157 -0.7030
  723MOL0     O97528   8.142   9.884   6.476 -0.3815  0.0792  0.8609
  723MOL0     C97529   8.084   9.750   6.510  1.0908  0.1295  0.0025
  723MOL0     C97530   8.158   9.653   6.410  0.9267  0.0658  0.1547
  723MOL0     C97531   8.134   9.677   6.259 -0.1721 -0.3841  0.2538
  723MOL0     C97532   7.985   9.662   6.205 -0.3114  1.2136 -1.0264
  723MOL0     C97533   7.935   9.537   6.268  0.6779  1.0538  0.0734
  723MOL0     C97534   7.907   9.430   6.319 -0.8230 -0.6291 -0.4688
  723MOL0     C97535   8.160  10.108   6.483 -0.5445 -0.0759 -0.1154
  723MOL0     C97536   8.107  10.239   6.492  0.7214 -0.2654 -0.5218
  723MOL0     C97537   8.201  10.354   6.493 -0.1039 -0.6147  0.3724
  723MOL0     H97538   7.731  10.455   6.325  3.6769 -1.6924  2.9169
  723MOL0     H97539   7.529  10.552   6.244 -0.2190  0.3859  0.0201
  723MOL0     H97540   7.189  10.594   6.484  1.2382 -0.6324 -1.7299
  723MOL0     H97541   7.229  10.777   6.496 -1.5246 -0.8237  2.0986
  723MOL0     H97542   7.004  10.762   6.378 -0.2539  0.0438  1.4171
  723MOL0     H97543   7.087  10.639   6.273 -2.1599 -0.1602  0.7180
  723MOL0     H97544   7.213  10.817   6.166  1.1434  0.2857  0.5523
  723MOL0     H97545   7.190  10.932   6.298  0.2020  0.7131 -1.5190
  723MOL0     H97546   6.979  10.838   6.110 -4.7078 -0.5323  3.7373
  723MOL0     H97547   6.944  10.951   6.231  2.0471  1.9051  0.5342
  723MOL0     H97548   7.144  11.098   6.121  1.4423 -1.3580  0.5502
  723MOL0     H97549   7.139  10.978   5.997  0.1933  1.4573 -0.3479
  723MOL0     H97550   6.947  11.204   6.049  0.8933 -0.5238  2.8262
  723MOL0     H97551   7.014  11.161   5.902 -0.2840  1.7149  0.2054
  723MOL0     H97552   6.804  11.016   6.045  0.4466 -3.8317 -0.7568
  723MOL0     H97553   6.883  10.943   5.909 -0.5784 -2.0358  2.0564
  723MOL0     H97554   6.819  11.192   5.792 -2.0179  0.7354 -1.7857
  723MOL0     H97555   6.701  11.064   5.782  3.3569 -1.7063 -1.3858
  723MOL0     H97556   6.764  11.301   6.094  0.9263 -2.0888  0.3908
  723MOL0     H97557   6.404  11.430   6.199 -0.5756 -0.7324 -0.8586
  723MOL0     H97558   6.558  11.372   6.285 -0.5914  0.1818  0.6400
  723MOL0     H97559   6.668  11.555   6.153 -0.6333 -0.1720 -3.7662
  723MOL0     H97560   6.516  11.600   6.089  2.6599  0.0654 -1.9219
  723MOL0     H97561   6.631  11.559   6.377 -1.2363 -2.4399 -1.7908
  723MOL0     H97562   6.459  11.625   6.346 -1.0187  0.6157 -1.7361
  723MOL0     H97563   6.564  11.813   6.406 -0.0209  1.9773 -0.8776
  723MOL0     H97564   6.557  11.839   6.238  2.1427 -2.0929 -2.3919
  723MOL0     H97565   6.634  12.017   6.423 -0.0566  0.2100  0.3600
  723MOL0     H97566   6.786  12.201   6.500  1.0774  0.7862 -0.9435
  723MOL0     H97567   7.227  12.395   6.612 -4.3347  2.7534 -0.6267
  723MOL0     H97568   7.396  12.413   6.795 -0.4952 -1.5775 -2.9905
  723MOL0     H97569   7.531  12.330   7.127 -0.0886 -1.9737 -0.2388
  723MOL0     H97570   7.511  12.322   6.950 -0.0665  0.2526  1.1878
  723MOL0     H97571   7.486  12.569   6.943  1.0935  1.8578 -0.1017
  723MOL0     H97572   7.500  12.577   7.118  1.4894 -1.8961  1.0109
  723MOL0     H97573   7.715  12.623   7.027  3.9714 -0.4007  0.7520
  723MOL0     H97574   7.740  12.460   7.070  0.3586  0.2817 -0.7699
  723MOL0     H97575   7.631  12.526   6.791 -0.1964  1.4045  0.5520
  723MOL0     H97576   7.719  12.383   6.831 -0.0981 -0.4845  0.6008
  723MOL0     H97577   7.852  12.663   6.847  1.3951 -0.2388  0.2196
  723MOL0     H97578   7.845  12.558   6.702 -0.9420 -2.8200 -0.6886
  723MOL0     H97579   7.948  12.449   6.977 -2.8746  0.3492 -0.3140
  723MOL0     H97580   7.957  12.373   6.822 -0.0613 -1.6925  2.2567
  723MOL0     H97581   8.153  12.538   6.942 -2.4290 -1.0900  1.4994
  723MOL0     H97582   8.080  12.652   6.829  1.8979 -0.0952  0.5016
  723MOL0     H97583   8.179  12.353   6.756 -0.4246 -0.1166 -1.0198
  723MOL0     H97584   8.114  12.448   6.642 -0.5514 -2.3269  0.2417
  723MOL0     H97585   7.110  12.267   7.072  2.8432 -1.1604  0.2257
  723MOL0     H97586   6.951  12.214   6.873 -1.4813  2.2599 -0.5508
  723MOL0     H97587   7.137  11.986   6.404  0.5773  3.7495  1.8074
  723MOL0     H97588   6.984  11.796   6.290  1.2839 -0.8049  0.7713
  723MOL0     H97589   7.376  10.590   6.639 -1.1555 -3.1628 -0.3495
  723MOL0     H97590   7.585  10.516   6.722 -0.1631  2.3661  0.2641
  723MOL0     H97591   7.778  10.133   6.563  0.3870  1.7097  2.1360
  723MOL0     H97592   7.893   9.924   6.540  1.5531 -1.5622 -0.7321
  723MOL0     H97593   7.979   9.753   6.482  1.3093  6.7974 -1.9381
  723MOL0     H97594   8.086   9.708   6.611  0.1515  2.6369  1.1488
  723MOL0     H97595   8.130   9.548   6.426  0.3096  0.1932 -0.0593
  723MOL0     H97596   8.263   9.662   6.438  0.8114  0.1919  0.5555
  723MOL0     H97597   8.195   9.614   6.193 -1.9242 -0.4131 -1.4378
  723MOL0     H97598   8.161   9.779   6.234 -0.4792 -0.2647  0.3961
  723MOL0     H97599   7.923   9.738   6.252 -1.5405 -1.9990  3.2337
  723MOL0     H97600   7.995   9.658   6.097  2.6631  0.3326 -0.8222
  723MOL0     H97601   7.874   9.342   6.370  1.3091 -1.6028 -0.6710
  723MOL0     H97602   8.265  10.083   6.485 -0.6551 -0.6371  2.8605
  723MOL0     H97603   8.222  10.384   6.390  0.5353  0.4680  0.7988
  723MOL0     H97604   8.169  10.443   6.548  1.4852 -0.1456  0.5813
  723MOL0     H97605   8.297  10.321   6.533 -0.0767 -1.4399 -0.3392
  724MOL0     O97606   0.591  10.039   8.414  0.0955  0.1973 -0.2656
  724MOL0     C97607   0.600  10.119   8.321 -0.5693 -0.5881 -0.6292
  724MOL0     O97608   0.715  10.195   8.301  0.2721  0.3786 -0.1182
  724MOL0     C97609   0.813  10.200   8.395  0.7641 -0.3653 -0.1182
  724MOL0     C97610   0.791  10.216   8.536  0.9687  0.1798  1.1537
  724MOL0     C97611   0.896  10.204   8.625 -0.8047 -0.9815 -0.0612
  724MOL0     C97612   1.024  10.208   8.574 -0.1344 -0.5361 -0.0894
  724MOL0     O97613   1.118  10.198   8.673 -0.3542 -0.5943  0.9180
  724MOL0     C97614   1.257  10.195   8.644  0.3245 -0.3487 -0.1020
  724MOL0     C97615   1.330  10.252   8.768  1.2417 -1.0885 -0.2073
  724MOL0     C97616   1.470  10.295   8.722 -0.4520  0.7894 -0.2041
  724MOL0     C97617   1.570  10.176   8.715  0.1785 -0.2875  0.1102
  724MOL0     C97618   1.694  10.221   8.789 -0.1018  0.1065 -0.8107
  724MOL0     C97619   1.809  10.127   8.738  0.7475 -0.1967  0.4426
  724MOL0     C97620   1.941  10.165   8.810 -0.1723 -0.1349 -0.2111
  724MOL0     C97621   2.055  10.094   8.758  0.1727 -1.0269 -0.3185
  724MOL0     N97622   2.177  10.167   8.808 -0.2349 -0.0155  0.2325
  724MOL0     C97623   2.241  10.141   8.932  0.0453  0.7949 -0.6417
  724MOL0     C97624   2.357  10.208   8.922 -0.8173  0.7836  0.5460
  724MOL0     C97625   2.457  10.236   9.036  0.4110 -1.2132 -0.6299
  724MOL0     C97626   2.512  10.385   9.038 -0.1219  0.4377 -0.7259
  724MOL0     C97627   2.610  10.410   9.144  0.0753  0.5013 -0.2032
  724MOL0     C97628   2.626  10.559   9.171 -0.2504 -0.6570  0.0062
  724MOL0     O97629   2.722  10.581   9.276  0.1206  0.5734  0.3063
  724MOL0     C97630   2.666  10.624   9.391  0.3690  0.1817 -0.4580
  724MOL0     C97631   2.713  10.733   9.457  0.1971 -0.1009  0.1441
  724MOL0     C97632   2.673  10.772   9.587  0.2930 -0.9069 -0.2334
  724MOL0     C97633   2.579  10.698   9.664 -0.3684 -1.5110  1.4002
  724MOL0     C97634   2.522  10.743   9.791  1.1038 -0.5516  1.0980
  724MOL0     O97635   2.560  10.862   9.849 -0.4382  0.3013  0.3001
  724MOL0     C97636   2.495  10.925   9.948  1.1772  0.7553  0.0651
  724MOL0     C97637   2.357  10.922   9.955  0.8284  0.1489 -0.1619
  724MOL0     C97638   2.287  10.985  10.060  0.1374  0.5267  0.2611
  724MOL0     C97639   2.360  11.049  10.160 -0.0807  0.3144  0.1258
  724MOL0     O97640   2.303  11.083  10.279 -0.4803 -0.0471  0.2190
  724MOL0     C97641   2.178  11.151  10.266  0.5066 -0.7087 -0.5862
  724MOL0     C97642   2.150  11.241  10.392 -0.2435  0.1239  0.1500
  724MOL0     C97643   2.120  11.173  10.521 -0.1277  0.6587 -0.2429
  724MOL0     C97644   2.065  11.250  10.637  0.4471  0.9485  0.4105
  724MOL0     C97645   2.037  11.163  10.760 -0.2906 -1.3410  0.4047
  724MOL0     C97646   2.004  11.254  10.881  0.7592 -0.5306 -0.8510
  724MOL0     C97647   1.999  11.171  11.009  0.7046 -0.6745  0.1658
  724MOL0     C97648   1.925  11.242  11.122 -0.3800  0.4770 -0.6552
  724MOL0    Cl97649   1.752  11.282  11.098 -0.2078 -0.4907 -0.0129
  724MOL0     C97650   2.500  11.046  10.152  0.6544  0.5904 -0.1347
  724MOL0     C97651   2.567  10.991  10.046  0.2897 -0.2363  0.0035
  724MOL0     O97652   2.442  10.668   9.835 -0.4229  0.4439 -0.0368
  724MOL0     C97653   2.528  10.582   9.599 -0.4675  0.2377  0.0788
  724MOL0     C97654   2.572  10.547   9.469  0.1276 -1.0911  0.1787
  724MOL0     N97655   2.372  10.268   8.799  0.3642  0.0568  0.4919
  724MOL0     N97656   2.253  10.250   8.742  0.0807 -0.1545  0.1991
  724MOL0     C97657   1.052  10.200   8.438  0.1732  0.0796  0.1012
  724MOL0     C97658   0.940  10.190   8.353 -0.3132  0.2107  0.0979
  724MOL0     C97659   0.490  10.137   8.230  0.1627  0.2272 -0.2076
  724MOL0     C97660   0.473  10.273   8.183  0.5076 -0.3719  0.3094
  724MOL0     C97661   0.359  10.299   8.099 -0.2663  0.8738 -0.3969
  724MOL0     C97662   0.268  10.195   8.074 -1.2944 -0.4718 -0.1747
  724MOL0     O97663   0.159  10.207   8.001 -0.0172  0.5566 -0.1320
  724MOL0     C97664   0.098  10.340   7.968 -0.0788  0.3802 -0.0469
  724MOL0     C97665   0.018  10.335   7.838  0.8393 -0.1389 -0.2067
  724MOL0     C97666  -0.125  10.290   7.874  0.2231  0.7614  0.6070
  724MOL0     C97667  -0.220  10.374   7.952 -0.4226  0.4127 -0.2069
  724MOL0     C97668  -0.273  10.495   7.890 -0.3602 -0.1611 -0.4715
  724MOL0     C97669  -0.318  10.592   7.836  0.2308 -0.7937  0.4423
  724MOL0     C97670   0.305  10.068   8.116  0.4969  0.2212 -0.2405
  724MOL0     C97671   0.407  10.029   8.201  0.0899  0.4050  0.2115
  724MOL0     C97672   0.410   9.888   8.253 -0.4916 -0.7346  1.0071
  724MOL0     H97673   0.692  10.232   8.577  0.5584 -3.0696  1.7251
  724MOL0     H97674   0.869  10.211   8.730 -2.8206  3.2233 -0.6186
  724MOL0     H97675   1.296  10.095   8.620  0.2611 -0.2029 -0.8390
  724MOL0     H97676   1.278  10.265   8.563 -0.4790 -1.3259 -1.1876
  724MOL0     H97677   1.317  10.174   8.844 -1.0927  1.0800  1.7963
  724MOL0     H97678   1.281  10.343   8.805  2.9842 -0.5310  0.8780
  724MOL0     H97679   1.496  10.368   8.799  1.8670 -3.4935  3.5584
  724MOL0     H97680   1.470  10.348   8.626  0.3794  1.0052 -0.0977
  724MOL0     H97681   1.524  10.092   8.767  2.2355 -0.6078  1.5275
  724MOL0     H97682   1.583  10.149   8.610 -1.1652  0.9076 -0.3995
  724MOL0     H97683   1.720  10.323   8.759  1.3759 -0.2263 -0.7462
  724MOL0     H97684   1.670  10.216   8.896 -3.3086 -0.3753 -1.4732
  724MOL0     H97685   1.777  10.027   8.769 -1.2803  0.1063 -0.4871
  724MOL0     H97686   1.828  10.134   8.631  0.3277  2.0533  0.4582
  724MOL0     H97687   1.927  10.141   8.916 -2.8098  1.6599 -0.0858
  724MOL0     H97688   1.964  10.271   8.798 -0.1851 -0.0970  0.1040
  724MOL0     H97689   2.042   9.992   8.795  1.1328 -1.7674 -1.8960
  724MOL0     H97690   2.062  10.097   8.649  2.1166  1.6932 -0.2117
  724MOL0     H97691   2.202  10.095   9.022 -1.3408 -0.3099 -1.7665
  724MOL0     H97692   2.405  10.213   9.129 -3.6373  1.2457 -2.0335
  724MOL0     H97693   2.554  10.187   9.024  1.9394  1.3042  0.7507
  724MOL0     H97694   2.561  10.392   8.941 -0.3719  1.8997 -0.7677
  724MOL0     H97695   2.424  10.450   9.037 -1.0481 -0.7730 -0.7308
  724MOL0     H97696   2.703  10.373   9.100 -1.7055 -2.3804 -1.8628
  724MOL0     H97697   2.582  10.354   9.234  1.6645  1.9058  1.2265
  724MOL0     H97698   2.528  10.604   9.188 -0.7015  0.0804 -3.6681
  724MOL0     H97699   2.665  10.611   9.083 -1.8805 -1.2783 -1.1354
  724MOL0     H97700   2.792  10.796   9.417 -0.8784 -0.1424 -2.2078
  724MOL0     H97701   2.715  10.864   9.624 -1.0005  0.3199 -1.6546
  724MOL0     H97702   2.299  10.860   9.887  0.1504  0.0506  0.4969
  724MOL0     H97703   2.181  10.970  10.078 -0.1889  0.9051 -1.2464
  724MOL0     H97704   2.177  11.215  10.177  1.8728  1.3572  0.7905
  724MOL0     H97705   2.091  11.085  10.267  0.8865 -1.2075 -0.5005
  724MOL0     H97706   2.240  11.302  10.402 -1.0037  1.8859 -2.5378
  724MOL0     H97707   2.083  11.324  10.368  2.3038  2.3368  0.2550
  724MOL0     H97708   2.047  11.096  10.492 -3.6909  3.4082  0.7336
  724MOL0     H97709   2.211  11.123  10.555 -0.8122 -0.8948 -0.6043
  724MOL0     H97710   1.978  11.305  10.600  2.4847  2.3240 -2.8053
  724MOL0     H97711   2.139  11.327  10.662  0.4416  1.6471 -1.5309
  724MOL0     H97712   2.128  11.108  10.787  2.3307  2.9985  1.4051
  724MOL0     H97713   1.951  11.096  10.753 -1.0593 -0.2328 -3.4803
  724MOL0     H97714   2.087  11.321  10.901  1.0686 -1.1936  0.1294
  724MOL0     H97715   1.917  11.314  10.853 -0.0531 -0.9080  0.7427
  724MOL0     H97716   2.095  11.125  11.034  0.7260 -0.2884  0.7977
  724MOL0     H97717   1.922  11.094  10.999  0.0625 -0.1594  1.0034
  724MOL0     H97718   1.930  11.191  11.218 -0.3124 -0.7621 -1.2876
  724MOL0     H97719   1.986  11.330  11.145  1.1138 -0.6630 -0.0675
  724MOL0     H97720   2.546  11.078  10.245 -0.6896 -3.0954  2.0238
  724MOL0     H97721   2.675  10.988  10.041  0.5767  4.0406 -0.2975
  724MOL0     H97722   2.458  10.513   9.645 -1.1342  0.3935 -0.6959
  724MOL0     H97723   2.533  10.458   9.422 -0.8961 -1.4390  1.6115
  724MOL0     H97724   1.154  10.196   8.400  0.8879  2.0019  1.6600
  724MOL0     H97725   0.952  10.198   8.245  0.1094 -1.8385 -0.0556
  724MOL0     H97726   0.547  10.350   8.198 -0.0120  0.0166  0.9408
  724MOL0     H97727   0.336  10.396   8.058 -0.4486  0.0989 -2.2450
  724MOL0     H97728   0.168  10.424   7.961 -3.0065  2.8671 -2.8550
  724MOL0     H97729   0.036  10.369   8.053  1.9912 -0.4680  1.8493
  724MOL0     H97730   0.064  10.277   7.758  2.8359 -0.2121  0.9267
  724MOL0     H97731   0.017  10.441   7.809 -1.3312  0.2925  1.2175
  724MOL0     H97732  -0.112  10.194   7.925 -2.1275 -1.4023 -2.4885
  724MOL0     H97733  -0.181  10.266   7.784  0.6433 -0.0388  0.5425
  724MOL0     H97734  -0.296  10.305   7.988  1.7579 -1.8480  0.3357
  724MOL0     H97735  -0.181  10.416   8.046 -0.6702  2.1349 -0.8324
  724MOL0     H97736  -0.368  10.675   7.790  0.8270 -0.9230 -0.4713
  724MOL0     H97737   0.230   9.996   8.083  1.4297  0.1841 -2.4593
  724MOL0     H97738   0.510   9.853   8.279 -0.4310 -1.8579 -0.5819
  724MOL0     H97739   0.339   9.886   8.336  0.4121 -1.5559  1.7921
  724MOL0     H97740   0.381   9.822   8.171  0.0913  1.6834 -1.2968
  725MOL0     O97741   1.065   2.811   5.536  0.8737  0.0118 -0.0637
  725MOL0     C97742   1.092   2.925   5.512  0.2376  0.3057  0.3668
  725MOL0     O97743   1.198   2.968   5.439 -0.3605  0.1793  0.2084
  725MOL0     C97744   1.294   2.877   5.403 -0.3487 -0.6240 -0.3156
  725MOL0     C97745   1.402   2.851   5.477 -0.9477  0.0568  0.3470
  725MOL0     C97746   1.497   2.757   5.446 -0.0370 -0.1495  0.6643
  725MOL0     C97747   1.483   2.676   5.329 -0.8947 -0.0730 -0.4236
  725MOL0     O97748   1.580   2.585   5.300 -0.3377  1.0534  0.1604
  725MOL0     C97749   1.579   2.522   5.172  0.3661 -0.6501 -0.0867
  725MOL0     C97750   1.719   2.472   5.120 -0.6256 -0.5465 -0.1564
  725MOL0     C97751   1.844   2.561   5.149 -1.0681  0.3093  0.9295
  725MOL0     C97752   1.964   2.488   5.096 -0.8086 -0.1535  0.4475
  725MOL0     C97753   2.014   2.529   4.952 -0.4514  0.0687  0.4563
  725MOL0     C97754   2.167   2.502   4.953  0.4457 -0.9063 -0.7220
  725MOL0     C97755   2.244   2.541   4.825 -0.3530 -0.2707 -0.7104
  725MOL0     C97756   2.223   2.426   4.718 -0.7370  0.8389 -0.7632
  725MOL0     N97757   2.329   2.412   4.623  0.1131  0.1970 -1.1026
  725MOL0     C97758   2.407   2.303   4.604 -0.3956  0.4663 -0.3144
  725MOL0     C97759   2.517   2.337   4.533  0.3854  0.0737  0.1590
  725MOL0     C97760   2.632   2.238   4.506 -0.5095  0.3772 -0.1080
  725MOL0     C97761   2.730   2.224   4.617  0.1869 -0.5924 -0.4301
  725MOL0     C97762   2.839   2.137   4.574 -0.7529 -0.2160  0.0117
  725MOL0     C97763   2.974   2.213   4.587  0.3902  0.0391  0.0426
  725MOL0     O97764   3.003   2.329   4.505 -0.1955 -1.3236  0.1544
  725MOL0     C97765   3.128   2.382   4.534 -0.3194 -0.4120 -0.1566
  725MOL0     C97766   3.240   2.327   4.474 -0.4098 -0.2617 -0.0236
  725MOL0     C97767   3.368   2.384   4.486 -0.1141 -0.3768  0.2907
  725MOL0     C97768   3.380   2.499   4.559  0.3031  0.1687 -0.6597
  725MOL0     C97769   3.515   2.568   4.564  0.3984 -0.2412 -0.6342
  725MOL0     O97770   3.516   2.664   4.657 -0.3626  0.1393 -0.1515
  725MOL0     C97771   3.635   2.721   4.690 -0.7929  0.5438  0.3995
  725MOL0     C97772   3.701   2.811   4.594 -0.5640  0.6285 -0.6315
  725MOL0     C97773   3.823   2.865   4.627  0.7016  0.2634  0.7291
  725MOL0     C97774   3.887   2.840   4.756  0.0754 -0.1583 -0.0170
  725MOL0     O97775   3.994   2.919   4.799 -0.2409 -0.1528  0.2105
  725MOL0     C97776   4.094   2.963   4.698 -0.6161  1.0237 -0.3185
  725MOL0     C97777   4.162   2.836   4.640 -0.2950  0.1260  0.2964
  725MOL0     C97778   4.285   2.866   4.549 -0.1249  0.1269  0.0114
  725MOL0     C97779   4.248   2.941   4.421 -0.7640  0.3269 -0.6530
  725MOL0     C97780   4.363   2.956   4.327  0.5507 -0.1531 -0.7234
  725MOL0     C97781   4.314   3.021   4.190 -1.1428 -0.1430 -1.1219
  725MOL0     C97782   4.224   2.928   4.116  0.7535  0.7911  0.3091
  725MOL0     C97783   4.218   2.979   3.973  0.1961 -0.3234  0.3416
  725MOL0    Cl97784   4.084   2.901   3.888  0.1035  0.0777 -0.4197
  725MOL0     C97785   3.820   2.753   4.840 -0.8590 -0.5176 -0.2478
  725MOL0     C97786   3.702   2.694   4.811  0.3920 -0.2807  0.7381
  725MOL0     O97787   3.599   2.556   4.474 -0.1958  0.2009 -0.1398
  725MOL0     C97788   3.272   2.547   4.635 -0.4963  0.8051 -1.3790
  725MOL0     C97789   3.148   2.493   4.618 -0.1804 -0.4640  0.4287
  725MOL0     N97790   2.499   2.464   4.490 -0.6117 -0.5297  0.6489
  725MOL0     N97791   2.391   2.507   4.544  0.0433 -0.1384  0.3857
  725MOL0     C97792   1.370   2.701   5.249 -0.3301 -0.3616  0.1460
  725MOL0     C97793   1.278   2.800   5.282  0.0754  0.0851  0.6102
  725MOL0     C97794   1.006   3.031   5.567 -1.0135 -0.1646  0.3321
  725MOL0     C97795   1.058   3.158   5.566 -0.0686 -0.3403  0.0145
  725MOL0     C97796   0.992   3.264   5.637  0.1771  0.5468 -0.2153
  725MOL0     C97797   0.856   3.249   5.676 -0.2986 -0.0051 -0.9919
  725MOL0     O97798   0.792   3.357   5.729 -0.7046  0.0996 -0.0538
  725MOL0     C97799   0.647   3.358   5.741  1.1825 -0.3574 -0.9013
  725MOL0     C97800   0.605   3.307   5.881  0.6830 -0.0396  0.3438
  725MOL0     C97801   0.697   3.364   5.992  0.6699  0.2867  0.2898
  725MOL0     C97802   0.717   3.259   6.107  0.8910 -0.1555 -0.1819
  725MOL0     C97803   0.794   3.132   6.076  0.9262 -0.8812  0.2063
  725MOL0     C97804   0.860   3.038   6.041  0.5517  0.3119  0.1398
  725MOL0     C97805   0.809   3.118   5.672  0.0895 -0.8417  0.3692
  725MOL0     C97806   0.877   3.010   5.613 -0.4614 -0.2008 -0.6786
  725MOL0     C97807   0.799   2.880   5.593 -0.4772 -1.1705 -0.1814
  725MOL0     H97808   1.420   2.908   5.567  3.2285 -1.5497  0.7624
  725MOL0     H97809   1.581   2.737   5.511  0.8712  3.3504  0.7789
  725MOL0     H97810   1.507   2.440   5.177 -0.5093  0.0813  4.8919
  725MOL0     H97811   1.544   2.601   5.104  0.6246  0.3408  0.8901
  725MOL0     H97812   1.716   2.459   5.011 -0.5479  0.3879 -0.2741
  725MOL0     H97813   1.732   2.371   5.159 -0.0400 -0.0873  0.8605
  725MOL0     H97814   1.837   2.582   5.256  0.2678  0.7305  0.9527
  725MOL0     H97815   1.856   2.655   5.093  0.7381 -0.2022  0.3733
  725MOL0     H97816   2.035   2.496   5.179 -1.0181  0.3646  0.5755
  725MOL0     H97817   1.940   2.381   5.096 -0.6783 -0.2480  2.9608
  725MOL0     H97818   1.973   2.472   4.867 -1.5714 -0.6756  1.4517
  725MOL0     H97819   1.985   2.634   4.940  3.0703  1.1404  0.3268
  725MOL0     H97820   2.204   2.571   5.028 -1.6771 -0.3434 -0.1118
  725MOL0     H97821   2.179   2.397   4.982 -1.2071 -1.1568 -0.8083
  725MOL0     H97822   2.351   2.562   4.832 -0.0380 -0.7175 -3.1507
  725MOL0     H97823   2.218   2.640   4.786  3.1494  2.0549  2.2234
  725MOL0     H97824   2.236   2.339   4.782  1.6211  2.0751  0.5785
  725MOL0     H97825   2.123   2.430   4.673 -0.0283  3.3492 -2.3675
  725MOL0     H97826   2.395   2.214   4.664  1.2167 -0.4136 -1.2373
  725MOL0     H97827   2.571   2.154   4.471 -3.4369  2.8520 -1.5213
  725MOL0     H97828   2.691   2.266   4.419 -0.6175  0.0681 -0.2833
  725MOL0     H97829   2.780   2.319   4.636  0.1127 -0.8531  1.1970
  725MOL0     H97830   2.685   2.197   4.713 -0.7043  2.5988  0.1388
  725MOL0     H97831   2.833   2.114   4.468  0.4343 -1.5801  0.2072
  725MOL0     H97832   2.826   2.045   4.631  0.5119 -0.8088 -0.6257
  725MOL0     H97833   3.057   2.143   4.590 -0.7319 -1.4270 -1.2494
  725MOL0     H97834   2.980   2.244   4.692 -3.2342  0.2226  0.3171
  725MOL0     H97835   3.247   2.248   4.400  0.3173 -2.0906  1.9171
  725MOL0     H97836   3.452   2.339   4.435 -1.2985 -2.3503 -0.0192
  725MOL0     H97837   3.655   2.825   4.497  3.1174  0.3789 -2.6100
  725MOL0     H97838   3.855   2.934   4.550 -2.8966  2.5584  1.0225
  725MOL0     H97839   4.040   3.027   4.628  3.2910  2.3715 -2.3663
  725MOL0     H97840   4.168   3.020   4.754  0.9463 -1.3175  0.1511
  725MOL0     H97841   4.207   2.784   4.725  0.3678 -0.8222 -0.6009
  725MOL0     H97842   4.097   2.759   4.597  0.7285 -0.9008  0.5137
  725MOL0     H97843   4.362   2.917   4.607  0.8489  1.9217 -2.6700
  725MOL0     H97844   4.332   2.768   4.536  0.0235  0.1858  0.0997
  725MOL0     H97845   4.215   3.041   4.450  3.4156  0.9272  3.2759
  725MOL0     H97846   4.170   2.885   4.369 -0.6929 -0.4735  0.0716
  725MOL0     H97847   4.409   2.859   4.307 -1.1205 -1.4530  1.3000
  725MOL0     H97848   4.437   3.022   4.374 -0.6116  0.7031 -0.0247
  725MOL0     H97849   4.267   3.117   4.214  2.1444  1.2463  0.3409
  725MOL0     H97850   4.405   3.037   4.132 -2.5569 -0.5747 -3.6232
  725MOL0     H97851   4.123   2.934   4.158  0.3935  0.9387 -0.5663
  725MOL0     H97852   4.260   2.825   4.111  0.6345  0.7751 -0.2694
  725MOL0     H97853   4.205   3.087   3.979 -0.0199 -0.1513 -2.1945
  725MOL0     H97854   4.317   2.953   3.934  0.3031 -1.0606  1.0748
  725MOL0     H97855   3.863   2.742   4.938 -0.1364 -2.6275 -0.7476
  725MOL0     H97856   3.656   2.623   4.879 -3.1642  0.8424 -0.2498
  725MOL0     H97857   3.273   2.640   4.689 -2.6310  1.3304 -2.1380
  725MOL0     H97858   3.060   2.537   4.665 -0.8417 -1.4716  0.1596
  725MOL0     H97859   1.347   2.647   5.157  2.0670 -1.8310  0.3166
  725MOL0     H97860   1.186   2.809   5.225  1.0573 -0.4766 -1.1500
  725MOL0     H97861   1.161   3.174   5.536 -0.7702  0.3385 -2.2321
  725MOL0     H97862   1.036   3.363   5.643 -1.3412  1.1953  0.7674
  725MOL0     H97863   0.607   3.284   5.671  1.3906 -1.5572  0.1950
  725MOL0     H97864   0.596   3.453   5.723  2.4900  0.5548  0.0354
  725MOL0     H97865   0.620   3.199   5.885 -1.4228 -0.3800  0.0571
  725MOL0     H97866   0.500   3.338   5.886  0.6335 -0.2047  0.3251
  725MOL0     H97867   0.642   3.452   6.026  0.0858  1.7489 -3.8497
  725MOL0     H97868   0.798   3.399   5.967  0.1769  1.2646 -0.3549
  725MOL0     H97869   0.776   3.318   6.177  0.7087  4.8657 -3.7394
  725MOL0     H97870   0.617   3.236   6.144  1.4490  2.4914  3.5482
  725MOL0     H97871   0.912   2.949   6.012 -1.4199 -0.2280 -2.0988
  725MOL0     H97872   0.713   3.096   5.716  0.6712  0.8304  2.6983
  725MOL0     H97873   0.848   2.801   5.651  0.5465  0.1146  0.7636
  725MOL0     H97874   0.701   2.884   5.643 -0.1396 -1.2096  0.5006
  725MOL0     H97875   0.783   2.864   5.486 -1.0913 -0.9873 -0.1227
  726MOL0     O97876   9.251   2.320   0.790  0.0931 -0.0160 -0.4679
  726MOL0     C97877   9.155   2.371   0.727  0.5620  0.1872  0.3237
  726MOL0     O97878   9.090   2.479   0.772  0.1494  0.0504 -0.4279
  726MOL0     C97879   9.081   2.486   0.907 -0.4571 -0.1982  0.6375
  726MOL0     C97880   9.027   2.391   0.985 -0.3937  0.6326 -0.6038
  726MOL0     C97881   9.022   2.403   1.129  0.3289 -0.7405  0.3480
  726MOL0     C97882   9.084   2.513   1.189 -0.7278  0.0409 -0.4931
  726MOL0     O97883   9.064   2.540   1.329 -0.3573 -0.1746  0.6013
  726MOL0     C97884   8.933   2.581   1.365 -0.2513 -0.4117  1.1583
  726MOL0     C97885   8.950   2.600   1.518 -0.6729 -0.3194  0.6819
  726MOL0     C97886   8.818   2.599   1.591  0.4788  0.0017 -0.0359
  726MOL0     C97887   8.718   2.479   1.566  1.3370  0.4920  0.2177
  726MOL0     C97888   8.598   2.473   1.673  0.1187 -0.4177  0.0128
  726MOL0     C97889   8.489   2.374   1.627  0.1058  0.0989  0.1539
  726MOL0     C97890   8.360   2.380   1.728  0.9763  0.2338  0.2769
  726MOL0     C97891   8.387   2.303   1.860  0.4282 -0.5545  0.6016
  726MOL0     N97892   8.374   2.160   1.848  0.0848 -0.0262 -0.5835
  726MOL0     C97893   8.367   2.082   1.958 -1.0154  0.2315 -1.8136
  726MOL0     C97894   8.382   1.953   1.925  0.5179  0.3579 -0.0653
  726MOL0     C97895   8.400   1.831   2.016 -0.1486  0.0490 -1.4897
  726MOL0     C97896   8.283   1.732   2.034  0.4254  1.0825 -0.2662
  726MOL0     C97897   8.150   1.807   2.038  0.2216 -0.4245  0.0318
  726MOL0     C97898   8.046   1.741   2.127  0.9631 -0.4435 -0.7504
  726MOL0     O97899   7.915   1.784   2.112 -0.2550  0.3671  0.7319
  726MOL0     C97900   7.819   1.745   2.202  0.4811 -0.8740 -0.6742
  726MOL0     C97901   7.836   1.671   2.324 -0.1020  0.5850 -0.2267
  726MOL0     C97902   7.732   1.649   2.411  0.6420 -0.0964 -0.6239
  726MOL0     C97903   7.609   1.704   2.379  0.8485 -0.1210  0.3263
  726MOL0     C97904   7.499   1.703   2.474 -0.1291  0.5606  0.6475
  726MOL0     O97905   7.505   1.618   2.588  0.4331 -0.0938  0.2199
  726MOL0     C97906   7.388   1.584   2.657 -0.1418 -1.0833  1.0198
  726MOL0     C97907   7.344   1.671   2.754  0.6670  0.2204 -0.1275
  726MOL0     C97908   7.233   1.652   2.831 -0.0958  0.2251 -0.1014
  726MOL0     C97909   7.159   1.532   2.807 -0.8275 -0.4616  0.0553
  726MOL0     O97910   7.044   1.508   2.865 -0.3877  0.3598 -0.2614
  726MOL0     C97911   7.061   1.463   3.003 -0.1829 -0.1229 -0.4284
  726MOL0     C97912   7.019   1.314   3.018 -0.2961 -1.0606  1.2144
  726MOL0     C97913   7.117   1.234   3.099 -0.4326  0.5927 -0.5702
  726MOL0     C97914   7.238   1.195   3.013  0.7066  0.4584 -0.0938
  726MOL0     C97915   7.360   1.140   3.090 -0.0724  0.2164  0.4855
  726MOL0     C97916   7.340   1.004   3.161  0.1274 -0.2139  0.6709
  726MOL0     C97917   7.477   0.928   3.165 -0.4901  0.8901  0.5284
  726MOL0     C97918   7.579   0.967   3.277 -0.2411  0.4183  0.5734
  726MOL0    Cl97919   7.521   0.877   3.413  0.0797 -0.4111  0.7241
  726MOL0     C97920   7.201   1.448   2.701  0.4658  0.2554 -0.0372
  726MOL0     C97921   7.323   1.458   2.627  0.4995 -0.1458 -0.4248
  726MOL0     O97922   7.415   1.786   2.453 -0.3719  0.1012  0.4116
  726MOL0     C97923   7.582   1.770   2.255  0.6227  0.0349  0.4428
  726MOL0     C97924   7.691   1.799   2.172 -0.4820  0.5532 -0.6007
  726MOL0     N97925   8.383   1.955   1.783  0.5294 -0.1878  0.1161
  726MOL0     N97926   8.365   2.083   1.737 -0.5039  0.4650 -0.5008
  726MOL0     C97927   9.139   2.623   1.101  0.5227  0.6525  0.2634
  726MOL0     C97928   9.132   2.608   0.960 -0.1723 -0.4090  0.3151
  726MOL0     C97929   9.128   2.323   0.585 -0.5327  1.1003  0.1104
  726MOL0     C97930   9.132   2.191   0.569 -0.6307  0.0508 -0.4269
  726MOL0     C97931   9.101   2.129   0.454  0.9348  0.4251  0.3597
  726MOL0     C97932   9.075   2.212   0.342  0.3388 -0.5714  0.4760
  726MOL0     O97933   9.039   2.157   0.221  0.2158  0.2511  0.2025
  726MOL0     C97934   9.146   2.125   0.127  0.6132 -0.6934 -0.7654
  726MOL0     C97935   9.101   2.063  -0.001 -1.1819  0.8501 -0.0920
  726MOL0     C97936   9.031   1.931   0.023 -0.4986  0.0567  1.0595
  726MOL0     C97937   9.119   1.841   0.114 -0.0638 -0.1296  0.0207
  726MOL0     C97938   9.106   1.700   0.064 -0.3121  1.0341 -0.0785
  726MOL0     C97939   9.099   1.587   0.016  0.0174 -0.8927  0.3079
  726MOL0     C97940   9.076   2.359   0.348  1.0191  1.0597 -1.1723
  726MOL0     C97941   9.095   2.410   0.474  0.3625 -0.2880  0.3213
  726MOL0     C97942   9.111   2.560   0.487  0.1675  0.0086 -0.1772
  726MOL0     H97943   8.983   2.305   0.935 -0.7134  0.7633 -0.5478
  726MOL0     H97944   8.962   2.342   1.197 -0.4800 -0.2930  0.0399
  726MOL0     H97945   8.914   2.677   1.315  4.7848  1.9831  3.1181
  726MOL0     H97946   8.863   2.506   1.328  1.0422 -1.2307  0.2997
  726MOL0     H97947   9.005   2.686   1.556 -1.3177  1.8067 -2.7458
  726MOL0     H97948   8.995   2.507   1.553 -1.5886 -1.3310 -0.7042
  726MOL0     H97949   8.763   2.689   1.561  0.6761 -1.1114 -4.3079
  726MOL0     H97950   8.849   2.611   1.696  0.2999 -1.6898  0.2312
  726MOL0     H97951   8.679   2.488   1.464  1.6808 -0.9613 -0.0682
  726MOL0     H97952   8.770   2.384   1.552  0.5163  0.4496 -3.5724
  726MOL0     H97953   8.632   2.448   1.774  4.5064 -0.6526 -1.3068
  726MOL0     H97954   8.564   2.575   1.689  3.6459  0.4291  4.0672
  726MOL0     H97955   8.450   2.405   1.530 -1.2906  0.2438  0.7323
  726MOL0     H97956   8.529   2.275   1.607  2.5094  1.1944 -0.8459
  726MOL0     H97957   8.266   2.349   1.682  0.4833  1.3188  0.5468
  726MOL0     H97958   8.352   2.483   1.762 -1.2684  0.2459 -0.1202
  726MOL0     H97959   8.489   2.330   1.888  0.0146 -0.4497  2.1156
  726MOL0     H97960   8.321   2.350   1.934  0.9649  4.1421 -1.5215
  726MOL0     H97961   8.366   2.121   2.059 -0.6899  0.3893 -1.8696
  726MOL0     H97962   8.479   1.765   1.980 -0.0677 -0.1207 -1.0083
  726MOL0     H97963   8.447   1.873   2.106  0.3797 -0.7961 -1.3633
  726MOL0     H97964   8.282   1.656   1.955  2.3144  0.8055 -0.0621
  726MOL0     H97965   8.286   1.680   2.130 -3.0545  0.3261 -0.4166
  726MOL0     H97966   8.102   1.802   1.940 -1.4529 -1.0751  0.8609
  726MOL0     H97967   8.161   1.911   2.071 -0.6509  0.4711 -2.3042
  726MOL0     H97968   8.084   1.759   2.228  2.3042 -1.8091 -0.9785
  726MOL0     H97969   8.025   1.634   2.114 -1.7332 -0.0704 -0.0312
  726MOL0     H97970   7.935   1.628   2.333 -0.4115 -0.2026 -0.4304
  726MOL0     H97971   7.751   1.588   2.498  1.0654 -1.3482 -1.5515
  726MOL0     H97972   7.423   1.743   2.775  0.3660  0.2298  1.0255
  726MOL0     H97973   7.215   1.715   2.918 -0.4345 -1.0219  0.7576
  726MOL0     H97974   7.165   1.474   3.035  0.2028 -2.6099 -0.6720
  726MOL0     H97975   6.999   1.520   3.073  0.4902 -1.1750  1.0905
  726MOL0     H97976   6.916   1.298   3.049 -1.3776 -0.7715 -1.8876
  726MOL0     H97977   7.019   1.283   2.913  0.5164  2.6996 -0.0493
  726MOL0     H97978   7.141   1.285   3.193  0.4624 -0.0086 -0.4514
  726MOL0     H97979   7.072   1.138   3.127  3.2650 -1.0525  0.3983
  726MOL0     H97980   7.275   1.272   2.945 -0.6261 -0.9330 -2.5226
  726MOL0     H97981   7.213   1.109   2.950  2.9711  0.1622 -0.6806
  726MOL0     H97982   7.387   1.222   3.156  3.6710  1.2278 -1.9826
  726MOL0     H97983   7.435   1.128   3.011 -0.2188 -1.7294  0.5890
  726MOL0     H97984   7.290   1.017   3.257 -0.3569  2.8135  0.0938
  726MOL0     H97985   7.270   0.931   3.117 -0.9773 -0.3818  2.6040
  726MOL0     H97986   7.526   0.953   3.070 -1.0802 -1.7351 -0.5695
  726MOL0     H97987   7.459   0.820   3.163  0.1751  0.7695 -1.6220
  726MOL0     H97988   7.676   0.930   3.243 -0.3339  2.0219 -1.6860
  726MOL0     H97989   7.576   1.075   3.291 -2.7675  0.5515 -0.3374
  726MOL0     H97990   7.141   1.359   2.681  1.3264 -0.4639  0.5305
  726MOL0     H97991   7.360   1.372   2.572  0.8782 -0.0520 -0.3196
  726MOL0     H97992   7.487   1.814   2.226 -0.2744 -2.6187 -0.9168
  726MOL0     H97993   7.678   1.855   2.079 -0.4729 -0.4977 -1.2533
  726MOL0     H97994   9.189   2.704   1.151  0.3003  2.5263 -2.3586
  726MOL0     H97995   9.172   2.673   0.883 -2.0182 -0.8811 -1.1184
  726MOL0     H97996   9.174   2.120   0.639 -2.2568 -1.5826 -1.0461
  726MOL0     H97997   9.105   2.021   0.440 -2.6360  0.0212  1.3286
  726MOL0     H97998   9.229   2.067   0.170  1.0915 -2.1092 -3.4163
  726MOL0     H97999   9.189   2.223   0.102 -0.6892  0.3692  0.9369
  726MOL0     H98000   9.190   2.051  -0.064 -1.4439 -3.6032  0.1019
  726MOL0     H98001   9.032   2.122  -0.061 -1.3340  0.0243 -0.7364
  726MOL0     H98002   8.992   1.883  -0.068 -1.1346  2.3049  0.0395
  726MOL0     H98003   8.947   1.950   0.091  0.4727 -0.0945  2.3226
  726MOL0     H98004   9.223   1.872   0.105 -0.7948  2.7704  0.5589
  726MOL0     H98005   9.086   1.846   0.218  1.8799  2.7517  0.5899
  726MOL0     H98006   9.088   1.493  -0.034  0.7880 -0.5307 -0.5808
  726MOL0     H98007   9.042   2.422   0.267 -0.2671  0.4736 -1.1108
  726MOL0     H98008   9.208   2.592   0.526  0.7087  1.1976 -2.3379
  726MOL0     H98009   9.096   2.604   0.387  1.2897 -0.0908 -0.3960
  726MOL0     H98010   9.038   2.617   0.546  1.1252  2.4780 -1.2189
  727MOL0     O98011   4.651   4.829   0.119 -0.3890  0.4652  0.3709
  727MOL0     C98012   4.689   4.800   0.008  0.2932 -1.1853 -0.5844
  727MOL0     O98013   4.614   4.744  -0.085  0.2308  0.4660 -0.5822
  727MOL0     C98014   4.476   4.744  -0.071  0.8005  0.4449  0.0831
  727MOL0     C98015   4.400   4.862  -0.040  0.6535 -0.0457 -0.5519
  727MOL0     C98016   4.267   4.855  -0.004 -0.6965  0.1057 -0.7657
  727MOL0     C98017   4.215   4.724   0.027  0.0247  0.5955 -0.5515
  727MOL0     O98018   4.080   4.727   0.077 -0.6516  0.1947 -0.0339
  727MOL0     C98019   4.017   4.606   0.135 -0.5094 -0.6884  0.9755
  727MOL0     C98020   3.861   4.627   0.161  0.5565  0.3407 -0.7808
  727MOL0     C98021   3.822   4.780   0.150 -0.1324  0.4377  0.8407
  727MOL0     C98022   3.799   4.816   0.003  0.2227  0.5342  0.5495
  727MOL0     C98023   3.753   4.966  -0.031 -0.1614  0.4127 -0.8713
  727MOL0     C98024   3.608   5.003   0.005 -0.1750  0.5796 -0.1442
  727MOL0     C98025   3.506   4.923  -0.072 -0.9336  0.2403  0.3921
  727MOL0     C98026   3.505   4.948  -0.224 -0.9476 -0.5800 -0.3114
  727MOL0     N98027   3.461   5.084  -0.265  0.3704  0.4768 -0.4810
  727MOL0     C98028   3.328   5.126  -0.284  0.1951  1.0110 -0.4534
  727MOL0     C98029   3.325   5.255  -0.326 -0.2806 -0.0077 -0.1638
  727MOL0     C98030   3.194   5.328  -0.346 -0.1715 -0.6043 -0.4773
  727MOL0     C98031   3.147   5.411  -0.229  0.4051 -0.6738  0.2220
  727MOL0     C98032   3.167   5.559  -0.269 -1.3374 -0.2386  0.4099
  727MOL0     C98033   3.319   5.593  -0.283 -0.0124  0.1096  0.7225
  727MOL0     O98034   3.335   5.733  -0.298  0.4458 -0.6931  0.0757
  727MOL0     C98035   3.314   5.798  -0.417  0.5972  0.0354  0.4225
  727MOL0     C98036   3.305   5.738  -0.538 -0.3672 -0.4327  1.2211
  727MOL0     C98037   3.290   5.816  -0.656 -0.1904  0.3814 -0.4294
  727MOL0     C98038   3.260   5.951  -0.652 -0.1536  0.1797  1.1362
  727MOL0     C98039   3.243   6.031  -0.780 -0.5466 -0.1433 -0.0288
  727MOL0     O98040   3.258   5.965  -0.904  0.2476 -0.0210 -0.7603
  727MOL0     C98041   3.240   6.032  -1.017  0.0676 -0.0819 -1.6731
  727MOL0     C98042   3.333   6.134  -1.049 -0.5835  0.2366 -0.2455
  727MOL0     C98043   3.304   6.225  -1.153 -0.2054  0.4479 -0.8799
  727MOL0     C98044   3.187   6.203  -1.230  0.4734  0.3621  0.2076
  727MOL0     O98045   3.142   6.299  -1.317 -0.2361  0.1900  1.0147
  727MOL0     C98046   3.225   6.410  -1.363  0.9018  0.3109  0.8701
  727MOL0     C98047   3.172   6.467  -1.500 -1.1491 -0.1945  0.1903
  727MOL0     C98048   3.188   6.374  -1.617 -0.0237 -0.5043 -0.0452
  727MOL0     C98049   3.119   6.424  -1.739 -0.3364 -0.2834 -0.3818
  727MOL0     C98050   3.119   6.315  -1.856  0.0883 -0.5777  0.2495
  727MOL0     C98051   3.051   6.177  -1.823 -0.4095  0.2222  0.2796
  727MOL0     C98052   3.008   6.101  -1.945  0.4591  0.5933  0.6799
  727MOL0     C98053   3.123   6.031  -2.007 -0.4271 -0.1857  0.8156
  727MOL0    Cl98054   3.246   6.130  -2.094  0.1100 -0.1791  0.3198
  727MOL0     C98055   3.111   6.081  -1.217 -0.6701 -0.8523  0.6794
  727MOL0     C98056   3.144   6.000  -1.116 -0.8504  0.2975  1.1634
  727MOL0     O98057   3.231   6.154  -0.765  0.2736  1.1243  0.4403
  727MOL0     C98058   3.250   6.014  -0.526  0.9063 -0.7262  0.0152
  727MOL0     C98059   3.281   5.938  -0.408  0.2142 -0.0346 -0.2082
  727MOL0     N98060   3.459   5.299  -0.328  0.1044  0.0036  0.6673
  727MOL0     N98061   3.537   5.200  -0.286 -0.4674  0.8172 -1.1140
  727MOL0     C98062   4.288   4.611  -0.012 -0.0269 -0.4631  0.5239
  727MOL0     C98063   4.417   4.618  -0.064  0.3583 -0.5496  0.1418
  727MOL0     C98064   4.834   4.820  -0.035  0.4284  0.1672  0.0062
  727MOL0     C98065   4.859   4.807  -0.174 -0.1442  0.5590 -0.0960
  727MOL0     C98066   4.988   4.808  -0.219 -0.2288  0.3173 -0.1599
  727MOL0     C98067   5.086   4.838  -0.133 -1.1573  0.3935  1.0327
  727MOL0     O98068   5.215   4.835  -0.177  0.2419 -0.1246 -0.5839
  727MOL0     C98069   5.253   4.916  -0.295  0.9550  0.7901 -0.1756
  727MOL0     C98070   5.388   4.864  -0.340 -0.9563 -1.0489  0.2752
  727MOL0     C98071   5.489   4.988  -0.363  0.9295  0.3579  0.5757
  727MOL0     C98072   5.557   5.001  -0.503  0.2984  0.4147  0.1839
  727MOL0     C98073   5.646   4.885  -0.508  0.9674 -0.2868  0.2925
  727MOL0     C98074   5.723   4.793  -0.522  0.4000 -0.2022 -0.1475
  727MOL0     C98075   5.065   4.854  -0.003 -0.1998 -0.0461 -0.4388
  727MOL0     C98076   4.938   4.854   0.050 -0.1334  0.0356  1.2534
  727MOL0     C98077   4.924   4.879   0.192 -0.5845 -0.3715  0.3660
  727MOL0     H98078   4.456   4.955  -0.038  1.4924 -0.4451  3.4315
  727MOL0     H98079   4.213   4.946   0.018 -1.1862 -0.6386  1.3875
  727MOL0     H98080   4.038   4.526   0.064  0.9622  1.1266 -0.7432
  727MOL0     H98081   4.061   4.576   0.231  3.9766  3.7641  0.7367
  727MOL0     H98082   3.836   4.584   0.258  0.0070 -3.6380 -2.4758
  727MOL0     H98083   3.801   4.571   0.087 -0.6874  1.6774 -0.8266
  727MOL0     H98084   3.879   4.851   0.210  0.0668 -0.5744  1.8948
  727MOL0     H98085   3.723   4.780   0.196  0.6350 -0.0379  2.5888
  727MOL0     H98086   3.882   4.791  -0.063 -1.0561 -0.1753 -0.8466
  727MOL0     H98087   3.714   4.755  -0.029  0.4925 -1.0753  2.6548
  727MOL0     H98088   3.813   5.039   0.024  1.4205  0.7639 -2.9487
  727MOL0     H98089   3.765   4.996  -0.135  0.1810  1.0968 -0.6389
  727MOL0     H98090   3.605   4.975   0.110 -0.5122 -0.9076 -0.5290
  727MOL0     H98091   3.592   5.110  -0.007 -0.2575  0.5151 -0.6574
  727MOL0     H98092   3.412   4.956  -0.027 -2.7578 -2.1625 -1.3811
  727MOL0     H98093   3.528   4.818  -0.049  2.6057  1.0667  1.4483
  727MOL0     H98094   3.606   4.925  -0.257 -1.1587 -1.5209 -0.3116
  727MOL0     H98095   3.439   4.880  -0.278 -0.7565 -0.2602 -0.9574
  727MOL0     H98096   3.232   5.081  -0.262  1.1914 -1.0374 -0.0429
  727MOL0     H98097   3.207   5.398  -0.429  0.8073 -1.4298 -1.0505
  727MOL0     H98098   3.111   5.262  -0.374  0.3823 -1.3002 -0.5149
  727MOL0     H98099   3.043   5.380  -0.218  0.6915 -0.7212  6.0276
  727MOL0     H98100   3.204   5.404  -0.135 -0.7550 -0.1229  0.9874
  727MOL0     H98101   3.131   5.619  -0.185 -1.1332 -0.0528  0.3661
  727MOL0     H98102   3.119   5.581  -0.365  2.3436 -2.9302 -2.3430
  727MOL0     H98103   3.369   5.542  -0.366  0.2862  2.1145 -0.3978
  727MOL0     H98104   3.363   5.567  -0.187 -0.4399 -0.0083  0.8895
  727MOL0     H98105   3.332   5.635  -0.557 -0.0892 -0.3751  1.2923
  727MOL0     H98106   3.286   5.773  -0.756 -1.3619 -0.2667 -0.1268
  727MOL0     H98107   3.419   6.154  -0.986 -0.4385  2.7362 -1.1432
  727MOL0     H98108   3.370   6.308  -1.173 -0.2415  0.2701 -1.7842
  727MOL0     H98109   3.221   6.480  -1.279 -1.9279 -0.6553  1.6465
  727MOL0     H98110   3.325   6.372  -1.384 -0.0377 -1.5346 -0.5962
  727MOL0     H98111   3.065   6.489  -1.492 -1.6945 -3.0839  2.1658
  727MOL0     H98112   3.230   6.555  -1.529 -1.3869 -0.8834 -2.7067
  727MOL0     H98113   3.291   6.364  -1.651 -0.1019 -0.5379 -0.2742
  727MOL0     H98114   3.155   6.275  -1.584 -2.2603  0.5820  1.2275
  727MOL0     H98115   3.164   6.518  -1.772 -0.1860 -0.9140 -2.0655
  727MOL0     H98116   3.014   6.444  -1.717 -1.3666 -1.3392 -3.7154
  727MOL0     H98117   3.224   6.306  -1.884  0.0786 -0.2484  0.1009
  727MOL0     H98118   3.076   6.358  -1.946 -0.7031 -0.9809  0.4286
  727MOL0     H98119   3.122   6.117  -1.766 -1.3577 -0.1768  1.0720
  727MOL0     H98120   2.966   6.197  -1.757  0.1029  1.9533  0.4472
  727MOL0     H98121   2.948   6.164  -2.012 -2.4829 -0.6961  1.9018
  727MOL0     H98122   2.927   6.032  -1.917 -0.6335  1.6585  0.2580
  727MOL0     H98123   3.164   5.966  -1.929 -2.9091  1.0777  3.3319
  727MOL0     H98124   3.080   5.961  -2.080 -1.4851  0.0667  1.1809
  727MOL0     H98125   3.021   6.051  -1.270 -1.4074  1.9484  0.1573
  727MOL0     H98126   3.092   5.904  -1.123 -2.0027  0.9722 -0.2591
  727MOL0     H98127   3.239   6.122  -0.518  2.0616 -0.5207 -0.8586
  727MOL0     H98128   3.271   5.979  -0.308  2.3141 -1.0925  0.4978
  727MOL0     H98129   4.246   4.511  -0.014 -2.3786  0.4607 -1.2765
  727MOL0     H98130   4.465   4.523  -0.086 -0.8513 -0.6450 -2.4286
  727MOL0     H98131   4.775   4.790  -0.240 -0.9675  1.6209  0.6371
  727MOL0     H98132   5.008   4.781  -0.322 -3.5551 -1.5406 -0.4623
  727MOL0     H98133   5.257   5.021  -0.264 -2.5872  0.4659  1.9916
  727MOL0     H98134   5.185   4.908  -0.381  0.8502 -1.7041  0.0717
  727MOL0     H98135   5.380   4.799  -0.428  0.2490 -0.9618  0.0885
  727MOL0     H98136   5.424   4.800  -0.259 -0.6751 -1.7717 -0.4007
  727MOL0     H98137   5.564   4.977  -0.284  1.4327  1.1372  0.2148
  727MOL0     H98138   5.439   5.085  -0.358 -1.0574 -0.3527 -2.5943
  727MOL0     H98139   5.484   4.997  -0.584  0.5095  1.4129 -0.0719
  727MOL0     H98140   5.611   5.096  -0.518  0.9141 -0.4187 -4.0386
  727MOL0     H98141   5.800   4.724  -0.546  3.5835  2.6888  0.9737
  727MOL0     H98142   5.142   4.887   0.065  0.9135 -0.9239 -1.2456
  727MOL0     H98143   5.021   4.916   0.228 -0.2769  0.7334 -1.4753
  727MOL0     H98144   4.848   4.957   0.206 -1.3955 -1.3976  1.8752
  727MOL0     H98145   4.889   4.790   0.244 -1.6240 -0.1388  0.0847
  728MOL0     O98146   5.956   5.392   4.550  0.2645 -0.0040  0.4517
  728MOL0     C98147   6.056   5.348   4.602 -0.2064  0.6560 -0.5435
  728MOL0     O98148   6.189   5.389   4.581 -0.0596  0.0019  0.1153
  728MOL0     C98149   6.202   5.515   4.525 -0.0100  0.3622  0.1629
  728MOL0     C98150   6.153   5.546   4.397 -1.3219  0.6240 -0.8298
  728MOL0     C98151   6.148   5.681   4.348 -0.2889 -0.5376  0.2814
  728MOL0     C98152   6.189   5.781   4.430  0.1166  2.0534 -0.2686
  728MOL0     O98153   6.181   5.909   4.382 -0.5230  0.4077  0.2355
  728MOL0     C98154   6.211   6.021   4.462 -0.4569  0.2826 -0.1902
  728MOL0     C98155   6.170   6.153   4.399  0.2153  0.3463  0.1228
  728MOL0     C98156   6.014   6.180   4.401 -0.0370  0.0162  1.0915
  728MOL0     C98157   5.921   6.088   4.321  0.0514 -0.9158  0.2501
  728MOL0     C98158   5.774   6.134   4.329  0.1194  0.3909  0.4211
  728MOL0     C98159   5.688   6.041   4.241 -1.0332 -0.6986  0.4259
  728MOL0     C98160   5.553   6.092   4.203 -0.4439  0.2358 -0.2228
  728MOL0     C98161   5.469   6.116   4.335 -0.0421 -0.0751 -0.6254
  728MOL0     N98162   5.327   6.121   4.302 -0.3146 -1.0359  0.4044
  728MOL0     C98163   5.243   6.016   4.312  0.4804 -0.9342  0.7281
  728MOL0     C98164   5.118   6.068   4.286  0.1811  0.1360  0.2426
  728MOL0     C98165   4.992   5.984   4.281 -0.5023  0.0543  0.2439
  728MOL0     C98166   4.948   5.946   4.423 -0.6151  0.6792 -0.4092
  728MOL0     C98167   4.832   5.864   4.445  0.2068  0.4507 -0.0979
  728MOL0     C98168   4.851   5.714   4.449  0.3399 -0.5267  0.3771
  728MOL0     O98169   4.915   5.675   4.328 -0.1953  0.2137 -0.4995
  728MOL0     C98170   4.899   5.544   4.299  0.8863 -0.0818  0.3738
  728MOL0     C98171   4.872   5.520   4.170 -0.7695 -0.1219  0.4284
  728MOL0     C98172   4.848   5.388   4.129  0.0210 -0.1406  0.7369
  728MOL0     C98173   4.886   5.277   4.213  0.3882  0.1817 -0.2981
  728MOL0     C98174   4.886   5.140   4.158  0.4085  0.4678  0.2418
  728MOL0     O98175   4.819   5.121   4.040  0.1547  0.0894 -0.0060
  728MOL0     C98176   4.780   4.991   4.009 -0.4587 -0.2880 -0.5337
  728MOL0     C98177   4.805   4.937   3.884 -0.8647  0.0017 -0.3149
  728MOL0     C98178   4.758   4.815   3.839 -0.7921  0.1691 -0.5705
  728MOL0     C98179   4.681   4.739   3.925 -0.1286  0.3720 -0.5292
  728MOL0     O98180   4.650   4.607   3.885 -0.4101 -0.1121 -0.3289
  728MOL0     C98181   4.560   4.606   3.773  0.7554  0.6555  1.1338
  728MOL0     C98182   4.411   4.631   3.805  0.3761 -0.9684 -0.1493
  728MOL0     C98183   4.352   4.550   3.923 -0.4248  0.1295  0.1180
  728MOL0     C98184   4.290   4.419   3.884  0.9769 -0.4734  0.1891
  728MOL0     C98185   4.196   4.358   3.991 -0.2137 -0.2572  0.6474
  728MOL0     C98186   4.263   4.297   4.107  0.2994  0.2760 -0.6388
  728MOL0     C98187   4.162   4.264   4.225 -0.7378 -0.4960 -0.0231
  728MOL0     C98188   4.225   4.197   4.350 -0.3528 -0.4496  0.4614
  728MOL0    Cl98189   4.085   4.154   4.459  0.1616  0.7850 -0.1452
  728MOL0     C98190   4.655   4.785   4.048  0.1866  0.1516 -0.1039
  728MOL0     C98191   4.705   4.908   4.092  0.1067 -0.2238  0.0457
  728MOL0     O98192   4.934   5.052   4.223 -0.2347  0.4103 -0.2866
  728MOL0     C98193   4.922   5.312   4.346  0.2707  0.0751 -0.7263
  728MOL0     C98194   4.927   5.444   4.393 -1.4224 -0.5059  0.0033
  728MOL0     N98195   5.129   6.201   4.242  0.4499  0.3546 -0.6031
  728MOL0     N98196   5.255   6.236   4.255 -0.2960  0.2581  0.5339
  728MOL0     C98197   6.233   5.750   4.561  1.1343  0.3986 -0.8289
  728MOL0     C98198   6.258   5.619   4.601 -0.5377  0.1941  0.0128
  728MOL0     C98199   6.050   5.234   4.690  0.1486 -0.0637  0.3953
  728MOL0     C98200   5.978   5.122   4.646 -0.1135  0.5969 -0.7566
  728MOL0     C98201   5.980   5.003   4.720 -0.6449  0.1366  0.2364
  728MOL0     C98202   6.046   4.995   4.843 -0.6635 -0.5183 -0.1043
  728MOL0     O98203   6.021   4.873   4.905 -0.5217  0.1553  0.0315
  728MOL0     C98204   5.918   4.876   5.008 -0.7391 -0.2839  0.1434
  728MOL0     C98205   5.944   4.951   5.136  0.4271  0.8704  0.5365
  728MOL0     C98206   6.078   4.907   5.190  0.0383 -1.0688  0.7078
  728MOL0     C98207   6.120   4.993   5.295 -1.3145 -0.2953  0.0310
  728MOL0     C98208   6.145   5.135   5.259 -0.0067 -0.7531  0.8624
  728MOL0     C98209   6.180   5.255   5.252  0.2013  1.0797 -0.3070
  728MOL0     C98210   6.109   5.111   4.891  0.0413  0.7513  0.2242
  728MOL0     C98211   6.109   5.231   4.820 -1.0342  0.3084  0.2828
  728MOL0     C98212   6.176   5.350   4.874 -0.1324  0.6760  0.0194
  728MOL0     H98213   6.106   5.470   4.336 -3.6503  1.7381 -0.5556
  728MOL0     H98214   6.105   5.703   4.251 -3.3380 -1.9807  1.1921
  728MOL0     H98215   6.166   6.015   4.561  2.9374 -3.1921  1.3918
  728MOL0     H98216   6.318   6.022   4.482 -1.0645 -0.3349  3.8966
  728MOL0     H98217   6.220   6.164   4.303  1.1334  0.2727  0.5749
  728MOL0     H98218   6.205   6.225   4.474 -2.9112 -0.8426  2.9838
  728MOL0     H98219   5.998   6.273   4.345 -3.2892 -1.5973 -0.9877
  728MOL0     H98220   5.974   6.191   4.502 -1.7231 -0.7087  0.5318
  728MOL0     H98221   5.954   6.079   4.217  0.5384 -0.2196  0.3422
  728MOL0     H98222   5.924   5.985   4.359 -0.6258 -1.5661 -1.3382
  728MOL0     H98223   5.736   6.119   4.431 -3.0925 -0.4070 -0.7524
  728MOL0     H98224   5.764   6.239   4.301 -0.0185  0.5506  1.0471
  728MOL0     H98225   5.743   6.031   4.146 -1.7802 -0.2099 -0.0693
  728MOL0     H98226   5.670   5.945   4.288 -2.4420 -0.3917  0.5434
  728MOL0     H98227   5.498   6.019   4.144 -0.2685 -1.1521  1.2867
  728MOL0     H98228   5.551   6.194   4.163 -0.8355  1.0252  1.6708
  728MOL0     H98229   5.489   6.038   4.410  1.4454 -0.5875 -1.5058
  728MOL0     H98230   5.492   6.207   4.390  0.8680  0.8232 -2.4075
  728MOL0     H98231   5.260   5.915   4.346 -0.7665 -1.5019 -0.2658
  728MOL0     H98232   4.908   6.037   4.234 -3.0377 -1.0423  3.2261
  728MOL0     H98233   5.015   5.895   4.221 -1.5020  0.5852 -0.9850
  728MOL0     H98234   5.035   5.893   4.465 -0.4302  2.0505  1.0391
  728MOL0     H98235   4.942   6.039   4.480 -1.6295 -0.4885  1.4980
  728MOL0     H98236   4.757   5.879   4.367 -1.0233 -5.1351 -0.3610
  728MOL0     H98237   4.783   5.900   4.535 -1.2663  1.8850 -1.4044
  728MOL0     H98238   4.751   5.669   4.447  0.1281 -0.1109 -2.2731
  728MOL0     H98239   4.907   5.672   4.534  0.7361  0.5950  0.6952
  728MOL0     H98240   4.840   5.599   4.102  1.1923  0.3067 -0.0748
  728MOL0     H98241   4.805   5.375   4.030  0.1083 -1.1878  0.8205
  728MOL0     H98242   4.885   4.978   3.823 -0.0666 -4.0064 -2.2942
  728MOL0     H98243   4.795   4.771   3.747  1.6502 -0.4974  0.6618
  728MOL0     H98244   4.589   4.673   3.691 -3.1826  1.8740  0.5347
  728MOL0     H98245   4.555   4.506   3.729  4.7813  0.9440 -0.4095
  728MOL0     H98246   4.402   4.737   3.830  1.3178 -0.4743 -1.7624
  728MOL0     H98247   4.352   4.610   3.715 -0.3254  3.8353 -1.0894
  728MOL0     H98248   4.427   4.545   4.003  0.3772 -1.0524 -0.6713
  728MOL0     H98249   4.282   4.620   3.968  3.0087  3.2095  1.1350
  728MOL0     H98250   4.365   4.345   3.855  2.1661 -0.2938  2.5376
  728MOL0     H98251   4.228   4.446   3.798  1.6276 -0.4520 -0.2780
  728MOL0     H98252   4.142   4.277   3.940  0.0521  0.1700 -0.3496
  728MOL0     H98253   4.124   4.433   4.023 -1.5960 -0.7887 -1.0766
  728MOL0     H98254   4.289   4.197   4.070 -1.0002  0.1737 -1.3081
  728MOL0     H98255   4.357   4.351   4.125 -0.5092  2.2726 -2.0845
  728MOL0     H98256   4.074   4.212   4.185  0.6871 -0.5672 -3.4828
  728MOL0     H98257   4.137   4.360   4.269 -1.3322 -0.1494 -1.0598
  728MOL0     H98258   4.293   4.112   4.335 -0.8755 -0.5906 -1.3474
  728MOL0     H98259   4.285   4.273   4.401  1.2226 -3.0652  2.7869
  728MOL0     H98260   4.597   4.723   4.115 -0.7529 -1.7058 -2.4732
  728MOL0     H98261   4.683   4.948   4.191  1.6183 -1.7458  1.0626
  728MOL0     H98262   4.955   5.234   4.413 -3.2841 -0.4536  0.5991
  728MOL0     H98263   4.953   5.472   4.494 -2.9458  1.2873 -0.0252
  728MOL0     H98264   6.274   5.820   4.633  1.3481 -0.6653  0.1064
  728MOL0     H98265   6.299   5.588   4.697  0.4603  0.3905 -0.3437
  728MOL0     H98266   5.933   5.130   4.548  0.5420 -3.1648 -1.5296
  728MOL0     H98267   5.930   4.912   4.687  2.5194 -2.4047  1.8421
  728MOL0     H98268   5.897   4.770   5.026 -3.8940  0.0219 -1.0539
  728MOL0     H98269   5.830   4.919   4.959  0.4762  2.5798  0.3030
  728MOL0     H98270   5.867   4.948   5.213 -3.4879  0.5276 -2.9892
  728MOL0     H98271   5.950   5.053   5.098  2.7811 -0.1939 -2.4396
  728MOL0     H98272   6.160   4.909   5.118  2.3492 -2.6860  3.1025
  728MOL0     H98273   6.085   4.803   5.223  0.6546 -1.5557 -0.8625
  728MOL0     H98274   6.053   4.985   5.381  2.4800  0.3513  3.3897
  728MOL0     H98275   6.218   4.958   5.329 -0.9363  1.5298  0.9610
  728MOL0     H98276   6.206   5.358   5.238  2.6012  0.5590 -0.1360
  728MOL0     H98277   6.155   5.118   4.989 -2.8519  2.1856  1.5797
  728MOL0     H98278   6.165   5.334   4.982 -1.2752 -2.6599 -0.4611
  728MOL0     H98279   6.282   5.349   4.847 -0.0794  2.5056  0.0779
  728MOL0     H98280   6.140   5.444   4.832  1.2781  1.5666  0.7267
  729MOL0     O98281   5.343   8.677  10.839  0.1632 -0.0290  0.7067
  729MOL0     C98282   5.425   8.643  10.760 -1.0892  0.5134  0.1307
  729MOL0     O98283   5.465   8.720  10.659  0.7822  0.0871  0.4922
  729MOL0     C98284   5.378   8.813  10.605  0.0815  0.8065 -0.7116
  729MOL0     C98285   5.432   8.920  10.537 -0.3644  0.6183  0.4069
  729MOL0     C98286   5.359   9.003  10.456 -0.4099  0.3601  0.2261
  729MOL0     C98287   5.218   8.998  10.457 -0.6296  0.2023  0.1597
  729MOL0     O98288   5.131   9.076  10.385 -0.1140  0.0767  0.3363
  729MOL0     C98289   5.181   9.169  10.296  1.2466  0.4028 -0.2904
  729MOL0     C98290   5.062   9.215  10.207 -0.5313 -0.4917  1.7062
  729MOL0     C98291   4.987   9.336  10.254  0.3864  0.8828 -0.2453
  729MOL0     C98292   4.928   9.394  10.129 -0.1675 -0.5948  0.1952
  729MOL0     C98293   4.891   9.542  10.154  0.5155 -0.2245  0.0247
  729MOL0     C98294   4.818   9.598  10.037  0.0881  0.7559 -0.0089
  729MOL0     C98295   4.792   9.754  10.066  0.5272  0.0738 -0.2097
  729MOL0     C98296   4.708   9.830   9.960 -1.2869  0.3285  0.4925
  729MOL0     N98297   4.664   9.964   9.997 -0.3408 -0.6280 -0.2386
  729MOL0     C98298   4.611   9.992  10.117 -0.1855 -0.4880  0.4440
  729MOL0     C98299   4.566  10.128  10.114 -0.0729 -0.4041 -0.7761
  729MOL0     C98300   4.514  10.195  10.239 -0.3627  0.4076 -0.2732
  729MOL0     C98301   4.589  10.334  10.259  0.5791  0.4757 -0.1039
  729MOL0     C98302   4.528  10.423  10.354  0.1475 -0.6068  0.2865
  729MOL0     C98303   4.476  10.356  10.479  0.1810 -0.5428  0.3111
  729MOL0     O98304   4.454  10.466  10.572  0.6648  0.2830 -0.4648
  729MOL0     C98305   4.405  10.434  10.698 -1.1521 -0.1113  0.2075
  729MOL0     C98306   4.356  10.540  10.776  0.3369 -0.2100  0.0129
  729MOL0     C98307   4.313  10.520  10.912 -0.0253  0.5250  0.4725
  729MOL0     C98308   4.319  10.391  10.974 -0.1222  0.1924  0.3590
  729MOL0     C98309   4.266  10.366  11.114  0.2061  0.0745  0.5869
  729MOL0     O98310   4.253  10.233  11.147  0.5329  0.0114 -0.4835
  729MOL0     C98311   4.190  10.197  11.265 -0.4443  0.0634 -0.0496
  729MOL0     C98312   4.269  10.204  11.382  0.0420 -0.0972  0.1161
  729MOL0     C98313   4.212  10.158  11.504 -0.0323  1.3029  1.1337
  729MOL0     C98314   4.075  10.113  11.507 -0.5232 -0.7839 -1.0077
  729MOL0     O98315   4.010  10.080  11.619 -0.8844 -0.4888  0.2965
  729MOL0     C98316   4.091  10.034  11.730  0.8540 -1.3019 -0.0647
  729MOL0     C98317   3.999   9.985  11.835 -1.0144  1.4687 -0.3353
  729MOL0     C98318   3.864   9.954  11.785 -0.1841  0.4084  0.1692
  729MOL0     C98319   3.772   9.887  11.882  0.4607  0.3814  0.1166
  729MOL0     C98320   3.621   9.905  11.829 -1.2162 -0.7563 -0.0715
  729MOL0     C98321   3.530   9.806  11.896 -0.1133 -0.2263  0.3252
  729MOL0     C98322   3.391   9.858  11.881 -0.6240 -0.6300 -0.3210
  729MOL0     C98323   3.307   9.732  11.939 -0.1290 -0.3683 -0.8677
  729MOL0    Cl98324   3.295   9.732  12.112 -0.0045  0.5957  0.1147
  729MOL0     C98325   4.001  10.111  11.386 -0.5292  0.1882 -0.2393
  729MOL0     C98326   4.058  10.142  11.273 -0.5170 -0.3569  0.4016
  729MOL0     O98327   4.250  10.462  11.191  0.2506  0.1930 -0.0663
  729MOL0     C98328   4.367  10.290  10.884  0.0902  0.6123  0.0541
  729MOL0     C98329   4.413  10.306  10.756 -0.2094 -0.3499  0.3747
  729MOL0     N98330   4.610  10.176   9.988  0.7617  0.5030 -0.6337
  729MOL0     N98331   4.662  10.078   9.915  0.3019 -0.6107  0.0526
  729MOL0     C98332   5.158   8.898  10.536  0.2274  0.0950 -0.5891
  729MOL0     C98333   5.235   8.804  10.602  0.0596 -0.2308  0.5873
  729MOL0     C98334   5.528   8.539  10.797 -0.0869 -0.4892 -0.7639
  729MOL0     C98335   5.638   8.513  10.709 -0.7800  1.2650 -0.5760
  729MOL0     C98336   5.733   8.410  10.728  0.1533 -1.2398  0.2288
  729MOL0     C98337   5.727   8.320  10.838 -0.4101 -1.1120  0.4413
  729MOL0     O98338   5.806   8.218  10.851  0.4972  0.1928  0.1758
  729MOL0     C98339   5.733   8.094  10.832 -0.5397  0.8887 -0.4018
  729MOL0     C98340   5.800   7.977  10.909 -0.7519 -0.6315 -0.1578
  729MOL0     C98341   5.957   7.968  10.902 -0.5095  0.7994  0.1913
  729MOL0     C98342   5.999   7.824  10.923  0.1878 -0.2325  0.2162
  729MOL0     C98343   5.990   7.796  11.064  0.2640 -0.1402 -0.3594
  729MOL0     C98344   5.994   7.751  11.178 -0.3319 -0.0217  0.1122
  729MOL0     C98345   5.625   8.346  10.928 -0.0262 -0.5884 -0.3820
  729MOL0     C98346   5.528   8.449  10.917  0.1833 -0.2139 -0.2625
  729MOL0     C98347   5.428   8.472  11.026  0.2210 -0.1019 -0.1999
  729MOL0     H98348   5.540   8.919  10.527 -0.2974 -2.2312  0.7171
  729MOL0     H98349   5.429   9.071  10.408  2.4266 -2.3361  0.2548
  729MOL0     H98350   5.216   9.257  10.350 -0.7304  0.3443  1.2295
  729MOL0     H98351   5.251   9.121  10.228  0.3973 -2.2393  0.5887
  729MOL0     H98352   4.996   9.128  10.198 -1.5056  0.0862  2.8945
  729MOL0     H98353   5.118   9.227  10.114  2.2420  2.2515  3.5595
  729MOL0     H98354   5.057   9.412  10.291  2.4199  0.0845 -2.1923
  729MOL0     H98355   4.914   9.310  10.331  1.9511  1.2672  1.4437
  729MOL0     H98356   5.008   9.391  10.054  1.1926 -2.0517  1.6059
  729MOL0     H98357   4.854   9.325  10.088 -0.3752  0.4674 -1.3124
  729MOL0     H98358   4.823   9.556  10.238 -2.5701 -1.8452 -1.9633
  729MOL0     H98359   4.985   9.595  10.171  0.3041  0.5929 -1.2371
  729MOL0     H98360   4.878   9.568   9.950  2.2927 -0.3664  1.8099
  729MOL0     H98361   4.714   9.565  10.034  0.4573 -1.2237  3.7258
  729MOL0     H98362   4.891   9.800  10.070  0.0841  1.0233  0.1118
  729MOL0     H98363   4.736   9.763  10.160 -1.1720  2.0123 -1.3334
  729MOL0     H98364   4.764   9.841   9.867 -0.9445 -0.0495  0.6530
  729MOL0     H98365   4.613   9.776   9.953  0.1742 -2.4399  0.6987
  729MOL0     H98366   4.617   9.927  10.203  0.4307 -1.1813 -0.1068
  729MOL0     H98367   4.405  10.200  10.238 -0.4321  4.0339  2.7455
  729MOL0     H98368   4.533  10.126  10.322  0.2155  0.6272 -0.2169
  729MOL0     H98369   4.695  10.318  10.281  0.8414  1.9078 -0.1682
  729MOL0     H98370   4.603  10.389  10.165 -1.9775 -0.2144 -0.9608
  729MOL0     H98371   4.444  10.464  10.297  0.4113  1.4102  1.2351
  729MOL0     H98372   4.590  10.512  10.370 -1.2728  0.4155  0.3237
  729MOL0     H98373   4.551  10.288  10.519 -0.1067 -0.0618  1.7297
  729MOL0     H98374   4.382  10.302  10.467 -0.6753  0.5097  1.9272
  729MOL0     H98375   4.346  10.632  10.719  0.4030 -0.8184 -1.0098
  729MOL0     H98376   4.295  10.607  10.973  2.6903 -0.0872  2.3275
  729MOL0     H98377   4.376  10.223  11.379  0.5246 -2.4277  0.8315
  729MOL0     H98378   4.261  10.158  11.601  1.7160 -1.0898  0.3459
  729MOL0     H98379   4.158   9.951  11.704 -2.1033 -3.7933 -0.2660
  729MOL0     H98380   4.140  10.111  11.790  0.3477  0.1391 -1.4346
  729MOL0     H98381   4.051   9.895  11.870 -2.8310  0.2256 -0.6982
  729MOL0     H98382   3.986  10.053  11.920 -0.6225  0.1582  0.8123
  729MOL0     H98383   3.819  10.052  11.768  2.0663  1.2565 -1.4218
  729MOL0     H98384   3.847   9.893  11.697 -3.9319 -2.7925  2.7715
  729MOL0     H98385   3.797   9.916  11.985  2.0215 -2.4746  0.6408
  729MOL0     H98386   3.798   9.781  11.881 -0.5831  0.0702  1.6826
  729MOL0     H98387   3.611   9.891  11.720  1.8329 -1.0751 -0.4114
  729MOL0     H98388   3.597  10.009  11.854  1.1679  0.2509 -1.6158
  729MOL0     H98389   3.546   9.701  11.870 -0.2659 -0.3435  0.6952
  729MOL0     H98390   3.542   9.819  12.003 -0.2080 -0.7194  0.3992
  729MOL0     H98391   3.375   9.885  11.776  1.1103 -2.6449 -1.1844
  729MOL0     H98392   3.364   9.940  11.947  1.7521 -1.4534  1.8209
  729MOL0     H98393   3.204   9.742  11.905 -0.8905 -0.4672  1.2733
  729MOL0     H98394   3.345   9.631  11.922 -0.0859 -0.6492  0.7242
  729MOL0     H98395   3.904  10.063  11.389  1.3682 -4.0087 -0.0700
  729MOL0     H98396   3.998  10.132  11.183  0.7429 -0.2921 -0.4777
  729MOL0     H98397   4.346  10.187  10.913  0.3518  0.0982 -1.5109
  729MOL0     H98398   4.454  10.223  10.699  0.1830 -0.3105  0.6000
  729MOL0     H98399   5.050   8.882  10.534  0.2225 -0.1236  0.7973
  729MOL0     H98400   5.190   8.726  10.662  0.6319 -0.5564  0.6065
  729MOL0     H98401   5.664   8.577  10.625  2.7597 -0.3750 -0.8991
  729MOL0     H98402   5.808   8.395  10.651 -0.3101  1.4529 -0.8523
  729MOL0     H98403   5.748   8.084  10.724 -2.7435  1.4592 -0.8249
  729MOL0     H98404   5.626   8.084  10.853 -0.4681 -0.4684 -0.5840
  729MOL0     H98405   5.763   7.885  10.864  0.5012 -1.7284  0.9321
  729MOL0     H98406   5.760   7.962  11.010 -0.2189  0.2451  0.1970
  729MOL0     H98407   5.999   8.031  10.980  0.9866  0.3997 -0.2561
  729MOL0     H98408   5.991   7.998  10.802  1.7631 -0.8554  0.3920
  729MOL0     H98409   5.946   7.744  10.870 -0.3845  0.0448  0.3651
  729MOL0     H98410   6.101   7.819  10.882  0.2063  1.9289 -0.1585
  729MOL0     H98411   6.003   7.717  11.280  1.8329  1.8834  0.6458
  729MOL0     H98412   5.622   8.289  11.020  0.0027 -0.0580 -0.0462
  729MOL0     H98413   5.433   8.390  11.099 -1.3343 -3.1768 -3.2673
  729MOL0     H98414   5.457   8.566  11.074  0.9633 -0.4561  0.0776
  729MOL0     H98415   5.329   8.473  10.980  0.3970 -1.0349 -0.6320
  730MOL0     O98416  10.545   6.536   1.603  0.1669  0.7188 -0.1586
  730MOL0     C98417  10.596   6.554   1.712 -0.5132  0.9430 -0.4095
  730MOL0     O98418  10.575   6.472   1.819  0.3523  0.3166 -0.2147
  730MOL0     C98419  10.478   6.375   1.816 -0.5343 -0.8313  0.1795
  730MOL0     C98420  10.525   6.243   1.814  0.0971 -0.4564 -0.3061
  730MOL0     C98421  10.437   6.136   1.822  0.9108  0.1000  0.0378
  730MOL0     C98422  10.301   6.159   1.842  0.6300 -0.3211  0.4240
  730MOL0     O98423  10.215   6.055   1.876 -0.3826  0.1483  0.8539
  730MOL0     C98424  10.104   6.067   1.963 -0.1786  0.8154 -0.2624
  730MOL0     C98425  10.146   6.086   2.112 -0.1253 -0.4181  0.5298
  730MOL0     C98426  10.214   5.967   2.166  0.4921 -0.4156 -0.5775
  730MOL0     C98427  10.108   5.861   2.191  0.4737  0.3755  0.3024
  730MOL0     C98428  10.163   5.729   2.243  0.3201 -0.9058  0.5212
  730MOL0     C98429  10.266   5.646   2.164  0.4743 -0.2511  0.1849
  730MOL0     C98430  10.281   5.502   2.223 -0.1268 -0.1180 -0.1594
  730MOL0     C98431  10.229   5.478   2.365 -0.2514  0.0659 -0.2538
  730MOL0     N98432  10.287   5.349   2.416  0.5312 -0.0588  0.1330
  730MOL0     C98433  10.420   5.318   2.422  0.1237  0.4309  0.1682
  730MOL0     C98434  10.421   5.190   2.461 -0.9192 -0.3679  0.4433
  730MOL0     C98435  10.546   5.106   2.479 -0.2447 -0.0388 -0.8876
  730MOL0     C98436  10.616   5.057   2.352  0.0995  0.6272 -0.0100
  730MOL0     C98437  10.723   4.951   2.375  0.3409 -0.0630 -0.1401
  730MOL0     C98438  10.781   4.880   2.245  0.3868 -0.7630  0.4324
  730MOL0     O98439  10.845   4.977   2.159  0.0378  0.3305 -0.3714
  730MOL0     C98440  10.892   4.954   2.033  0.1193  0.6795  0.0554
  730MOL0     C98441  10.895   4.832   1.969  0.2371 -0.2530  0.3434
  730MOL0     C98442  10.919   4.816   1.835 -0.2847 -0.6466  0.6804
  730MOL0     C98443  10.966   4.920   1.753 -0.3071  0.7290  0.1608
  730MOL0     C98444  11.028   4.901   1.621  0.0038 -0.5136 -0.1131
  730MOL0     O98445  11.045   4.764   1.584 -0.4567 -0.4545 -0.0342
  730MOL0     C98446  11.123   4.722   1.483 -0.8032 -0.3868  0.3857
  730MOL0     C98447  11.211   4.798   1.400 -0.4603 -0.5131  0.2692
  730MOL0     C98448  11.262   4.733   1.286 -0.1795 -0.2480  0.5743
  730MOL0     C98449  11.234   4.593   1.257  0.5908 -0.6193 -0.3865
  730MOL0     O98450  11.295   4.547   1.147  0.2925  0.0636  0.1624
  730MOL0     C98451  11.247   4.412   1.103 -0.0394 -0.2395 -0.3136
  730MOL0     C98452  11.301   4.364   0.962 -0.2196  0.3645 -0.7534
  730MOL0     C98453  11.283   4.470   0.851  0.1306  0.0576  0.3381
  730MOL0     C98454  11.353   4.414   0.728  0.4562 -0.3015 -0.2063
  730MOL0     C98455  11.370   4.530   0.624 -0.9019  1.0733 -0.2093
  730MOL0     C98456  11.421   4.472   0.498 -0.1848 -0.5527 -0.1530
  730MOL0     C98457  11.425   4.572   0.377 -0.3308 -0.8388  0.5194
  730MOL0     C98458  11.529   4.539   0.271 -0.1604  0.3347  0.7848
  730MOL0    Cl98459  11.478   4.390   0.179  0.5371  0.1178 -0.1347
  730MOL0     C98460  11.169   4.523   1.355  0.0881  0.7010  0.3366
  730MOL0     C98461  11.113   4.584   1.464  0.5122 -0.1665  0.3674
  730MOL0     O98462  11.069   5.002   1.560  0.1754  0.0581 -0.2459
  730MOL0     C98463  10.973   5.042   1.818  0.0415  0.7618  0.4536
  730MOL0     C98464  10.936   5.055   1.954  0.0163  0.1693 -0.4484
  730MOL0     N98465  10.283   5.150   2.492  0.1621 -0.0709 -0.1988
  730MOL0     N98466  10.200   5.241   2.452  0.1424  0.2616  0.5652
  730MOL0     C98467  10.256   6.294   1.833 -0.0864 -0.5223 -0.9057
  730MOL0     C98468  10.344   6.400   1.821 -0.0400  0.3652 -0.0172
  730MOL0     C98469  10.692   6.664   1.737 -0.2248 -1.6216  0.4379
  730MOL0     C98470  10.775   6.657   1.847 -0.7124 -0.4130 -0.9808
  730MOL0     C98471  10.878   6.750   1.857 -0.3204 -0.3647  0.0343
  730MOL0     C98472  10.925   6.838   1.761 -0.4300 -0.7462 -0.4275
  730MOL0     O98473  11.024   6.933   1.771  0.1887 -0.4210  0.2131
  730MOL0     C98474  11.100   6.945   1.891  0.1047  0.5896 -0.0535
  730MOL0     C98475  11.166   7.081   1.887 -0.0361 -0.6417 -0.2702
  730MOL0     C98476  11.283   7.082   1.793 -0.4499 -0.3998 -0.1794
  730MOL0     C98477  11.340   7.232   1.793  0.8164  0.2129 -0.2092
  730MOL0     C98478  11.478   7.250   1.750  0.4601 -0.3601 -0.1170
  730MOL0     C98479  11.597   7.256   1.719 -0.0548  0.1648  0.6559
  730MOL0     C98480  10.836   6.854   1.656  0.3793 -0.5588  0.6010
  730MOL0     C98481  10.726   6.767   1.640 -0.3946  0.6002  0.1411
  730MOL0     C98482  10.626   6.794   1.528 -0.1930  1.8097  0.1407
  730MOL0     H98483  10.633   6.228   1.817  0.2696  0.2971 -1.6005
  730MOL0     H98484  10.464   6.031   1.822 -0.4573 -0.2706  0.1303
  730MOL0     H98485  10.036   6.146   1.930 -1.4242 -0.6848 -1.4161
  730MOL0     H98486  10.040   5.978   1.960 -2.2294  2.1523  1.1444
  730MOL0     H98487  10.060   6.119   2.170  0.6224  1.3607  0.6682
  730MOL0     H98488  10.219   6.167   2.119  1.0989 -1.5265  1.2058
  730MOL0     H98489  10.266   6.002   2.255 -1.3186  1.6374 -0.2467
  730MOL0     H98490  10.286   5.918   2.099 -0.1445 -1.3840 -0.5700
  730MOL0     H98491  10.024   5.905   2.246  0.5244  1.7677 -0.6796
  730MOL0     H98492  10.062   5.833   2.096  3.3675  0.5699 -1.2867
  730MOL0     H98493  10.206   5.750   2.341  0.2897  2.3515 -0.0719
  730MOL0     H98494  10.074   5.666   2.256 -0.2345  0.0303  1.4503
  730MOL0     H98495  10.235   5.628   2.060  1.4653  0.5925 -0.2773
  730MOL0     H98496  10.361   5.698   2.151 -0.4976  1.8546  0.9916
  730MOL0     H98497  10.387   5.475   2.222  0.1010 -0.2279  4.6970
  730MOL0     H98498  10.229   5.427   2.162  1.2249 -0.6773 -0.6613
  730MOL0     H98499  10.254   5.559   2.434 -0.3438 -0.2111  0.1049
  730MOL0     H98500  10.120   5.475   2.357 -0.3403 -0.7914  1.0583
  730MOL0     H98501  10.507   5.364   2.376  0.4940  1.0119  1.4033
  730MOL0     H98502  10.621   5.158   2.540 -1.0868  0.3331 -0.1340
  730MOL0     H98503  10.526   5.011   2.530  2.4305 -1.7667 -2.8230
  730MOL0     H98504  10.540   5.011   2.289  0.3888  0.7869 -0.4845
  730MOL0     H98505  10.662   5.137   2.293  3.1716 -1.4155 -0.6410
  730MOL0     H98506  10.678   4.884   2.448 -0.9480  2.6593  1.7189
  730MOL0     H98507  10.807   5.004   2.419  1.2368 -0.1492 -1.6700
  730MOL0     H98508  10.701   4.826   2.193  0.9430  0.1016 -1.3958
  730MOL0     H98509  10.857   4.809   2.278  1.0044 -0.7810 -0.9695
  730MOL0     H98510  10.855   4.752   2.030 -1.4884  0.5880  0.3566
  730MOL0     H98511  10.908   4.718   1.789  2.4322 -0.6634 -0.1089
  730MOL0     H98512  11.222   4.904   1.420 -1.5811 -0.2232 -0.5341
  730MOL0     H98513  11.332   4.794   1.231 -0.0415  0.2002  1.2285
  730MOL0     H98514  11.266   4.348   1.190  0.6548  2.4294  1.6187
  730MOL0     H98515  11.139   4.424   1.091 -0.5058 -2.5083  1.0431
  730MOL0     H98516  11.410   4.352   0.965 -0.2294  0.3536 -0.3868
  730MOL0     H98517  11.262   4.266   0.934 -2.7299  1.4042 -1.1339
  730MOL0     H98518  11.175   4.472   0.829 -0.3252 -1.4620  2.1897
  730MOL0     H98519  11.319   4.571   0.876  0.8432  0.7882 -3.1501
  730MOL0     H98520  11.278   4.343   0.690  1.1763 -1.9383  1.3190
  730MOL0     H98521  11.444   4.354   0.738 -0.3818 -1.9748 -1.8681
  730MOL0     H98522  11.431   4.613   0.661 -0.9396  1.3134 -0.6826
  730MOL0     H98523  11.277   4.581   0.595 -0.0655  0.2004 -5.3210
  730MOL0     H98524  11.524   4.443   0.520 -0.3509 -1.0726 -0.0666
  730MOL0     H98525  11.362   4.387   0.465  1.6338 -1.8419 -0.2542
  730MOL0     H98526  11.433   4.680   0.397 -0.5927 -0.6514 -0.3091
  730MOL0     H98527  11.327   4.567   0.328 -0.3526 -0.2855  0.4974
  730MOL0     H98528  11.543   4.618   0.197  0.0288 -0.8646 -0.5084
  730MOL0     H98529  11.620   4.518   0.328 -0.1609 -1.0906  0.3087
  730MOL0     H98530  11.153   4.415   1.357 -0.7282  0.7895  2.8198
  730MOL0     H98531  11.060   4.527   1.539  2.4485  2.2030  3.7999
  730MOL0     H98532  11.007   5.127   1.760 -1.8301  1.2048 -0.0721
  730MOL0     H98533  10.932   5.151   2.005  0.9557 -0.3273  0.6103
  730MOL0     H98534  10.153   6.317   1.857 -0.3141 -2.5543  0.3490
  730MOL0     H98535  10.295   6.497   1.824 -2.9988 -1.0533  0.8395
  730MOL0     H98536  10.759   6.598   1.936 -0.9493  1.0500 -0.0188
  730MOL0     H98537  10.938   6.736   1.946 -1.7715 -1.2954  0.9011
  730MOL0     H98538  11.176   6.867   1.896 -0.6171 -0.5402 -3.6949
  730MOL0     H98539  11.046   6.940   1.986  2.5868 -1.8964  1.3715
  730MOL0     H98540  11.193   7.113   1.988  0.0043 -2.6419  0.4041
  730MOL0     H98541  11.086   7.147   1.854 -2.6282 -1.8640  3.0302
  730MOL0     H98542  11.251   7.048   1.694 -2.8390 -0.3650  0.5135
  730MOL0     H98543  11.364   7.013   1.820  3.2672  3.0449 -1.5738
  730MOL0     H98544  11.282   7.299   1.729  2.7104  2.1714 -0.0209
  730MOL0     H98545  11.331   7.282   1.890  1.3149 -1.0280  0.4935
  730MOL0     H98546  11.698   7.243   1.687 -0.3373 -1.1972  0.2542
  730MOL0     H98547  10.862   6.933   1.586  1.8157  0.3952  2.1358
  730MOL0     H98548  10.641   6.895   1.488  1.6945  1.1787 -0.8356
  730MOL0     H98549  10.638   6.729   1.441  1.1486  0.6113  1.1905
  730MOL0     H98550  10.527   6.782   1.573  0.0470 -5.4301 -0.1820
  731MOL0     O98551   3.341   8.422   2.889 -0.0726 -0.1828  0.2607
  731MOL0     C98552   3.432   8.373   2.826  0.8713  0.2073 -0.4462
  731MOL0     O98553   3.418   8.269   2.739  0.3201  0.5349  0.3519
  731MOL0     C98554   3.297   8.212   2.702  0.3059  0.5286 -0.7971
  731MOL0     C98555   3.183   8.274   2.650  0.9097 -0.0708  0.0765
  731MOL0     C98556   3.075   8.190   2.613  0.0952 -0.3511 -1.0504
  731MOL0     C98557   3.089   8.046   2.636 -0.4885 -0.2871  0.1272
  731MOL0     O98558   2.995   7.945   2.605  0.3031 -0.5339 -0.5548
  731MOL0     C98559   2.853   7.971   2.604  0.1768 -0.2649 -0.2706
  731MOL0     C98560   2.806   8.019   2.737  0.0229  0.1461 -0.7045
  731MOL0     C98561   2.803   7.911   2.850  0.4993  0.4945 -0.8677
  731MOL0     C98562   2.686   7.807   2.827 -0.3948 -0.3457 -0.1888
  731MOL0     C98563   2.634   7.774   2.972 -0.3518 -0.2595  1.2509
  731MOL0     C98564   2.497   7.695   2.973 -0.6250  0.6779 -0.3504
  731MOL0     C98565   2.374   7.761   2.928 -0.4190  0.1965  0.4491
  731MOL0     C98566   2.247   7.659   2.933  0.1590  0.3557  0.1361
  731MOL0     N98567   2.213   7.620   3.069  0.0358 -0.5565  0.4938
  731MOL0     C98568   2.135   7.513   3.104 -1.0085  0.5991  1.0804
  731MOL0     C98569   2.137   7.518   3.238 -0.7361 -0.4453  0.3577
  731MOL0     C98570   2.093   7.414   3.335 -0.4250  0.6917 -0.0872
  731MOL0     C98571   2.176   7.280   3.340  0.0536  0.1084 -0.1843
  731MOL0     C98572   2.188   7.212   3.211  0.1037  0.3836 -0.4879
  731MOL0     C98573   2.256   7.077   3.228 -0.4765 -0.9481  0.3329
  731MOL0     O98574   2.291   7.019   3.097 -0.0421  0.2262 -0.0824
  731MOL0     C98575   2.356   7.092   3.012  0.2110 -0.7933  0.2845
  731MOL0     C98576   2.298   7.109   2.885  0.3641  0.2061 -0.3879
  731MOL0     C98577   2.361   7.172   2.783 -0.0945 -0.2055  0.0027
  731MOL0     C98578   2.490   7.240   2.803 -0.3258  0.2766 -0.0880
  731MOL0     C98579   2.556   7.300   2.691 -0.2453  0.2584 -0.1159
  731MOL0     O98580   2.520   7.277   2.567  1.2036 -0.0706 -0.6018
  731MOL0     C98581   2.600   7.314   2.465 -0.2476  0.1378  0.5610
  731MOL0     C98582   2.618   7.218   2.365 -0.8404 -0.2839 -0.0245
  731MOL0     C98583   2.693   7.256   2.253 -0.0045 -0.6633  0.3623
  731MOL0     C98584   2.745   7.383   2.227 -0.2156 -1.4304  1.2177
  731MOL0     O98585   2.824   7.415   2.111 -0.2699  0.1166  0.3208
  731MOL0     C98586   2.893   7.317   2.030  0.5592  0.5905 -0.4461
  731MOL0     C98587   2.935   7.389   1.896  0.3819  1.2475  0.3196
  731MOL0     C98588   2.996   7.281   1.795 -0.6531 -0.5001 -0.9643
  731MOL0     C98589   3.050   7.355   1.688 -0.5095 -0.1630  0.3360
  731MOL0     C98590   3.141   7.275   1.587  0.4332 -0.1016  0.1424
  731MOL0     C98591   3.238   7.361   1.503 -0.1411  0.3653 -0.2942
  731MOL0     C98592   3.244   7.315   1.358 -0.6041 -0.6546 -0.8627
  731MOL0     C98593   3.381   7.363   1.291 -0.4842 -0.4437 -0.3196
  731MOL0    Cl98594   3.352   7.337   1.117 -0.2651 -0.3545 -0.1845
  731MOL0     C98595   2.702   7.479   2.320 -0.5534 -0.0893  0.1769
  731MOL0     C98596   2.637   7.448   2.442 -0.3619  0.4147  0.1182
  731MOL0     O98597   2.652   7.368   2.715 -0.0420 -0.0216 -0.1748
  731MOL0     C98598   2.553   7.226   2.933  0.1235  0.4951  0.5722
  731MOL0     C98599   2.493   7.143   3.037 -0.5898 -0.3769  0.7448
  731MOL0     N98600   2.196   7.634   3.285 -0.0272 -0.0524  0.4698
  731MOL0     N98601   2.257   7.686   3.183 -1.3523 -0.1186  0.1771
  731MOL0     C98602   3.201   7.990   2.675  0.6013  0.2852  0.2933
  731MOL0     C98603   3.308   8.070   2.705 -0.0864 -0.0111 -1.4354
  731MOL0     C98604   3.566   8.421   2.873 -0.4123  0.6935  0.4691
  731MOL0     C98605   3.669   8.371   2.791  0.0996 -0.1063  0.8386
  731MOL0     C98606   3.797   8.404   2.812  0.9117  0.0249 -0.1518
  731MOL0     C98607   3.838   8.501   2.904  0.5829 -0.2413 -0.0910
  731MOL0     O98608   3.967   8.546   2.931 -0.8912 -0.2045  0.0180
  731MOL0     C98609   4.072   8.522   2.832 -0.0464  0.1223  0.2861
  731MOL0     C98610   4.131   8.378   2.828  0.3716  0.1194  0.7709
  731MOL0     C98611   4.181   8.338   2.963  0.5049  0.7092  0.8447
  731MOL0     C98612   4.214   8.180   2.972  0.4920  0.5052 -0.9718
  731MOL0     C98613   4.313   8.127   2.878  0.2874  0.1035 -0.7606
  731MOL0     C98614   4.390   8.084   2.792 -0.5347  0.1140  0.0792
  731MOL0     C98615   3.730   8.556   2.983 -0.0767 -0.5443 -0.1402
  731MOL0     C98616   3.596   8.517   2.970  0.1267  0.3611 -0.3620
  731MOL0     C98617   3.500   8.591   3.060 -0.5093  0.1110 -0.0232
  731MOL0     H98618   3.164   8.380   2.660 -0.5934 -0.3653  0.6852
  731MOL0     H98619   2.983   8.241   2.585  0.2131  1.1401  1.1071
  731MOL0     H98620   2.843   8.057   2.538  2.3059  2.4443  2.6289
  731MOL0     H98621   2.790   7.886   2.577  1.1149 -1.3856  0.9384
  731MOL0     H98622   2.705   8.059   2.734 -0.1466 -0.2314 -0.2465
  731MOL0     H98623   2.867   8.108   2.753  1.2788 -0.6287 -1.0273
  731MOL0     H98624   2.789   7.976   2.936  1.8090  0.7431 -0.8326
  731MOL0     H98625   2.901   7.864   2.853  1.1868  1.9509  0.7230
  731MOL0     H98626   2.602   7.855   2.775  0.9453  5.7158  2.3052
  731MOL0     H98627   2.723   7.719   2.774  0.7713  1.0189 -1.7690
  731MOL0     H98628   2.721   7.717   3.007  1.2106  0.2170 -1.5140
  731MOL0     H98629   2.612   7.862   3.033 -1.8518  0.2874  0.0011
  731MOL0     H98630   2.504   7.600   2.918 -0.6625  0.2824  0.3107
  731MOL0     H98631   2.474   7.672   3.078 -1.7498  1.8085 -0.3375
  731MOL0     H98632   2.389   7.787   2.823  4.2692 -0.5502  0.7315
  731MOL0     H98633   2.348   7.841   2.998 -2.6322  0.8220 -1.0012
  731MOL0     H98634   2.162   7.700   2.876  0.2038  0.5256  0.1927
  731MOL0     H98635   2.271   7.561   2.890  3.2871  0.6055  1.1100
  731MOL0     H98636   2.100   7.430   3.043  2.7224 -2.2925  2.5115
  731MOL0     H98637   2.101   7.452   3.437  0.1767 -2.3078  1.0836
  731MOL0     H98638   1.989   7.393   3.307 -0.7741  2.9526 -0.6884
  731MOL0     H98639   2.273   7.298   3.387 -0.7738  1.4145  1.1220
  731MOL0     H98640   2.126   7.215   3.413 -0.4152 -0.1878 -0.7539
  731MOL0     H98641   2.245   7.281   3.148  1.8544  0.7452  1.4257
  731MOL0     H98642   2.092   7.179   3.169 -0.4790  0.0256  1.0565
  731MOL0     H98643   2.198   7.013   3.295 -0.5487  0.7962  2.0256
  731MOL0     H98644   2.355   7.088   3.273 -0.1874 -6.0876  1.6252
  731MOL0     H98645   2.208   7.056   2.858  0.3324 -0.5136  1.0364
  731MOL0     H98646   2.304   7.169   2.691  0.6259 -2.1170 -0.4404
  731MOL0     H98647   2.580   7.117   2.374  0.8750 -0.7945  2.4597
  731MOL0     H98648   2.707   7.180   2.177  0.7163  0.2060 -0.4040
  731MOL0     H98649   2.984   7.303   2.088  0.4584 -0.5145 -0.5376
  731MOL0     H98650   2.842   7.222   2.014 -2.6200  2.1348 -0.1900
  731MOL0     H98651   2.848   7.435   1.848 -0.3979  3.0531  3.2175
  731MOL0     H98652   3.009   7.465   1.924 -0.4440  2.3816 -0.4700
  731MOL0     H98653   3.074   7.225   1.848 -1.4435 -1.7834 -1.0926
  731MOL0     H98654   2.926   7.209   1.751  0.6750 -1.5834 -1.3947
  731MOL0     H98655   3.114   7.437   1.721 -0.9096  1.2067 -2.0313
  731MOL0     H98656   2.975   7.406   1.626 -0.1882 -1.0704 -0.8323
  731MOL0     H98657   3.070   7.231   1.516  0.3326  1.8680 -1.0541
  731MOL0     H98658   3.204   7.202   1.638  0.5095 -0.7044 -0.7812
  731MOL0     H98659   3.213   7.468   1.508 -1.4795  0.0954 -0.7155
  731MOL0     H98660   3.340   7.345   1.539 -0.0197  2.3970  0.3908
  731MOL0     H98661   3.164   7.361   1.300 -1.3438  0.4514  0.9534
  731MOL0     H98662   3.233   7.206   1.360  2.0302 -1.0194  2.4233
  731MOL0     H98663   3.411   7.461   1.329  0.6246 -0.8979  0.0199
  731MOL0     H98664   3.463   7.297   1.321  1.7347  1.1269 -2.6349
  731MOL0     H98665   2.726   7.585   2.313  2.5367 -0.7656 -1.5828
  731MOL0     H98666   2.606   7.526   2.510  0.0470  2.3738 -1.8078
  731MOL0     H98667   2.653   7.267   2.950  0.8095 -1.6637  2.1892
  731MOL0     H98668   2.545   7.128   3.131 -1.3938 -1.3480  1.0458
  731MOL0     H98669   3.205   7.882   2.682 -1.8754  0.2073  2.0741
  731MOL0     H98670   3.400   8.030   2.747  1.6801  2.7049 -2.3737
  731MOL0     H98671   3.643   8.313   2.703 -0.5296 -0.6195  1.3575
  731MOL0     H98672   3.876   8.350   2.760 -0.7863 -0.7672 -2.0442
  731MOL0     H98673   4.155   8.591   2.851 -0.2742 -0.3914  4.0491
  731MOL0     H98674   4.026   8.525   2.733 -0.7335 -4.4936  0.2663
  731MOL0     H98675   4.215   8.381   2.757 -0.0301  1.3783  0.3304
  731MOL0     H98676   4.063   8.302   2.790  0.1669  0.7878 -0.2259
  731MOL0     H98677   4.103   8.364   3.036 -1.3021  0.4267 -0.8936
  731MOL0     H98678   4.282   8.378   2.978  2.0488 -2.7509  0.4925
  731MOL0     H98679   4.267   8.172   3.067  3.5359  3.2052 -2.2199
  731MOL0     H98680   4.124   8.118   2.970  0.6782  0.1930 -3.5180
  731MOL0     H98681   4.448   8.021   2.727 -0.6751  0.6551 -0.5756
  731MOL0     H98682   3.764   8.632   3.053 -1.1576  0.7344 -0.9482
  731MOL0     H98683   3.436   8.663   3.008 -2.1063 -2.4620 -1.8622
  731MOL0     H98684   3.432   8.518   3.106 -0.0554 -0.0874  0.3439
  731MOL0     H98685   3.542   8.644   3.146 -1.3673  0.7313  0.0368
  732MOL0     O98686   8.892   0.636   2.260  0.2103  0.2007  0.4970
  732MOL0     C98687   8.796   0.694   2.304 -0.2487  0.5092  0.0543
  732MOL0     O98688   8.747   0.813   2.271 -0.9465 -0.5419  0.1723
  732MOL0     C98689   8.796   0.898   2.171  0.7522 -0.0728 -1.3649
  732MOL0     C98690   8.843   1.021   2.212 -0.5130  0.0210  1.2991
  732MOL0     C98691   8.898   1.102   2.111 -0.1810 -0.1641  0.2877
  732MOL0     C98692   8.889   1.070   1.977 -0.0029  0.4640 -0.1423
  732MOL0     O98693   8.957   1.153   1.887 -0.3137  0.0353  0.5079
  732MOL0     C98694   8.904   1.141   1.757 -0.2301  1.0482 -0.2233
  732MOL0     C98695   8.931   1.248   1.653 -0.3615 -0.3492  0.2578
  732MOL0     C98696   9.081   1.297   1.647  0.3952  0.3637 -0.2587
  732MOL0     C98697   9.171   1.183   1.622  0.8075  0.1800  0.2833
  732MOL0     C98698   9.192   1.162   1.468 -0.7990 -0.2568 -0.2690
  732MOL0     C98699   9.279   1.039   1.446  0.6288 -0.5093  0.3960
  732MOL0     C98700   9.311   1.016   1.301 -0.0771  0.4097 -0.3111
  732MOL0     C98701   9.425   0.906   1.279  0.0034  0.2408 -0.8579
  732MOL0     N98702   9.373   0.775   1.296  0.1289 -0.0491 -0.3146
  732MOL0     C98703   9.377   0.702   1.409 -0.4637 -0.4117  0.5213
  732MOL0     C98704   9.314   0.585   1.380 -0.1033 -0.8181  0.7101
  732MOL0     C98705   9.250   0.492   1.482 -0.3469 -0.2184 -0.3844
  732MOL0     C98706   9.175   0.369   1.408 -0.6861 -0.6396 -0.0914
  732MOL0     C98707   9.125   0.259   1.515  0.7289 -0.1230 -0.0973
  732MOL0     C98708   8.978   0.272   1.561  0.0234  0.0819  0.4427
  732MOL0     O98709   8.892   0.242   1.450 -0.2872  0.0022  0.1543
  732MOL0     C98710   8.827   0.117   1.451 -0.1109  1.6675  0.4474
  732MOL0     C98711   8.865   0.009   1.524 -0.2634  0.6429  0.4046
  732MOL0     C98712   8.804  -0.120   1.519 -0.0979 -0.7845 -0.7255
  732MOL0     C98713   8.712  -0.144   1.414 -0.6646 -0.5795 -0.4144
  732MOL0     C98714   8.649  -0.276   1.399  0.4193 -0.1043  0.5325
  732MOL0     O98715   8.570  -0.316   1.287 -0.1108 -1.0059 -0.9838
  732MOL0     C98716   8.488  -0.425   1.287  0.0598 -0.0667 -0.0478
  732MOL0     C98717   8.392  -0.449   1.381 -0.1773 -0.0003 -0.6629
  732MOL0     C98718   8.308  -0.560   1.383  0.5538  0.6878 -0.0578
  732MOL0     C98719   8.324  -0.661   1.284 -0.2846  0.2314 -0.0507
  732MOL0     O98720   8.264  -0.782   1.299  0.4572  0.6154  0.0377
  732MOL0     C98721   8.231  -0.864   1.194  0.0516  0.5076  0.1074
  732MOL0     C98722   8.124  -0.956   1.254 -0.0240 -0.4114  0.1577
  732MOL0     C98723   8.062  -1.054   1.141  0.2410  0.2160  0.0526
  732MOL0     C98724   7.971  -1.145   1.231 -0.5097 -1.1818  0.2257
  732MOL0     C98725   7.898  -1.256   1.162 -0.3929 -0.5802 -0.2128
  732MOL0     C98726   7.752  -1.213   1.142 -0.3985 -0.9003 -0.2506
  732MOL0     C98727   7.673  -1.319   1.072 -0.1294  0.2594  0.0721
  732MOL0     C98728   7.537  -1.256   1.036  0.2766 -0.2372 -0.7336
  732MOL0    Cl98729   7.443  -1.374   0.933  0.2189 -0.2684 -0.1386
  732MOL0     C98730   8.419  -0.634   1.188  0.0240  0.2754  0.0456
  732MOL0     C98731   8.499  -0.516   1.186  0.8491  0.3626  0.0816
  732MOL0     O98732   8.666  -0.351   1.500 -0.8490  0.9957  0.7082
  732MOL0     C98733   8.682  -0.040   1.331  0.4271  0.0306  0.1226
  732MOL0     C98734   8.734   0.091   1.349  0.1085  0.6766  0.8142
  732MOL0     N98735   9.267   0.601   1.248 -0.8009  0.0892  0.0622
  732MOL0     N98736   9.296   0.718   1.208 -0.0168 -0.7287  0.8326
  732MOL0     C98737   8.833   0.946   1.947 -1.0585  1.1605 -0.0094
  732MOL0     C98738   8.776   0.864   2.040 -0.4418  0.6501 -0.1566
  732MOL0     C98739   8.714   0.615   2.395 -0.3768 -0.3357 -0.2128
  732MOL0     C98740   8.576   0.639   2.385  0.6474  0.3413 -0.5030
  732MOL0     C98741   8.481   0.569   2.452  0.8613  1.0979 -0.5708
  732MOL0     C98742   8.521   0.465   2.539 -0.6584 -0.0992 -0.9037
  732MOL0     O98743   8.434   0.392   2.608 -0.1717  0.2301 -0.0895
  732MOL0     C98744   8.291   0.410   2.598  0.8349  0.6458  0.1280
  732MOL0     C98745   8.241   0.372   2.462 -0.3183  0.3738  0.0269
  732MOL0     C98746   8.145   0.245   2.460  0.1612 -0.4853  0.5469
  732MOL0     C98747   8.098   0.191   2.319  0.1517 -0.2165  0.5943
  732MOL0     C98748   8.034   0.298   2.232  0.1105  0.6866 -0.5879
  732MOL0     C98749   7.990   0.381   2.160 -0.9030 -0.4457 -0.3139
  732MOL0     C98750   8.667   0.439   2.562  0.6350 -0.1959 -0.0233
  732MOL0     C98751   8.761   0.506   2.484 -0.2198 -0.3411 -0.2138
  732MOL0     C98752   8.909   0.471   2.508  0.3122  0.8506  0.3424
  732MOL0     H98753   8.840   1.047   2.317 -1.0692  1.2798  0.9811
  732MOL0     H98754   8.935   1.197   2.148 -3.1612  1.1515  0.1837
  732MOL0     H98755   8.938   1.045   1.718 -0.5251 -2.0666  6.0532
  732MOL0     H98756   8.795   1.136   1.771 -0.0589 -0.0425  0.7911
  732MOL0     H98757   8.867   1.330   1.684 -2.4507 -1.4965 -0.7667
  732MOL0     H98758   8.908   1.210   1.553  0.9291 -1.9184  0.5074
  732MOL0     H98759   9.107   1.345   1.741  0.7040 -2.4460  1.2107
  732MOL0     H98760   9.092   1.373   1.569 -3.2368  2.3727  0.9180
  732MOL0     H98761   9.264   1.191   1.680  1.2334 -1.2559 -0.1573
  732MOL0     H98762   9.125   1.089   1.655 -0.2351  0.1206 -1.2471
  732MOL0     H98763   9.093   1.153   1.421 -4.0607  1.1896  5.3154
  732MOL0     H98764   9.251   1.247   1.435  2.7247 -3.0135 -1.7341
  732MOL0     H98765   9.371   1.056   1.503 -0.5032  3.4391  1.3453
  732MOL0     H98766   9.224   0.956   1.491  1.1360 -1.0411  0.0522
  732MOL0     H98767   9.347   1.111   1.261  2.9749  0.0979  1.3376
  732MOL0     H98768   9.223   0.976   1.250 -1.6347 -0.4785  2.8229
  732MOL0     H98769   9.469   0.927   1.181 -0.1106  2.5361 -0.4829
  732MOL0     H98770   9.502   0.910   1.357  0.3380 -0.7120 -1.1209
  732MOL0     H98771   9.433   0.733   1.497  2.4516  1.1929 -1.6884
  732MOL0     H98772   9.320   0.470   1.563 -2.3129 -1.9663  0.9804
  732MOL0     H98773   9.187   0.572   1.522  2.8513  2.4419 -0.2253
  732MOL0     H98774   9.086   0.412   1.360 -2.9215 -1.3080  3.1533
  732MOL0     H98775   9.245   0.325   1.336  1.4655  1.2787  0.7257
  732MOL0     H98776   9.189   0.250   1.603 -0.9974 -0.4475  1.1698
  732MOL0     H98777   9.132   0.162   1.466  0.3993 -1.0995  1.7148
  732MOL0     H98778   8.964   0.374   1.598 -1.1982  0.0596  0.1036
  732MOL0     H98779   8.952   0.208   1.646 -0.9526 -0.3742 -0.1749
  732MOL0     H98780   8.960   0.016   1.578  0.3461 -0.0808 -0.5411
  732MOL0     H98781   8.835  -0.196   1.589  1.8095  0.0768 -0.5688
  732MOL0     H98782   8.381  -0.378   1.462  1.7771 -1.5091  1.0257
  732MOL0     H98783   8.254  -0.567   1.477  0.9727  4.2366  0.5773
  732MOL0     H98784   8.190  -0.811   1.108 -2.0607 -2.2050 -0.7092
  732MOL0     H98785   8.324  -0.911   1.163 -0.3185  0.7154 -1.3805
  732MOL0     H98786   8.172  -1.020   1.329 -2.3552 -3.0058 -0.4301
  732MOL0     H98787   8.050  -0.902   1.314  0.0415 -0.7695  0.5654
  732MOL0     H98788   8.003  -1.010   1.060 -2.1849 -0.8596  1.1542
  732MOL0     H98789   8.139  -1.124   1.108 -0.2773 -1.6956  2.6253
  732MOL0     H98790   7.906  -1.091   1.300  0.9127  0.5235  0.2832
  732MOL0     H98791   8.050  -1.195   1.288 -0.1228  0.8822  1.5975
  732MOL0     H98792   7.892  -1.347   1.223 -0.3632 -1.3734 -1.3596
  732MOL0     H98793   7.954  -1.278   1.071  1.8697 -1.0944  1.2154
  732MOL0     H98794   7.701  -1.192   1.236 -0.5232  0.9179 -0.6890
  732MOL0     H98795   7.761  -1.123   1.081 -1.9275 -1.3880 -1.2546
  732MOL0     H98796   7.666  -1.410   1.132  1.3907 -0.4912 -0.8179
  732MOL0     H98797   7.719  -1.349   0.978  0.3289 -1.6729  0.8608
  732MOL0     H98798   7.468  -1.232   1.117 -1.7153 -0.3115 -2.3189
  732MOL0     H98799   7.531  -1.156   0.992 -2.2569  0.2958  0.6098
  732MOL0     H98800   8.417  -0.705   1.105 -3.2499 -0.1139  0.3310
  732MOL0     H98801   8.573  -0.504   1.108  2.1659  0.6148  1.3268
  732MOL0     H98802   8.610  -0.050   1.250  0.5497  2.5306 -0.3896
  732MOL0     H98803   8.701   0.170   1.283 -3.4461  0.6700  2.3450
  732MOL0     H98804   8.814   0.913   1.845  2.2063  1.2848 -0.7650
  732MOL0     H98805   8.715   0.777   2.016 -3.2304  1.6009  2.8562
  732MOL0     H98806   8.544   0.719   2.320  2.5721  1.9185  0.3733
  732MOL0     H98807   8.379   0.595   2.428  0.4999 -1.7387 -2.6095
  732MOL0     H98808   8.274   0.516   2.622  2.4083  0.8046  0.6798
  732MOL0     H98809   8.258   0.347   2.681  2.7585  0.4499  0.7992
  732MOL0     H98810   8.320   0.353   2.389  0.7159 -3.2898  1.7925
  732MOL0     H98811   8.178   0.453   2.425 -1.5452  0.2772  1.7522
  732MOL0     H98812   8.054   0.281   2.508  0.8244 -0.1630  1.5888
  732MOL0     H98813   8.190   0.171   2.527 -0.7265  1.6920  3.7418
  732MOL0     H98814   8.189   0.157   2.268  0.2502 -1.1102  1.3244
  732MOL0     H98815   8.028   0.108   2.332  1.9232 -1.5812  1.9555
  732MOL0     H98816   7.943   0.442   2.085 -0.9179 -1.8876 -1.5326
  732MOL0     H98817   8.701   0.367   2.636  2.7006  0.1157 -0.6003
  732MOL0     H98818   8.938   0.441   2.609 -1.1026  0.1569  0.5670
  732MOL0     H98819   8.941   0.406   2.427  3.3211  0.3610  1.7497
  732MOL0     H98820   8.964   0.566   2.497  3.8421 -0.9515  0.8471
  733MOL0     O98821  10.947   5.224   5.944 -0.1573  0.1124  0.7298
  733MOL0     C98822  11.051   5.159   5.916 -0.4223 -0.8971  0.0041
  733MOL0     O98823  11.179   5.206   5.948  0.1224 -0.9274 -0.6892
  733MOL0     C98824  11.203   5.306   6.047  0.0312 -1.0837 -0.8147
  733MOL0     C98825  11.338   5.348   6.070  0.2318 -0.5426 -0.5901
  733MOL0     C98826  11.371   5.446   6.168  0.2229 -0.5379  0.6649
  733MOL0     C98827  11.275   5.512   6.247  0.4778  0.1474 -0.0421
  733MOL0     O98828  11.325   5.608   6.332  0.1366 -0.3536 -0.2054
  733MOL0     C98829  11.221   5.681   6.403  0.0685  0.4703  0.2906
  733MOL0     C98830  11.263   5.769   6.516 -0.2435  0.0065  0.3678
  733MOL0     C98831  11.350   5.889   6.476  0.0677 -0.1107  0.8718
  733MOL0     C98832  11.395   5.968   6.600 -0.4243 -0.6433 -0.4971
  733MOL0     C98833  11.479   6.100   6.577 -0.2759  0.0265 -0.5074
  733MOL0     C98834  11.544   6.142   6.706 -1.1724  0.1643  0.0918
  733MOL0     C98835  11.666   6.236   6.700 -0.8419 -0.3156  0.0650
  733MOL0     C98836  11.619   6.359   6.626  0.1088  0.0216 -0.7905
  733MOL0     N98837  11.730   6.443   6.617  1.0895 -0.3765  0.0855
  733MOL0     C98838  11.823   6.437   6.513 -1.0948 -0.9011 -0.2632
  733MOL0     C98839  11.899   6.548   6.521  0.6322 -0.4764  0.0482
  733MOL0     C98840  11.995   6.602   6.414  0.4411 -0.7788  1.0360
  733MOL0     C98841  12.137   6.622   6.461  0.2041  0.2479  0.0128
  733MOL0     C98842  12.142   6.751   6.543  0.1973  1.0977  0.5920
  733MOL0     C98843  12.286   6.790   6.582 -0.3787 -0.7540  0.3830
  733MOL0     O98844  12.363   6.694   6.643 -0.0751  0.4935 -0.2405
  733MOL0     C98845  12.490   6.717   6.698  0.8982 -0.0654 -1.0740
  733MOL0     C98846  12.548   6.837   6.687 -0.2778 -0.5876 -0.0574
  733MOL0     C98847  12.678   6.855   6.731 -0.0414  0.6570  0.5980
  733MOL0     C98848  12.758   6.747   6.763  0.6902  0.2417 -0.3203
  733MOL0     C98849  12.910   6.776   6.773  0.7590 -0.3113 -0.4849
  733MOL0     O98850  12.964   6.886   6.730  0.2036  0.6728  0.1723
  733MOL0     C98851  13.099   6.910   6.727  0.0959  0.4333 -0.0907
  733MOL0     C98852  13.168   6.930   6.851 -0.2491 -0.4837  0.8771
  733MOL0     C98853  13.304   6.962   6.850  0.2550 -0.1552 -0.3528
  733MOL0     C98854  13.371   6.957   6.725  0.7269 -0.6341  0.2540
  733MOL0     O98855  13.508   6.981   6.724 -0.5453  0.5342 -0.3702
  733MOL0     C98856  13.582   6.924   6.612 -0.3408 -0.0965 -0.7780
  733MOL0     C98857  13.723   6.895   6.663 -0.6647  0.6029  0.5363
  733MOL0     C98858  13.732   6.777   6.756 -0.3848 -0.6549 -1.0494
  733MOL0     C98859  13.875   6.766   6.810 -0.1481 -0.8593 -0.1566
  733MOL0     C98860  13.984   6.754   6.702  0.4164 -0.0831 -0.6718
  733MOL0     C98861  14.134   6.733   6.749  0.0680  0.1118 -0.2965
  733MOL0     C98862  14.212   6.640   6.653 -0.0840  0.1696  0.1469
  733MOL0     C98863  14.348   6.596   6.717  0.7261  0.6447 -0.4173
  733MOL0    Cl98864  14.448   6.744   6.737 -0.2535 -0.4032  0.2396
  733MOL0     C98865  13.301   6.935   6.603 -0.2210  0.7420 -0.7545
  733MOL0     C98866  13.164   6.912   6.612 -0.7851  0.0356  0.2870
  733MOL0     O98867  12.957   6.695   6.855 -0.5496  0.0527  1.1407
  733MOL0     C98868  12.692   6.619   6.778 -0.5737 -0.1522 -0.1084
  733MOL0     C98869  12.558   6.606   6.750  0.5814 -0.0471  0.7023
  733MOL0     N98870  11.853   6.604   6.640  0.9896 -0.6487 -0.0063
  733MOL0     N98871  11.753   6.541   6.701  0.0539  0.5995 -0.5075
  733MOL0     C98872  11.134   5.488   6.209 -0.7728  0.9723  0.3775
  733MOL0     C98873  11.104   5.381   6.120 -0.6073  0.0406  0.3531
  733MOL0     C98874  11.050   5.027   5.850 -0.8388  0.5318 -0.2430
  733MOL0     C98875  11.175   4.989   5.802  0.5216 -0.3076 -0.2969
  733MOL0     C98876  11.177   4.884   5.716 -0.0437  0.2099 -0.4339
  733MOL0     C98877  11.061   4.822   5.668 -0.1730 -0.5232 -0.5105
  733MOL0     O98878  11.078   4.730   5.561 -0.2730 -0.3105  0.0868
  733MOL0     C98879  11.003   4.608   5.581  0.0456  0.1194 -0.9705
  733MOL0     C98880  11.082   4.485   5.525 -0.4889  0.1743 -0.8664
  733MOL0     C98881  11.111   4.478   5.383  0.0468  0.2995  0.6990
  733MOL0     C98882  11.194   4.353   5.344  0.2859 -1.0227  0.0268
  733MOL0     C98883  11.219   4.351   5.200  1.0809  0.3927  0.2147
  733MOL0     C98884  11.267   4.350   5.088  0.5352 -0.1630  0.3166
  733MOL0     C98885  10.940   4.859   5.719  0.4122  0.1687 -0.3237
  733MOL0     C98886  10.929   4.959   5.818 -0.6592  0.5681 -0.5103
  733MOL0     C98887  10.789   5.000   5.874  0.5149  0.6426 -0.2165
  733MOL0     H98888  11.418   5.298   6.015  2.3311  0.7191  1.1381
  733MOL0     H98889  11.478   5.461   6.177  0.2004 -0.0493  0.1420
  733MOL0     H98890  11.172   5.738   6.323 -3.5616 -1.1362  1.1407
  733MOL0     H98891  11.147   5.611   6.443 -1.7499  0.8066 -2.1776
  733MOL0     H98892  11.304   5.706   6.595 -0.6743  1.6485  1.9779
  733MOL0     H98893  11.169   5.804   6.561  0.0585  0.0682  0.9576
  733MOL0     H98894  11.289   5.960   6.420  1.0857  0.5846  0.6257
  733MOL0     H98895  11.436   5.846   6.426  1.5528  0.4256  2.8333
  733MOL0     H98896  11.306   5.979   6.662  0.8759 -0.5636  1.4353
  733MOL0     H98897  11.448   5.891   6.655 -2.3895  0.0841  2.6605
  733MOL0     H98898  11.553   6.084   6.499 -1.1501 -1.2171 -1.1095
  733MOL0     H98899  11.403   6.170   6.540 -1.2814 -0.7775 -0.0281
  733MOL0     H98900  11.474   6.203   6.763 -1.7605  0.1764 -0.6452
  733MOL0     H98901  11.579   6.052   6.758  2.3093 -0.8668 -3.5217
  733MOL0     H98902  11.747   6.182   6.650  0.2093 -0.9222  2.2816
  733MOL0     H98903  11.715   6.262   6.794 -0.2836 -1.6026  0.1502
  733MOL0     H98904  11.588   6.335   6.524 -0.9219 -3.1874  0.1752
  733MOL0     H98905  11.543   6.410   6.686 -0.5148  1.5372 -2.7518
  733MOL0     H98906  11.838   6.359   6.440 -0.1666  0.4549 -1.5793
  733MOL0     H98907  11.997   6.539   6.324  2.8415 -0.7819  1.0080
  733MOL0     H98908  11.950   6.699   6.392 -1.3120 -2.3488 -3.3435
  733MOL0     H98909  12.145   6.537   6.530 -3.7043 -0.3941 -0.0835
  733MOL0     H98910  12.209   6.625   6.379  0.3981 -0.4323  0.1517
  733MOL0     H98911  12.085   6.729   6.634 -2.0565  2.5395 -0.3692
  733MOL0     H98912  12.106   6.838   6.488  0.8962  1.7215  1.0856
  733MOL0     H98913  12.282   6.877   6.648 -0.0045  0.4343 -1.0913
  733MOL0     H98914  12.341   6.829   6.495  1.3009  1.7532  2.4284
  733MOL0     H98915  12.502   6.925   6.644 -0.3809 -1.2679 -1.3678
  733MOL0     H98916  12.726   6.951   6.716 -3.2233  2.3795  0.4699
  733MOL0     H98917  13.113   6.931   6.945  0.5736 -1.1975  1.3764
  733MOL0     H98918  13.355   6.993   6.941 -0.0555  1.2430 -0.6327
  733MOL0     H98919  13.535   6.829   6.583  1.3333 -1.4452  0.6399
  733MOL0     H98920  13.579   6.998   6.532 -1.8489  0.4226 -0.2829
  733MOL0     H98921  13.784   6.867   6.577 -1.1342  0.0879  0.3646
  733MOL0     H98922  13.759   6.986   6.711 -0.2224 -0.2431  1.8870
  733MOL0     H98923  13.658   6.803   6.832  0.9684  0.6641 -0.1320
  733MOL0     H98924  13.710   6.690   6.693  0.2115  0.0531 -2.2708
  733MOL0     H98925  13.873   6.679   6.876 -2.1992  0.0120  1.0180
  733MOL0     H98926  13.894   6.853   6.874 -1.9586  0.3537 -1.1840
  733MOL0     H98927  13.985   6.840   6.633  3.3861  0.2885 -0.3036
  733MOL0     H98928  13.955   6.667   6.642  3.0214 -2.7859  1.6781
  733MOL0     H98929  14.175   6.834   6.765 -1.6215  0.7997 -0.1357
  733MOL0     H98930  14.122   6.687   6.848  0.0985 -0.2218 -0.4464
  733MOL0     H98931  14.234   6.683   6.554  2.0883 -1.8726 -0.3540
  733MOL0     H98932  14.160   6.544   6.643  1.7287 -0.7234 -1.5404
  733MOL0     H98933  14.319   6.564   6.818  1.5170  1.6614  0.1418
  733MOL0     H98934  14.404   6.519   6.663 -0.3050  1.1341 -2.2566
  733MOL0     H98935  13.347   6.929   6.505  3.9980 -2.1954  1.1199
  733MOL0     H98936  13.109   6.898   6.520  0.1688 -0.8886 -0.1618
  733MOL0     H98937  12.757   6.535   6.802 -0.5095 -0.4995 -1.4398
  733MOL0     H98938  12.509   6.510   6.750 -1.1104  0.7806  0.5376
  733MOL0     H98939  11.045   5.529   6.256 -1.8034  0.2872 -0.9483
  733MOL0     H98940  10.997   5.366   6.109 -0.6716  1.0298 -0.4846
  733MOL0     H98941  11.270   5.041   5.808  1.4162 -1.5466 -2.5813
  733MOL0     H98942  11.269   4.857   5.665 -0.8645 -1.0376 -1.3093
  733MOL0     H98943  10.910   4.611   5.524 -1.2578 -0.4241  0.9919
  733MOL0     H98944  10.974   4.585   5.684  1.5793 -0.3613 -0.6203
  733MOL0     H98945  11.043   4.390   5.564  2.7278 -1.1369 -0.5268
  733MOL0     H98946  11.177   4.509   5.575 -0.2560  1.7084 -1.9840
  733MOL0     H98947  11.172   4.567   5.365  2.1650 -0.8491  1.8689
  733MOL0     H98948  11.018   4.481   5.324 -0.0265  2.9084  0.8463
  733MOL0     H98949  11.287   4.347   5.402 -1.1959 -4.2985  2.3963
  733MOL0     H98950  11.150   4.257   5.372 -0.8901  0.1338  2.5109
  733MOL0     H98951  11.316   4.344   4.993 -0.8500 -0.1436 -0.4217
  733MOL0     H98952  10.851   4.808   5.683  1.0989 -2.8642  1.9250
  733MOL0     H98953  10.721   4.915   5.872  1.9475 -0.6419  1.6504
  733MOL0     H98954  10.794   5.026   5.980 -2.1589 -1.7725  0.6208
  733MOL0     H98955  10.754   5.089   5.821 -1.7740  0.7251  1.2801
  734MOL0     O98956   4.226   8.247   3.624 -0.1076 -0.3385  0.3552
  734MOL0     C98957   4.264   8.142   3.566 -0.3576  0.4446  0.7287
  734MOL0     O98958   4.176   8.071   3.497  0.4254 -0.5942  0.2792
  734MOL0     C98959   4.064   8.139   3.458  0.2115  1.2716  0.5896
  734MOL0     C98960   3.957   8.160   3.545 -0.1436  0.9554  0.0810
  734MOL0     C98961   3.849   8.234   3.506  0.3492 -0.0459  0.4234
  734MOL0     C98962   3.853   8.298   3.381  0.2843  0.7943  0.8763
  734MOL0     O98963   3.749   8.373   3.328  0.7096 -0.1751  0.1531
  734MOL0     C98964   3.632   8.394   3.404 -0.0515 -0.0125 -0.3075
  734MOL0     C98965   3.640   8.480   3.530  0.6506  0.1363  0.6239
  734MOL0     C98966   3.666   8.626   3.496  0.0338  0.0228 -0.4076
  734MOL0     C98967   3.596   8.719   3.596  0.7701 -0.3469 -0.2434
  734MOL0     C98968   3.654   8.861   3.586 -0.6431 -0.0144 -0.1688
  734MOL0     C98969   3.593   8.945   3.699 -0.8986 -0.5789 -0.4033
  734MOL0     C98970   3.466   9.017   3.641 -0.1277  0.9903  0.5226
  734MOL0     C98971   3.416   9.105   3.745 -0.2830  0.4589 -0.5515
  734MOL0     N98972   3.314   9.191   3.691 -0.1581 -1.2310 -0.3333
  734MOL0     C98973   3.179   9.152   3.685  0.5467  0.5858  0.1045
  734MOL0     C98974   3.117   9.243   3.612 -0.6047  0.1673  0.3068
  734MOL0     C98975   2.969   9.259   3.593 -0.2379 -0.2157  1.0611
  734MOL0     C98976   2.887   9.133   3.624  0.3182  0.8688 -0.1539
  734MOL0     C98977   2.747   9.153   3.577 -0.1390 -0.8284 -0.5489
  734MOL0     C98978   2.647   9.043   3.620 -0.0211 -0.1735 -0.5078
  734MOL0     O98979   2.696   8.910   3.621 -0.6244  0.1575  1.5135
  734MOL0     C98980   2.614   8.815   3.660  0.0699  0.1492  0.3439
  734MOL0     C98981   2.671   8.688   3.670 -0.9892  0.7787 -0.7788
  734MOL0     C98982   2.605   8.574   3.723 -0.3366 -0.7222  0.1366
  734MOL0     C98983   2.474   8.581   3.774 -0.7938 -1.0581  0.2429
  734MOL0     C98984   2.401   8.471   3.826 -0.1814  0.8662 -0.1854
  734MOL0     O98985   2.275   8.488   3.869 -0.9484 -1.1581 -0.1419
  734MOL0     C98986   2.200   8.377   3.901  0.3021 -0.6041  0.3661
  734MOL0     C98987   2.210   8.258   3.826 -0.2231  0.1608 -0.0259
  734MOL0     C98988   2.122   8.153   3.862 -0.6428 -0.4516  0.2285
  734MOL0     C98989   2.025   8.153   3.962 -0.6090 -0.8734 -0.1926
  734MOL0     O98990   1.963   8.043   4.004 -0.2020 -0.1263  0.4787
  734MOL0     C98991   1.835   8.058   4.073 -0.6422  0.3901  0.7276
  734MOL0     C98992   1.744   7.938   4.036 -0.4185  0.1205  0.0938
  734MOL0     C98993   1.769   7.829   4.150 -0.0708 -0.0531 -0.2442
  734MOL0     C98994   1.683   7.707   4.131 -0.4047  0.6941  0.1053
  734MOL0     C98995   1.690   7.597   4.240 -0.0545  0.7507  0.2951
  734MOL0     C98996   1.631   7.628   4.385  0.4759  0.2963  0.9816
  734MOL0     C98997   1.476   7.625   4.410 -0.1745 -0.0719  0.0651
  734MOL0     C98998   1.414   7.497   4.357  0.4688 -0.1562 -0.3111
  734MOL0    Cl98999   1.484   7.344   4.413  0.2539 -0.0844  0.2215
  734MOL0     C99000   2.017   8.275   4.041 -1.1873 -0.5777  0.6645
  734MOL0     C99001   2.106   8.376   4.009 -0.5171 -0.9505 -0.6296
  734MOL0     O99002   2.473   8.366   3.844  0.4882  0.4991 -0.1536
  734MOL0     C99003   2.411   8.710   3.752 -0.2821  0.1110 -1.2736
  734MOL0     C99004   2.478   8.818   3.688  0.5096  0.5252 -0.3283
  734MOL0     N99005   3.213   9.339   3.581  0.6676 -0.4600 -0.3479
  734MOL0     N99006   3.327   9.306   3.627  0.0836 -0.5978 -0.2772
  734MOL0     C99007   3.961   8.276   3.294  0.1999  0.3992 -0.8586
  734MOL0     C99008   4.065   8.199   3.339  0.1818  0.7494  0.0993
  734MOL0     C99009   4.409   8.108   3.591 -0.3490  1.3447 -0.3078
  734MOL0     C99010   4.501   8.193   3.652  0.1948 -0.5360  0.7062
  734MOL0     C99011   4.636   8.163   3.687  0.2158  0.8045 -0.2039
  734MOL0     C99012   4.684   8.031   3.652 -0.8346  0.1634 -0.5275
  734MOL0     O99013   4.823   8.020   3.665 -0.3948 -0.5029 -0.0073
  734MOL0     C99014   4.897   7.997   3.544 -0.7599  0.5578 -0.4860
  734MOL0     C99015   5.031   8.043   3.579 -0.9608  0.5863 -1.0375
  734MOL0     C99016   5.034   8.200   3.597 -0.7788 -0.0087  0.3646
  734MOL0     C99017   5.178   8.250   3.557  0.0403  0.6017  0.0442
  734MOL0     C99018   5.214   8.384   3.610  1.0002  0.7326 -0.1716
  734MOL0     C99019   5.257   8.488   3.643  0.1569 -0.1111 -0.6610
  734MOL0     C99020   4.604   7.944   3.579  0.0228  0.0293  0.2793
  734MOL0     C99021   4.466   7.977   3.548  0.2087 -0.5333 -0.8088
  734MOL0     C99022   4.388   7.867   3.480  0.4372 -0.6524  0.1509
  734MOL0     H99023   3.965   8.111   3.641  1.5470  2.2132  0.6181
  734MOL0     H99024   3.763   8.231   3.572  2.1064 -2.6985  2.8343
  734MOL0     H99025   3.560   8.433   3.331 -1.0282  0.4976  0.8820
  734MOL0     H99026   3.596   8.294   3.430  0.3282  0.3202  1.6656
  734MOL0     H99027   3.717   8.441   3.597  3.3453 -1.0546 -2.8948
  734MOL0     H99028   3.541   8.471   3.577 -0.9060  0.4433 -2.3458
  734MOL0     H99029   3.646   8.645   3.391  1.7364  2.2552 -0.3911
  734MOL0     H99030   3.773   8.649   3.505 -0.0017  0.1487 -0.3073
  734MOL0     H99031   3.490   8.713   3.573  0.6628  1.3439 -0.3096
  734MOL0     H99032   3.614   8.673   3.694 -1.6867 -1.2265 -0.1473
  734MOL0     H99033   3.762   8.863   3.597 -0.3775  0.4014 -2.3516
  734MOL0     H99034   3.632   8.908   3.489 -1.0873  2.3516  1.0193
  734MOL0     H99035   3.573   8.883   3.788 -0.1445 -0.1503  0.0812
  734MOL0     H99036   3.672   9.011   3.735  0.8554 -2.9217  0.3063
  734MOL0     H99037   3.388   8.943   3.619  0.3229  1.3295 -2.7367
  734MOL0     H99038   3.483   9.077   3.551 -0.1515 -2.2697 -1.8731
  734MOL0     H99039   3.380   9.052   3.834  2.0737  0.0059  0.2091
  734MOL0     H99040   3.498   9.169   3.779 -0.6309  0.2421  0.7288
  734MOL0     H99041   3.137   9.058   3.719  2.4032 -1.3778 -2.6508
  734MOL0     H99042   2.929   9.348   3.643 -1.0372  1.2261 -1.9232
  734MOL0     H99043   2.956   9.277   3.486  0.9779  0.0849  0.9544
  734MOL0     H99044   2.926   9.039   3.583 -2.4299 -1.9027  2.9560
  734MOL0     H99045   2.880   9.114   3.731 -0.5379  1.0878 -0.1679
  734MOL0     H99046   2.753   9.161   3.468 -0.4905 -1.9417 -0.6624
  734MOL0     H99047   2.711   9.246   3.620 -0.8906 -1.6975  0.7410
  734MOL0     H99048   2.560   9.050   3.555  1.9965  2.0468 -3.2470
  734MOL0     H99049   2.617   9.070   3.722 -3.2960 -0.1712 -1.3763
  734MOL0     H99050   2.777   8.685   3.645 -1.0990 -0.8504 -1.1821
  734MOL0     H99051   2.660   8.482   3.738 -0.9219 -1.2919 -1.0523
  734MOL0     H99052   2.288   8.258   3.751  2.6534 -1.9999  2.6892
  734MOL0     H99053   2.135   8.061   3.806  2.3181 -0.4668  0.7370
  734MOL0     H99054   1.837   8.061   4.182 -2.0959  2.0758  0.7570
  734MOL0     H99055   1.788   8.155   4.052 -2.0962 -0.2753  0.7833
  734MOL0     H99056   1.642   7.975   4.048 -0.4860  0.2653 -0.8792
  734MOL0     H99057   1.765   7.900   3.936 -3.5565 -0.4091 -0.4826
  734MOL0     H99058   1.874   7.798   4.145 -0.5217 -1.6255 -0.4753
  734MOL0     H99059   1.745   7.877   4.245  1.1802 -0.7591  0.4553
  734MOL0     H99060   1.707   7.664   4.033 -3.1784  0.2758 -0.4677
  734MOL0     H99061   1.579   7.740   4.133 -0.9583 -0.9370  1.6976
  734MOL0     H99062   1.794   7.564   4.249  0.3304  1.5043 -1.0959
  734MOL0     H99063   1.633   7.513   4.199 -1.2876  1.9264 -0.4971
  734MOL0     H99064   1.672   7.549   4.448  0.7914 -1.2262 -1.0378
  734MOL0     H99065   1.675   7.714   4.436  1.9981  0.3277 -0.3225
  734MOL0     H99066   1.426   7.703   4.351 -2.0629 -0.7010  0.7378
  734MOL0     H99067   1.463   7.652   4.515 -0.3200  2.1141 -0.4574
  734MOL0     H99068   1.311   7.507   4.391  0.9948  0.6400  1.1202
  734MOL0     H99069   1.422   7.490   4.248  0.5446  0.1832 -0.3272
  734MOL0     H99070   1.957   8.281   4.131 -0.9955 -0.3037  0.7759
  734MOL0     H99071   2.093   8.472   4.057 -2.0732 -0.6632 -1.5520
  734MOL0     H99072   2.314   8.733   3.795  0.2283 -0.3754  0.2100
  734MOL0     H99073   2.426   8.914   3.683 -0.1887  0.1394 -0.5962
  734MOL0     H99074   3.969   8.328   3.200  3.1797 -0.1064 -0.9825
  734MOL0     H99075   4.153   8.185   3.277 -0.4519  2.5550 -1.3040
  734MOL0     H99076   4.461   8.289   3.683  1.6292 -0.1227  1.3943
  734MOL0     H99077   4.717   8.220   3.731  3.7293 -1.3752 -3.3403
  734MOL0     H99078   4.861   8.039   3.450 -2.4926 -1.9208 -1.0263
  734MOL0     H99079   4.895   7.892   3.511 -0.9261  1.0247 -2.0478
  734MOL0     H99080   5.095   8.002   3.500 -1.5207 -0.9157 -0.7450
  734MOL0     H99081   5.060   7.988   3.669 -0.3435  1.8934 -0.4240
  734MOL0     H99082   5.017   8.221   3.703 -0.0902 -2.4611  1.0247
  734MOL0     H99083   4.971   8.260   3.531  1.0191  0.2363 -1.1976
  734MOL0     H99084   5.259   8.183   3.587  2.2404  3.4264  0.8797
  734MOL0     H99085   5.180   8.249   3.448  3.0054  0.2705  0.0166
  734MOL0     H99086   5.308   8.578   3.669 -0.8896 -0.1660  1.8162
  734MOL0     H99087   4.662   7.870   3.526  2.2871  3.8008 -3.0769
  734MOL0     H99088   4.328   7.905   3.397 -0.1667  1.9014  1.6273
  734MOL0     H99089   4.458   7.792   3.442 -1.6572 -3.0821  0.8687
  734MOL0     H99090   4.323   7.804   3.541  0.7449 -5.1864 -3.5915
  735MOL0     O99091   4.978   4.659   4.763  0.0034  0.3810 -0.3772
  735MOL0     C99092   5.086   4.697   4.818  0.2986  0.8364  0.4195
  735MOL0     O99093   5.209   4.727   4.750 -0.4059  0.6734  0.3921
  735MOL0     C99094   5.219   4.748   4.617  0.5851  0.0924 -0.4968
  735MOL0     C99095   5.119   4.810   4.536  1.1151  1.0855  0.3988
  735MOL0     C99096   5.147   4.847   4.403  0.0297  0.1669  0.8572
  735MOL0     C99097   5.264   4.823   4.337 -1.8470 -0.8429  0.2288
  735MOL0     O99098   5.279   4.863   4.208  0.2021 -0.1554 -0.2895
  735MOL0     C99099   5.258   4.763   4.105  0.2898  0.7173  0.6001
  735MOL0     C99100   5.206   4.838   3.975  0.2495 -0.9581  0.8213
  735MOL0     C99101   5.166   4.736   3.859  0.0145  0.1740 -0.5719
  735MOL0     C99102   5.291   4.682   3.799 -0.3329  0.7519  0.0409
  735MOL0     C99103   5.306   4.532   3.840 -0.8572 -0.3293  0.6130
  735MOL0     C99104   5.434   4.465   3.798  0.3361 -0.5791  0.8680
  735MOL0     C99105   5.419   4.315   3.787 -0.5169  0.6158 -0.3312
  735MOL0     C99106   5.508   4.271   3.665 -0.1091  0.0947  0.9948
  735MOL0     N99107   5.636   4.349   3.629  0.1015  0.3372 -0.0075
  735MOL0     C99108   5.643   4.463   3.558  0.2069 -0.4774  0.5106
  735MOL0     C99109   5.770   4.472   3.522 -0.0894 -0.5169  0.3098
  735MOL0     C99110   5.847   4.574   3.437  0.3652 -0.1940  0.2707
  735MOL0     C99111   5.790   4.713   3.460 -0.2185  0.5942 -0.2811
  735MOL0     C99112   5.861   4.828   3.390 -0.2476 -0.0211  0.7855
  735MOL0     C99113   5.813   4.842   3.245  0.4065 -0.2513  1.4557
  735MOL0     O99114   5.887   4.952   3.179 -0.4226  0.6659  0.6052
  735MOL0     C99115   5.867   4.990   3.051 -0.7093  0.3749 -0.2187
  735MOL0     C99116   5.965   5.085   3.004  0.7247 -0.3153  0.5745
  735MOL0     C99117   5.943   5.139   2.879 -0.2014 -0.0798 -0.1400
  735MOL0     C99118   5.821   5.121   2.809 -0.2937  0.4843 -0.5008
  735MOL0     C99119   5.794   5.199   2.684  0.4319 -0.4429 -0.5641
  735MOL0     O99120   5.664   5.197   2.643 -0.2308  0.4849 -0.3924
  735MOL0     C99121   5.636   5.236   2.510  0.6362  0.7377 -0.9537
  735MOL0     C99122   5.557   5.348   2.495  0.2043 -0.1629  0.2963
  735MOL0     C99123   5.525   5.400   2.364 -1.0750 -0.2045  0.6419
  735MOL0     C99124   5.564   5.328   2.255  0.1118  0.7580  0.1760
  735MOL0     O99125   5.531   5.386   2.134  0.1910  0.1652 -0.1460
  735MOL0     C99126   5.518   5.314   2.010  0.6906  0.2821 -0.0461
  735MOL0     C99127   5.437   5.390   1.905 -0.0764  0.9077 -0.7347
  735MOL0     C99128   5.294   5.420   1.950  0.2982  0.5813  0.0028
  735MOL0     C99129   5.205   5.296   1.968 -0.5248 -1.3258  0.4340
  735MOL0     C99130   5.177   5.239   1.821 -0.2091  0.1949 -0.4000
  735MOL0     C99131   5.084   5.110   1.821 -0.5935 -0.2453  0.7576
  735MOL0     C99132   5.069   5.054   1.674  0.0913  0.1501 -0.7234
  735MOL0     C99133   4.939   4.971   1.651 -0.3977  0.5219  1.0305
  735MOL0    Cl99134   4.965   4.889   1.512  0.4031  0.4637 -0.3811
  735MOL0     C99135   5.633   5.211   2.272 -0.1333  0.6081 -0.5257
  735MOL0     C99136   5.677   5.164   2.398  0.8132 -0.4911  0.0285
  735MOL0     O99137   5.886   5.246   2.621  0.0780 -0.2021 -0.4326
  735MOL0     C99138   5.727   5.031   2.859 -0.4839 -0.0796  0.1907
  735MOL0     C99139   5.747   4.973   2.983  0.3147 -0.1839  0.6236
  735MOL0     N99140   5.848   4.355   3.566 -0.9366  0.4443  0.5179
  735MOL0     N99141   5.764   4.297   3.640 -0.5424  0.9472  0.8179
  735MOL0     C99142   5.370   4.775   4.418 -1.0031 -0.0797  0.4051
  735MOL0     C99143   5.349   4.744   4.557  0.0186 -0.2947  0.4700
  735MOL0     C99144   5.095   4.689   4.963 -0.3735 -0.2248  0.1192
  735MOL0     C99145   5.222   4.691   5.022  0.4227 -0.5260 -0.1847
  735MOL0     C99146   5.250   4.676   5.158 -0.1819  0.9418  0.0178
  735MOL0     C99147   5.141   4.659   5.248  0.1978  0.0842 -0.3707
  735MOL0     O99148   5.157   4.634   5.391 -0.3248  0.7620 -0.0653
  735MOL0     C99149   5.267   4.702   5.458  0.2314 -0.3903  0.7876
  735MOL0     C99150   5.220   4.780   5.578  0.6678  0.6760  0.2251
  735MOL0     C99151   5.110   4.885   5.548  0.3797  0.5562 -0.0171
  735MOL0     C99152   5.082   4.966   5.667  0.0636  0.9492 -0.1541
  735MOL0     C99153   5.020   4.893   5.776  0.1232  0.3333 -0.2149
  735MOL0     C99154   4.962   4.828   5.860 -0.6083  0.1647 -0.7379
  735MOL0     C99155   5.015   4.663   5.201  0.2682  0.8880 -0.7139
  735MOL0     C99156   4.989   4.690   5.063 -0.6898 -0.2335 -0.0624
  735MOL0     C99157   4.850   4.710   5.031  0.1422 -0.3349  0.8333
  735MOL0     H99158   5.020   4.844   4.564  0.7291  0.5601 -0.2803
  735MOL0     H99159   5.073   4.890   4.336  2.3381  3.3817  0.2000
  735MOL0     H99160   5.354   4.721   4.074  0.5724  0.7422  1.4168
  735MOL0     H99161   5.180   4.693   4.137 -1.5775  2.8048  0.8058
  735MOL0     H99162   5.285   4.905   3.942  2.4485  0.6361  7.6984
  735MOL0     H99163   5.125   4.906   4.005  1.3545  1.0453 -0.5291
  735MOL0     H99164   5.108   4.775   3.776  0.1490 -0.0832 -0.7869
  735MOL0     H99165   5.108   4.659   3.910  1.2209 -1.4175 -1.4950
  735MOL0     H99166   5.288   4.694   3.690  0.4449 -0.3231 -0.1093
  735MOL0     H99167   5.374   4.743   3.836  2.1534 -1.8794 -0.8599
  735MOL0     H99168   5.292   4.512   3.947 -0.8444 -0.9660  0.4993
  735MOL0     H99169   5.234   4.479   3.778  0.1071  0.8152 -1.5921
  735MOL0     H99170   5.455   4.510   3.701 -1.5069 -0.4410  0.5079
  735MOL0     H99171   5.521   4.493   3.860  0.9840 -1.4746  0.3876
  735MOL0     H99172   5.313   4.294   3.768 -0.3874  1.2347 -1.9339
  735MOL0     H99173   5.449   4.260   3.876  3.3530  1.8436 -0.7045
  735MOL0     H99174   5.542   4.168   3.676 -1.1526 -0.6545 -1.7214
  735MOL0     H99175   5.448   4.269   3.573  0.1448 -2.5021  0.8062
  735MOL0     H99176   5.557   4.517   3.520 -2.3825 -1.7195  4.0670
  735MOL0     H99177   5.957   4.571   3.440  0.5134  0.9380 -1.8022
  735MOL0     H99178   5.828   4.541   3.334 -1.8916 -0.5355  0.7496
  735MOL0     H99179   5.685   4.703   3.432  0.0750  0.7316 -1.4489
  735MOL0     H99180   5.811   4.741   3.564  1.6870 -2.4427  0.2670
  735MOL0     H99181   5.969   4.812   3.396 -0.3559 -1.1223 -0.0373
  735MOL0     H99182   5.852   4.928   3.435  0.4187  0.3705  0.0832
  735MOL0     H99183   5.709   4.876   3.251 -0.0543 -1.3838  0.2688
  735MOL0     H99184   5.818   4.751   3.186  3.0111  0.7073  0.0424
  735MOL0     H99185   6.054   5.119   3.057  2.4569  3.2838 -3.9478
  735MOL0     H99186   6.009   5.216   2.843 -2.2352  1.5725 -0.5376
  735MOL0     H99187   5.519   5.398   2.584 -3.5031 -1.4841 -0.3789
  735MOL0     H99188   5.472   5.494   2.357 -0.3367  0.3049  1.6006
  735MOL0     H99189   5.616   5.283   1.973  0.4205  1.4362 -1.8629
  735MOL0     H99190   5.459   5.223   2.026 -1.0781  1.5543  1.1200
  735MOL0     H99191   5.484   5.488   1.892  1.7106 -0.1519 -2.9769
  735MOL0     H99192   5.435   5.334   1.811  4.2291 -2.5150  0.9093
  735MOL0     H99193   5.316   5.464   2.048  1.3035  0.7121 -0.2686
  735MOL0     H99194   5.258   5.504   1.889  3.0726  1.6632 -0.2639
  735MOL0     H99195   5.115   5.321   2.026  1.0712  1.2511  1.9661
  735MOL0     H99196   5.245   5.213   2.028 -2.9615 -2.7373  0.2492
  735MOL0     H99197   5.268   5.229   1.762 -0.9062  1.2175 -1.7024
  735MOL0     H99198   5.126   5.323   1.773  1.7244  1.4087 -0.4304
  735MOL0     H99199   5.123   5.027   1.880  2.4413  3.2163  4.1372
  735MOL0     H99200   4.984   5.130   1.862 -0.5571  1.1446  0.2078
  735MOL0     H99201   5.150   4.987   1.645 -0.5912 -1.0244  0.0020
  735MOL0     H99202   5.064   5.149   1.620 -1.8745  0.8408  0.5541
  735MOL0     H99203   4.935   4.902   1.735  0.5484  1.6239  2.0305
  735MOL0     H99204   4.845   5.027   1.649 -0.8294 -0.2252  0.3592
  735MOL0     H99205   5.658   5.143   2.191 -0.7219  0.8504 -0.9127
  735MOL0     H99206   5.719   5.065   2.406 -1.5844 -1.3990  3.3973
  735MOL0     H99207   5.638   5.029   2.797  0.2250  1.7220 -0.9635
  735MOL0     H99208   5.671   4.903   3.017  2.5169 -2.2433  1.6412
  735MOL0     H99209   5.466   4.749   4.374 -1.3517 -0.0712 -0.3777
  735MOL0     H99210   5.433   4.713   4.619  1.5228  2.6909  0.1103
  735MOL0     H99211   5.317   4.705   4.971  1.7181 -4.1353  0.9354
  735MOL0     H99212   5.352   4.687   5.194  0.3342  4.9691 -2.1090
  735MOL0     H99213   5.319   4.768   5.388 -0.3706 -2.6096 -1.9327
  735MOL0     H99214   5.334   4.631   5.506 -1.2604 -1.2920  1.6181
  735MOL0     H99215   5.306   4.837   5.615  1.5359 -1.0024  0.8896
  735MOL0     H99216   5.175   4.713   5.651  1.2608  0.9515  0.8549
  735MOL0     H99217   5.014   4.844   5.516  0.0054 -0.7604  2.5546
  735MOL0     H99218   5.142   4.961   5.475 -0.8180 -0.5487 -1.7611
  735MOL0     H99219   5.170   5.015   5.709 -0.3677  0.4938  1.3671
  735MOL0     H99220   5.018   5.049   5.635  0.6049  1.6333  0.4948
  735MOL0     H99221   4.927   4.783   5.951  4.3989 -2.8735  0.0815
  735MOL0     H99222   4.948   4.640   5.283 -0.4542  2.5418 -0.8101
  735MOL0     H99223   4.787   4.748   5.112 -2.0078 -1.2380 -0.3008
  735MOL0     H99224   4.848   4.782   4.949  0.2789  1.0750  2.0325
  735MOL0     H99225   4.797   4.622   4.992 -0.8101  1.0017 -1.0393
  736MOL0     O99226   6.785   6.451   2.084  0.1525 -0.4316 -0.0364
  736MOL0     C99227   6.691   6.534   2.061 -0.5648  0.3633  0.2355
  736MOL0     O99228   6.718   6.658   2.006 -0.6973  0.3996 -0.2465
  736MOL0     C99229   6.838   6.662   1.945 -0.0022 -0.2711  0.1711
  736MOL0     C99230   6.946   6.718   2.000  0.4664 -0.8505  0.5116
  736MOL0     C99231   7.058   6.734   1.922  0.1439  0.3833  0.4572
  736MOL0     C99232   7.073   6.678   1.796  0.0953 -0.6829  0.1463
  736MOL0     O99233   7.195   6.688   1.732 -0.1768 -0.5783  0.2763
  736MOL0     C99234   7.204   6.637   1.599  0.6986 -0.2657  0.3415
  736MOL0     C99235   7.233   6.486   1.606  0.1586  0.5253  0.4608
  736MOL0     C99236   7.260   6.406   1.478  1.0155 -0.4398  0.1833
  736MOL0     C99237   7.320   6.271   1.518  1.2178 -0.1142  0.1656
  736MOL0     C99238   7.346   6.168   1.414 -0.3006 -0.0328  0.2959
  736MOL0     C99239   7.419   6.048   1.467 -0.1640 -0.1930 -0.6795
  736MOL0     C99240   7.409   5.925   1.380  0.0781  0.3328  0.6009
  736MOL0     C99241   7.477   5.794   1.433  0.4314  0.7057  0.1722
  736MOL0     N99242   7.455   5.673   1.349 -0.1662 -0.5867 -0.4397
  736MOL0     C99243   7.412   5.671   1.220  0.8083  0.5632  0.1695
  736MOL0     C99244   7.421   5.533   1.183 -0.2076  0.7093 -0.8792
  736MOL0     C99245   7.387   5.462   1.056 -0.6008 -0.1753  0.0692
  736MOL0     C99246   7.275   5.358   1.059 -0.4441 -0.3206 -0.1969
  736MOL0     C99247   7.229   5.333   0.914  0.0756 -0.3204  0.1399
  736MOL0     C99248   7.124   5.230   0.908  0.4193 -0.1794  0.2603
  736MOL0     O99249   7.190   5.101   0.939 -0.1881  0.0784 -0.2300
  736MOL0     C99250   7.109   5.004   1.001  0.2704 -1.0995 -0.2156
  736MOL0     C99251   7.165   4.890   1.066 -0.2640 -1.0167  0.6496
  736MOL0     C99252   7.092   4.784   1.123 -0.0205  0.1846  0.5130
  736MOL0     C99253   6.952   4.780   1.103  0.5042  0.5793 -0.1457
  736MOL0     C99254   6.879   4.674   1.169  0.6485 -0.7496  0.1023
  736MOL0     O99255   6.949   4.567   1.213  0.6715 -0.3352 -0.1724
  736MOL0     C99256   6.869   4.453   1.244  0.0365 -0.5633  1.0120
  736MOL0     C99257   6.898   4.334   1.167  0.0994  0.2861 -0.1126
  736MOL0     C99258   6.831   4.219   1.202  0.1104  0.5363 -0.1121
  736MOL0     C99259   6.730   4.219   1.299  1.1225 -1.3158  0.4468
  736MOL0     O99260   6.663   4.107   1.341  0.2470  0.1114 -0.3939
  736MOL0     C99261   6.704   3.978   1.303  0.8428 -0.4466 -0.6432
  736MOL0     C99262   6.602   3.873   1.367  0.0885 -0.0116 -0.9392
  736MOL0     C99263   6.648   3.726   1.342  0.0080  0.7323  0.8982
  736MOL0     C99264   6.605   3.656   1.215  0.4397  0.4049 -1.1017
  736MOL0     C99265   6.662   3.515   1.176  0.0939  0.8575  0.5932
  736MOL0     C99266   6.563   3.399   1.191 -0.2374  0.5804 -0.4851
  736MOL0     C99267   6.605   3.269   1.129  0.1126  0.0489 -0.1357
  736MOL0     C99268   6.499   3.161   1.163 -0.8442 -0.8962 -0.1670
  736MOL0    Cl99269   6.336   3.215   1.169  0.5152 -0.1448 -0.0878
  736MOL0     C99270   6.697   4.338   1.375 -1.1056  0.0047 -0.3964
  736MOL0     C99271   6.775   4.455   1.348  0.5770 -0.2213  0.0463
  736MOL0     O99272   6.756   4.690   1.172 -0.0148 -0.3877 -0.1122
  736MOL0     C99273   6.895   4.887   1.024 -0.4250 -1.2847 -0.4346
  736MOL0     C99274   6.972   4.995   0.979  0.2160 -0.2906  0.0175
  736MOL0     N99275   7.468   5.464   1.299  0.1674 -0.1362  0.3625
  736MOL0     N99276   7.472   5.545   1.405  0.1267  0.8757 -0.4364
  736MOL0     C99277   6.956   6.614   1.738 -0.0415  0.1407  0.1540
  736MOL0     C99278   6.838   6.609   1.816  0.1608 -0.6551 -0.6464
  736MOL0     C99279   6.557   6.515   2.123  0.3884 -0.1825 -0.0814
  736MOL0     C99280   6.446   6.585   2.056 -1.7722  0.2778 -0.0541
  736MOL0     C99281   6.320   6.576   2.107  0.4207  0.7387  0.6430
  736MOL0     C99282   6.289   6.506   2.219 -0.8102  0.1643  0.4753
  736MOL0     O99283   6.154   6.499   2.268 -0.4509 -0.0108  0.4438
  736MOL0     C99284   6.127   6.620   2.352 -0.5829 -0.6898  1.1404
  736MOL0     C99285   6.030   6.594   2.466 -0.9424 -0.2651  0.2694
  736MOL0     C99286   5.907   6.671   2.428  0.2832 -0.1129  0.6170
  736MOL0     C99287   5.814   6.581   2.343 -0.1131 -0.3544  0.0319
  736MOL0     C99288   5.676   6.625   2.341  0.2772  1.0453  0.7886
  736MOL0     C99289   5.556   6.651   2.334 -0.6305 -1.1103 -1.1807
  736MOL0     C99290   6.393   6.434   2.288 -0.8158  0.5209 -0.2315
  736MOL0     C99291   6.525   6.435   2.241 -0.0191  0.0859  0.4648
  736MOL0     C99292   6.631   6.366   2.318  1.3044 -0.4188 -0.9316
  736MOL0     H99293   6.955   6.767   2.097  1.3470  0.8014 -0.3602
  736MOL0     H99294   7.138   6.802   1.950 -0.8319  1.8760 -0.2446
  736MOL0     H99295   7.116   6.666   1.540  0.6025  0.1165  0.6660
  736MOL0     H99296   7.289   6.681   1.546  0.6286  0.0258  0.4635
  736MOL0     H99297   7.159   6.431   1.664  2.7173 -0.0964  3.4591
  736MOL0     H99298   7.316   6.481   1.678 -0.4953 -2.5697  1.1732
  736MOL0     H99299   7.323   6.467   1.412 -1.6321  1.0927 -1.0707
  736MOL0     H99300   7.170   6.395   1.417  1.1741 -1.2678  0.0854
  736MOL0     H99301   7.411   6.300   1.572  0.1678  0.7526  1.5306
  736MOL0     H99302   7.265   6.221   1.599 -0.0847 -1.1622 -1.3233
  736MOL0     H99303   7.253   6.142   1.364  1.0946 -1.3792 -1.7932
  736MOL0     H99304   7.411   6.203   1.333 -1.1139  1.1258  0.1220
  736MOL0     H99305   7.524   6.077   1.473 -0.1467 -0.0478 -1.5357
  736MOL0     H99306   7.389   6.026   1.569  1.4031 -0.8312 -0.3355
  736MOL0     H99307   7.450   5.964   1.287 -0.4280  0.4297  0.4130
  736MOL0     H99308   7.304   5.905   1.354  0.6483  0.4995 -2.0482
  736MOL0     H99309   7.585   5.811   1.432  0.9795 -1.7029 -3.3940
  736MOL0     H99310   7.447   5.778   1.537 -1.9530  0.0186 -0.5614
  736MOL0     H99311   7.378   5.753   1.158 -1.3459 -0.4392 -0.0553
  736MOL0     H99312   7.368   5.542   0.985 -2.3607  0.7499  1.4980
  736MOL0     H99313   7.475   5.401   1.033 -1.7527 -2.4763  1.3150
  736MOL0     H99314   7.316   5.269   1.107  1.2047 -0.0876 -1.0797
  736MOL0     H99315   7.193   5.407   1.111  1.0998  5.1348 -2.1479
  736MOL0     H99316   7.324   5.313   0.862  3.3045  2.6453  4.2446
  736MOL0     H99317   7.189   5.426   0.872  2.0987  0.6589  0.2165
  736MOL0     H99318   7.072   5.233   0.811 -1.3164  1.6546  1.1648
  736MOL0     H99319   7.048   5.250   0.984 -0.6141  0.0057 -0.7886
  736MOL0     H99320   7.271   4.905   1.080 -0.3585  2.3255 -1.2135
  736MOL0     H99321   7.147   4.705   1.171  2.2239 -0.9837 -3.4931
  736MOL0     H99322   6.977   4.335   1.093  0.5668  4.1025  0.2411
  736MOL0     H99323   6.857   4.128   1.148  3.3747  1.0814  0.3336
  736MOL0     H99324   6.703   3.963   1.194 -0.7510  0.0333 -0.7169
  736MOL0     H99325   6.804   3.958   1.342 -0.5619 -0.6970  3.3145
  736MOL0     H99326   6.578   3.882   1.474 -1.2255 -1.9667 -1.0234
  736MOL0     H99327   6.504   3.898   1.323 -0.7355 -1.2062  0.1646
  736MOL0     H99328   6.756   3.722   1.360  0.8613  4.3807 -1.9473
  736MOL0     H99329   6.597   3.682   1.427  1.5277  1.9671  2.5190
  736MOL0     H99330   6.641   3.716   1.131 -0.0077  0.3125 -1.3619
  736MOL0     H99331   6.496   3.656   1.221  0.3656  2.8986 -1.2792
  736MOL0     H99332   6.751   3.485   1.232  0.3072  2.5661  1.2369
  736MOL0     H99333   6.677   3.514   1.068 -2.0727 -3.1344  0.1280
  736MOL0     H99334   6.540   3.388   1.297 -0.9092  1.3647 -0.5369
  736MOL0     H99335   6.468   3.438   1.153 -1.5853 -0.3434  1.7338
  736MOL0     H99336   6.701   3.240   1.174  1.0440  0.2870 -1.8621
  736MOL0     H99337   6.620   3.289   1.022 -0.6421 -2.3641 -0.7517
  736MOL0     H99338   6.510   3.078   1.094  4.5236 -0.2061 -0.5946
  736MOL0     H99339   6.531   3.130   1.263  1.6172 -1.8805 -1.1701
  736MOL0     H99340   6.628   4.333   1.459  0.1440 -1.2063  0.6079
  736MOL0     H99341   6.764   4.555   1.391  2.2662  0.0295 -0.0211
  736MOL0     H99342   6.789   4.896   1.004 -0.0718  3.0111 -1.4289
  736MOL0     H99343   6.919   5.047   0.900 -1.4411 -0.9308  0.6689
  736MOL0     H99344   6.954   6.575   1.636  0.2943  1.9806 -0.5915
  736MOL0     H99345   6.744   6.583   1.768 -1.2247  1.2327  0.9216
  736MOL0     H99346   6.475   6.644   1.970 -0.0052  0.9953  0.9793
  736MOL0     H99347   6.238   6.635   2.067  0.5118 -1.6934 -3.8731
  736MOL0     H99348   6.093   6.695   2.281 -3.5202 -1.0398  2.0619
  736MOL0     H99349   6.220   6.653   2.401 -0.9522 -0.5216  1.7438
  736MOL0     H99350   6.084   6.628   2.555 -0.6245  2.2323 -0.7768
  736MOL0     H99351   6.014   6.487   2.479 -0.8137 -0.0378  2.7914
  736MOL0     H99352   5.922   6.762   2.370 -0.4340 -1.4090 -1.7133
  736MOL0     H99353   5.857   6.687   2.525 -1.0989 -2.2298  0.3167
  736MOL0     H99354   5.848   6.577   2.239 -1.0374 -1.1904 -0.2581
  736MOL0     H99355   5.827   6.478   2.379  0.5055  0.3009  1.7432
  736MOL0     H99356   5.453   6.680   2.326 -0.2089  0.1606 -2.2921
  736MOL0     H99357   6.368   6.355   2.359  0.2819 -1.5514 -2.0367
  736MOL0     H99358   6.604   6.368   2.424  0.5330  3.0485 -1.0710
  736MOL0     H99359   6.645   6.268   2.271  1.2099 -0.3157 -1.1799
  736MOL0     H99360   6.725   6.420   2.305  0.3404  2.1181  1.6101
  737MOL0     O99361   0.079   3.191   1.263  0.4654  0.3203  0.2454
  737MOL0     C99362   0.155   3.255   1.199 -1.0970  0.6697  0.7211
  737MOL0     O99363   0.292   3.264   1.211 -0.1370 -0.3649  0.1694
  737MOL0     C99364   0.353   3.170   1.294 -0.5470 -0.5822  1.4093
  737MOL0     C99365   0.384   3.035   1.247 -0.5801 -0.2751  0.1056
  737MOL0     C99366   0.428   2.943   1.346  1.0969  0.0665  0.0286
  737MOL0     C99367   0.452   2.982   1.476  0.3514  0.8208  0.6324
  737MOL0     O99368   0.523   2.872   1.540 -0.0737 -0.0820  1.4067
  737MOL0     C99369   0.620   2.900   1.637 -0.0228 -1.1231 -0.3452
  737MOL0     C99370   0.739   2.818   1.624 -0.1496 -0.0947  0.1763
  737MOL0     C99371   0.714   2.661   1.619 -0.0268 -0.5003 -0.2864
  737MOL0     C99372   0.652   2.616   1.756  0.1713 -0.4009 -0.5962
  737MOL0     C99373   0.639   2.462   1.763  1.0752 -0.7299  0.6930
  737MOL0     C99374   0.589   2.427   1.900  0.1437 -0.3469  0.5457
  737MOL0     C99375   0.702   2.423   1.993 -0.2110 -1.5806  0.2359
  737MOL0     C99376   0.654   2.359   2.124 -0.1670 -0.6289 -0.1211
  737MOL0     N99377   0.749   2.363   2.231  0.2302  0.0021  0.0803
  737MOL0     C99378   0.769   2.464   2.318  0.3029  0.2280 -0.1679
  737MOL0     C99379   0.879   2.440   2.382  0.3552  0.1162 -0.1315
  737MOL0     C99380   0.936   2.522   2.486  0.0689  0.2200  0.2837
  737MOL0     C99381   0.983   2.658   2.431 -0.9761  0.4944  0.6214
  737MOL0     C99382   1.102   2.710   2.506  0.3027 -1.3028  0.5149
  737MOL0     C99383   1.062   2.753   2.656  0.4843  0.1864  0.0330
  737MOL0     O99384   1.112   2.660   2.754 -0.2047  0.4154 -0.2838
  737MOL0     C99385   1.220   2.694   2.825 -0.5437  0.4151  0.4251
  737MOL0     C99386   1.214   2.660   2.962 -0.0067 -0.7263  0.5094
  737MOL0     C99387   1.336   2.664   3.034  0.2335 -0.6283 -0.7749
  737MOL0     C99388   1.448   2.722   2.983 -0.2197 -0.6112  0.1199
  737MOL0     C99389   1.572   2.733   3.064  1.0475  0.0454 -0.2315
  737MOL0     O99390   1.669   2.816   3.022  0.1913  0.0761  0.2942
  737MOL0     C99391   1.772   2.839   3.108  0.7413  0.4754 -0.1619
  737MOL0     C99392   1.773   2.961   3.179  0.5909 -0.7440 -0.0142
  737MOL0     C99393   1.881   3.006   3.260 -0.2769  0.3266 -1.3945
  737MOL0     C99394   1.998   2.926   3.273  0.0499  0.2069 -0.6555
  737MOL0     O99395   2.114   2.982   3.336  0.0358  0.2912  0.2418
  737MOL0     C99396   2.095   3.014   3.476 -0.4270 -0.4602 -0.6284
  737MOL0     C99397   2.227   3.055   3.538 -0.1129 -0.1051 -0.4613
  737MOL0     C99398   2.277   3.200   3.547  0.0283 -0.2004  0.9109
  737MOL0     C99399   2.222   3.287   3.667  0.2806  0.6537  0.4433
  737MOL0     C99400   2.233   3.443   3.644  0.7894  0.0572 -1.2424
  737MOL0     C99401   2.149   3.516   3.538 -0.5481 -0.1734  0.1420
  737MOL0     C99402   2.176   3.672   3.551 -0.2392 -0.8601 -0.6619
  737MOL0     C99403   2.075   3.748   3.475  0.7069  0.2131 -0.9243
  737MOL0    Cl99404   1.905   3.772   3.538  0.1811 -0.3119  0.1675
  737MOL0     C99405   1.998   2.810   3.200  0.5464 -0.7340 -0.2583
  737MOL0     C99406   1.890   2.765   3.121 -0.2721  0.4173  0.7106
  737MOL0     O99407   1.576   2.666   3.166  0.0519 -0.5327  0.3585
  737MOL0     C99408   1.438   2.782   2.848 -0.1729  0.5219  0.6415
  737MOL0     C99409   1.327   2.762   2.771  0.6912 -0.1454  0.0098
  737MOL0     N99410   0.929   2.324   2.339  0.1768  0.8261  0.4515
  737MOL0     N99411   0.855   2.279   2.243  0.7148  0.2429  0.3400
  737MOL0     C99412   0.419   3.110   1.516 -0.2967  0.0828  0.7496
  737MOL0     C99413   0.372   3.207   1.424  0.1969 -0.0627 -0.3218
  737MOL0     C99414   0.104   3.331   1.085 -0.5439  0.0395  0.0689
  737MOL0     C99415   0.167   3.453   1.048  0.4729 -0.5696  0.5272
  737MOL0     C99416   0.128   3.520   0.936 -0.3151 -0.8219  0.1131
  737MOL0     C99417   0.022   3.483   0.862 -0.4046  0.4323  1.4808
  737MOL0     O99418  -0.031   3.554   0.754 -0.1321  0.0713 -0.0538
  737MOL0     C99419   0.028   3.506   0.632 -0.2428  0.6915 -0.8893
  737MOL0     C99420  -0.059   3.531   0.507  0.1731 -0.3236 -0.5989
  737MOL0     C99421  -0.019   3.463   0.368 -0.2749  0.5808 -0.8534
  737MOL0     C99422  -0.129   3.456   0.263 -0.5684  0.2945  0.6918
  737MOL0     C99423  -0.173   3.598   0.244  0.6171  0.7973  0.9855
  737MOL0     C99424  -0.187   3.717   0.233  0.3422  0.0864  0.0631
  737MOL0     C99425  -0.048   3.370   0.907 -0.2924 -0.3378 -0.1319
  737MOL0     C99426  -0.006   3.289   1.011  0.6581 -0.7586  0.9419
  737MOL0     C99427  -0.080   3.146   1.022  0.1347 -0.3005 -0.4275
  737MOL0     H99428   0.362   3.009   1.145 -1.3621  0.7478 -0.0077
  737MOL0     H99429   0.443   2.841   1.314  3.0104 -0.2707  1.7844
  737MOL0     H99430   0.662   3.001   1.627 -0.4416 -0.8393  0.6235
  737MOL0     H99431   0.588   2.906   1.741  1.8030  2.1002  0.1646
  737MOL0     H99432   0.810   2.846   1.703 -0.3394  0.1255  0.2690
  737MOL0     H99433   0.800   2.848   1.538 -0.7574  0.9414  0.0858
  737MOL0     H99434   0.806   2.604   1.606  1.0394  1.4179 -1.5921
  737MOL0     H99435   0.658   2.632   1.529 -2.7300 -2.7986  1.9592
  737MOL0     H99436   0.717   2.649   1.837 -0.1161 -0.0343 -0.5117
  737MOL0     H99437   0.551   2.660   1.764 -0.9045 -2.1556 -3.2099
  737MOL0     H99438   0.566   2.435   1.686  0.8036  1.6649  0.0162
  737MOL0     H99439   0.734   2.411   1.743 -0.0766 -2.7797  0.1637
  737MOL0     H99440   0.504   2.483   1.939 -0.3316 -1.7019  1.5257
  737MOL0     H99441   0.543   2.328   1.891  0.7421 -0.4828 -1.2986
  737MOL0     H99442   0.734   2.526   2.012  0.6135 -2.2904  3.0738
  737MOL0     H99443   0.795   2.383   1.951  2.0188  1.7341  1.5864
  737MOL0     H99444   0.565   2.417   2.150  0.4936 -0.1310  1.0988
  737MOL0     H99445   0.633   2.253   2.111  2.0797 -1.1302 -0.0585
  737MOL0     H99446   0.715   2.554   2.347  0.7464  0.2494  0.6497
  737MOL0     H99447   0.858   2.540   2.560 -2.2677  4.0597 -2.7138
  737MOL0     H99448   1.023   2.466   2.522  0.2292 -2.0093 -3.0908
  737MOL0     H99449   1.003   2.652   2.324  0.2139  3.5401  0.5914
  737MOL0     H99450   0.891   2.715   2.448 -1.0636  0.1389  1.4143
  737MOL0     H99451   1.146   2.797   2.456 -2.4463 -0.5119 -0.7245
  737MOL0     H99452   1.181   2.635   2.506  2.2051  0.5475 -1.4436
  737MOL0     H99453   0.954   2.764   2.674  0.3442  0.9386 -1.1865
  737MOL0     H99454   1.106   2.853   2.663  0.1011  0.5669 -2.3594
  737MOL0     H99455   1.122   2.614   2.996  0.6490 -2.8557 -0.4497
  737MOL0     H99456   1.339   2.638   3.139 -1.7714  3.0540  0.3850
  737MOL0     H99457   1.683   3.022   3.180  0.7444 -0.5093 -0.7682
  737MOL0     H99458   1.896   3.108   3.294 -0.7530  0.8070 -2.5675
  737MOL0     H99459   2.018   3.091   3.479 -0.1964 -0.2533  0.0361
  737MOL0     H99460   2.054   2.923   3.520 -1.5407  0.7988  1.0531
  737MOL0     H99461   2.227   3.028   3.644 -1.0427  0.3497 -0.3341
  737MOL0     H99462   2.308   2.997   3.493  0.8943  0.4099  0.6319
  737MOL0     H99463   2.383   3.190   3.570 -0.1941 -0.2590  2.0057
  737MOL0     H99464   2.257   3.253   3.454 -0.9953 -2.0069  0.0612
  737MOL0     H99465   2.261   3.249   3.762  0.5946 -1.1915 -0.3859
  737MOL0     H99466   2.115   3.267   3.670  0.4821 -0.5703  3.4499
  737MOL0     H99467   2.337   3.468   3.624  0.1859  3.3446 -0.9207
  737MOL0     H99468   2.205   3.493   3.737 -0.0518  1.3838 -2.1721
  737MOL0     H99469   2.183   3.488   3.438  2.0056  0.3021  0.7970
  737MOL0     H99470   2.046   3.496   3.568 -0.3156  2.3847  3.1834
  737MOL0     H99471   2.267   3.695   3.496 -0.9121  1.5514 -0.8927
  737MOL0     H99472   2.174   3.705   3.655 -1.4355 -0.0518 -0.9137
  737MOL0     H99473   2.109   3.849   3.450  0.3569  0.4538 -0.4440
  737MOL0     H99474   2.058   3.690   3.384  0.5150 -1.5464  0.1881
  737MOL0     H99475   2.088   2.750   3.206  0.1047 -1.3518  0.3093
  737MOL0     H99476   1.894   2.670   3.069 -1.8510  0.7377 -0.0504
  737MOL0     H99477   1.530   2.825   2.810  1.0998  0.7276  3.6273
  737MOL0     H99478   1.324   2.788   2.665  1.7096 -2.8542 -0.7753
  737MOL0     H99479   0.434   3.139   1.619 -0.9946 -0.1579  0.9251
  737MOL0     H99480   0.332   3.301   1.459 -1.0880 -0.6467 -0.1652
  737MOL0     H99481   0.256   3.484   1.101 -0.2558 -3.4023  3.7299
  737MOL0     H99482   0.178   3.614   0.915  1.0531 -1.5186  0.1468
  737MOL0     H99483   0.079   3.410   0.639  2.4177  2.1221  3.9664
  737MOL0     H99484   0.116   3.570   0.618  0.9059 -0.7109 -0.2984
  737MOL0     H99485  -0.076   3.636   0.482  0.0964  0.0909  1.0813
  737MOL0     H99486  -0.163   3.499   0.518 -0.5871  1.6120 -1.5761
  737MOL0     H99487   0.007   3.361   0.397  2.5881  1.5316  0.2497
  737MOL0     H99488   0.072   3.505   0.324  0.4057 -1.0695 -1.1021
  737MOL0     H99489  -0.094   3.408   0.171  2.0060 -0.7828  2.1392
  737MOL0     H99490  -0.216   3.401   0.301 -0.3977  0.5354  1.4374
  737MOL0     H99491  -0.195   3.820   0.208  0.6651  0.3110  0.8538
  737MOL0     H99492  -0.138   3.353   0.850 -1.8089 -0.4022  2.1518
  737MOL0     H99493  -0.134   3.121   0.931 -1.1559  1.3252 -0.1606
  737MOL0     H99494  -0.003   3.072   1.048  2.8457  2.1030 -1.0524
  737MOL0     H99495  -0.141   3.160   1.112  1.6908  2.3923  0.3617
  738MOL0     O99496   7.826   4.455   4.337  0.2591  0.6574 -0.3701
  738MOL0     C99497   7.933   4.433   4.280 -0.1213  0.0445 -0.0441
  738MOL0     O99498   8.043   4.364   4.328  1.0849  0.0633 -0.0427
  738MOL0     C99499   8.027   4.283   4.433  0.8540 -0.1355 -0.2807
  738MOL0     C99500   8.029   4.335   4.562 -0.0913 -0.2846  0.6956
  738MOL0     C99501   8.039   4.242   4.669  0.9996 -0.0404 -0.7937
  738MOL0     C99502   8.029   4.102   4.648  0.5077  0.1677 -0.2948
  738MOL0     O99503   8.021   4.008   4.748 -0.3576  0.1908 -0.5235
  738MOL0     C99504   8.052   4.047   4.889  0.4610 -0.0246 -0.2484
  738MOL0     C99505   8.000   3.946   4.998  0.4573 -0.5214 -0.1725
  738MOL0     C99506   8.006   3.995   5.146 -0.5584  0.0755  1.2956
  738MOL0     C99507   7.882   4.089   5.178 -0.8064  1.2110 -0.4619
  738MOL0     C99508   7.865   4.110   5.333  0.0088  0.3539 -0.1698
  738MOL0     C99509   7.768   4.220   5.385 -1.1285 -0.1062 -0.8544
  738MOL0     C99510   7.831   4.360   5.387  0.6805 -1.1726  0.2431
  738MOL0     C99511   7.750   4.469   5.455  0.1817  0.1406 -0.7604
  738MOL0     N99512   7.833   4.591   5.465 -0.3305  0.2111 -0.2351
  738MOL0     C99513   7.783   4.717   5.450 -0.0125 -0.0194  1.4761
  738MOL0     C99514   7.879   4.795   5.501  0.7126  0.3389 -0.4213
  738MOL0     C99515   7.867   4.942   5.507 -0.7265  0.0946  0.9030
  738MOL0     C99516   7.804   4.985   5.638 -0.6845 -0.9159  0.4624
  738MOL0     C99517   7.665   4.947   5.662 -0.7230  0.0194  0.3574
  738MOL0     C99518   7.598   5.034   5.767  0.0234  0.1642 -0.2652
  738MOL0     O99519   7.483   4.961   5.801  0.2156 -0.3161 -0.6876
  738MOL0     C99520   7.399   5.007   5.903  0.0025  0.1785 -0.6040
  738MOL0     C99521   7.311   4.926   5.980 -0.1735  0.6557 -0.0725
  738MOL0     C99522   7.231   4.981   6.070  0.0367 -0.2169  0.7941
  738MOL0     C99523   7.232   5.107   6.106  0.3665 -1.1890  0.0181
  738MOL0     C99524   7.142   5.167   6.207 -1.0653  0.0767 -0.7308
  738MOL0     O99525   7.130   5.308   6.212  0.4114 -0.3770  0.4596
  738MOL0     C99526   7.030   5.364   6.280 -0.3620  0.2373  0.6434
  738MOL0     C99527   7.065   5.475   6.353  0.0155  0.2626 -0.0874
  738MOL0     C99528   6.969   5.544   6.437 -0.4334  0.0247 -0.2699
  738MOL0     C99529   6.842   5.492   6.440  0.4831  0.1920  0.1722
  738MOL0     O99530   6.729   5.555   6.497  0.2258 -0.0946 -0.3542
  738MOL0     C99531   6.750   5.664   6.595 -0.2691  0.4964  0.4616
  738MOL0     C99532   6.603   5.704   6.644  0.0081 -0.8745 -0.0977
  738MOL0     C99533   6.618   5.808   6.764 -0.1190  0.8178  0.8109
  738MOL0     C99534   6.486   5.824   6.824  0.7282  0.3911 -0.7141
  738MOL0     C99535   6.495   5.881   6.969  1.1297 -0.4582 -0.4202
  738MOL0     C99536   6.357   5.881   7.040 -0.3195 -0.3237  0.1540
  738MOL0     C99537   6.359   5.935   7.180 -0.6433  0.0305 -0.5722
  738MOL0     C99538   6.226   5.937   7.247 -0.8570 -0.2686  0.1047
  738MOL0    Cl99539   6.170   5.768   7.254  0.0741 -0.1606 -0.1790
  738MOL0     C99540   6.808   5.377   6.365 -1.5353  0.5267  0.1886
  738MOL0     C99541   6.905   5.318   6.276  0.7403 -0.4044 -0.9475
  738MOL0     O99542   7.067   5.089   6.257  0.0169  0.0126 -0.6291
  738MOL0     C99543   7.326   5.189   6.043 -0.7698 -1.3318  0.0198
  738MOL0     C99544   7.398   5.145   5.935  0.0657  0.5139 -0.0170
  738MOL0     N99545   7.981   4.714   5.553 -0.6634 -0.4961 -0.2999
  738MOL0     N99546   7.955   4.592   5.531  0.5980 -0.4689 -0.1336
  738MOL0     C99547   8.026   4.059   4.518  0.3092  0.0563  0.0305
  738MOL0     C99548   8.014   4.149   4.411 -0.5070  0.1339  0.2718
  738MOL0     C99549   7.945   4.502   4.153 -0.0138  0.1168  0.2549
  738MOL0     C99550   7.954   4.641   4.147 -0.2648 -0.9171 -0.3672
  738MOL0     C99551   7.987   4.705   4.025  0.8355  0.2384  0.1506
  738MOL0     C99552   8.005   4.631   3.908  1.1122  0.5841  0.3365
  738MOL0     O99553   8.056   4.696   3.786 -0.2196  0.2964 -0.1326
  738MOL0     C99554   8.061   4.838   3.775  0.0469 -0.1621 -0.7819
  738MOL0     C99555   8.105   4.881   3.636 -0.7063 -0.1025 -0.5374
  738MOL0     C99556   8.022   4.836   3.522 -0.1758  0.6501  0.0770
  738MOL0     C99557   7.877   4.878   3.543  0.2624  0.8136  0.5676
  738MOL0     C99558   7.840   4.934   3.411  0.2523  0.7824 -0.3955
  738MOL0     C99559   7.784   4.964   3.312 -0.1948 -0.8883 -1.5883
  738MOL0     C99560   7.979   4.498   3.913  0.0901 -0.1356 -0.4239
  738MOL0     C99561   7.965   4.433   4.028 -0.1419  0.2025 -0.6982
  738MOL0     C99562   7.962   4.283   4.036  0.3224  0.3771  0.4044
  738MOL0     H99563   8.040   4.442   4.577 -1.1290  0.2166 -1.6229
  738MOL0     H99564   8.050   4.292   4.765  0.0192  0.9291 -1.1639
  738MOL0     H99565   8.161   4.053   4.884  0.4404 -0.4253 -2.1088
  738MOL0     H99566   8.012   4.147   4.905 -0.5900  0.1026 -3.1213
  738MOL0     H99567   8.073   3.865   5.005  1.5641  0.6330  3.7935
  738MOL0     H99568   7.898   3.916   4.972 -0.7504  1.6237  1.6746
  738MOL0     H99569   8.103   4.037   5.173  0.9832 -2.6473  0.2916
  738MOL0     H99570   7.999   3.899   5.198  2.0410 -2.6287 -2.8586
  738MOL0     H99571   7.904   4.190   5.143  5.4379  0.0139 -1.0719
  738MOL0     H99572   7.787   4.057   5.134 -0.6537  0.2992 -0.1511
  738MOL0     H99573   7.837   4.020   5.390 -0.4748  1.6507  1.7346
  738MOL0     H99574   7.962   4.150   5.363 -0.3110  3.2136 -2.5602
  738MOL0     H99575   7.676   4.230   5.326 -0.5879 -0.1493 -1.7264
  738MOL0     H99576   7.751   4.189   5.488 -1.4684 -1.2538 -1.2309
  738MOL0     H99577   7.845   4.390   5.282 -1.6141 -1.4794 -0.2183
  738MOL0     H99578   7.932   4.353   5.428  1.3991  1.7596 -0.7936
  738MOL0     H99579   7.655   4.487   5.405 -0.5582  0.5797  0.7384
  738MOL0     H99580   7.724   4.441   5.558  1.6061 -1.1968 -0.7213
  738MOL0     H99581   7.698   4.743   5.387  2.4359  2.0622 -1.2518
  738MOL0     H99582   7.970   4.977   5.501 -0.7018 -0.2548 -2.4331
  738MOL0     H99583   7.815   4.983   5.420  2.8110  1.3990 -0.7685
  738MOL0     H99584   7.876   4.957   5.716  0.5116 -2.3338 -1.0761
  738MOL0     H99585   7.810   5.094   5.633  3.0216 -0.9653  1.0052
  738MOL0     H99586   7.663   4.847   5.705 -1.9092 -0.4335 -0.7002
  738MOL0     H99587   7.608   4.964   5.570  0.6830 -0.8092 -0.7103
  738MOL0     H99588   7.572   5.129   5.719  1.5976  1.4184  1.2465
  738MOL0     H99589   7.669   5.051   5.848 -0.4370  1.7500 -0.1535
  738MOL0     H99590   7.301   4.819   5.970 -1.8425  0.7328  0.5622
  738MOL0     H99591   7.162   4.907   6.110 -1.3805  0.9722  0.6448
  738MOL0     H99592   7.163   5.521   6.348 -0.5560  1.3991 -3.4798
  738MOL0     H99593   6.989   5.634   6.495 -2.8766 -0.4822  1.5233
  738MOL0     H99594   6.807   5.628   6.682  1.3589  1.5690 -0.1255
  738MOL0     H99595   6.812   5.746   6.559 -1.4431  0.7837 -0.9545
  738MOL0     H99596   6.548   5.756   6.565  0.0549 -0.3039  0.2379
  738MOL0     H99597   6.534   5.623   6.671  1.1907 -0.7631  4.0063
  738MOL0     H99598   6.693   5.777   6.836  1.4828  0.3951 -0.9515
  738MOL0     H99599   6.643   5.910   6.736 -3.9477  0.9540 -3.5258
  738MOL0     H99600   6.416   5.739   6.821 -2.1350  2.6177 -1.7149
  738MOL0     H99601   6.440   5.892   6.752 -0.0576 -0.1328 -0.7251
  738MOL0     H99602   6.543   5.979   6.967  1.4735 -0.6176 -0.0698
  738MOL0     H99603   6.559   5.810   7.021  1.4613 -0.4264 -0.7817
  738MOL0     H99604   6.299   5.952   6.981 -1.5430 -1.9723 -0.7319
  738MOL0     H99605   6.314   5.782   7.018 -0.3496 -0.5861  1.3370
  738MOL0     H99606   6.413   6.030   7.177 -0.7037  0.0468 -1.1370
  738MOL0     H99607   6.409   5.859   7.242 -0.3952  0.4212 -0.2894
  738MOL0     H99608   6.235   5.986   7.345  1.1722 -2.0222  0.8929
  738MOL0     H99609   6.153   5.993   7.189  0.2410  1.8731  0.6610
  738MOL0     H99610   6.705   5.348   6.352 -0.8048 -1.0728 -2.9143
  738MOL0     H99611   6.876   5.233   6.215 -1.6956  0.0266 -0.4903
  738MOL0     H99612   7.330   5.295   6.066  3.1752 -0.8127 -2.1602
  738MOL0     H99613   7.439   5.221   5.868  1.2365 -0.5356 -0.5237
  738MOL0     H99614   8.042   3.957   4.486  1.9076  1.4447 -4.5312
  738MOL0     H99615   7.981   4.103   4.318  0.4395 -1.4827  0.7036
  738MOL0     H99616   7.951   4.701   4.237  6.5525 -1.6385  0.8363
  738MOL0     H99617   8.002   4.812   4.024  1.3214  0.1746 -0.9186
  738MOL0     H99618   8.134   4.884   3.842 -1.1405 -0.6607  0.9181
  738MOL0     H99619   7.966   4.883   3.809 -0.7789 -2.0662 -0.4473
  738MOL0     H99620   8.210   4.855   3.622 -0.8457 -2.2779  1.7912
  738MOL0     H99621   8.094   4.990   3.634 -0.6476 -0.0896 -3.5141
  738MOL0     H99622   8.028   4.727   3.512 -0.6768  0.7471 -1.6942
  738MOL0     H99623   8.069   4.870   3.429 -0.5251 -1.7748 -1.0705
  738MOL0     H99624   7.823   4.788   3.575  1.3355  0.1541  0.5716
  738MOL0     H99625   7.878   4.956   3.619 -0.4461  1.7614 -0.3613
  738MOL0     H99626   7.729   4.993   3.224  1.8322  2.5924 -1.8914
  738MOL0     H99627   7.993   4.449   3.817  1.1865  0.3520 -0.5315
  738MOL0     H99628   7.868   4.244   4.077 -0.9276  2.5484 -0.2483
  738MOL0     H99629   7.965   4.240   3.935  0.2095 -2.8566  1.6434
  738MOL0     H99630   8.037   4.225   4.091 -0.4110 -3.8727 -2.5007
  739MOL0     O99631   3.643   2.665   7.086 -0.1000 -0.4295  0.2931
  739MOL0     C99632   3.732   2.673   7.176 -0.6178 -0.1478  0.5987
  739MOL0     O99633   3.713   2.722   7.300 -0.7646 -0.8442 -0.3412
  739MOL0     C99634   3.599   2.791   7.324  0.3488 -0.4929 -0.0858
  739MOL0     C99635   3.487   2.731   7.377 -0.2555 -0.0285  0.3886
  739MOL0     C99636   3.374   2.802   7.419 -1.0072 -0.1544  0.2271
  739MOL0     C99637   3.374   2.942   7.398 -0.5731  0.6355  0.1106
  739MOL0     O99638   3.257   3.008   7.432  0.4309 -0.6227  0.4528
  739MOL0     C99639   3.216   3.125   7.357  0.3745 -0.1096  0.5709
  739MOL0     C99640   3.065   3.124   7.365 -0.4729 -1.2832  0.0834
  739MOL0     C99641   3.003   3.004   7.290  0.8110 -0.9447  0.2142
  739MOL0     C99642   2.856   3.041   7.265 -0.1056  0.9473  0.2256
  739MOL0     C99643   2.778   2.916   7.210  0.3976  0.6874  0.7449
  739MOL0     C99644   2.767   2.802   7.312  0.1278 -0.1234 -0.3614
  739MOL0     C99645   2.635   2.728   7.310 -0.4804  0.2349 -0.9393
  739MOL0     C99646   2.616   2.654   7.444 -0.5932 -1.4452 -0.9885
  739MOL0     N99647   2.483   2.594   7.456 -0.3441  0.4858  0.2871
  739MOL0     C99648   2.363   2.660   7.479  0.0955 -0.3835 -0.0439
  739MOL0     C99649   2.271   2.563   7.506 -0.6625 -0.7688 -0.4020
  739MOL0     C99650   2.132   2.573   7.547  0.3867  0.2268  0.2974
  739MOL0     C99651   2.059   2.653   7.446 -0.2098  0.2333 -0.3797
  739MOL0     C99652   1.907   2.657   7.475 -0.8292 -1.1570  0.0168
  739MOL0     C99653   1.822   2.763   7.399 -0.5984  0.4736 -0.7864
  739MOL0     O99654   1.844   2.788   7.257 -0.3592  0.1826  0.2478
  739MOL0     C99655   1.821   2.681   7.170  0.2264  0.1853  0.1867
  739MOL0     C99656   1.907   2.675   7.064  0.9744  1.2213 -0.5310
  739MOL0     C99657   1.895   2.566   6.972  0.3300  0.4801  0.1781
  739MOL0     C99658   1.785   2.474   6.982 -0.1466 -0.3435  0.1456
  739MOL0     C99659   1.757   2.377   6.876 -0.6131  0.9558 -0.1381
  739MOL0     O99660   1.841   2.352   6.774 -0.6729  0.3324  0.1037
  739MOL0     C99661   1.800   2.259   6.676  0.1900 -0.0669  0.9506
  739MOL0     C99662   1.698   2.289   6.597  0.3247  0.3003 -0.2693
  739MOL0     C99663   1.661   2.204   6.495  1.0088 -0.6270 -0.6807
  739MOL0     C99664   1.747   2.099   6.457 -0.8464 -0.2918  0.2493
  739MOL0     O99665   1.734   2.030   6.344  0.1737  0.0455  0.3755
  739MOL0     C99666   1.706   2.093   6.221 -1.0650  1.3983 -0.3152
  739MOL0     C99667   1.677   1.982   6.113 -0.9131 -0.7676 -0.6751
  739MOL0     C99668   1.805   1.896   6.076 -0.1656  0.2577 -0.1879
  739MOL0     C99669   1.879   1.811   6.185  0.6872  0.7318 -0.4419
  739MOL0     C99670   1.785   1.700   6.237 -0.1908 -0.3463 -0.1188
  739MOL0     C99671   1.747   1.595   6.130  0.1426  0.5445 -0.9154
  739MOL0     C99672   1.695   1.464   6.199  0.2352  0.8086 -0.2026
  739MOL0     C99673   1.696   1.342   6.108 -0.5668 -1.0619 -0.0057
  739MOL0    Cl99674   1.659   1.191   6.202  0.1556 -0.0024 -0.1650
  739MOL0     C99675   1.858   2.066   6.540  0.2849  0.4558 -0.5792
  739MOL0     C99676   1.872   2.138   6.656 -0.0853  0.1234 -0.4208
  739MOL0     O99677   1.653   2.312   6.903  0.7544  0.6741 -0.4618
  739MOL0     C99678   1.698   2.485   7.095 -0.8219 -0.0649  0.6251
  739MOL0     C99679   1.720   2.579   7.188  0.7490 -0.4176  0.4246
  739MOL0     N99680   2.344   2.445   7.493 -0.6704  0.1069 -0.0116
  739MOL0     N99681   2.468   2.460   7.450  1.3665 -0.2183 -0.0927
  739MOL0     C99682   3.487   3.008   7.348 -0.4660 -0.6414 -0.5905
  739MOL0     C99683   3.594   2.933   7.309 -0.2922  0.4379 -0.2815
  739MOL0     C99684   3.874   2.632   7.141  0.3374 -0.2268  1.1837
  739MOL0     C99685   3.964   2.733   7.109 -0.0727  0.7982 -1.0584
  739MOL0     C99686   4.095   2.697   7.083  0.1791  0.0732  0.3157
  739MOL0     C99687   4.132   2.564   7.081 -0.8032 -0.2212  0.4464
  739MOL0     O99688   4.267   2.529   7.060  1.3983 -0.6317  0.0307
  739MOL0     C99689   4.283   2.524   6.916  0.2798 -0.7506 -1.2038
  739MOL0     C99690   4.377   2.416   6.868  0.6928  0.0409  0.2209
  739MOL0     C99691   4.507   2.408   6.948 -0.6612 -0.5192  0.1384
  739MOL0     C99692   4.634   2.487   6.880 -0.3641 -0.3516  0.3566
  739MOL0     C99693   4.648   2.629   6.901 -0.3033 -0.6793 -0.1154
  739MOL0     C99694   4.655   2.742   6.932  0.5074  0.7803  0.0076
  739MOL0     C99695   4.048   2.467   7.119 -0.4437  0.2670 -0.0764
  739MOL0     C99696   3.917   2.497   7.153  0.1831 -0.2387  0.8136
  739MOL0     C99697   3.828   2.383   7.202 -0.7051  0.2854 -0.1369
  739MOL0     H99698   3.486   2.623   7.388 -3.4305  0.0487  2.1719
  739MOL0     H99699   3.290   2.747   7.460 -0.6250 -3.0184 -2.4165
  739MOL0     H99700   3.265   3.213   7.400 -1.3097  1.1125  0.1074
  739MOL0     H99701   3.241   3.115   7.251 -0.2594 -0.9096  0.4927
  739MOL0     H99702   3.040   3.224   7.329 -0.2159 -1.2168  0.0877
  739MOL0     H99703   3.040   3.120   7.471  2.0027 -3.0299  0.6802
  739MOL0     H99704   3.018   2.917   7.355  0.4532 -3.2924 -2.6145
  739MOL0     H99705   3.053   2.987   7.194 -3.2525 -2.1453 -1.9040
  739MOL0     H99706   2.811   3.074   7.359  0.2623 -0.9096  1.1110
  739MOL0     H99707   2.849   3.124   7.194  0.5554  0.9521  0.1662
  739MOL0     H99708   2.680   2.958   7.184 -1.3549 -2.2157  2.0618
  739MOL0     H99709   2.814   2.871   7.117 -2.2844 -0.1052 -0.0169
  739MOL0     H99710   2.851   2.739   7.281  0.1869  0.8128 -2.2637
  739MOL0     H99711   2.788   2.844   7.411 -5.5245 -0.6312  1.3747
  739MOL0     H99712   2.625   2.645   7.239  0.5354 -0.8620  0.1583
  739MOL0     H99713   2.550   2.796   7.295  0.1572  0.7939 -2.1402
  739MOL0     H99714   2.695   2.580   7.453  1.2749  0.6728  2.9397
  739MOL0     H99715   2.630   2.716   7.534  2.1877  2.1300 -3.6075
  739MOL0     H99716   2.354   2.768   7.481  0.7867 -0.3327  1.2692
  739MOL0     H99717   2.103   2.468   7.550 -1.3881  0.7053  0.6672
  739MOL0     H99718   2.128   2.604   7.652  0.7691 -2.9006  1.3457
  739MOL0     H99719   2.096   2.756   7.440  0.3441  0.0350 -0.4716
  739MOL0     H99720   2.077   2.616   7.345  1.1233  1.7524 -0.7377
  739MOL0     H99721   1.896   2.678   7.582  3.2804 -0.1742  0.4148
  739MOL0     H99722   1.877   2.555   7.448  0.8733 -1.8299  0.5311
  739MOL0     H99723   1.834   2.864   7.439  2.1843  0.0872 -0.4630
  739MOL0     H99724   1.715   2.741   7.414 -0.8901  2.0287 -0.3753
  739MOL0     H99725   1.982   2.753   7.050  0.6686  1.3419 -1.5259
  739MOL0     H99726   1.945   2.568   6.876  0.4475 -4.1926 -0.0737
  739MOL0     H99727   1.628   2.367   6.624 -1.8269 -1.1568 -1.3506
  739MOL0     H99728   1.569   2.230   6.444  0.1356 -0.4022  0.9706
  739MOL0     H99729   1.619   2.159   6.220 -1.2602  1.3505 -4.6479
  739MOL0     H99730   1.796   2.147   6.192  0.6313  0.8151  3.2480
  739MOL0     H99731   1.584   1.928   6.135 -2.2498  2.2885  1.9967
  739MOL0     H99732   1.655   2.047   6.029  0.5973  2.2919  1.1260
  739MOL0     H99733   1.786   1.824   5.996  1.3503 -0.0120 -0.3382
  739MOL0     H99734   1.875   1.969   6.036 -1.4563  1.0808 -1.0127
  739MOL0     H99735   1.913   1.876   6.266  0.0963  1.9760 -1.1650
  739MOL0     H99736   1.975   1.779   6.142  0.4385  1.0629 -1.2758
  739MOL0     H99737   1.687   1.735   6.270  0.3309  1.3631 -0.2874
  739MOL0     H99738   1.835   1.653   6.322  0.8844  2.8036  1.1407
  739MOL0     H99739   1.662   1.634   6.075 -0.7770  0.7615  0.5964
  739MOL0     H99740   1.835   1.571   6.070  0.0277  3.6260 -2.5066
  739MOL0     H99741   1.592   1.477   6.234  0.9886  1.4047  1.9977
  739MOL0     H99742   1.756   1.432   6.284 -3.3927 -1.3220  1.8535
  739MOL0     H99743   1.621   1.368   6.033 -2.2540 -0.7610  1.7301
  739MOL0     H99744   1.786   1.345   6.045 -0.4019  4.6664  0.0447
  739MOL0     H99745   1.922   1.981   6.521  2.3827  1.1523  2.4880
  739MOL0     H99746   1.957   2.119   6.722 -2.4734 -0.0152  2.8782
  739MOL0     H99747   1.609   2.424   7.100 -0.7928 -0.2748 -1.1168
  739MOL0     H99748   1.656   2.579   7.276  3.1370 -2.4086  2.3204
  739MOL0     H99749   3.506   3.114   7.334  2.9724 -0.6085  2.7175
  739MOL0     H99750   3.663   3.002   7.261 -1.0702  0.5600 -1.2503
  739MOL0     H99751   3.940   2.839   7.103  2.3126  1.5381  0.8865
  739MOL0     H99752   4.170   2.773   7.061 -0.9091  0.8542 -0.8433
  739MOL0     H99753   4.310   2.629   6.901 -2.1509  0.7146  3.1150
  739MOL0     H99754   4.191   2.519   6.858 -1.1347  1.9243  0.6073
  739MOL0     H99755   4.400   2.445   6.765  1.1034 -1.0462 -0.0103
  739MOL0     H99756   4.323   2.320   6.866  0.9748 -0.1123 -0.4097
  739MOL0     H99757   4.530   2.301   6.955 -1.6348 -0.6434  1.7243
  739MOL0     H99758   4.495   2.443   7.050  1.1643  0.4832  0.0481
  739MOL0     H99759   4.726   2.451   6.927  0.1669  2.3902  1.5806
  739MOL0     H99760   4.638   2.463   6.773 -2.6374 -2.1644  0.5916
  739MOL0     H99761   4.671   2.842   6.966 -1.2102  0.1314  3.0621
  739MOL0     H99762   4.075   2.362   7.125  0.2089  0.4205 -0.2383
  739MOL0     H99763   3.742   2.373   7.136 -0.1101 -0.9767 -0.7404
  739MOL0     H99764   3.890   2.294   7.195  0.1770  0.9041 -0.3250
  739MOL0     H99765   3.800   2.404   7.306  3.7364 -1.4696  1.6500
  740MOL0     O99766   0.535   3.951  10.448 -0.2259  0.4861  0.1732
  740MOL0     C99767   0.592   3.865  10.521  0.0670  0.1548 -0.2093
  740MOL0     O99768   0.684   3.892  10.614 -0.0878 -0.0938 -0.3373
  740MOL0     C99769   0.656   3.984  10.716  0.0867 -0.8221 -1.0207
  740MOL0     C99770   0.762   4.028  10.789 -0.0981 -0.2810  0.6781
  740MOL0     C99771   0.762   4.123  10.885  0.2315  0.9126 -0.5832
  740MOL0     C99772   0.637   4.175  10.931  0.0468  1.2909  0.3501
  740MOL0     O99773   0.635   4.258  11.037 -0.0615 -0.6151  0.6639
  740MOL0     C99774   0.658   4.398  10.996  0.1442  0.1667 -0.2457
  740MOL0     C99775   0.541   4.464  10.932  0.6773 -0.2488 -0.3553
  740MOL0     C99776   0.410   4.455  11.009 -0.0445  0.7771  0.0902
  740MOL0     C99777   0.302   4.547  10.957  0.4106 -0.0154  0.0525
  740MOL0     C99778   0.232   4.494  10.829  0.4492 -0.3114  0.0275
  740MOL0     C99779   0.170   4.609  10.745 -0.0212  0.4220  0.2279
  740MOL0     C99780   0.151   4.585  10.588 -0.1426  0.2416  0.1438
  740MOL0     C99781   0.064   4.472  10.565 -0.4788  1.0190  0.4975
  740MOL0     N99782  -0.081   4.479  10.585  0.5414  0.5068 -0.1999
  740MOL0     C99783  -0.172   4.556  10.509 -1.2199 -0.6251  0.0573
  740MOL0     C99784  -0.297   4.538  10.548 -1.0204  0.5631 -0.4345
  740MOL0     C99785  -0.424   4.597  10.490 -0.4688 -0.6611 -1.4180
  740MOL0     C99786  -0.420   4.611  10.330 -0.6290 -0.0234 -0.6270
  740MOL0     C99787  -0.489   4.503  10.255 -0.5388  0.2087  0.0696
  740MOL0     C99788  -0.436   4.486  10.112  0.7333 -0.4848  1.3979
  740MOL0     O99789  -0.485   4.592  10.028  0.7355  0.3484 -0.7040
  740MOL0     C99790  -0.479   4.572   9.893 -1.3792  0.3645 -0.8405
  740MOL0     C99791  -0.567   4.627   9.807  0.3203 -0.3076  0.4120
  740MOL0     C99792  -0.563   4.605   9.669 -0.0945 -0.0426  0.8767
  740MOL0     C99793  -0.473   4.512   9.609  0.7327 -0.2226  0.5241
  740MOL0     C99794  -0.469   4.486   9.463  0.0993  0.0416  0.1546
  740MOL0     O99795  -0.378   4.396   9.422  0.7368 -0.1686 -0.2340
  740MOL0     C99796  -0.370   4.361   9.286  1.1394  0.1996 -0.2537
  740MOL0     C99797  -0.242   4.336   9.229  0.1882  0.6647  0.4727
  740MOL0     C99798  -0.223   4.304   9.096  0.1259 -0.2205 -0.4755
  740MOL0     C99799  -0.340   4.289   9.016  0.1679  0.4896 -0.0040
  740MOL0     O99800  -0.333   4.241   8.887 -0.3618  0.4588 -0.4525
  740MOL0     C99801  -0.312   4.330   8.778  0.7869 -0.8935  0.0653
  740MOL0     C99802  -0.293   4.249   8.653 -0.2312  0.0947  0.0421
  740MOL0     C99803  -0.172   4.289   8.575  0.0180 -0.0336  0.3626
  740MOL0     C99804  -0.194   4.432   8.511  0.5633  0.2852 -0.2442
  740MOL0     C99805  -0.096   4.443   8.400 -0.4904 -0.5723 -0.3711
  740MOL0     C99806   0.053   4.428   8.446  0.2078 -0.3611 -1.1103
  740MOL0     C99807   0.149   4.443   8.330  0.6922 -0.1276 -0.4210
  740MOL0     C99808   0.301   4.425   8.338  0.1260  0.5317 -1.2636
  740MOL0    Cl99809   0.373   4.539   8.456 -0.0519 -0.6997 -0.1977
  740MOL0     C99810  -0.464   4.297   9.076  0.1973 -0.7658 -0.5849
  740MOL0     C99811  -0.486   4.345   9.209 -0.2219  0.2515 -0.5575
  740MOL0     O99812  -0.570   4.526   9.403  0.3712  0.0440 -0.6665
  740MOL0     C99813  -0.388   4.445   9.696  0.3719 -0.2880  0.1040
  740MOL0     C99814  -0.392   4.477   9.834  0.2885  0.3147  0.0018
  740MOL0     N99815  -0.290   4.429  10.628 -0.1532 -0.8170  0.0265
  740MOL0     N99816  -0.166   4.392  10.651 -0.5759  0.0707  0.4631
  740MOL0     C99817   0.525   4.121  10.863  0.2079  0.6666 -0.0263
  740MOL0     C99818   0.527   4.026  10.759 -0.6021 -0.5266  0.2624
  740MOL0     C99819   0.552   3.721  10.512  0.2853 -0.5592 -0.2521
  740MOL0     C99820   0.534   3.681  10.377 -0.2814 -0.2475 -0.3937
  740MOL0     C99821   0.483   3.560  10.354  0.7766 -1.1885 -0.6195
  740MOL0     C99822   0.435   3.479  10.451 -0.2102  0.4939 -0.1898
  740MOL0     O99823   0.392   3.353  10.417  0.3083 -0.9768  0.7292
  740MOL0     C99824   0.318   3.278  10.510  0.1591  0.5420  0.5731
  740MOL0     C99825   0.247   3.147  10.452 -1.0017 -0.2669 -0.1037
  740MOL0     C99826   0.129   3.134  10.556 -0.4486 -0.4157 -0.2016
  740MOL0     C99827   0.053   2.996  10.534 -0.3883 -0.7297  0.4448
  740MOL0     C99828  -0.034   2.984  10.651  0.4635 -0.0267  0.0836
  740MOL0     C99829  -0.113   2.992  10.741  0.1430 -0.1236 -0.3299
  740MOL0     C99830   0.448   3.510  10.584 -0.0616 -0.2094  0.7048
  740MOL0     C99831   0.507   3.630  10.614  0.4035  0.1872 -0.9694
  740MOL0     C99832   0.511   3.672  10.762 -0.0294  0.0192  0.1796
  740MOL0     H99833   0.854   3.978  10.760 -1.2654 -1.6454 -0.9196
  740MOL0     H99834   0.853   4.165  10.926 -0.9830  3.0839  0.0349
  740MOL0     H99835   0.680   4.442  11.094 -0.2561 -0.1103 -0.0252
  740MOL0     H99836   0.750   4.404  10.937  0.1269  2.3805 -0.1221
  740MOL0     H99837   0.514   4.423  10.834 -3.2664 -2.7406  1.4914
  740MOL0     H99838   0.563   4.571  10.933 -1.7529  0.3579  2.6493
  740MOL0     H99839   0.436   4.485  11.111  0.4058 -1.2499  0.6136
  740MOL0     H99840   0.380   4.350  11.014 -1.9709  1.0475 -2.8464
  740MOL0     H99841   0.235   4.579  11.038 -0.4700  0.3197 -0.7970
  740MOL0     H99842   0.357   4.632  10.915  0.1330 -0.2564 -0.8179
  740MOL0     H99843   0.289   4.427  10.764 -0.4894  0.2708 -1.4285
  740MOL0     H99844   0.141   4.445  10.865 -0.8453  1.8222 -0.1730
  740MOL0     H99845   0.073   4.641  10.784  0.3543  1.0132  0.6967
  740MOL0     H99846   0.238   4.694  10.756  1.9612 -1.0258 -0.2044
  740MOL0     H99847   0.246   4.576  10.535 -0.6713  1.5786 -1.0916
  740MOL0     H99848   0.103   4.670  10.538 -1.4857  0.6838  2.0453
  740MOL0     H99849   0.083   4.456  10.458  1.3947  1.1640  0.7777
  740MOL0     H99850   0.093   4.376  10.609 -1.5317  0.5754  0.2521
  740MOL0     H99851  -0.148   4.630  10.434  1.1957  2.2549  3.3494
  740MOL0     H99852  -0.510   4.533  10.514 -2.5082  1.2125 -3.2924
  740MOL0     H99853  -0.452   4.690  10.542 -0.1378 -0.0549 -2.2983
  740MOL0     H99854  -0.461   4.710  10.309  1.5057  0.2492 -4.6209
  740MOL0     H99855  -0.317   4.615  10.293  0.9702 -0.7194  3.2727
  740MOL0     H99856  -0.597   4.522  10.251 -1.0710 -2.3275  0.2479
  740MOL0     H99857  -0.469   4.407  10.305 -1.0607 -0.1368 -0.3790
  740MOL0     H99858  -0.462   4.387  10.075 -0.1232 -0.1157  0.9796
  740MOL0     H99859  -0.327   4.493  10.108  0.7706  0.3313 -3.6158
  740MOL0     H99860  -0.641   4.689   9.855  1.9848  1.5525  0.6906
  740MOL0     H99861  -0.652   4.644   9.622 -1.6975 -3.5247  0.6891
  740MOL0     H99862  -0.157   4.357   9.294  2.6972  0.3150 -2.5000
  740MOL0     H99863  -0.124   4.286   9.054 -0.0780  0.8482 -1.4829
  740MOL0     H99864  -0.396   4.399   8.774  0.7139 -0.9908 -0.0774
  740MOL0     H99865  -0.225   4.396   8.776  0.3115 -0.2589  0.0370
  740MOL0     H99866  -0.269   4.146   8.685 -2.1894 -1.1557 -2.2248
  740MOL0     H99867  -0.381   4.247   8.588 -0.9859 -0.3568  1.0488
  740MOL0     H99868  -0.079   4.294   8.632  0.0862  3.9570  0.1853
  740MOL0     H99869  -0.167   4.216   8.493  0.0510 -0.2092  0.5204
  740MOL0     H99870  -0.172   4.512   8.582 -1.8811  0.0225  0.9249
  740MOL0     H99871  -0.299   4.440   8.483  0.6111 -0.0937 -0.5472
  740MOL0     H99872  -0.096   4.544   8.359  1.6870 -0.0953  0.6927
  740MOL0     H99873  -0.111   4.371   8.319  0.7638 -1.4041  0.1046
  740MOL0     H99874   0.071   4.495   8.530  0.4951 -2.6510  0.7664
  740MOL0     H99875   0.067   4.334   8.500  2.5541  1.9162  2.6686
  740MOL0     H99876   0.109   4.533   8.282 -2.5791 -2.0843 -1.6419
  740MOL0     H99877   0.126   4.368   8.254  0.2935 -0.0542 -0.3727
  740MOL0     H99878   0.322   4.320   8.359  0.8915  0.4229 -2.4544
  740MOL0     H99879   0.351   4.442   8.242  0.6280  0.0665 -1.0907
  740MOL0     H99880  -0.551   4.272   9.016  0.9766 -3.1653 -0.8001
  740MOL0     H99881  -0.587   4.338   9.246 -0.5665 -0.9846 -1.6511
  740MOL0     H99882  -0.324   4.365   9.660  1.2507  0.8949 -1.0331
  740MOL0     H99883  -0.318   4.431   9.899  1.3192  0.1617 -1.2306
  740MOL0     H99884   0.435   4.175  10.893 -0.3755 -0.4364  0.2492
  740MOL0     H99885   0.440   3.990  10.706 -0.1007  0.8049 -1.6061
  740MOL0     H99886   0.566   3.740  10.292 -2.6317 -0.8445 -1.7877
  740MOL0     H99887   0.466   3.538  10.249  2.1631 -0.1640 -1.0919
  740MOL0     H99888   0.253   3.349  10.561  2.9761  3.8716 -0.1130
  740MOL0     H99889   0.380   3.244  10.593  0.4321  0.4548  0.3381
  740MOL0     H99890   0.325   3.071  10.462 -0.3088  0.4404  0.0155
  740MOL0     H99891   0.227   3.169  10.347  1.2995  0.6364 -0.4226
  740MOL0     H99892   0.066   3.224  10.555 -0.4446 -0.3656 -2.9556
  740MOL0     H99893   0.170   3.123  10.657  2.2168 -1.4126 -1.2961
  740MOL0     H99894   0.001   3.000  10.438 -2.3100  0.4950  1.4724
  740MOL0     H99895   0.131   2.920  10.523  0.1143  0.0536 -2.2066
  740MOL0     H99896  -0.171   3.001  10.831 -0.2736  1.5733 -0.7429
  740MOL0     H99897   0.417   3.453  10.671 -4.1649  4.1842  2.5673
  740MOL0     H99898   0.431   3.743  10.784 -0.2685  0.1360 -1.0172
  740MOL0     H99899   0.492   3.581  10.819  4.7248 -0.5248  1.3292
  740MOL0     H99900   0.609   3.708  10.795 -0.8782  2.4767  0.2293
  741MOL0     O99901   7.677   8.948   7.245  0.0088 -1.1621 -0.5580
  741MOL0     C99902   7.625   8.900   7.146  0.9979 -0.8237 -0.0174
  741MOL0     O99903   7.523   8.964   7.087 -0.0107 -0.4484  0.1452
  741MOL0     C99904   7.518   9.098   7.099  0.0552  0.4582 -0.3790
  741MOL0     C99905   7.625   9.182   7.081  0.7104 -0.6233  0.7710
  741MOL0     C99906   7.601   9.317   7.080 -0.1347 -0.2534 -0.4332
  741MOL0     C99907   7.474   9.374   7.074 -1.3338  0.1658  1.0257
  741MOL0     O99908   7.456   9.511   7.073 -0.3580  0.0994  0.3221
  741MOL0     C99909   7.565   9.600   7.117 -0.4999 -0.5367  0.2504
  741MOL0     C99910   7.574   9.584   7.269 -0.3190  0.4363 -0.2942
  741MOL0     C99911   7.699   9.645   7.330  0.1864 -0.2585 -1.2624
  741MOL0     C99912   7.774   9.740   7.236 -0.1593  0.0354 -0.4342
  741MOL0     C99913   7.901   9.778   7.311 -0.1381  0.3435  0.0202
  741MOL0     C99914   7.989   9.869   7.228  0.8486  0.0878 -0.3206
  741MOL0     C99915   8.103   9.918   7.315 -0.3080  0.1813 -0.7355
  741MOL0     C99916   8.212   9.980   7.231 -1.0016 -0.4847  0.2179
  741MOL0     N99917   8.319  10.047   7.308  0.1486  0.1884  0.0768
  741MOL0     C99918   8.310  10.155   7.389  0.9121  0.5187 -0.1255
  741MOL0     C99919   8.435  10.160   7.449  1.0659 -0.1356 -0.0174
  741MOL0     C99920   8.471  10.257   7.563  0.0911  1.0242 -0.0531
  741MOL0     C99921   8.443  10.195   7.703 -0.5081  0.2724 -0.1261
  741MOL0     C99922   8.294  10.196   7.730  0.6945  0.3762 -0.1648
  741MOL0     C99923   8.260  10.158   7.874 -0.9007 -0.2444  0.3016
  741MOL0     O99924   8.306  10.257   7.966  0.3065 -0.1619  0.0378
  741MOL0     C99925   8.210  10.321   8.028  1.3152 -0.0743  0.0369
  741MOL0     C99926   8.186  10.288   8.153  0.2707 -0.2864 -1.3346
  741MOL0     C99927   8.092  10.366   8.224 -0.7620 -0.9224  0.0460
  741MOL0     C99928   8.025  10.472   8.165 -0.2549  0.5598  0.2494
  741MOL0     C99929   7.928  10.545   8.231  0.1913 -0.1831  0.2732
  741MOL0     O99930   7.939  10.557   8.367  0.1175  0.2071 -0.3223
  741MOL0     C99931   7.822  10.587   8.430 -0.4384  0.2162 -0.2462
  741MOL0     C99932   7.717  10.490   8.442  0.4586 -0.3910 -0.5787
  741MOL0     C99933   7.616  10.517   8.531  1.1314  0.7728  0.1103
  741MOL0     C99934   7.599  10.650   8.586  0.2549  0.7475  0.3161
  741MOL0     O99935   7.483  10.695   8.654 -0.4253  0.1179  0.8390
  741MOL0     C99936   7.364  10.689   8.578 -0.0953 -0.2620  0.7774
  741MOL0     C99937   7.284  10.821   8.577 -0.2299  0.8478  0.5588
  741MOL0     C99938   7.130  10.813   8.544  0.5486  0.2998 -0.1657
  741MOL0     C99939   7.052  10.703   8.614  0.7324  0.1812  0.0876
  741MOL0     C99940   6.915  10.693   8.543  0.9409  0.3138  0.0241
  741MOL0     C99941   6.809  10.795   8.592 -0.7859  0.6937 -0.1310
  741MOL0     C99942   6.697  10.805   8.490  0.1796  0.3331 -0.5136
  741MOL0     C99943   6.626  10.685   8.428  0.0465 -0.3395 -0.1940
  741MOL0    Cl99944   6.548  10.580   8.555 -0.3412  0.1898  0.0538
  741MOL0     C99945   7.707  10.736   8.567  0.0579  1.2396 -0.1358
  741MOL0     C99946   7.815  10.707   8.492  0.0742 -0.2663  0.5653
  741MOL0     O99947   7.832  10.580   8.169 -0.2880  0.2813  0.2830
  741MOL0     C99948   8.050  10.496   8.029 -0.1467  0.7038  0.1129
  741MOL0     C99949   8.148  10.427   7.958  0.5796 -0.0439  0.8726
  741MOL0     N99950   8.514  10.065   7.403  0.5287  0.3875 -0.1386
  741MOL0     N99951   8.446   9.989   7.316 -0.3232 -0.1192 -0.1137
  741MOL0     C99952   7.371   9.285   7.091 -0.2055 -0.3018 -0.6880
  741MOL0     C99953   7.393   9.150   7.100  0.1750  0.0141 -0.1109
  741MOL0     C99954   7.658   8.761   7.099  1.4072  0.1994  0.6923
  741MOL0     C99955   7.591   8.706   6.997  0.4864  0.7683  0.5132
  741MOL0     C99956   7.619   8.584   6.929 -0.2805 -0.1039  0.0141
  741MOL0     C99957   7.719   8.505   6.988  0.6784 -0.0845  0.7561
  741MOL0     O99958   7.756   8.379   6.950  0.5724 -0.2453  0.0434
  741MOL0     C99959   7.690   8.278   7.035  0.8854  0.9796 -0.4729
  741MOL0     C99960   7.582   8.182   6.977  0.0518  0.4452  0.5071
  741MOL0     C99961   7.626   8.156   6.832  0.4872  0.2562  0.3555
  741MOL0     C99962   7.536   8.036   6.775  0.1368  0.0944 -0.5701
  741MOL0     C99963   7.581   7.901   6.826 -0.3903 -0.1797  0.4758
  741MOL0     C99964   7.625   7.808   6.889 -0.9450  0.0164 -0.4612
  741MOL0     C99965   7.787   8.558   7.093  0.5177  0.7305 -0.9273
  741MOL0     C99966   7.767   8.688   7.147  0.5190  0.8200 -1.0349
  741MOL0     C99967   7.859   8.744   7.258  0.4829 -0.2989  0.7355
  741MOL0     H99968   7.725   9.149   7.054  0.6264  0.9988 -1.9083
  741MOL0     H99969   7.691   9.376   7.091 -1.0984  1.6751 -2.0454
  741MOL0     H99970   7.652   9.574   7.055 -0.4016  1.4635 -0.5352
  741MOL0     H99971   7.555   9.704   7.083  0.7037  0.9928  4.0937
  741MOL0     H99972   7.572   9.476   7.287  4.1376 -0.6324 -4.2581
  741MOL0     H99973   7.488   9.634   7.315  1.8595  4.1525  0.1457
  741MOL0     H99974   7.768   9.572   7.372  1.2038  1.6214  0.5378
  741MOL0     H99975   7.672   9.692   7.426  2.6797 -1.5944  0.1830
  741MOL0     H99976   7.806   9.695   7.142  0.1925  0.1262 -0.3593
  741MOL0     H99977   7.720   9.833   7.214  0.3387  0.3955 -0.1791
  741MOL0     H99978   7.878   9.825   7.407 -0.4290  1.3733 -0.5309
  741MOL0     H99979   7.961   9.691   7.338 -0.1306  0.6246  0.9394
  741MOL0     H99980   8.026   9.828   7.134  2.2380 -0.3438  0.3720
  741MOL0     H99981   7.931   9.957   7.201 -0.0623 -0.8873 -1.6321
  741MOL0     H99982   8.147   9.833   7.367 -0.1638  0.2923 -0.6727
  741MOL0     H99983   8.072   9.993   7.390  0.9402  0.5192 -0.5264
  741MOL0     H99984   8.261   9.909   7.164 -0.8765  1.3547 -1.7325
  741MOL0     H99985   8.167  10.062   7.175 -0.5781  0.9494  1.9155
  741MOL0     H99986   8.217  10.206   7.415 -0.3628 -2.1818  0.9565
  741MOL0     H99987   8.580  10.258   7.576  0.1745 -4.6220  2.6857
  741MOL0     H99988   8.437  10.360   7.548  1.8906  1.5649 -0.7363
  741MOL0     H99989   8.492  10.097   7.709  0.1546  0.5651 -0.5848
  741MOL0     H99990   8.481  10.257   7.784 -1.3010  2.7363 -1.5010
  741MOL0     H99991   8.250  10.117   7.668  0.6959 -0.1782  0.5178
  741MOL0     H99992   8.253  10.296   7.720  2.3018  1.2541  1.4499
  741MOL0     H99993   8.297  10.058   7.899 -1.9485 -0.1913  2.3453
  741MOL0     H99994   8.151  10.156   7.870 -0.8413 -1.6950 -2.3206
  741MOL0     H99995   8.222  10.197   8.201 -2.4009 -1.9184 -2.1306
  741MOL0     H99996   8.089  10.351   8.331 -0.6835  2.4860  0.6328
  741MOL0     H99997   7.715  10.389   8.401  0.3612 -0.1386 -1.2201
  741MOL0     H99998   7.535  10.446   8.545  1.2973  0.4924 -0.3394
  741MOL0     H99999   7.384  10.683   8.471  0.3721  2.1336  0.6784
  741MOL0     H    0   7.306  10.603   8.614 -0.1940 -1.8850 -2.8721
  741MOL0     H    1   7.302  10.868   8.674 -0.2687  2.1193 -0.0274
  741MOL0     H    2   7.332  10.879   8.498 -0.5110  1.7858  1.0636
  741MOL0     H    3   7.079  10.904   8.577 -2.0121 -2.0088  2.8875
  741MOL0     H    4   7.116  10.798   8.436 -0.5191  1.4600 -0.2133
  741MOL0     H    5   7.036  10.713   8.722 -3.7308  1.6375 -0.4991
  741MOL0     H    6   7.109  10.610   8.605 -0.2661 -0.5987  1.4528
  741MOL0     H    7   6.869  10.598   8.572  0.2317  1.2711  2.2685
  741MOL0     H    8   6.913  10.696   8.434 -1.6481  0.9279  0.0382
  741MOL0     H    9   6.759  10.756   8.680 -0.5108 -1.7530 -0.9925
  741MOL0     H   10   6.833  10.901   8.608 -0.6958  0.6132  0.2658
  741MOL0     H   11   6.736  10.872   8.413 -1.5915 -0.0882 -1.8385
  741MOL0     H   12   6.623  10.862   8.546  1.9558  2.4002 -0.1068
  741MOL0     H   13   6.554  10.711   8.350 -0.9516 -5.0137 -1.1657
  741MOL0     H   14   6.700  10.626   8.373  0.4732  2.1325 -2.4809
  741MOL0     H   15   7.685  10.827   8.623 -1.6195 -0.8041  2.7841
  741MOL0     H   16   7.889  10.780   8.462  0.0564  0.7399  2.7737
  741MOL0     H   17   7.996  10.574   7.977  1.7060  2.0665  0.1452
  741MOL0     H   18   8.184  10.444   7.857 -1.0187  0.0854  0.3084
  741MOL0     H   19   7.272   9.328   7.097 -0.8143 -1.8237  2.0108
  741MOL0     H   20   7.312   9.078   7.104  0.8886 -0.8017 -0.1284
  741MOL0     H   21   7.519   8.766   6.943  1.0003  0.0780 -1.0084
  741MOL0     H   22   7.561   8.561   6.840  0.2474  0.2668 -0.4272
  741MOL0     H   23   7.639   8.326   7.119  1.9931  1.6330 -0.1478
  741MOL0     H   24   7.765   8.217   7.086  0.7652  1.9049  0.8717
  741MOL0     H   25   7.478   8.215   6.976 -1.1257 -2.8107  0.7743
  741MOL0     H   26   7.582   8.086   7.031  2.0457  0.1121 -0.0017
  741MOL0     H   27   7.731   8.128   6.816 -0.1568 -1.5499 -1.0130
  741MOL0     H   28   7.601   8.248   6.778  0.3001  1.6309  2.6666
  741MOL0     H   29   7.429   8.040   6.796  0.3439 -0.6026  0.7890
  741MOL0     H   30   7.544   8.022   6.667  2.7140  0.0989 -0.4494
  741MOL0     H   31   7.677   7.745   6.959 -1.1710 -0.5014 -0.7474
  741MOL0     H   32   7.852   8.479   7.131  0.6343  0.8859 -0.8015
  741MOL0     H   33   7.937   8.677   7.292 -0.1052 -0.2925  2.1833
  741MOL0     H   34   7.901   8.839   7.223 -1.1524  0.6711  1.2922
  741MOL0     H   35   7.804   8.764   7.351 -2.4376  0.2834 -0.9813
  742MOL0     O   36   3.169   5.707   7.465 -0.7318  0.7280 -0.2729
  742MOL0     C   37   3.276   5.659   7.498  0.3873  0.3398 -0.0318
  742MOL0     O   38   3.323   5.647   7.624  0.1165 -0.1348  0.3531
  742MOL0     C   39   3.255   5.690   7.731 -0.6776 -0.7890  0.2240
  742MOL0     C   40   3.120   5.715   7.741  0.1721 -0.1014 -0.3648
  742MOL0     C   41   3.056   5.750   7.860  0.1095  1.1928  0.6239
  742MOL0     C   42   3.134   5.764   7.976 -0.0603 -0.5169  0.6368
  742MOL0     O   43   3.075   5.806   8.099 -0.0020  0.9925 -0.2845
  742MOL0     C   44   2.951   5.878   8.102  0.4595 -0.9629 -0.6540
  742MOL0     C   45   2.966   5.996   8.200  0.2606  0.2981  0.1123
  742MOL0     C   46   2.827   6.047   8.238  0.9988  0.0614  0.3457
  742MOL0     C   47   2.771   5.998   8.373 -0.0601  0.4208  0.8754
  742MOL0     C   48   2.627   6.045   8.385  0.0842 -0.2657 -0.2367
  742MOL0     C   49   2.589   6.005   8.528 -0.4734 -0.3444 -0.1228
  742MOL0     C   50   2.435   6.036   8.557 -0.1652 -1.0319  0.0323
  742MOL0     C   51   2.394   6.014   8.695  0.6550 -0.0181 -0.4090
  742MOL0     N   52   2.252   6.032   8.718  0.4025  0.6050 -0.4359
  742MOL0     C   53   2.148   6.094   8.643 -0.2473  0.0999 -0.3692
  742MOL0     C   54   2.052   6.112   8.739  0.4609 -0.1798  0.0256
  742MOL0     C   55   1.923   6.181   8.712  0.3806 -0.0901 -0.8595
  742MOL0     C   56   1.796   6.089   8.747 -0.0481  0.6451  0.9327
  742MOL0     C   57   1.662   6.150   8.709  0.6541  0.0746 -0.8138
  742MOL0     C   58   1.638   6.158   8.565 -0.0481 -0.2363  1.0208
  742MOL0     O   59   1.627   6.024   8.527 -0.2641  0.3277  0.2960
  742MOL0     C   60   1.552   5.991   8.414  0.6639  0.3349 -1.0110
  742MOL0     C   61   1.480   6.081   8.329 -0.1601  0.7677  0.1583
  742MOL0     C   62   1.418   6.037   8.212 -0.5190 -0.8221  0.9617
  742MOL0     C   63   1.420   5.902   8.174  0.1055  0.0910 -0.1326
  742MOL0     C   64   1.367   5.864   8.047  0.1344 -0.4695  0.1563
  742MOL0     O   65   1.337   5.732   8.024 -0.0241  0.3005  0.2201
  742MOL0     C   66   1.248   5.704   7.930 -0.2942  0.6165 -0.9619
  742MOL0     C   67   1.286   5.632   7.823  0.1604  0.0524  0.1108
  742MOL0     C   68   1.188   5.599   7.719 -0.2217  0.3917  1.1282
  742MOL0     C   69   1.055   5.630   7.732  0.2735  0.1605 -0.5200
  742MOL0     O   70   0.959   5.591   7.647 -0.1348  0.0443 -0.2307
  742MOL0     C   71   1.004   5.545   7.513  0.0495 -0.4395 -0.0403
  742MOL0     C   72   0.879   5.541   7.422 -0.2324 -0.0677 -0.3050
  742MOL0     C   73   0.919   5.458   7.297 -0.1169  0.8083 -0.0266
  742MOL0     C   74   0.816   5.446   7.196  0.4311  0.9301 -0.5017
  742MOL0     C   75   0.688   5.377   7.243  0.7950 -0.2872 -0.2996
  742MOL0     C   76   0.708   5.218   7.253 -0.5251 -0.1969 -0.5968
  742MOL0     C   77   0.579   5.153   7.300  0.2674  0.4023  0.2917
  742MOL0     C   78   0.571   5.005   7.273  0.3662  0.0725  0.0829
  742MOL0    Cl   79   0.686   4.903   7.384 -0.2225 -0.0715  0.0907
  742MOL0     C   80   1.015   5.692   7.843  0.2563 -0.4873  0.5461
  742MOL0     C   81   1.108   5.730   7.944 -0.7800 -0.2631 -0.6970
  742MOL0     O   82   1.328   5.959   7.976 -0.3115  0.1177  0.4819
  742MOL0     C   83   1.485   5.813   8.263 -1.2846  0.3126 -0.3075
  742MOL0     C   84   1.555   5.855   8.382  1.4772  0.6771  0.3054
  742MOL0     N   85   2.083   6.060   8.861  0.2628  0.0544 -0.1562
  742MOL0     N   86   2.191   6.003   8.839  0.5650  0.4331 -0.4297
  742MOL0     C   87   3.271   5.758   7.962 -0.2517  0.6850  0.2962
  742MOL0     C   88   3.332   5.720   7.848  0.6064  0.6450 -0.2734
  742MOL0     C   89   3.374   5.622   7.386  0.4867 -0.1759  0.5211
  742MOL0     C   90   3.500   5.566   7.423 -0.3202 -0.1008  0.1824
  742MOL0     C   91   3.596   5.517   7.328  0.0079 -1.0005  0.4900
  742MOL0     C   92   3.553   5.506   7.197  0.5265  0.7744  0.7106
  742MOL0     O   93   3.627   5.439   7.100 -0.0304 -1.0832 -0.5414
  742MOL0     C   94   3.764   5.489   7.098 -0.7572 -0.0744  0.4475
  742MOL0     C   95   3.824   5.441   6.971  0.4978  0.2520 -0.4206
  742MOL0     C   96   3.856   5.287   6.985 -0.0141  0.2764 -0.3707
  742MOL0     C   97   3.917   5.227   6.858 -0.0075  0.5428 -0.3799
  742MOL0     C   98   3.969   5.098   6.889 -0.5613  0.4767  0.1456
  742MOL0     C   99   4.016   4.986   6.901  0.1045 -0.5120  0.9914
  742MOL0     C  100   3.425   5.553   7.157  0.0073  0.0348 -0.9166
  742MOL0     C  101   3.341   5.621   7.248 -0.1491  0.4012  0.5465
  742MOL0     C  102   3.216   5.675   7.170  0.8159 -0.9703 -0.5770
  742MOL0     H  103   3.056   5.688   7.657  1.3293 -1.9666 -0.7089
  742MOL0     H  104   2.948   5.747   7.860  0.0772  1.8380  0.0098
  742MOL0     H  105   2.912   5.916   8.008 -0.0732  1.2415  0.3833
  742MOL0     H  106   2.872   5.812   8.138  0.7251  0.6896  3.5360
  742MOL0     H  107   3.024   6.076   8.152  3.5539 -2.6387 -1.2293
  742MOL0     H  108   3.022   5.958   8.286  1.9702 -1.2670 -1.6105
  742MOL0     H  109   2.759   6.033   8.154  2.9427 -0.4013 -1.2278
  742MOL0     H  110   2.830   6.157   8.238  0.7115  0.1408 -2.4600
  742MOL0     H  111   2.785   5.889   8.377  1.1128  0.5736  1.3201
  742MOL0     H  112   2.832   6.047   8.450  0.1686 -1.8925  2.2731
  742MOL0     H  113   2.606   6.151   8.368 -0.9931 -0.2673  0.8841
  742MOL0     H  114   2.578   5.981   8.311  0.2145  0.5655 -1.0534
  742MOL0     H  115   2.599   5.897   8.522  1.5431 -0.2173  0.4923
  742MOL0     H  116   2.640   6.046   8.616 -0.1885 -4.1602  1.6768
  742MOL0     H  117   2.370   5.972   8.497  0.5892  0.0586 -2.0390
  742MOL0     H  118   2.405   6.137   8.527 -1.3075 -1.9819 -2.3084
  742MOL0     H  119   2.402   5.914   8.739  0.4023  0.1847  0.1068
  742MOL0     H  120   2.450   6.076   8.766  0.9040 -0.3630 -0.2984
  742MOL0     H  121   2.143   6.111   8.535 -2.3781 -0.0960 -0.3524
  742MOL0     H  122   1.913   6.271   8.774 -0.8728 -1.1606  0.5770
  742MOL0     H  123   1.919   6.223   8.611  1.7174  0.9249 -0.5307
  742MOL0     H  124   1.796   5.989   8.701 -1.3518  1.0941 -0.1137
  742MOL0     H  125   1.787   6.082   8.856 -0.1120  1.0946  0.9582
  742MOL0     H  126   1.668   6.251   8.750  0.0697 -0.5485  0.8841
  742MOL0     H  127   1.578   6.090   8.746  1.2703  0.3500  1.1664
  742MOL0     H  128   1.718   6.212   8.514  0.2847  0.3162  2.0972
  742MOL0     H  129   1.546   6.216   8.562  0.5210  0.6123 -1.0496
  742MOL0     H  130   1.474   6.184   8.363  1.6391  0.2564  2.2297
  742MOL0     H  131   1.383   6.117   8.147  0.9533 -1.4603 -0.7293
  742MOL0     H  132   1.388   5.601   7.807 -0.7716 -2.2562 -2.0617
  742MOL0     H  133   1.233   5.540   7.639 -1.5351  0.1967  0.5141
  742MOL0     H  134   1.074   5.612   7.464  0.5034 -0.1408  0.9846
  742MOL0     H  135   1.046   5.444   7.523 -0.5177 -0.5227  1.8729
  742MOL0     H  136   0.791   5.494   7.466 -1.7545 -0.7873 -3.7660
  742MOL0     H  137   0.842   5.642   7.400  2.1265  0.2790 -3.3824
  742MOL0     H  138   1.006   5.507   7.252 -2.3155  5.3340  0.1000
  742MOL0     H  139   0.955   5.359   7.326  2.6442  0.5816 -3.5113
  742MOL0     H  140   0.854   5.379   7.118 -1.7043  0.2629 -1.0218
  742MOL0     H  141   0.798   5.543   7.148 -0.4642  1.6638  1.2380
  742MOL0     H  142   0.606   5.405   7.176  0.4647 -0.6294 -0.0518
  742MOL0     H  143   0.669   5.400   7.348 -1.4824  0.1933 -0.7617
  742MOL0     H  144   0.726   5.185   7.150 -1.8422 -0.1470 -0.8571
  742MOL0     H  145   0.792   5.191   7.319 -3.1801  0.0062  3.1868
  742MOL0     H  146   0.505   5.205   7.239  2.0961  1.4197 -1.1790
  742MOL0     H  147   0.554   5.180   7.403  0.0595  2.1462 -0.1800
  742MOL0     H  148   0.469   4.978   7.302  0.5778  0.3647  1.1313
  742MOL0     H  149   0.580   4.974   7.168  1.1206 -1.0796  0.4724
  742MOL0     H  150   0.912   5.724   7.855  0.1628  0.2402 -1.7541
  742MOL0     H  151   1.076   5.775   8.038 -1.6997  0.6075 -1.4050
  742MOL0     H  152   1.474   5.706   8.252  2.1568 -0.4487  2.1896
  742MOL0     H  153   1.617   5.782   8.432  2.3186  0.3097 -1.1912
  742MOL0     H  154   3.338   5.781   8.044 -1.1048 -0.6095  1.3893
  742MOL0     H  155   3.437   5.697   7.867  0.1924 -0.2774  1.0296
  742MOL0     H  156   3.526   5.570   7.528 -1.6104  2.0518  0.4868
  742MOL0     H  157   3.698   5.495   7.356  0.9423  0.0777 -1.7723
  742MOL0     H  158   3.826   5.454   7.181 -0.7249 -3.4304 -0.8238
  742MOL0     H  159   3.746   5.597   7.106  2.5045  0.4467  2.3642
  742MOL0     H  160   3.905   5.510   6.948  2.3952 -1.9672 -0.7913
  742MOL0     H  161   3.752   5.450   6.889  1.6174  2.3230 -1.2423
  742MOL0     H  162   3.767   5.228   7.009 -2.0330  0.9322 -5.0126
  742MOL0     H  163   3.924   5.278   7.069 -0.2439 -4.3889 -0.4600
  742MOL0     H  164   3.843   5.225   6.778 -0.4133 -0.7835  0.0153
  742MOL0     H  165   4.005   5.292   6.848  2.0231 -1.6410  1.9997
  742MOL0     H  166   4.059   4.888   6.896  1.7839  0.2491 -1.3223
  742MOL0     H  167   3.398   5.536   7.053  3.6139 -1.1812 -1.8256
  742MOL0     H  168   3.132   5.609   7.193 -1.4934  1.9000 -0.1638
  742MOL0     H  169   3.198   5.781   7.186  1.1866 -0.7732 -1.3897
  742MOL0     H  170   3.231   5.672   7.061 -1.5131  0.9947 -1.0370
  743MOL0     O  171   4.984  10.655  10.149 -0.0371  0.5283  0.4154
  743MOL0     C  172   5.077  10.598  10.086  0.5046  0.0978 -0.4148
  743MOL0     O  173   5.214  10.610  10.129  0.8319 -0.6074 -0.7258
  743MOL0     C  174   5.240  10.576  10.261 -0.8104  0.1362  0.4021
  743MOL0     C  175   5.336  10.649  10.327 -0.1682 -0.0794 -0.2913
  743MOL0     C  176   5.366  10.599  10.456  0.0489 -0.2176  0.1936
  743MOL0     C  177   5.309  10.484  10.517  0.1856 -0.4102  0.2273
  743MOL0     O  178   5.358  10.452  10.641  0.6156  0.8517 -0.4822
  743MOL0     C  179   5.249  10.429  10.741 -0.8534  0.4787 -0.0205
  743MOL0     C  180   5.233  10.275  10.758 -0.0853 -0.3269  0.6852
  743MOL0     C  181   5.333  10.224  10.852 -0.2062  0.6034 -0.8546
  743MOL0     C  182   5.289  10.259  11.000  0.0658  0.7483  0.3985
  743MOL0     C  183   5.375  10.177  11.099 -0.3578  0.1291  0.2361
  743MOL0     C  184   5.329  10.189  11.245 -0.3067  0.4718 -0.9025
  743MOL0     C  185   5.196  10.131  11.260 -0.4235 -0.2638  0.1525
  743MOL0     C  186   5.161  10.075  11.397  0.1447  0.5414 -0.1942
  743MOL0     N  187   5.021  10.066  11.425  0.4587 -0.4634  0.1394
  743MOL0     C  188   4.956   9.951  11.457 -0.2635 -0.0691  0.2409
  743MOL0     C  189   4.826   9.985  11.479 -0.3578 -0.4176  0.3275
  743MOL0     C  190   4.705   9.907  11.531 -0.8443  0.3295 -0.2079
  743MOL0     C  191   4.575   9.948  11.474 -0.7730 -0.2368 -0.0543
  743MOL0     C  192   4.461   9.845  11.457  1.0457 -0.6435 -0.3610
  743MOL0     C  193   4.423   9.788  11.593  0.3564  0.2009  1.3667
  743MOL0     O  194   4.418   9.889  11.694  0.3356 -0.2330 -0.4088
  743MOL0     C  195   4.413   9.838  11.827  0.4051  0.6072 -0.0547
  743MOL0     C  196   4.493   9.891  11.929 -0.0726 -0.4762 -0.2588
  743MOL0     C  197   4.488   9.837  12.064  0.1190  0.1573 -0.0237
  743MOL0     C  198   4.391   9.731  12.094 -1.0860 -0.6002 -0.3985
  743MOL0     C  199   4.373   9.686  12.238 -0.0011  0.0703 -0.0071
  743MOL0     O  200   4.407   9.779  12.334  0.2930 -0.3045 -0.4291
  743MOL0     C  201   4.380   9.736  12.458  0.0072  1.0669  0.4136
  743MOL0     C  202   4.466   9.666  12.533 -1.0257 -0.0876 -0.1519
  743MOL0     C  203   4.442   9.610  12.657  0.0674  0.6885 -0.9207
  743MOL0     C  204   4.319   9.634  12.714  0.4986  2.0102 -0.4842
  743MOL0     O  205   4.291   9.571  12.835 -0.4718 -0.9112  0.4987
  743MOL0     C  206   4.232   9.662  12.936 -0.6013  0.0545  0.1538
  743MOL0     C  207   4.208   9.588  13.068 -0.0687 -1.2600  0.0759
  743MOL0     C  208   4.076   9.512  13.074  0.3191 -0.6048 -0.2448
  743MOL0     C  209   4.068   9.436  13.206  0.1699 -0.1416  0.8567
  743MOL0     C  210   3.927   9.370  13.223  0.1713 -0.9526  0.3218
  743MOL0     C  211   3.919   9.220  13.195 -0.4137 -0.4662  0.2260
  743MOL0     C  212   3.780   9.148  13.235 -0.0541 -0.6680  0.4427
  743MOL0     C  213   3.744   9.037  13.134  0.3457 -0.1780 -0.0375
  743MOL0    Cl  214   3.574   8.986  13.181  0.3510  0.3589  0.0793
  743MOL0     C  215   4.219   9.699  12.644 -0.3408 -0.0239  0.9929
  743MOL0     C  216   4.250   9.749  12.514  0.0438  0.0634 -0.3631
  743MOL0     O  217   4.324   9.577  12.253 -0.1413  0.6449  0.0001
  743MOL0     C  218   4.318   9.688  11.986  0.2513 -0.3988 -0.1533
  743MOL0     C  219   4.323   9.735  11.858  0.7819 -0.8075 -0.2455
  743MOL0     N  220   4.823  10.125  11.471  0.2927 -0.1752  1.0037
  743MOL0     N  221   4.938  10.176  11.447 -0.6263 -0.1005  0.2879
  743MOL0     C  222   5.215  10.419  10.444  0.2680  0.1830 -0.7897
  743MOL0     C  223   5.183  10.461  10.314 -0.2171 -0.2490 -0.1312
  743MOL0     C  224   5.059  10.557   9.940 -0.4240  0.2887 -0.0932
  743MOL0     C  225   5.171  10.568   9.847  0.3838 -0.9901 -0.2040
  743MOL0     C  226   5.148  10.538   9.707  0.1128  0.3851 -0.2047
  743MOL0     C  227   5.028  10.491   9.656  0.3788 -0.4153 -0.5877
  743MOL0     O  228   5.019  10.465   9.526 -0.2161 -0.3566  0.5046
  743MOL0     C  229   4.893  10.427   9.467  0.7297  0.3332  0.0071
  743MOL0     C  230   4.854  10.278   9.461 -0.9959  0.6641 -0.0671
  743MOL0     C  231   4.716  10.250   9.410 -0.1089  0.8699  0.8172
  743MOL0     C  232   4.683  10.267   9.249 -0.2877  0.5737 -0.2871
  743MOL0     C  233   4.625  10.394   9.220  0.8720 -0.0271  0.0319
  743MOL0     C  234   4.577  10.499   9.185  0.0083  0.1355 -0.8913
  743MOL0     C  235   4.925  10.471   9.752  0.3100  0.8767  0.7099
  743MOL0     C  236   4.942  10.497   9.891 -0.0876  0.1427 -0.2620
  743MOL0     C  237   4.829  10.471   9.991 -1.5480 -0.5603 -0.1244
  743MOL0     H  238   5.402  10.726  10.288 -0.9398  2.2804  2.6812
  743MOL0     H  239   5.455  10.642  10.500 -0.3519  1.1907 -0.3195
  743MOL0     H  240   5.278  10.478  10.834  1.2821 -0.2043 -0.2640
  743MOL0     H  241   5.153  10.475  10.715 -0.1954  2.1207  0.3121
  743MOL0     H  242   5.251  10.216  10.668  1.7003 -1.9052  1.9848
  743MOL0     H  243   5.139  10.262  10.812  0.1243  2.8307  1.9898
  743MOL0     H  244   5.427  10.278  10.839  0.3141  0.1942  0.8592
  743MOL0     H  245   5.356  10.118  10.844  2.7539  1.1527 -0.8168
  743MOL0     H  246   5.305  10.366  11.017 -1.4199  1.1429 -0.5688
  743MOL0     H  247   5.184  10.241  11.023  1.0863 -4.7270  2.3874
  743MOL0     H  248   5.354  10.070  11.087 -0.5687  0.1949  0.0133
  743MOL0     H  249   5.483  10.193  11.087 -0.3766  0.3240  0.3309
  743MOL0     H  250   5.400  10.132  11.306 -0.5326  1.0168 -0.1196
  743MOL0     H  251   5.343  10.291  11.281 -0.6674  0.8499 -1.8092
  743MOL0     H  252   5.195  10.041  11.198 -1.8595 -1.9638  2.4850
  743MOL0     H  253   5.114  10.191  11.222 -1.2018 -2.2814 -1.5549
  743MOL0     H  254   5.215   9.980  11.402 -1.0877 -0.1325  2.7035
  743MOL0     H  255   5.203  10.147  11.468 -3.6709  1.2248  1.6111
  743MOL0     H  256   4.997   9.852  11.441 -1.0909 -0.1073 -1.9225
  743MOL0     H  257   4.708   9.798  11.522 -4.5863  0.2077 -1.9348
  743MOL0     H  258   4.698   9.932  11.638 -0.4054 -0.0084 -0.0978
  743MOL0     H  259   4.545  10.043  11.519 -1.3152  0.2764 -1.4349
  743MOL0     H  260   4.607   9.975  11.373 -0.9948  2.8964  0.6172
  743MOL0     H  261   4.488   9.767  11.384 -1.7188 -0.9251 -1.1889
  743MOL0     H  262   4.374   9.899  11.419 -1.9567 -3.2079  2.2783
  743MOL0     H  263   4.492   9.711  11.630 -1.1993 -0.0655  3.8831
  743MOL0     H  264   4.322   9.747  11.582 -0.1233  1.7730 -0.9942
  743MOL0     H  265   4.551   9.982  11.915  2.8908 -1.9333  1.4827
  743MOL0     H  266   4.529   9.899  12.144 -3.5843  0.9500  1.4586
  743MOL0     H  267   4.557   9.654  12.476 -3.2363 -2.7416 -3.5021
  743MOL0     H  268   4.527   9.569  12.710  1.2368  1.6991 -1.9502
  743MOL0     H  269   4.295   9.751  12.945 -0.0966  0.1346 -2.9757
  743MOL0     H  270   4.133   9.685  12.895 -0.4142  1.6394  0.5275
  743MOL0     H  271   4.298   9.530  13.092 -0.6984 -0.7511  4.4907
  743MOL0     H  272   4.206   9.667  13.144 -0.1512 -0.9676 -0.2274
  743MOL0     H  273   3.990   9.579  13.074  1.3596  0.8236 -1.9324
  743MOL0     H  274   4.065   9.448  12.986 -0.4593  0.3055 -0.8278
  743MOL0     H  275   4.090   9.519  13.274 -0.8788  2.1030 -1.3834
  743MOL0     H  276   4.153   9.367  13.207  1.1045  0.9968  1.4571
  743MOL0     H  277   3.845   9.427  13.176  0.9312  0.4159  0.6032
  743MOL0     H  278   3.904   9.386  13.329  0.8655  1.7828  0.1350
  743MOL0     H  279   3.942   9.196  13.091 -0.2546 -0.4009  0.2454
  743MOL0     H  280   3.996   9.175  13.258  0.6413 -0.8528 -1.2679
  743MOL0     H  281   3.695   9.216  13.226 -1.0813 -1.8990  0.4975
  743MOL0     H  282   3.781   9.110  13.337 -1.2871 -0.1202  0.6664
  743MOL0     H  283   3.732   9.093  13.041 -4.0037 -2.0693 -0.8695
  743MOL0     H  284   3.816   8.955  13.130 -0.1052 -0.5162 -1.6104
  743MOL0     H  285   4.118   9.713  12.683 -1.6418  0.4981 -2.2553
  743MOL0     H  286   4.170   9.798  12.460  0.7699  4.0524  1.7598
  743MOL0     H  287   4.242   9.613  12.005  1.0714 -1.4818 -0.9768
  743MOL0     H  288   4.253   9.680  11.796  0.4868 -2.2479  1.3197
  743MOL0     H  289   5.160  10.335  10.485 -0.1171 -0.8976 -3.3155
  743MOL0     H  290   5.111  10.398  10.263  0.4580 -1.1296 -0.0352
  743MOL0     H  291   5.276  10.586   9.868  0.9036 -3.8533  0.0585
  743MOL0     H  292   5.226  10.556   9.634  0.8741  0.1048  0.5210
  743MOL0     H  293   4.900  10.481   9.372  0.4282  0.6487  0.1630
  743MOL0     H  294   4.805  10.471   9.514 -1.1207 -4.1303  1.3010
  743MOL0     H  295   4.840  10.246   9.565 -0.9741 -0.2730 -0.3406
  743MOL0     H  296   4.941  10.225   9.421 -1.1039 -1.3334  2.1241
  743MOL0     H  297   4.647  10.305   9.475 -0.8582  1.6399 -0.5867
  743MOL0     H  298   4.707  10.142   9.422 -3.8768  1.1424  1.9337
  743MOL0     H  299   4.766  10.244   9.182  0.6580  0.6630  0.8243
  743MOL0     H  300   4.609  10.203   9.199  0.7251 -0.1021 -0.9514
  743MOL0     H  301   4.538  10.599   9.183 -0.5824 -0.0901 -0.8974
  743MOL0     H  302   4.832  10.431   9.713  0.7227  0.0649  0.5398
  743MOL0     H  303   4.798  10.573  10.017 -0.4317  1.1675 -4.5942
  743MOL0     H  304   4.739  10.437   9.940 -1.6323  0.0090 -0.3586
  743MOL0     H  305   4.861  10.416  10.080  1.1223  1.0690  0.0382
  744MOL0     O  306   1.536   2.825   1.801 -0.2780  0.1905 -0.0414
  744MOL0     C  307   1.476   2.923   1.849  0.1227  1.2259  0.2422
  744MOL0     O  308   1.457   2.933   1.982 -0.1171 -0.4875  0.1171
  744MOL0     C  309   1.414   2.823   2.047  0.6080 -0.8499  0.5664
  744MOL0     C  310   1.336   2.724   1.990  0.0602  0.5056  0.5081
  744MOL0     C  311   1.279   2.619   2.068 -0.4997  0.2197  0.5099
  744MOL0     C  312   1.315   2.618   2.204  0.4703  0.1287 -0.0442
  744MOL0     O  313   1.259   2.527   2.296 -0.5425 -0.0636  0.2251
  744MOL0     C  314   1.287   2.387   2.276  0.6569 -0.2579  0.5442
  744MOL0     C  315   1.431   2.345   2.314  0.6753  0.1783  0.6405
  744MOL0     C  316   1.478   2.393   2.454 -0.0082 -0.1076  0.4473
  744MOL0     C  317   1.387   2.372   2.568  0.3571 -0.4757  0.0119
  744MOL0     C  318   1.481   2.399   2.692  0.1313  0.1880  0.4090
  744MOL0     C  319   1.410   2.359   2.825 -0.1276 -0.1115  0.2042
  744MOL0     C  320   1.488   2.358   2.952 -0.5288  0.2682 -0.1551
  744MOL0     C  321   1.576   2.236   2.972  0.1430  0.9216 -0.1948
  744MOL0     N  322   1.611   2.218   3.117  0.2127  0.2998 -0.3819
  744MOL0     C  323   1.644   2.321   3.196  0.4091 -0.3784 -0.7251
  744MOL0     C  324   1.624   2.272   3.316 -1.3824  0.3122  0.0268
  744MOL0     C  325   1.623   2.360   3.441 -0.0718 -0.2390  0.7858
  744MOL0     C  326   1.758   2.356   3.510 -0.4917  0.5052 -0.2125
  744MOL0     C  327   1.894   2.390   3.440 -0.4921 -0.5161 -0.7101
  744MOL0     C  328   2.014   2.381   3.541 -0.4944 -0.6817  0.7511
  744MOL0     O  329   1.989   2.346   3.672  0.1040  0.4715 -0.2000
  744MOL0     C  330   2.107   2.374   3.748 -0.8805 -0.2906  1.3188
  744MOL0     C  331   2.111   2.488   3.833  0.6910  0.2159  0.4500
  744MOL0     C  332   2.228   2.518   3.899 -0.1570 -1.3714  0.2740
  744MOL0     C  333   2.351   2.441   3.879 -0.0912 -0.3564 -0.1678
  744MOL0     C  334   2.477   2.488   3.938 -0.4978  0.1590 -0.1300
  744MOL0     O  335   2.472   2.587   4.033  0.4025  0.0009 -0.1145
  744MOL0     C  336   2.587   2.622   4.103 -0.7433  1.1464  0.9054
  744MOL0     C  337   2.631   2.557   4.212 -0.6614 -0.3382 -0.7965
  744MOL0     C  338   2.755   2.586   4.274  0.3930  0.3994 -0.0162
  744MOL0     C  339   2.828   2.699   4.247 -0.5443  0.1322 -0.1350
  744MOL0     O  340   2.938   2.727   4.322  0.2702  0.7804  0.5990
  744MOL0     C  341   3.008   2.855   4.311 -0.7804  0.3252  0.6058
  744MOL0     C  342   3.142   2.839   4.386  0.2348  0.3989  1.0714
  744MOL0     C  343   3.252   2.947   4.350  0.4946 -0.6021  0.4627
  744MOL0     C  344   3.300   2.923   4.205  0.8571  0.1078  0.1438
  744MOL0     C  345   3.413   3.004   4.157  0.5598 -0.1962  0.5871
  744MOL0     C  346   3.378   3.146   4.160 -0.1476 -0.7123  0.1037
  744MOL0     C  347   3.490   3.234   4.098  0.3335  0.2695  0.1609
  744MOL0     C  348   3.471   3.388   4.118  0.6660 -0.1666 -0.2505
  744MOL0    Cl  349   3.623   3.472   4.094  0.1275  0.2881 -0.1156
  744MOL0     C  350   2.772   2.774   4.137 -0.4005  0.9626  0.0125
  744MOL0     C  351   2.658   2.738   4.063 -0.8900 -0.2390  0.1459
  744MOL0     O  352   2.583   2.420   3.923  0.5938  0.3260  0.3393
  744MOL0     C  353   2.351   2.332   3.788  0.0513  1.1700  0.3223
  744MOL0     C  354   2.228   2.308   3.720  0.5450  0.6297 -0.0707
  744MOL0     N  355   1.601   2.136   3.324  0.8679  0.1692  0.0792
  744MOL0     N  356   1.580   2.112   3.199 -0.2166  0.2353 -1.0555
  744MOL0     C  357   1.384   2.717   2.267 -0.9550 -0.3450 -0.0018
  744MOL0     C  358   1.440   2.820   2.186  0.6897  0.7144  0.8815
  744MOL0     C  359   1.473   3.042   1.757  0.3374  0.3643 -0.5375
  744MOL0     C  360   1.492   3.172   1.809 -0.0728  0.0427  0.6986
  744MOL0     C  361   1.481   3.290   1.728  0.4580 -0.8960  1.2979
  744MOL0     C  362   1.459   3.283   1.589 -0.0640 -0.0870 -0.5158
  744MOL0     O  363   1.450   3.407   1.519 -0.6151 -0.9254 -0.3093
  744MOL0     C  364   1.497   3.532   1.578  0.3171  1.0805  0.2119
  744MOL0     C  365   1.489   3.629   1.453 -0.4803  0.5733 -0.1110
  744MOL0     C  366   1.571   3.591   1.326 -0.1347  0.1682  1.0700
  744MOL0     C  367   1.701   3.677   1.305 -0.5560 -0.0350 -0.3006
  744MOL0     C  368   1.796   3.633   1.414  0.3627  0.2455 -0.1799
  744MOL0     C  369   1.876   3.600   1.494 -0.5910 -0.3320 -0.7643
  744MOL0     C  370   1.444   3.160   1.538  0.5510 -1.7183 -1.1768
  744MOL0     C  371   1.445   3.044   1.617  0.2843  0.5258  0.2998
  744MOL0     C  372   1.402   2.917   1.544 -0.0594  0.2015 -0.9498
  744MOL0     H  373   1.326   2.728   1.882  3.0148  2.1209  0.1911
  744MOL0     H  374   1.221   2.536   2.029 -1.9868 -0.3192  3.5533
  744MOL0     H  375   1.228   2.329   2.347  0.6016  1.0497  1.5800
  744MOL0     H  376   1.264   2.360   2.172  1.3186 -0.3804  0.4240
  744MOL0     H  377   1.499   2.376   2.234 -0.5209 -2.5523 -1.6567
  744MOL0     H  378   1.451   2.237   2.318  4.0379  0.6538 -0.3070
  744MOL0     H  379   1.499   2.499   2.439  1.2221 -0.3248  0.5520
  744MOL0     H  380   1.573   2.343   2.475 -0.0920 -0.0203  1.0357
  744MOL0     H  381   1.303   2.442   2.575  1.8215  1.2583  0.9767
  744MOL0     H  382   1.355   2.270   2.588  3.5243 -1.7673 -0.9844
  744MOL0     H  383   1.556   2.319   2.697 -0.4275 -0.2923  1.1909
  744MOL0     H  384   1.505   2.505   2.687 -1.6566  0.5630 -2.8659
  744MOL0     H  385   1.329   2.430   2.845  0.9537  1.1806  0.1419
  744MOL0     H  386   1.351   2.269   2.808 -2.3462  1.0293  1.3593
  744MOL0     H  387   1.431   2.380   3.042  0.8238 -1.7472  1.2803
  744MOL0     H  388   1.558   2.442   2.954  1.1930 -1.0738 -1.0083
  744MOL0     H  389   1.523   2.148   2.937  1.9195 -0.1866 -0.2089
  744MOL0     H  390   1.666   2.253   2.912 -1.0353  3.2502 -1.4787
  744MOL0     H  391   1.659   2.427   3.179 -2.9560  0.9678  3.1495
  744MOL0     H  392   1.600   2.462   3.408 -1.6389 -1.2464 -1.4656
  744MOL0     H  393   1.550   2.314   3.508  1.7726 -3.1275  0.9451
  744MOL0     H  394   1.741   2.432   3.587 -1.9520 -1.5574  1.6279
  744MOL0     H  395   1.764   2.255   3.552 -2.0821 -0.7023 -2.6993
  744MOL0     H  396   1.899   2.487   3.389  1.9388 -0.0951  0.2035
  744MOL0     H  397   1.907   2.302   3.377 -1.9733 -1.7754  0.6489
  744MOL0     H  398   2.066   2.477   3.545  4.2369 -2.8325 -1.3898
  744MOL0     H  399   2.089   2.314   3.498  0.2716 -1.3075  2.9237
  744MOL0     H  400   2.016   2.537   3.852  0.3609 -0.5260  0.7529
  744MOL0     H  401   2.215   2.600   3.968 -0.5088  1.7663 -3.1903
  744MOL0     H  402   2.581   2.465   4.240 -0.7762  0.0152  0.1735
  744MOL0     H  403   2.782   2.522   4.358 -0.3568  0.2361  0.1125
  744MOL0     H  404   3.028   2.884   4.207  3.1828  1.0610  1.4062
  744MOL0     H  405   2.949   2.935   4.356 -3.0635 -0.4669 -0.7949
  744MOL0     H  406   3.127   2.852   4.494 -0.4741  0.5160  0.9665
  744MOL0     H  407   3.170   2.736   4.361  1.6642  1.0781 -0.3153
  744MOL0     H  408   3.206   3.046   4.360 -2.0903 -1.7846  1.3643
  744MOL0     H  409   3.333   2.939   4.423  0.4026  3.8486  1.3228
  744MOL0     H  410   3.215   2.951   4.142  1.4741 -0.7086 -1.1040
  744MOL0     H  411   3.321   2.816   4.207  0.0551 -0.0505  2.1327
  744MOL0     H  412   3.434   2.974   4.054  1.7368  2.0858  0.0880
  744MOL0     H  413   3.507   2.986   4.210  0.8554  1.0816  0.5334
  744MOL0     H  414   3.283   3.156   4.106 -0.3537 -1.5344  0.3063
  744MOL0     H  415   3.360   3.162   4.267 -1.5869 -1.5670  0.0141
  744MOL0     H  416   3.510   3.214   3.992  2.8044  1.9444  0.2103
  744MOL0     H  417   3.584   3.204   4.147 -0.6018 -0.8135  1.3450
  744MOL0     H  418   3.394   3.440   4.060 -2.8003 -1.9987  2.2918
  744MOL0     H  419   3.442   3.400   4.223  3.7268 -1.0329  0.8073
  744MOL0     H  420   2.823   2.867   4.112  0.4289  0.1042 -1.6149
  744MOL0     H  421   2.626   2.795   3.976  0.6774  0.9985  0.3384
  744MOL0     H  422   2.441   2.272   3.778 -2.2916 -2.3415 -2.1155
  744MOL0     H  423   2.230   2.221   3.654  2.0768  0.3289  0.3271
  744MOL0     H  424   1.392   2.723   2.375  2.5646  0.7703 -0.2268
  744MOL0     H  425   1.498   2.892   2.243  2.5470  1.3833 -1.6588
  744MOL0     H  426   1.508   3.185   1.915  3.7270 -2.9153  0.7185
  744MOL0     H  427   1.494   3.386   1.776  0.5849 -0.3521  0.2037
  744MOL0     H  428   1.599   3.530   1.617  0.1370  2.6614  0.8349
  744MOL0     H  429   1.431   3.567   1.658  1.1960 -1.5311  2.2456
  744MOL0     H  430   1.502   3.735   1.476  1.5856  0.2905  0.2097
  744MOL0     H  431   1.391   3.626   1.403  0.8112  0.2654 -2.8464
  744MOL0     H  432   1.511   3.603   1.236  0.2541  1.6465  0.9713
  744MOL0     H  433   1.590   3.484   1.328  3.2491  0.6439  3.2933
  744MOL0     H  434   1.756   3.662   1.212  3.3048  2.5136  1.2991
  744MOL0     H  435   1.669   3.781   1.303 -0.8322 -0.0647  1.1649
  744MOL0     H  436   1.961   3.560   1.545 -1.0506 -0.2968  0.0482
  744MOL0     H  437   1.415   3.157   1.433  1.5555  0.0347 -1.5543
  744MOL0     H  438   1.469   2.905   1.458  1.8654  3.2375 -0.0330
  744MOL0     H  439   1.404   2.825   1.603  3.0731  0.4856 -0.4080
  744MOL0     H  440   1.300   2.929   1.507 -0.7743 -0.6717  0.6574
  745MOL0     O  441   6.962   7.765   9.300  0.6221 -0.1658 -0.5210
  745MOL0     C  442   7.023   7.660   9.302 -0.0874  0.3281 -0.4149
  745MOL0     O  443   6.972   7.541   9.260 -0.3735  0.1183 -0.7227
  745MOL0     C  444   6.871   7.522   9.164  1.0899  0.9192 -0.5163
  745MOL0     C  445   6.839   7.379   9.140  0.9058 -0.1231 -0.0698
  745MOL0     C  446   6.741   7.331   9.056  0.1031 -0.7310  0.3962
  745MOL0     C  447   6.665   7.430   8.990 -0.0007  0.2557  0.6896
  745MOL0     O  448   6.579   7.390   8.891 -0.3230 -0.5278  0.3418
  745MOL0     C  449   6.543   7.474   8.780  0.6970  0.4045 -0.0866
  745MOL0     C  450   6.472   7.384   8.687  0.2643 -0.3194  1.6859
  745MOL0     C  451   6.340   7.322   8.739  0.1387 -0.6554 -0.0654
  745MOL0     C  452   6.242   7.280   8.636 -0.1761 -0.8221  0.0477
  745MOL0     C  453   6.102   7.246   8.704  0.1167 -0.4373 -0.1986
  745MOL0     C  454   6.089   7.113   8.787 -0.2883 -1.0339 -0.1961
  745MOL0     C  455   5.950   7.088   8.851  0.8552  0.3530 -0.3621
  745MOL0     C  456   5.901   7.189   8.953 -0.0859  0.9622  0.2051
  745MOL0     N  457   5.826   7.290   8.882  0.1828 -0.1244 -0.7450
  745MOL0     C  458   5.702   7.262   8.824 -0.2444  0.8243  0.8568
  745MOL0     C  459   5.660   7.377   8.764 -0.1223  0.3911  0.7453
  745MOL0     C  460   5.525   7.382   8.704 -0.2098 -0.0121 -0.1202
  745MOL0     C  461   5.457   7.526   8.721 -0.7374  0.8914 -0.1856
  745MOL0     C  462   5.328   7.524   8.636  0.2316 -0.9839 -0.5378
  745MOL0     C  463   5.254   7.652   8.665 -0.6080 -0.4283  0.7348
  745MOL0     O  464   5.126   7.681   8.602 -0.2421 -0.1006  0.5988
  745MOL0     C  465   5.017   7.621   8.649  0.4220 -0.6562 -0.2211
  745MOL0     C  466   4.902   7.682   8.599 -0.1666  0.2119  0.0253
  745MOL0     C  467   4.779   7.654   8.654 -0.1748  1.1557  0.1076
  745MOL0     C  468   4.769   7.543   8.749 -0.4311 -0.1293 -0.4200
  745MOL0     C  469   4.639   7.486   8.790  0.4805 -1.0565  0.2617
  745MOL0     O  470   4.532   7.522   8.715  0.6513  0.1007 -0.3377
  745MOL0     C  471   4.430   7.430   8.716  0.6734  0.6108  0.2534
  745MOL0     C  472   4.390   7.384   8.582 -0.1937 -1.0080 -0.1307
  745MOL0     C  473   4.290   7.286   8.563  0.9660  0.4925  0.3019
  745MOL0     C  474   4.222   7.238   8.680  0.7450 -0.0586  1.4851
  745MOL0     O  475   4.126   7.134   8.654  0.1374  0.6095  0.2743
  745MOL0     C  476   4.089   7.041   8.758  0.3082  0.6242 -0.4325
  745MOL0     C  477   4.032   6.916   8.688 -0.5376  0.6410  0.8196
  745MOL0     C  478   3.874   6.908   8.675  0.1340  0.1580 -0.1388
  745MOL0     C  479   3.804   6.923   8.814 -0.3312 -0.9498 -0.3081
  745MOL0     C  480   3.657   6.885   8.804  0.0992  0.4603 -0.0671
  745MOL0     C  481   3.601   6.888   8.952  0.4937  0.0146 -0.6140
  745MOL0     C  482   3.476   6.800   8.969  0.1960 -0.5302 -0.2696
  745MOL0     C  483   3.351   6.879   8.931  0.1311 -0.4534  0.2225
  745MOL0    Cl  484   3.204   6.776   8.946  0.3501 -0.1504  0.0393
  745MOL0     C  485   4.255   7.278   8.803 -0.0320 -1.2051  0.9531
  745MOL0     C  486   4.353   7.378   8.819 -0.0133  0.4666 -0.2026
  745MOL0     O  487   4.641   7.400   8.874 -0.8635 -0.3965 -0.0263
  745MOL0     C  488   4.891   7.482   8.794  1.0808  0.6843 -0.1966
  745MOL0     C  489   5.012   7.530   8.752  0.3388  0.2793  0.4447
  745MOL0     N  490   5.747   7.475   8.810 -0.1561 -0.2458 -1.3843
  745MOL0     N  491   5.852   7.428   8.871 -0.4314  0.6846  0.7235
  745MOL0     C  492   6.694   7.562   9.017  0.9185  0.2863 -0.0402
  745MOL0     C  493   6.787   7.616   9.099  0.6178 -0.1487 -0.1310
  745MOL0     C  494   7.159   7.659   9.360  0.2819 -1.0374  0.5403
  745MOL0     C  495   7.256   7.580   9.303 -1.5948  0.1972  0.1606
  745MOL0     C  496   7.392   7.584   9.341 -1.1023 -1.0941  0.2367
  745MOL0     C  497   7.435   7.659   9.460  1.0060 -0.8887  0.7337
  745MOL0     O  498   7.554   7.623   9.511  0.3908 -0.4373  0.3471
  745MOL0     C  499   7.600   7.686   9.630 -0.7148 -0.9389 -0.2081
  745MOL0     C  500   7.740   7.640   9.659  0.3241 -0.3102  0.9345
  745MOL0     C  501   7.761   7.634   9.818 -0.5629 -0.2061  0.2602
  745MOL0     C  502   7.744   7.778   9.874 -0.5517 -0.2899 -0.6578
  745MOL0     C  503   7.834   7.879   9.813  0.4046  0.1929  0.3173
  745MOL0     C  504   7.908   7.963   9.765  0.5111 -0.3788 -0.4355
  745MOL0     C  505   7.340   7.737   9.517  0.0926  0.7673  0.2488
  745MOL0     C  506   7.200   7.740   9.473  0.3943  0.1561 -0.2519
  745MOL0     C  507   7.107   7.833   9.540 -0.4141  0.2133  0.3398
  745MOL0     H  508   6.899   7.300   9.183 -2.1723 -1.1620  2.8043
  745MOL0     H  509   6.735   7.227   9.025 -2.6501 -0.7345  0.6752
  745MOL0     H  510   6.479   7.557   8.810 -2.9180 -1.9122 -0.7114
  745MOL0     H  511   6.636   7.509   8.733  1.8306 -1.9468  0.2587
  745MOL0     H  512   6.528   7.294   8.657 -3.0702 -1.3138 -2.3998
  745MOL0     H  513   6.455   7.446   8.599  2.3374 -1.0212  0.7246
  745MOL0     H  514   6.289   7.388   8.809 -0.6291 -1.1823 -0.1166
  745MOL0     H  515   6.368   7.233   8.796  0.6995  0.1801  0.9938
  745MOL0     H  516   6.220   7.346   8.552 -0.6414 -0.9123  0.0932
  745MOL0     H  517   6.278   7.184   8.598 -1.3301 -0.9008 -0.9201
  745MOL0     H  518   6.073   7.334   8.762 -0.1572 -1.4689  1.2798
  745MOL0     H  519   6.018   7.230   8.636 -0.5807 -2.4043  1.0296
  745MOL0     H  520   6.130   7.036   8.722  3.2932  0.7717 -0.3263
  745MOL0     H  521   6.156   7.131   8.873  1.3409 -2.8764 -1.0030
  745MOL0     H  522   5.958   6.991   8.901 -4.3498  0.6796  1.7104
  745MOL0     H  523   5.875   7.073   8.772  2.1433 -3.1868 -1.1075
  745MOL0     H  524   5.833   7.143   9.025  1.0388  0.4340  0.9623
  745MOL0     H  525   5.989   7.227   9.006 -0.1154  0.1348  0.8680
  745MOL0     H  526   5.651   7.167   8.813 -2.7449  2.3112 -2.9116
  745MOL0     H  527   5.523   7.371   8.595  0.5133  0.6831 -0.2146
  745MOL0     H  528   5.459   7.310   8.752 -1.6072  1.4252  0.2056
  745MOL0     H  529   5.439   7.539   8.828  0.0919  0.0106  0.0807
  745MOL0     H  530   5.528   7.607   8.700  0.0754  0.8686  2.1766
  745MOL0     H  531   5.259   7.451   8.680 -1.9151  2.3044  2.0106
  745MOL0     H  532   5.350   7.507   8.530  0.8478  1.3862 -0.8347
  745MOL0     H  533   5.317   7.740   8.648 -0.6953 -0.7346 -1.3736
  745MOL0     H  534   5.248   7.666   8.774  1.7955  0.0995  0.8555
  745MOL0     H  535   4.909   7.760   8.524  0.4021  2.5547  2.3702
  745MOL0     H  536   4.689   7.705   8.623 -1.2190 -0.0677  0.9850
  745MOL0     H  537   4.436   7.426   8.493 -0.4003  2.2808  1.1835
  745MOL0     H  538   4.266   7.242   8.467  2.8223  0.9416 -0.4290
  745MOL0     H  539   4.172   7.017   8.825 -1.4458 -1.3017  1.1824
  745MOL0     H  540   4.027   7.095   8.830  0.1727 -3.6617  3.1048
  745MOL0     H  541   4.072   6.910   8.587 -0.4311 -0.2957  0.9042
  745MOL0     H  542   4.065   6.821   8.732 -0.0740  0.6578  0.5034
  745MOL0     H  543   3.834   6.981   8.604 -0.5510  0.0230  0.1018
  745MOL0     H  544   3.840   6.810   8.642  1.0830 -0.8701  1.7446
  745MOL0     H  545   3.802   7.026   8.852  0.8458 -1.0689  0.1059
  745MOL0     H  546   3.855   6.865   8.891 -0.5934  0.5008  1.0074
  745MOL0     H  547   3.638   6.787   8.761 -0.9474 -0.6885  2.7321
  745MOL0     H  548   3.605   6.956   8.739  2.5633  0.3312 -2.3261
  745MOL0     H  549   3.682   6.867   9.023  0.0752  3.7462  1.2241
  745MOL0     H  550   3.583   6.991   8.984  1.5493 -0.2158  0.8288
  745MOL0     H  551   3.469   6.777   9.076  2.6296 -1.3531 -0.2467
  745MOL0     H  552   3.483   6.711   8.906 -3.3257 -1.9741  1.0828
  745MOL0     H  553   3.351   6.965   8.999  0.3443 -1.7746  1.9523
  745MOL0     H  554   3.356   6.923   8.831  1.8107  0.9323  0.8575
  745MOL0     H  555   4.208   7.254   8.897 -0.0201  0.2933  1.3804
  745MOL0     H  556   4.372   7.421   8.916  1.5783 -0.4408 -0.0629
  745MOL0     H  557   4.890   7.397   8.862 -0.1113 -0.4956 -1.6200
  745MOL0     H  558   5.099   7.483   8.798  1.7432  1.4578 -0.8866
  745MOL0     H  559   6.643   7.638   8.959  2.0753 -0.8031 -2.6827
  745MOL0     H  560   6.810   7.721   9.116  0.9331 -0.5615  2.4613
  745MOL0     H  561   7.212   7.520   9.224 -1.2076 -2.9133  2.1418
  745MOL0     H  562   7.475   7.528   9.299  1.8077  1.8555  1.5743
  745MOL0     H  563   7.538   7.649   9.712  1.8173 -1.7195  1.4803
  745MOL0     H  564   7.602   7.795   9.624  1.2701 -0.9093  0.2799
  745MOL0     H  565   7.813   7.704   9.608  1.2302 -2.3308 -0.3896
  745MOL0     H  566   7.742   7.542   9.611  0.3013 -0.1185  0.5313
  745MOL0     H  567   7.861   7.594   9.839 -0.1704  1.5854  2.0304
  745MOL0     H  568   7.689   7.570   9.871 -1.3470 -0.6619 -1.2934
  745MOL0     H  569   7.640   7.810   9.864 -0.3534  0.1833 -1.2074
  745MOL0     H  570   7.769   7.781   9.981  1.6558 -0.2538 -1.1393
  745MOL0     H  571   7.978   8.034   9.724  1.4527 -0.6339  0.6753
  745MOL0     H  572   7.380   7.799   9.596  1.7648 -3.2661  2.8536
  745MOL0     H  573   7.007   7.791   9.552 -0.8757  1.3746  0.5970
  745MOL0     H  574   7.151   7.857   9.637  0.7195 -1.3857  0.2646
  745MOL0     H  575   7.100   7.930   9.490  0.5859  1.2427  2.1113
  746MOL0     O  576   4.562   3.190   3.008  0.3986 -0.6121 -0.6893
  746MOL0     C  577   4.594   3.074   3.025 -0.7082  0.1347 -0.5874
  746MOL0     O  578   4.630   3.021   3.148 -0.7190 -0.3495  0.5549
  746MOL0     C  579   4.651   3.097   3.264 -0.1169  0.2731 -0.0518
  746MOL0     C  580   4.695   3.233   3.259  0.1721 -0.5022  0.7684
  746MOL0     C  581   4.719   3.303   3.378  0.1589  0.8667  0.2164
  746MOL0     C  582   4.705   3.228   3.496 -0.7907 -0.0318 -0.1769
  746MOL0     O  583   4.750   3.291   3.614 -0.5055  0.2880  0.7722
  746MOL0     C  584   4.892   3.331   3.616 -0.0866  0.0091 -0.1782
  746MOL0     C  585   4.946   3.396   3.742  1.5508  0.6772  0.6462
  746MOL0     C  586   5.100   3.403   3.731  0.2656 -0.2480 -0.8985
  746MOL0     C  587   5.155   3.434   3.865  0.1385  0.6308 -0.2938
  746MOL0     C  588   5.306   3.480   3.857  0.4033  0.5868 -0.0768
  746MOL0     C  589   5.405   3.377   3.811 -0.8720 -0.5418 -0.2849
  746MOL0     C  590   5.550   3.438   3.805 -0.1864  0.7439  0.1956
  746MOL0     C  591   5.596   3.520   3.923 -0.4054 -0.6248 -0.4957
  746MOL0     N  592   5.646   3.451   4.043 -0.0962  0.9343  0.2841
  746MOL0     C  593   5.561   3.375   4.126  0.7096 -0.3541  0.2607
  746MOL0     C  594   5.621   3.379   4.249  0.6246  0.8984 -0.0951
  746MOL0     C  595   5.574   3.321   4.378 -0.7592 -0.4000  0.5752
  746MOL0     C  596   5.563   3.168   4.363  0.2560  0.0641 -0.0476
  746MOL0     C  597   5.519   3.102   4.500 -0.4105  0.2595  0.1075
  746MOL0     C  598   5.374   3.144   4.530  0.3273 -0.1041 -0.5088
  746MOL0     O  599   5.295   3.082   4.427 -0.8180  1.1305 -0.4662
  746MOL0     C  600   5.160   3.092   4.439 -0.3775 -0.2113  0.4398
  746MOL0     C  601   5.094   3.164   4.547 -0.8474  0.1078 -0.6902
  746MOL0     C  602   4.954   3.187   4.547  0.0333  0.5686  0.4464
  746MOL0     C  603   4.878   3.136   4.449  0.1420 -0.4480  1.6570
  746MOL0     C  604   4.732   3.141   4.449 -0.6710  0.1416 -0.3456
  746MOL0     O  605   4.684   3.272   4.469 -0.7661  0.7299 -0.0856
  746MOL0     C  606   4.551   3.296   4.464 -0.7692  0.0096 -0.0184
  746MOL0     C  607   4.468   3.279   4.577  0.5454 -0.4088  0.1818
  746MOL0     C  608   4.330   3.310   4.553 -0.4583  0.0469 -0.0331
  746MOL0     C  609   4.283   3.349   4.418 -0.0075  1.0164 -0.7547
  746MOL0     O  610   4.150   3.369   4.396 -0.8029 -0.0562  0.5006
  746MOL0     C  611   4.094   3.494   4.446 -0.0168 -0.1932 -0.0503
  746MOL0     C  612   3.977   3.534   4.364  1.0261  0.0110  0.2190
  746MOL0     C  613   3.894   3.642   4.444 -0.2584  0.1443  0.2845
  746MOL0     C  614   3.776   3.690   4.370  1.1253  0.0867  0.0452
  746MOL0     C  615   3.706   3.803   4.446  0.5123  0.6906  0.0122
  746MOL0     C  616   3.551   3.764   4.473 -0.8991 -1.3014 -0.1537
  746MOL0     C  617   3.488   3.838   4.598 -0.1756  0.0946  0.1490
  746MOL0     C  618   3.333   3.818   4.596  0.6500 -0.2933  0.2066
  746MOL0    Cl  619   3.246   3.923   4.472  0.0992 -0.0006  0.5380
  746MOL0     C  620   4.375   3.358   4.307 -0.3366 -0.0352 -0.3153
  746MOL0     C  621   4.508   3.335   4.333  0.2163  0.0493 -0.6317
  746MOL0     O  622   4.672   3.036   4.423 -1.2441  0.1822 -0.2594
  746MOL0     C  623   4.939   3.078   4.336 -0.5230 -0.2096 -0.0153
  746MOL0     C  624   5.084   3.057   4.334  0.1946  0.3343  0.5559
  746MOL0     N  625   5.740   3.454   4.238  1.2174 -0.2313  0.6632
  746MOL0     N  626   5.746   3.502   4.123  0.6132 -0.2001  0.3648
  746MOL0     C  627   4.669   3.096   3.508 -0.5224  0.3742  0.7116
  746MOL0     C  628   4.644   3.035   3.387  0.0373  0.8135 -0.9749
  746MOL0     C  629   4.576   2.978   2.913 -0.5370  0.0272  0.1847
  746MOL0     C  630   4.529   2.853   2.943 -1.6865 -0.1121 -0.9155
  746MOL0     C  631   4.517   2.749   2.845  0.1381  0.4088 -0.3353
  746MOL0     C  632   4.548   2.781   2.712  0.2681  0.6020 -0.7005
  746MOL0     O  633   4.540   2.698   2.598  0.8577 -0.4093  0.2801
  746MOL0     C  634   4.485   2.568   2.620 -0.3967 -0.6389  0.0881
  746MOL0     C  635   4.500   2.490   2.485  0.4668  0.1510 -0.2546
  746MOL0     C  636   4.438   2.565   2.364  0.7195  1.3112  0.7952
  746MOL0     C  637   4.445   2.472   2.242 -0.1175  0.7367 -0.2726
  746MOL0     C  638   4.410   2.542   2.118  0.9060  0.1088 -0.6709
  746MOL0     C  639   4.396   2.596   2.011  0.4095  1.1355 -1.2336
  746MOL0     C  640   4.591   2.904   2.681 -0.4241 -0.0667 -1.3743
  746MOL0     C  641   4.611   3.005   2.782 -0.0174 -0.1511 -0.2020
  746MOL0     C  642   4.677   3.127   2.731 -0.5812  0.1075 -0.3233
  746MOL0     H  643   4.720   3.289   3.170 -1.1771 -0.3640  0.4542
  746MOL0     H  644   4.759   3.404   3.386 -2.2458  1.8245  1.4356
  746MOL0     H  645   4.950   3.239   3.605  1.5308  0.3813  3.5693
  746MOL0     H  646   4.901   3.410   3.541 -1.3899  0.8365  0.4922
  746MOL0     H  647   4.919   3.334   3.827 -0.3339 -0.3733 -0.6371
  746MOL0     H  648   4.907   3.498   3.743 -0.5886 -0.0076 -1.9538
  746MOL0     H  649   5.122   3.483   3.660 -2.5513  1.9439  0.4690
  746MOL0     H  650   5.142   3.308   3.698  3.5779  1.3078 -1.5675
  746MOL0     H  651   5.094   3.511   3.913  0.7544  0.3376  1.0086
  746MOL0     H  652   5.148   3.353   3.938 -1.5721  1.3272  0.3691
  746MOL0     H  653   5.307   3.573   3.799 -0.3974  0.2410 -0.6695
  746MOL0     H  654   5.326   3.507   3.961 -0.4170 -1.6719  0.7326
  746MOL0     H  655   5.408   3.293   3.881 -0.5946 -3.6839 -3.7468
  746MOL0     H  656   5.382   3.326   3.717  0.3844  1.2351 -1.6389
  746MOL0     H  657   5.555   3.500   3.715 -0.6305  0.2894 -0.1512
  746MOL0     H  658   5.617   3.353   3.787 -1.8893 -0.7695  0.6778
  746MOL0     H  659   5.680   3.576   3.880 -0.5112 -3.1020 -4.4730
  746MOL0     H  660   5.520   3.590   3.957  1.6209  0.0372  3.1878
  746MOL0     H  661   5.471   3.328   4.086  1.8692 -3.5777  1.0758
  746MOL0     H  662   5.653   3.337   4.451 -1.4548  2.7029  0.7756
  746MOL0     H  663   5.487   3.376   4.415 -1.2662  0.7009 -2.0216
  746MOL0     H  664   5.490   3.149   4.284  0.3749  1.2983 -0.4690
  746MOL0     H  665   5.663   3.128   4.342  1.2440  2.6526 -0.6838
  746MOL0     H  666   5.585   3.128   4.583 -0.1580  1.5928 -0.4889
  746MOL0     H  667   5.528   2.993   4.493  4.2599  0.4013  0.4944
  746MOL0     H  668   5.360   3.252   4.517  0.3027 -0.2761 -2.0337
  746MOL0     H  669   5.341   3.117   4.631  3.4474  1.3405  1.0782
  746MOL0     H  670   5.146   3.210   4.630  0.5594  1.0201 -2.0231
  746MOL0     H  671   4.904   3.239   4.628 -0.5501 -0.3485  0.6903
  746MOL0     H  672   4.501   3.244   4.674 -1.5364 -3.3700 -0.0365
  746MOL0     H  673   4.267   3.302   4.640  0.3972 -0.3465  0.5685
  746MOL0     H  674   4.064   3.480   4.550  2.7078 -2.0758  0.5834
  746MOL0     H  675   4.176   3.565   4.434 -1.0798  1.1972  0.5809
  746MOL0     H  676   4.004   3.565   4.263  1.0135 -1.4535 -0.2618
  746MOL0     H  677   3.921   3.443   4.342  1.9441 -0.0836 -2.0579
  746MOL0     H  678   3.852   3.612   4.540 -1.1717  0.5939  0.0437
  746MOL0     H  679   3.955   3.731   4.460 -1.2013  0.8595  0.0467
  746MOL0     H  680   3.704   3.612   4.345 -1.9067  2.9572 -0.9774
  746MOL0     H  681   3.811   3.733   4.276  0.9459 -0.4414 -0.2649
  746MOL0     H  682   3.716   3.893   4.386  0.6130  0.0932 -0.8845
  746MOL0     H  683   3.742   3.815   4.549  2.4686  0.7704 -0.6292
  746MOL0     H  684   3.502   3.804   4.385  0.8525  0.3114 -0.4574
  746MOL0     H  685   3.531   3.657   4.464 -2.3510 -1.0193 -0.4061
  746MOL0     H  686   3.506   3.946   4.602 -2.8336  0.6711 -1.1369
  746MOL0     H  687   3.533   3.792   4.686  0.2811 -3.0426 -1.5728
  746MOL0     H  688   3.317   3.710   4.585 -3.8100  0.0748  1.2536
  746MOL0     H  689   3.280   3.846   4.688 -0.5517  2.9904 -1.3460
  746MOL0     H  690   4.336   3.377   4.208  0.4765 -0.8828 -0.8082
  746MOL0     H  691   4.578   3.348   4.251  0.1118 -1.5657 -1.0163
  746MOL0     H  692   4.875   3.051   4.253 -1.3886  0.7269  0.3269
  746MOL0     H  693   5.134   3.011   4.249 -1.6568  1.0572 -1.0168
  746MOL0     H  694   4.675   3.038   3.600  1.7795  0.4154  0.6521
  746MOL0     H  695   4.627   2.930   3.367  0.0323  1.1919 -3.2378
  746MOL0     H  696   4.504   2.831   3.046 -1.6624  1.4468 -0.5496
  746MOL0     H  697   4.484   2.650   2.875  2.6743  0.3123  2.5835
  746MOL0     H  698   4.384   2.557   2.660  0.5026 -1.3349  2.2909
  746MOL0     H  699   4.545   2.516   2.695  0.5579 -0.0780 -0.2634
  746MOL0     H  700   4.436   2.403   2.498 -0.1502  0.9821  3.3710
  746MOL0     H  701   4.603   2.462   2.460  0.2406  0.6699 -1.8945
  746MOL0     H  702   4.494   2.653   2.332  2.0932 -0.4171 -1.9211
  746MOL0     H  703   4.338   2.601   2.389  0.6676  1.8863 -0.1812
  746MOL0     H  704   4.546   2.429   2.237  0.7059  2.4046  0.8194
  746MOL0     H  705   4.379   2.385   2.246  0.2783  0.4438  0.0396
  746MOL0     H  706   4.373   2.653   1.923 -2.6346  2.0421  0.0123
  746MOL0     H  707   4.617   2.935   2.580 -1.8842  0.3358 -1.6620
  746MOL0     H  708   4.593   3.195   2.710 -0.8866  0.1062  0.8230
  746MOL0     H  709   4.745   3.170   2.806  1.5621 -4.2171  0.5003
  746MOL0     H  710   4.729   3.100   2.639 -0.2688 -3.4304  0.7591
  747MOL0     O  711   4.215   9.099   5.089  1.0392 -1.0317 -0.5606
  747MOL0     C  712   4.177   9.104   4.973  0.5673 -0.6170  0.2667
  747MOL0     O  713   4.239   9.165   4.871 -0.4946 -0.5352 -0.4804
  747MOL0     C  714   4.179   9.286   4.830  0.3899  0.1534 -0.3861
  747MOL0     C  715   4.050   9.278   4.762  0.3261  0.0612  0.2961
  747MOL0     C  716   3.977   9.394   4.739  0.1361  0.7097  0.2473
  747MOL0     C  717   4.050   9.517   4.763  0.2323  0.4901  0.3130
  747MOL0     O  718   3.997   9.640   4.746 -0.1160 -0.1058  0.0168
  747MOL0     C  719   3.904   9.653   4.647  1.0177  0.3401  0.9175
  747MOL0     C  720   3.908   9.792   4.597 -0.0702 -0.2994  0.1812
  747MOL0     C  721   3.831   9.831   4.469 -0.0118 -0.5091  0.1158
  747MOL0     C  722   3.858   9.977   4.438 -0.3614 -0.7611  1.2194
  747MOL0     C  723   3.796  10.004   4.303  0.4495  0.9801  0.1546
  747MOL0     C  724   3.717  10.134   4.301 -0.5757  0.4839 -0.3179
  747MOL0     C  725   3.657  10.156   4.159  1.0907  0.4253  0.3028
  747MOL0     C  726   3.621  10.308   4.142  0.2696  0.0211  0.0165
  747MOL0     N  727   3.608  10.335   4.001 -0.6252 -0.3210 -0.1669
  747MOL0     C  728   3.527  10.262   3.910 -0.0425 -0.1520 -0.0571
  747MOL0     C  729   3.529  10.338   3.801  0.6743 -0.2609 -0.9771
  747MOL0     C  730   3.447  10.313   3.681 -0.0092  0.0394  0.0513
  747MOL0     C  731   3.488  10.358   3.541  0.1623  0.5090 -0.0833
  747MOL0     C  732   3.358  10.356   3.449  0.3136  0.0637 -0.1561
  747MOL0     C  733   3.388  10.419   3.305  0.0774 -0.5874 -0.0209
  747MOL0     O  734   3.263  10.455   3.234  0.2375  0.2555  0.3056
  747MOL0     C  735   3.235  10.574   3.176 -0.3731 -0.4151  0.0089
  747MOL0     C  736   3.102  10.615   3.178  0.3006 -0.6468 -0.5003
  747MOL0     C  737   3.061  10.746   3.128 -0.5479  0.2619  0.8284
  747MOL0     C  738   3.160  10.833   3.080 -0.1700  0.8612  0.2710
  747MOL0     C  739   3.128  10.965   3.019 -0.0540  0.3763 -0.1192
  747MOL0     O  740   3.006  11.006   3.000  0.0824 -0.7170  0.0109
  747MOL0     C  741   2.988  11.054   2.874 -1.1602  0.0968 -0.1752
  747MOL0     C  742   2.935  10.966   2.785  0.6693 -0.0761 -0.5587
  747MOL0     C  743   2.922  11.001   2.651  1.0825  0.2944 -0.4630
  747MOL0     C  744   2.965  11.123   2.606 -0.9411  0.6696 -0.1723
  747MOL0     O  745   2.957  11.168   2.479  0.3518 -0.0635  0.2680
  747MOL0     C  746   2.885  11.098   2.365 -0.4605  0.4776  0.5385
  747MOL0     C  747   2.736  11.091   2.382  0.1395  0.3037  0.3057
  747MOL0     C  748   2.668  10.970   2.326 -0.6632  0.0340  0.1852
  747MOL0     C  749   2.514  10.993   2.282  0.4945  0.5973  0.4100
  747MOL0     C  750   2.462  10.874   2.196 -0.3205 -0.6388 -0.1388
  747MOL0     C  751   2.399  10.774   2.281  0.4333  0.4163  0.0275
  747MOL0     C  752   2.410  10.637   2.214  0.0287 -0.6725 -0.5752
  747MOL0     C  753   2.340  10.530   2.297 -0.3529  0.5602 -0.4831
  747MOL0    Cl  754   2.431  10.379   2.308  0.3315 -0.1456 -0.2746
  747MOL0     C  755   3.033  11.207   2.695  0.1204 -0.3470  0.6822
  747MOL0     C  756   3.025  11.181   2.832 -0.7859  0.3474  0.2083
  747MOL0     O  757   3.224  11.033   3.004  0.5507  0.4185 -0.9555
  747MOL0     C  758   3.291  10.782   3.062  0.6009 -0.1624 -0.9500
  747MOL0     C  759   3.328  10.656   3.120 -0.4242 -0.4265  0.0594
  747MOL0     N  760   3.588  10.461   3.826 -1.0026  0.0603 -0.5917
  747MOL0     N  761   3.647  10.451   3.942  0.2477 -0.5212 -0.3811
  747MOL0     C  762   4.180   9.511   4.817  0.2287  0.9719  1.0497
  747MOL0     C  763   4.247   9.400   4.854  0.3824 -0.2205 -0.1704
  747MOL0     C  764   4.056   9.022   4.934  0.6701  0.5149  0.0111
  747MOL0     C  765   4.086   8.924   4.847 -0.7959 -0.6724 -0.2791
  747MOL0     C  766   3.988   8.828   4.810 -0.2054 -0.3542 -1.1358
  747MOL0     C  767   3.859   8.838   4.870 -0.4643  0.3530 -0.2990
  747MOL0     O  768   3.760   8.739   4.872 -0.2951 -0.5531 -0.2036
  747MOL0     C  769   3.768   8.617   4.790  0.3042  0.0173 -0.6009
  747MOL0     C  770   3.746   8.626   4.642 -0.3450 -0.2561  0.2100
  747MOL0     C  771   3.598   8.666   4.607  0.5703 -0.3291  0.0726
  747MOL0     C  772   3.490   8.558   4.628 -0.8431  0.0501  0.5892
  747MOL0     C  773   3.369   8.616   4.560  0.8310 -0.1976 -0.0077
  747MOL0     C  774   3.256   8.661   4.524 -0.4652 -0.0337 -0.1634
  747MOL0     C  775   3.825   8.946   4.952  0.0351  0.5389  0.4306
  747MOL0     C  776   3.927   9.037   4.994 -0.3722  0.6604  0.5434
  747MOL0     C  777   3.895   9.131   5.111 -0.2149 -0.7145 -1.1047
  747MOL0     H  778   4.013   9.180   4.733  0.2463 -0.2011  1.2690
  747MOL0     H  779   3.884   9.406   4.686 -0.2622 -3.0317 -0.1141
  747MOL0     H  780   3.924   9.588   4.561 -1.8620 -0.8506  1.0443
  747MOL0     H  781   3.804   9.630   4.685  0.2194 -1.6234 -1.9881
  747MOL0     H  782   4.012   9.821   4.576 -1.1445  4.2577  0.1524
  747MOL0     H  783   3.869   9.860   4.673 -5.3248  0.7570 -2.9728
  747MOL0     H  784   3.726   9.816   4.496  0.4276 -2.4701  0.9331
  747MOL0     H  785   3.872   9.767   4.391  0.5262  0.8575 -0.7532
  747MOL0     H  786   3.829  10.048   4.516  0.1536 -1.1646  1.7880
  747MOL0     H  787   3.966   9.991   4.425 -0.6021  2.2622  1.7738
  747MOL0     H  788   3.871   9.998   4.224 -0.3856  0.8051 -0.6357
  747MOL0     H  789   3.728   9.920   4.284  0.1828  0.6396  2.3372
  747MOL0     H  790   3.640  10.126   4.378 -0.4384 -1.2855 -0.3197
  747MOL0     H  791   3.782  10.220   4.318 -1.6570  1.1126  0.7840
  747MOL0     H  792   3.567  10.095   4.153 -0.0951  2.0392  0.8571
  747MOL0     H  793   3.731  10.139   4.080  1.0340  0.7083  0.1854
  747MOL0     H  794   3.525  10.331   4.190  0.7632  0.8444  0.6166
  747MOL0     H  795   3.698  10.376   4.177  0.1234  0.8235 -1.1496
  747MOL0     H  796   3.479  10.165   3.921 -3.4308  1.3644 -0.4048
  747MOL0     H  797   3.431  10.205   3.680  3.1006 -0.5515 -1.5085
  747MOL0     H  798   3.351  10.361   3.702  0.5343  2.4696 -2.4264
  747MOL0     H  799   3.533  10.458   3.544  2.5511 -0.5078  3.1915
  747MOL0     H  800   3.559  10.292   3.490 -0.9395  0.7773 -2.0543
  747MOL0     H  801   3.280  10.415   3.497  0.4684  1.0132 -1.0486
  747MOL0     H  802   3.319  10.254   3.441 -2.9537  1.1916 -0.1035
  747MOL0     H  803   3.443  10.343   3.248  0.5212 -0.9809  0.9029
  747MOL0     H  804   3.454  10.507   3.308 -1.2740  0.9041 -4.8001
  747MOL0     H  805   3.020  10.558   3.222 -0.6829  0.4550 -0.8305
  747MOL0     H  806   2.960  10.785   3.136 -1.6979 -2.2831 -0.1849
  747MOL0     H  807   2.893  10.876   2.827  0.1845  0.8099  0.9022
  747MOL0     H  808   2.856  10.945   2.585  1.7609  1.2265 -1.9739
  747MOL0     H  809   2.913  11.164   2.283 -0.0358  0.2196  0.4744
  747MOL0     H  810   2.927  10.999   2.346 -1.3665 -0.2957  2.2910
  747MOL0     H  811   2.719  11.095   2.490  2.1280 -3.6775  0.9521
  747MOL0     H  812   2.690  11.179   2.336 -0.0925  0.7278  1.3379
  747MOL0     H  813   2.729  10.932   2.243  0.7281 -0.1088  1.2290
  747MOL0     H  814   2.661  10.887   2.398  0.0974 -1.6005 -1.5440
  747MOL0     H  815   2.501  11.081   2.219  0.0241 -0.6502 -1.3309
  747MOL0     H  816   2.456  11.005   2.373 -0.7732 -1.3337 -0.0845
  747MOL0     H  817   2.537  10.828   2.131 -1.1089 -1.3582 -0.5696
  747MOL0     H  818   2.390  10.919   2.127 -0.3889 -1.4691 -0.6209
  747MOL0     H  819   2.447  10.774   2.379 -0.5604  1.8046  0.5481
  747MOL0     H  820   2.296  10.804   2.305  0.2698 -0.0743 -0.0623
  747MOL0     H  821   2.517  10.616   2.209  0.4672  1.3371 -0.5319
  747MOL0     H  822   2.373  10.630   2.111  1.6448 -3.9698 -1.0665
  747MOL0     H  823   2.313  10.562   2.398 -1.7499  1.2901 -1.0550
  747MOL0     H  824   2.248  10.499   2.246 -0.4240 -0.1316  0.0493
  747MOL0     H  825   3.073  11.299   2.653 -1.3817 -0.7677 -1.8697
  747MOL0     H  826   3.062  11.255   2.903  0.2803  0.3375 -0.3203
  747MOL0     H  827   3.373  10.844   3.027  0.9994 -0.0304  0.1590
  747MOL0     H  828   3.433  10.631   3.113 -0.7692 -1.5892 -1.3158
  747MOL0     H  829   4.234   9.604   4.832  1.3305  0.4255  0.6086
  747MOL0     H  830   4.350   9.391   4.887 -0.1701 -2.4025  1.1931
  747MOL0     H  831   4.184   8.920   4.800  1.0968  0.8940  3.1430
  747MOL0     H  832   4.017   8.742   4.752  2.3899 -0.4894  0.2090
  747MOL0     H  833   3.690   8.552   4.830  0.3861 -1.1111 -2.1750
  747MOL0     H  834   3.864   8.566   4.804  0.9569  1.5350  0.8081
  747MOL0     H  835   3.768   8.529   4.598 -2.4329 -0.0038 -1.5449
  747MOL0     H  836   3.810   8.706   4.605 -0.2935 -0.4499 -0.1199
  747MOL0     H  837   3.603   8.685   4.499  3.5733  0.0090  0.1822
  747MOL0     H  838   3.561   8.749   4.669  3.4742 -0.4294  2.1724
  747MOL0     H  839   3.521   8.465   4.581 -0.6250 -0.7483  2.2395
  747MOL0     H  840   3.461   8.537   4.732 -1.2763 -0.0316  0.4564
  747MOL0     H  841   3.158   8.686   4.489 -1.0764 -1.8992  0.0994
  747MOL0     H  842   3.731   8.947   5.007  0.3764 -1.0361  1.1045
  747MOL0     H  843   3.886   9.233   5.074 -1.0224  0.5674  2.2617
  747MOL0     H  844   3.812   9.095   5.173 -0.5782  0.6734 -0.7497
  747MOL0     H  845   3.978   9.141   5.182  0.8144 -0.8660 -2.2535
  748MOL0     O  846   8.364   7.382   6.935  0.5027 -0.4389  0.6431
  748MOL0     C  847   8.366   7.426   6.820 -0.1861  0.4509  0.3065
  748MOL0     O  848   8.356   7.562   6.778  0.1226  0.0202 -0.8518
  748MOL0     C  849   8.370   7.655   6.887  0.2003  0.6404  0.6905
  748MOL0     C  850   8.492   7.698   6.919 -0.8424  0.2347  0.4327
  748MOL0     C  851   8.514   7.803   7.014 -0.4155 -0.4891  0.3073
  748MOL0     C  852   8.400   7.870   7.059 -0.8335  0.2261 -0.4034
  748MOL0     O  853   8.417   7.980   7.139 -0.9126  0.2281 -0.1436
  748MOL0     C  854   8.334   8.093   7.141 -0.4731  0.3333 -0.2904
  748MOL0     C  855   8.371   8.178   7.263  0.0046  0.2967  0.2556
  748MOL0     C  856   8.308   8.316   7.252 -1.0272 -0.1098  1.2453
  748MOL0     C  857   8.394   8.415   7.158  0.4835  0.4907 -0.2304
  748MOL0     C  858   8.305   8.537   7.115  0.5854 -0.1158  0.4713
  748MOL0     C  859   8.384   8.654   7.054 -0.3244 -0.0915 -0.0717
  748MOL0     C  860   8.469   8.612   6.927 -1.4094  0.0564  0.3727
  748MOL0     C  861   8.559   8.723   6.879  0.5139 -0.8784  0.1895
  748MOL0     N  862   8.508   8.795   6.765  0.4592  0.1189 -0.6548
  748MOL0     C  863   8.477   8.762   6.638 -0.0882 -0.5895 -0.4660
  748MOL0     C  864   8.420   8.872   6.585 -0.4286 -0.8870  0.9178
  748MOL0     C  865   8.364   8.890   6.453 -1.1510 -0.0448  0.4994
  748MOL0     C  866   8.220   8.942   6.440  0.2923 -0.6785  0.8553
  748MOL0     C  867   8.128   8.877   6.326 -1.5664  0.5622 -0.5925
  748MOL0     C  868   8.068   8.982   6.243 -0.4409 -0.5252 -0.6865
  748MOL0     O  869   8.185   9.043   6.191  0.5149 -0.1472 -0.4831
  748MOL0     C  870   8.187   9.168   6.126 -0.0219  1.2400 -0.6911
  748MOL0     C  871   8.078   9.248   6.085  0.0937  0.5147  0.2596
  748MOL0     C  872   8.096   9.375   6.036  0.1225 -0.2772  1.0166
  748MOL0     C  873   8.223   9.413   5.992  0.3760 -0.0514  0.3890
  748MOL0     C  874   8.227   9.543   5.913  0.9683 -0.5841  0.3022
  748MOL0     O  875   8.345   9.585   5.888  0.5904 -0.6921  0.0349
  748MOL0     C  876   8.338   9.696   5.798 -0.6359  0.0934  0.1108
  748MOL0     C  877   8.316   9.825   5.853 -0.5929  0.4320  0.4216
  748MOL0     C  878   8.309   9.929   5.764 -0.6536  0.2982  0.1638
  748MOL0     C  879   8.319   9.918   5.624 -0.4298 -0.4442 -0.7368
  748MOL0     O  880   8.325  10.025   5.546 -0.4174 -0.7931 -0.2100
  748MOL0     C  881   8.457  10.048   5.489 -0.9298  0.2806  0.0217
  748MOL0     C  882   8.424  10.099   5.342  0.8751 -0.2519 -0.1549
  748MOL0     C  883   8.407   9.973   5.252  0.9193 -0.0487 -0.2404
  748MOL0     C  884   8.546   9.911   5.222 -0.7391  0.6361 -0.0237
  748MOL0     C  885   8.538   9.760   5.182 -0.9087 -0.0018  0.1436
  748MOL0     C  886   8.674   9.693   5.140 -0.3361 -0.5656 -0.6211
  748MOL0     C  887   8.643   9.558   5.076  0.4225 -0.2756  0.9258
  748MOL0     C  888   8.758   9.509   4.980 -0.0465 -0.1962 -0.0504
  748MOL0    Cl  889   8.731   9.330   4.962  0.1877 -0.2299 -0.0213
  748MOL0     C  890   8.333   9.788   5.572 -0.8948 -1.0825  0.6768
  748MOL0     C  891   8.358   9.682   5.664 -1.0939 -0.5012 -0.0659
  748MOL0     O  892   8.116   9.593   5.876  0.2574  0.4414 -0.8893
  748MOL0     C  893   8.334   9.325   6.026  1.0847  0.2684  0.2796
  748MOL0     C  894   8.316   9.205   6.096  0.2147  0.1094 -0.6762
  748MOL0     N  895   8.417   8.978   6.677  0.2326  1.0938  0.3596
  748MOL0     N  896   8.468   8.926   6.783  0.6025  0.5929 -0.3107
  748MOL0     C  897   8.274   7.826   7.016  0.1712  0.0539  0.5121
  748MOL0     C  898   8.258   7.722   6.930 -0.3098 -0.2930 -0.6235
  748MOL0     C  899   8.351   7.323   6.709  0.2999 -0.7721 -0.5278
  748MOL0     C  900   8.272   7.365   6.607  0.5251 -0.5814 -0.6994
  748MOL0     C  901   8.226   7.275   6.514 -0.6362  1.1474  1.1727
  748MOL0     C  902   8.280   7.152   6.499  0.7697 -0.1323 -0.5599
  748MOL0     O  903   8.218   7.067   6.406 -0.1205 -0.4693  0.0772
  748MOL0     C  904   8.207   6.929   6.426 -0.4690  0.8299 -0.2157
  748MOL0     C  905   8.100   6.900   6.534 -1.1465 -0.2979 -0.1024
  748MOL0     C  906   7.963   6.948   6.504 -1.1839 -0.2443 -0.1393
  748MOL0     C  907   7.859   6.933   6.625 -0.3853 -0.4294 -0.9553
  748MOL0     C  908   7.756   7.027   6.608 -0.0101  0.7758  0.6088
  748MOL0     C  909   7.680   7.118   6.577 -0.0304 -0.3248  2.3218
  748MOL0     C  910   8.366   7.105   6.598  0.4261 -0.1454 -1.0853
  748MOL0     C  911   8.402   7.192   6.705  0.0284  0.6244  0.6527
  748MOL0     C  912   8.507   7.148   6.808  0.4492  0.3229  0.0323
  748MOL0     H  913   8.582   7.655   6.874 -1.9860 -1.1146 -0.6774
  748MOL0     H  914   8.615   7.826   7.048  0.1409  0.3166 -1.7458
  748MOL0     H  915   8.354   8.151   7.050  3.5448  1.1841  0.9706
  748MOL0     H  916   8.230   8.059   7.146 -0.6266  0.8011 -0.2070
  748MOL0     H  917   8.480   8.178   7.274 -0.0293  0.7766  0.6311
  748MOL0     H  918   8.329   8.129   7.351  1.5000 -0.2157  0.7260
  748MOL0     H  919   8.293   8.360   7.351  0.9410 -0.8108  1.8964
  748MOL0     H  920   8.215   8.297   7.197  0.3782  1.7689 -2.1321
  748MOL0     H  921   8.482   8.446   7.216 -0.8745 -0.2369  2.4016
  748MOL0     H  922   8.435   8.360   7.073 -2.6369 -5.4669  1.5493
  748MOL0     H  923   8.224   8.499   7.052  0.1654  0.3332  0.7379
  748MOL0     H  924   8.260   8.581   7.204 -0.4012  1.8448 -0.9117
  748MOL0     H  925   8.317   8.737   7.033 -0.3484 -0.4167 -1.3318
  748MOL0     H  926   8.451   8.693   7.132  0.7054  1.2427 -1.5454
  748MOL0     H  927   8.407   8.576   6.845 -1.7654  1.9075 -0.2237
  748MOL0     H  928   8.536   8.529   6.948 -0.0026  0.8043 -0.9455
  748MOL0     H  929   8.560   8.788   6.967 -1.0449 -2.3238  1.3669
  748MOL0     H  930   8.659   8.682   6.858 -0.5273 -2.2317 -2.6195
  748MOL0     H  931   8.516   8.674   6.588 -2.0132 -0.3912 -2.4845
  748MOL0     H  932   8.424   8.958   6.393 -0.8890 -0.6267  0.0907
  748MOL0     H  933   8.376   8.803   6.388 -2.3669  0.2855 -0.2165
  748MOL0     H  934   8.166   8.918   6.532 -0.6625  1.3253  0.8565
  748MOL0     H  935   8.226   9.051   6.442  2.8420 -0.7404  1.6783
  748MOL0     H  936   8.046   8.824   6.376 -1.5109  1.7754  0.8646
  748MOL0     H  937   8.181   8.805   6.264  0.4067 -0.0657  1.6790
  748MOL0     H  938   8.002   9.047   6.303  0.7120 -2.1319  2.5777
  748MOL0     H  939   8.011   8.952   6.155 -0.2432  1.1392 -1.4205
  748MOL0     H  940   7.975   9.226   6.113 -0.5056  1.9652 -0.6233
  748MOL0     H  941   8.016   9.446   6.018  2.1939  1.6007 -1.7796
  748MOL0     H  942   8.306   9.834   5.961  0.4986 -1.0844  0.6915
  748MOL0     H  943   8.285  10.027   5.803  2.2642  1.3056 -0.3282
  748MOL0     H  944   8.512  10.128   5.539 -2.4300  3.5895 -3.1049
  748MOL0     H  945   8.525   9.963   5.494 -0.0143  1.0254  0.4436
  748MOL0     H  946   8.331  10.156   5.342  0.1260 -1.4266 -0.2108
  748MOL0     H  947   8.498  10.160   5.289 -2.3226  2.9819 -1.2523
  748MOL0     H  948   8.346   9.897   5.300 -0.5815  1.0233 -0.3906
  748MOL0     H  949   8.357   9.988   5.156 -2.1445 -0.3121  1.1983
  748MOL0     H  950   8.615   9.913   5.307 -2.4004  0.1764  1.4102
  748MOL0     H  951   8.601   9.978   5.156  1.2672 -0.1289  0.8093
  748MOL0     H  952   8.459   9.754   5.107  0.6617  2.5629 -1.9161
  748MOL0     H  953   8.516   9.703   5.273  1.7616 -0.8001  0.4035
  748MOL0     H  954   8.722   9.756   5.065  1.9632  0.4245  1.5403
  748MOL0     H  955   8.746   9.689   5.223 -1.0913 -0.9555  0.0313
  748MOL0     H  956   8.548   9.557   5.022 -0.5588  1.8526  2.4677
  748MOL0     H  957   8.630   9.492   5.162 -0.3237 -2.2234 -0.6126
  748MOL0     H  958   8.756   9.569   4.889  0.2761 -0.2390 -0.0878
  748MOL0     H  959   8.857   9.524   5.025  1.9893  0.0824 -4.1346
  748MOL0     H  960   8.340   9.766   5.466 -1.5934  1.3871  0.0499
  748MOL0     H  961   8.389   9.589   5.618  0.6319  1.0225 -2.2502
  748MOL0     H  962   8.434   9.350   5.994  1.0918 -1.1449 -0.9086
  748MOL0     H  963   8.401   9.139   6.109  1.3122  1.4738 -0.6242
  748MOL0     H  964   8.182   7.864   7.058 -0.0785 -1.2584  1.2022
  748MOL0     H  965   8.160   7.678   6.916 -0.0564 -1.7464  1.7040
  748MOL0     H  966   8.216   7.458   6.596  2.6423  0.5630 -2.6872
  748MOL0     H  967   8.151   7.321   6.450 -0.3101  0.3514  0.1896
  748MOL0     H  968   8.299   6.889   6.470 -0.3695 -0.0240 -1.1621
  748MOL0     H  969   8.172   6.868   6.342 -2.1817  0.2579  0.8593
  748MOL0     H  970   8.136   6.934   6.632  0.8059 -1.0198 -0.5237
  748MOL0     H  971   8.093   6.791   6.525 -2.5372 -0.0458 -4.5170
  748MOL0     H  972   7.935   6.900   6.410  0.7274 -0.9555 -0.4003
  748MOL0     H  973   7.980   7.054   6.480 -2.2939 -0.0719 -0.2176
  748MOL0     H  974   7.815   6.836   6.649 -0.8966  0.2795  1.1861
  748MOL0     H  975   7.908   6.958   6.720 -0.7693  2.3983 -1.4335
  748MOL0     H  976   7.597   7.181   6.553 -1.6795 -2.6225  1.6901
  748MOL0     H  977   8.407   7.004   6.605  0.8094  0.1078  1.0749
  748MOL0     H  978   8.559   7.055   6.784 -0.2964 -0.5921  1.7583
  748MOL0     H  979   8.584   7.226   6.809  0.3147  0.5873 -2.6132
  748MOL0     H  980   8.469   7.137   6.910  1.1384 -2.5804  0.0642
  749MOL0     O  981   8.051   5.672   3.111  0.6462  0.1311 -0.0421
  749MOL0     C  982   8.158   5.662   3.170 -0.3817  0.6992  0.5711
  749MOL0     O  983   8.273   5.621   3.111 -0.6668  0.3654 -0.0196
  749MOL0     C  984   8.283   5.601   2.976  0.7502 -0.7034 -0.5063
  749MOL0     C  985   8.283   5.478   2.911 -0.0950  0.6240 -0.1338
  749MOL0     C  986   8.297   5.471   2.773 -0.4292  0.2118 -0.4575
  749MOL0     C  987   8.322   5.588   2.706 -0.0702 -0.1681  0.7465
  749MOL0     O  988   8.332   5.599   2.573 -0.3386  0.6281 -0.1790
  749MOL0     C  989   8.312   5.481   2.500  0.3733  0.4092  1.2928
  749MOL0     C  990   8.330   5.507   2.353 -0.0792 -0.5291 -0.6354
  749MOL0     C  991   8.227   5.612   2.302 -0.1914 -0.2651 -0.9385
  749MOL0     C  992   8.207   5.595   2.156 -0.0150  0.0290  0.4920
  749MOL0     C  993   8.100   5.703   2.109 -0.7997 -0.4668  0.5328
  749MOL0     C  994   8.062   5.692   1.962  0.3991  0.9555 -0.4420
  749MOL0     C  995   7.984   5.809   1.918  0.5521  0.3372  0.4725
  749MOL0     C  996   7.920   5.792   1.777  0.2492 -0.4692  0.2131
  749MOL0     N  997   7.824   5.899   1.745 -0.1830  0.0397 -0.2100
  749MOL0     C  998   7.868   6.029   1.742 -0.0240  0.7601  0.2033
  749MOL0     C  999   7.756   6.105   1.749  0.2424  0.3949  0.2049
  749MOL0     C 1000   7.748   6.258   1.736  0.7867  0.4734 -1.0418
  749MOL0     C 1001   7.756   6.287   1.587 -0.0838 -0.5070  0.3965
  749MOL0     C 1002   7.735   6.429   1.559  0.1571 -0.0691  0.3209
  749MOL0     C 1003   7.838   6.532   1.613  0.1865  0.2738 -0.4880
  749MOL0     O 1004   7.802   6.587   1.741  0.1758  0.9602 -0.0090
  749MOL0     C 1005   7.709   6.683   1.749 -0.3550 -0.1024  0.2883
  749MOL0     C 1006   7.738   6.814   1.704 -0.1157 -0.0404 -0.0049
  749MOL0     C 1007   7.641   6.915   1.720 -0.4144 -0.1369  0.4943
  749MOL0     C 1008   7.515   6.895   1.790  0.6518 -0.4460 -0.9109
  749MOL0     C 1009   7.419   7.004   1.816 -0.7777  0.0915  0.5358
  749MOL0     O 1010   7.480   7.124   1.815  0.3941  0.7035  0.5615
  749MOL0     C 1011   7.423   7.244   1.817  0.4298 -1.2166 -0.8089
  749MOL0     C 1012   7.493   7.350   1.765 -0.6402  0.3944 -0.2153
  749MOL0     C 1013   7.449   7.484   1.776  0.3855  1.3214  0.0447
  749MOL0     C 1014   7.328   7.512   1.833 -0.0957  0.3567  1.2932
  749MOL0     O 1015   7.274   7.630   1.872 -0.3245  0.2846  0.2166
  749MOL0     C 1016   7.344   7.744   1.829 -0.3497 -0.7526  0.6521
  749MOL0     C 1017   7.271   7.874   1.856  0.6964  0.8393 -0.0083
  749MOL0     C 1018   7.191   7.908   1.734 -1.1549  0.7750  0.0575
  749MOL0     C 1019   7.092   8.011   1.781  0.6544  0.5661  0.0440
  749MOL0     C 1020   6.995   8.055   1.670 -0.3488  0.4866 -0.5887
  749MOL0     C 1021   7.068   8.168   1.585 -0.2266  0.1169  0.2210
  749MOL0     C 1022   6.954   8.244   1.505  0.1040  0.4128 -0.5973
  749MOL0     C 1023   7.003   8.370   1.441  0.0864  0.5257 -0.0644
  749MOL0    Cl 1024   7.168   8.368   1.387 -0.0903  0.0377 -0.4097
  749MOL0     C 1025   7.263   7.409   1.882  0.7400 -0.4473 -0.0034
  749MOL0     C 1026   7.294   7.274   1.869  0.0384  0.5913  0.0972
  749MOL0     O 1027   7.303   6.979   1.832 -1.1938 -0.5064  0.4129
  749MOL0     C 1028   7.489   6.767   1.826 -0.8925 -0.2482 -0.2630
  749MOL0     C 1029   7.583   6.657   1.801  1.0315  0.0098 -0.9153
  749MOL0     N 1030   7.652   6.010   1.766  0.1886 -0.7080 -0.7965
  749MOL0     N 1031   7.698   5.892   1.772  0.1119 -0.9234 -0.3675
  749MOL0     C 1032   8.324   5.713   2.770 -0.9546  0.7527  0.2038
  749MOL0     C 1033   8.291   5.715   2.900 -0.1267 -0.3666  0.0169
  749MOL0     C 1034   8.159   5.674   3.318  0.4513  0.0081 -0.3291
  749MOL0     C 1035   8.037   5.709   3.375  0.1709 -0.3380 -0.2520
  749MOL0     C 1036   8.025   5.735   3.514  0.3944  0.0857 -0.2906
  749MOL0     C 1037   8.133   5.733   3.599  0.1715  0.6396  0.6805
  749MOL0     O 1038   8.132   5.746   3.738 -0.4527 -0.1255  0.2159
  749MOL0     C 1039   8.041   5.670   3.816 -0.7479 -0.2782  0.2761
  749MOL0     C 1040   8.012   5.749   3.953  0.3009 -0.0802 -0.5377
  749MOL0     C 1041   8.128   5.751   4.050 -0.1052 -0.0277 -0.1128
  749MOL0     C 1042   8.139   5.621   4.132 -0.4169 -0.2810 -0.3022
  749MOL0     C 1043   8.275   5.573   4.157 -0.8682  0.1258  0.8097
  749MOL0     C 1044   8.390   5.534   4.182 -0.3931  0.7524  0.0523
  749MOL0     C 1045   8.260   5.701   3.539  0.1015 -1.2803  0.6923
  749MOL0     C 1046   8.274   5.675   3.401  0.0886  0.5236  0.0035
  749MOL0     C 1047   8.413   5.656   3.343  1.2895 -0.3915 -0.3343
  749MOL0     H 1048   8.261   5.385   2.962 -1.9977  1.7119  1.1824
  749MOL0     H 1049   8.311   5.372   2.731 -0.4698 -0.5798  1.3189
  749MOL0     H 1050   8.392   5.410   2.523  2.5064  1.5457 -1.9015
  749MOL0     H 1051   8.210   5.442   2.510  0.2539  0.7167  1.3079
  749MOL0     H 1052   8.320   5.420   2.287 -0.3105 -0.9318 -0.0737
  749MOL0     H 1053   8.432   5.543   2.335  0.7066 -1.9377  0.7629
  749MOL0     H 1054   8.261   5.714   2.322 -2.8152  0.5547 -0.1201
  749MOL0     H 1055   8.129   5.608   2.351  0.5817  0.2564  0.7568
  749MOL0     H 1056   8.305   5.616   2.112 -0.5359  1.5124 -0.0071
  749MOL0     H 1057   8.176   5.496   2.119 -3.2983 -0.0185  2.8734
  749MOL0     H 1058   8.002   5.696   2.157 -1.7438 -1.8683 -1.4491
  749MOL0     H 1059   8.145   5.802   2.117  1.6743 -1.2312 -2.1667
  749MOL0     H 1060   8.146   5.675   1.894  0.3729 -1.1392 -0.0057
  749MOL0     H 1061   8.005   5.600   1.950 -0.0209  1.2447 -0.7300
  749MOL0     H 1062   8.044   5.900   1.918 -0.8107  1.2638  0.2417
  749MOL0     H 1063   7.900   5.832   1.984  0.9251  0.6049  0.8586
  749MOL0     H 1064   8.000   5.799   1.703 -0.6640  0.2301 -0.7454
  749MOL0     H 1065   7.860   5.701   1.774 -4.1893  2.1467  0.6838
  749MOL0     H 1066   7.969   6.066   1.730  0.0296  0.8410  0.8969
  749MOL0     H 1067   7.660   6.306   1.780 -0.7221 -0.6711 -2.6695
  749MOL0     H 1068   7.835   6.285   1.797  1.6795 -2.4788 -0.8694
  749MOL0     H 1069   7.847   6.263   1.532 -1.8938  0.3099 -3.3419
  749MOL0     H 1070   7.688   6.226   1.526  0.7567 -0.7908 -0.2870
  749MOL0     H 1071   7.635   6.460   1.589  0.9765  1.2791  1.8423
  749MOL0     H 1072   7.740   6.433   1.450 -0.9828 -0.9495  0.2251
  749MOL0     H 1073   7.848   6.614   1.542  0.6109  0.8774  0.2603
  749MOL0     H 1074   7.941   6.494   1.617  0.6585  1.5948  1.0021
  749MOL0     H 1075   7.824   6.812   1.638  0.5888 -4.7645  0.6608
  749MOL0     H 1076   7.667   7.011   1.677  2.0108 -0.6902  0.5760
  749MOL0     H 1077   7.593   7.335   1.725 -0.9682  0.0291 -0.9130
  749MOL0     H 1078   7.521   7.557   1.740  0.5823  0.8871 -0.4726
  749MOL0     H 1079   7.440   7.749   1.882 -0.2379 -1.5016  0.5282
  749MOL0     H 1080   7.369   7.746   1.722  0.9277  4.6851  0.7490
  749MOL0     H 1081   7.209   7.865   1.946 -1.3481  0.0346 -1.4213
  749MOL0     H 1082   7.340   7.958   1.867  0.4189  1.0013  0.5481
  749MOL0     H 1083   7.258   7.935   1.652 -0.9408 -0.5388 -0.2255
  749MOL0     H 1084   7.134   7.826   1.690  1.1312 -0.3208 -1.0443
  749MOL0     H 1085   7.144   8.097   1.824  1.8238 -0.2797  0.3952
  749MOL0     H 1086   7.035   7.969   1.864  1.3996 -0.2723  0.1521
  749MOL0     H 1087   6.909   8.100   1.719 -0.0198  0.4408  0.0405
  749MOL0     H 1088   6.958   7.969   1.614  1.0346  0.0566 -0.8910
  749MOL0     H 1089   7.114   8.236   1.657  0.3921 -2.8095  2.8495
  749MOL0     H 1090   7.144   8.130   1.516  0.8058 -0.4911  1.6301
  749MOL0     H 1091   6.865   8.257   1.567 -0.7204 -1.4869 -1.3117
  749MOL0     H 1092   6.918   8.182   1.423 -0.9899 -0.9771  0.8786
  749MOL0     H 1093   6.940   8.376   1.352  2.4466  0.5640 -1.8335
  749MOL0     H 1094   6.998   8.445   1.520 -1.3041  0.8972 -0.4787
  749MOL0     H 1095   7.164   7.420   1.926  0.5275 -1.6867 -0.1321
  749MOL0     H 1096   7.235   7.192   1.906  1.7007 -0.2820  0.9223
  749MOL0     H 1097   7.396   6.731   1.869 -0.7636 -0.7919 -0.4275
  749MOL0     H 1098   7.557   6.563   1.848  3.4031  0.9730  2.8668
  749MOL0     H 1099   8.331   5.799   2.704 -2.0559  0.2862 -0.5611
  749MOL0     H 1100   8.275   5.813   2.943  1.1156  0.2938 -0.9737
  749MOL0     H 1101   7.954   5.725   3.307  1.7536 -0.3484 -2.2893
  749MOL0     H 1102   7.938   5.779   3.560  0.3328 -1.8791  1.5944
  749MOL0     H 1103   8.085   5.571   3.834 -3.3416 -1.7190 -0.7815
  749MOL0     H 1104   7.945   5.659   3.764  1.0184 -1.2094 -3.0766
  749MOL0     H 1105   7.923   5.708   4.002 -0.0635  2.1873  0.8380
  749MOL0     H 1106   7.988   5.853   3.930  0.6844 -0.2969 -2.0630
  749MOL0     H 1107   8.137   5.829   4.126  3.4069  0.1111 -0.4693
  749MOL0     H 1108   8.220   5.764   3.991 -0.3120 -0.0147 -0.4338
  749MOL0     H 1109   8.079   5.613   4.223 -0.6161  3.3392 -0.0065
  749MOL0     H 1110   8.081   5.543   4.080 -3.9934  3.5964 -2.7803
  749MOL0     H 1111   8.488   5.498   4.210 -1.3292 -1.6484  0.5210
  749MOL0     H 1112   8.350   5.705   3.599  0.3854 -3.3153  0.4729
  749MOL0     H 1113   8.486   5.636   3.422 -0.1076 -2.2054  0.5678
  749MOL0     H 1114   8.409   5.565   3.283 -2.7563 -0.1078 -0.7781
  749MOL0     H 1115   8.450   5.743   3.288  1.5728 -0.2611  0.0579
  750MOL0     O 1116   9.677   4.896   1.202  0.1182  1.1603 -0.4651
  750MOL0     C 1117   9.602   4.806   1.162 -0.1654 -0.2560 -0.6542
  750MOL0     O 1118   9.463   4.812   1.139  0.4411 -0.3203  0.4767
  750MOL0     C 1119   9.413   4.939   1.156 -0.0567  0.3304  0.1938
  750MOL0     C 1120   9.331   4.982   1.259  0.6801  0.2068  0.1516
  750MOL0     C 1121   9.294   5.108   1.290 -0.2387  0.8720 -0.1360
  750MOL0     C 1122   9.336   5.204   1.198 -0.3369 -0.9327  0.3662
  750MOL0     O 1123   9.336   5.338   1.222 -0.1333 -0.7032 -0.1342
  750MOL0     C 1124   9.230   5.395   1.296 -0.9192 -0.1801  0.2420
  750MOL0     C 1125   9.092   5.353   1.259 -1.0018  1.0981  0.3406
  750MOL0     C 1126   9.067   5.355   1.105  0.5860 -0.6215 -0.7676
  750MOL0     C 1127   8.934   5.416   1.069 -1.1395 -0.0747 -0.2089
  750MOL0     C 1128   8.905   5.418   0.917 -0.2094  0.5147 -0.1048
  750MOL0     C 1129   8.765   5.468   0.872  0.2887  0.5426  0.4350
  750MOL0     C 1130   8.673   5.349   0.852  0.2931 -0.7326  0.3892
  750MOL0     C 1131   8.526   5.401   0.832  0.5640 -0.2438  0.1424
  750MOL0     N 1132   8.465   5.442   0.962 -0.1420 -0.3009 -0.0206
  750MOL0     C 1133   8.514   5.463   1.087 -0.4323  0.2092 -0.8392
  750MOL0     C 1134   8.403   5.497   1.165  0.1825  0.4536  0.7878
  750MOL0     C 1135   8.411   5.544   1.309 -0.4304  0.2807 -0.2320
  750MOL0     C 1136   8.277   5.590   1.368  0.0194  0.2856 -0.0058
  750MOL0     C 1137   8.275   5.657   1.501  0.7435  1.1378  0.2165
  750MOL0     C 1138   8.240   5.796   1.494 -0.2584 -0.3296  0.4683
  750MOL0     O 1139   8.297   5.860   1.381  0.7152  0.6541 -1.0638
  750MOL0     C 1140   8.264   5.994   1.376 -0.3436 -0.1630 -1.7513
  750MOL0     C 1141   8.194   6.038   1.266  0.8672 -0.3415  0.2318
  750MOL0     C 1142   8.146   6.174   1.256  0.9010  0.7710  0.1433
  750MOL0     C 1143   8.186   6.262   1.353 -0.2887 -0.6187 -0.3778
  750MOL0     C 1144   8.121   6.388   1.371 -0.1383  0.3346 -0.1824
  750MOL0     O 1145   8.186   6.479   1.450  0.8982  0.2616  0.0520
  750MOL0     C 1146   8.136   6.600   1.458  0.3189  0.3262 -0.5541
  750MOL0     C 1147   8.140   6.654   1.585  0.9297 -0.3096  1.0271
  750MOL0     C 1148   8.101   6.793   1.593  1.3155 -0.2444  0.5794
  750MOL0     C 1149   8.035   6.866   1.491  0.1652  0.1797  0.2685
  750MOL0     O 1150   8.005   6.992   1.522  0.1055  0.0829  0.1305
  750MOL0     C 1151   8.121   7.061   1.546 -0.1142  0.1934 -0.2962
  750MOL0     C 1152   8.101   7.204   1.537  0.8960  1.4517 -1.4448
  750MOL0     C 1153   8.023   7.261   1.424  0.9247 -0.1292 -0.0577
  750MOL0     C 1154   7.880   7.300   1.463  0.6358 -0.3807  0.4053
  750MOL0     C 1155   7.808   7.363   1.349  0.3620 -0.8386 -0.8381
  750MOL0     C 1156   7.661   7.394   1.383  0.8375 -0.0414  0.5031
  750MOL0     C 1157   7.583   7.477   1.277  0.1147  0.8635 -0.5743
  750MOL0     C 1158   7.447   7.506   1.326  0.3938  1.0445  0.2214
  750MOL0    Cl 1159   7.463   7.625   1.459 -0.4098  0.1495  0.0765
  750MOL0     C 1160   8.038   6.808   1.368  0.5280  0.6819 -0.1712
  750MOL0     C 1161   8.077   6.673   1.349 -0.1481  0.7074 -0.0682
  750MOL0     O 1162   8.003   6.395   1.330 -0.1529  0.3757  0.3066
  750MOL0     C 1163   8.292   6.225   1.453 -0.9416  0.3044  0.5727
  750MOL0     C 1164   8.319   6.087   1.466 -0.1585 -0.9558 -0.7463
  750MOL0     N 1165   8.297   5.482   1.084  0.1380  0.1822  0.7876
  750MOL0     N 1166   8.331   5.457   0.961 -0.3442 -0.5665 -0.1715
  750MOL0     C 1167   9.405   5.161   1.084 -1.4710  0.6609 -0.6802
  750MOL0     C 1168   9.439   5.033   1.062 -0.2192  1.3114  0.3227
  750MOL0     C 1169   9.662   4.673   1.134 -0.1374 -0.8922  0.4507
  750MOL0     C 1170   9.581   4.574   1.078 -0.2300  0.2081  0.1642
  750MOL0     C 1171   9.629   4.442   1.047  0.7137 -0.3652 -0.1991
  750MOL0     C 1172   9.765   4.414   1.082 -0.7583  0.3436 -0.4214
  750MOL0     O 1173   9.799   4.287   1.042 -0.7949  0.0415  0.0379
  750MOL0     C 1174   9.927   4.255   1.008 -0.7025 -0.1312  0.2430
  750MOL0     C 1175   9.919   4.208   0.861 -0.8155  0.7803 -0.5476
  750MOL0     C 1176   9.847   4.075   0.851  0.5109  0.7843 -1.1621
  750MOL0     C 1177   9.828   4.019   0.706 -0.1446 -0.1433 -0.4730
  750MOL0     C 1178   9.967   4.008   0.646 -0.3014 -0.1084  0.1815
  750MOL0     C 1179  10.085   3.999   0.610 -0.5052 -0.1448 -0.4864
  750MOL0     C 1180   9.839   4.502   1.153 -0.2416  1.2375  0.1154
  750MOL0     C 1181   9.793   4.632   1.171  0.3039 -0.5090 -0.4272
  750MOL0     C 1182   9.898   4.725   1.236  0.4220  0.5763 -0.2395
  750MOL0     H 1183   9.320   4.899   1.329  0.8233 -2.0535 -2.3268
  750MOL0     H 1184   9.254   5.138   1.386  0.4453 -0.5497  0.6251
  750MOL0     H 1185   9.247   5.382   1.404  0.4977 -0.3860  0.0144
  750MOL0     H 1186   9.230   5.502   1.275  4.5750 -0.3419 -2.4172
  750MOL0     H 1187   9.008   5.401   1.310 -3.3881 -2.1282 -0.2146
  750MOL0     H 1188   9.072   5.250   1.291 -1.2346  1.0785  0.1264
  750MOL0     H 1189   9.073   5.251   1.073  1.1765 -1.3379  1.4616
  750MOL0     H 1190   9.146   5.404   1.047  0.1333 -0.7047 -1.4606
  750MOL0     H 1191   8.852   5.374   1.127  0.7821 -0.2960  2.5035
  750MOL0     H 1192   8.948   5.517   1.109 -2.4607  0.2833 -0.6041
  750MOL0     H 1193   8.986   5.476   0.870  1.4122 -0.9848  0.7048
  750MOL0     H 1194   8.925   5.316   0.884 -0.3653 -0.1781  1.8203
  750MOL0     H 1195   8.736   5.538   0.951  3.6525 -0.4930  2.7972
  750MOL0     H 1196   8.768   5.519   0.775  0.6682  0.6173  0.4853
  750MOL0     H 1197   8.678   5.275   0.933  0.0372  0.8710  1.9339
  750MOL0     H 1198   8.706   5.293   0.764  0.5725 -1.6707  1.0722
  750MOL0     H 1199   8.526   5.473   0.750 -0.9445 -1.3658 -0.8835
  750MOL0     H 1200   8.475   5.311   0.799 -0.9190  0.3218  0.7900
  750MOL0     H 1201   8.619   5.472   1.114 -0.5093 -0.2527 -0.3732
  750MOL0     H 1202   8.449   5.460   1.368  2.2269  2.6144  1.6137
  750MOL0     H 1203   8.495   5.613   1.323  1.1910 -1.4507 -1.0984
  750MOL0     H 1204   8.238   5.661   1.295 -0.3611  0.7445  0.6331
  750MOL0     H 1205   8.224   5.495   1.379  2.0785 -0.7858  1.3116
  750MOL0     H 1206   8.379   5.646   1.534  1.3502  2.2436 -1.2172
  750MOL0     H 1207   8.207   5.609   1.572 -0.9923  2.1841 -0.6767
  750MOL0     H 1208   8.288   5.833   1.585  2.9163 -4.8119  0.9557
  750MOL0     H 1209   8.134   5.804   1.467  0.0697  0.4204 -0.6666
  750MOL0     H 1210   8.156   5.963   1.197 -1.5431 -1.1771  2.2947
  750MOL0     H 1211   8.067   6.192   1.184 -1.4627 -1.2206  2.0183
  750MOL0     H 1212   8.187   6.602   1.668 -0.1403 -2.6235  0.2914
  750MOL0     H 1213   8.096   6.825   1.697 -0.6827 -1.3166  0.8711
  750MOL0     H 1214   8.169   7.036   1.641 -2.6787 -2.0628  0.5358
  750MOL0     H 1215   8.187   7.036   1.462 -1.3350 -0.5966 -1.0614
  750MOL0     H 1216   8.058   7.237   1.632  1.4434  1.9178 -1.3533
  750MOL0     H 1217   8.202   7.246   1.531  1.3742  0.5981  0.1907
  750MOL0     H 1218   8.079   7.349   1.391  0.1675 -0.0210 -1.1095
  750MOL0     H 1219   8.026   7.196   1.336 -2.7986  1.4603 -1.5578
  750MOL0     H 1220   7.883   7.378   1.539  3.4631  1.8220 -1.7288
  750MOL0     H 1221   7.832   7.211   1.504 -0.9622 -1.3675 -3.1912
  750MOL0     H 1222   7.808   7.288   1.270 -0.2808 -3.0148  1.0923
  750MOL0     H 1223   7.851   7.461   1.327  0.6724 -1.0710 -1.2864
  750MOL0     H 1224   7.618   7.295   1.402  0.7195  0.3623  2.4528
  750MOL0     H 1225   7.653   7.453   1.474  1.1337 -0.7068  0.9719
  750MOL0     H 1226   7.583   7.408   1.192 -0.5259  2.4193 -1.8748
  750MOL0     H 1227   7.642   7.563   1.244  1.3371 -0.8090 -3.0726
  750MOL0     H 1228   7.387   7.545   1.244  2.9973  1.5615 -1.5739
  750MOL0     H 1229   7.401   7.413   1.360 -0.4999  0.9671 -1.1407
  750MOL0     H 1230   8.003   6.858   1.279  0.7864 -2.3014 -2.0986
  750MOL0     H 1231   8.073   6.632   1.249  2.5666 -0.0257  0.0478
  750MOL0     H 1232   8.330   6.295   1.526 -2.5231 -0.3568  2.1237
  750MOL0     H 1233   8.395   6.064   1.540 -1.7618  0.8137  1.5981
  750MOL0     H 1234   9.430   5.228   1.003 -0.1902  3.2577  1.7071
  750MOL0     H 1235   9.491   5.000   0.972 -1.6416 -2.5671  0.7385
  750MOL0     H 1236   9.479   4.598   1.051  0.5628  4.9315  0.5058
  750MOL0     H 1237   9.575   4.370   0.986  0.8203  0.1063 -0.8612
  750MOL0     H 1238   9.953   4.169   1.071 -0.6047 -0.6045 -0.4373
  750MOL0     H 1239   9.997   4.338   1.019 -0.3876 -0.3649  0.0290
  750MOL0     H 1240  10.024   4.188   0.835 -1.2682 -1.5397 -0.8332
  750MOL0     H 1241   9.885   4.290   0.798  2.0963  2.1151 -0.5487
  750MOL0     H 1242   9.744   4.089   0.888  0.8100 -0.7195  0.3777
  750MOL0     H 1243   9.899   3.994   0.903  0.0883  0.9113 -0.5269
  750MOL0     H 1244   9.776   3.925   0.727 -1.6543  0.1285 -2.7165
  750MOL0     H 1245   9.764   4.093   0.657 -0.0901  2.8760  3.4571
  750MOL0     H 1246  10.185   3.991   0.574  0.5328  2.1596  1.6010
  750MOL0     H 1247   9.927   4.459   1.199 -1.7475 -1.4398  0.7365
  750MOL0     H 1248   9.993   4.673   1.244 -0.5729 -1.9046 -2.7790
  750MOL0     H 1249   9.915   4.816   1.176 -0.2740  0.4351 -0.6650
  750MOL0     H 1250   9.868   4.766   1.333 -1.1280  0.0402 -0.4624
  751MOL0     O 1251   8.751   3.148  10.661  0.5525 -1.0245 -0.3323
  751MOL0     C 1252   8.859   3.095  10.639 -0.5148  0.8762  0.3661
  751MOL0     O 1253   8.908   3.083  10.515 -0.3832  0.3588 -0.6071
  751MOL0     C 1254   8.830   3.139  10.419  0.1236 -0.0982 -0.6234
  751MOL0     C 1255   8.859   3.269  10.374  0.1138 -0.7815 -0.2429
  751MOL0     C 1256   8.797   3.309  10.255 -1.3621 -0.2185  0.1891
  751MOL0     C 1257   8.693   3.235  10.195 -0.1138  0.3014 -0.4830
  751MOL0     O 1258   8.629   3.286  10.083  0.7249  0.7773 -0.1892
  751MOL0     C 1259   8.489   3.264  10.056 -0.0284 -0.1415 -0.2148
  751MOL0     C 1260   8.439   3.397  10.003 -0.9630  0.8893  0.1165
  751MOL0     C 1261   8.295   3.379   9.956  0.3899 -0.2837  0.2810
  751MOL0     C 1262   8.225   3.501   9.920 -0.2326  0.2939 -0.2815
  751MOL0     C 1263   8.077   3.474   9.916 -0.8901 -1.3382 -0.4485
  751MOL0     C 1264   8.011   3.596   9.839 -0.5642 -0.1077  0.4602
  751MOL0     C 1265   7.861   3.586   9.842  0.5526 -0.1103  0.1680
  751MOL0     C 1266   7.810   3.692   9.748 -0.3149  0.1774  0.2005
  751MOL0     N 1267   7.808   3.818   9.819  0.2922 -0.0632 -0.3235
  751MOL0     C 1268   7.709   3.865   9.910 -0.2600 -1.3181  0.2850
  751MOL0     C 1269   7.774   3.975   9.965  0.7542 -0.1117 -0.0407
  751MOL0     C 1270   7.710   4.067  10.074 -1.0203 -0.0102 -0.1604
  751MOL0     C 1271   7.733   4.216  10.028  0.0094  0.4740 -0.0004
  751MOL0     C 1272   7.671   4.309  10.134  0.3606  0.1809  0.8230
  751MOL0     C 1273   7.670   4.450  10.089  0.0966 -1.2764 -0.1794
  751MOL0     O 1274   7.798   4.518  10.099 -0.0699 -0.1460  0.7607
  751MOL0     C 1275   7.802   4.653  10.060  0.2046  0.4505 -0.3688
  751MOL0     C 1276   7.932   4.696  10.013  0.1280 -0.5125 -1.4170
  751MOL0     C 1277   7.950   4.832   9.977 -0.1768 -0.3064  0.4507
  751MOL0     C 1278   7.839   4.921   9.962 -0.5108  0.4659 -0.5999
  751MOL0     C 1279   7.863   5.068   9.908 -0.4353  0.3296 -0.6975
  751MOL0     O 1280   7.991   5.127   9.926  0.1584  0.0991  0.4769
  751MOL0     C 1281   7.998   5.244   9.865  0.6724  0.1364 -0.2580
  751MOL0     C 1282   7.955   5.363   9.917  0.2310 -0.4725 -0.0478
  751MOL0     C 1283   7.967   5.482   9.839 -0.1584  0.0020 -0.1696
  751MOL0     C 1284   8.038   5.477   9.716  0.0983 -0.1008 -0.3680
  751MOL0     O 1285   8.048   5.580   9.625  0.0194 -0.1371 -0.3311
  751MOL0     C 1286   8.015   5.715   9.666 -0.3381  0.1580 -0.7942
  751MOL0     C 1287   8.042   5.815   9.559 -0.4961 -0.4642 -0.3546
  751MOL0     C 1288   7.961   5.782   9.432 -0.4568 -0.2290 -1.0910
  751MOL0     C 1289   7.971   5.887   9.327  0.1066  0.4520  0.8118
  751MOL0     C 1290   7.895   5.841   9.208 -0.5226 -0.3930 -0.7221
  751MOL0     C 1291   7.944   5.938   9.089  0.4967  0.3026  0.8974
  751MOL0     C 1292   7.839   5.945   8.976  0.0695 -0.5558 -0.1713
  751MOL0     C 1293   7.896   6.045   8.881 -0.2108 -0.4796  0.7320
  751MOL0    Cl 1294   8.035   5.985   8.789 -0.1389  0.0142 -0.1941
  751MOL0     C 1295   8.093   5.354   9.668 -0.4160  0.1694 -0.3795
  751MOL0     C 1296   8.062   5.240   9.744 -0.0317 -0.6917  0.1563
  751MOL0     O 1297   7.761   5.123   9.874 -0.0846  0.5874  0.3703
  751MOL0     C 1298   7.716   4.875  10.013  0.2923 -0.0937  0.4065
  751MOL0     C 1299   7.697   4.745  10.058 -0.0393  0.0780 -0.1394
  751MOL0     N 1300   7.900   3.994   9.911 -0.8724  1.0402 -0.2025
  751MOL0     N 1301   7.913   3.905   9.819  0.0877 -0.5066 -0.2879
  751MOL0     C 1302   8.665   3.105  10.244  0.3891  0.8255  0.0705
  751MOL0     C 1303   8.738   3.053  10.352 -0.3176  0.1368 -0.7088
  751MOL0     C 1304   8.949   3.052  10.751  0.4920  0.8674 -0.1624
  751MOL0     C 1305   8.896   3.034  10.880 -0.0235  0.1953  0.3656
  751MOL0     C 1306   8.977   2.979  10.985 -0.0677 -0.0976 -0.3436
  751MOL0     C 1307   9.108   2.944  10.966  0.0542  0.7177  0.8267
  751MOL0     O 1308   9.193   2.899  11.057 -0.3069 -0.8567  0.2083
  751MOL0     C 1309   9.158   2.920  11.194  0.5457 -0.0204 -0.1971
  751MOL0     C 1310   9.139   2.788  11.262 -0.5857 -0.2390 -0.0160
  751MOL0     C 1311   9.100   2.821  11.405 -0.0393 -0.3102  0.3595
  751MOL0     C 1312   9.072   2.701  11.490  0.5065 -0.4208  0.3198
  751MOL0     C 1313   9.173   2.647  11.579  0.2553 -0.0029 -0.0776
  751MOL0     C 1314   9.245   2.598  11.659  1.2947 -0.2534 -0.0153
  751MOL0     C 1315   9.157   2.974  10.838 -0.0738  0.4229 -0.0083
  751MOL0     C 1316   9.087   3.023  10.729 -0.2394 -0.0289  0.1897
  751MOL0     C 1317   9.166   3.078  10.614 -0.4864 -0.3755 -0.2704
  751MOL0     H 1318   8.924   3.341  10.423 -1.7547  1.6921 -1.1430
  751MOL0     H 1319   8.831   3.399  10.204  2.2144 -3.1081 -3.1153
  751MOL0     H 1320   8.482   3.180   9.986 -0.0096 -1.3186  1.1412
  751MOL0     H 1321   8.444   3.238  10.152  0.7732 -0.5923  0.0547
  751MOL0     H 1322   8.510   3.432   9.927  2.1314  1.4828  3.0133
  751MOL0     H 1323   8.444   3.476  10.079 -1.0268  0.4567  0.5773
  751MOL0     H 1324   8.246   3.328  10.040 -0.0733  0.1497  0.2792
  751MOL0     H 1325   8.294   3.311   9.871 -1.3205  0.9020 -0.6984
  751MOL0     H 1326   8.259   3.580   9.988  3.3699 -0.4087 -1.0358
  751MOL0     H 1327   8.274   3.538   9.829  4.1791  0.3943  1.8324
  751MOL0     H 1328   8.037   3.382   9.873 -2.5293 -1.2914  0.8805
  751MOL0     H 1329   8.050   3.480  10.022 -0.5211  2.2072 -0.4245
  751MOL0     H 1330   8.037   3.697   9.873 -1.7623  0.5290 -0.4567
  751MOL0     H 1331   8.049   3.579   9.738  0.0209 -1.7915  0.9304
  751MOL0     H 1332   7.825   3.608   9.943  2.2487  1.8411  0.4151
  751MOL0     H 1333   7.826   3.487   9.812  0.0394  0.0584  0.1994
  751MOL0     H 1334   7.863   3.694   9.652  0.8322 -0.2257  0.8015
  751MOL0     H 1335   7.703   3.676   9.731 -0.6617  2.9429 -0.6730
  751MOL0     H 1336   7.610   3.823   9.926 -2.1720  2.0341 -1.6482
  751MOL0     H 1337   7.605   4.049  10.099 -0.4995 -0.5247  1.8646
  751MOL0     H 1338   7.766   4.052  10.167  0.6097  1.8371 -0.7785
  751MOL0     H 1339   7.838   4.242  10.041  1.0387 -2.2359 -1.9165
  751MOL0     H 1340   7.703   4.221   9.923  1.7134  0.9717 -0.4975
  751MOL0     H 1341   7.719   4.296  10.232 -2.5130 -1.9459  2.1149
  751MOL0     H 1342   7.571   4.266  10.148  0.8237 -1.6804 -1.0662
  751MOL0     H 1343   7.604   4.510  10.153  1.0510  0.4945 -0.7961
  751MOL0     H 1344   7.641   4.469   9.985  0.7769  1.7516  0.0891
  751MOL0     H 1345   8.015   4.626  10.022  0.2021 -0.1552  1.5893
  751MOL0     H 1346   8.050   4.861   9.946  0.0304 -1.5052 -0.0470
  751MOL0     H 1347   7.898   5.373  10.009  0.5158  0.5453  0.0298
  751MOL0     H 1348   7.922   5.571   9.883 -2.0888 -2.1667  2.6142
  751MOL0     H 1349   7.907   5.720   9.685 -0.1237 -0.5247  0.7817
  751MOL0     H 1350   8.067   5.728   9.761  0.9074 -1.9925 -1.1303
  751MOL0     H 1351   8.005   5.915   9.584 -0.9335 -0.3752 -1.3212
  751MOL0     H 1352   8.150   5.814   9.544 -0.2898 -1.8671  0.9056
  751MOL0     H 1353   8.000   5.688   9.393  0.0541 -1.8299  2.7387
  751MOL0     H 1354   7.855   5.773   9.456 -0.6649  0.8787 -1.5310
  751MOL0     H 1355   8.074   5.904   9.293  1.2336 -3.6954  1.6223
  751MOL0     H 1356   7.922   5.980   9.358 -2.1453 -0.6315  0.6379
  751MOL0     H 1357   7.786   5.844   9.220 -0.2545 -0.4578  2.7629
  751MOL0     H 1358   7.921   5.737   9.185  1.0249 -0.2597  0.2835
  751MOL0     H 1359   7.959   6.039   9.127 -1.4821  0.6152  0.9804
  751MOL0     H 1360   8.035   5.889   9.054 -0.3831  0.9699 -2.7953
  751MOL0     H 1361   7.745   5.982   9.017 -1.1761 -2.6641 -0.9649
  751MOL0     H 1362   7.809   5.847   8.937 -0.1391 -0.5718  0.0307
  751MOL0     H 1363   7.818   6.056   8.806  1.1519 -2.8764 -1.1822
  751MOL0     H 1364   7.909   6.144   8.926 -1.9969 -0.2752  0.8667
  751MOL0     H 1365   8.145   5.349   9.573 -3.5875 -2.8887 -2.2176
  751MOL0     H 1366   8.097   5.146   9.702 -0.2577 -2.8193  4.1465
  751MOL0     H 1367   7.633   4.945  10.017  0.7107  0.3940  0.6616
  751MOL0     H 1368   7.601   4.727  10.105  1.1687 -0.1886  2.4268
  751MOL0     H 1369   8.586   3.054  10.189  3.2419 -2.6107 -1.2743
  751MOL0     H 1370   8.721   2.948  10.375 -4.8063  0.5862 -1.1391
  751MOL0     H 1371   8.792   3.048  10.909  0.4707  4.3898  0.6812
  751MOL0     H 1372   8.915   2.945  11.067 -0.7271  2.3083  0.2167
  751MOL0     H 1373   9.066   2.978  11.211  0.1463 -0.3850 -1.0380
  751MOL0     H 1374   9.229   2.991  11.237 -1.1926  2.2975 -0.9447
  751MOL0     H 1375   9.225   2.724  11.241  1.6113  2.3854  0.4589
  751MOL0     H 1376   9.052   2.736  11.219 -1.5106 -2.3849  4.0102
  751MOL0     H 1377   9.016   2.890  11.399 -1.2325 -1.8722 -1.8401
  751MOL0     H 1378   9.188   2.873  11.445  0.9399 -0.5975 -1.3350
  751MOL0     H 1379   8.994   2.732  11.560 -1.9313  1.7884 -3.0903
  751MOL0     H 1380   9.039   2.613  11.434 -0.0573  1.5533 -2.6502
  751MOL0     H 1381   9.315   2.560  11.731  2.0588 -1.3015 -1.2718
  751MOL0     H 1382   9.264   2.969  10.820  0.3781 -1.5438  2.6933
  751MOL0     H 1383   9.140   3.180  10.584 -0.3049 -0.3114 -0.2129
  751MOL0     H 1384   9.275   3.065  10.617 -0.0103  2.1010 -2.8613
  751MOL0     H 1385   9.130   3.012  10.535 -2.0232  0.9910 -0.7566
  752MOL0     O 1386   7.866   0.655   2.030 -0.6605  0.4987 -0.7126
  752MOL0     C 1387   7.815   0.747   1.974 -0.5068 -0.8676 -0.1756
  752MOL0     O 1388   7.700   0.801   2.005 -0.8563 -0.6242 -0.6300
  752MOL0     C 1389   7.617   0.737   2.093 -1.0483  0.7290  0.1821
  752MOL0     C 1390   7.584   0.604   2.077  0.1694 -1.0944  1.0657
  752MOL0     C 1391   7.479   0.551   2.142 -0.8128 -0.2152  0.1966
  752MOL0     C 1392   7.399   0.635   2.224  0.0828  0.9766  1.4111
  752MOL0     O 1393   7.299   0.559   2.287  0.1478  0.3765 -0.4297
  752MOL0     C 1394   7.187   0.523   2.207  0.8178  1.1684  0.1347
  752MOL0     C 1395   7.053   0.482   2.280 -0.9940 -0.7624  0.3754
  752MOL0     C 1396   6.947   0.439   2.174 -0.4595 -0.0790 -0.8393
  752MOL0     C 1397   6.810   0.438   2.236  0.6319  0.4449 -0.5851
  752MOL0     C 1398   6.786   0.313   2.336 -0.3741 -0.0274 -0.8359
  752MOL0     C 1399   6.652   0.340   2.395  0.4663  0.2143 -0.5442
  752MOL0     C 1400   6.583   0.228   2.481  0.6789 -0.8730  0.1618
  752MOL0     C 1401   6.634   0.236   2.622  0.0568 -0.5854  0.3194
  752MOL0     N 1402   6.563   0.146   2.714 -0.2411 -0.0211 -0.9145
  752MOL0     C 1403   6.574   0.014   2.693 -0.3479 -0.4002  0.1813
  752MOL0     C 1404   6.480  -0.050   2.772  0.1585 -0.6268  0.3304
  752MOL0     C 1405   6.456  -0.196   2.777 -0.4383 -0.5313 -0.1391
  752MOL0     C 1406   6.301  -0.231   2.771  0.3469 -0.6777 -0.5332
  752MOL0     C 1407   6.270  -0.364   2.697  0.4116 -0.1063  0.5043
  752MOL0     C 1408   6.279  -0.371   2.548  0.0660 -0.8146  0.0233
  752MOL0     O 1409   6.236  -0.257   2.480  0.7303  0.4441  0.0277
  752MOL0     C 1410   6.323  -0.190   2.399  0.1005  1.1782 -0.3158
  752MOL0     C 1411   6.408  -0.259   2.317 -0.2679  0.5256 -0.1292
  752MOL0     C 1412   6.475  -0.208   2.210 -0.3155 -0.6455 -0.2203
  752MOL0     C 1413   6.469  -0.069   2.187 -0.1734  0.0837 -0.0516
  752MOL0     C 1414   6.560   0.012   2.094  0.3472  0.1996  0.1171
  752MOL0     O 1415   6.664  -0.062   2.040  0.5421 -0.2643  0.3585
  752MOL0     C 1416   6.738  -0.011   1.935  0.0796  0.2847 -0.8525
  752MOL0     C 1417   6.804  -0.110   1.856 -0.1759 -0.8366 -0.0029
  752MOL0     C 1418   6.899  -0.069   1.757  0.5665  0.0637 -0.7402
  752MOL0     C 1419   6.929   0.064   1.739 -0.3413 -0.1014 -0.6111
  752MOL0     O 1420   7.011   0.076   1.624  0.5231  0.2364  1.0680
  752MOL0     C 1421   7.071   0.205   1.600 -0.3580 -0.5855 -0.5293
  752MOL0     C 1422   7.130   0.187   1.460 -0.0081 -0.7605  0.1486
  752MOL0     C 1423   7.170   0.325   1.406 -0.0995 -0.0092 -0.1877
  752MOL0     C 1424   7.245   0.304   1.276 -0.5728  0.7250  0.4101
  752MOL0     C 1425   7.254   0.424   1.196 -0.0754 -0.3307 -0.4738
  752MOL0     C 1426   7.320   0.382   1.062 -0.7184  0.2578  1.1381
  752MOL0     C 1427   7.361   0.508   0.987  0.8334 -0.3471 -0.3516
  752MOL0     C 1428   7.393   0.479   0.846 -0.0096 -1.5111 -0.2609
  752MOL0    Cl 1429   7.554   0.409   0.841  0.0059 -0.2485  0.2513
  752MOL0     C 1430   6.861   0.164   1.819 -0.2511  0.1316 -0.4737
  752MOL0     C 1431   6.778   0.124   1.924 -0.1705  1.3794 -0.0819
  752MOL0     O 1432   6.531   0.126   2.065  0.3568 -0.0498 -0.2516
  752MOL0     C 1433   6.372   0.002   2.254  0.3942 -0.0827  0.4147
  752MOL0     C 1434   6.296  -0.061   2.364  0.0669 -0.4468  0.9488
  752MOL0     N 1435   6.393   0.057   2.817  0.3774  0.0012  0.1432
  752MOL0     N 1436   6.456   0.171   2.796 -0.3123 -0.1781 -0.1759
  752MOL0     C 1437   7.429   0.771   2.237  1.0946  0.4513  0.2973
  752MOL0     C 1438   7.541   0.820   2.173 -0.2892 -0.6073  0.1249
  752MOL0     C 1439   7.878   0.816   1.859  0.2635  0.3057 -0.4857
  752MOL0     C 1440   7.863   0.958   1.851 -0.2371  0.1129  0.0586
  752MOL0     C 1441   7.943   1.034   1.766  1.3294  0.1506  1.2485
  752MOL0     C 1442   8.024   0.971   1.672 -0.9595  0.6801  0.0247
  752MOL0     O 1443   8.115   1.045   1.592 -0.6892  0.7064  0.2654
  752MOL0     C 1444   8.071   1.169   1.528 -0.4985 -0.1990  0.2170
  752MOL0     C 1445   7.969   1.141   1.426  0.1707 -0.2595 -0.0963
  752MOL0     C 1446   8.026   1.037   1.325  0.1140 -0.1200 -0.1491
  752MOL0     C 1447   7.953   1.047   1.193 -0.1759  0.6765 -0.3641
  752MOL0     C 1448   8.026   1.116   1.091  0.6568 -0.3664  0.4895
  752MOL0     C 1449   8.095   1.147   0.999 -0.0758  0.3065  0.1891
  752MOL0     C 1450   8.022   0.827   1.667 -0.0192  0.6729  0.1889
  752MOL0     C 1451   7.953   0.748   1.761  0.0412 -0.6616  0.0479
  752MOL0     C 1452   7.950   0.598   1.759 -0.1990 -0.2284  0.3480
  752MOL0     H 1453   7.630   0.550   1.995 -1.0994  0.4846 -0.7880
  752MOL0     H 1454   7.468   0.443   2.146 -2.1655 -0.0928  0.5010
  752MOL0     H 1455   7.156   0.593   2.128 -2.3344 -1.8317 -1.5482
  752MOL0     H 1456   7.205   0.428   2.156 -3.9106  0.9793 -1.6603
  752MOL0     H 1457   7.029   0.572   2.337  1.1485 -0.0026  0.1603
  752MOL0     H 1458   7.072   0.395   2.344  2.0581 -0.6566 -0.2388
  752MOL0     H 1459   6.962   0.340   2.130  0.6683 -0.8298  1.1098
  752MOL0     H 1460   6.960   0.505   2.088  0.5682 -1.3533 -1.6985
  752MOL0     H 1461   6.789   0.526   2.297  0.6613 -1.4169  2.3284
  752MOL0     H 1462   6.732   0.445   2.160  2.0236  0.1415 -2.0995
  752MOL0     H 1463   6.792   0.218   2.282  0.6558 -1.2772  1.3200
  752MOL0     H 1464   6.865   0.303   2.411 -0.0273  0.2248 -1.1699
  752MOL0     H 1465   6.664   0.433   2.451 -3.1941  1.8683 -2.1672
  752MOL0     H 1466   6.581   0.364   2.316  0.6385  0.9027 -0.4914
  752MOL0     H 1467   6.617   0.135   2.435  2.3145  0.4217 -1.3983
  752MOL0     H 1468   6.474   0.228   2.468  0.0114  1.4312  4.2084
  752MOL0     H 1469   6.740   0.209   2.621  0.0571 -0.7493 -2.7329
  752MOL0     H 1470   6.629   0.340   2.654 -0.9809 -0.9020  1.2374
  752MOL0     H 1471   6.627  -0.030   2.609  2.7668  5.2213 -1.3674
  752MOL0     H 1472   6.520  -0.230   2.695  1.3525  3.2475 -0.5276
  752MOL0     H 1473   6.501  -0.224   2.872  1.3066  2.1726 -0.0555
  752MOL0     H 1474   6.263  -0.247   2.872 -0.4125  0.3204 -0.6376
  752MOL0     H 1475   6.246  -0.151   2.720  0.4031  1.2754  2.2214
  752MOL0     H 1476   6.167  -0.381   2.727 -0.3433  3.0520  0.0969
  752MOL0     H 1477   6.337  -0.442   2.735  0.1387 -1.5319 -1.7296
  752MOL0     H 1478   6.235  -0.462   2.507 -0.9007 -0.4582  0.2581
  752MOL0     H 1479   6.385  -0.389   2.528 -0.2411 -1.4671 -1.0990
  752MOL0     H 1480   6.445  -0.361   2.328  1.3986  0.6482 -3.3417
  752MOL0     H 1481   6.545  -0.266   2.150  0.3973  0.2342 -0.2653
  752MOL0     H 1482   6.777  -0.214   1.869  1.2147 -1.1666  0.4583
  752MOL0     H 1483   6.966  -0.133   1.702  2.2093  0.6614  0.4964
  752MOL0     H 1484   6.990   0.278   1.609  1.5325  1.5191  0.3556
  752MOL0     H 1485   7.157   0.205   1.667 -0.6391 -0.9319 -0.1618
  752MOL0     H 1486   7.215   0.118   1.465  0.4605 -0.2244 -0.1622
  752MOL0     H 1487   7.063   0.132   1.394  1.9382 -2.3997 -0.5462
  752MOL0     H 1488   7.078   0.382   1.395  0.4946  0.5925 -2.5210
  752MOL0     H 1489   7.238   0.390   1.462 -0.9670  1.7737 -1.1201
  752MOL0     H 1490   7.178   0.228   1.234 -0.4128 -0.9363  2.9802
  752MOL0     H 1491   7.341   0.254   1.290 -1.0082 -0.4318 -0.6096
  752MOL0     H 1492   7.324   0.497   1.237  1.4375 -0.7730 -2.1155
  752MOL0     H 1493   7.157   0.472   1.191  0.0032 -0.2746 -2.1251
  752MOL0     H 1494   7.403   0.314   1.086 -1.9622 -1.3451  1.0929
  752MOL0     H 1495   7.244   0.331   1.001  0.3414 -2.7611  2.1609
  752MOL0     H 1496   7.449   0.555   1.033 -2.7358  3.6510  3.3699
  752MOL0     H 1497   7.275   0.575   0.989 -0.5070 -1.9466  2.6755
  752MOL0     H 1498   7.320   0.414   0.796 -0.1600 -1.4317 -0.1477
  752MOL0     H 1499   7.407   0.569   0.785 -1.4962 -0.0116  1.4607
  752MOL0     H 1500   6.869   0.272   1.808 -2.0939  0.1667 -2.0064
  752MOL0     H 1501   6.734   0.194   1.994 -1.1351  0.9427 -0.2378
  752MOL0     H 1502   6.356   0.104   2.221  0.9995 -0.4602 -1.1122
  752MOL0     H 1503   6.217  -0.003   2.410  1.0714  1.2922  0.6009
  752MOL0     H 1504   7.373   0.829   2.309  0.2394  1.7696 -1.3465
  752MOL0     H 1505   7.561   0.926   2.179  2.9083 -1.0684 -0.4643
  752MOL0     H 1506   7.813   1.024   1.922  1.0404  3.0035 -1.5396
  752MOL0     H 1507   7.940   1.143   1.768  2.7795  0.3072 -1.3853
  752MOL0     H 1508   8.161   1.221   1.495  1.4528 -1.6314  2.8726
  752MOL0     H 1509   8.029   1.231   1.608 -0.4642 -1.3025  1.1062
  752MOL0     H 1510   7.953   1.231   1.366  2.1076  1.0739  1.2608
  752MOL0     H 1511   7.876   1.100   1.466 -1.1669 -0.1655 -2.8941
  752MOL0     H 1512   8.011   0.936   1.365  1.7458  0.6244  2.5976
  752MOL0     H 1513   8.134   1.046   1.312  0.2286  1.9911  1.6872
  752MOL0     H 1514   7.952   0.947   1.148  1.8182  0.3219  0.2329
  752MOL0     H 1515   7.853   1.090   1.198 -0.8497 -0.7674 -0.8575
  752MOL0     H 1516   8.141   1.165   0.905 -0.7863  0.6334 -0.1032
  752MOL0     H 1517   8.082   0.773   1.594  1.0378 -2.0150  2.8742
  752MOL0     H 1518   7.987   0.573   1.660  0.2983 -2.4188  1.0295
  752MOL0     H 1519   7.997   0.556   1.848  0.2730  1.3503  0.8797
  752MOL0     H 1520   7.845   0.565   1.759 -0.5319  0.5742  2.6669
  753MOL0     O 1521   1.550   8.796   1.842  0.1752  0.5902 -0.6000
  753MOL0     C 1522   1.641   8.844   1.901 -0.7158 -1.1272  0.5198
  753MOL0     O 1523   1.768   8.809   1.874  1.2193 -0.5613  0.4119
  753MOL0     C 1524   1.792   8.706   1.786  0.2186 -0.3255  0.0321
  753MOL0     C 1525   1.760   8.576   1.835  0.1335 -0.8364 -0.0384
  753MOL0     C 1526   1.789   8.461   1.757 -1.1176 -0.1857  0.1247
  753MOL0     C 1527   1.873   8.474   1.644  0.3193  0.5535  0.4440
  753MOL0     O 1528   1.921   8.354   1.603  0.3153 -0.2433  0.0934
  753MOL0     C 1529   1.951   8.351   1.465  0.0355 -0.1977  0.6942
  753MOL0     C 1530   1.982   8.208   1.434  1.1059  0.0452 -0.4851
  753MOL0     C 1531   2.033   8.194   1.290 -0.3360 -0.5283 -0.0680
  753MOL0     C 1532   2.040   8.038   1.257 -0.2380 -0.3519 -0.1941
  753MOL0     C 1533   2.157   8.011   1.159  0.5755 -1.1029  0.1759
  753MOL0     C 1534   2.164   7.861   1.118  0.3559 -0.5822 -0.5342
  753MOL0     C 1535   2.243   7.838   0.988  0.5266 -0.4764  0.1695
  753MOL0     C 1536   2.191   7.894   0.855 -0.3779 -0.3501  0.0995
  753MOL0     N 1537   2.073   7.826   0.806 -0.6457 -0.1524  0.1629
  753MOL0     C 1538   2.071   7.705   0.749 -0.7472  0.4203  0.0755
  753MOL0     C 1539   1.940   7.668   0.725  0.1301  0.0338 -0.6903
  753MOL0     C 1540   1.884   7.548   0.647  0.3022  0.2370  0.3878
  753MOL0     C 1541   1.748   7.572   0.582  0.7147 -0.1505 -0.2395
  753MOL0     C 1542   1.761   7.695   0.485  0.1509 -0.2210 -0.3929
  753MOL0     C 1543   1.628   7.757   0.434  0.1136  0.1146 -0.2553
  753MOL0     O 1544   1.657   7.867   0.354  0.3819  0.1677 -0.1612
  753MOL0     C 1545   1.562   7.901   0.258  0.8503  1.3011 -1.1352
  753MOL0     C 1546   1.609   7.941   0.138 -0.0957  0.5337 -0.3844
  753MOL0     C 1547   1.516   7.982   0.049  0.0095  0.0927  0.6957
  753MOL0     C 1548   1.383   7.994   0.075  0.0862 -0.4609 -1.0588
  753MOL0     C 1549   1.283   8.046  -0.020 -0.8630 -0.1556 -0.1583
  753MOL0     O 1550   1.308   8.010  -0.145 -0.4307  0.3131  0.2974
  753MOL0     C 1551   1.228   8.048  -0.243 -0.8147 -0.4842  0.8947
  753MOL0     C 1552   1.100   7.990  -0.266 -0.3874  0.7795  0.6563
  753MOL0     C 1553   1.010   8.043  -0.370 -0.8140  0.5899 -0.7116
  753MOL0     C 1554   1.058   8.147  -0.450  0.1016  0.5470  0.1957
  753MOL0     O 1555   0.967   8.180  -0.549 -1.0743  0.3803 -0.1240
  753MOL0     C 1556   1.018   8.179  -0.679 -0.0631 -0.4310  0.0290
  753MOL0     C 1557   0.887   8.150  -0.764  0.8942 -0.4865  0.7066
  753MOL0     C 1558   0.802   8.031  -0.729 -0.0128  0.0869 -0.1414
  753MOL0     C 1559   0.683   8.000  -0.832 -0.5398 -0.1591 -1.0768
  753MOL0     C 1560   0.618   7.874  -0.775  0.5731 -0.4399 -0.5754
  753MOL0     C 1561   0.514   7.818  -0.878 -0.8015  0.1384  0.3171
  753MOL0     C 1562   0.463   7.676  -0.825  0.2861  0.1859  0.0770
  753MOL0     C 1563   0.323   7.637  -0.895  0.5019  0.2570  0.3752
  753MOL0    Cl 1564   0.198   7.722  -0.810  0.0954  0.3137 -0.0043
  753MOL0     C 1565   1.179   8.210  -0.425 -0.0050  0.1722  0.1761
  753MOL0     C 1566   1.264   8.158  -0.324  0.1286  0.5152 -0.2489
  753MOL0     O 1567   1.197   8.121   0.023 -0.3109  0.3452  0.2016
  753MOL0     C 1568   1.343   7.976   0.211 -1.0480  0.0414 -0.1586
  753MOL0     C 1569   1.429   7.919   0.302 -0.2334  0.2127  0.6244
  753MOL0     N 1570   1.865   7.769   0.774 -0.5727 -0.3165 -0.4042
  753MOL0     N 1571   1.946   7.856   0.827  0.0006  0.1974 -0.5507
  753MOL0     C 1572   1.912   8.604   1.601 -0.0905  0.0761  0.8745
  753MOL0     C 1573   1.868   8.719   1.669  0.6137 -0.3678  0.5180
  753MOL0     C 1574   1.623   8.954   2.001  0.0108 -0.0985 -0.2787
  753MOL0     C 1575   1.720   9.056   2.009  0.5171 -0.4959 -0.2219
  753MOL0     C 1576   1.705   9.166   2.099 -0.7178 -0.6419  0.7879
  753MOL0     C 1577   1.588   9.189   2.169  0.4967  0.3602  0.2414
  753MOL0     O 1578   1.548   9.289   2.247  0.5409  0.1222 -0.4757
  753MOL0     C 1579   1.646   9.392   2.283 -0.2027 -1.0268  1.5632
  753MOL0     C 1580   1.743   9.327   2.383 -0.2121  0.0459  0.7050
  753MOL0     C 1581   1.659   9.287   2.507 -0.4616  0.3321 -0.7374
  753MOL0     C 1582   1.663   9.418   2.595 -0.0845 -0.7793  0.1946
  753MOL0     C 1583   1.557   9.413   2.693  0.1969  1.0892  0.6669
  753MOL0     C 1584   1.467   9.413   2.772 -0.3446  0.4884  0.2387
  753MOL0     C 1585   1.500   9.080   2.178 -1.0058  0.6208 -0.3626
  753MOL0     C 1586   1.514   8.964   2.102 -0.3615  0.6981  0.0858
  753MOL0     C 1587   1.413   8.851   2.125 -0.1207 -0.3810 -0.3604
  753MOL0     H 1588   1.711   8.567   1.932  1.0445  3.4529  1.0635
  753MOL0     H 1589   1.773   8.356   1.782  3.5948 -1.6505 -1.8487
  753MOL0     H 1590   1.872   8.391   1.401  1.2412  0.9387 -0.1393
  753MOL0     H 1591   2.031   8.421   1.440  0.4846 -1.0161 -0.2323
  753MOL0     H 1592   1.890   8.153   1.458 -0.7142  2.6594 -1.0463
  753MOL0     H 1593   2.064   8.176   1.500  1.1101 -2.2834 -1.5237
  753MOL0     H 1594   2.135   8.230   1.302 -1.2337  1.9718  0.7422
  753MOL0     H 1595   1.989   8.247   1.206 -0.1844 -1.6357 -0.8720
  753MOL0     H 1596   2.062   7.981   1.348 -2.5407 -0.7405  0.1777
  753MOL0     H 1597   1.947   8.006   1.210 -1.1138 -0.6860  1.6809
  753MOL0     H 1598   2.135   8.080   1.077 -2.4156 -1.6607  0.4227
  753MOL0     H 1599   2.254   8.027   1.207  0.8601 -1.4601 -0.2677
  753MOL0     H 1600   2.201   7.795   1.197  0.2354  3.3471  3.1740
  753MOL0     H 1601   2.069   7.809   1.103 -1.2145  1.9427  0.1532
  753MOL0     H 1602   2.272   7.734   0.975  0.1369 -0.5102 -0.4560
  753MOL0     H 1603   2.337   7.891   1.007  1.9066 -3.0864  1.0157
  753MOL0     H 1604   2.173   8.002   0.861 -0.2554 -0.1410 -2.2673
  753MOL0     H 1605   2.273   7.882   0.784 -1.3001 -0.3167 -0.9861
  753MOL0     H 1606   2.164   7.663   0.710 -0.0209 -0.0220  2.1477
  753MOL0     H 1607   1.950   7.523   0.563  1.7747 -2.0639  2.1064
  753MOL0     H 1608   1.884   7.458   0.709  0.9682  0.0277  0.0917
  753MOL0     H 1609   1.720   7.483   0.525  0.8462 -1.9042  2.2607
  753MOL0     H 1610   1.668   7.587   0.656 -1.1586  3.5119 -2.6758
  753MOL0     H 1611   1.818   7.665   0.397  1.4451 -1.4970  0.8156
  753MOL0     H 1612   1.815   7.775   0.536 -2.2006 -0.4310  2.7871
  753MOL0     H 1613   1.559   7.786   0.514  2.0463  0.2779  1.4307
  753MOL0     H 1614   1.576   7.680   0.376 -0.7375  0.5531 -0.0948
  753MOL0     H 1615   1.713   7.929   0.110 -0.2221  1.6730 -1.4033
  753MOL0     H 1616   1.544   8.017  -0.050 -0.3544  0.1246  0.6028
  753MOL0     H 1617   1.075   7.895  -0.221  0.5887  0.2435  0.1043
  753MOL0     H 1618   0.913   7.995  -0.379  0.8683 -3.0691 -1.2082
  753MOL0     H 1619   1.067   8.271  -0.714  0.8189 -0.8565  0.1071
  753MOL0     H 1620   1.087   8.096  -0.698 -1.6921 -1.3052 -2.4737
  753MOL0     H 1621   0.835   8.246  -0.776  1.5185 -0.1697  0.5034
  753MOL0     H 1622   0.914   8.138  -0.869 -0.8711  0.9697  0.0269
  753MOL0     H 1623   0.871   7.946  -0.735  0.8143  0.8306 -1.5776
  753MOL0     H 1624   0.761   8.034  -0.628 -2.3239 -1.0515 -0.9702
  753MOL0     H 1625   0.731   7.977  -0.927  4.1995 -0.8930  1.1656
  753MOL0     H 1626   0.615   8.085  -0.835 -1.7505 -1.0824 -0.4262
  753MOL0     H 1627   0.572   7.887  -0.676 -1.4468 -3.5668 -0.9771
  753MOL0     H 1628   0.704   7.807  -0.776  1.4070  0.3758  3.0166
  753MOL0     H 1629   0.431   7.885  -0.900  0.4901  1.4726 -0.6653
  753MOL0     H 1630   0.568   7.809  -0.972  0.5379 -2.2755  1.2285
  753MOL0     H 1631   0.451   7.671  -0.717 -0.8011 -2.7777 -0.0706
  753MOL0     H 1632   0.535   7.600  -0.857 -0.8486 -1.4816  1.2927
  753MOL0     H 1633   0.317   7.667  -1.000 -0.2464 -3.2393 -0.7151
  753MOL0     H 1634   0.298   7.531  -0.890  0.1969  0.0933 -2.7192
  753MOL0     H 1635   1.225   8.291  -0.480 -0.1150  0.1531  0.0537
  753MOL0     H 1636   1.359   8.208  -0.315 -0.1354  0.8359  1.0263
  753MOL0     H 1637   1.239   7.989   0.238 -0.5602 -0.4345  2.1502
  753MOL0     H 1638   1.396   7.909   0.405 -1.4656  1.7140  0.4189
  753MOL0     H 1639   1.968   8.616   1.508 -3.0995  4.1035 -0.7151
  753MOL0     H 1640   1.892   8.821   1.641  0.8199 -0.0392  1.8356
  753MOL0     H 1641   1.806   9.059   1.942 -0.0413  0.9839 -0.9310
  753MOL0     H 1642   1.789   9.235   2.103  0.2525 -1.7191 -0.2073
  753MOL0     H 1643   1.592   9.476   2.327 -0.5172 -0.3086 -0.0865
  753MOL0     H 1644   1.704   9.420   2.194 -1.7280 -1.1684  0.4855
  753MOL0     H 1645   1.826   9.390   2.415 -1.3295  0.9352  1.9665
  753MOL0     H 1646   1.797   9.245   2.336  1.7944  0.6829  1.8114
  753MOL0     H 1647   1.702   9.203   2.562 -2.4108  1.3328  2.6039
  753MOL0     H 1648   1.558   9.264   2.473  0.4527 -1.1212 -2.5758
  753MOL0     H 1649   1.760   9.429   2.645  0.4726  0.0973 -1.0434
  753MOL0     H 1650   1.650   9.503   2.528  4.1032  0.7595  1.0509
  753MOL0     H 1651   1.389   9.408   2.846 -0.6043 -1.6208 -0.1383
  753MOL0     H 1652   1.411   9.086   2.238 -0.6498 -0.6355  0.3286
  753MOL0     H 1653   1.423   8.760   2.066 -3.6146 -0.0608 -1.6476
  753MOL0     H 1654   1.413   8.820   2.230 -1.4675  2.3746  0.5650
  753MOL0     H 1655   1.311   8.883   2.102  0.1045  0.4108 -0.2997
  754MOL0     O 1656   5.080  10.821  11.311  0.2750 -0.3026 -0.3426
  754MOL0     C 1657   5.107  10.747  11.216  0.5071 -1.3856 -0.4432
  754MOL0     O 1658   5.184  10.631  11.225  0.1481 -0.7778  0.3115
  754MOL0     C 1659   5.207  10.579  11.347  1.5473 -0.9257  0.4875
  754MOL0     C 1660   5.121  10.487  11.408  0.7099  0.1919 -0.6398
  754MOL0     C 1661   5.156  10.430  11.540  0.0244 -0.2455  0.6239
  754MOL0     C 1662   5.271  10.470  11.605 -0.6030  0.5085 -0.1877
  754MOL0     O 1663   5.306  10.405  11.720 -0.2669 -0.1543  0.1284
  754MOL0     C 1664   5.385  10.479  11.816  0.5854  0.5865 -1.4346
  754MOL0     C 1665   5.297  10.488  11.946 -0.2184  0.2079 -0.3132
  754MOL0     C 1666   5.267  10.347  12.003 -0.6574 -0.2320  1.0455
  754MOL0     C 1667   5.268  10.356  12.157 -0.9971  0.0189  0.0973
  754MOL0     C 1668   5.288  10.229  12.236  0.5554 -0.4394  0.3612
  754MOL0     C 1669   5.171  10.140  12.224  0.1101  0.4313  0.0593
  754MOL0     C 1670   5.170  10.023  12.325 -1.3618  0.2642  0.5739
  754MOL0     C 1671   5.306   9.942  12.310  0.4985  0.1809  0.4553
  754MOL0     N 1672   5.334   9.872  12.433 -0.2148  0.3402 -0.3597
  754MOL0     C 1673   5.247   9.775  12.481 -0.1447 -0.5948  0.0972
  754MOL0     C 1674   5.272   9.777  12.615  0.1507  0.2660 -0.0481
  754MOL0     C 1675   5.212   9.685  12.723  0.1768  0.8434  0.4502
  754MOL0     C 1676   5.051   9.685  12.717  0.4555  0.0867 -0.6518
  754MOL0     C 1677   4.968   9.612  12.829  0.7846 -0.2977 -0.1333
  754MOL0     C 1678   5.031   9.613  12.970 -0.7700 -0.0085 -1.4556
  754MOL0     O 1679   5.019   9.749  13.026  0.3946 -0.3405 -0.2480
  754MOL0     C 1680   4.907   9.797  13.099 -1.3621  0.5932 -1.1011
  754MOL0     C 1681   4.919   9.920  13.163 -0.5171  0.2499 -0.3221
  754MOL0     C 1682   4.817   9.968  13.250 -0.3531  0.5942  0.6619
  754MOL0     C 1683   4.692   9.888  13.255 -1.0459 -0.0893 -0.5780
  754MOL0     C 1684   4.581   9.943  13.333  0.1878 -0.2381 -0.4858
  754MOL0     O 1685   4.614  10.049  13.417 -0.6785  0.0015 -0.4341
  754MOL0     C 1686   4.514  10.114  13.479 -0.1919 -0.8514  0.6458
  754MOL0     C 1687   4.467  10.230  13.425 -0.4560  0.1278  0.5811
  754MOL0     C 1688   4.358  10.297  13.485  0.2173 -0.0291 -0.1760
  754MOL0     C 1689   4.295  10.251  13.599  0.3399 -0.8111 -0.5368
  754MOL0     O 1690   4.194  10.321  13.656 -0.3084  0.3663  1.2157
  754MOL0     C 1691   4.096  10.367  13.564  0.9627 -0.3372 -0.1919
  754MOL0     C 1692   3.965  10.384  13.644  0.6946 -1.1035  0.2605
  754MOL0     C 1693   3.979  10.487  13.754 -0.2172 -1.2626 -0.7528
  754MOL0     C 1694   4.034  10.456  13.897 -0.1508  0.3329 -0.4656
  754MOL0     C 1695   3.989  10.551  14.004  0.7864  0.0762  0.1415
  754MOL0     C 1696   4.097  10.660  14.025  0.1554  0.0763  0.3174
  754MOL0     C 1697   4.095  10.720  14.164  0.2901  0.6508  0.4217
  754MOL0     C 1698   3.988  10.810  14.206  0.5393  0.0977  0.6520
  754MOL0    Cl 1699   3.833  10.729  14.207  0.0485 -0.0829  0.0391
  754MOL0     C 1700   4.353  10.139  13.660  0.2900  1.5989  0.4337
  754MOL0     C 1701   4.456  10.069  13.592 -0.5610 -0.7303  0.3174
  754MOL0     O 1702   4.468   9.901  13.328  0.6177  0.0955 -0.5304
  754MOL0     C 1703   4.691   9.768  13.187  0.5700 -0.3456 -0.5652
  754MOL0     C 1704   4.799   9.713  13.109  0.0020  0.1011  0.2731
  754MOL0     N 1705   5.364   9.874  12.646  0.0415 -0.2853 -0.9967
  754MOL0     N 1706   5.397   9.925  12.538 -0.1540  0.0934  0.7405
  754MOL0     C 1707   5.352  10.567  11.547  0.3845 -0.1844  0.7254
  754MOL0     C 1708   5.313  10.622  11.423 -0.2032 -0.3780  0.2221
  754MOL0     C 1709   5.072  10.797  11.087  0.5017 -0.9169  1.5495
  754MOL0     C 1710   5.127  10.725  10.970 -0.1722  0.0236 -0.7011
  754MOL0     C 1711   5.121  10.774  10.833  0.1057 -0.0460  0.1565
  754MOL0     C 1712   5.050  10.888  10.806 -0.2066  0.5370 -0.2603
  754MOL0     O 1713   5.020  10.939  10.687 -0.4037  0.1287 -0.2965
  754MOL0     C 1714   5.110  10.901  10.587 -1.1248 -0.0983 -0.1543
  754MOL0     C 1715   5.103  10.999  10.466  0.7808 -0.1369 -1.4901
  754MOL0     C 1716   5.136  11.145  10.516 -0.3708  0.0499 -0.3138
  754MOL0     C 1717   5.060  11.260  10.440  0.7395  1.0583  0.1851
  754MOL0     C 1718   5.086  11.400  10.487 -0.3759  0.0476 -0.5524
  754MOL0     C 1719   5.107  11.516  10.523  0.8156 -0.0192 -0.1100
  754MOL0     C 1720   5.006  10.963  10.921  0.0386 -0.3010  1.0591
  754MOL0     C 1721   5.005  10.915  11.058  0.6873  0.1427  0.1675
  754MOL0     C 1722   4.918  10.996  11.156  0.6271  0.4403 -0.3128
  754MOL0     H 1723   5.026  10.456  11.366  0.8673 -2.2919  0.6026
  754MOL0     H 1724   5.085  10.368  11.593 -0.3620 -1.0519 -0.7888
  754MOL0     H 1725   5.478  10.430  11.845 -0.2460  1.0200  2.6675
  754MOL0     H 1726   5.405  10.585  11.799  0.0648  0.8295 -0.6095
  754MOL0     H 1727   5.200  10.534  11.924 -1.1860  0.5513  3.8186
  754MOL0     H 1728   5.344  10.552  12.021 -3.5707  1.3384  1.0006
  754MOL0     H 1729   5.334  10.266  11.972 -1.7264 -2.2879  3.6836
  754MOL0     H 1730   5.170  10.315  11.964 -0.2652 -4.1936  2.8180
  754MOL0     H 1731   5.339  10.431  12.193  0.5735 -0.7813 -1.2337
  754MOL0     H 1732   5.165  10.387  12.180 -1.3795  0.1881 -1.7242
  754MOL0     H 1733   5.384  10.187  12.206  0.8954  2.3279 -3.0739
  754MOL0     H 1734   5.290  10.261  12.340 -7.3700 -1.1566  1.4011
  754MOL0     H 1735   5.081  10.199  12.241 -0.3623 -0.6273  1.4719
  754MOL0     H 1736   5.171  10.096  12.124 -1.1423 -3.1884  1.4982
  754MOL0     H 1737   5.088   9.953  12.310 -0.5722 -0.6859  0.5611
  754MOL0     H 1738   5.162  10.059  12.428 -0.8910 -0.2624  0.8067
  754MOL0     H 1739   5.291   9.873  12.226 -1.5865  0.1075  0.8377
  754MOL0     H 1740   5.399   9.994  12.286 -0.7026  1.6984 -1.1905
  754MOL0     H 1741   5.186   9.705  12.426 -0.6687 -2.5884  2.9743
  754MOL0     H 1742   5.252   9.585  12.704 -1.4656  0.1064  0.6621
  754MOL0     H 1743   5.241   9.712  12.825 -1.4816 -0.5489  1.3529
  754MOL0     H 1744   5.013   9.788  12.713  2.1619  0.7555 -0.5790
  754MOL0     H 1745   5.015   9.653  12.619 -0.5690  2.3321 -1.0687
  754MOL0     H 1746   4.945   9.508  12.804 -0.3342 -0.8518  2.8670
  754MOL0     H 1747   4.868   9.656  12.834  1.1220  0.5733 -0.8501
  754MOL0     H 1748   5.138   9.590  12.972 -0.6126  0.7194 -0.7569
  754MOL0     H 1749   4.990   9.537  13.036  0.7045  1.3696  1.2313
  754MOL0     H 1750   5.008   9.982  13.155 -0.6654  0.4666 -0.2904
  754MOL0     H 1751   4.815  10.060  13.308  0.3536 -1.6327  4.5680
  754MOL0     H 1752   4.507  10.276  13.335 -3.1806  1.5532 -0.0151
  754MOL0     H 1753   4.329  10.384  13.428 -0.4442 -0.0723  0.0899
  754MOL0     H 1754   4.140  10.456  13.517 -1.4237  0.3430 -1.3128
  754MOL0     H 1755   4.089  10.295  13.482  0.7145  2.5902 -2.9731
  754MOL0     H 1756   3.889  10.419  13.574  2.0776 -0.3506 -0.9168
  754MOL0     H 1757   3.919  10.290  13.678 -2.8324  0.0358 -0.8973
  754MOL0     H 1758   4.028  10.583  13.733 -1.9730  0.2433  1.4194
  754MOL0     H 1759   3.874  10.517  13.766 -0.2265 -0.6683 -2.0846
  754MOL0     H 1760   4.139  10.427  13.891  0.8089  3.4062  0.1197
  754MOL0     H 1761   3.979  10.365  13.922  0.3784 -0.0107 -0.5373
  754MOL0     H 1762   3.984  10.485  14.092 -2.8864  0.0941  0.1348
  754MOL0     H 1763   3.890  10.598  13.996  1.4086  1.0466 -2.7600
  754MOL0     H 1764   4.198  10.627  14.001 -0.5756 -1.8573 -0.3520
  754MOL0     H 1765   4.073  10.739  13.954 -5.6426 -1.9958 -0.6366
  754MOL0     H 1766   4.193  10.770  14.172  0.7853 -0.3389  0.7508
  754MOL0     H 1767   4.092  10.634  14.231  1.0027  0.6165  0.4186
  754MOL0     H 1768   4.024  10.840  14.305  2.1781  0.9279 -0.1642
  754MOL0     H 1769   3.984  10.904  14.150 -0.3341 -0.5764 -0.4772
  754MOL0     H 1770   4.311  10.107  13.755  0.7781 -0.7428 -0.0706
  754MOL0     H 1771   4.500   9.974  13.622  2.0726  0.0022 -0.9594
  754MOL0     H 1772   4.595   9.725  13.212  0.2277  3.1650  6.4733
  754MOL0     H 1773   4.790   9.621  13.053 -0.3976  0.1597  0.2400
  754MOL0     H 1774   5.442  10.604  11.594  0.2762  0.3433  0.5322
  754MOL0     H 1775   5.373  10.697  11.374 -2.3764  0.0314 -1.9853
  754MOL0     H 1776   5.167  10.628  10.996 -0.4078 -0.0548 -0.6293
  754MOL0     H 1777   5.161  10.716  10.751 -0.8138 -2.3004  1.2350
  754MOL0     H 1778   5.084  10.797  10.563  1.2296 -1.1238  1.3966
  754MOL0     H 1779   5.211  10.894  10.628 -0.9468  0.9859 -0.3799
  754MOL0     H 1780   4.998  10.999  10.436  0.8737  1.7486 -1.9648
  754MOL0     H 1781   5.172  10.975  10.384  1.7312 -1.6094 -0.3092
  754MOL0     H 1782   5.244  11.155  10.504  0.1659 -0.5164  2.9624
  754MOL0     H 1783   5.108  11.163  10.620  0.2904  1.3748 -0.3462
  754MOL0     H 1784   5.082  11.255  10.334  1.5398 -1.0574  0.4019
  754MOL0     H 1785   4.952  11.252  10.459  0.0652  2.2864 -2.6445
  754MOL0     H 1786   5.107  11.623  10.525  1.1933 -0.0066 -0.8171
  754MOL0     H 1787   4.947  11.052  10.902  1.0721  0.4510  1.2220
  754MOL0     H 1788   4.978  11.023  11.243  0.9915 -1.0700 -0.0656
  754MOL0     H 1789   4.898  11.088  11.101  3.5376  2.4568  1.7319
  754MOL0     H 1790   4.829  10.941  11.186  1.9658 -0.5616  2.0805
  755MOL0     O 1791   8.798   7.233   9.665  0.7465  0.7309  0.6525
  755MOL0     C 1792   8.830   7.170   9.760  0.0154  0.3193 -0.6841
  755MOL0     O 1793   8.909   7.056   9.760  0.2753  0.5190  0.5537
  755MOL0     C 1794   8.972   7.011   9.649  0.2398  0.5199  0.4694
  755MOL0     C 1795   8.899   6.958   9.531  0.2449 -0.3372  0.1758
  755MOL0     C 1796   8.972   6.916   9.425  0.8238  1.1713 -0.2743
  755MOL0     C 1797   9.113   6.927   9.422 -0.7889 -0.2054 -1.0217
  755MOL0     O 1798   9.180   6.898   9.314 -1.0522  0.4331 -0.2473
  755MOL0     C 1799   9.246   7.005   9.240 -0.4048 -0.1672  0.9541
  755MOL0     C 1800   9.399   6.978   9.240 -0.0180  0.2306 -0.4061
  755MOL0     C 1801   9.493   7.071   9.162 -0.4104 -0.4544 -0.3690
  755MOL0     C 1802   9.639   7.023   9.179 -0.6113 -0.4787 -0.5764
  755MOL0     C 1803   9.733   7.134   9.134 -0.1273  0.2725 -0.2351
  755MOL0     C 1804   9.881   7.088   9.145  0.4030 -0.0763 -0.7818
  755MOL0     C 1805   9.935   7.086   9.292  0.5551 -0.5942  0.4190
  755MOL0     C 1806  10.089   7.081   9.281  0.3464 -1.2096 -0.5137
  755MOL0     N 1807  10.165   7.127   9.412 -1.0886 -0.3718  0.2206
  755MOL0     C 1808  10.216   7.252   9.431  0.3665 -0.3972  0.4865
  755MOL0     C 1809  10.270   7.255   9.559 -0.1201  1.4244 -0.1357
  755MOL0     C 1810  10.332   7.373   9.623 -1.0120 -1.1479 -0.0042
  755MOL0     C 1811  10.490   7.356   9.667  0.8583  0.7192  0.0751
  755MOL0     C 1812  10.584   7.430   9.585  0.2538 -0.3557 -0.4928
  755MOL0     C 1813  10.583   7.399   9.441 -0.2154 -0.5664 -0.0525
  755MOL0     O 1814  10.689   7.455   9.362  0.0062  0.7820  0.0826
  755MOL0     C 1815  10.807   7.383   9.357 -0.5096 -0.1312  0.2996
  755MOL0     C 1816  10.821   7.258   9.311 -0.7946  0.4500 -0.0997
  755MOL0     C 1817  10.935   7.189   9.327  0.1763 -0.0661 -0.0414
  755MOL0     C 1818  11.045   7.252   9.390  0.0469  0.2556  0.9672
  755MOL0     C 1819  11.175   7.174   9.393  0.3819  0.2309 -0.2795
  755MOL0     O 1820  11.291   7.242   9.390  0.4093 -0.0681 -0.4405
  755MOL0     C 1821  11.407   7.168   9.411  1.0580  0.1972  0.6428
  755MOL0     C 1822  11.439   7.109   9.533  0.0974  0.2574 -0.2225
  755MOL0     C 1823  11.567   7.048   9.544 -0.0473  1.0503 -0.2567
  755MOL0     C 1824  11.656   7.037   9.431 -0.0041 -0.6428  0.2351
  755MOL0     O 1825  11.785   6.987   9.445  0.4668  0.1359  0.0831
  755MOL0     C 1826  11.845   6.934   9.323 -0.6918  0.9848  0.8480
  755MOL0     C 1827  11.998   6.905   9.344  0.6238  0.8029 -0.2159
  755MOL0     C 1828  12.004   6.791   9.447  0.5788  0.7985 -0.2419
  755MOL0     C 1829  12.153   6.763   9.484  0.3781 -0.6794 -0.0127
  755MOL0     C 1830  12.245   6.883   9.534  0.5058  0.1230  0.4824
  755MOL0     C 1831  12.202   6.924   9.680  0.9911 -0.2008 -0.3467
  755MOL0     C 1832  12.298   7.010   9.743 -0.3863 -0.3134  0.0054
  755MOL0     C 1833  12.237   7.057   9.868  0.2148  0.2971 -0.0375
  755MOL0    Cl 1834  12.341   7.184   9.944 -0.3998 -0.1873 -0.4338
  755MOL0     C 1835  11.620   7.101   9.312  1.2905 -0.6804 -0.1760
  755MOL0     C 1836  11.498   7.175   9.306 -0.6768  1.5588 -0.3560
  755MOL0     O 1837  11.164   7.056   9.389  0.4534  0.0921 -0.2095
  755MOL0     C 1838  11.043   7.391   9.438  0.9062  0.4981  0.1845
  755MOL0     C 1839  10.915   7.451   9.417  1.2424  0.1238 -0.0936
  755MOL0     N 1840  10.248   7.120   9.606 -0.7495 -0.7052 -0.2658
  755MOL0     N 1841  10.178   7.048   9.517  0.1165  0.3429 -0.6405
  755MOL0     C 1842   9.187   6.975   9.538  0.2888  0.7220 -0.6851
  755MOL0     C 1843   9.113   7.009   9.648  0.1078 -0.2168  0.0219
  755MOL0     C 1844   8.767   7.203   9.887 -1.1107 -0.4154  0.1144
  755MOL0     C 1845   8.632   7.228   9.888 -0.3035 -0.5304 -0.2259
  755MOL0     C 1846   8.559   7.261  10.002 -0.8644  0.6214 -0.7838
  755MOL0     C 1847   8.626   7.272  10.124  0.4846 -0.8965  0.5851
  755MOL0     O 1848   8.556   7.276  10.241  0.1774 -0.4546 -0.6902
  755MOL0     C 1849   8.499   7.149  10.277  0.3695 -1.4123 -0.8352
  755MOL0     C 1850   8.525   7.143  10.434 -0.0529 -0.5107 -0.0660
  755MOL0     C 1851   8.466   7.015  10.493  0.5037 -0.0797  0.0120
  755MOL0     C 1852   8.550   6.881  10.483  0.6575  0.1985 -0.7850
  755MOL0     C 1853   8.696   6.888  10.509 -0.2079 -0.9668 -0.7531
  755MOL0     C 1854   8.814   6.884  10.532 -0.2952  0.1815  0.0786
  755MOL0     C 1855   8.765   7.263  10.127  0.2665 -0.6171  0.2236
  755MOL0     C 1856   8.835   7.235  10.008 -0.2463  0.7939  0.4954
  755MOL0     C 1857   8.982   7.254  10.025  0.3491 -0.7698  0.8513
  755MOL0     H 1858   8.792   6.961   9.516  0.5051  3.0640 -2.3899
  755MOL0     H 1859   8.918   6.896   9.333 -1.4211 -0.7807  1.3412
  755MOL0     H 1860   9.219   7.024   9.135  2.8462 -1.2143 -0.2131
  755MOL0     H 1861   9.238   7.103   9.288  6.1263  0.7435  1.0873
  755MOL0     H 1862   9.411   6.878   9.199 -0.1406  0.6891 -1.6208
  755MOL0     H 1863   9.444   6.975   9.340  0.1104 -2.2977 -0.4963
  755MOL0     H 1864   9.478   7.174   9.195  2.7483  0.6762 -2.0393
  755MOL0     H 1865   9.462   7.065   9.057 -3.3928 -0.4656  0.4107
  755MOL0     H 1866   9.661   7.000   9.284  1.3688 -0.1599 -0.8787
  755MOL0     H 1867   9.645   6.931   9.120  0.0228 -0.0923 -1.1292
  755MOL0     H 1868   9.700   7.152   9.031  2.2303 -2.0700 -1.5453
  755MOL0     H 1869   9.729   7.222   9.199 -0.5373 -0.1014  0.2535
  755MOL0     H 1870   9.891   6.991   9.095  1.8515 -1.2981  1.6817
  755MOL0     H 1871   9.949   7.152   9.088  0.9229 -0.6126 -0.7761
  755MOL0     H 1872   9.904   6.994   9.343  0.5398 -1.0604 -0.4230
  755MOL0     H 1873   9.913   7.176   9.350  0.9606  0.2431 -0.6869
  755MOL0     H 1874  10.134   6.982   9.264  1.0712 -0.7935 -1.0722
  755MOL0     H 1875  10.117   7.149   9.200 -0.6507 -3.3155 -2.7690
  755MOL0     H 1876  10.200   7.338   9.367  3.2541 -1.2456 -1.5580
  755MOL0     H 1877  10.324   7.462   9.559  1.2818 -0.8238  0.0734
  755MOL0     H 1878  10.280   7.395   9.718 -1.7550 -0.4903 -0.5403
  755MOL0     H 1879  10.505   7.400   9.766  2.3048 -0.3505  0.3548
  755MOL0     H 1880  10.525   7.253   9.677  0.9320  0.2157 -3.7886
  755MOL0     H 1881  10.683   7.415   9.630  0.1668 -0.9260 -0.4847
  755MOL0     H 1882  10.562   7.538   9.584  1.0161 -0.1601 -2.9512
  755MOL0     H 1883  10.481   7.418   9.406 -0.4595  1.6610  1.7091
  755MOL0     H 1884  10.600   7.291   9.427  0.9587 -0.2508 -1.3550
  755MOL0     H 1885  10.743   7.211   9.252 -5.0048  3.0726  2.7320
  755MOL0     H 1886  10.947   7.086   9.295  0.8372 -0.7338  2.1512
  755MOL0     H 1887  11.375   7.127   9.618 -0.1899 -2.8120  0.2906
  755MOL0     H 1888  11.602   7.002   9.636  2.3133  0.2227 -1.4707
  755MOL0     H 1889  11.793   6.843   9.290 -2.1246  2.0088  0.1668
  755MOL0     H 1890  11.843   7.013   9.247 -1.2358 -0.8091 -1.1283
  755MOL0     H 1891  12.060   6.866   9.262  1.4379  1.2285  0.1856
  755MOL0     H 1892  12.052   6.987   9.393  1.5099 -0.2436  0.6094
  755MOL0     H 1893  11.942   6.828   9.529 -3.0656 -2.7925 -1.1089
  755MOL0     H 1894  11.957   6.707   9.396 -0.4880  2.1453 -1.5951
  755MOL0     H 1895  12.198   6.697   9.410 -0.9935 -0.4992 -1.0592
  755MOL0     H 1896  12.153   6.694   9.568  2.4835 -0.7223  0.0092
  755MOL0     H 1897  12.240   6.958   9.454 -2.1423  3.2169  3.2236
  755MOL0     H 1898  12.346   6.844   9.545 -0.0991 -1.5303  0.4504
  755MOL0     H 1899  12.101   6.964   9.669  0.7189 -1.1100 -1.3003
  755MOL0     H 1900  12.197   6.830   9.735 -1.0788 -1.0656 -1.8990
  755MOL0     H 1901  12.321   7.090   9.672  0.0628  1.2568  1.7988
  755MOL0     H 1902  12.387   6.950   9.764 -1.0750 -1.7076 -0.9517
  755MOL0     H 1903  12.142   7.098   9.831 -1.7406 -2.5673  1.4226
  755MOL0     H 1904  12.209   6.985   9.946 -6.5675 -0.3221 -2.3300
  755MOL0     H 1905  11.683   7.117   9.225  1.1435 -0.2197 -0.2010
  755MOL0     H 1906  11.456   7.226   9.220 -0.5242  2.0274 -0.1540
  755MOL0     H 1907  11.123   7.428   9.502 -0.2674  1.5506  1.1126
  755MOL0     H 1908  10.893   7.547   9.464 -0.1419 -1.2546  2.2798
  755MOL0     H 1909   9.293   6.998   9.538  0.2209  1.4345  2.1054
  755MOL0     H 1910   9.172   7.053   9.727 -2.7527 -1.4104  3.0796
  755MOL0     H 1911   8.582   7.208   9.794  0.7839 -0.9882 -0.7139
  755MOL0     H 1912   8.452   7.272   9.989 -1.2663 -2.7335 -1.2978
  755MOL0     H 1913   8.562   7.069  10.237  0.9926 -0.6103 -1.4922
  755MOL0     H 1914   8.394   7.137  10.249 -0.2249  1.6978 -0.2685
  755MOL0     H 1915   8.473   7.231  10.473  1.8404  1.0834 -0.9193
  755MOL0     H 1916   8.631   7.141  10.463  0.2206 -1.1249 -1.0554
  755MOL0     H 1917   8.377   6.986  10.436  1.0547 -0.8099 -0.4959
  755MOL0     H 1918   8.428   7.024  10.595 -1.1697  1.4918 -0.6786
  755MOL0     H 1919   8.499   6.811  10.551  1.7047 -0.2307 -0.4190
  755MOL0     H 1920   8.541   6.852  10.378  2.6895  3.4232 -1.9679
  755MOL0     H 1921   8.914   6.878  10.570  0.9968  1.5760 -2.8162
  755MOL0     H 1922   8.808   7.263  10.226 -0.2462  1.6546  0.4968
  755MOL0     H 1923   9.014   7.348   9.977 -3.5339 -0.3161 -1.2352
  755MOL0     H 1924   9.007   7.242  10.131 -1.4183  0.0847  1.4130
  755MOL0     H 1925   9.034   7.187   9.957  2.2178  2.1162 -0.7634
  756MOL0     O 1926   1.200   7.438   0.898  0.6803 -0.6334 -0.6207
  756MOL0     C 1927   1.306   7.469   0.946 -0.9745  0.2069 -0.8633
  756MOL0     O 1928   1.428   7.485   0.877  0.8634 -1.0939 -0.6811
  756MOL0     C 1929   1.426   7.464   0.742  1.2676 -0.8189 -0.4453
  756MOL0     C 1930   1.408   7.573   0.653  0.4457  0.6753  0.0723
  756MOL0     C 1931   1.395   7.540   0.515  0.4660 -0.6380 -0.7227
  756MOL0     C 1932   1.406   7.416   0.463 -0.1290  0.1492  0.0466
  756MOL0     O 1933   1.382   7.381   0.332 -0.8815  0.1181 -0.0261
  756MOL0     C 1934   1.507   7.382   0.257 -0.2816 -0.3518  0.3064
  756MOL0     C 1935   1.467   7.422   0.114  0.2455 -0.8485 -0.5157
  756MOL0     C 1936   1.453   7.567   0.092  0.2603  0.3943  0.2940
  756MOL0     C 1937   1.405   7.616  -0.044  0.0666 -0.4170  0.2723
  756MOL0     C 1938   1.262   7.562  -0.099  0.4784  0.3326 -0.2294
  756MOL0     C 1939   1.151   7.640  -0.019  0.0519 -0.6872 -0.1730
  756MOL0     C 1940   1.002   7.632  -0.074 -0.4200  0.1398  0.5206
  756MOL0     C 1941   0.931   7.501  -0.027 -0.6726 -0.1090 -0.5764
  756MOL0     N 1942   0.964   7.391  -0.126  0.1412  0.2179 -0.2536
  756MOL0     C 1943   1.063   7.300  -0.107  0.1683  0.7136 -1.4518
  756MOL0     C 1944   1.043   7.215  -0.207 -0.3144  0.5155  1.2173
  756MOL0     C 1945   1.112   7.088  -0.235 -0.0897  0.7395 -0.8540
  756MOL0     C 1946   1.249   7.085  -0.184 -0.1077 -0.0456 -0.1141
  756MOL0     C 1947   1.268   7.040  -0.038  0.1935 -0.9447 -0.3956
  756MOL0     C 1948   1.408   7.054   0.005 -0.3296 -0.5365  1.0036
  756MOL0     O 1949   1.495   6.965  -0.074  0.3125  0.5402  0.6676
  756MOL0     C 1950   1.611   6.913  -0.011 -0.0147 -0.1715  0.6178
  756MOL0     C 1951   1.670   6.938   0.120  1.1535 -0.2687  0.1180
  756MOL0     C 1952   1.786   6.867   0.160  1.0176 -0.5387  0.2328
  756MOL0     C 1953   1.842   6.772   0.074  0.0902  0.9264 -0.6720
  756MOL0     C 1954   1.944   6.670   0.118 -0.1601  0.8616  0.9266
  756MOL0     O 1955   1.982   6.673   0.251  0.2890  1.0016 -0.0396
  756MOL0     C 1956   2.044   6.565   0.306  0.1244  0.1807  0.1824
  756MOL0     C 1957   2.167   6.578   0.380  0.8384  0.8848 -0.6981
  756MOL0     C 1958   2.220   6.461   0.437  0.1541 -0.1806  0.9557
  756MOL0     C 1959   2.150   6.346   0.432  0.1304  0.9490 -0.5985
  756MOL0     O 1960   2.209   6.239   0.502 -0.4233 -0.2325  0.2788
  756MOL0     C 1961   2.213   6.266   0.642 -0.1310  0.4208  0.6687
  756MOL0     C 1962   2.261   6.143   0.714  0.6470  0.7290 -0.1965
  756MOL0     C 1963   2.150   6.031   0.705 -1.0310 -0.2618 -0.5141
  756MOL0     C 1964   2.186   5.908   0.804  0.1559  0.0608 -1.2388
  756MOL0     C 1965   2.082   5.785   0.802 -0.5443 -0.6752 -0.5711
  756MOL0     C 1966   2.090   5.696   0.923  1.0190  0.0083 -0.5012
  756MOL0     C 1967   2.229   5.638   0.952 -0.0647  0.6443 -0.2722
  756MOL0     C 1968   2.227   5.517   1.050 -0.5197 -0.1549 -1.2471
  756MOL0    Cl 1969   2.369   5.433   1.000 -0.0086 -0.1594 -0.3206
  756MOL0     C 1970   2.030   6.324   0.355 -0.1618  0.2045 -0.2523
  756MOL0     C 1971   1.984   6.437   0.291 -0.5998 -0.2160  0.0368
  756MOL0     O 1972   1.981   6.588   0.033 -0.7213  0.6928 -0.3349
  756MOL0     C 1973   1.794   6.765  -0.059 -0.1238 -0.9783  0.6227
  756MOL0     C 1974   1.685   6.835  -0.097 -0.2209 -0.3338 -0.8676
  756MOL0     N 1975   0.922   7.242  -0.277  0.5984 -0.1781  0.3103
  756MOL0     N 1976   0.883   7.350  -0.221  1.0622 -0.1347  0.2279
  756MOL0     C 1977   1.437   7.313   0.552 -0.3399  0.0028 -0.0711
  756MOL0     C 1978   1.447   7.345   0.690 -0.7639  0.4341 -0.0763
  756MOL0     C 1979   1.310   7.493   1.100 -0.4009  0.2205  0.2968
  756MOL0     C 1980   1.362   7.613   1.151  0.6584 -0.7077 -1.2355
  756MOL0     C 1981   1.386   7.633   1.287  0.2881 -0.2506 -0.2455
  756MOL0     C 1982   1.362   7.517   1.377 -0.3072 -0.1637 -0.0574
  756MOL0     O 1983   1.401   7.527   1.505 -1.5872 -0.4707 -0.1937
  756MOL0     C 1984   1.334   7.620   1.584  0.1620  0.6049  0.1185
  756MOL0     C 1985   1.346   7.592   1.733 -1.1588 -0.7436 -0.2228
  756MOL0     C 1986   1.286   7.458   1.772  0.4142  0.0317  0.0752
  756MOL0     C 1987   1.328   7.416   1.913  0.5361 -0.2131  0.5239
  756MOL0     C 1988   1.282   7.278   1.948  1.1450 -1.0133 -0.2490
  756MOL0     C 1989   1.279   7.162   1.979  0.2699 -0.0840 -0.6806
  756MOL0     C 1990   1.317   7.400   1.321 -0.4018 -0.4700 -0.8664
  756MOL0     C 1991   1.283   7.385   1.189  0.7464 -0.4824 -1.0299
  756MOL0     C 1992   1.223   7.254   1.146  0.0946 -0.2854  0.3342
  756MOL0     H 1993   1.409   7.678   0.678  1.6446  1.2386 -2.1186
  756MOL0     H 1994   1.378   7.622   0.446  2.5291 -1.1866 -1.9523
  756MOL0     H 1995   1.587   7.448   0.294  0.4773 -1.4770  0.7159
  756MOL0     H 1996   1.546   7.281   0.245  0.6859  0.1502 -1.1841
  756MOL0     H 1997   1.372   7.376   0.085 -1.4771  1.6016  0.8262
  756MOL0     H 1998   1.542   7.380   0.046 -2.6326 -0.4439 -4.2602
  756MOL0     H 1999   1.547   7.611   0.125 -0.3028  1.5393  0.4260
  756MOL0     H 2000   1.378   7.611   0.159 -1.3367  1.3814 -1.9827
  756MOL0     H 2001   1.398   7.725  -0.049  1.3133 -0.1065 -7.4738
  756MOL0     H 2002   1.480   7.581  -0.115  1.3117  0.9959  0.8380
  756MOL0     H 2003   1.253   7.586  -0.205  3.7280  0.2487 -0.6248
  756MOL0     H 2004   1.253   7.454  -0.083  0.0194  0.2903 -0.7536
  756MOL0     H 2005   1.159   7.629   0.090  2.2999 -2.4562 -0.4510
  756MOL0     H 2006   1.171   7.747  -0.031 -0.8300 -0.3974  0.7302
  756MOL0     H 2007   0.999   7.648  -0.182  2.9180  1.1508  0.4882
  756MOL0     H 2008   0.946   7.712  -0.024 -0.6036  0.6965 -0.5311
  756MOL0     H 2009   0.979   7.478   0.068  1.3936  1.6672 -1.1039
  756MOL0     H 2010   0.825   7.515  -0.004 -0.3926 -0.4795  1.0469
  756MOL0     H 2011   1.135   7.303  -0.026 -2.2597 -0.2831  0.9357
  756MOL0     H 2012   1.064   7.002  -0.188 -1.1105  1.2877 -0.8706
  756MOL0     H 2013   1.108   7.070  -0.343  3.9417 -0.4045 -0.9781
  756MOL0     H 2014   1.308   7.007  -0.234 -1.1764 -0.6263 -0.5048
  756MOL0     H 2015   1.294   7.184  -0.199 -0.3257 -0.0765 -1.0171
  756MOL0     H 2016   1.239   6.935  -0.036 -0.8954 -0.6644 -0.5471
  756MOL0     H 2017   1.206   7.097   0.032  1.2087  1.6858 -1.4770
  756MOL0     H 2018   1.405   7.030   0.111 -0.2452  0.6732  1.2946
  756MOL0     H 2019   1.436   7.157  -0.020  0.4022 -0.2698  2.7733
  756MOL0     H 2020   1.615   7.016   0.172 -0.4914 -0.5469 -1.1099
  756MOL0     H 2021   1.821   6.872   0.263 -1.3967 -0.0334  1.0912
  756MOL0     H 2022   2.221   6.671   0.389  0.5798  1.2155 -2.3877
  756MOL0     H 2023   2.313   6.476   0.491  2.0742  0.1557 -2.1921
  756MOL0     H 2024   2.293   6.337   0.667  0.0165  0.4651  0.0795
  756MOL0     H 2025   2.118   6.297   0.686 -1.3786  1.8973 -2.7635
  756MOL0     H 2026   2.357   6.111   0.672  0.5822  0.4461 -0.1341
  756MOL0     H 2027   2.277   6.163   0.821  1.9880  1.1617 -0.4596
  756MOL0     H 2028   2.051   6.073   0.726 -0.3754  0.6560  0.8655
  756MOL0     H 2029   2.145   5.993   0.603  1.2818 -0.7898 -0.4872
  756MOL0     H 2030   2.181   5.951   0.904  0.5992 -0.7131 -0.8775
  756MOL0     H 2031   2.289   5.875   0.790  0.5424  0.3425  0.6957
  756MOL0     H 2032   2.109   5.727   0.714 -0.2028  1.6149 -2.0517
  756MOL0     H 2033   1.980   5.824   0.797  0.0530  1.8277  2.7619
  756MOL0     H 2034   2.067   5.761   1.007 -1.2249 -0.3767 -0.7699
  756MOL0     H 2035   2.010   5.623   0.907 -1.0475  2.3470 -1.4638
  756MOL0     H 2036   2.297   5.710   0.999 -2.4303  1.8249  1.5616
  756MOL0     H 2037   2.261   5.594   0.857 -1.1765 -2.8150  0.7834
  756MOL0     H 2038   2.232   5.557   1.151  2.6058  0.5446 -1.5763
  756MOL0     H 2039   2.143   5.448   1.036 -1.0150  0.0396  0.5543
  756MOL0     H 2040   1.978   6.231   0.335 -0.9216  0.9086 -1.6792
  756MOL0     H 2041   1.898   6.432   0.225  0.0173 -0.2872 -0.7757
  756MOL0     H 2042   1.826   6.683  -0.122  1.7513 -2.2100  3.0213
  756MOL0     H 2043   1.645   6.824  -0.197  0.2105  0.4445 -1.1347
  756MOL0     H 2044   1.448   7.210   0.521  4.0722 -0.3468  1.9277
  756MOL0     H 2045   1.468   7.256   0.748 -0.3418  1.3061  1.1337
  756MOL0     H 2046   1.354   7.693   1.078  2.3479 -0.8536 -1.6023
  756MOL0     H 2047   1.419   7.727   1.328 -1.9411  1.2762 -1.7028
  756MOL0     H 2048   1.229   7.621   1.553  0.1508 -2.0388 -0.2024
  756MOL0     H 2049   1.377   7.718   1.563  0.7690  0.1654 -0.7882
  756MOL0     H 2050   1.295   7.671   1.789 -2.0169 -1.5438  0.1656
  756MOL0     H 2051   1.454   7.591   1.751 -1.5702 -1.8207  2.7294
  756MOL0     H 2052   1.325   7.385   1.701 -2.3690 -0.9164 -0.6006
  756MOL0     H 2053   1.177   7.451   1.772  0.3433  0.8724 -1.1917
  756MOL0     H 2054   1.437   7.421   1.920  0.5668 -0.8112  0.5691
  756MOL0     H 2055   1.275   7.484   1.981 -0.5583 -0.1062 -0.3965
  756MOL0     H 2056   1.298   7.062   2.013  2.2011  1.0282  1.8071
  756MOL0     H 2057   1.309   7.320   1.394  0.6868  0.6990  0.6010
  756MOL0     H 2058   1.276   7.199   1.068 -0.5205 -2.5208  1.4086
  756MOL0     H 2059   1.203   7.187   1.230 -0.3487 -0.2748  0.2398
  756MOL0     H 2060   1.122   7.283   1.116  0.1779 -0.8420 -0.5168
  757MOL0     O 2061   5.628  10.059   6.833 -0.6311 -0.2658  0.0339
  757MOL0     C 2062   5.663   9.939   6.807  1.0933 -0.2753 -0.2571
  757MOL0     O 2063   5.727   9.906   6.700 -0.0170  0.6337  0.2477
  757MOL0     C 2064   5.749   9.984   6.591  0.0122  0.3270 -0.1606
  757MOL0     C 2065   5.725   9.933   6.459 -0.0847  0.3862 -0.9364
  757MOL0     C 2066   5.758  10.016   6.347 -0.0644 -0.5845 -0.0621
  757MOL0     C 2067   5.809  10.152   6.364 -0.0192 -0.0670 -0.2483
  757MOL0     O 2068   5.858  10.224   6.258 -0.2693 -0.5945  0.4734
  757MOL0     C 2069   5.926  10.352   6.265 -0.5650  0.3991  0.8052
  757MOL0     C 2070   5.966  10.388   6.122  0.3141 -0.3856 -0.2716
  757MOL0     C 2071   6.014  10.538   6.112 -0.6026 -0.2213  0.2104
  757MOL0     C 2072   6.049  10.579   5.968 -0.2433 -0.4508  0.2938
  757MOL0     C 2073   6.117  10.714   5.973  0.5641 -1.1448  0.0156
  757MOL0     C 2074   6.103  10.781   5.830  0.2970  0.1508 -0.0345
  757MOL0     C 2075   6.156  10.930   5.842 -0.3611  0.3562  0.3749
  757MOL0     C 2076   6.294  10.964   5.773 -1.0907 -0.5041 -0.8279
  757MOL0     N 2077   6.416  10.896   5.827  0.0378 -0.3695  1.1666
  757MOL0     C 2078   6.443  10.875   5.958  0.1378 -0.5361 -0.3125
  757MOL0     C 2079   6.557  10.806   5.960 -0.5619 -0.3094 -0.2143
  757MOL0     C 2080   6.642  10.772   6.080  1.0480  1.1660 -0.2304
  757MOL0     C 2081   6.634  10.628   6.097  0.1603  0.9080 -0.5894
  757MOL0     C 2082   6.724  10.578   6.216 -0.1842 -0.1113  0.5108
  757MOL0     C 2083   6.754  10.426   6.211 -0.4515  1.1122  0.8547
  757MOL0     O 2084   6.859  10.403   6.118  0.0336 -0.8445 -0.9551
  757MOL0     C 2085   6.834  10.288   6.043 -0.7300 -0.5542 -0.2022
  757MOL0     C 2086   6.868  10.284   5.912 -0.5334 -0.8251  1.4060
  757MOL0     C 2087   6.861  10.178   5.831  0.1872  0.7917  0.1441
  757MOL0     C 2088   6.825  10.056   5.885 -0.2236  0.2810  0.2853
  757MOL0     C 2089   6.798   9.943   5.793 -0.2245  0.2939  1.1027
  757MOL0     O 2090   6.819   9.967   5.658  0.4398 -0.1941 -1.0838
  757MOL0     C 2091   6.815   9.857   5.581 -1.0552 -0.4444 -0.7098
  757MOL0     C 2092   6.727   9.872   5.471  0.3171 -0.1175 -0.6120
  757MOL0     C 2093   6.696   9.753   5.401  0.0121  1.6576  0.2714
  757MOL0     C 2094   6.772   9.635   5.412 -0.1833  0.5825  0.0292
  757MOL0     O 2095   6.760   9.532   5.311 -0.2554  0.4772  0.1115
  757MOL0     C 2096   6.788   9.402   5.351 -0.3026  0.9919 -0.4437
  757MOL0     C 2097   6.765   9.294   5.239 -0.6630  0.2994  0.6407
  757MOL0     C 2098   6.804   9.333   5.094 -0.2892 -1.8340  0.3102
  757MOL0     C 2099   6.753   9.234   4.991  0.0221  0.1674  0.5915
  757MOL0     C 2100   6.772   9.290   4.851 -0.1466 -0.3610 -0.2696
  757MOL0     C 2101   6.772   9.180   4.738 -0.2375 -0.1640 -0.6448
  757MOL0     C 2102   6.898   9.096   4.722 -0.4918 -0.3194  0.6930
  757MOL0     C 2103   7.004   9.177   4.646  0.3067 -0.5449 -0.5069
  757MOL0    Cl 2104   7.182   9.167   4.695 -0.0105  0.8794  0.3957
  757MOL0     C 2105   6.874   9.638   5.506 -0.5568  0.2076  0.3064
  757MOL0     C 2106   6.896   9.738   5.597 -0.2905 -0.6988  0.5505
  757MOL0     O 2107   6.771   9.834   5.838  0.2706  0.4070  0.8002
  757MOL0     C 2108   6.800  10.048   6.019 -0.6026 -0.2053 -0.6281
  757MOL0     C 2109   6.813  10.158   6.104  0.0967 -0.8479  0.2609
  757MOL0     N 2110   6.589  10.776   5.831  0.3353 -0.3104 -0.2154
  757MOL0     N 2111   6.516  10.841   5.755 -0.0430 -0.3086 -0.0098
  757MOL0     C 2112   5.827  10.197   6.490 -0.3192 -0.8215 -0.2750
  757MOL0     C 2113   5.803  10.115   6.602  0.6795 -0.6028 -0.5567
  757MOL0     C 2114   5.598   9.831   6.883  0.4761  0.5137 -0.1532
  757MOL0     C 2115   5.568   9.709   6.818  1.1201  0.5470  0.9010
  757MOL0     C 2116   5.504   9.599   6.886 -0.2706  0.7552 -0.3773
  757MOL0     C 2117   5.462   9.613   7.015 -0.0408  0.3597  0.4152
  757MOL0     O 2118   5.404   9.514   7.089  0.4346 -0.5475 -0.0659
  757MOL0     C 2119   5.470   9.500   7.217 -0.4368  1.4434  0.5201
  757MOL0     C 2120   5.609   9.419   7.205 -0.2298 -1.0567 -0.3991
  757MOL0     C 2121   5.580   9.283   7.133  0.0677 -0.1985 -0.1109
  757MOL0     C 2122   5.537   9.162   7.213  0.0950 -1.0143 -1.3554
  757MOL0     C 2123   5.658   9.092   7.259 -0.5642 -0.2531  0.2333
  757MOL0     C 2124   5.753   9.020   7.283  0.0119  0.0020  0.4147
  757MOL0     C 2125   5.472   9.733   7.077  0.3766 -0.1623  0.1938
  757MOL0     C 2126   5.546   9.839   7.014  0.2167 -0.4998 -0.5412
  757MOL0     C 2127   5.568   9.967   7.096 -0.3653 -0.0951 -0.3867
  757MOL0     H 2128   5.693   9.831   6.445 -1.5268  0.5783  0.7514
  757MOL0     H 2129   5.750   9.969   6.250  0.4541  2.2521 -1.6039
  757MOL0     H 2130   5.869  10.430   6.316 -0.0306  1.1708  0.2513
  757MOL0     H 2131   6.020  10.346   6.322  3.2602  4.9095 -3.9708
  757MOL0     H 2132   5.879  10.380   6.056 -0.0627  0.9618  0.0123
  757MOL0     H 2133   6.039  10.311   6.099  0.4022 -0.3032 -0.2686
  757MOL0     H 2134   6.105  10.544   6.172 -2.4062  0.4296  3.1080
  757MOL0     H 2135   5.938  10.602   6.159 -0.4994 -0.6831  1.0291
  757MOL0     H 2136   6.121  10.504   5.933  1.1835  2.0099 -2.4854
  757MOL0     H 2137   5.962  10.583   5.902 -0.8308 -0.1729  1.0702
  757MOL0     H 2138   6.064  10.780   6.042  0.0083  0.0996 -1.5358
  757MOL0     H 2139   6.221  10.720   6.006 -0.3292 -1.7805  3.2870
  757MOL0     H 2140   6.148  10.715   5.755  1.3084 -1.7567  2.1363
  757MOL0     H 2141   5.996  10.791   5.811  0.4021  0.6417 -0.4091
  757MOL0     H 2142   6.160  10.967   5.945 -0.9300  0.1060  0.4900
  757MOL0     H 2143   6.079  10.985   5.787 -3.0591 -2.0980  1.4748
  757MOL0     H 2144   6.285  10.943   5.666 -1.3186 -1.2302 -0.6666
  757MOL0     H 2145   6.307  11.070   5.800 -0.5730 -1.6699  4.6617
  757MOL0     H 2146   6.386  10.919   6.038 -0.5942  1.1662 -1.7181
  757MOL0     H 2147   6.747  10.802   6.073  1.1614  0.9481  0.4658
  757MOL0     H 2148   6.588  10.812   6.167 -1.3250 -3.5163  0.8232
  757MOL0     H 2149   6.535  10.592   6.127  0.6668 -1.3476 -1.4232
  757MOL0     H 2150   6.657  10.574   6.005 -1.8201 -1.4937  0.2013
  757MOL0     H 2151   6.674  10.597   6.312 -2.0583 -0.5285 -0.3278
  757MOL0     H 2152   6.812  10.642   6.206 -0.3956 -0.1649 -2.3000
  757MOL0     H 2153   6.656  10.384   6.187 -2.2211  3.8449  2.6664
  757MOL0     H 2154   6.789  10.392   6.309 -0.3761 -1.9246 -0.1445
  757MOL0     H 2155   6.911  10.366   5.856  1.0864 -1.4097  1.7357
  757MOL0     H 2156   6.889  10.170   5.727  0.8156  0.9360  0.2943
  757MOL0     H 2157   6.673   9.964   5.449 -1.4365 -0.8867  0.2920
  757MOL0     H 2158   6.614   9.755   5.330  0.2134  4.3324  0.0223
  757MOL0     H 2159   6.897   9.393   5.361  0.1102  3.1227 -2.1723
  757MOL0     H 2160   6.728   9.383   5.440  2.0650 -1.7472  0.7582
  757MOL0     H 2161   6.819   9.201   5.259 -1.0194 -0.5860 -2.0983
  757MOL0     H 2162   6.662   9.257   5.240 -1.1970  1.6181 -1.0244
  757MOL0     H 2163   6.760   9.432   5.083  0.5071 -1.4955  0.1366
  757MOL0     H 2164   6.911   9.352   5.082 -0.8538  0.4637 -1.8177
  757MOL0     H 2165   6.649   9.218   5.021  0.4889  2.5660  4.0153
  757MOL0     H 2166   6.813   9.142   4.992  1.8263  1.2743 -0.8980
  757MOL0     H 2167   6.871   9.333   4.841 -0.6565  0.5266 -1.7831
  757MOL0     H 2168   6.709   9.371   4.812  2.8476  1.4742 -1.5931
  757MOL0     H 2169   6.685   9.118   4.764 -2.8496  2.9213 -1.3051
  757MOL0     H 2170   6.746   9.232   4.645  2.1586  1.9058 -0.2854
  757MOL0     H 2171   6.866   9.013   4.658 -1.3305  2.6656 -3.1203
  757MOL0     H 2172   6.937   9.066   4.819  5.3914  2.6048 -0.3178
  757MOL0     H 2173   6.997   9.153   4.540  1.4997 -4.0929  0.0944
  757MOL0     H 2174   6.977   9.282   4.661 -1.4999 -1.0995  0.3702
  757MOL0     H 2175   6.937   9.550   5.509 -1.3805 -0.3389  2.4372
  757MOL0     H 2176   6.970   9.733   5.677  0.8942  3.3166 -0.1004
  757MOL0     H 2177   6.779   9.953   6.067 -1.2437 -0.8125 -2.0742
  757MOL0     H 2178   6.792  10.160   6.211 -0.3279  1.4376  0.1975
  757MOL0     H 2179   5.852  10.298   6.518 -1.1701 -0.4651 -0.7648
  757MOL0     H 2180   5.836  10.140   6.702 -2.0963 -0.2355  0.3626
  757MOL0     H 2181   5.594   9.698   6.713  0.9810  1.5191  0.7505
  757MOL0     H 2182   5.479   9.509   6.829 -2.9161  1.1696 -0.0239
  757MOL0     H 2183   5.395   9.445   7.274  0.1866  0.0820  0.0922
  757MOL0     H 2184   5.477   9.591   7.276 -0.9848 -0.2322  3.3431
  757MOL0     H 2185   5.654   9.416   7.305 -0.4416  1.3490 -0.1631
  757MOL0     H 2186   5.676   9.479   7.144 -0.1304  0.3620  1.0166
  757MOL0     H 2187   5.677   9.260   7.087  0.6303  0.1539  0.8791
  757MOL0     H 2188   5.523   9.296   7.041 -1.9256 -4.2762  0.3070
  757MOL0     H 2189   5.481   9.200   7.299  0.9477  0.4044 -1.3877
  757MOL0     H 2190   5.477   9.096   7.149 -0.0728 -0.3808 -1.8706
  757MOL0     H 2191   5.840   8.959   7.296  0.1373 -0.5603 -2.4169
  757MOL0     H 2192   5.429   9.755   7.174  3.8231  2.0561  1.4176
  757MOL0     H 2193   5.546   9.961   7.203  1.8603  1.2718  0.2271
  757MOL0     H 2194   5.675   9.988   7.088 -0.6689  0.9017 -2.4082
  757MOL0     H 2195   5.500  10.045   7.061 -1.8355 -1.0829  0.1691
  758MOL0     O 2196   3.229   8.638   3.651  0.3955  0.9391 -0.1717
  758MOL0     C 2197   3.256   8.559   3.750  0.1444 -0.2164  0.1567
  758MOL0     O 2198   3.230   8.583   3.877  0.4417 -0.2844 -0.3491
  758MOL0     C 2199   3.145   8.683   3.909  0.9819 -0.3564 -1.0328
  758MOL0     C 2200   3.177   8.808   3.969  0.4394  0.3475  0.2903
  758MOL0     C 2201   3.091   8.912   3.989  0.2970  1.0212  0.0053
  758MOL0     C 2202   2.953   8.890   3.968 -1.0984  0.3877 -0.8219
  758MOL0     O 2203   2.884   9.000   4.007  0.2916 -0.0004  0.4093
  758MOL0     C 2204   2.735   8.993   3.990 -0.5161  0.6024 -0.6970
  758MOL0     C 2205   2.669   8.948   4.125  0.4551 -1.5027 -0.5383
  758MOL0     C 2206   2.517   8.910   4.098  0.4125 -0.2236 -0.7510
  758MOL0     C 2207   2.457   8.855   4.221 -0.7770 -0.5784 -1.1144
  758MOL0     C 2208   2.325   8.775   4.191 -0.1597  0.1036  0.4903
  758MOL0     C 2209   2.244   8.749   4.325 -0.1745 -1.2126 -0.2464
  758MOL0     C 2210   2.117   8.666   4.304 -0.6924  0.2342  0.2654
  758MOL0     C 2211   2.044   8.630   4.437 -0.0983  0.4707  0.2001
  758MOL0     N 2212   1.933   8.526   4.431 -0.5194  0.2497 -0.3456
  758MOL0     C 2213   1.798   8.548   4.439 -0.0711  0.2261 -0.5712
  758MOL0     C 2214   1.743   8.431   4.395 -0.4882 -0.7975  0.4747
  758MOL0     C 2215   1.602   8.414   4.387 -0.3991  0.3175  0.3917
  758MOL0     C 2216   1.549   8.432   4.244 -0.5171 -0.0175 -0.1490
  758MOL0     C 2217   1.562   8.581   4.197  0.6255  0.4515 -0.0500
  758MOL0     C 2218   1.695   8.621   4.121  0.3364  0.1834 -0.0020
  758MOL0     O 2219   1.667   8.710   4.019  0.6866  1.0257 -0.3046
  758MOL0     C 2220   1.748   8.740   3.911 -0.0955  1.0077  0.0683
  758MOL0     C 2221   1.873   8.675   3.898  0.3305  0.3720  0.0924
  758MOL0     C 2222   1.958   8.701   3.795  0.2605  0.4378 -0.8164
  758MOL0     C 2223   1.907   8.790   3.687 -1.1442  0.4111 -0.3175
  758MOL0     C 2224   1.988   8.821   3.570 -0.1621  1.1357  0.0844
  758MOL0     O 2225   2.123   8.783   3.573 -0.5996  0.6084  0.0655
  758MOL0     C 2226   2.204   8.846   3.490  0.0528 -0.3945 -0.4562
  758MOL0     C 2227   2.286   8.765   3.423  0.1906  0.5855 -0.7303
  758MOL0     C 2228   2.384   8.817   3.334 -0.2160 -0.5826 -0.0691
  758MOL0     C 2229   2.411   8.953   3.317 -0.6181  0.1562 -0.1084
  758MOL0     O 2230   2.512   9.002   3.230 -0.1852  0.4592 -0.5255
  758MOL0     C 2231   2.554   9.137   3.230 -0.6489 -0.5429 -0.1314
  758MOL0     C 2232   2.692   9.134   3.155  0.5184 -0.4263  0.3428
  758MOL0     C 2233   2.686   9.074   3.023  0.9685  0.0430 -0.2496
  758MOL0     C 2234   2.814   9.120   2.946 -0.0452  0.6559 -0.3592
  758MOL0     C 2235   2.813   9.039   2.820 -0.5499  0.3316 -0.7358
  758MOL0     C 2236   2.861   8.890   2.841 -0.0825  0.0565  0.6836
  758MOL0     C 2237   3.008   8.863   2.874  1.0963 -0.4850  0.3053
  758MOL0     C 2238   3.038   8.715   2.877 -0.2632  0.7403 -0.2243
  758MOL0    Cl 2239   3.039   8.615   2.721 -0.7642 -0.1956  0.1289
  758MOL0     C 2240   2.314   9.043   3.364 -0.8946 -0.6478 -0.3130
  758MOL0     C 2241   2.215   8.990   3.460  0.8573  0.1781  1.3619
  758MOL0     O 2242   1.934   8.889   3.484  0.3304  0.3421  0.5909
  758MOL0     C 2243   1.774   8.832   3.694 -0.4813 -0.0566 -0.4965
  758MOL0     C 2244   1.696   8.815   3.805  0.6307  0.6388 -0.5877
  758MOL0     N 2245   1.835   8.339   4.367 -0.8577 -0.6166  0.2089
  758MOL0     N 2246   1.949   8.400   4.381 -0.1886  0.1358  0.5241
  758MOL0     C 2247   2.908   8.768   3.927 -0.2337 -0.4981 -0.4728
  758MOL0     C 2248   3.002   8.666   3.906  0.8737  0.0241  0.4060
  758MOL0     C 2249   3.320   8.430   3.720 -0.2715  1.4207 -0.2266
  758MOL0     C 2250   3.420   8.370   3.810 -0.2696  0.0383  0.0776
  758MOL0     C 2251   3.487   8.255   3.781  0.4088  1.0078 -0.1914
  758MOL0     C 2252   3.464   8.182   3.664  0.1399  0.2357 -0.2248
  758MOL0     O 2253   3.537   8.069   3.643  0.4868  0.8492  0.3109
  758MOL0     C 2254   3.497   7.974   3.544 -0.1795  0.6572 -0.0085
  758MOL0     C 2255   3.618   7.885   3.489  0.4478  0.2999  0.0832
  758MOL0     C 2256   3.580   7.746   3.466  0.1663 -0.8020 -0.1594
  758MOL0     C 2257   3.697   7.656   3.426 -0.8157  0.6651  1.1056
  758MOL0     C 2258   3.664   7.580   3.303 -0.7848 -0.2735  0.1806
  758MOL0     C 2259   3.648   7.537   3.191 -0.0972 -0.0286  0.3893
  758MOL0     C 2260   3.357   8.231   3.578  0.0362  0.1434  0.5755
  758MOL0     C 2261   3.282   8.353   3.603  0.0024  0.2131 -0.1133
  758MOL0     C 2262   3.191   8.398   3.496  0.7891  0.0814  0.1162
  758MOL0     H 2263   3.282   8.826   3.991  0.3442 -2.3670  3.9164
  758MOL0     H 2264   3.133   9.003   4.032  1.1873 -0.0036  1.3898
  758MOL0     H 2265   2.693   9.092   3.968  0.6540  1.5711  1.1716
  758MOL0     H 2266   2.706   8.929   3.906 -2.3569  0.5047 -0.0334
  758MOL0     H 2267   2.670   9.029   4.199  0.1012  0.3061 -2.4194
  758MOL0     H 2268   2.727   8.870   4.174  1.1164 -3.0570 -3.5796
  758MOL0     H 2269   2.503   8.842   4.013  0.5160 -0.4568 -0.5830
  758MOL0     H 2270   2.458   9.001   4.084 -0.3539 -0.5429  0.2069
  758MOL0     H 2271   2.526   8.786   4.270 -2.3889 -1.7658 -0.4042
  758MOL0     H 2272   2.438   8.940   4.286 -0.8280 -1.0229 -0.5379
  758MOL0     H 2273   2.257   8.829   4.123 -0.4077 -2.1988 -1.2348
  758MOL0     H 2274   2.342   8.686   4.129  0.0387  1.1767 -1.0431
  758MOL0     H 2275   2.305   8.719   4.411  1.5462  3.8870  0.6645
  758MOL0     H 2276   2.224   8.853   4.355  1.7209 -0.7055 -0.5953
  758MOL0     H 2277   2.135   8.571   4.253 -0.3469 -0.6701  1.9895
  758MOL0     H 2278   2.046   8.716   4.238 -2.1220  0.0723  1.6128
  758MOL0     H 2279   2.117   8.613   4.517 -0.6100 -0.1800  0.5432
  758MOL0     H 2280   1.997   8.721   4.477 -3.2919 -1.6499  1.6673
  758MOL0     H 2281   1.743   8.629   4.486 -3.2590 -3.3721  2.5590
  758MOL0     H 2282   1.577   8.316   4.427 -2.4006  0.6481  0.0587
  758MOL0     H 2283   1.550   8.486   4.451  1.8625  1.4506  1.0892
  758MOL0     H 2284   1.600   8.360   4.180 -0.4030 -0.9830  0.9853
  758MOL0     H 2285   1.442   8.407   4.240 -0.1203 -1.8276 -0.2323
  758MOL0     H 2286   1.552   8.641   4.288  2.6321  2.8013 -1.2312
  758MOL0     H 2287   1.476   8.598   4.132  1.5989  1.9602 -1.0055
  758MOL0     H 2288   1.754   8.533   4.093 -2.1264 -1.4174 -0.4956
  758MOL0     H 2289   1.752   8.672   4.199 -0.4503  0.3901  0.4471
  758MOL0     H 2290   1.918   8.627   3.984  0.9916 -1.2194 -1.0840
  758MOL0     H 2291   2.059   8.661   3.797  1.2255  2.7630  0.3273
  758MOL0     H 2292   2.286   8.656   3.430  0.1477  0.3918 -2.9726
  758MOL0     H 2293   2.458   8.751   3.291  0.8163  1.0545 -0.9157
  758MOL0     H 2294   2.482   9.201   3.179 -0.0294  1.0216  0.8731
  758MOL0     H 2295   2.576   9.178   3.329  3.7997 -1.2786 -0.5899
  758MOL0     H 2296   2.732   9.235   3.144  0.8683 -0.6670 -0.6299
  758MOL0     H 2297   2.770   9.089   3.218  2.0008  1.2199 -0.2371
  758MOL0     H 2298   2.688   8.966   3.042  0.6528  0.1923  0.6518
  758MOL0     H 2299   2.592   9.101   2.975 -1.5263 -0.3441  3.9592
  758MOL0     H 2300   2.905   9.109   3.006  0.5301  0.8195 -1.1833
  758MOL0     H 2301   2.813   9.226   2.918 -1.7706  0.7646 -0.0390
  758MOL0     H 2302   2.887   9.090   2.757  0.8355  1.6029  1.7822
  758MOL0     H 2303   2.717   9.044   2.768 -0.2342 -0.7900 -1.4718
  758MOL0     H 2304   2.793   8.837   2.908 -1.6504 -0.8115 -1.4480
  758MOL0     H 2305   2.843   8.849   2.741  0.3148 -0.4385  0.8081
  758MOL0     H 2306   3.026   8.911   2.971 -0.9370  2.3599 -0.5979
  758MOL0     H 2307   3.075   8.919   2.807  1.1251 -0.2271  0.5448
  758MOL0     H 2308   3.140   8.711   2.914  0.3570 -0.0145 -1.9003
  758MOL0     H 2309   2.985   8.659   2.955 -0.3887  1.1833  0.0128
  758MOL0     H 2310   2.312   9.149   3.339  0.7119 -0.4862  0.1686
  758MOL0     H 2311   2.128   9.043   3.497 -0.2785 -3.4530  4.6144
  758MOL0     H 2312   1.739   8.890   3.610  1.1814  0.4680 -0.8785
  758MOL0     H 2313   1.594   8.852   3.815 -1.2703 -2.7149 -4.7025
  758MOL0     H 2314   2.804   8.742   3.906  0.2710 -1.1425 -2.4134
  758MOL0     H 2315   2.949   8.579   3.869 -0.4989  0.7422  0.6156
  758MOL0     H 2316   3.443   8.415   3.906  0.9048 -3.5552  1.6548
  758MOL0     H 2317   3.552   8.224   3.862 -0.1043 -0.5430 -0.3440
  758MOL0     H 2318   3.452   8.022   3.457 -1.0210 -0.0206  0.0388
  758MOL0     H 2319   3.418   7.906   3.576  1.8498 -1.6290  0.4732
  758MOL0     H 2320   3.699   7.901   3.561 -1.1715  0.5495  1.9644
  758MOL0     H 2321   3.650   7.932   3.396 -0.7902 -0.1833 -0.6122
  758MOL0     H 2322   3.502   7.731   3.392  0.1545 -1.5706 -0.0001
  758MOL0     H 2323   3.547   7.705   3.562 -2.1473  0.4256 -0.3676
  758MOL0     H 2324   3.792   7.708   3.415 -0.1582 -0.4381  1.4203
  758MOL0     H 2325   3.723   7.574   3.493  0.1808  0.9751  1.1061
  758MOL0     H 2326   3.641   7.476   3.104 -2.6192  3.2340 -1.9262
  758MOL0     H 2327   3.330   8.183   3.485  1.6008  2.1094 -0.9846
  758MOL0     H 2328   3.149   8.321   3.430  0.2722  2.5963 -2.7480
  758MOL0     H 2329   3.111   8.466   3.528  1.2558 -0.1878  1.9483
  758MOL0     H 2330   3.243   8.473   3.436  2.2286 -0.0358  1.1804
  759MOL0     O 2331   2.244   9.617   2.041  0.3073  0.1298  0.1272
  759MOL0     C 2332   2.231   9.568   2.157  0.0959  0.0083  0.5043
  759MOL0     O 2333   2.223   9.644   2.276  0.1818 -0.3747  0.1381
  759MOL0     C 2334   2.188   9.775   2.265 -0.0478 -0.2408 -0.6143
  759MOL0     C 2335   2.058   9.813   2.228 -0.5360  0.0630  0.3768
  759MOL0     C 2336   2.021   9.945   2.233  0.0594 -1.3101  1.0273
  759MOL0     C 2337   2.124  10.042   2.246  0.2233  0.2003 -0.9715
  759MOL0     O 2338   2.112  10.176   2.230  1.0988  0.2121 -0.3449
  759MOL0     C 2339   1.976  10.228   2.226  0.3093  0.5053  0.3061
  759MOL0     C 2340   1.961  10.381   2.242 -0.5918 -0.6061 -0.3941
  759MOL0     C 2341   1.839  10.427   2.160  1.1755  0.3123  0.5485
  759MOL0     C 2342   1.765  10.543   2.229 -0.9114 -0.3323  0.4217
  759MOL0     C 2343   1.827  10.690   2.218  0.4653  0.6525  0.0042
  759MOL0     C 2344   1.950  10.710   2.305  0.0254  0.4691  0.0590
  759MOL0     C 2345   1.974  10.854   2.349  0.3569  0.0415 -0.6134
  759MOL0     C 2346   2.025  10.939   2.237  0.1141 -0.4752 -0.8139
  759MOL0     N 2347   2.043  11.077   2.294  0.8668  0.7254 -0.4661
  759MOL0     C 2348   2.111  11.129   2.401 -0.2833  0.6857  0.5788
  759MOL0     C 2349   2.128  11.262   2.379  0.8118  0.1738  0.0598
  759MOL0     C 2350   2.212  11.343   2.472 -0.1679  0.1853 -0.4541
  759MOL0     C 2351   2.361  11.297   2.456 -0.3343 -0.4121 -0.9787
  759MOL0     C 2352   2.451  11.380   2.553 -0.3657 -0.5931  0.8792
  759MOL0     C 2353   2.481  11.538   2.528  1.2916  0.3277  0.3536
  759MOL0     O 2354   2.518  11.550   2.390 -0.0596 -0.3435 -0.2589
  759MOL0     C 2355   2.452  11.647   2.315 -0.8393 -0.1020 -0.5342
  759MOL0     C 2356   2.415  11.772   2.379  0.6921  0.1812  0.7417
  759MOL0     C 2357   2.349  11.868   2.293  0.3768 -0.1459 -0.2990
  759MOL0     C 2358   2.308  11.831   2.171  0.1659  0.4058  1.5592
  759MOL0     C 2359   2.231  11.931   2.086  0.5297 -0.2711 -0.4668
  759MOL0     O 2360   2.177  12.044   2.140 -0.0649 -0.6523  0.4945
  759MOL0     C 2361   2.118  12.148   2.064  0.1285 -0.1169  0.4698
  759MOL0     C 2362   2.147  12.184   1.928 -1.0929 -0.0508  0.3993
  759MOL0     C 2363   2.068  12.284   1.860 -0.2806 -0.4654 -0.8324
  759MOL0     C 2364   1.966  12.353   1.924 -0.1420  1.2209  0.5230
  759MOL0     O 2365   1.895  12.441   1.847  0.2261 -0.2768 -0.0600
  759MOL0     C 2366   1.834  12.553   1.918 -0.1582  0.0419  0.4996
  759MOL0     C 2367   1.801  12.670   1.821 -1.2153  0.1854  0.7300
  759MOL0     C 2368   1.938  12.725   1.767 -0.0585 -0.2644  0.6417
  759MOL0     C 2369   1.933  12.860   1.688  0.3096  0.0256  0.7330
  759MOL0     C 2370   2.068  12.908   1.647 -0.5506 -0.1191 -0.0238
  759MOL0     C 2371   2.057  13.039   1.569  0.8727 -0.4647 -0.2172
  759MOL0     C 2372   2.186  13.084   1.523 -0.3508 -0.6406  1.1344
  759MOL0     C 2373   2.223  13.019   1.392  0.8030 -0.9359  0.9849
  759MOL0    Cl 2374   2.109  13.052   1.257 -0.4084  0.1312 -0.3623
  759MOL0     C 2375   1.945  12.329   2.065  0.0672 -0.9667  0.1572
  759MOL0     C 2376   2.020  12.226   2.127  0.0774  0.1866 -1.5316
  759MOL0     O 2377   2.223  11.903   1.967  0.0219 -0.1999  0.5664
  759MOL0     C 2378   2.344  11.710   2.112  1.1172  0.2340  0.5669
  759MOL0     C 2379   2.417  11.622   2.183  0.0782 -0.0400 -0.5877
  759MOL0     N 2380   2.052  11.293   2.263  0.2096 -0.3426 -0.9136
  759MOL0     N 2381   1.996  11.189   2.229 -0.3356 -0.0438 -0.1163
  759MOL0     C 2382   2.252  10.006   2.278  0.1453 -0.7044 -0.9325
  759MOL0     C 2383   2.270   9.877   2.306 -0.1503 -0.9150  0.1737
  759MOL0     C 2384   2.230   9.423   2.183 -0.5385 -0.5484 -0.2638
  759MOL0     C 2385   2.163   9.370   2.299 -0.2057 -0.1124  0.7325
  759MOL0     C 2386   2.175   9.233   2.320  0.1763  0.6377  0.1178
  759MOL0     C 2387   2.231   9.148   2.229 -0.0834 -0.0169  0.4181
  759MOL0     O 2388   2.219   9.011   2.260 -0.1120 -0.1259 -0.0371
  759MOL0     C 2389   2.310   8.929   2.176  0.2346  0.5281 -0.2294
  759MOL0     C 2390   2.318   8.789   2.249 -0.6065  0.5196  0.4563
  759MOL0     C 2391   2.450   8.720   2.203  0.1748 -0.2746 -0.1958
  759MOL0     C 2392   2.479   8.603   2.292  0.2796 -1.0076 -0.2186
  759MOL0     C 2393   2.396   8.489   2.269 -0.3404  0.1708  0.1131
  759MOL0     C 2394   2.316   8.398   2.251  0.2608 -0.6772 -0.7590
  759MOL0     C 2395   2.291   9.195   2.115 -0.3110 -0.3895  0.2813
  759MOL0     C 2396   2.304   9.333   2.091  0.2308 -0.0899 -0.7025
  759MOL0     C 2397   2.377   9.388   1.972  0.3511  0.2023 -0.8374
  759MOL0     H 2398   1.985   9.734   2.215 -0.8544  0.1504  1.5757
  759MOL0     H 2399   1.916   9.959   2.209  1.1012 -0.3653 -3.9775
  759MOL0     H 2400   1.934  10.199   2.129 -1.8796 -0.2468  1.4042
  759MOL0     H 2401   1.906  10.174   2.290 -1.0034  0.3616 -1.1804
  759MOL0     H 2402   2.050  10.427   2.199 -1.7563  1.7156 -0.4295
  759MOL0     H 2403   1.945  10.411   2.346 -0.2308 -0.7072 -0.3056
  759MOL0     H 2404   1.768  10.344   2.155 -0.0396  1.3884 -1.5456
  759MOL0     H 2405   1.861  10.462   2.059 -4.8737  1.0995 -0.8716
  759MOL0     H 2406   1.673  10.555   2.172 -0.2509  1.4328 -0.3623
  759MOL0     H 2407   1.749  10.522   2.335  1.3812  1.8329  1.3069
  759MOL0     H 2408   1.865  10.717   2.119  0.5894  0.7289  0.0710
  759MOL0     H 2409   1.744  10.760   2.231  0.3580  0.6097 -0.4359
  759MOL0     H 2410   1.935  10.651   2.396 -1.1999 -1.0607 -1.0620
  759MOL0     H 2411   2.029  10.670   2.241 -1.1972 -1.8458 -0.1298
  759MOL0     H 2412   2.047  10.853   2.430 -2.1367 -0.4493  1.7674
  759MOL0     H 2413   1.884  10.907   2.382  1.2388  0.5050  1.1514
  759MOL0     H 2414   2.125  10.903   2.208  0.2334 -1.4854  0.7101
  759MOL0     H 2415   1.956  10.947   2.153 -1.1858 -1.4078  0.1320
  759MOL0     H 2416   2.163  11.074   2.479  0.4681 -2.7879 -2.1201
  759MOL0     H 2417   2.203  11.446   2.437 -3.0311 -0.0018 -0.4783
  759MOL0     H 2418   2.172  11.319   2.572  0.4354 -0.6158 -0.3908
  759MOL0     H 2419   2.378  11.193   2.484  3.6736  0.7119  1.5551
  759MOL0     H 2420   2.390  11.306   2.351 -2.2664 -0.8932 -1.5889
  759MOL0     H 2421   2.552  11.341   2.542  0.2104  0.8209  0.9154
  759MOL0     H 2422   2.402  11.379   2.651 -1.8878 -2.3125  0.1588
  759MOL0     H 2423   2.552  11.576   2.602  0.1244 -0.3293  1.8563
  759MOL0     H 2424   2.386  11.585   2.552  0.1789 -2.1337  1.1294
  759MOL0     H 2425   2.432  11.790   2.485 -2.2698  0.7705  1.1919
  759MOL0     H 2426   2.335  11.965   2.341  2.3392 -0.3732  0.8079
  759MOL0     H 2427   2.225  12.139   1.866 -2.7907 -1.2544 -0.9684
  759MOL0     H 2428   2.102  12.310   1.761 -1.3582  2.8429 -0.4456
  759MOL0     H 2429   1.737  12.521   1.957 -0.6970 -1.3977 -1.8016
  759MOL0     H 2430   1.901  12.588   1.997  0.1552  0.4753  0.0473
  759MOL0     H 2431   1.735  12.633   1.742 -0.8162  1.3835 -0.1930
  759MOL0     H 2432   1.752  12.754   1.871  1.9899  1.0320  2.7929
  759MOL0     H 2433   2.008  12.741   1.849  0.9492 -1.9305  0.1646
  759MOL0     H 2434   1.979  12.649   1.699  4.6475 -0.9085  3.7775
  759MOL0     H 2435   1.871  12.934   1.739 -2.8967 -0.2704 -2.3377
  759MOL0     H 2436   1.890  12.839   1.589  1.0934  2.4675 -0.1904
  759MOL0     H 2437   2.116  12.833   1.585  0.2540 -0.3199  0.8238
  759MOL0     H 2438   2.125  12.928   1.739  1.6406 -0.1606 -1.3046
  759MOL0     H 2439   1.979  13.028   1.493 -0.1278  0.6397  0.6149
  759MOL0     H 2440   2.022  13.123   1.629  1.2446 -0.5868  0.1826
  759MOL0     H 2441   2.272  13.073   1.590 -0.8967  0.2967  2.0021
  759MOL0     H 2442   2.177  13.191   1.504 -2.5030 -1.0641 -0.5983
  759MOL0     H 2443   2.324  13.052   1.365  0.4537 -1.1608 -0.6803
  759MOL0     H 2444   2.242  12.912   1.395  1.9663 -0.7496  0.9411
  759MOL0     H 2445   1.865  12.371   2.126  0.1055  0.1792 -0.5610
  759MOL0     H 2446   1.990  12.187   2.224 -0.9589  0.1077 -1.8668
  759MOL0     H 2447   2.329  11.684   2.007  2.9756 -1.0944  0.5658
  759MOL0     H 2448   2.441  11.528   2.134 -0.8712 -1.3113  1.2549
  759MOL0     H 2449   2.328  10.082   2.292  0.6940 -1.6675  2.1488
  759MOL0     H 2450   2.366   9.840   2.342  0.0350  0.5750  1.3331
  759MOL0     H 2451   2.108   9.427   2.373 -0.1307 -0.6506  1.2133
  759MOL0     H 2452   2.137   9.190   2.412  0.4851  1.1084  0.4718
  759MOL0     H 2453   2.409   8.976   2.170  0.8895 -0.9248 -1.5977
  759MOL0     H 2454   2.269   8.928   2.074 -3.3828  0.1161  1.0997
  759MOL0     H 2455   2.232   8.731   2.213  0.9348 -1.0860 -0.7993
  759MOL0     H 2456   2.310   8.799   2.358 -3.6076 -0.4367  0.4167
  759MOL0     H 2457   2.535   8.789   2.205 -0.9464  1.3067 -2.9337
  759MOL0     H 2458   2.429   8.682   2.103  0.0869  0.4209 -0.4476
  759MOL0     H 2459   2.582   8.566   2.284  0.6939 -0.0437  0.4456
  759MOL0     H 2460   2.475   8.628   2.399  0.4338 -0.3928 -0.3539
  759MOL0     H 2461   2.241   8.321   2.248  0.8665 -1.2547 -2.8568
  759MOL0     H 2462   2.337   9.132   2.039 -0.4095 -0.5810  0.3796
  759MOL0     H 2463   2.302   9.439   1.910 -1.5736 -2.0312 -0.4800
  759MOL0     H 2464   2.454   9.455   2.012 -0.0913  0.0309  0.3460
  759MOL0     H 2465   2.418   9.309   1.908  4.3826  0.9464  0.5699
  760MOL0     O 2466  10.139   8.906   3.002 -0.1674 -0.7496  0.9796
  760MOL0     C 2467  10.217   8.975   2.935 -0.6376  1.1604  0.1457
  760MOL0     O 2468  10.357   8.979   2.951 -0.0185  0.2232 -0.2236
  760MOL0     C 2469  10.412   8.894   3.051 -0.2548  0.3132 -0.0174
  760MOL0     C 2470  10.456   8.771   3.014 -0.6178  0.2398  0.1190
  760MOL0     C 2471  10.537   8.689   3.102  0.3709 -0.2026  0.5564
  760MOL0     C 2472  10.560   8.732   3.227 -0.5861 -0.4330 -0.4452
  760MOL0     O 2473  10.618   8.661   3.329  0.5968  0.5781 -0.2962
  760MOL0     C 2474  10.735   8.589   3.296 -0.1426 -0.6890  0.7846
  760MOL0     C 2475  10.821   8.577   3.412  0.3962  0.1412  0.3218
  760MOL0     C 2476  10.955   8.517   3.383  0.4209 -0.8670  0.1540
  760MOL0     C 2477  11.057   8.520   3.490 -0.2680  1.4352  0.2881
  760MOL0     C 2478  11.029   8.441   3.618 -0.0849  0.0462 -0.4658
  760MOL0     C 2479  11.040   8.288   3.584  1.2002 -0.5537 -0.0704
  760MOL0     C 2480  11.073   8.219   3.718 -0.3472 -0.4085  0.2727
  760MOL0     C 2481  11.226   8.204   3.732 -1.0624  0.6247 -0.3188
  760MOL0     N 2482  11.270   8.176   3.869  0.8062 -0.4965  0.1582
  760MOL0     C 2483  11.261   8.053   3.922  0.0504 -0.5157 -0.9289
  760MOL0     C 2484  11.328   8.049   4.039 -0.4917 -0.2640 -0.2819
  760MOL0     C 2485  11.344   7.924   4.132  0.0808  0.0446  1.3168
  760MOL0     C 2486  11.291   7.962   4.268 -0.3318  0.4016  0.0049
  760MOL0     C 2487  11.325   7.858   4.384  0.2421 -0.0551  0.3396
  760MOL0     C 2488  11.275   7.716   4.359 -0.3991 -0.5466  0.4846
  760MOL0     O 2489  11.133   7.725   4.336  0.3948 -0.8127 -0.2148
  760MOL0     C 2490  11.043   7.719   4.437 -0.6574 -0.4943  0.5117
  760MOL0     C 2491  11.059   7.647   4.554 -0.2958  1.2618  0.5004
  760MOL0     C 2492  10.955   7.640   4.649  0.7049 -0.8228  0.3532
  760MOL0     C 2493  10.841   7.714   4.627  0.3672  0.5737  0.0168
  760MOL0     C 2494  10.748   7.714   4.741 -0.6941  0.1282 -0.1390
  760MOL0     O 2495  10.624   7.748   4.707  0.1767 -0.0839 -0.1328
  760MOL0     C 2496  10.530   7.751   4.808  0.6933 -0.1561 -0.1956
  760MOL0     C 2497  10.549   7.808   4.931  0.2174 -0.5945 -0.2292
  760MOL0     C 2498  10.448   7.811   5.029 -0.0676  0.3839 -0.8638
  760MOL0     C 2499  10.313   7.758   5.010 -0.3488  0.7998  1.0534
  760MOL0     O 2500  10.219   7.740   5.109  0.0731  0.8822 -0.6582
  760MOL0     C 2501  10.248   7.743   5.247 -0.2544 -0.3571  0.8701
  760MOL0     C 2502  10.126   7.715   5.334 -0.3270 -0.6251  0.0533
  760MOL0     C 2503  10.083   7.573   5.301 -0.3930 -1.2061  0.4110
  760MOL0     C 2504   9.967   7.523   5.391 -0.2138 -0.5943 -0.0906
  760MOL0     C 2505   9.919   7.389   5.334  0.4246 -0.5642  1.5614
  760MOL0     C 2506  10.017   7.271   5.323  0.3253 -0.3351 -0.6401
  760MOL0     C 2507  10.082   7.257   5.179  0.2690 -0.0921  0.2540
  760MOL0     C 2508  10.146   7.115   5.188  0.8399 -0.2324 -0.3508
  760MOL0    Cl 2509  10.271   7.079   5.315  0.2496  0.5197 -0.3958
  760MOL0     C 2510  10.299   7.685   4.889 -0.2996 -0.2436  0.5998
  760MOL0     C 2511  10.404   7.690   4.791 -1.2875  0.9125 -0.3343
  760MOL0     O 2512  10.780   7.668   4.851  0.1086  0.7085 -0.8269
  760MOL0     C 2513  10.820   7.778   4.495  0.1546 -1.1761 -1.0478
  760MOL0     C 2514  10.921   7.771   4.405  0.8300 -0.4304 -0.2957
  760MOL0     N 2515  11.379   8.179   4.049  0.2754 -0.0844 -0.2054
  760MOL0     N 2516  11.345   8.247   3.950 -0.5605  0.2918 -0.1955
  760MOL0     C 2517  10.506   8.856   3.268 -0.1308  0.5166  0.2988
  760MOL0     C 2518  10.435   8.940   3.183 -0.0500 -0.7143 -0.7769
  760MOL0     C 2519  10.161   9.092   2.871 -0.5750  0.1657  0.0950
  760MOL0     C 2520  10.180   9.215   2.935  0.4312  0.5948 -0.0362
  760MOL0     C 2521  10.123   9.336   2.888 -0.2105  0.0461 -0.1951
  760MOL0     C 2522  10.046   9.329   2.778 -0.5828 -0.5487  0.4126
  760MOL0     O 2523   9.995   9.450   2.741 -0.4413 -0.5941  0.5135
  760MOL0     C 2524   9.943   9.466   2.611 -0.2732 -0.2439  0.4198
  760MOL0     C 2525   9.925   9.620   2.591  0.3266 -0.5903 -0.6466
  760MOL0     C 2526   9.881   9.665   2.442 -0.1563  0.1450 -0.6710
  760MOL0     C 2527   9.842   9.815   2.436 -0.1500  1.1706 -0.3164
  760MOL0     C 2528   9.727   9.840   2.519  0.8741 -0.2519  0.3654
  760MOL0     C 2529   9.636   9.867   2.601  0.2086  0.6432  0.5441
  760MOL0     C 2530  10.031   9.209   2.702 -0.4286  0.0952  0.1426
  760MOL0     C 2531  10.091   9.093   2.742 -1.3205  0.1430 -0.7460
  760MOL0     C 2532  10.076   8.966   2.671 -0.7517 -0.4270 -0.2157
  760MOL0     H 2533  10.445   8.728   2.915  0.2124  1.4844 -0.5485
  760MOL0     H 2534  10.579   8.593   3.074  1.0879 -0.2646  1.7768
  760MOL0     H 2535  10.705   8.492   3.255  1.3097 -0.2014 -1.6354
  760MOL0     H 2536  10.791   8.636   3.214 -0.2798 -0.3898  0.8625
  760MOL0     H 2537  10.783   8.506   3.487  1.1093  0.0243  0.5772
  760MOL0     H 2538  10.822   8.672   3.467 -2.3285  0.8748 -0.6910
  760MOL0     H 2539  11.009   8.574   3.306  0.6829  0.9453  1.6251
  760MOL0     H 2540  10.944   8.425   3.325 -3.0613  0.9182 -2.4151
  760MOL0     H 2541  11.154   8.500   3.442 -1.6856  0.7124 -2.4656
  760MOL0     H 2542  11.066   8.625   3.519 -0.0382  1.9011 -1.3557
  760MOL0     H 2543  11.113   8.467   3.684 -0.4359 -4.0677  1.9267
  760MOL0     H 2544  10.932   8.460   3.665 -0.0214 -0.1622 -0.2502
  760MOL0     H 2545  10.938   8.267   3.550  0.7174  1.5614 -0.0604
  760MOL0     H 2546  11.110   8.264   3.504  0.3917 -2.5770 -0.2395
  760MOL0     H 2547  11.033   8.118   3.717  1.5968 -1.2270  0.8328
  760MOL0     H 2548  11.027   8.271   3.802 -1.5936 -0.1198 -0.5533
  760MOL0     H 2549  11.267   8.128   3.664 -1.9338  1.0262 -1.3137
  760MOL0     H 2550  11.275   8.299   3.706  1.1608 -0.3077  0.1951
  760MOL0     H 2551  11.200   7.969   3.892 -2.2907 -0.0120  1.9662
  760MOL0     H 2552  11.306   7.831   4.089  1.8796 -0.5677  0.9905
  760MOL0     H 2553  11.452   7.912   4.137  0.2599 -0.3718 -1.6517
  760MOL0     H 2554  11.327   8.059   4.303 -2.1814  0.6031  1.5501
  760MOL0     H 2555  11.182   7.968   4.257 -0.5290 -0.4277  1.2790
  760MOL0     H 2556  11.273   7.880   4.478  1.1906 -1.8130  1.3378
  760MOL0     H 2557  11.427   7.866   4.423 -0.3029 -1.6841  2.2856
  760MOL0     H 2558  11.293   7.643   4.438 -0.6368 -2.1288 -0.8699
  760MOL0     H 2559  11.328   7.671   4.274 -3.4479 -0.9296 -1.3906
  760MOL0     H 2560  11.153   7.597   4.576 -0.0684  1.7375  0.6231
  760MOL0     H 2561  10.973   7.591   4.744 -0.4371  1.2767  1.7364
  760MOL0     H 2562  10.641   7.859   4.956 -0.3923  1.1879 -1.4439
  760MOL0     H 2563  10.458   7.854   5.128 -0.7752  0.6799 -0.9148
  760MOL0     H 2564  10.326   7.668   5.265  0.6812  0.8103  1.7882
  760MOL0     H 2565  10.283   7.840   5.284 -1.0212 -0.8835  3.1928
  760MOL0     H 2566  10.141   7.732   5.441 -0.9102 -0.7589  0.1599
  760MOL0     H 2567  10.047   7.787   5.312  1.9245  1.6822 -0.8862
  760MOL0     H 2568  10.058   7.545   5.198 -0.7209  0.6717 -0.0469
  760MOL0     H 2569  10.163   7.501   5.324 -0.8270 -1.1916  2.0190
  760MOL0     H 2570   9.884   7.594   5.398 -1.2300 -1.4501 -2.2622
  760MOL0     H 2571  10.001   7.494   5.491 -0.2272  0.6715  0.2918
  760MOL0     H 2572   9.887   7.398   5.230  2.4722  0.2776  0.9545
  760MOL0     H 2573   9.849   7.345   5.406  0.0056 -3.6070 -0.5427
  760MOL0     H 2574  10.099   7.293   5.392 -1.4045 -1.9599  2.1023
  760MOL0     H 2575   9.965   7.182   5.358 -0.1193  0.3455  0.4894
  760MOL0     H 2576  10.153   7.338   5.159 -0.0369  0.2052  0.3525
  760MOL0     H 2577  10.007   7.265   5.100 -3.4734 -0.7245  3.4564
  760MOL0     H 2578  10.066   7.042   5.204 -0.0376  0.9442  0.9746
  760MOL0     H 2579  10.175   7.096   5.085 -0.1229 -0.4632 -0.5934
  760MOL0     H 2580  10.196   7.661   4.866 -0.5908  0.5703  1.0133
  760MOL0     H 2581  10.375   7.642   4.698  3.3526  2.5831 -2.9438
  760MOL0     H 2582  10.733   7.827   4.453 -0.6290 -1.5106  0.0995
  760MOL0     H 2583  10.915   7.834   4.316  0.5747  3.1796  2.0637
  760MOL0     H 2584  10.512   8.895   3.369  2.5546 -1.2649  0.9680
  760MOL0     H 2585  10.387   9.033   3.211  2.6086  0.1322  1.3903
  760MOL0     H 2586  10.251   9.206   3.016 -1.4332 -0.8562  1.5132
  760MOL0     H 2587  10.139   9.428   2.942 -3.1895  1.9757 -2.2786
  760MOL0     H 2588   9.847   9.415   2.602  0.1329 -0.7417 -1.3805
  760MOL0     H 2589  10.013   9.436   2.532 -2.0998  0.2297 -1.4565
  760MOL0     H 2590  10.019   9.673   2.606 -0.4940  0.6688  0.2630
  760MOL0     H 2591   9.852   9.652   2.667 -2.2599 -1.4554 -2.6447
  760MOL0     H 2592   9.806   9.595   2.405  0.7747 -0.2750 -1.8033
  760MOL0     H 2593   9.969   9.654   2.379  0.8196 -0.1048  0.6837
  760MOL0     H 2594   9.919   9.890   2.457 -1.5337  2.3020  0.9741
  760MOL0     H 2595   9.804   9.821   2.334 -5.1437 -0.7988  1.1301
  760MOL0     H 2596   9.548   9.895   2.654  0.2208  0.0124  0.9080
  760MOL0     H 2597   9.969   9.215   2.613 -1.0852  0.9019  0.6291
  760MOL0     H 2598  10.153   8.892   2.695 -1.0336 -0.0211  2.1080
  760MOL0     H 2599   9.981   8.926   2.708 -1.0106  1.9247  1.8953
  760MOL0     H 2600  10.068   8.985   2.563  2.8601 -0.5427 -0.6191
  761MOL0     O 2601   3.724   9.236   5.394  0.6008 -0.1416  0.1028
  761MOL0     C 2602   3.703   9.223   5.517  0.6960 -0.0352 -0.5069
  761MOL0     O 2603   3.653   9.118   5.579 -0.6662 -0.0645  0.3101
  761MOL0     C 2604   3.632   9.003   5.498  0.2733 -0.4349 -0.3355
  761MOL0     C 2605   3.508   8.933   5.534  0.1697 -0.0058 -1.7442
  761MOL0     C 2606   3.469   8.817   5.472  0.3656 -0.2946 -0.0726
  761MOL0     C 2607   3.564   8.754   5.375  0.4092 -0.2679 -0.2347
  761MOL0     O 2608   3.547   8.638   5.303  0.7641 -0.8733  0.0143
  761MOL0     C 2609   3.419   8.585   5.275  0.6180  0.3780 -0.1726
  761MOL0     C 2610   3.396   8.501   5.151 -0.1014 -0.5520 -0.1235
  761MOL0     C 2611   3.488   8.382   5.149  0.1388  0.3476 -0.0710
  761MOL0     C 2612   3.490   8.306   5.017  0.5180  0.7222 -0.0839
  761MOL0     C 2613   3.597   8.200   5.013  0.2140  0.0417  0.9960
  761MOL0     C 2614   3.738   8.256   4.994  0.8138  0.4619 -0.5233
  761MOL0     C 2615   3.834   8.142   5.000 -0.0323 -0.1177  0.3741
  761MOL0     C 2616   3.981   8.184   5.010  0.8543  0.0041  0.0496
  761MOL0     N 2617   4.000   8.273   4.891  0.4546 -0.0118 -0.1155
  761MOL0     C 2618   4.024   8.238   4.764 -0.0568  0.1532 -0.0178
  761MOL0     C 2619   4.062   8.354   4.704 -0.1087 -0.9007  0.0209
  761MOL0     C 2620   4.072   8.368   4.555  0.0232 -0.0159 -0.5384
  761MOL0     C 2621   4.062   8.503   4.483 -0.5592 -0.2318  0.2798
  761MOL0     C 2622   4.177   8.598   4.532 -0.1484  0.2775  0.9568
  761MOL0     C 2623   4.164   8.717   4.440  0.6965 -1.1207 -0.3943
  761MOL0     O 2624   4.039   8.785   4.473  0.2903 -0.0012  0.1297
  761MOL0     C 2625   3.975   8.846   4.370 -0.2259  0.5423  0.0890
  761MOL0     C 2626   4.018   8.969   4.322  0.1084 -0.5010 -0.5065
  761MOL0     C 2627   3.934   9.034   4.229 -0.8247 -0.3010  0.8856
  761MOL0     C 2628   3.818   8.981   4.178 -0.0635  0.3767  1.0987
  761MOL0     C 2629   3.725   9.061   4.095 -0.2616  0.8228 -0.0859
  761MOL0     O 2630   3.729   9.199   4.108 -1.0588 -0.1112 -0.1516
  761MOL0     C 2631   3.647   9.279   4.035  0.1271  0.3807 -0.3831
  761MOL0     C 2632   3.691   9.357   3.925 -0.4781 -0.6424  0.2995
  761MOL0     C 2633   3.605   9.451   3.863 -0.3103  1.0268 -0.6825
  761MOL0     C 2634   3.475   9.478   3.917  0.9176 -0.2087 -0.5377
  761MOL0     O 2635   3.385   9.574   3.875  0.0216  0.1713  0.3175
  761MOL0     C 2636   3.394   9.612   3.735  0.7720 -1.0092 -0.8402
  761MOL0     C 2637   3.258   9.690   3.706 -1.0573  0.0584 -0.0383
  761MOL0     C 2638   3.271   9.769   3.566  0.2151  1.1102 -0.4499
  761MOL0     C 2639   3.357   9.893   3.564  0.7210 -0.3100 -0.0111
  761MOL0     C 2640   3.398   9.946   3.418  0.5528  0.1502  0.1929
  761MOL0     C 2641   3.279   9.946   3.330  0.9082  0.9188  0.2760
  761MOL0     C 2642   3.303  10.010   3.197 -1.2143  0.0666  0.1361
  761MOL0     C 2643   3.181   9.994   3.113  0.1208 -0.8251  0.6738
  761MOL0    Cl 2644   3.152   9.827   3.075  0.1709 -0.1085 -0.0288
  761MOL0     C 2645   3.430   9.398   4.025  0.3281 -0.1691 -0.3627
  761MOL0     C 2646   3.520   9.304   4.078  0.5179 -1.0706  0.1833
  761MOL0     O 2647   3.635   9.004   4.030  0.4772  0.4690 -0.0428
  761MOL0     C 2648   3.779   8.855   4.229  0.3576  0.9169  0.7284
  761MOL0     C 2649   3.856   8.787   4.319 -0.6294  0.5803  0.6259
  761MOL0     N 2650   4.071   8.455   4.789  0.4893 -0.4636 -0.6477
  761MOL0     N 2651   4.031   8.408   4.902 -0.1245  0.8706 -0.0469
  761MOL0     C 2652   3.671   8.827   5.332  1.0862 -0.2996  0.0911
  761MOL0     C 2653   3.710   8.946   5.393  1.4114 -0.3246 -0.0351
  761MOL0     C 2654   3.694   9.347   5.594 -0.0671 -0.8159 -0.9003
  761MOL0     C 2655   3.749   9.463   5.539 -1.2114  0.1183 -0.6477
  761MOL0     C 2656   3.744   9.588   5.605  0.4083  0.7833  0.3997
  761MOL0     C 2657   3.685   9.600   5.731 -0.4290 -0.1036  0.5634
  761MOL0     O 2658   3.687   9.718   5.801 -0.6366 -0.0312 -0.6429
  761MOL0     C 2659   3.704   9.837   5.727  0.0279 -0.3246 -0.7531
  761MOL0     C 2660   3.656   9.942   5.816  0.1393 -0.3234  0.3279
  761MOL0     C 2661   3.669  10.081   5.751  0.1046  1.5392 -0.2603
  761MOL0     C 2662   3.612  10.181   5.853  0.7135 -0.7351  0.6596
  761MOL0     C 2663   3.719  10.261   5.924 -0.0207  0.3201  0.3958
  761MOL0     C 2664   3.824  10.315   5.976  0.3034  1.0081 -0.2011
  761MOL0     C 2665   3.612   9.492   5.776 -0.5268  0.1450  0.1335
  761MOL0     C 2666   3.622   9.360   5.714 -0.1034 -0.4282  0.1131
  761MOL0     C 2667   3.545   9.256   5.791 -0.2858  0.0294 -0.5090
  761MOL0     H 2668   3.444   8.975   5.611  1.1616 -0.4836 -0.6148
  761MOL0     H 2669   3.370   8.775   5.489  0.4801  0.2553  2.3563
  761MOL0     H 2670   3.389   8.524   5.361  1.1691  1.5280  0.8724
  761MOL0     H 2671   3.360   8.677   5.263 -0.5329 -0.1260  1.3186
  761MOL0     H 2672   3.433   8.553   5.062  2.8086 -1.1360  0.6407
  761MOL0     H 2673   3.291   8.471   5.153 -0.4890  0.6928 -0.7832
  761MOL0     H 2674   3.461   8.315   5.231  0.0821  0.2073 -0.2025
  761MOL0     H 2675   3.588   8.427   5.156  0.2042  0.2329 -0.2457
  761MOL0     H 2676   3.392   8.264   4.995  1.0263  1.1387 -3.8117
  761MOL0     H 2677   3.505   8.379   4.937  1.6342  1.1823  0.5214
  761MOL0     H 2678   3.587   8.151   5.110 -1.7421  0.6243  1.1287
  761MOL0     H 2679   3.577   8.128   4.933  1.3738 -0.2081  0.9082
  761MOL0     H 2680   3.745   8.313   4.901  0.6065  1.0954 -0.1501
  761MOL0     H 2681   3.751   8.326   5.076 -0.9795 -0.3050  0.4706
  761MOL0     H 2682   3.835   8.094   4.902  1.9268  1.4673 -0.4500
  761MOL0     H 2683   3.801   8.070   5.076 -1.7310  0.3835  0.1404
  761MOL0     H 2684   4.021   8.219   5.106  0.3931 -1.9798  1.0212
  761MOL0     H 2685   4.044   8.095   4.996  1.1240  0.3350 -0.9199
  761MOL0     H 2686   4.019   8.143   4.712  3.8934 -0.8262  1.0382
  761MOL0     H 2687   4.167   8.331   4.517  0.3760 -1.4971  1.6276
  761MOL0     H 2688   3.991   8.314   4.504 -0.7687  0.3178  0.3251
  761MOL0     H 2689   4.084   8.482   4.378 -0.4413  1.7678 -0.1471
  761MOL0     H 2690   3.962   8.549   4.474 -0.1865  0.3675 -1.0709
  761MOL0     H 2691   4.269   8.544   4.507 -0.6331  0.5390 -1.6540
  761MOL0     H 2692   4.169   8.641   4.632  0.9194 -0.4212  1.3541
  761MOL0     H 2693   4.176   8.685   4.336  0.0055 -1.7201 -0.3044
  761MOL0     H 2694   4.247   8.784   4.464 -1.3280  0.7935  1.7796
  761MOL0     H 2695   4.108   9.016   4.361 -0.5087 -1.4908  2.3450
  761MOL0     H 2696   3.969   9.131   4.196  1.1868 -1.0092  0.7700
  761MOL0     H 2697   3.796   9.346   3.897 -0.3001 -1.0690  1.1145
  761MOL0     H 2698   3.636   9.492   3.768 -0.0037  0.4493 -0.8417
  761MOL0     H 2699   3.479   9.680   3.721  2.2589 -2.6596 -0.2019
  761MOL0     H 2700   3.407   9.523   3.673 -0.7776 -0.9522 -1.2823
  761MOL0     H 2701   3.180   9.614   3.701 -0.4636 -0.5979  0.4624
  761MOL0     H 2702   3.246   9.766   3.784 -1.4926  0.4574 -0.4851
  761MOL0     H 2703   3.325   9.703   3.498  1.4115  0.6303  0.9045
  761MOL0     H 2704   3.173   9.791   3.522 -0.8794 -1.9587  0.2411
  761MOL0     H 2705   3.453   9.875   3.614  0.8904 -1.3742 -0.7013
  761MOL0     H 2706   3.302   9.981   3.600 -0.5997  1.0044 -4.5401
  761MOL0     H 2707   3.470   9.875   3.377 -0.0881 -0.2919 -0.1953
  761MOL0     H 2708   3.449  10.042   3.422 -0.9556  0.9800  0.0709
  761MOL0     H 2709   3.246   9.843   3.315 -1.7486  1.6310  0.7684
  761MOL0     H 2710   3.197   9.997   3.381  2.8566  0.5724  4.1151
  761MOL0     H 2711   3.386   9.971   3.139 -1.7641  0.3340 -0.8640
  761MOL0     H 2712   3.330  10.116   3.199 -2.3933  0.3783  0.5089
  761MOL0     H 2713   3.100  10.033   3.175  0.7048 -0.9946  1.5665
  761MOL0     H 2714   3.189  10.053   3.022 -0.4052 -1.3643  0.2722
  761MOL0     H 2715   3.332   9.420   4.065  0.2189  3.6646 -2.2768
  761MOL0     H 2716   3.485   9.264   4.172  2.4095  0.5419  1.6517
  761MOL0     H 2717   3.680   8.826   4.195 -1.0243  2.4553  3.2135
  761MOL0     H 2718   3.814   8.692   4.351  3.0691 -0.0458  4.4971
  761MOL0     H 2719   3.723   8.799   5.241 -1.4110  1.2967 -1.9652
  761MOL0     H 2720   3.809   8.982   5.367  1.2018  0.9397  0.8234
  761MOL0     H 2721   3.812   9.460   5.451  0.7279  1.5516  0.6032
  761MOL0     H 2722   3.806   9.668   5.565  1.1513 -0.7930 -1.8094
  761MOL0     H 2723   3.642   9.836   5.637 -0.0236 -0.9714 -0.7127
  761MOL0     H 2724   3.806   9.861   5.696 -0.1939 -1.0330 -2.0953
  761MOL0     H 2725   3.721   9.937   5.904  1.9327 -2.2361 -1.0116
  761MOL0     H 2726   3.553   9.923   5.846  0.5303  0.6466  2.4703
  761MOL0     H 2727   3.612  10.084   5.657  3.6563 -1.5130 -2.8355
  761MOL0     H 2728   3.775  10.104   5.734 -0.1182  5.0003  1.9968
  761MOL0     H 2729   3.549  10.257   5.805 -0.0253 -2.5985 -1.5394
  761MOL0     H 2730   3.552  10.138   5.934 -0.9566  0.3033  0.0366
  761MOL0     H 2731   3.907  10.360   6.027  1.9128 -1.8458 -0.1258
  761MOL0     H 2732   3.557   9.510   5.868  0.5572  0.1617  0.7873
  761MOL0     H 2733   3.498   9.173   5.739  3.4368 -2.3621 -0.3932
  761MOL0     H 2734   3.607   9.220   5.874 -1.1622  2.6869  1.4680
  761MOL0     H 2735   3.463   9.317   5.831  0.8198  2.3373 -1.5305
  762MOL0     O 2736   7.569  10.013   1.377 -0.5003  0.3913  0.2940
  762MOL0     C 2737   7.673  10.030   1.436 -0.2981  0.2781 -0.5476
  762MOL0     O 2738   7.713  10.149   1.491  0.2606  0.1449  0.1950
  762MOL0     C 2739   7.615  10.230   1.539 -0.2362  0.1597  0.9242
  762MOL0     C 2740   7.514  10.191   1.628  1.5663 -0.3082  0.4188
  762MOL0     C 2741   7.408  10.281   1.670 -0.6842  0.3028  0.2795
  762MOL0     C 2742   7.418  10.416   1.644 -1.4866 -0.4476  0.1850
  762MOL0     O 2743   7.335  10.514   1.688  0.7552 -0.5826  0.3068
  762MOL0     C 2744   7.211  10.482   1.750 -0.8864  0.1150  0.5740
  762MOL0     C 2745   7.175  10.580   1.850  0.2656  0.0504 -0.0113
  762MOL0     C 2746   7.277  10.567   1.962 -0.4511 -0.7733  0.0002
  762MOL0     C 2747   7.284  10.709   2.033  0.7523  0.5844 -0.7004
  762MOL0     C 2748   7.372  10.690   2.165 -0.3984  0.5323 -0.0093
  762MOL0     C 2749   7.523  10.648   2.133 -0.3388 -0.2448  0.1977
  762MOL0     C 2750   7.598  10.593   2.251  0.1160  0.7846  0.4989
  762MOL0     C 2751   7.565  10.444   2.275 -0.1009 -0.4024 -0.1635
  762MOL0     N 2752   7.609  10.405   2.414 -0.8245 -0.9324 -0.5052
  762MOL0     C 2753   7.738  10.374   2.463 -0.9693  0.2467 -0.1594
  762MOL0     C 2754   7.731  10.385   2.599  0.7642 -1.1022 -0.6577
  762MOL0     C 2755   7.832  10.361   2.709 -0.5149 -0.2135  0.2327
  762MOL0     C 2756   7.920  10.477   2.716  1.1282  0.5708 -0.4642
  762MOL0     C 2757   8.004  10.490   2.840 -0.2863  0.1235  0.2922
  762MOL0     C 2758   8.117  10.594   2.830 -0.0444  0.8231  0.2024
  762MOL0     O 2759   8.196  10.549   2.716 -0.4563 -0.0327  0.3754
  762MOL0     C 2760   8.308  10.475   2.734 -0.6626  0.0100 -0.4538
  762MOL0     C 2761   8.422  10.547   2.757 -0.8565  0.2955 -0.7421
  762MOL0     C 2762   8.556  10.487   2.772 -0.1632 -0.3890 -0.6081
  762MOL0     C 2763   8.557  10.349   2.746 -0.6394 -0.2629 -0.6887
  762MOL0     C 2764   8.693  10.289   2.743 -0.1651 -0.3324 -0.0150
  762MOL0     O 2765   8.802  10.365   2.758 -0.5876 -0.2547  0.2797
  762MOL0     C 2766   8.927  10.334   2.718  0.1209 -1.0618  0.5069
  762MOL0     C 2767   8.967  10.254   2.619 -0.0971 -0.2751  0.4837
  762MOL0     C 2768   9.102  10.250   2.573  0.0116 -0.9579  0.2036
  762MOL0     C 2769   9.204  10.319   2.647  0.8239  0.6206  0.1054
  762MOL0     O 2770   9.336  10.293   2.636  0.3584  0.4282 -0.5804
  762MOL0     C 2771   9.397  10.310   2.508 -0.2776 -0.0847  0.1377
  762MOL0     C 2772   9.534  10.373   2.536  1.4504 -0.9991  0.1099
  762MOL0     C 2773   9.627  10.291   2.622 -0.0037 -0.5437 -0.3129
  762MOL0     C 2774   9.752  10.356   2.648 -1.2578  0.0877 -0.1344
  762MOL0     C 2775   9.849  10.344   2.528 -0.4594 -0.6563  0.0544
  762MOL0     C 2776   9.993  10.332   2.586 -1.3264  0.7837  0.0910
  762MOL0     C 2777  10.102  10.390   2.485 -0.3206 -0.7042  0.3347
  762MOL0     C 2778  10.236  10.321   2.514 -0.1026  1.0979  0.5102
  762MOL0    Cl 2779  10.333  10.377   2.376  0.2732  0.0730  0.2595
  762MOL0     C 2780   9.160  10.396   2.755  0.0517 -0.8489  0.2984
  762MOL0     C 2781   9.027  10.411   2.782  1.4351  0.2502  0.2208
  762MOL0     O 2782   8.693  10.172   2.718  0.0877 -0.5749 -0.6590
  762MOL0     C 2783   8.431  10.277   2.734 -0.7384  0.8131  0.7015
  762MOL0     C 2784   8.309  10.336   2.725  0.2909 -0.0449 -0.2189
  762MOL0     N 2785   7.605  10.429   2.635  0.0954  0.2153  0.2296
  762MOL0     N 2786   7.541  10.431   2.523 -0.4036 -0.0478 -0.8055
  762MOL0     C 2787   7.520  10.459   1.559  0.0511 -0.4635  0.7072
  762MOL0     C 2788   7.615  10.374   1.501 -0.4547  0.8628  0.1053
  762MOL0     C 2789   7.782   9.915   1.439  0.7898 -0.5497 -0.8929
  762MOL0     C 2790   7.720   9.783   1.407 -0.3181  1.0735 -0.5086
  762MOL0     C 2791   7.804   9.670   1.399 -0.5921  0.7852 -0.3998
  762MOL0     C 2792   7.938   9.687   1.417 -0.3253 -0.4813  0.2782
  762MOL0     O 2793   8.025   9.585   1.403 -0.5049  0.1776 -0.4744
  762MOL0     C 2794   8.015   9.509   1.278  0.2022  0.1457  0.1966
  762MOL0     C 2795   7.933   9.383   1.282  0.2336  0.7950 -0.2612
  762MOL0     C 2796   7.982   9.289   1.400  0.4508  0.7688  0.3356
  762MOL0     C 2797   7.918   9.147   1.412 -0.2034  0.7055 -0.0793
  762MOL0     C 2798   7.772   9.145   1.418  0.2058  0.3128 -0.1340
  762MOL0     C 2799   7.652   9.145   1.427  0.3392  0.0582 -1.3704
  762MOL0     C 2800   7.996   9.803   1.457  0.8969  0.1243 -1.0629
  762MOL0     C 2801   7.919   9.926   1.472 -0.1913 -0.5768  0.2068
  762MOL0     C 2802   7.984  10.051   1.518 -0.5500 -0.4055  0.3581
  762MOL0     H 2803   7.492  10.090   1.661 -0.6181  0.9580  3.2876
  762MOL0     H 2804   7.320  10.241   1.720 -0.8270 -1.1384 -1.0622
  762MOL0     H 2805   7.136  10.490   1.670 -0.1607  0.0815 -0.1222
  762MOL0     H 2806   7.215  10.381   1.793 -1.5085 -0.1986 -0.0726
  762MOL0     H 2807   7.073  10.555   1.883  0.0649 -1.2371 -1.4361
  762MOL0     H 2808   7.183  10.681   1.809 -0.9812  0.5328  0.8558
  762MOL0     H 2809   7.375  10.535   1.924  0.5337  0.9768  0.9043
  762MOL0     H 2810   7.251  10.492   2.037 -0.0353 -2.0544 -1.1040
  762MOL0     H 2811   7.328  10.786   1.968 -0.0915  1.5465 -0.1756
  762MOL0     H 2812   7.185  10.742   2.065  1.1856  0.4178  0.8794
  762MOL0     H 2813   7.353  10.769   2.238  1.8987 -0.2362  1.5275
  762MOL0     H 2814   7.324  10.606   2.218 -0.9533  0.8482  0.0022
  762MOL0     H 2815   7.532  10.577   2.050  0.0995 -0.1714  0.1793
  762MOL0     H 2816   7.578  10.735   2.098 -0.6602 -1.1379 -2.8596
  762MOL0     H 2817   7.567  10.644   2.342  1.3413 -2.3998  2.9023
  762MOL0     H 2818   7.707  10.602   2.240  0.1876 -0.1820  0.2918
  762MOL0     H 2819   7.458  10.425   2.264 -0.4942  0.3411  1.8611
  762MOL0     H 2820   7.616  10.377   2.206  1.6189 -0.2591  0.8905
  762MOL0     H 2821   7.815  10.324   2.406  1.4278  0.5446  2.5945
  762MOL0     H 2822   7.782  10.347   2.805 -1.4543 -0.2795 -0.2567
  762MOL0     H 2823   7.893  10.271   2.694  0.5727  0.5160  0.2059
  762MOL0     H 2824   7.987  10.480   2.630  2.9200 -0.5533  0.8142
  762MOL0     H 2825   7.861  10.569   2.707  0.7524  0.2087 -1.8598
  762MOL0     H 2826   8.060  10.396   2.847 -2.8021 -1.4965 -0.0780
  762MOL0     H 2827   7.937  10.510   2.923  0.3239 -0.4451  0.9369
  762MOL0     H 2828   8.188  10.616   2.911  0.4916  4.4159 -1.0683
  762MOL0     H 2829   8.080  10.693   2.805  0.7476  1.2446  0.6415
  762MOL0     H 2830   8.406  10.653   2.773 -2.3285 -0.1112  0.7871
  762MOL0     H 2831   8.640  10.547   2.805  0.0983 -0.3244 -1.3870
  762MOL0     H 2832   8.887  10.210   2.560  1.0603 -0.6101 -0.8634
  762MOL0     H 2833   9.129  10.200   2.481 -0.3548  1.2258 -1.1746
  762MOL0     H 2834   9.394  10.223   2.442 -0.7475  0.3171 -0.3758
  762MOL0     H 2835   9.349  10.395   2.458  1.3352  1.0415  0.4358
  762MOL0     H 2836   9.583  10.396   2.441  2.7191  1.0168  1.1581
  762MOL0     H 2837   9.513  10.465   2.592 -0.3370 -0.6724 -1.0210
  762MOL0     H 2838   9.577  10.296   2.719  1.3966 -1.9982  0.5231
  762MOL0     H 2839   9.642  10.188   2.591 -1.2232 -0.2419 -2.0692
  762MOL0     H 2840   9.797  10.307   2.735  2.5760 -2.1540 -3.0610
  762MOL0     H 2841   9.726  10.460   2.670 -2.9723 -0.4352  0.4744
  762MOL0     H 2842   9.845  10.441   2.476  2.9132  1.6606  3.5870
  762MOL0     H 2843   9.810  10.265   2.463  1.4106  1.3843 -3.8758
  762MOL0     H 2844  10.009  10.388   2.679 -0.9746  0.3500  0.2908
  762MOL0     H 2845  10.013  10.228   2.612  1.4299  2.0386  3.7502
  762MOL0     H 2846  10.095  10.499   2.476  0.4957 -0.6690  0.1052
  762MOL0     H 2847  10.075  10.346   2.389  0.0964  0.2167 -0.2162
  762MOL0     H 2848  10.280  10.352   2.609  0.5602 -0.9524  0.9358
  762MOL0     H 2849  10.233  10.211   2.514  0.4770  1.0520 -1.1714
  762MOL0     H 2850   9.241  10.453   2.801  0.4844  0.4647 -1.9436
  762MOL0     H 2851   8.994  10.470   2.867  2.0554 -1.6554  1.8477
  762MOL0     H 2852   8.439  10.170   2.716 -3.3223  0.4439  1.3791
  762MOL0     H 2853   8.224  10.276   2.694  0.3628  1.1328 -2.9406
  762MOL0     H 2854   7.508  10.564   1.535  0.2073 -0.7274 -0.5575
  762MOL0     H 2855   7.685  10.412   1.427 -0.4842 -2.6568 -1.9873
  762MOL0     H 2856   7.613   9.771   1.391 -0.1574 -0.4154 -0.6441
  762MOL0     H 2857   7.765   9.572   1.375 -1.4622  1.1895 -0.6636
  762MOL0     H 2858   8.115   9.498   1.235 -0.4910  0.1090 -1.4900
  762MOL0     H 2859   7.968   9.577   1.205  1.6325 -0.5321 -1.4320
  762MOL0     H 2860   7.948   9.328   1.189  2.6425  0.1991  0.4127
  762MOL0     H 2861   7.827   9.393   1.308 -0.2854 -1.9679 -1.0438
  762MOL0     H 2862   7.959   9.347   1.490 -3.7608  3.0762 -1.9058
  762MOL0     H 2863   8.091   9.284   1.390  0.4444  1.2279  0.0202
  762MOL0     H 2864   7.946   9.076   1.335 -0.7573  0.2196  0.1562
  762MOL0     H 2865   7.957   9.098   1.502 -2.1835 -1.0026 -0.0790
  762MOL0     H 2866   7.547   9.132   1.410  0.5753 -0.1216 -2.8626
  762MOL0     H 2867   8.103   9.795   1.475  0.5985  0.8729  1.6481
  762MOL0     H 2868   7.978  10.124   1.438  0.7170 -1.9029 -1.1922
  762MOL0     H 2869   7.936  10.082   1.611  1.3576  0.2328  1.1878
  762MOL0     H 2870   8.087  10.022   1.542 -0.7664 -0.1352  1.7060
  763MOL0     O 2871  10.380   6.595   1.296  0.6139  0.4999 -0.9825
  763MOL0     C 2872  10.469   6.545   1.229  0.9743 -0.0709  0.0548
  763MOL0     O 2873  10.482   6.416   1.205  0.0287  0.2577  0.2697
  763MOL0     C 2874  10.398   6.320   1.267  0.6111 -0.7054  0.7469
  763MOL0     C 2875  10.324   6.236   1.182 -0.4581  0.0771 -0.5701
  763MOL0     C 2876  10.254   6.133   1.249 -0.8833 -0.4486  0.3516
  763MOL0     C 2877  10.241   6.121   1.390 -1.3671  0.2696  0.7059
  763MOL0     O 2878  10.167   6.010   1.425 -0.1311  0.0694 -0.1282
  763MOL0     C 2879  10.162   5.962   1.564  0.0285  0.1896  0.1855
  763MOL0     C 2880  10.088   5.831   1.554  0.5015  0.0893  0.6778
  763MOL0     C 2881  10.171   5.701   1.523  1.2587 -0.1784 -0.1701
  763MOL0     C 2882  10.253   5.631   1.629 -0.2416  0.1139 -0.1439
  763MOL0     C 2883  10.201   5.492   1.675 -2.2329 -0.4593  0.7245
  763MOL0     C 2884  10.086   5.492   1.769 -0.8566 -0.2408 -1.1150
  763MOL0     C 2885  10.060   5.346   1.795 -0.1802  0.3845 -0.6331
  763MOL0     C 2886   9.972   5.343   1.926  0.1047  0.2117  0.2251
  763MOL0     N 2887   9.886   5.224   1.938 -1.2963  0.0505  0.0153
  763MOL0     C 2888   9.759   5.220   1.903  0.2890 -0.1296 -1.4512
  763MOL0     C 2889   9.715   5.096   1.917 -1.3449  0.7751  0.1576
  763MOL0     C 2890   9.579   5.044   1.895 -0.5312 -1.6374  0.4474
  763MOL0     C 2891   9.540   5.013   1.754 -0.5145 -0.0519  0.3707
  763MOL0     C 2892   9.633   4.914   1.684 -0.3830  0.2254 -0.0093
  763MOL0     C 2893   9.574   4.894   1.542  0.1599 -0.0618 -0.0198
  763MOL0     O 2894   9.461   4.796   1.539 -0.4083 -0.5706  0.5303
  763MOL0     C 2895   9.484   4.675   1.471 -0.4967 -0.8278 -0.4530
  763MOL0     C 2896   9.401   4.619   1.376 -0.9210 -0.1674  0.1099
  763MOL0     C 2897   9.406   4.479   1.357  0.1513 -0.1084 -0.4173
  763MOL0     C 2898   9.511   4.403   1.407 -0.6300  0.2062  0.0739
  763MOL0     C 2899   9.519   4.256   1.383  1.1185  0.9553 -0.6508
  763MOL0     O 2900   9.409   4.204   1.329  0.3052 -0.1614  0.3345
  763MOL0     C 2901   9.427   4.078   1.259 -0.2117 -0.6348 -0.0857
  763MOL0     C 2902   9.530   4.056   1.167  0.2263 -0.2135  0.3274
  763MOL0     C 2903   9.554   3.935   1.113  0.2988 -0.4925  0.5526
  763MOL0     C 2904   9.458   3.831   1.139  0.5721 -0.3985 -0.2238
  763MOL0     O 2905   9.484   3.716   1.083  0.5575  0.1367 -0.5214
  763MOL0     C 2906   9.390   3.605   1.083  0.1320  0.4971 -0.3309
  763MOL0     C 2907   9.436   3.506   0.977 -1.2419 -0.4090  0.3496
  763MOL0     C 2908   9.578   3.460   1.005  0.7801  0.0129 -0.4886
  763MOL0     C 2909   9.620   3.336   0.922  0.4997 -0.6414  0.4879
  763MOL0     C 2910   9.749   3.280   0.991  0.8282 -0.3805  0.5833
  763MOL0     C 2911   9.782   3.144   0.918  0.4399  0.3069 -0.5120
  763MOL0     C 2912   9.921   3.099   0.956  0.6855 -0.3628 -0.0060
  763MOL0     C 2913   9.942   2.950   0.937  0.1922  0.6923 -0.0634
  763MOL0    Cl 2914   9.830   2.836   1.017 -0.1201 -0.4942  0.0818
  763MOL0     C 2915   9.340   3.859   1.225 -0.0866  0.1046 -0.5210
  763MOL0     C 2916   9.340   3.976   1.279 -0.4382  0.1237  0.0801
  763MOL0     O 2917   9.614   4.192   1.432 -0.5384 -0.3625 -0.5164
  763MOL0     C 2918   9.611   4.466   1.484  0.1772  0.6587  0.3037
  763MOL0     C 2919   9.592   4.599   1.515  0.2569  0.0229  0.0724
  763MOL0     N 2920   9.827   5.016   1.955 -0.0506 -1.1949 -0.4745
  763MOL0     N 2921   9.928   5.095   1.966 -0.2154  0.4524  0.4664
  763MOL0     C 2922  10.315   6.207   1.473  0.3163  0.0157  0.8227
  763MOL0     C 2923  10.390   6.306   1.408 -0.1743  0.3759 -0.0929
  763MOL0     C 2924  10.566   6.630   1.160  0.0128 -0.3953  0.5514
  763MOL0     C 2925  10.693   6.575   1.117  0.0347 -0.1171 -0.5763
  763MOL0     C 2926  10.787   6.637   1.052  0.7592  0.4550  0.4107
  763MOL0     C 2927  10.774   6.770   1.011  0.1007 -0.4727  0.0563
  763MOL0     O 2928  10.859   6.841   0.942 -0.1102  0.0177  0.3853
  763MOL0     C 2929  10.928   6.770   0.833  0.3156 -0.3059 -0.2433
  763MOL0     C 2930  11.034   6.859   0.769 -1.4262  0.2353  0.7228
  763MOL0     C 2931  10.981   6.996   0.732 -0.6023 -0.7120 -0.3148
  763MOL0     C 2932  10.871   6.998   0.637  0.1747 -0.1079 -0.8042
  763MOL0     C 2933  10.826   7.133   0.613  0.3475 -0.1352  0.4316
  763MOL0     C 2934  10.811   7.248   0.574  0.5747 -0.1905  0.4721
  763MOL0     C 2935  10.654   6.844   1.058  0.2594  0.4296  0.0408
  763MOL0     C 2936  10.550   6.769   1.129 -0.3166  0.2053 -0.3512
  763MOL0     C 2937  10.434   6.846   1.180 -0.3126 -0.2640 -0.8107
  763MOL0     H 2938  10.330   6.260   1.076  1.6030 -0.0581 -0.5287
  763MOL0     H 2939  10.189   6.071   1.189 -0.2449  0.4432 -1.3254
  763MOL0     H 2940  10.248   5.956   1.632  0.2620 -0.8222 -0.1885
  763MOL0     H 2941  10.088   6.034   1.601 -0.1477  1.0022 -1.6361
  763MOL0     H 2942  10.016   5.838   1.472  0.1459 -0.4229  0.9359
  763MOL0     H 2943  10.024   5.819   1.641  0.7130 -1.5150  0.6493
  763MOL0     H 2944  10.236   5.733   1.442 -0.3161  2.0382 -0.6585
  763MOL0     H 2945  10.107   5.622   1.482 -1.5016  1.9412 -0.2478
  763MOL0     H 2946  10.350   5.622   1.578  0.4507  2.3869  0.6429
  763MOL0     H 2947  10.275   5.701   1.710  0.8348 -2.2025  1.6549
  763MOL0     H 2948  10.188   5.444   1.577  2.0772  2.6732 -1.7628
  763MOL0     H 2949  10.282   5.436   1.723  0.0795  0.0258 -2.3035
  763MOL0     H 2950  10.116   5.546   1.859 -0.4326  2.2969 -2.6489
  763MOL0     H 2951   9.997   5.544   1.732 -0.6689  0.3710 -0.7112
  763MOL0     H 2952  10.150   5.283   1.799 -1.0091 -0.7483  1.6404
  763MOL0     H 2953   9.991   5.303   1.723 -1.3227 -2.6573  2.0106
  763MOL0     H 2954  10.046   5.343   2.007 -0.7913 -1.1636  1.0800
  763MOL0     H 2955   9.915   5.436   1.931  0.3948  0.5936 -2.3400
  763MOL0     H 2956   9.698   5.306   1.877  1.9267  0.9738 -1.7839
  763MOL0     H 2957   9.561   4.958   1.961 -0.5476 -0.2437  2.3227
  763MOL0     H 2958   9.506   5.122   1.914 -1.2660 -1.8064 -1.4134
  763MOL0     H 2959   9.437   4.978   1.760 -1.6085  2.2701 -2.6250
  763MOL0     H 2960   9.541   5.102   1.691  1.9585  0.1306  0.5502
  763MOL0     H 2961   9.630   4.819   1.737  1.6313  0.8167  1.2614
  763MOL0     H 2962   9.737   4.946   1.679  0.0134 -0.8851  0.7672
  763MOL0     H 2963   9.658   4.855   1.484  1.5654  0.0814  1.8311
  763MOL0     H 2964   9.531   4.991   1.512 -4.2488 -2.1487 -1.4266
  763MOL0     H 2965   9.318   4.681   1.343 -1.6164 -1.8501 -1.4843
  763MOL0     H 2966   9.316   4.439   1.311 -1.2829  0.3384  1.8203
  763MOL0     H 2967   9.606   4.124   1.128 -2.5484  0.9674 -3.6045
  763MOL0     H 2968   9.642   3.912   1.055 -0.9604 -0.5488 -1.4433
  763MOL0     H 2969   9.380   3.566   1.185  0.0412 -1.3988 -1.0403
  763MOL0     H 2970   9.289   3.635   1.053  0.5077 -0.6186 -3.0112
  763MOL0     H 2971   9.369   3.421   0.994 -0.2641 -1.2165  0.2517
  763MOL0     H 2972   9.434   3.560   0.882  1.3375  2.4852  1.7422
  763MOL0     H 2973   9.655   3.538   0.997  0.8083  0.0069 -0.2867
  763MOL0     H 2974   9.581   3.430   1.110 -2.3573  1.4195  0.1025
  763MOL0     H 2975   9.614   3.341   0.813 -1.8404 -4.0267  0.3222
  763MOL0     H 2976   9.538   3.273   0.958 -1.4429  0.6735 -1.4063
  763MOL0     H 2977   9.744   3.262   1.099  2.0151  3.5360  1.4578
  763MOL0     H 2978   9.824   3.359   0.979  0.8740 -0.3040  1.3161
  763MOL0     H 2979   9.707   3.066   0.938 -1.5034  0.9350 -4.4345
  763MOL0     H 2980   9.781   3.155   0.809  2.0469 -0.7408 -0.6646
  763MOL0     H 2981   9.939   3.127   1.060 -1.4478  0.8589  0.0812
  763MOL0     H 2982   9.995   3.159   0.902  0.1175  2.6924  2.3616
  763MOL0     H 2983   9.948   2.947   0.828  1.8149  3.4568 -0.1344
  763MOL0     H 2984  10.033   2.916   0.987 -0.4460 -0.5696  0.2793
  763MOL0     H 2985   9.256   3.793   1.246 -0.5193  0.7749 -0.0830
  763MOL0     H 2986   9.262   4.004   1.349 -1.4669 -0.3202 -0.8550
  763MOL0     H 2987   9.689   4.406   1.530  0.4182 -1.8879 -3.0549
  763MOL0     H 2988   9.660   4.653   1.581  1.2027 -0.5795 -0.3922
  763MOL0     H 2989  10.327   6.195   1.580  4.6599 -1.6002  0.3483
  763MOL0     H 2990  10.463   6.362   1.465 -1.0812  0.8259  0.6656
  763MOL0     H 2991  10.713   6.470   1.136 -0.8035 -0.0964  0.4822
  763MOL0     H 2992  10.874   6.581   1.019  0.2245 -0.6586  0.8118
  763MOL0     H 2993  10.854   6.731   0.763 -0.2854  0.3253  0.0333
  763MOL0     H 2994  10.988   6.686   0.868 -1.4857 -0.5046  2.6664
  763MOL0     H 2995  11.084   6.814   0.683  3.2082  2.4142  1.9516
  763MOL0     H 2996  11.110   6.858   0.848 -2.0792  2.7170  1.4861
  763MOL0     H 2997  11.066   7.052   0.692  1.1737 -3.1961 -0.2439
  763MOL0     H 2998  10.946   7.042   0.825  1.3719  0.0932  0.0947
  763MOL0     H 2999  10.899   6.941   0.548 -0.0564 -0.9690 -0.3339
  763MOL0     H 3000  10.792   6.941   0.688  2.7913 -2.2146  1.1766
  763MOL0     H 3001  10.805   7.349   0.540  0.4760 -0.5324 -0.5626
  763MOL0     H 3002  10.641   6.948   1.028  2.7415  1.7446  2.9990
  763MOL0     H 3003  10.450   6.952   1.158  1.1770 -0.7269 -2.0431
  763MOL0     H 3004  10.349   6.811   1.121 -2.6049  0.3107  1.8933
  763MOL0     H 3005  10.420   6.833   1.288 -1.6609 -0.3262 -0.9725
  764MOL0     O 3006   5.205   4.459   1.459 -0.5438  0.7283  0.3767
  764MOL0     C 3007   5.281   4.553   1.457  0.1475  0.5190  0.7920
  764MOL0     O 3008   5.329   4.608   1.341 -0.4939  0.0101  0.0305
  764MOL0     C 3009   5.331   4.525   1.236 -1.1616  0.1875 -0.3573
  764MOL0     C 3010   5.225   4.503   1.154  0.1634 -0.7878 -0.2469
  764MOL0     C 3011   5.236   4.424   1.048 -0.1563  0.1635 -0.3089
  764MOL0     C 3012   5.352   4.351   1.024  0.3596 -0.1237  0.1192
  764MOL0     O 3013   5.355   4.249   0.925  0.0462  0.6479  0.0568
  764MOL0     C 3014   5.468   4.173   0.892 -0.8010 -0.2911 -0.8405
  764MOL0     C 3015   5.431   4.063   0.790  0.2595  0.2294  0.7537
  764MOL0     C 3016   5.370   4.127   0.665  0.6655 -0.0078 -0.0932
  764MOL0     C 3017   5.383   4.027   0.549  0.7326 -1.1565 -1.0579
  764MOL0     C 3018   5.341   4.076   0.411  0.0057  0.1778 -1.1467
  764MOL0     C 3019   5.195   4.101   0.395  0.1843 -0.5128  1.0328
  764MOL0     C 3020   5.125   3.968   0.364 -0.7290 -0.1997  0.5319
  764MOL0     C 3021   4.974   3.999   0.338 -0.0356  0.2773 -1.0982
  764MOL0     N 3022   4.891   3.985   0.466 -0.3084 -0.0753  0.2447
  764MOL0     C 3023   4.876   4.077   0.569  0.3811 -0.1632 -0.3254
  764MOL0     C 3024   4.807   4.014   0.665  0.5193 -0.8483  1.3709
  764MOL0     C 3025   4.777   4.055   0.812  0.5507 -0.9056  0.6411
  764MOL0     C 3026   4.909   4.069   0.892 -0.4724 -0.7811  1.1358
  764MOL0     C 3027   4.984   3.941   0.903  0.5138  0.3206 -0.3768
  764MOL0     C 3028   5.105   3.948   0.997 -0.1387  0.0451 -0.3957
  764MOL0     O 3029   5.067   4.012   1.125 -0.5655 -0.1259 -0.2722
  764MOL0     C 3030   5.168   4.028   1.218 -0.3236  0.4292 -0.0756
  764MOL0     C 3031   5.126   4.090   1.329 -0.0219 -0.1939  0.3365
  764MOL0     C 3032   5.228   4.135   1.412  0.9174  0.4717 -0.0801
  764MOL0     C 3033   5.360   4.099   1.398 -0.1727 -0.5790 -1.2291
  764MOL0     C 3034   5.465   4.149   1.503 -0.4885 -0.9259 -0.0999
  764MOL0     O 3035   5.428   4.258   1.590  0.0754 -0.3851  0.4926
  764MOL0     C 3036   5.460   4.257   1.719 -0.0538  0.1546  0.7042
  764MOL0     C 3037   5.460   4.379   1.785 -0.2891 -0.4375 -0.4381
  764MOL0     C 3038   5.479   4.393   1.921 -0.7438 -0.1490  0.2941
  764MOL0     C 3039   5.494   4.279   1.996  0.2322 -1.1037 -0.4728
  764MOL0     O 3040   5.508   4.277   2.131 -0.4428  0.0855  0.3492
  764MOL0     C 3041   5.515   4.397   2.202 -0.0007  1.0287  0.4350
  764MOL0     C 3042   5.381   4.457   2.242 -0.9212  0.1791  0.5952
  764MOL0     C 3043   5.273   4.357   2.265 -1.1123  0.4121  0.1978
  764MOL0     C 3044   5.128   4.405   2.270  0.4999  0.6188  0.1290
  764MOL0     C 3045   5.071   4.479   2.150  0.3489  0.3055 -0.2415
  764MOL0     C 3046   4.922   4.518   2.162 -0.6097  0.2151  0.0550
  764MOL0     C 3047   4.890   4.642   2.248  0.3683 -0.2173 -0.4165
  764MOL0     C 3048   4.977   4.761   2.220 -0.4297 -0.1852 -0.5355
  764MOL0    Cl 3049   4.973   4.814   2.043  0.0008  0.2041 -0.0264
  764MOL0     C 3050   5.496   4.146   1.932  0.1490 -0.6469 -0.5217
  764MOL0     C 3051   5.476   4.135   1.788  0.8272 -0.0710 -0.4384
  764MOL0     O 3052   5.575   4.092   1.502  0.1803 -0.1453  0.6160
  764MOL0     C 3053   5.400   4.017   1.294  0.4720 -0.6244  0.5163
  764MOL0     C 3054   5.296   3.988   1.205  0.2246  0.9950 -0.0177
  764MOL0     N 3055   4.764   3.890   0.606 -0.1208 -1.3885 -0.3380
  764MOL0     N 3056   4.814   3.872   0.489  0.1073  0.0038 -0.4773
  764MOL0     C 3057   5.459   4.383   1.107 -0.7498 -0.7898 -0.3677
  764MOL0     C 3058   5.448   4.455   1.222  0.2207 -0.0454 -0.5616
  764MOL0     C 3059   5.300   4.638   1.571  2.5000 -0.2800 -0.4590
  764MOL0     C 3060   5.377   4.756   1.557  0.3363 -0.2106 -0.4621
  764MOL0     C 3061   5.403   4.838   1.673 -0.6018  0.6908  0.8069
  764MOL0     C 3062   5.342   4.811   1.800  0.3024 -0.1281 -0.4914
  764MOL0     O 3063   5.372   4.898   1.905  0.4940 -0.0516 -0.0427
  764MOL0     C 3064   5.487   4.888   1.979  0.1141 -0.0194  0.1795
  764MOL0     C 3065   5.460   4.817   2.108 -0.5725  0.0684  0.8522
  764MOL0     C 3066   5.389   4.908   2.209 -0.7588 -0.3934 -0.0331
  764MOL0     C 3067   5.364   4.845   2.347  0.5406  0.4780  0.2830
  764MOL0     C 3068   5.485   4.803   2.403 -0.4543  0.7988  0.3950
  764MOL0     C 3069   5.596   4.774   2.447 -0.2377  0.5227 -0.6356
  764MOL0     C 3070   5.256   4.698   1.813 -0.5426  0.5479  0.6402
  764MOL0     C 3071   5.233   4.620   1.699  0.9427 -0.6361 -0.1450
  764MOL0     C 3072   5.148   4.498   1.729  0.1228 -0.3301  1.3234
  764MOL0     H 3073   5.134   4.553   1.187  1.4831  0.3968  1.7800
  764MOL0     H 3074   5.147   4.398   0.990  0.1766 -1.5129 -0.1371
  764MOL0     H 3075   5.542   4.244   0.854  0.8934 -1.6751 -0.2423
  764MOL0     H 3076   5.508   4.129   0.983 -2.1269 -1.5672 -0.8360
  764MOL0     H 3077   5.357   3.997   0.835  2.1093 -3.5809 -1.3506
  764MOL0     H 3078   5.519   4.003   0.764 -0.9391 -0.7031 -1.3745
  764MOL0     H 3079   5.418   4.225   0.661 -2.5798  1.6403 -1.4677
  764MOL0     H 3080   5.267   4.148   0.693  0.7150  1.4935 -0.9415
  764MOL0     H 3081   5.490   4.007   0.545  0.6061 -1.6534 -3.5588
  764MOL0     H 3082   5.328   3.936   0.576  0.2856 -0.7163 -0.4548
  764MOL0     H 3083   5.409   4.158   0.385  1.9059 -1.6983 -2.4129
  764MOL0     H 3084   5.379   4.002   0.340 -2.0530 -0.0131 -2.1264
  764MOL0     H 3085   5.153   4.134   0.491  2.3248 -1.3852  2.3426
  764MOL0     H 3086   5.172   4.167   0.311 -2.2531 -2.2735  0.2060
  764MOL0     H 3087   5.143   3.895   0.443  3.5730 -0.5577 -0.5264
  764MOL0     H 3088   5.169   3.923   0.274 -2.3626  1.0901 -1.0048
  764MOL0     H 3089   4.964   4.097   0.291 -1.9105  0.8085  0.3133
  764MOL0     H 3090   4.947   3.933   0.255  3.1706 -0.8085 -1.4283
  764MOL0     H 3091   4.946   4.159   0.576  2.8288 -2.0531 -1.2529
  764MOL0     H 3092   4.740   4.158   0.815 -1.7364 -1.6084 -0.7290
  764MOL0     H 3093   4.691   3.996   0.844  0.4723 -1.0780  0.1259
  764MOL0     H 3094   4.976   4.143   0.847 -0.4982 -1.2010  0.3836
  764MOL0     H 3095   4.887   4.102   0.994 -2.1386  0.9463  0.2640
  764MOL0     H 3096   5.022   3.901   0.809 -3.2008  1.0746 -2.3960
  764MOL0     H 3097   4.920   3.861   0.943  3.6837 -2.3803 -0.2173
  764MOL0     H 3098   5.176   4.017   0.951  1.2321 -1.2108 -0.2188
  764MOL0     H 3099   5.151   3.850   1.012 -3.0830 -1.5019 -0.8040
  764MOL0     H 3100   5.021   4.118   1.330 -0.1787 -0.7363 -0.2326
  764MOL0     H 3101   5.189   4.204   1.487 -2.9676  0.2428 -1.6216
  764MOL0     H 3102   5.460   4.472   1.728 -3.2957 -0.5599 -0.7814
  764MOL0     H 3103   5.474   4.493   1.961 -2.7559 -0.7180  1.5988
  764MOL0     H 3104   5.556   4.355   2.294  0.9254 -0.8692 -0.7681
  764MOL0     H 3105   5.582   4.470   2.156 -0.3716  0.2851 -1.3907
  764MOL0     H 3106   5.394   4.522   2.329 -1.5196  0.9884  0.1033
  764MOL0     H 3107   5.352   4.511   2.151 -0.3821 -2.4525 -1.2433
  764MOL0     H 3108   5.277   4.292   2.177 -1.1549  2.3746 -1.3378
  764MOL0     H 3109   5.298   4.302   2.356 -0.6711  1.1036  0.5021
  764MOL0     H 3110   5.137   4.469   2.358  1.3786  1.5741 -0.6378
  764MOL0     H 3111   5.052   4.329   2.292  0.5903 -0.2708 -2.3288
  764MOL0     H 3112   5.080   4.411   2.065  2.1763 -1.7308  1.4709
  764MOL0     H 3113   5.121   4.574   2.131 -2.0384  0.9939 -4.3957
  764MOL0     H 3114   4.890   4.545   2.061  2.8945  2.6463 -0.6055
  764MOL0     H 3115   4.866   4.429   2.190 -1.3711 -0.6446 -3.6600
  764MOL0     H 3116   4.905   4.610   2.352  0.9685 -0.0011 -0.4298
  764MOL0     H 3117   4.787   4.677   2.241  0.4435  0.8779  2.5106
  764MOL0     H 3118   4.945   4.847   2.281  1.8395 -0.2510  0.8744
  764MOL0     H 3119   5.084   4.747   2.239  0.4183  2.4949 -2.6566
  764MOL0     H 3120   5.500   4.057   1.994 -4.9354 -0.1785  0.9438
  764MOL0     H 3121   5.471   4.037   1.741  1.0292  0.0472 -0.7087
  764MOL0     H 3122   5.501   3.977   1.283  1.1625  0.9453  0.8710
  764MOL0     H 3123   5.339   3.930   1.124 -1.0606 -0.5561  0.3446
  764MOL0     H 3124   5.559   4.345   1.083  1.0299  2.8997  0.5344
  764MOL0     H 3125   5.524   4.456   1.300 -0.7171  0.9650  0.3811
  764MOL0     H 3126   5.416   4.792   1.463 -2.5536  3.6075 -0.4365
  764MOL0     H 3127   5.470   4.921   1.654  1.7367 -1.2113  0.1687
  764MOL0     H 3128   5.520   4.989   2.006  1.3989 -1.0030  2.5842
  764MOL0     H 3129   5.564   4.842   1.917  0.5871  1.7652 -0.6110
  764MOL0     H 3130   5.556   4.778   2.143 -0.7302  0.9277  2.3267
  764MOL0     H 3131   5.394   4.735   2.077 -0.9149  0.1953  1.2356
  764MOL0     H 3132   5.299   4.950   2.162 -0.4876 -2.8011 -3.0985
  764MOL0     H 3133   5.453   4.992   2.237 -0.2651 -0.5134 -0.7833
  764MOL0     H 3134   5.311   4.913   2.414 -1.0351 -2.4561  2.1892
  764MOL0     H 3135   5.299   4.758   2.339 -0.1049  0.6650  2.7612
  764MOL0     H 3136   5.693   4.747   2.484  0.2470  2.8927 -0.0215
  764MOL0     H 3137   5.206   4.675   1.907 -0.6299  0.9714  0.6991
  764MOL0     H 3138   5.105   4.490   1.829 -0.7163 -1.3167  0.8917
  764MOL0     H 3139   5.065   4.504   1.659  0.8835 -0.7699  0.3586
  764MOL0     H 3140   5.196   4.402   1.708 -1.6253 -1.4420  2.1830
  765MOL0     O 3141   5.881  11.447   3.718 -0.3357  0.5237  0.4440
  765MOL0     C 3142   5.990  11.392   3.722 -0.1760  0.6341 -1.1459
  765MOL0     O 3143   6.113  11.446   3.691 -1.2755 -0.1938 -0.6938
  765MOL0     C 3144   6.111  11.582   3.689  1.1424  0.4902  1.0578
  765MOL0     C 3145   6.125  11.658   3.572  1.0715  0.1629 -0.2953
  765MOL0     C 3146   6.109  11.798   3.571  0.3283 -1.0597 -0.0193
  765MOL0     C 3147   6.077  11.864   3.687  0.9141  0.0320 -0.1232
  765MOL0     O 3148   6.070  12.001   3.667 -0.0941  0.6004  0.0012
  765MOL0     C 3149   6.007  12.076   3.767  0.0971  0.5941 -0.3644
  765MOL0     C 3150   6.004  12.226   3.710  0.1486  0.8728  0.4095
  765MOL0     C 3151   5.918  12.244   3.585 -0.7487 -0.4854 -0.0812
  765MOL0     C 3152   5.922  12.396   3.554 -0.7089 -0.4035  0.7918
  765MOL0     C 3153   5.867  12.418   3.421  0.3334  0.4862  0.0344
  765MOL0     C 3154   5.855  12.568   3.386 -0.4416 -0.9058 -0.3533
  765MOL0     C 3155   5.818  12.590   3.239 -0.3946  0.0125 -0.5349
  765MOL0     C 3156   5.822  12.739   3.204  1.4434  1.3050  0.7628
  765MOL0     N 3157   5.949  12.800   3.230 -0.5691 -0.0502 -0.7590
  765MOL0     C 3158   5.976  12.889   3.327 -0.6055 -0.1029 -0.2644
  765MOL0     C 3159   6.102  12.946   3.298  0.5569 -0.2711 -0.4362
  765MOL0     C 3160   6.181  13.038   3.388  0.1570  0.2380  0.4110
  765MOL0     C 3161   6.203  13.164   3.311  0.1250  0.2685  0.6800
  765MOL0     C 3162   6.078  13.251   3.290 -0.0499  0.2278  0.0635
  765MOL0     C 3163   6.122  13.393   3.240  0.2920 -0.2032 -0.2294
  765MOL0     O 3164   6.022  13.488   3.271  0.9550  0.4633  0.1274
  765MOL0     C 3165   6.044  13.625   3.244 -1.9779 -0.1676  0.0637
  765MOL0     C 3166   6.156  13.681   3.181  0.0774  0.2419  0.5369
  765MOL0     C 3167   6.153  13.817   3.151  0.3961  0.0993 -0.7883
  765MOL0     C 3168   6.053  13.900   3.185  0.0927  1.0014  0.0380
  765MOL0     C 3169   6.064  14.041   3.157  0.3097 -1.1164 -0.5111
  765MOL0     O 3170   5.954  14.126   3.188 -0.5282 -0.0959  0.4308
  765MOL0     C 3171   5.941  14.250   3.129  0.2776  0.3990  0.1333
  765MOL0     C 3172   5.881  14.339   3.215  0.0405 -0.0002 -0.5315
  765MOL0     C 3173   5.876  14.477   3.182  0.0626 -0.9060  0.4220
  765MOL0     C 3174   5.915  14.519   3.049 -0.3607  0.3087  0.2031
  765MOL0     O 3175   5.913  14.647   3.017  0.0621  0.2985  0.1916
  765MOL0     C 3176   5.998  14.744   3.083  0.3379 -0.2887 -1.2686
  765MOL0     C 3177   6.106  14.790   3.000  0.4359  0.7874  0.1738
  765MOL0     C 3178   6.080  14.817   2.848 -0.1216  0.0850 -1.2591
  765MOL0     C 3179   6.208  14.868   2.791  0.2329 -0.4282 -0.2968
  765MOL0     C 3180   6.213  14.861   2.635  0.6120 -0.4027  0.4510
  765MOL0     C 3181   6.078  14.911   2.576 -0.8053  0.7520  1.4496
  765MOL0     C 3182   6.028  15.052   2.615 -0.2360 -0.4076  0.3607
  765MOL0     C 3183   5.892  15.087   2.543  0.3323 -0.6830 -0.2372
  765MOL0    Cl 3184   5.901  15.088   2.368  0.3135 -0.0125  0.4218
  765MOL0     C 3185   5.960  14.423   2.962  0.4328  0.2881  0.5249
  765MOL0     C 3186   5.985  14.292   2.997  0.2266  0.1881 -0.0295
  765MOL0     O 3187   6.166  14.078   3.102 -0.0073  0.4244 -0.8742
  765MOL0     C 3188   5.942  13.844   3.246  0.5069 -0.9852  0.1654
  765MOL0     C 3189   5.940  13.708   3.279  0.7333  0.6897 -0.1644
  765MOL0     N 3190   6.144  12.893   3.170 -0.3244  0.1591 -0.0343
  765MOL0     N 3191   6.048  12.811   3.139 -0.1414  0.8462  0.2352
  765MOL0     C 3192   6.057  11.791   3.808 -0.3899  0.7289  0.5706
  765MOL0     C 3193   6.071  11.648   3.806  0.0909  0.1221 -1.1218
  765MOL0     C 3194   5.983  11.246   3.750 -0.3185 -0.7906 -0.3755
  765MOL0     C 3195   5.999  11.155   3.651 -0.5925 -0.0340 -0.2839
  765MOL0     C 3196   5.977  11.021   3.660 -0.1462 -0.3346  0.4351
  765MOL0     C 3197   5.938  10.977   3.782  0.0831  0.6335 -0.3471
  765MOL0     O 3198   5.914  10.841   3.808  1.1636  0.4243 -0.4245
  765MOL0     C 3199   5.869  10.749   3.711 -1.2038  1.0950  0.6480
  765MOL0     C 3200   5.731  10.692   3.763  0.5928 -0.7386 -0.3798
  765MOL0     C 3201   5.621  10.794   3.784  0.8464 -0.1321  0.6795
  765MOL0     C 3202   5.484  10.716   3.763  1.0276  0.3729 -0.0107
  765MOL0     C 3203   5.357  10.800   3.780 -0.0132  1.0293 -0.5086
  765MOL0     C 3204   5.264  10.870   3.806  0.0876 -0.0285  0.0871
  765MOL0     C 3205   5.919  11.055   3.896 -0.4605  0.0527  0.1168
  765MOL0     C 3206   5.945  11.190   3.871  1.0045  0.3112  0.1633
  765MOL0     C 3207   5.935  11.286   3.983  0.9826  0.4379 -1.1549
  765MOL0     H 3208   6.141  11.598   3.483  2.6390 -0.8453  0.6290
  765MOL0     H 3209   6.133  11.859   3.484  0.6579 -0.3953  0.5289
  765MOL0     H 3210   5.903  12.043   3.779 -0.6755  2.5408 -1.1750
  765MOL0     H 3211   6.050  12.065   3.866 -0.2728  0.6843 -0.1912
  765MOL0     H 3212   6.106  12.253   3.683  1.0911  0.3422  3.0861
  765MOL0     H 3213   5.959  12.296   3.782 -2.1977  0.7093 -0.8108
  765MOL0     H 3214   5.819  12.214   3.621  0.3944 -1.4809  2.5601
  765MOL0     H 3215   5.952  12.183   3.501  1.3860 -2.2679  1.9031
  765MOL0     H 3216   5.867  12.452   3.631 -2.3270 -1.2007  0.2513
  765MOL0     H 3217   6.025  12.430   3.568 -0.7006 -0.4846  0.9277
  765MOL0     H 3218   5.928  12.372   3.342  0.6019 -2.7176  1.9404
  765MOL0     H 3219   5.767  12.373   3.421  0.4027  0.2593 -1.8068
  765MOL0     H 3220   5.788  12.619   3.455  1.4905 -1.3858  1.9815
  765MOL0     H 3221   5.957  12.606   3.396 -0.6728  0.1221 -1.5672
  765MOL0     H 3222   5.721  12.551   3.209 -0.2188 -0.3979 -0.5661
  765MOL0     H 3223   5.891  12.544   3.173  0.7842  1.1662 -0.0882
  765MOL0     H 3224   5.790  12.748   3.100  1.3001 -0.5523  0.6046
  765MOL0     H 3225   5.750  12.784   3.273  0.3316 -0.5131  0.8571
  765MOL0     H 3226   5.909  12.907   3.411 -2.3978 -2.4631 -1.0919
  765MOL0     H 3227   6.131  13.043   3.485 -2.6027  2.1008 -0.9665
  765MOL0     H 3228   6.280  12.999   3.410  0.3937  1.4598  1.6892
  765MOL0     H 3229   6.273  13.234   3.358  1.3557  0.7811 -1.7634
  765MOL0     H 3230   6.254  13.135   3.219  0.2654 -0.6082  1.0317
  765MOL0     H 3231   6.020  13.260   3.382 -2.1612 -0.0805 -1.1624
  765MOL0     H 3232   6.015  13.200   3.215  0.3342 -1.4204  0.8122
  765MOL0     H 3233   6.134  13.382   3.132 -3.6712  0.2321 -0.8758
  765MOL0     H 3234   6.208  13.438   3.292 -2.4525  3.3463  1.8109
  765MOL0     H 3235   6.243  13.630   3.141 -2.0195 -0.9162 -3.0230
  765MOL0     H 3236   6.240  13.853   3.097  0.7532 -2.4480 -2.0846
  765MOL0     H 3237   5.840  14.320   3.314 -0.8971 -0.2897 -0.9609
  765MOL0     H 3238   5.829  14.547   3.252  0.6218 -0.3618  0.2649
  765MOL0     H 3239   5.942  14.832   3.117  0.5341 -0.7062  0.2307
  765MOL0     H 3240   6.041  14.702   3.175 -1.6206 -1.4941 -0.8332
  765MOL0     H 3241   6.139  14.885   3.045 -3.5278  2.1414  0.5823
  765MOL0     H 3242   6.182  14.711   2.997 -0.4802 -0.0951 -1.7145
  765MOL0     H 3243   6.039  14.727   2.800 -0.1278 -0.5196 -0.1569
  765MOL0     H 3244   6.004  14.894   2.833  1.4916  1.9793 -0.1552
  765MOL0     H 3245   6.285  14.801   2.829  0.2713  1.7685  4.0196
  765MOL0     H 3246   6.234  14.963   2.839 -0.1714 -0.1783 -0.5583
  765MOL0     H 3247   6.222  14.753   2.617  2.1817 -0.8500  3.3518
  765MOL0     H 3248   6.304  14.912   2.603 -0.1663  0.2970 -0.7597
  765MOL0     H 3249   6.100  14.919   2.469 -0.5314  0.9582  1.5208
  765MOL0     H 3250   6.010  14.825   2.580  0.5711 -0.4149  0.6008
  765MOL0     H 3251   6.098  15.125   2.574 -1.1365  0.7317  0.7887
  765MOL0     H 3252   6.023  15.066   2.723  1.2002 -0.6778  0.4847
  765MOL0     H 3253   5.813  15.018   2.576  1.2082 -0.6830  2.0040
  765MOL0     H 3254   5.852  15.185   2.571  2.7427 -0.6289  3.5633
  765MOL0     H 3255   5.981  14.450   2.859 -0.7888  0.7051  0.3668
  765MOL0     H 3256   6.024  14.227   2.919  0.4005  1.3660 -0.9356
  765MOL0     H 3257   5.858  13.906   3.275  0.1823 -1.6752  0.7366
  765MOL0     H 3258   5.847  13.669   3.317  0.0732  0.2830 -2.0660
  765MOL0     H 3259   6.029  11.845   3.898 -0.6678 -0.1429  1.0185
  765MOL0     H 3260   6.054  11.596   3.900  1.1571 -1.0505 -1.5524
  765MOL0     H 3261   6.030  11.194   3.554  0.2789 -0.8376 -0.3396
  765MOL0     H 3262   5.999  10.957   3.575  2.0080 -0.0390  0.7174
  765MOL0     H 3263   5.946  10.672   3.702 -3.2921 -0.8721 -1.8970
  765MOL0     H 3264   5.863  10.784   3.608  4.3251 -2.2877 -1.2695
  765MOL0     H 3265   5.743  10.646   3.861  0.1050 -1.0097 -0.4477
  765MOL0     H 3266   5.704  10.613   3.692  0.2675  0.1823 -1.3128
  765MOL0     H 3267   5.618  10.879   3.715 -1.5181 -0.6985 -0.0290
  765MOL0     H 3268   5.627  10.841   3.882  2.8448 -0.9831  0.9977
  765MOL0     H 3269   5.483  10.678   3.660 -0.3377 -2.7487  1.0246
  765MOL0     H 3270   5.473  10.627   3.825 -0.9641  0.0329 -0.7581
  765MOL0     H 3271   5.184  10.937   3.828  2.2025  2.9954 -0.7393
  765MOL0     H 3272   5.881  11.027   3.994 -0.6258 -1.8845 -0.4788
  765MOL0     H 3273   5.831  11.273   4.014  0.8664 -1.8989 -2.2669
  765MOL0     H 3274   5.997  11.268   4.072 -0.9783 -0.4482  0.0999
  765MOL0     H 3275   5.952  11.393   3.969  0.1424  1.1852  2.6098
  766MOL0     O 3276   5.263   6.230   6.653  0.5402 -0.4195 -1.0914
  766MOL0     C 3277   5.294   6.205   6.537  0.4176  0.5961 -0.3270
  766MOL0     O 3278   5.247   6.259   6.423  0.9320 -0.2158  0.8003
  766MOL0     C 3279   5.159   6.367   6.421 -0.2630  0.3812  0.4397
  766MOL0     C 3280   5.217   6.498   6.423 -0.6704 -0.2023  0.0028
  766MOL0     C 3281   5.137   6.609   6.405 -0.9213 -0.1006  0.4647
  766MOL0     C 3282   4.999   6.585   6.406  0.4267  0.1460 -0.0406
  766MOL0     O 3283   4.928   6.701   6.427 -0.9048  0.0870  0.2619
  766MOL0     C 3284   4.798   6.692   6.487 -0.1844  0.3866 -0.4867
  766MOL0     C 3285   4.752   6.836   6.531 -0.4814  0.1854  0.5959
  766MOL0     C 3286   4.614   6.818   6.595  0.0408 -1.0364  0.5879
  766MOL0     C 3287   4.550   6.946   6.656  0.9323  0.7983  0.0447
  766MOL0     C 3288   4.420   6.931   6.743 -0.5085  0.0990  1.2841
  766MOL0     C 3289   4.334   6.814   6.694 -1.1149  1.0566  0.1554
  766MOL0     C 3290   4.198   6.790   6.759  0.7209 -0.3749 -0.4935
  766MOL0     C 3291   4.199   6.752   6.913 -0.4302  0.2851 -0.4623
  766MOL0     N 3292   4.278   6.631   6.945 -0.0294 -0.2233  0.1814
  766MOL0     C 3293   4.365   6.619   7.052  0.5027 -0.1560 -0.5146
  766MOL0     C 3294   4.377   6.485   7.074 -0.8226  0.7301  0.3530
  766MOL0     C 3295   4.445   6.417   7.180 -0.0883  0.7660  0.2601
  766MOL0     C 3296   4.357   6.411   7.310  0.6302 -0.4150  0.2966
  766MOL0     C 3297   4.390   6.523   7.407  0.3801  0.4020  0.6977
  766MOL0     C 3298   4.279   6.529   7.514  0.5522  0.5365 -0.5393
  766MOL0     O 3299   4.280   6.397   7.571  0.9492 -0.2040 -0.3267
  766MOL0     C 3300   4.385   6.363   7.655 -0.8253 -0.5664 -0.1349
  766MOL0     C 3301   4.467   6.251   7.629  1.3012  0.0562 -0.1994
  766MOL0     C 3302   4.564   6.206   7.724  0.1434 -0.3658  0.7206
  766MOL0     C 3303   4.591   6.275   7.844  0.1118  0.1432  0.1063
  766MOL0     C 3304   4.716   6.245   7.928  0.2438 -1.3433 -0.5815
  766MOL0     O 3305   4.799   6.153   7.876 -0.4759  0.1811 -0.5233
  766MOL0     C 3306   4.903   6.100   7.945 -0.0839 -0.0854 -0.6688
  766MOL0     C 3307   4.895   5.964   7.990  0.3682 -0.0850  0.3861
  766MOL0     C 3308   5.005   5.909   8.053 -0.0086 -0.1259  1.0318
  766MOL0     C 3309   5.118   5.990   8.075 -0.9565  0.6023  0.2532
  766MOL0     O 3310   5.225   5.922   8.126  0.1988 -0.8744 -1.5929
  766MOL0     C 3311   5.361   5.952   8.064  0.4790  0.0395  0.2327
  766MOL0     C 3312   5.379   5.865   7.938  0.7131 -0.4738  0.4757
  766MOL0     C 3313   5.523   5.823   7.921 -0.0699  0.6879 -0.0149
  766MOL0     C 3314   5.532   5.706   7.821  0.2445  0.0868  0.4585
  766MOL0     C 3315   5.674   5.641   7.818  0.3751 -0.2150  1.0334
  766MOL0     C 3316   5.788   5.740   7.785  0.9068 -0.8571 -0.1217
  766MOL0     C 3317   5.880   5.761   7.912 -0.7100  0.0494 -0.5066
  766MOL0     C 3318   6.033   5.746   7.884 -0.1041  0.4331 -0.3928
  766MOL0    Cl 3319   6.099   5.586   7.914  0.1550  0.6204  0.3822
  766MOL0     C 3320   5.122   6.121   8.038 -0.1454  0.3881  1.0692
  766MOL0     C 3321   5.015   6.178   7.971 -0.7000 -0.2008  0.2204
  766MOL0     O 3322   4.729   6.312   8.038  0.6890 -0.4123  0.8945
  766MOL0     C 3323   4.503   6.386   7.873 -1.8538 -0.3846  0.7263
  766MOL0     C 3324   4.402   6.416   7.784 -0.2803  0.0066  0.1705
  766MOL0     N 3325   4.289   6.418   6.988 -0.1693 -1.3924  0.2220
  766MOL0     N 3326   4.236   6.512   6.910  0.1675  0.7060  0.9260
  766MOL0     C 3327   4.948   6.452   6.390 -0.3697 -1.4113  1.2165
  766MOL0     C 3328   5.026   6.348   6.399 -0.0169 -0.0334 -0.3900
  766MOL0     C 3329   5.399   6.109   6.516  0.3777 -0.2501 -0.3699
  766MOL0     C 3330   5.504   6.137   6.425 -0.4844  0.4890 -0.4357
  766MOL0     C 3331   5.607   6.049   6.401  0.7254  0.2455  0.6236
  766MOL0     C 3332   5.624   5.935   6.483  0.0332 -0.4084 -0.3011
  766MOL0     O 3333   5.714   5.832   6.459 -0.7314  0.8166 -0.4803
  766MOL0     C 3334   5.831   5.872   6.407 -0.6115  0.4937  0.6896
  766MOL0     C 3335   5.943   5.775   6.441 -0.5841 -0.0993 -0.7985
  766MOL0     C 3336   5.977   5.782   6.593  1.3819 -0.2345  0.5002
  766MOL0     C 3337   6.119   5.737   6.633 -0.3168  0.2937  0.1419
  766MOL0     C 3338   6.225   5.812   6.561 -0.5762 -1.1106 -0.4251
  766MOL0     C 3339   6.291   5.872   6.481  0.2580  0.6131 -0.1942
  766MOL0     C 3340   5.531   5.913   6.578 -0.4133 -0.0873 -0.6538
  766MOL0     C 3341   5.415   5.982   6.585  0.1092 -0.3916 -0.0452
  766MOL0     C 3342   5.312   5.951   6.696 -0.3530 -0.0790 -0.6215
  766MOL0     H 3343   5.325   6.500   6.425 -0.6446 -0.0661 -0.9488
  766MOL0     H 3344   5.173   6.709   6.424  0.5956 -1.1667  4.4134
  766MOL0     H 3345   4.719   6.641   6.431  1.6480 -2.9227 -0.3015
  766MOL0     H 3346   4.815   6.635   6.579  0.2446  0.9715 -0.1912
  766MOL0     H 3347   4.747   6.906   6.447  0.1842 -0.0276  0.3801
  766MOL0     H 3348   4.821   6.877   6.606  0.3069  2.8608 -1.4473
  766MOL0     H 3349   4.627   6.746   6.677  0.4032  0.4691  1.9007
  766MOL0     H 3350   4.552   6.758   6.528 -0.9756  0.2073  0.3901
  766MOL0     H 3351   4.627   6.997   6.716  2.3376  0.0434 -1.0778
  766MOL0     H 3352   4.527   7.008   6.569  0.9852  1.1163  0.2560
  766MOL0     H 3353   4.457   6.921   6.846 -1.7196  1.2208  1.8645
  766MOL0     H 3354   4.369   7.027   6.730  1.1772  0.6975 -1.9133
  766MOL0     H 3355   4.320   6.818   6.585 -1.2564 -0.2882  0.1036
  766MOL0     H 3356   4.382   6.718   6.712 -1.3545  0.8093 -0.4849
  766MOL0     H 3357   4.138   6.716   6.707  0.3456 -0.1144 -0.4387
  766MOL0     H 3358   4.130   6.876   6.755 -1.9428 -2.3614 -0.8962
  766MOL0     H 3359   4.235   6.839   6.969 -0.2605 -0.0597 -0.0378
  766MOL0     H 3360   4.096   6.742   6.949 -0.2678  3.8422  1.4887
  766MOL0     H 3361   4.415   6.687   7.120 -0.9954 -2.8568  3.6837
  766MOL0     H 3362   4.481   6.323   7.138  3.8675  1.6879  1.1786
  766MOL0     H 3363   4.540   6.469   7.198 -0.5475  1.6368  0.2610
  766MOL0     H 3364   4.255   6.413   7.273  1.4849  0.0672 -2.2514
  766MOL0     H 3365   4.383   6.314   7.355  1.5252 -0.9462 -1.2633
  766MOL0     H 3366   4.391   6.623   7.364  0.8871 -0.9872 -2.8279
  766MOL0     H 3367   4.488   6.512   7.455  1.3191 -3.2137 -1.6655
  766MOL0     H 3368   4.180   6.558   7.477 -1.0409  2.8184  4.6370
  766MOL0     H 3369   4.304   6.605   7.588 -0.4104  2.0279 -1.6912
  766MOL0     H 3370   4.449   6.196   7.538  1.2830  0.1940 -0.2781
  766MOL0     H 3371   4.633   6.128   7.695 -0.8841 -2.3490  3.2201
  766MOL0     H 3372   4.808   5.900   7.978  1.5580 -2.1617  2.0842
  766MOL0     H 3373   4.997   5.806   8.086 -3.6272  0.7224  3.2973
  766MOL0     H 3374   5.390   6.057   8.052  2.2398 -0.6261 -1.8445
  766MOL0     H 3375   5.439   5.924   8.135  0.7904 -0.8833 -0.4525
  766MOL0     H 3376   5.317   5.775   7.940  1.0917 -0.7308  1.5452
  766MOL0     H 3377   5.348   5.917   7.847  0.2762 -0.0347  0.8701
  766MOL0     H 3378   5.588   5.899   7.878 -0.8854  0.8430 -1.0130
  766MOL0     H 3379   5.571   5.810   8.018 -0.5978  1.6673  0.3918
  766MOL0     H 3380   5.512   5.735   7.718 -1.8990 -0.9516  0.5307
  766MOL0     H 3381   5.466   5.621   7.842  1.9288 -0.9478  1.8599
  766MOL0     H 3382   5.673   5.559   7.746  1.4232  1.2012 -0.6465
  766MOL0     H 3383   5.691   5.601   7.918 -2.0449  3.0817  2.9873
  766MOL0     H 3384   5.842   5.708   7.696  0.8170 -2.1522  0.2641
  766MOL0     H 3385   5.747   5.841   7.778  0.5853 -0.9172  0.6826
  766MOL0     H 3386   5.851   5.711   8.005  0.6112 -0.1615 -0.1849
  766MOL0     H 3387   5.869   5.867   7.938  0.8310  0.0375  0.3226
  766MOL0     H 3388   6.042   5.775   7.779  0.3310 -0.9855 -0.7793
  766MOL0     H 3389   6.087   5.810   7.954 -0.3884 -0.6235  0.8198
  766MOL0     H 3390   5.213   6.180   8.041  0.3967 -0.3439 -0.1413
  766MOL0     H 3391   5.019   6.283   7.942 -0.7568 -0.2645 -0.0186
  766MOL0     H 3392   4.527   6.432   7.969  1.5760 -2.6522  1.1223
  766MOL0     H 3393   4.343   6.505   7.805  1.3769  1.0712  0.5707
  766MOL0     H 3394   4.841   6.457   6.376  0.0260  1.1975 -1.8323
  766MOL0     H 3395   4.986   6.248   6.390 -0.1397  0.0959 -1.4399
  766MOL0     H 3396   5.477   6.219   6.359  1.0627 -1.6246 -4.0155
  766MOL0     H 3397   5.684   6.072   6.328 -0.8423 -0.1579 -1.2257
  766MOL0     H 3398   5.874   5.967   6.441  0.2042 -0.4539  2.4537
  766MOL0     H 3399   5.830   5.897   6.301  1.3621 -1.7064  0.0577
  766MOL0     H 3400   6.030   5.799   6.379  0.3475 -2.2616 -0.4027
  766MOL0     H 3401   5.910   5.673   6.419  1.2917 -0.8964 -0.1445
  766MOL0     H 3402   5.912   5.715   6.651 -0.2268  2.1058  1.5930
  766MOL0     H 3403   5.954   5.880   6.636 -1.1766 -0.2698 -0.5827
  766MOL0     H 3404   6.121   5.750   6.741  4.5436  3.3346  0.0009
  766MOL0     H 3405   6.128   5.631   6.609 -1.3007  0.9515 -3.9729
  766MOL0     H 3406   6.357   5.923   6.413 -1.2892  0.9363 -1.5041
  766MOL0     H 3407   5.552   5.827   6.640  1.8683 -1.3487 -2.9311
  766MOL0     H 3408   5.336   5.850   6.732  0.3753 -0.2193 -1.4605
  766MOL0     H 3409   5.317   6.009   6.788  2.0233 -2.9495  1.2437
  766MOL0     H 3410   5.210   5.959   6.657 -2.0420 -3.2647  2.5360
  767MOL0     O 3411   2.332  10.595   1.862 -0.2549 -0.2704 -0.3882
  767MOL0     C 3412   2.367  10.524   1.765 -0.2662 -1.1080 -0.3917
  767MOL0     O 3413   2.491  10.525   1.708  0.8667  0.6600  0.8826
  767MOL0     C 3414   2.587  10.592   1.772  0.6231  0.2320  1.1017
  767MOL0     C 3415   2.652  10.540   1.886  0.0348 -0.1639  0.2991
  767MOL0     C 3416   2.765  10.608   1.930 -0.8022  0.4329 -0.2121
  767MOL0     C 3417   2.815  10.718   1.859  0.0273  0.6308  0.4621
  767MOL0     O 3418   2.938  10.773   1.891 -0.0603 -0.0193 -0.0393
  767MOL0     C 3419   2.930  10.840   2.018  0.3250  0.4107 -0.3200
  767MOL0     C 3420   2.939  10.990   2.007 -0.7441 -0.1219  0.3640
  767MOL0     C 3421   3.060  11.042   1.927 -0.7156  0.6195 -0.0242
  767MOL0     C 3422   3.088  11.191   1.942  0.5629  0.5569 -0.2464
  767MOL0     C 3423   3.223  11.220   1.873 -0.5322 -0.3504 -0.3842
  767MOL0     C 3424   3.262  11.369   1.887 -1.4523 -0.9381  0.3848
  767MOL0     C 3425   3.375  11.409   1.778  0.2046 -0.6387  0.0798
  767MOL0     C 3426   3.381  11.569   1.761  1.0668 -0.1588  0.6141
  767MOL0     N 3427   3.480  11.615   1.661 -0.7253 -0.2372 -0.6429
  767MOL0     C 3428   3.488  11.753   1.641 -0.0726  0.0390  0.0309
  767MOL0     C 3429   3.593  11.778   1.560  0.6821  0.8101  0.0314
  767MOL0     C 3430   3.629  11.922   1.538 -0.1872 -0.5504 -1.1550
  767MOL0     C 3431   3.548  11.989   1.423  0.0148  0.1224  0.0152
  767MOL0     C 3432   3.550  11.912   1.298 -0.1574 -0.1671  0.0096
  767MOL0     C 3433   3.690  11.858   1.264 -0.6570  0.3825  0.7675
  767MOL0     O 3434   3.780  11.967   1.266 -0.7455  1.0203  0.2584
  767MOL0     C 3435   3.912  11.927   1.234  0.5964  0.7637  0.4343
  767MOL0     C 3436   3.959  11.801   1.175  1.0552  0.0392 -0.2149
  767MOL0     C 3437   4.093  11.774   1.153  0.9847  0.0055  0.0333
  767MOL0     C 3438   4.200  11.866   1.174  0.2304  0.9142 -0.2664
  767MOL0     C 3439   4.333  11.838   1.135 -0.8639 -0.9564  1.0497
  767MOL0     O 3440   4.360  11.711   1.091  0.1413 -0.2583  0.3245
  767MOL0     C 3441   4.484  11.688   1.050 -0.5536 -0.1917  0.1687
  767MOL0     C 3442   4.527  11.732   0.924 -1.0326  0.4837 -0.2116
  767MOL0     C 3443   4.668  11.702   0.894  0.3211 -0.1957  0.5596
  767MOL0     C 3444   4.748  11.628   0.979 -1.0019 -0.3116  0.8511
  767MOL0     O 3445   4.876  11.582   0.946  0.7887  0.6467 -0.4410
  767MOL0     C 3446   4.961  11.676   0.874 -0.3897 -0.6279  0.5844
  767MOL0     C 3447   5.112  11.649   0.895  0.5144 -0.7451 -0.2069
  767MOL0     C 3448   5.171  11.534   0.812 -0.8653  0.8725  0.0299
  767MOL0     C 3449   5.308  11.477   0.854  0.3063 -0.4903 -0.0248
  767MOL0     C 3450   5.314  11.329   0.878 -0.3274 -0.2667 -0.2722
  767MOL0     C 3451   5.453  11.283   0.880  0.3437 -0.0479  0.0233
  767MOL0     C 3452   5.469  11.135   0.936  0.1635  1.2252  0.4661
  767MOL0     C 3453   5.608  11.104   0.963  0.9007 -0.1988 -0.0511
  767MOL0    Cl 3454   5.655  11.149   1.128 -0.0523  0.3442 -0.1498
  767MOL0     C 3455   4.710  11.587   1.100  0.1327 -0.9366  0.6060
  767MOL0     C 3456   4.577  11.632   1.142  0.7769  0.2362  0.1927
  767MOL0     O 3457   4.413  11.933   1.144 -0.5453  0.5878 -0.2882
  767MOL0     C 3458   4.152  11.985   1.233  0.4763  0.6021  0.7157
  767MOL0     C 3459   4.017  12.014   1.270 -0.4417 -0.4697  0.6079
  767MOL0     N 3460   3.652  11.655   1.536 -0.7013 -0.0889  0.4900
  767MOL0     N 3461   3.591  11.556   1.608 -0.0477  1.0144  0.5324
  767MOL0     C 3462   2.748  10.772   1.750 -1.0543  0.2671 -0.4351
  767MOL0     C 3463   2.634  10.707   1.704  0.4081  0.3881  0.6009
  767MOL0     C 3464   2.273  10.434   1.712  1.0511 -0.0143 -0.0134
  767MOL0     C 3465   2.256  10.435   1.578  0.0672  0.0059  0.7703
  767MOL0     C 3466   2.170  10.352   1.514 -0.7828 -1.0217  0.3589
  767MOL0     C 3467   2.086  10.260   1.585 -0.5493  0.2364 -0.0180
  767MOL0     O 3468   1.984  10.187   1.526  0.2590  0.4931  0.2437
  767MOL0     C 3469   1.956  10.191   1.393  0.1175  0.3066 -0.0751
  767MOL0     C 3470   1.886  10.055   1.353  0.2041  1.1279  0.6595
  767MOL0     C 3471   1.971   9.955   1.287  0.1107  0.1376 -0.1732
  767MOL0     C 3472   1.887   9.856   1.200  0.3718 -0.0616 -0.3644
  767MOL0     C 3473   1.790   9.781   1.281  0.1974  0.6804 -0.3213
  767MOL0     C 3474   1.698   9.723   1.335 -0.1514 -0.0505  0.9921
  767MOL0     C 3475   2.108  10.259   1.717 -0.9512 -0.2710 -0.6765
  767MOL0     C 3476   2.194  10.346   1.791 -0.2075 -0.4698  0.8434
  767MOL0     C 3477   2.196  10.335   1.937 -0.6563  0.0682 -0.0198
  767MOL0     H 3478   2.623  10.451   1.942 -0.7670  0.6540  1.2024
  767MOL0     H 3479   2.833  10.564   2.002 -0.2829  1.7782  0.1530
  767MOL0     H 3480   2.837  10.817   2.070 -0.4147  0.0758 -1.7413
  767MOL0     H 3481   3.015  10.811   2.080 -1.3247 -3.2412  0.4935
  767MOL0     H 3482   2.949  11.037   2.106  1.3429 -0.8366  0.5453
  767MOL0     H 3483   2.843  11.022   1.967 -1.0037  1.0661  1.8263
  767MOL0     H 3484   3.040  11.011   1.824  0.3885  0.9706 -0.3682
  767MOL0     H 3485   3.143  10.982   1.967  0.4293 -0.2182 -3.3439
  767MOL0     H 3486   3.008  11.255   1.907 -0.1325  1.7777  3.1506
  767MOL0     H 3487   3.101  11.212   2.049 -2.3182 -1.4821  0.6467
  767MOL0     H 3488   3.304  11.159   1.914 -0.9004 -0.5734  0.0118
  767MOL0     H 3489   3.216  11.192   1.767  0.3827  2.3812 -1.2607
  767MOL0     H 3490   3.160  11.404   1.868 -2.7098 -2.8070  3.0986
  767MOL0     H 3491   3.303  11.390   1.986  3.2354  1.5924 -1.7772
  767MOL0     H 3492   3.352  11.365   1.680  2.3074 -3.6077  0.7966
  767MOL0     H 3493   3.469  11.371   1.819  0.3260 -2.4051 -1.6883
  767MOL0     H 3494   3.286  11.610   1.725 -0.2882 -2.8079  0.9721
  767MOL0     H 3495   3.381  11.616   1.859 -0.0796 -0.0075  0.5485
  767MOL0     H 3496   3.421  11.828   1.683  0.0905  0.2162 -0.0273
  767MOL0     H 3497   3.612  11.967   1.637  1.6841 -2.5424  0.1446
  767MOL0     H 3498   3.736  11.947   1.538  0.7090 -3.8550  0.0177
  767MOL0     H 3499   3.443  11.994   1.453 -0.5633  0.2812 -1.9199
  767MOL0     H 3500   3.592  12.088   1.404  2.2413 -1.2249 -2.6491
  767MOL0     H 3501   3.526  11.980   1.216  1.9856  1.7959  0.9050
  767MOL0     H 3502   3.465  11.843   1.300 -1.7196  1.6598  0.0182
  767MOL0     H 3503   3.687  11.827   1.159  1.2662  3.4672 -0.3066
  767MOL0     H 3504   3.733  11.775   1.321 -0.5268 -0.2844 -0.2645
  767MOL0     H 3505   3.883  11.728   1.148 -1.4624  2.9559 -1.5599
  767MOL0     H 3506   4.131  11.676   1.127  0.8729 -0.4582  1.5032
  767MOL0     H 3507   4.459  11.775   0.851 -1.5820  0.5559  0.3370
  767MOL0     H 3508   4.706  11.721   0.794  0.5592  2.2754  1.0663
  767MOL0     H 3509   4.942  11.655   0.768  3.6678 -1.8762 -0.0700
  767MOL0     H 3510   4.940  11.781   0.896  0.8635  0.2731 -2.0776
  767MOL0     H 3511   5.178  11.733   0.872 -1.1160  0.2489 -1.5292
  767MOL0     H 3512   5.123  11.630   1.002 -0.8272  1.2808  0.3458
  767MOL0     H 3513   5.096  11.454   0.818 -1.5165  1.3430 -1.5667
  767MOL0     H 3514   5.175  11.567   0.708 -4.3021  1.3275 -0.0884
  767MOL0     H 3515   5.349  11.527   0.943 -1.3020 -2.6012  2.0467
  767MOL0     H 3516   5.378  11.493   0.772 -1.1514 -0.5320 -1.3176
  767MOL0     H 3517   5.264  11.281   0.793 -1.1403  2.5026 -1.4747
  767MOL0     H 3518   5.262  11.307   0.971  2.4007 -3.3238  0.7061
  767MOL0     H 3519   5.495  11.304   0.781  0.9980 -0.4567  0.2095
  767MOL0     H 3520   5.493  11.349   0.957 -0.9692 -0.6846  1.2956
  767MOL0     H 3521   5.411  11.067   0.872  0.0038  2.0560 -0.3000
  767MOL0     H 3522   5.429  11.127   1.037  1.0889 -1.6053  0.6882
  767MOL0     H 3523   5.617  10.996   0.951 -1.4227 -0.3847 -0.6882
  767MOL0     H 3524   5.673  11.156   0.891 -0.7314  0.5044 -1.0725
  767MOL0     H 3525   4.762  11.530   1.177 -1.7630  0.7376  3.3167
  767MOL0     H 3526   4.535  11.607   1.238  0.0860  0.7507  0.0257
  767MOL0     H 3527   4.223  12.067   1.230 -0.8118  1.7518 -1.7577
  767MOL0     H 3528   3.989  12.107   1.318  1.0130 -1.1093  2.8358
  767MOL0     H 3529   2.803  10.853   1.703  3.3154 -2.1457 -0.0443
  767MOL0     H 3530   2.579  10.734   1.614  0.2614  0.6412  0.7654
  767MOL0     H 3531   2.315  10.491   1.506  0.0810  0.9828  1.5252
  767MOL0     H 3532   2.160  10.367   1.407 -2.6734 -4.2049 -0.0365
  767MOL0     H 3533   2.047  10.214   1.337 -0.9938  2.5427 -1.0593
  767MOL0     H 3534   1.897  10.281   1.375  0.1491  0.2224 -0.6174
  767MOL0     H 3535   1.819  10.085   1.272  1.1502  1.9837  0.1681
  767MOL0     H 3536   1.837  10.021   1.445  0.1001  0.3814  0.3369
  767MOL0     H 3537   2.039   9.900   1.352 -1.1372 -1.4359 -0.1397
  767MOL0     H 3538   2.037  10.009   1.218  1.3725 -0.1458  0.7919
  767MOL0     H 3539   1.827   9.906   1.124  2.0341 -3.0920 -4.0149
  767MOL0     H 3540   1.960   9.786   1.158 -1.1794 -2.6146  0.9340
  767MOL0     H 3541   1.614   9.673   1.380 -0.4466  1.8920  2.7887
  767MOL0     H 3542   2.031  10.197   1.761 -3.1505  0.9635 -2.4923
  767MOL0     H 3543   2.096  10.314   1.975 -2.1119  0.8985 -3.0963
  767MOL0     H 3544   2.245  10.241   1.964  1.1573  1.4861  1.9837
  767MOL0     H 3545   2.241  10.419   1.992 -2.3890 -0.8843  3.1373
  768MOL0     O 3546   8.088   3.457   6.408 -0.2776 -0.2057 -0.4579
  768MOL0     C 3547   8.079   3.527   6.509  0.0284 -0.4095  0.3373
  768MOL0     O 3548   8.060   3.474   6.633 -0.0612 -0.1025 -0.1782
  768MOL0     C 3549   8.034   3.338   6.634 -0.5866 -0.9231 -0.5582
  768MOL0     C 3550   8.149   3.245   6.620  0.3681 -0.8335  0.7356
  768MOL0     C 3551   8.136   3.108   6.626  1.0562 -0.2413 -0.3886
  768MOL0     C 3552   8.008   3.049   6.649 -0.2031  0.0701 -0.0869
  768MOL0     O 3553   8.010   2.915   6.659  0.6145  0.2137  0.3318
  768MOL0     C 3554   7.901   2.856   6.727 -1.2312 -0.1239  0.0716
  768MOL0     C 3555   7.944   2.707   6.722  0.0497  0.0689 -0.1520
  768MOL0     C 3556   7.836   2.613   6.792  0.3142 -0.9991  0.7244
  768MOL0     C 3557   7.869   2.601   6.949 -0.1885 -0.1408 -0.3795
  768MOL0     C 3558   7.743   2.612   7.029 -0.2962 -0.3342 -0.0842
  768MOL0     C 3559   7.646   2.499   7.017 -0.6053  0.0591  0.1084
  768MOL0     C 3560   7.525   2.503   7.111 -0.5110 -0.7526 -0.2983
  768MOL0     C 3561   7.425   2.621   7.083  0.4882 -0.3600  0.6591
  768MOL0     N 3562   7.285   2.586   7.118 -0.1884 -0.5483  0.0817
  768MOL0     C 3563   7.182   2.567   7.036  0.4948 -0.2714 -0.1407
  768MOL0     C 3564   7.066   2.543   7.109 -0.9087 -0.0207 -0.7870
  768MOL0     C 3565   6.929   2.504   7.065  0.2075 -0.2269  0.4575
  768MOL0     C 3566   6.935   2.373   6.990 -0.1983  0.5082  0.4634
  768MOL0     C 3567   6.932   2.241   7.082  0.7271  0.5033 -0.1310
  768MOL0     C 3568   7.022   2.129   7.029  0.5899 -0.2588  0.4441
  768MOL0     O 3569   7.059   2.036   7.129  0.0138  0.8060  0.0928
  768MOL0     C 3570   7.166   2.055   7.199  0.6158 -0.5434 -1.0735
  768MOL0     C 3571   7.197   1.954   7.296  2.0037  0.0449  0.6780
  768MOL0     C 3572   7.310   1.972   7.381 -0.3331  0.6000  0.1276
  768MOL0     C 3573   7.396   2.080   7.373  0.1931 -0.5038  0.0599
  768MOL0     C 3574   7.510   2.095   7.462 -0.1750 -0.0713  0.3990
  768MOL0     O 3575   7.556   1.995   7.545  0.8570  0.4917 -0.5695
  768MOL0     C 3576   7.686   1.969   7.576 -0.5630 -0.3740 -0.1751
  768MOL0     C 3577   7.722   1.884   7.680  1.0399 -1.0602  1.2155
  768MOL0     C 3578   7.851   1.857   7.718 -0.7438 -0.1564 -0.1623
  768MOL0     C 3579   7.961   1.923   7.663  0.2684  0.1756 -0.6537
  768MOL0     O 3580   8.094   1.904   7.693 -0.3174  0.5820 -0.8767
  768MOL0     C 3581   8.121   1.876   7.828 -0.4262  0.0515 -0.5551
  768MOL0     C 3582   8.274   1.890   7.860 -0.7014 -0.2194 -0.5594
  768MOL0     C 3583   8.331   2.025   7.797  0.2258  0.2414 -0.6354
  768MOL0     C 3584   8.465   1.991   7.727  0.4317 -0.1715 -0.3444
  768MOL0     C 3585   8.533   2.128   7.699  0.4144  0.8308 -0.0763
  768MOL0     C 3586   8.650   2.105   7.601 -0.4565  0.1552 -0.1787
  768MOL0     C 3587   8.756   2.001   7.650  0.1202  0.6687  0.5625
  768MOL0     C 3588   8.872   1.977   7.560  0.8279  0.5889 -0.4706
  768MOL0    Cl 3589   8.961   2.121   7.527 -0.0627  0.2094 -1.0251
  768MOL0     C 3590   7.930   2.020   7.573 -0.7064  0.0836 -0.5967
  768MOL0     C 3591   7.799   2.041   7.528  0.1357 -0.1842  0.1477
  768MOL0     O 3592   7.563   2.215   7.461  0.3216 -0.8383  0.6188
  768MOL0     C 3593   7.354   2.187   7.282 -0.1661 -0.2590 -0.0314
  768MOL0     C 3594   7.240   2.172   7.202  0.3225 -0.2663 -0.0669
  768MOL0     N 3595   7.110   2.568   7.242  0.5642 -0.2253 -0.0380
  768MOL0     N 3596   7.238   2.587   7.249 -0.2034 -0.0015  0.0802
  768MOL0     C 3597   7.901   3.135   6.664 -0.2737  0.1681 -0.4886
  768MOL0     C 3598   7.911   3.278   6.660 -0.2971 -0.4134  0.5943
  768MOL0     C 3599   8.083   3.681   6.504 -0.1045 -0.1981 -1.2338
  768MOL0     C 3600   7.997   3.746   6.604  0.0820  0.1548 -0.4074
  768MOL0     C 3601   7.991   3.884   6.612  0.2142  1.3522 -0.6630
  768MOL0     C 3602   8.073   3.961   6.535  0.1499  0.6634  0.5454
  768MOL0     O 3603   8.101   4.094   6.542 -0.2908  0.1981  0.1533
  768MOL0     C 3604   8.039   4.181   6.633 -0.7383 -0.1616  0.6469
  768MOL0     C 3605   8.139   4.264   6.704 -1.5420 -1.0416 -0.1289
  768MOL0     C 3606   8.084   4.387   6.785 -0.2675 -0.1707 -0.0135
  768MOL0     C 3607   8.038   4.349   6.925 -0.6609 -0.3321  0.5870
  768MOL0     C 3608   7.959   4.464   6.979 -0.1027 -0.0340  0.5216
  768MOL0     C 3609   7.899   4.552   7.038 -0.6540  1.1372  0.1612
  768MOL0     C 3610   8.158   3.899   6.436  0.8392  0.3897  0.3613
  768MOL0     C 3611   8.169   3.761   6.423  0.1311  0.5814  0.4407
  768MOL0     C 3612   8.284   3.697   6.356  0.3424 -1.0081  0.0416
  768MOL0     H 3613   8.244   3.291   6.594  0.8747 -1.8913  0.6941
  768MOL0     H 3614   8.220   3.046   6.594  0.7460 -1.0413  0.2983
  768MOL0     H 3615   7.924   2.883   6.830 -0.7349 -1.9337  0.4746
  768MOL0     H 3616   7.806   2.883   6.680 -1.9154  0.0083  1.4633
  768MOL0     H 3617   8.043   2.692   6.766  0.0181  0.9084  0.2202
  768MOL0     H 3618   7.943   2.677   6.617  1.0498  2.8419 -1.0393
  768MOL0     H 3619   7.840   2.507   6.766 -2.1719 -1.1686  0.8475
  768MOL0     H 3620   7.737   2.656   6.775  0.2105 -1.2646  0.6439
  768MOL0     H 3621   7.903   2.497   6.961 -1.8950 -0.7046 -0.1213
  768MOL0     H 3622   7.950   2.668   6.978  2.8720 -3.7541  0.2877
  768MOL0     H 3623   7.760   2.624   7.137 -0.0301  3.4254 -0.4026
  768MOL0     H 3624   7.702   2.704   6.986  0.9353 -0.8469 -2.5393
  768MOL0     H 3625   7.628   2.476   6.912  1.2086 -2.1808  0.2105
  768MOL0     H 3626   7.700   2.411   7.054 -2.2085 -0.8057  0.5129
  768MOL0     H 3627   7.575   2.507   7.209 -1.1070 -0.3355 -0.0092
  768MOL0     H 3628   7.474   2.406   7.105  2.3110 -2.3461 -0.6312
  768MOL0     H 3629   7.471   2.707   7.132  2.4459 -1.7737  1.4141
  768MOL0     H 3630   7.412   2.634   6.975 -1.4668 -1.2361  0.7455
  768MOL0     H 3631   7.179   2.559   6.928  0.3851  3.4256 -0.5341
  768MOL0     H 3632   6.852   2.506   7.143 -0.6122 -2.7796 -0.1755
  768MOL0     H 3633   6.890   2.590   7.009  1.2574  1.4124  2.1408
  768MOL0     H 3634   6.846   2.372   6.926  1.5675 -1.4091 -2.1413
  768MOL0     H 3635   7.018   2.374   6.919 -0.7317  2.2156 -0.1842
  768MOL0     H 3636   6.829   2.203   7.089  1.1906 -0.7803  0.1343
  768MOL0     H 3637   6.967   2.276   7.179  1.1785  0.3651 -0.2399
  768MOL0     H 3638   7.106   2.182   6.984 -0.7511  1.0047 -0.6417
  768MOL0     H 3639   6.966   2.071   6.955  1.6880 -0.5766 -0.1582
  768MOL0     H 3640   7.123   1.875   7.306 -0.4716  2.1581  0.1021
  768MOL0     H 3641   7.319   1.901   7.463 -0.2649  0.7864  0.2833
  768MOL0     H 3642   7.647   1.834   7.740 -2.4933  2.5056  0.1603
  768MOL0     H 3643   7.866   1.782   7.796 -0.8479  0.5130  0.5136
  768MOL0     H 3644   8.076   1.954   7.890  0.2726  3.4888 -3.9701
  768MOL0     H 3645   8.086   1.775   7.852  1.3215 -0.6581 -0.7836
  768MOL0     H 3646   8.288   1.898   7.968 -2.5447  1.3752 -0.3669
  768MOL0     H 3647   8.318   1.802   7.813  1.3982  0.4136  0.1260
  768MOL0     H 3648   8.256   2.065   7.728 -2.7563 -1.0169  1.6423
  768MOL0     H 3649   8.352   2.098   7.876 -1.1365 -1.0253  0.9773
  768MOL0     H 3650   8.436   1.935   7.638 -1.1132  0.4465 -0.2557
  768MOL0     H 3651   8.526   1.924   7.788 -1.3530  1.4514  3.6324
  768MOL0     H 3652   8.551   2.167   7.800 -1.4100 -3.5513  2.2425
  768MOL0     H 3653   8.467   2.203   7.654  0.4212  1.6451  1.2265
  768MOL0     H 3654   8.605   2.058   7.513 -1.7300 -0.1735  0.6252
  768MOL0     H 3655   8.698   2.203   7.588 -4.6799  2.6579  1.2769
  768MOL0     H 3656   8.714   1.900   7.663  3.2262 -0.4577  3.0912
  768MOL0     H 3657   8.792   2.027   7.750 -0.1108  0.0361  0.8162
  768MOL0     H 3658   8.937   1.911   7.619  1.6284  2.0439  0.3190
  768MOL0     H 3659   8.839   1.920   7.473  0.7313  2.6819 -1.8518
  768MOL0     H 3660   8.010   2.080   7.531 -0.3817 -1.1727 -1.8564
  768MOL0     H 3661   7.792   2.117   7.451 -0.8278 -0.7573 -0.3477
  768MOL0     H 3662   7.418   2.274   7.270  2.3156 -1.8227  1.0397
  768MOL0     H 3663   7.214   2.252   7.133  1.4734  1.3252  1.2713
  768MOL0     H 3664   7.800   3.100   6.686  0.1151 -1.0761 -0.5962
  768MOL0     H 3665   7.828   3.347   6.673  0.6993  0.7625  0.8057
  768MOL0     H 3666   7.930   3.682   6.660 -0.0207 -1.0064 -1.7909
  768MOL0     H 3667   7.924   3.932   6.682 -1.1634  0.8177 -1.5697
  768MOL0     H 3668   7.986   4.129   6.713 -0.2066 -1.7130  0.0340
  768MOL0     H 3669   7.967   4.244   6.579 -0.8297 -1.1833 -0.4758
  768MOL0     H 3670   8.217   4.289   6.632 -3.0477 -0.4145 -1.5958
  768MOL0     H 3671   8.186   4.204   6.783 -0.9681  0.8374  1.0341
  768MOL0     H 3672   7.993   4.419   6.734 -1.1132  0.4601  1.8093
  768MOL0     H 3673   8.163   4.461   6.803  1.4027 -1.7951 -0.3490
  768MOL0     H 3674   7.964   4.269   6.918  1.0698 -1.9484 -0.2264
  768MOL0     H 3675   8.116   4.316   6.994 -1.5246  0.5474  2.0237
  768MOL0     H 3676   7.845   4.629   7.089 -3.6303 -1.1616  0.7817
  768MOL0     H 3677   8.224   3.969   6.386 -0.3600  0.5462 -1.0697
  768MOL0     H 3678   8.360   3.674   6.431  1.2233 -0.5223 -0.6852
  768MOL0     H 3679   8.253   3.615   6.291 -1.6610  0.1289 -0.5432
  768MOL0     H 3680   8.316   3.778   6.289  0.0541 -2.0387 -1.3880
  769MOL0     O 3681   1.171   5.373   9.225 -1.2328 -0.3994  0.4805
  769MOL0     C 3682   1.053   5.398   9.206  0.1945 -0.6282 -0.1139
  769MOL0     O 3683   0.943   5.311   9.233 -0.5861 -0.1115 -0.0031
  769MOL0     C 3684   0.952   5.174   9.219 -0.6458  0.4556  0.0488
  769MOL0     C 3685   1.057   5.092   9.158  0.5957  0.4963 -0.1284
  769MOL0     C 3686   1.037   4.952   9.142  0.6790 -0.4107 -1.4494
  769MOL0     C 3687   0.919   4.892   9.192  0.5894  0.3628  0.4124
  769MOL0     O 3688   0.898   4.754   9.163 -0.0248 -0.1786  0.0786
  769MOL0     C 3689   0.775   4.687   9.207  0.2969 -0.4620  0.1342
  769MOL0     C 3690   0.814   4.538   9.208 -0.1253 -0.9544 -0.7002
  769MOL0     C 3691   0.709   4.450   9.269 -0.0284 -0.0543  0.4730
  769MOL0     C 3692   0.566   4.484   9.219 -0.3300  0.6427 -0.2768
  769MOL0     C 3693   0.471   4.384   9.282  0.0185  0.1865 -0.1551
  769MOL0     C 3694   0.328   4.446   9.279  0.2638 -0.1944  1.3491
  769MOL0     C 3695   0.215   4.356   9.325 -0.4532 -1.5540  1.0512
  769MOL0     C 3696   0.227   4.275   9.446 -0.6293  0.2458  0.2383
  769MOL0     N 3697   0.097   4.234   9.510 -0.3497  0.6497  0.3416
  769MOL0     C 3698   0.020   4.130   9.460  0.4466 -0.4499  0.4870
  769MOL0     C 3699  -0.097   4.150   9.529  1.7629 -0.3765 -0.3916
  769MOL0     C 3700  -0.217   4.089   9.496  0.4978 -0.5204 -0.3112
  769MOL0     C 3701  -0.254   3.969   9.585 -0.3676 -0.3424  1.1503
  769MOL0     C 3702  -0.296   4.007   9.727 -0.2383  0.1615  0.2478
  769MOL0     C 3703  -0.328   3.874   9.803  0.2607  0.0225  0.3864
  769MOL0     O 3704  -0.234   3.771   9.773 -0.6946  0.3488 -0.0266
  769MOL0     C 3705  -0.273   3.642   9.795  0.7480  0.0397  0.1078
  769MOL0     C 3706  -0.204   3.536   9.739  0.8584  0.4570 -0.4283
  769MOL0     C 3707  -0.243   3.405   9.745 -0.5320  0.0457  0.4449
  769MOL0     C 3708  -0.358   3.363   9.821 -0.9762 -0.5392  0.4937
  769MOL0     C 3709  -0.400   3.230   9.829 -0.2346  0.5147  0.0910
  769MOL0     O 3710  -0.322   3.137   9.755  1.0649  0.4154 -0.2275
  769MOL0     C 3711  -0.373   3.011   9.758  0.2150  0.6694  0.8263
  769MOL0     C 3712  -0.457   2.958   9.658 -0.0931  0.8481 -1.0983
  769MOL0     C 3713  -0.495   2.821   9.660 -0.3105 -0.4875 -0.1962
  769MOL0     C 3714  -0.453   2.742   9.770 -0.6438 -1.1226 -0.2157
  769MOL0     O 3715  -0.492   2.607   9.786  0.1483  0.7478 -0.4869
  769MOL0     C 3716  -0.526   2.525   9.675 -0.7305  0.1974 -0.9829
  769MOL0     C 3717  -0.681   2.527   9.667 -0.4542  0.0003  0.3657
  769MOL0     C 3718  -0.743   2.443   9.555  0.2013  0.4406 -0.7077
  769MOL0     C 3719  -0.679   2.500   9.425 -0.0240 -0.1888 -0.3023
  769MOL0     C 3720  -0.760   2.452   9.311  0.4295  0.3881  0.1995
  769MOL0     C 3721  -0.735   2.304   9.282  0.3483 -0.8314  0.6894
  769MOL0     C 3722  -0.818   2.253   9.168  0.4320 -0.5719 -0.1607
  769MOL0     C 3723  -0.802   2.106   9.146  0.4050 -0.3913 -0.4814
  769MOL0    Cl 3724  -0.908   2.058   9.014  0.3165  0.3533 -0.5866
  769MOL0     C 3725  -0.375   2.794   9.869 -1.0082 -0.5252 -0.4822
  769MOL0     C 3726  -0.334   2.930   9.863  0.2230  0.1395  0.0273
  769MOL0     O 3727  -0.504   3.208   9.887  0.3387  0.1346 -0.0674
  769MOL0     C 3728  -0.435   3.471   9.878 -0.0667  0.7050  0.8517
  769MOL0     C 3729  -0.394   3.604   9.865 -0.2652  0.0679  0.0473
  769MOL0     N 3730  -0.080   4.248   9.630 -0.7403 -0.0227  0.6167
  769MOL0     N 3731   0.032   4.308   9.606  0.6362 -0.0765  0.3791
  769MOL0     C 3732   0.813   4.976   9.245 -1.0471  0.9306  0.2382
  769MOL0     C 3733   0.833   5.111   9.248 -0.1159 -0.3270 -0.0771
  769MOL0     C 3734   1.011   5.533   9.145  0.1164  0.3542 -0.9713
  769MOL0     C 3735   0.873   5.548   9.120 -0.1764 -0.5311  0.7313
  769MOL0     C 3736   0.828   5.673   9.058 -0.5600  0.3781  0.1001
  769MOL0     C 3737   0.918   5.781   9.038 -0.7701  0.2083  0.2014
  769MOL0     O 3738   0.895   5.895   8.978  0.1598  0.3639  0.1489
  769MOL0     C 3739   0.771   5.898   8.906  0.8376  1.0739 -0.0757
  769MOL0     C 3740   0.778   6.017   8.807 -0.2466 -0.4263  0.0224
  769MOL0     C 3741   0.895   6.004   8.700  0.7274  0.1105 -0.2584
  769MOL0     C 3742   0.909   6.109   8.598  0.1094 -0.2090 -0.3173
  769MOL0     C 3743   1.018   6.083   8.492 -0.1940 -0.0492 -0.4873
  769MOL0     C 3744   1.112   6.072   8.408  0.1026  0.1295 -0.1130
  769MOL0     C 3745   1.048   5.772   9.077  0.5634 -0.4430 -1.0362
  769MOL0     C 3746   1.092   5.656   9.137  0.3449  0.2585  0.5790
  769MOL0     C 3747   1.231   5.658   9.200 -0.3315  0.1341  0.4467
  769MOL0     H 3748   1.149   5.138   9.121  1.0552  0.6718  1.1880
  769MOL0     H 3749   1.122   4.892   9.111  2.6471  0.8635  1.0966
  769MOL0     H 3750   0.737   4.705   9.307  0.9322  0.9133  0.1432
  769MOL0     H 3751   0.694   4.709   9.137 -1.4258  2.3683  2.7682
  769MOL0     H 3752   0.907   4.536   9.265  1.3836 -3.6692 -3.0106
  769MOL0     H 3753   0.829   4.513   9.103 -1.5556 -1.4652 -0.8040
  769MOL0     H 3754   0.715   4.468   9.377  3.0189  1.3919  0.1835
  769MOL0     H 3755   0.733   4.346   9.245  0.8314  0.7420 -2.5219
  769MOL0     H 3756   0.537   4.584   9.249 -2.0111 -1.2989  6.2405
  769MOL0     H 3757   0.564   4.474   9.110  2.3018  1.3483 -0.4732
  769MOL0     H 3758   0.475   4.289   9.228 -0.9076 -0.8295  1.4885
  769MOL0     H 3759   0.502   4.360   9.385  0.8649  1.2213 -0.1406
  769MOL0     H 3760   0.337   4.534   9.344 -0.7463 -0.5074  1.9263
  769MOL0     H 3761   0.292   4.491   9.186 -0.9633 -0.7182  1.5603
  769MOL0     H 3762   0.187   4.303   9.233 -1.3104  0.1124  0.3116
  769MOL0     H 3763   0.137   4.429   9.350  2.6404  2.3175  0.4566
  769MOL0     H 3764   0.288   4.187   9.424 -0.6695  0.1528  0.4999
  769MOL0     H 3765   0.283   4.333   9.519  1.0111 -0.7694 -0.1685
  769MOL0     H 3766   0.035   4.057   9.381 -0.7587  0.3402 -0.5130
  769MOL0     H 3767  -0.301   4.155   9.519 -0.4421 -1.9034  0.3807
  769MOL0     H 3768  -0.216   4.056   9.392  0.1369 -4.3518  0.7224
  769MOL0     H 3769  -0.335   3.922   9.528  1.4032 -1.8940 -0.1998
  769MOL0     H 3770  -0.162   3.910   9.584 -0.0275  0.1847  0.3560
  769MOL0     H 3771  -0.382   4.074   9.728 -2.1016 -2.0784 -0.0621
  769MOL0     H 3772  -0.219   4.055   9.788  0.9706  1.3276 -2.0852
  769MOL0     H 3773  -0.424   3.840   9.762  0.5084  0.0446 -0.2293
  769MOL0     H 3774  -0.316   3.887   9.911  1.0143  0.6614  0.2352
  769MOL0     H 3775  -0.115   3.554   9.679  2.3059 -1.3661  1.0600
  769MOL0     H 3776  -0.186   3.333   9.687 -1.0085 -0.0288  0.0637
  769MOL0     H 3777  -0.502   3.024   9.585 -3.1543 -2.0651 -2.1104
  769MOL0     H 3778  -0.554   2.781   9.578  1.1106 -1.4792 -0.7974
  769MOL0     H 3779  -0.467   2.542   9.584  0.7936 -2.8495 -0.7217
  769MOL0     H 3780  -0.503   2.422   9.706 -1.1273  0.1222 -0.9276
  769MOL0     H 3781  -0.724   2.480   9.756  0.8902 -1.8908  0.0814
  769MOL0     H 3782  -0.721   2.629   9.660  2.7038  1.2411 -2.1319
  769MOL0     H 3783  -0.717   2.339   9.575 -1.2585  0.4535  1.6026
  769MOL0     H 3784  -0.850   2.464   9.560  0.1933  0.6161 -1.5129
  769MOL0     H 3785  -0.578   2.460   9.428  0.4215  0.5619  5.4317
  769MOL0     H 3786  -0.670   2.609   9.419  1.4201 -0.3791 -3.2440
  769MOL0     H 3787  -0.738   2.509   9.220 -3.0941  1.9110  0.1414
  769MOL0     H 3788  -0.866   2.461   9.335  0.3902  0.6328 -0.0591
  769MOL0     H 3789  -0.634   2.283   9.245  0.3598 -0.9733  0.8029
  769MOL0     H 3790  -0.764   2.232   9.359  0.1345  1.3195  2.7145
  769MOL0     H 3791  -0.783   2.305   9.078  1.1889 -3.7269 -1.8269
  769MOL0     H 3792  -0.923   2.273   9.187  0.3342 -1.5543  0.3761
  769MOL0     H 3793  -0.699   2.089   9.112  0.6016  0.5753 -0.3770
  769MOL0     H 3794  -0.833   2.078   9.247 -2.7950  0.6150 -1.0801
  769MOL0     H 3795  -0.336   2.715   9.934  0.3721  1.1893  0.8724
  769MOL0     H 3796  -0.256   2.959   9.933 -0.5185  0.0031  0.9196
  769MOL0     H 3797  -0.517   3.453   9.946 -1.1772  2.5340  0.0699
  769MOL0     H 3798  -0.456   3.674   9.920 -0.1686 -0.4501  0.8140
  769MOL0     H 3799   0.719   4.929   9.271 -0.5747 -1.8824 -2.5309
  769MOL0     H 3800   0.753   5.172   9.288 -0.5364 -1.4215  0.7978
  769MOL0     H 3801   0.791   5.483   9.146 -2.1000  1.2108 -0.6372
  769MOL0     H 3802   0.721   5.691   9.052 -0.8437 -1.0088  0.5986
  769MOL0     H 3803   0.683   5.925   8.966  1.1767  2.9668 -0.3742
  769MOL0     H 3804   0.755   5.807   8.848  3.6172 -0.2323  1.0306
  769MOL0     H 3805   0.780   6.114   8.858 -3.8438  1.4584 -2.9075
  769MOL0     H 3806   0.685   6.018   8.749 -0.4854  0.7495  0.3789
  769MOL0     H 3807   0.881   5.911   8.643  1.6670  1.0628 -2.1490
  769MOL0     H 3808   0.983   6.002   8.765 -0.3620 -1.0280  1.2609
  769MOL0     H 3809   0.814   6.130   8.548  1.0578  3.5414 -0.8085
  769MOL0     H 3810   0.934   6.205   8.643 -3.3544  0.7141 -0.0443
  769MOL0     H 3811   1.178   6.075   8.323  0.4138  2.2551  0.1472
  769MOL0     H 3812   1.118   5.852   9.056  0.1119  1.2092  2.9182
  769MOL0     H 3813   1.291   5.748   9.181  0.9162  0.0085  3.2027
  769MOL0     H 3814   1.215   5.654   9.308 -0.7399 -0.4105  0.3663
  769MOL0     H 3815   1.296   5.577   9.166 -0.1737  0.7906 -0.8635
  770MOL0     O 3816   0.420   5.084   6.890  0.0124 -0.6430 -0.7049
  770MOL0     C 3817   0.463   5.146   6.791  0.1004  1.1286 -0.8209
  770MOL0     O 3818   0.464   5.099   6.661 -0.4205 -0.4461 -0.8001
  770MOL0     C 3819   0.362   5.018   6.634  1.2009  0.4410  0.9566
  770MOL0     C 3820   0.386   4.885   6.621 -0.0235 -0.2493  0.1936
  770MOL0     C 3821   0.286   4.790   6.585 -0.2519  0.1195  0.1051
  770MOL0     C 3822   0.154   4.840   6.570 -0.3867 -0.2084  0.7565
  770MOL0     O 3823   0.055   4.740   6.534 -0.3221 -0.9119  0.4497
  770MOL0     C 3824  -0.080   4.772   6.529 -0.2771  0.3736  0.3455
  770MOL0     C 3825  -0.164   4.653   6.486 -0.4462  0.7929 -0.1657
  770MOL0     C 3826  -0.174   4.551   6.604  0.0066  0.4768  0.4573
  770MOL0     C 3827  -0.276   4.436   6.568 -0.3572  0.0289 -0.1588
  770MOL0     C 3828  -0.209   4.336   6.474  0.2677 -1.4461 -0.3228
  770MOL0     C 3829  -0.311   4.246   6.408  0.5716  0.0387 -0.2629
  770MOL0     C 3830  -0.255   4.111   6.351  0.3060 -1.0129 -0.2822
  770MOL0     C 3831  -0.239   3.989   6.449 -0.2939  0.7789 -0.0922
  770MOL0     N 3832  -0.166   3.880   6.387  0.3203 -0.5161  0.0070
  770MOL0     C 3833  -0.223   3.780   6.317 -0.7334  0.0021 -0.6163
  770MOL0     C 3834  -0.117   3.723   6.258  0.3219 -0.7188  1.1596
  770MOL0     C 3835  -0.129   3.628   6.144 -0.5860 -0.3695  0.4215
  770MOL0     C 3836  -0.166   3.491   6.215 -0.2597 -0.1926  0.8035
  770MOL0     C 3837  -0.239   3.396   6.109 -0.5408 -0.3870  0.4633
  770MOL0     C 3838  -0.144   3.358   5.992  0.8775  0.4492 -0.3798
  770MOL0     O 3839  -0.018   3.316   6.032  0.2207  0.0127  0.5833
  770MOL0     C 3840   0.066   3.256   5.941 -0.1570 -0.6456 -0.6351
  770MOL0     C 3841   0.028   3.209   5.816 -0.8326 -0.4131  0.0518
  770MOL0     C 3842   0.116   3.146   5.725 -0.3110  0.4883  0.5834
  770MOL0     C 3843   0.251   3.124   5.762 -0.4082  0.2575 -0.3013
  770MOL0     C 3844   0.344   3.064   5.657 -0.3681  0.4319 -0.9166
  770MOL0     O 3845   0.308   3.037   5.530  0.3878  0.1046  0.0916
  770MOL0     C 3846   0.419   3.017   5.450 -0.2044 -0.0033 -0.5227
  770MOL0     C 3847   0.447   2.898   5.386 -0.1804 -0.5964 -0.3591
  770MOL0     C 3848   0.561   2.881   5.309  0.3578  0.1261 -0.4678
  770MOL0     C 3849   0.647   2.993   5.297  0.3255 -0.0835  0.6594
  770MOL0     O 3850   0.765   2.985   5.231  0.4460 -0.6676  0.6093
  770MOL0     C 3851   0.870   3.081   5.237  1.2889  0.3838  0.0919
  770MOL0     C 3852   0.969   3.047   5.136 -0.8284 -1.2281  0.6720
  770MOL0     C 3853   1.092   3.140   5.132 -0.1922  0.2920 -0.8305
  770MOL0     C 3854   1.173   3.150   5.001  0.6686 -0.7929 -0.0428
  770MOL0     C 3855   1.245   3.286   4.971  0.2016  0.7164 -0.7297
  770MOL0     C 3856   1.350   3.307   5.076  0.1259 -0.2442  0.4910
  770MOL0     C 3857   1.401   3.447   5.052 -0.5263 -0.3277  0.1987
  770MOL0     C 3858   1.538   3.468   5.105 -0.1504  0.3378  0.3286
  770MOL0    Cl 3859   1.538   3.442   5.284  1.0510 -0.3201 -0.0985
  770MOL0     C 3860   0.603   3.119   5.340  0.0187  0.6982  0.5468
  770MOL0     C 3861   0.489   3.134   5.417  1.0366  0.7085  0.2973
  770MOL0     O 3862   0.457   3.037   5.708  0.8011 -0.0935  0.3488
  770MOL0     C 3863   0.285   3.166   5.891  0.1685 -0.6850  0.3509
  770MOL0     C 3864   0.198   3.238   5.976  0.1207  0.8062 -0.2854
  770MOL0     N 3865  -0.000   3.763   6.315  0.6808  0.3127 -0.6100
  770MOL0     N 3866  -0.032   3.855   6.396 -0.1951 -0.2614 -0.8659
  770MOL0     C 3867   0.134   4.981   6.570 -0.0605  0.7672  0.3247
  770MOL0     C 3868   0.236   5.068   6.602 -0.0063 -0.6525 -0.0960
  770MOL0     C 3869   0.507   5.283   6.821 -0.3151  0.2885  0.1771
  770MOL0     C 3870   0.636   5.316   6.771 -0.1182  0.3905 -0.1244
  770MOL0     C 3871   0.686   5.438   6.794  0.8138 -0.6626 -0.2156
  770MOL0     C 3872   0.621   5.532   6.875  0.1095 -0.2333  0.5301
  770MOL0     O 3873   0.693   5.643   6.897  0.8463 -0.4011 -0.1559
  770MOL0     C 3874   0.637   5.748   6.983 -0.0027 -0.8421 -0.3810
  770MOL0     C 3875   0.735   5.866   6.975  0.3776 -0.3956 -0.1482
  770MOL0     C 3876   0.862   5.845   7.065  0.1782  0.4096 -0.2296
  770MOL0     C 3877   0.963   5.956   7.037 -0.6881 -0.3883 -0.0285
  770MOL0     C 3878   0.927   6.075   7.118 -1.0076  0.5091  1.2338
  770MOL0     C 3879   0.892   6.158   7.196 -0.5028 -0.1461 -0.7578
  770MOL0     C 3880   0.496   5.500   6.922 -0.1991  0.0617 -0.1558
  770MOL0     C 3881   0.441   5.373   6.902 -0.3203 -0.6850  0.6061
  770MOL0     C 3882   0.297   5.360   6.959 -0.0570  0.3017  0.6143
  770MOL0     H 3883   0.491   4.856   6.629  0.5531  1.4312 -0.7306
  770MOL0     H 3884   0.313   4.685   6.591  0.0836  0.2425  0.9290
  770MOL0     H 3885  -0.125   4.813   6.619 -2.7476 -3.4701  1.0869
  770MOL0     H 3886  -0.094   4.836   6.441 -1.8803 -0.6768 -0.2194
  770MOL0     H 3887  -0.118   4.596   6.405  0.3988  0.3988  0.5697
  770MOL0     H 3888  -0.256   4.695   6.445  0.4027  1.5616 -1.3622
  770MOL0     H 3889  -0.200   4.601   6.697 -1.1083  0.4702  0.1546
  770MOL0     H 3890  -0.078   4.500   6.620 -0.7030 -0.9089  0.5019
  770MOL0     H 3891  -0.319   4.379   6.651 -2.3639 -1.6867 -2.2492
  770MOL0     H 3892  -0.363   4.479   6.518 -0.7122  0.3047  0.6850
  770MOL0     H 3893  -0.155   4.383   6.391 -0.0217  0.8050  0.6969
  770MOL0     H 3894  -0.141   4.270   6.529  1.1203 -1.0622 -0.8968
  770MOL0     H 3895  -0.400   4.228   6.470 -1.0703  3.7076 -1.2791
  770MOL0     H 3896  -0.353   4.289   6.317  0.3127  1.9270  0.7065
  770MOL0     H 3897  -0.169   4.128   6.285 -0.1296 -2.4877 -1.2792
  770MOL0     H 3898  -0.328   4.081   6.275  1.5752  0.0778 -2.0305
  770MOL0     H 3899  -0.182   4.013   6.539  0.7378 -0.5788 -0.3504
  770MOL0     H 3900  -0.341   3.956   6.467 -0.2967 -0.5313 -2.2171
  770MOL0     H 3901  -0.323   3.745   6.294 -1.6803  2.8947 -1.3609
  770MOL0     H 3902  -0.210   3.661   6.078  0.4226  0.1520 -0.5972
  770MOL0     H 3903  -0.039   3.623   6.082 -1.8449  3.5388 -2.0997
  770MOL0     H 3904  -0.068   3.452   6.245  0.7643  0.3048 -1.6438
  770MOL0     H 3905  -0.231   3.501   6.302 -0.1904 -2.8428  1.2423
  770MOL0     H 3906  -0.334   3.437   6.072  0.5015  1.6273 -0.1099
  770MOL0     H 3907  -0.257   3.293   6.142  3.7146 -1.7494 -0.8483
  770MOL0     H 3908  -0.137   3.439   5.919 -4.3951  2.2219  0.6079
  770MOL0     H 3909  -0.197   3.290   5.924 -0.1862  1.4785 -0.6217
  770MOL0     H 3910  -0.074   3.209   5.779 -0.4707 -0.2098 -0.9786
  770MOL0     H 3911   0.081   3.117   5.626 -3.7777  3.8004  0.6079
  770MOL0     H 3912   0.381   2.816   5.415 -0.9519 -0.4153 -1.5377
  770MOL0     H 3913   0.590   2.785   5.267 -1.8450 -1.3016  1.0661
  770MOL0     H 3914   0.836   3.184   5.219 -2.9139  0.0812  4.1689
  770MOL0     H 3915   0.907   3.060   5.338  1.6104 -1.4122 -0.3644
  770MOL0     H 3916   1.013   2.949   5.158  2.9788 -0.6789 -3.0441
  770MOL0     H 3917   0.921   3.040   5.038 -0.8487 -1.5180  0.7019
  770MOL0     H 3918   1.053   3.241   5.141  2.0844  1.2654 -1.2241
  770MOL0     H 3919   1.159   3.119   5.216  0.6369 -1.1567 -1.8004
  770MOL0     H 3920   1.103   3.141   4.917  2.0890 -1.3087 -1.2349
  770MOL0     H 3921   1.247   3.069   5.004  3.0671  0.9332 -4.0219
  770MOL0     H 3922   1.177   3.371   4.958 -0.2418  0.0075 -3.7301
  770MOL0     H 3923   1.302   3.278   4.878 -0.1599 -4.2191 -0.7905
  770MOL0     H 3924   1.306   3.299   5.176  0.1481 -1.3925  0.4198
  770MOL0     H 3925   1.423   3.228   5.056  0.7244  0.8335 -1.9658
  770MOL0     H 3926   1.333   3.515   5.103 -0.9493 -0.8101  0.2882
  770MOL0     H 3927   1.406   3.476   4.947  0.4167 -0.8256  0.0938
  770MOL0     H 3928   1.614   3.406   5.058 -0.7179  1.7268 -2.6726
  770MOL0     H 3929   1.578   3.569   5.089  2.1597 -0.0991  2.6595
  770MOL0     H 3930   0.647   3.213   5.308 -0.5156  0.7381 -0.1070
  770MOL0     H 3931   0.456   3.230   5.456 -1.9790 -1.3668  3.3543
  770MOL0     H 3932   0.387   3.149   5.924  0.2582  2.7839  2.3751
  770MOL0     H 3933   0.235   3.282   6.068 -0.9866 -0.8873  1.0160
  770MOL0     H 3934   0.035   5.016   6.544 -0.2832  0.3218  0.5533
  770MOL0     H 3935   0.218   5.174   6.616 -0.1946 -0.8703  1.4830
  770MOL0     H 3936   0.692   5.244   6.713 -3.0376 -1.4809 -0.8176
  770MOL0     H 3937   0.773   5.474   6.739  0.5610 -0.8279 -0.7299
  770MOL0     H 3938   0.619   5.714   7.086 -0.2378 -2.3966 -0.9083
  770MOL0     H 3939   0.543   5.777   6.936  0.1006  0.6122  0.2677
  770MOL0     H 3940   0.689   5.959   7.011 -1.9592 -1.8268  0.7501
  770MOL0     H 3941   0.766   5.874   6.870  0.5806  1.0895 -0.0043
  770MOL0     H 3942   0.911   5.752   7.034 -0.7729  0.4754 -2.1041
  770MOL0     H 3943   0.833   5.841   7.170 -0.7123 -1.9014 -0.5134
  770MOL0     H 3944   1.064   5.916   7.048  1.1236  2.6593 -3.5274
  770MOL0     H 3945   0.966   5.965   6.928  0.2937 -2.1112 -0.1776
  770MOL0     H 3946   0.847   6.235   7.255  1.6006  1.4001 -1.0232
  770MOL0     H 3947   0.446   5.579   6.977  1.2886  1.6853 -1.0250
  770MOL0     H 3948   0.236   5.314   6.881  0.6288  1.8430 -0.9035
  770MOL0     H 3949   0.298   5.306   7.054  2.1688 -1.5022 -0.3173
  770MOL0     H 3950   0.269   5.466   6.962  2.0056  1.4364 -5.4935
  771MOL0     O 3951   2.627   5.171   2.100  0.3652 -0.1468 -0.1896
  771MOL0     C 3952   2.727   5.204   2.029  0.6677  0.2841 -1.2322
  771MOL0     O 3953   2.841   5.130   2.022  0.8589  0.2325 -1.3111
  771MOL0     C 3954   2.866   5.042   2.118 -0.3607 -0.1107 -1.0239
  771MOL0     C 3955   2.839   4.905   2.089  1.1250  0.2314  0.1496
  771MOL0     C 3956   2.888   4.804   2.178 -0.0272  0.1295  0.7721
  771MOL0     C 3957   2.974   4.827   2.287  0.2433 -0.5966 -0.2296
  771MOL0     O 3958   3.031   4.736   2.369  0.3922  0.3471 -0.2441
  771MOL0     C 3959   2.992   4.594   2.364  0.2293 -0.8668 -0.5133
  771MOL0     C 3960   3.061   4.518   2.244 -0.1227 -0.6915  1.3943
  771MOL0     C 3961   2.965   4.409   2.193 -0.0566 -0.8545 -0.4808
  771MOL0     C 3962   2.919   4.413   2.036  0.3534 -0.3016 -0.3624
  771MOL0     C 3963   2.867   4.276   1.995 -0.1250 -0.8065  0.4649
  771MOL0     C 3964   2.767   4.207   2.093  0.6583  1.4724 -0.6364
  771MOL0     C 3965   2.630   4.270   2.084  0.3442 -0.8058 -0.2717
  771MOL0     C 3966   2.541   4.230   2.197  0.0975  0.3842  0.0253
  771MOL0     N 3967   2.594   4.254   2.332  0.1057  0.1737  0.4927
  771MOL0     C 3968   2.626   4.165   2.423 -0.4927  1.1522  0.3908
  771MOL0     C 3969   2.707   4.225   2.512  0.2379  0.2943 -0.1650
  771MOL0     C 3970   2.770   4.160   2.633 -0.3807 -0.0170  0.3012
  771MOL0     C 3971   2.884   4.056   2.608  0.6994 -0.1512  0.4289
  771MOL0     C 3972   3.015   4.135   2.598  0.0994  0.6651 -0.8803
  771MOL0     C 3973   3.115   4.040   2.526  0.1315  0.2307 -0.0878
  771MOL0     O 3974   3.132   4.078   2.391 -0.7410  0.3536  0.0299
  771MOL0     C 3975   3.250   4.049   2.336 -0.0678  0.1092  0.0226
  771MOL0     C 3976   3.299   4.139   2.236 -0.0349 -0.7541  0.3811
  771MOL0     C 3977   3.426   4.126   2.190 -0.9661  0.3852 -0.6288
  771MOL0     C 3978   3.515   4.024   2.243  0.3837 -0.6907 -0.0953
  771MOL0     C 3979   3.656   4.023   2.201  0.0628  0.7923  0.7605
  771MOL0     O 3980   3.751   3.947   2.269 -0.2986  0.4765  0.7928
  771MOL0     C 3981   3.885   3.942   2.227  0.7658  0.9099 -0.2636
  771MOL0     C 3982   3.924   3.878   2.107 -0.0439 -0.1163 -0.4793
  771MOL0     C 3983   4.062   3.872   2.070 -0.4268 -0.0476 -0.0441
  771MOL0     C 3984   4.157   3.925   2.167  1.1298 -0.7008  0.2609
  771MOL0     O 3985   4.291   3.925   2.166 -0.2540  0.5459  0.4041
  771MOL0     C 3986   4.371   3.813   2.115 -0.6468 -0.4581 -0.2553
  771MOL0     C 3987   4.505   3.782   2.195  0.6898  0.2566  0.1509
  771MOL0     C 3988   4.638   3.854   2.152  0.3994 -0.8890  0.4069
  771MOL0     C 3989   4.619   4.002   2.099 -0.4376  0.4246  0.5723
  771MOL0     C 3990   4.748   4.088   2.094 -0.3382 -0.6716  0.6584
  771MOL0     C 3991   4.848   4.044   1.992 -0.1515  0.0615  0.3837
  771MOL0     C 3992   4.975   4.122   2.009  0.0398 -0.3489 -0.0756
  771MOL0     C 3993   5.069   4.083   1.893  0.5030  0.0791 -0.2611
  771MOL0    Cl 3994   5.001   4.110   1.739  0.1399 -0.7390  0.3306
  771MOL0     C 3995   4.105   4.007   2.272  0.0661  0.0801 -0.1807
  771MOL0     C 3996   3.976   4.004   2.305  0.1444 -0.4948 -0.2392
  771MOL0     O 3997   3.677   4.078   2.095  0.1132  0.9517 -0.3323
  771MOL0     C 3998   3.461   3.933   2.325  0.4325  1.1141  0.1283
  771MOL0     C 3999   3.331   3.938   2.378 -0.3530  0.5404  0.8462
  771MOL0     N 4000   2.707   4.364   2.477  0.3668  0.2628  0.3057
  771MOL0     N 4001   2.645   4.377   2.370  0.5299  0.1642  0.4871
  771MOL0     C 4002   3.002   4.962   2.313  0.6201 -0.4121 -0.9116
  771MOL0     C 4003   2.958   5.062   2.230 -0.1111 -0.9429 -1.0144
  771MOL0     C 4004   2.715   5.318   1.943  0.5158 -0.3959 -0.7245
  771MOL0     C 4005   2.585   5.350   1.889 -0.2702 -0.1909 -0.0686
  771MOL0     C 4006   2.563   5.446   1.790  1.2864 -0.0443  0.4240
  771MOL0     C 4007   2.680   5.504   1.738 -0.2282 -0.2872  0.7125
  771MOL0     O 4008   2.651   5.593   1.634  0.3900 -0.1260  0.0852
  771MOL0     C 4009   2.757   5.611   1.528 -0.7293 -0.4652  0.0392
  771MOL0     C 4010   2.760   5.501   1.423 -0.5366 -0.2584  0.2864
  771MOL0     C 4011   2.628   5.474   1.359  1.2098  0.2946 -0.0844
  771MOL0     C 4012   2.531   5.413   1.455  0.4361  0.0311 -0.7950
  771MOL0     C 4013   2.453   5.310   1.388  0.1765 -0.8641 -0.3568
  771MOL0     C 4014   2.409   5.216   1.325  0.0278  0.3191 -0.8048
  771MOL0     C 4015   2.805   5.473   1.793 -0.0487 -0.0112 -0.5630
  771MOL0     C 4016   2.828   5.388   1.894  1.2905 -0.5835 -0.0471
  771MOL0     C 4017   2.967   5.377   1.948 -0.3315  0.2409  0.6492
  771MOL0     H 4018   2.783   4.871   2.003 -0.2264 -1.9941  1.7909
  771MOL0     H 4019   2.855   4.707   2.143 -1.4128 -0.2266  2.8796
  771MOL0     H 4020   3.012   4.539   2.457 -2.2000 -0.7770  0.1131
  771MOL0     H 4021   2.883   4.601   2.356  0.4029  1.1908 -1.6958
  771MOL0     H 4022   3.159   4.481   2.278  1.7540  0.8453 -1.8043
  771MOL0     H 4023   3.075   4.581   2.156  3.8530 -0.9186  1.6847
  771MOL0     H 4024   2.875   4.423   2.252 -0.5041  2.8183 -1.8143
  771MOL0     H 4025   3.019   4.316   2.215  0.8453 -0.4102 -0.7366
  771MOL0     H 4026   2.843   4.491   2.020  0.0061 -0.7855 -1.1322
  771MOL0     H 4027   3.005   4.439   1.975  0.8990 -0.5553  0.2888
  771MOL0     H 4028   2.826   4.285   1.894  0.7411  2.5203  0.3035
  771MOL0     H 4029   2.965   4.226   1.992  0.6117  0.5186  1.4107
  771MOL0     H 4030   2.772   4.099   2.075  1.7765  1.5091 -0.6109
  771MOL0     H 4031   2.805   4.211   2.195 -1.7917  0.6691  0.3966
  771MOL0     H 4032   2.586   4.251   1.986  1.4138  1.1901 -1.1771
  771MOL0     H 4033   2.632   4.379   2.095 -1.9745 -0.8756  1.9017
  771MOL0     H 4034   2.444   4.280   2.189 -2.4811 -4.3249 -2.2078
  771MOL0     H 4035   2.507   4.126   2.192 -1.4208  0.7382  1.8132
  771MOL0     H 4036   2.592   4.062   2.422  2.3968  0.0750  1.0132
  771MOL0     H 4037   2.803   4.234   2.706 -1.0325 -1.0728  1.7221
  771MOL0     H 4038   2.698   4.099   2.689 -1.5476  0.5080 -0.5881
  771MOL0     H 4039   2.895   3.995   2.697  0.7591 -0.1131  0.4472
  771MOL0     H 4040   2.856   3.995   2.521 -2.3281  0.8718  0.5685
  771MOL0     H 4041   3.046   4.154   2.701 -3.7488  0.0225  0.5823
  771MOL0     H 4042   2.994   4.233   2.554 -3.1703  1.0590  1.1866
  771MOL0     H 4043   3.093   3.934   2.543 -1.7658  0.8520  1.8960
  771MOL0     H 4044   3.211   4.070   2.568 -0.9062  0.8433  2.0034
  771MOL0     H 4045   3.234   4.211   2.186 -1.3743 -2.0129  0.2428
  771MOL0     H 4046   3.463   4.194   2.114  1.2660 -0.5549 -0.4601
  771MOL0     H 4047   3.845   3.825   2.054 -0.2632 -0.1308 -0.1456
  771MOL0     H 4048   4.091   3.811   1.985 -1.4334 -1.4086  0.5515
  771MOL0     H 4049   4.319   3.717   2.118  1.3140 -1.5640  1.4908
  771MOL0     H 4050   4.406   3.840   2.015 -0.8255 -0.3090 -0.2785
  771MOL0     H 4051   4.484   3.806   2.300  2.0096 -0.3550  0.5757
  771MOL0     H 4052   4.528   3.676   2.195  3.2276  0.7468 -0.3840
  771MOL0     H 4053   4.716   3.875   2.226  0.3151  1.4739 -0.1125
  771MOL0     H 4054   4.680   3.793   2.072 -3.2568 -0.1657 -2.3045
  771MOL0     H 4055   4.540   4.049   2.159 -0.3229 -0.4521  1.4354
  771MOL0     H 4056   4.584   3.987   1.996 -0.7655 -0.2735  0.7836
  771MOL0     H 4057   4.802   4.077   2.189  1.9830 -1.0312 -0.6453
  771MOL0     H 4058   4.723   4.195   2.093  1.0940 -0.3165  0.8426
  771MOL0     H 4059   4.862   3.936   1.991 -1.6307 -0.2975 -4.0171
  771MOL0     H 4060   4.802   4.061   1.894 -0.6654  1.1021  0.7958
  771MOL0     H 4061   5.023   4.099   2.105 -5.1694  0.5080  3.1695
  771MOL0     H 4062   4.955   4.230   2.007 -0.7802 -0.4542  1.1282
  771MOL0     H 4063   5.161   4.142   1.904 -1.2975  2.6566  2.2457
  771MOL0     H 4064   5.086   3.976   1.913 -1.8237 -0.3938 -0.5479
  771MOL0     H 4065   4.174   4.057   2.339 -0.6285 -0.6301  1.0917
  771MOL0     H 4066   3.937   4.065   2.386  0.8574 -0.4447  0.0780
  771MOL0     H 4067   3.521   3.853   2.367  2.0323  0.5831 -2.8473
  771MOL0     H 4068   3.308   3.877   2.464  0.4149 -1.5316 -0.3413
  771MOL0     H 4069   3.065   4.986   2.398 -0.5667  4.2044 -1.0849
  771MOL0     H 4070   2.984   5.159   2.272  0.1188 -2.9944  4.3156
  771MOL0     H 4071   2.502   5.280   1.901  2.2839 -3.1477  2.0504
  771MOL0     H 4072   2.467   5.464   1.743  0.5440 -2.3188  0.9217
  771MOL0     H 4073   2.855   5.621   1.575  0.7360 -3.2212 -2.1426
  771MOL0     H 4074   2.739   5.699   1.466 -0.1503  0.0596  0.6073
  771MOL0     H 4075   2.803   5.410   1.465 -1.3492 -0.6898  0.1997
  771MOL0     H 4076   2.822   5.543   1.343 -2.3561  1.2570 -0.4267
  771MOL0     H 4077   2.640   5.419   1.265 -1.8464 -1.1802  0.2803
  771MOL0     H 4078   2.592   5.574   1.331 -3.9699 -1.4709 -0.6938
  771MOL0     H 4079   2.584   5.364   1.537  0.7507 -1.3086 -1.7728
  771MOL0     H 4080   2.476   5.496   1.499 -1.2066  0.0780 -2.8043
  771MOL0     H 4081   2.360   5.142   1.264  0.0175  0.2740 -0.7418
  771MOL0     H 4082   2.892   5.526   1.756  1.2332 -0.2236  1.8940
  771MOL0     H 4083   3.018   5.280   1.950  0.9147  0.8725  0.8219
  771MOL0     H 4084   3.040   5.436   1.892  0.0897 -0.9550 -0.1078
  771MOL0     H 4085   2.960   5.423   2.047 -2.9238  0.4771  0.4361
  772MOL0     O 4086   8.438   4.907   8.816  1.0133  0.0408  0.3900
  772MOL0     C 4087   8.489   4.990   8.889  0.4741 -0.6821 -0.6525
  772MOL0     O 4088   8.512   4.970   9.024 -0.0193  0.2280  0.0765
  772MOL0     C 4089   8.502   4.844   9.073  1.0661 -0.3798  0.1765
  772MOL0     C 4090   8.421   4.731   9.046  0.0407 -0.4522 -0.2294
  772MOL0     C 4091   8.437   4.603   9.105  0.2266 -0.1611  0.0725
  772MOL0     C 4092   8.538   4.596   9.204  0.3903 -1.7707 -0.5640
  772MOL0     O 4093   8.572   4.476   9.255 -0.4885 -0.0774 -0.6754
  772MOL0     C 4094   8.538   4.447   9.391 -0.2115  1.0168  0.2453
  772MOL0     C 4095   8.393   4.438   9.410 -1.0410 -0.1507 -0.1490
  772MOL0     C 4096   8.353   4.408   9.552 -0.2818  0.4373  0.8190
  772MOL0     C 4097   8.235   4.488   9.603 -0.5508  0.6697 -0.5897
  772MOL0     C 4098   8.111   4.394   9.617 -1.0628 -0.5928  0.3007
  772MOL0     C 4099   7.988   4.460   9.679  0.7280 -0.1978  0.1270
  772MOL0     C 4100   7.875   4.359   9.703  0.6090 -1.0493 -0.4385
  772MOL0     C 4101   7.839   4.279   9.584 -0.1586  0.0352  0.7083
  772MOL0     N 4102   7.769   4.352   9.474 -0.5422  0.2809  0.0654
  772MOL0     C 4103   7.819   4.433   9.374  1.4692  0.6803  0.3564
  772MOL0     C 4104   7.724   4.457   9.288  1.2007  0.0991 -0.2393
  772MOL0     C 4105   7.730   4.524   9.158 -0.8641 -0.4868 -0.5277
  772MOL0     C 4106   7.634   4.631   9.150  0.0089 -0.1783  0.1672
  772MOL0     C 4107   7.638   4.688   9.005 -0.3963  0.7008  0.1199
  772MOL0     C 4108   7.537   4.799   8.990  0.1269 -0.0085 -0.1983
  772MOL0     O 4109   7.560   4.868   8.861  0.5535  0.0949  0.2405
  772MOL0     C 4110   7.501   4.992   8.835 -1.0438  1.2239  0.8124
  772MOL0     C 4111   7.378   5.018   8.901 -0.2226 -0.0990 -0.2888
  772MOL0     C 4112   7.304   5.130   8.878 -0.2726 -0.6917 -0.1915
  772MOL0     C 4113   7.360   5.225   8.783 -0.6660 -0.4630  0.3769
  772MOL0     C 4114   7.291   5.354   8.763  0.3563 -0.4110 -0.0620
  772MOL0     O 4115   7.190   5.404   8.847  0.1889 -0.8028 -0.0071
  772MOL0     C 4116   7.161   5.537   8.840 -0.8484 -0.6044  0.2163
  772MOL0     C 4117   7.160   5.613   8.953  0.7213 -0.3221  0.3768
  772MOL0     C 4118   7.125   5.748   8.951 -0.7509 -0.0353  1.2327
  772MOL0     C 4119   7.064   5.800   8.838 -0.0332 -0.4171 -0.2719
  772MOL0     O 4120   7.009   5.935   8.836 -0.1102  0.0915  0.0130
  772MOL0     C 4121   7.059   6.023   8.940 -0.1140  0.3757  0.5435
  772MOL0     C 4122   7.019   6.164   8.916 -0.9350 -0.0112  0.2099
  772MOL0     C 4123   6.867   6.196   8.916 -0.2322 -0.0443 -0.3229
  772MOL0     C 4124   6.834   6.215   8.774  0.2720  0.1126 -0.2820
  772MOL0     C 4125   6.687   6.251   8.761 -0.6961 -0.3710 -0.2661
  772MOL0     C 4126   6.682   6.403   8.777 -0.6096  1.0081 -0.4161
  772MOL0     C 4127   6.551   6.474   8.821  0.6143 -0.1121 -0.8631
  772MOL0     C 4128   6.453   6.506   8.711 -0.8024 -0.2737 -0.3289
  772MOL0    Cl 4129   6.411   6.369   8.609  0.3257 -0.0759  0.1611
  772MOL0     C 4130   7.054   5.715   8.723  0.2792  0.3010 -0.5760
  772MOL0     C 4131   7.098   5.582   8.727 -0.0630  0.4761  0.3228
  772MOL0     O 4132   7.326   5.417   8.665 -0.0606  0.7388  0.6290
  772MOL0     C 4133   7.492   5.204   8.727  0.4487 -0.4838 -0.5232
  772MOL0     C 4134   7.550   5.078   8.737 -1.1505 -0.8754 -0.6854
  772MOL0     N 4135   7.604   4.411   9.339  0.0461  1.1588 -0.0677
  772MOL0     N 4136   7.632   4.337   9.453  0.2770  0.0075 -0.6172
  772MOL0     C 4137   8.618   4.703   9.241  0.3023 -0.2081 -0.5498
  772MOL0     C 4138   8.582   4.834   9.184 -0.3479  0.6977 -0.4276
  772MOL0     C 4139   8.545   5.115   8.838 -0.7843  0.4727  0.1923
  772MOL0     C 4140   8.579   5.105   8.694  0.5209  0.3679  1.0016
  772MOL0     C 4141   8.629   5.208   8.613  0.1868 -0.0458  0.9926
  772MOL0     C 4142   8.650   5.330   8.682 -0.1588 -0.4894  0.1019
  772MOL0     O 4143   8.734   5.417   8.613  0.4497 -0.1890  0.1934
  772MOL0     C 4144   8.871   5.434   8.671 -0.2125  0.1927  0.9195
  772MOL0     C 4145   8.886   5.562   8.757 -1.1973 -0.3493 -0.2130
  772MOL0     C 4146   9.031   5.565   8.815 -0.9123 -0.0408  0.9664
  772MOL0     C 4147   9.043   5.680   8.921  0.4782  0.1602 -0.1825
  772MOL0     C 4148   9.164   5.659   9.015 -0.6937  1.1864  0.5092
  772MOL0     C 4149   9.258   5.633   9.079  0.4851  0.4936 -0.9249
  772MOL0     C 4150   8.612   5.348   8.817  0.1749 -0.7454 -0.1965
  772MOL0     C 4151   8.565   5.241   8.898 -0.2210 -0.0156 -0.2231
  772MOL0     C 4152   8.554   5.260   9.054 -0.0508  0.3729  0.3617
  772MOL0     H 4153   8.351   4.739   8.963 -1.8585 -2.8161  1.0160
  772MOL0     H 4154   8.383   4.518   9.063  0.9987 -1.0204  0.7690
  772MOL0     H 4155   8.582   4.348   9.406  0.6429  1.0090 -1.9382
  772MOL0     H 4156   8.582   4.515   9.465 -0.9054  1.4262  0.2838
  772MOL0     H 4157   8.372   4.352   9.345 -0.9782 -2.0818  2.2581
  772MOL0     H 4158   8.350   4.529   9.368  1.5075  1.5959  0.7810
  772MOL0     H 4159   8.437   4.421   9.621 -1.0731 -0.0305  1.8925
  772MOL0     H 4160   8.318   4.304   9.555 -1.0474  0.5429 -1.8116
  772MOL0     H 4161   8.257   4.515   9.707 -0.0608 -3.1698  0.4480
  772MOL0     H 4162   8.218   4.573   9.536  0.6788 -1.3115 -3.5978
  772MOL0     H 4163   8.100   4.360   9.513  1.3564  0.1780 -0.2844
  772MOL0     H 4164   8.130   4.304   9.676  4.0709  1.3662  2.2871
  772MOL0     H 4165   8.003   4.512   9.774  1.3256  0.2734 -0.2162
  772MOL0     H 4166   7.943   4.531   9.609 -1.4389 -3.6290 -2.2418
  772MOL0     H 4167   7.786   4.410   9.741  1.1056 -2.2162  2.6186
  772MOL0     H 4168   7.914   4.297   9.785  1.6873  0.3323  0.1406
  772MOL0     H 4169   7.931   4.230   9.551 -0.8940  0.3438 -2.0448
  772MOL0     H 4170   7.770   4.199   9.615 -0.9602  0.5448  0.2737
  772MOL0     H 4171   7.918   4.461   9.340  0.5609 -0.5046 -4.0199
  772MOL0     H 4172   7.826   4.577   9.154  0.5757 -2.8587  0.6078
  772MOL0     H 4173   7.738   4.448   9.079 -1.0633 -1.0013 -0.0560
  772MOL0     H 4174   7.535   4.587   9.166 -0.7896  1.0942 -1.0861
  772MOL0     H 4175   7.664   4.701   9.228  0.6054  1.6001 -1.5766
  772MOL0     H 4176   7.608   4.612   8.932 -0.3122  0.8512 -0.0739
  772MOL0     H 4177   7.737   4.729   8.986  0.2925 -1.0509 -0.1918
  772MOL0     H 4178   7.556   4.865   9.074  1.3630 -0.1808 -0.3297
  772MOL0     H 4179   7.432   4.768   8.998 -0.2338  1.5639  1.9913
  772MOL0     H 4180   7.338   4.944   8.971  0.3718  1.0320  1.2943
  772MOL0     H 4181   7.204   5.147   8.918  0.1996 -0.4746  0.9569
  772MOL0     H 4182   7.191   5.576   9.051 -0.5802 -0.4857  0.7492
  772MOL0     H 4183   7.148   5.804   9.041  1.3538 -0.8278  1.2620
  772MOL0     H 4184   7.011   5.989   9.032 -1.4472 -0.7635 -0.5268
  772MOL0     H 4185   7.168   6.024   8.955  0.0229  0.3947 -0.3623
  772MOL0     H 4186   7.057   6.220   9.001  0.9597 -1.3615  0.3013
  772MOL0     H 4187   7.074   6.189   8.825  1.0373 -0.8933  1.0904
  772MOL0     H 4188   6.807   6.119   8.966 -0.9355  0.8835  0.2919
  772MOL0     H 4189   6.855   6.286   8.976  0.4831  0.3065 -0.6889
  772MOL0     H 4190   6.856   6.121   8.723  1.8905 -0.0297  0.6142
  772MOL0     H 4191   6.901   6.288   8.729  0.2649 -0.6175 -1.5350
  772MOL0     H 4192   6.622   6.195   8.828  1.5921 -3.6044 -0.5447
  772MOL0     H 4193   6.654   6.225   8.660 -0.2783  1.4613 -0.9207
  772MOL0     H 4194   6.753   6.428   8.856 -1.9554  3.0160  0.2414
  772MOL0     H 4195   6.713   6.456   8.686  0.3656  3.2173  1.1253
  772MOL0     H 4196   6.584   6.570   8.861 -1.3049  0.8417 -1.4604
  772MOL0     H 4197   6.501   6.424   8.904  1.2368  2.7690  1.3888
  772MOL0     H 4198   6.366   6.551   8.760 -0.4636  0.9164 -0.8047
  772MOL0     H 4199   6.479   6.585   8.640 -1.8970  1.2490  0.8840
  772MOL0     H 4200   7.004   5.757   8.636 -3.4641 -1.3715  0.5582
  772MOL0     H 4201   7.095   5.514   8.643  0.8670  1.0929 -0.2300
  772MOL0     H 4202   7.534   5.271   8.651 -0.1033  0.4148 -0.0573
  772MOL0     H 4203   7.645   5.069   8.686 -0.1163  1.4553  0.6661
  772MOL0     H 4204   8.698   4.694   9.313 -0.0111  1.0980 -0.0074
  772MOL0     H 4205   8.641   4.919   9.216 -3.1318  1.6783  2.5900
  772MOL0     H 4206   8.577   5.006   8.650  1.0736  1.8767 -2.7776
  772MOL0     H 4207   8.654   5.200   8.508  1.3125  3.8505  0.8262
  772MOL0     H 4208   8.933   5.451   8.583 -1.4848 -0.4742 -0.1400
  772MOL0     H 4209   8.902   5.339   8.717  0.0100  0.6415  1.7111
  772MOL0     H 4210   8.822   5.554   8.845 -0.2592  1.3118  0.6822
  772MOL0     H 4211   8.859   5.656   8.707 -1.1516  0.8960  1.9843
  772MOL0     H 4212   9.108   5.581   8.739  0.4559  2.9185  2.8040
  772MOL0     H 4213   9.064   5.469   8.856  0.8057 -1.2244 -2.7305
  772MOL0     H 4214   9.053   5.779   8.876 -1.9298 -0.1278 -1.5414
  772MOL0     H 4215   8.960   5.677   8.992 -0.3498 -0.9632 -1.1355
  772MOL0     H 4216   9.349   5.626   9.134 -1.3805 -0.5076  2.3070
  772MOL0     H 4217   8.621   5.451   8.849  0.9553 -0.9507  0.2833
  772MOL0     H 4218   8.528   5.364   9.075  2.6787  1.8499 -2.8312
  772MOL0     H 4219   8.494   5.194   9.118 -0.0087  0.1255  0.1459
  772MOL0     H 4220   8.657   5.244   9.086 -0.1124 -0.3252  0.2300
  773MOL0     O 4221   2.314   9.476   0.722  0.1923 -0.2466 -0.1939
  773MOL0     C 4222   2.370   9.464   0.616  0.7353 -0.1327 -0.0814
  773MOL0     O 4223   2.303   9.418   0.501  0.9672  0.6586 -0.1552
  773MOL0     C 4224   2.166   9.402   0.517 -0.7913 -0.4568  0.6509
  773MOL0     C 4225   2.099   9.285   0.558 -0.9107 -0.9926 -0.2823
  773MOL0     C 4226   1.962   9.272   0.554 -1.1497 -0.0447  0.9054
  773MOL0     C 4227   1.884   9.381   0.514  0.1649 -0.8185  0.1634
  773MOL0     O 4228   1.748   9.382   0.512  0.3111  0.2425 -0.6412
  773MOL0     C 4229   1.668   9.271   0.511  0.0732 -0.4375  0.8864
  773MOL0     C 4230   1.521   9.318   0.527  0.0789 -0.2239  0.2485
  773MOL0     C 4231   1.437   9.183   0.549  0.4505 -0.0717 -0.3798
  773MOL0     C 4232   1.290   9.199   0.501  0.0319  0.3262  0.2969
  773MOL0     C 4233   1.212   9.070   0.519 -0.4489 -0.2829  1.0533
  773MOL0     C 4234   1.171   9.049   0.669 -0.7124 -0.7261  0.2309
  773MOL0     C 4235   1.083   8.926   0.690  0.2966 -0.4582 -0.0226
  773MOL0     C 4236   1.125   8.797   0.614  0.4431  1.0964  0.6590
  773MOL0     N 4237   1.255   8.755   0.671 -0.1427 -0.4332 -0.3314
  773MOL0     C 4238   1.366   8.713   0.605  0.0781  0.1919  0.0175
  773MOL0     C 4239   1.444   8.654   0.694  0.4768  0.1685  0.4083
  773MOL0     C 4240   1.576   8.586   0.670  0.9309  0.5359 -0.9025
  773MOL0     C 4241   1.695   8.684   0.672  0.2079 -0.5589 -0.0273
  773MOL0     C 4242   1.701   8.762   0.539 -0.6446  0.0023 -0.0176
  773MOL0     C 4243   1.825   8.837   0.520 -0.8388 -0.3425 -0.0533
  773MOL0     O 4244   1.807   8.919   0.409 -0.0449 -0.6023  0.1723
  773MOL0     C 4245   1.914   9.003   0.355 -0.4925 -0.0750  0.8615
  773MOL0     C 4246   1.889   9.090   0.256 -0.1572  0.0530 -1.0783
  773MOL0     C 4247   1.983   9.172   0.196 -0.7877  0.1888  0.7538
  773MOL0     C 4248   2.119   9.170   0.242 -0.0876 -0.5429 -0.0622
  773MOL0     C 4249   2.204   9.280   0.197  0.3554 -0.5931  0.4305
  773MOL0     O 4250   2.338   9.269   0.219 -0.2806  0.3560  0.0381
  773MOL0     C 4251   2.412   9.371   0.154  0.7949 -0.0636 -0.2733
  773MOL0     C 4252   2.481   9.356   0.035 -0.2041 -0.1946  0.5943
  773MOL0     C 4253   2.595   9.442   0.002 -0.7117 -0.8348 -0.2765
  773MOL0     C 4254   2.627   9.556   0.081  0.8349 -0.0954  0.2064
  773MOL0     O 4255   2.713   9.648   0.031 -0.0269 -0.3703 -0.2289
  773MOL0     C 4256   2.725   9.785   0.085 -0.7789 -0.0583  0.3077
  773MOL0     C 4257   2.818   9.869   0.020 -0.5510  0.2279 -0.9824
  773MOL0     C 4258   2.776   9.929  -0.115 -0.3022  0.0153 -0.5262
  773MOL0     C 4259   2.887  10.022  -0.175 -0.9691 -0.5490  0.1450
  773MOL0     C 4260   2.832  10.136  -0.254  0.1715 -0.6214  0.3177
  773MOL0     C 4261   2.774  10.092  -0.384 -0.4109  0.0790  0.1215
  773MOL0     C 4262   2.734  10.212  -0.472  0.1866 -0.2870 -1.1958
  773MOL0     C 4263   2.685  10.151  -0.596  0.2334 -0.1582  0.2580
  773MOL0    Cl 4264   2.622  10.284  -0.689  0.5906 -0.3059  0.3623
  773MOL0     C 4265   2.545   9.576   0.192  0.1079 -0.1037  0.0238
  773MOL0     C 4266   2.442   9.486   0.233  0.9108  0.2703  0.3831
  773MOL0     O 4267   2.155   9.372   0.133  0.6100 -0.1743 -0.5746
  773MOL0     C 4268   2.152   9.067   0.325 -0.1482 -0.2726  0.5302
  773MOL0     C 4269   2.055   8.983   0.388  0.2725 -1.0386  0.6932
  773MOL0     N 4270   1.377   8.650   0.815  0.2789  1.0024 -0.1521
  773MOL0     N 4271   1.262   8.706   0.801 -0.3113 -0.1937  0.4253
  773MOL0     C 4272   1.955   9.498   0.478 -0.3108  0.2133 -0.2572
  773MOL0     C 4273   2.088   9.509   0.469  0.2861  0.2366  0.1700
  773MOL0     C 4274   2.513   9.490   0.618  0.2769  1.0858 -0.0291
  773MOL0     C 4275   2.590   9.425   0.514  0.1169  0.2889  0.6995
  773MOL0     C 4276   2.730   9.430   0.512  0.4306 -0.3428  0.0800
  773MOL0     C 4277   2.793   9.501   0.608  0.2574 -0.3869  0.1691
  773MOL0     O 4278   2.930   9.511   0.588  0.1133  0.2581  0.6641
  773MOL0     C 4279   3.019   9.453   0.685  0.2884 -0.0677  0.5825
  773MOL0     C 4280   3.124   9.367   0.615 -0.1868 -0.2942  0.5094
  773MOL0     C 4281   3.191   9.275   0.711 -0.7710  0.0261  0.3520
  773MOL0     C 4282   3.311   9.196   0.648 -0.8135 -0.8070  0.2755
  773MOL0     C 4283   3.269   9.099   0.542 -0.7240  0.3503 -0.6063
  773MOL0     C 4284   3.238   9.006   0.473 -0.0999 -0.4930 -0.6863
  773MOL0     C 4285   2.718   9.575   0.703 -0.2855  0.0472 -0.8239
  773MOL0     C 4286   2.578   9.574   0.709  0.0223 -0.5587 -0.2995
  773MOL0     C 4287   2.507   9.662   0.812 -0.0158  0.2475 -0.2244
  773MOL0     H 4288   2.165   9.201   0.573  0.3235  0.0179  0.1341
  773MOL0     H 4289   1.925   9.176   0.587 -0.2584 -0.2923  1.2284
  773MOL0     H 4290   1.683   9.212   0.420  2.1428  1.5042 -0.1491
  773MOL0     H 4291   1.711   9.206   0.588  2.7533  0.2468  0.0960
  773MOL0     H 4292   1.495   9.361   0.430 -0.3052 -3.9607 -1.4792
  773MOL0     H 4293   1.508   9.388   0.610 -0.4288 -0.1569  0.1184
  773MOL0     H 4294   1.435   9.163   0.656  2.9781  1.1518 -0.0135
  773MOL0     H 4295   1.479   9.099   0.493  3.1898 -0.1992  1.6680
  773MOL0     H 4296   1.238   9.286   0.543  1.4558  2.3095 -1.8258
  773MOL0     H 4297   1.290   9.217   0.393  1.9256 -0.3866  0.1370
  773MOL0     H 4298   1.122   9.052   0.459 -1.5655 -1.5941  3.0031
  773MOL0     H 4299   1.289   8.996   0.494 -0.0076  0.3108  0.6245
  773MOL0     H 4300   1.259   9.032   0.731 -1.0183  0.3177  0.9660
  773MOL0     H 4301   1.110   9.135   0.700 -0.3217 -0.3861  0.0628
  773MOL0     H 4302   0.979   8.955   0.678  0.2206 -0.0644  1.3137
  773MOL0     H 4303   1.089   8.904   0.797  1.3422 -1.1752 -0.2105
  773MOL0     H 4304   1.052   8.717   0.629  0.9902  0.0067 -1.9548
  773MOL0     H 4305   1.125   8.817   0.506  0.5568 -1.6883  0.0867
  773MOL0     H 4306   1.379   8.709   0.497 -0.2488  0.6121 -0.0423
  773MOL0     H 4307   1.593   8.516   0.751 -5.0005 -0.7599 -0.2915
  773MOL0     H 4308   1.571   8.519   0.584 -0.6823  1.4405 -1.5777
  773MOL0     H 4309   1.676   8.755   0.752  2.1803  0.1855 -0.1770
  773MOL0     H 4310   1.789   8.635   0.698 -0.2082  0.5293  4.2236
  773MOL0     H 4311   1.625   8.841   0.533  1.3945  2.1026  0.0661
  773MOL0     H 4312   1.688   8.692   0.456  1.9199  1.3009 -1.6619
  773MOL0     H 4313   1.912   8.771   0.512  0.1640  0.8444  0.6898
  773MOL0     H 4314   1.842   8.892   0.613 -3.3246  0.5239 -0.0342
  773MOL0     H 4315   1.782   9.088   0.234 -0.3985 -3.5046 -0.2351
  773MOL0     H 4316   1.951   9.250   0.129 -0.2433 -0.3594 -0.1600
  773MOL0     H 4317   2.448   9.267  -0.019  1.4684 -0.0088 -0.8006
  773MOL0     H 4318   2.654   9.423  -0.088 -2.4717 -0.0723 -1.6492
  773MOL0     H 4319   2.623   9.826   0.080 -0.1921  1.5428  0.9364
  773MOL0     H 4320   2.752   9.770   0.190  4.0895  0.2501 -0.6898
  773MOL0     H 4321   2.841   9.941   0.099 -0.9495 -2.7250  2.0603
  773MOL0     H 4322   2.918   9.827   0.006  0.5726  2.5052 -0.2348
  773MOL0     H 4323   2.752   9.853  -0.190  0.6980 -1.0121  0.1475
  773MOL0     H 4324   2.684   9.982  -0.091  1.8456  2.3380  3.9816
  773MOL0     H 4325   2.959   9.970  -0.239 -1.7309  1.3852 -2.4527
  773MOL0     H 4326   2.944  10.076  -0.098  0.6573  2.5581 -2.9565
  773MOL0     H 4327   2.918  10.203  -0.262 -1.0102  0.8149 -0.8969
  773MOL0     H 4328   2.754  10.195  -0.205  0.1174 -0.8867  0.5548
  773MOL0     H 4329   2.849  10.031  -0.435 -0.8704  0.6546 -1.3048
  773MOL0     H 4330   2.687  10.026  -0.372  1.1397 -2.0185  0.3746
  773MOL0     H 4331   2.813  10.286  -0.490 -1.0647  1.6515  0.7724
  773MOL0     H 4332   2.657  10.270  -0.420 -1.1207 -1.2474 -2.0177
  773MOL0     H 4333   2.767  10.107  -0.653  2.5663  2.1334  1.6174
  773MOL0     H 4334   2.611  10.073  -0.577 -0.9894  0.6861 -0.8714
  773MOL0     H 4335   2.560   9.664   0.254  1.2280 -0.9660  1.0227
  773MOL0     H 4336   2.396   9.508   0.329 -0.0192  1.3804 -0.2824
  773MOL0     H 4337   2.257   9.057   0.354 -0.2757  0.1809  1.1830
  773MOL0     H 4338   2.086   8.908   0.461  1.4637 -0.9584  0.3015
  773MOL0     H 4339   1.885   9.579   0.455 -1.0183 -0.0873  0.7369
  773MOL0     H 4340   2.132   9.601   0.434  0.9034 -0.0840  0.0788
  773MOL0     H 4341   2.534   9.369   0.439 -1.1553  0.2108  1.6699
  773MOL0     H 4342   2.777   9.383   0.426  1.1474  1.1513 -0.3798
  773MOL0     H 4343   2.956   9.381   0.738 -0.3130  1.2666  1.7138
  773MOL0     H 4344   3.071   9.517   0.756  3.0834 -0.9960 -0.4732
  773MOL0     H 4345   3.203   9.437   0.585 -0.8685 -0.5641 -2.1778
  773MOL0     H 4346   3.092   9.323   0.520  3.7393 -1.0952 -0.6302
  773MOL0     H 4347   3.111   9.208   0.744 -0.3063  0.5116  2.6049
  773MOL0     H 4348   3.223   9.329   0.801  0.5611  0.8161 -0.5608
  773MOL0     H 4349   3.384   9.263   0.603 -0.3387 -0.6093  1.3223
  773MOL0     H 4350   3.356   9.136   0.728 -2.6115 -0.3905  1.6896
  773MOL0     H 4351   3.201   8.938   0.399  0.9509  0.2739 -1.9708
  773MOL0     H 4352   2.781   9.640   0.761  1.2619 -0.5113 -1.8266
  773MOL0     H 4353   2.425   9.714   0.763 -1.0881  0.5048  1.7175
  773MOL0     H 4354   2.461   9.602   0.892  0.4700  0.5868  0.3217
  773MOL0     H 4355   2.578   9.735   0.851  0.3844  1.1786 -2.5546
  774MOL0     O 4356   5.503   2.450   1.572 -0.0701 -0.0644  0.2497
  774MOL0     C 4357   5.520   2.457   1.695 -0.1975 -0.6433  0.2113
  774MOL0     O 4358   5.575   2.567   1.757 -0.4211 -0.1093  0.8191
  774MOL0     C 4359   5.655   2.666   1.687 -0.4600  0.4518 -0.2435
  774MOL0     C 4360   5.741   2.630   1.578  0.4423 -0.5021 -0.2664
  774MOL0     C 4361   5.831   2.718   1.527  0.1061 -0.5740  1.1194
  774MOL0     C 4362   5.844   2.839   1.587 -0.7723 -0.5010 -0.4027
  774MOL0     O 4363   5.940   2.910   1.521 -0.7439  0.3848 -0.6677
  774MOL0     C 4364   5.988   3.027   1.588 -0.2793 -0.3773 -0.1352
  774MOL0     C 4365   6.101   3.086   1.494  0.6585  0.3951  1.0739
  774MOL0     C 4366   6.196   3.159   1.584 -0.6489  0.5616  0.5756
  774MOL0     C 4367   6.276   3.253   1.503  0.2585  0.1766 -0.1709
  774MOL0     C 4368   6.347   3.359   1.580 -0.7821  0.9791  0.1824
  774MOL0     C 4369   6.250   3.441   1.659  0.1912  0.1495 -0.7528
  774MOL0     C 4370   6.316   3.574   1.686  0.3019 -0.3292  0.1003
  774MOL0     C 4371   6.406   3.573   1.805 -0.0203 -0.1113 -0.0864
  774MOL0     N 4372   6.478   3.701   1.801  0.3046  0.0034 -0.7820
  774MOL0     C 4373   6.613   3.724   1.759  0.1688 -0.5411  0.7638
  774MOL0     C 4374   6.640   3.854   1.787  0.7633 -0.6342  0.1542
  774MOL0     C 4375   6.769   3.935   1.794 -0.8826  0.4773  0.3625
  774MOL0     C 4376   6.765   4.046   1.687 -0.0141  0.1445  0.0409
  774MOL0     C 4377   6.885   4.131   1.682 -0.2260  0.4223  1.1970
  774MOL0     C 4378   6.853   4.248   1.784  0.0753  0.6861 -0.5291
  774MOL0     O 4379   6.756   4.340   1.731 -0.1952  0.7280  0.7553
  774MOL0     C 4380   6.738   4.461   1.795  1.4433  0.1333  0.0808
  774MOL0     C 4381   6.736   4.571   1.711 -0.2628 -0.8606 -0.2663
  774MOL0     C 4382   6.708   4.704   1.765 -0.6091  0.3633  0.0780
  774MOL0     C 4383   6.693   4.714   1.904  0.3111  0.2742  0.2345
  774MOL0     C 4384   6.686   4.839   1.973 -0.4673 -0.8179 -0.3708
  774MOL0     O 4385   6.634   4.847   2.096 -0.1187  0.4437 -0.1485
  774MOL0     C 4386   6.651   4.958   2.171 -0.0488  0.0993 -0.3537
  774MOL0     C 4387   6.778   4.989   2.207  0.7631 -0.2299  0.1232
  774MOL0     C 4388   6.803   5.109   2.282 -0.4130  0.2465 -0.2847
  774MOL0     C 4389   6.691   5.191   2.324  0.4615 -0.4029  0.3436
  774MOL0     O 4390   6.714   5.307   2.390 -0.5150  0.3460  0.4308
  774MOL0     C 4391   6.721   5.412   2.292 -0.2853  0.6112  0.4689
  774MOL0     C 4392   6.787   5.527   2.357  0.2053 -0.6813 -0.2902
  774MOL0     C 4393   6.726   5.577   2.491 -1.0505  0.1926  0.1005
  774MOL0     C 4394   6.813   5.702   2.540 -0.6392 -0.3803 -0.3439
  774MOL0     C 4395   6.946   5.665   2.600 -0.3599 -0.2969  0.7836
  774MOL0     C 4396   6.996   5.775   2.689 -1.0317  0.6653 -1.3213
  774MOL0     C 4397   7.130   5.713   2.748 -0.5717 -0.5684 -0.4171
  774MOL0     C 4398   7.220   5.818   2.802 -0.3211  0.5244  0.1302
  774MOL0    Cl 4399   7.169   5.892   2.957 -0.2520  0.0554 -0.1967
  774MOL0     C 4400   6.563   5.154   2.281  0.8508 -0.3350 -0.1539
  774MOL0     C 4401   6.544   5.032   2.221  0.1987 -0.3453 -0.1425
  774MOL0     O 4402   6.724   4.945   1.910  0.1590  0.7542  0.2727
  774MOL0     C 4403   6.716   4.601   1.990 -0.1472  0.0518 -0.3159
  774MOL0     C 4404   6.731   4.480   1.930 -1.4668  1.2069  1.0769
  774MOL0     N 4405   6.519   3.909   1.838 -0.1952  0.1848 -0.0825
  774MOL0     N 4406   6.431   3.822   1.839 -0.5260  0.1564  0.7051
  774MOL0     C 4407   5.775   2.877   1.706  0.3647  0.7713 -0.4841
  774MOL0     C 4408   5.672   2.792   1.737 -0.4080  0.1411 -0.1424
  774MOL0     C 4409   5.479   2.350   1.791  0.5056  0.1905  0.5006
  774MOL0     C 4410   5.530   2.354   1.920 -0.4844  0.4977  0.4461
  774MOL0     C 4411   5.495   2.255   2.013 -0.3491  0.3401 -0.4692
  774MOL0     C 4412   5.381   2.165   1.986 -0.1999  0.2223 -0.1800
  774MOL0     O 4413   5.335   2.069   2.074  0.6145 -0.2586 -0.3058
  774MOL0     C 4414   5.355   2.102   2.212  0.2257  0.5987  1.0611
  774MOL0     C 4415   5.300   1.987   2.306 -0.4381 -0.2861 -0.4409
  774MOL0     C 4416   5.159   1.965   2.257  0.5321 -0.1470  0.9218
  774MOL0     C 4417   5.068   1.896   2.361 -0.5304 -0.6693  0.3688
  774MOL0     C 4418   5.106   1.759   2.361  0.9034  0.2653 -1.0050
  774MOL0     C 4419   5.142   1.644   2.357 -0.6284 -0.2082  1.1091
  774MOL0     C 4420   5.332   2.163   1.857  0.9369 -0.0844  0.0238
  774MOL0     C 4421   5.382   2.251   1.758 -0.3097  0.1708  0.4551
  774MOL0     C 4422   5.313   2.229   1.624  0.0560 -0.0129 -0.0846
  774MOL0     H 4423   5.734   2.535   1.527 -2.2243 -0.3405 -0.3310
  774MOL0     H 4424   5.895   2.693   1.443 -0.8990  2.5849 -0.7922
  774MOL0     H 4425   5.910   3.103   1.596  0.5410  0.2942  2.7328
  774MOL0     H 4426   6.017   3.004   1.691 -0.8681  1.1006  0.3934
  774MOL0     H 4427   6.052   3.149   1.420 -0.7779 -3.5395 -1.6498
  774MOL0     H 4428   6.149   3.000   1.446  0.2508  1.2244 -0.9182
  774MOL0     H 4429   6.253   3.090   1.646 -0.3842 -0.4864 -0.7884
  774MOL0     H 4430   6.135   3.214   1.656  0.3374  3.5569 -0.7214
  774MOL0     H 4431   6.343   3.190   1.444  0.8808 -0.7359  1.4249
  774MOL0     H 4432   6.213   3.309   1.434 -1.6051  0.7793  1.9008
  774MOL0     H 4433   6.426   3.316   1.642 -0.7898  0.2353 -0.3100
  774MOL0     H 4434   6.397   3.412   1.498  0.6795 -0.4219  0.1191
  774MOL0     H 4435   6.162   3.479   1.607  2.3616  1.4527 -3.8141
  774MOL0     H 4436   6.209   3.392   1.747 -2.0743  2.3627 -0.4718
  774MOL0     H 4437   6.233   3.643   1.703  0.1060  1.2097 -5.1649
  774MOL0     H 4438   6.368   3.619   1.600 -0.8132 -0.4487 -0.6643
  774MOL0     H 4439   6.343   3.552   1.892  0.7509 -0.8286  0.3160
  774MOL0     H 4440   6.481   3.493   1.809 -0.6291 -0.7521 -0.9177
  774MOL0     H 4441   6.690   3.658   1.720 -0.5833 -0.4985 -0.8586
  774MOL0     H 4442   6.754   3.979   1.892 -5.8107  0.1934 -0.0392
  774MOL0     H 4443   6.858   3.873   1.781 -0.7586  1.0389 -1.9856
  774MOL0     H 4444   6.747   4.002   1.588  3.2809  1.2930 -1.1892
  774MOL0     H 4445   6.680   4.112   1.707  0.9776  0.5027  3.6805
  774MOL0     H 4446   6.889   4.171   1.580 -0.8298 -1.4754  0.3976
  774MOL0     H 4447   6.978   4.079   1.707  0.2735 -0.3211 -1.8209
  774MOL0     H 4448   6.950   4.300   1.789 -0.3298  1.3927  0.2820
  774MOL0     H 4449   6.821   4.190   1.871 -1.7256 -2.2893 -2.9650
  774MOL0     H 4450   6.745   4.553   1.605  0.2737 -0.7197 -0.2511
  774MOL0     H 4451   6.701   4.791   1.701  3.2754 -0.6215 -2.0183
  774MOL0     H 4452   6.852   4.915   2.179 -0.3855 -1.6971  0.8859
  774MOL0     H 4453   6.906   5.136   2.302 -0.5228  0.3081  0.1997
  774MOL0     H 4454   6.770   5.389   2.197 -1.5348  0.4319 -0.1479
  774MOL0     H 4455   6.616   5.437   2.274  0.3070  3.2979  0.2335
  774MOL0     H 4456   6.889   5.498   2.384  0.4758  0.2291 -0.3288
  774MOL0     H 4457   6.802   5.614   2.292  1.3029  0.6790  1.6908
  774MOL0     H 4458   6.623   5.611   2.482 -1.8166 -2.2521 -1.2323
  774MOL0     H 4459   6.738   5.496   2.564  0.3607 -1.3671 -1.7561
  774MOL0     H 4460   6.757   5.750   2.620 -2.1531 -1.7883 -0.5021
  774MOL0     H 4461   6.822   5.771   2.456 -0.8145  3.0479  2.2594
  774MOL0     H 4462   7.020   5.646   2.522 -0.4010  2.1328  0.0771
  774MOL0     H 4463   6.944   5.574   2.661 -0.8308 -0.8461 -0.0248
  774MOL0     H 4464   7.003   5.865   2.627  1.1975 -0.2808 -2.5758
  774MOL0     H 4465   6.933   5.795   2.776  0.6061  4.7131 -0.8072
  774MOL0     H 4466   7.192   5.670   2.668  1.2261  1.7745 -0.3962
  774MOL0     H 4467   7.099   5.632   2.815  1.0641 -1.4404 -0.6623
  774MOL0     H 4468   7.320   5.773   2.811 -0.4578  0.2517  0.2835
  774MOL0     H 4469   7.219   5.893   2.722 -4.2522  1.4739  0.8854
  774MOL0     H 4470   6.478   5.208   2.323  0.4574 -1.0412 -0.0136
  774MOL0     H 4471   6.447   4.997   2.187 -0.2036  0.8560 -0.2594
  774MOL0     H 4472   6.717   4.617   2.097 -3.7226  0.1957 -0.1703
  774MOL0     H 4473   6.736   4.389   1.989 -0.1444  0.2209 -0.4721
  774MOL0     H 4474   5.779   2.973   1.755  1.3398  0.7349 -0.4674
  774MOL0     H 4475   5.604   2.821   1.816  0.9860  1.7644  0.5210
  774MOL0     H 4476   5.591   2.435   1.959  1.0513 -0.2542 -0.2921
  774MOL0     H 4477   5.537   2.261   2.114  0.4765  1.6624 -0.8666
  774MOL0     H 4478   5.309   2.200   2.224 -1.7355 -0.1538  0.0936
  774MOL0     H 4479   5.458   2.112   2.248  0.4594  0.6537  0.3887
  774MOL0     H 4480   5.305   1.999   2.415 -0.8829 -3.7615  0.0804
  774MOL0     H 4481   5.348   1.892   2.280 -0.6609 -0.6165  0.3290
  774MOL0     H 4482   5.168   1.910   2.162  1.6924 -0.9542  1.4707
  774MOL0     H 4483   5.116   2.064   2.242  0.4473 -0.0904  1.5475
  774MOL0     H 4484   5.085   1.946   2.457  3.0771  1.6729 -1.2759
  774MOL0     H 4485   4.962   1.913   2.336  0.1038  1.7426 -0.9911
  774MOL0     H 4486   5.189   1.547   2.359  3.4163  1.4984 -0.8589
  774MOL0     H 4487   5.262   2.082   1.839 -0.2074  0.5688  1.3961
  774MOL0     H 4488   5.379   2.244   1.538  1.2465 -1.5671  0.4957
  774MOL0     H 4489   5.274   2.127   1.614 -1.2329  0.2763  1.5170
  774MOL0     H 4490   5.232   2.299   1.605  0.6499  0.3003 -1.5717
  775MOL0     O 4491   3.280  10.946   7.216  0.1102  0.0162 -0.1388
  775MOL0     C 4492   3.344  10.971   7.114  0.2897 -1.5274  0.5579
  775MOL0     O 4493   3.310  11.058   7.022 -0.1909 -0.2700 -0.1534
  775MOL0     C 4494   3.188  11.109   7.002  0.0430 -0.1449 -0.0778
  775MOL0     C 4495   3.064  11.063   7.054 -0.6559  0.2619 -0.1047
  775MOL0     C 4496   2.944  11.116   7.000 -0.0266  0.2399 -0.7428
  775MOL0     C 4497   2.951  11.222   6.914  0.5610  0.3001  0.6713
  775MOL0     O 4498   2.828  11.259   6.877  0.1320  0.5563  0.3900
  775MOL0     C 4499   2.809  11.376   6.800 -0.0348  0.0839 -0.5041
  775MOL0     C 4500   2.657  11.389   6.801  0.7092  0.3425  0.4530
  775MOL0     C 4501   2.592  11.494   6.716 -0.4285 -0.1212 -0.6804
  775MOL0     C 4502   2.589  11.451   6.559  0.0208  0.1222 -0.0605
  775MOL0     C 4503   2.494  11.538   6.474 -0.4640 -0.0917  1.2117
  775MOL0     C 4504   2.533  11.542   6.330  0.0820  0.5555 -0.1892
  775MOL0     C 4505   2.433  11.631   6.248  0.3174  0.9216 -0.5123
  775MOL0     C 4506   2.474  11.648   6.104 -0.1739  0.7711  0.3181
  775MOL0     N 4507   2.450  11.514   6.030  1.0016 -0.7908  0.2451
  775MOL0     C 4508   2.537  11.404   6.036  1.2122  0.1776  0.2626
  775MOL0     C 4509   2.502  11.345   5.919 -0.5318 -0.7143 -0.3002
  775MOL0     C 4510   2.566  11.210   5.876 -0.1318 -0.4229 -0.1854
  775MOL0     C 4511   2.497  11.094   5.942 -0.9320 -0.5590 -0.8180
  775MOL0     C 4512   2.366  11.048   5.867  0.1898 -0.2503  0.7105
  775MOL0     C 4513   2.364  10.987   5.726 -0.1540  0.1827  0.2928
  775MOL0     O 4514   2.445  10.867   5.717  0.2714 -0.2655  0.4003
  775MOL0     C 4515   2.390  10.743   5.753 -0.1005 -0.5546 -0.2860
  775MOL0     C 4516   2.263  10.729   5.817 -0.4996  0.5003 -0.0840
  775MOL0     C 4517   2.204  10.597   5.828  0.0662  0.0585 -0.8017
  775MOL0     C 4518   2.270  10.487   5.779 -0.5055 -0.4908 -0.0756
  775MOL0     C 4519   2.201  10.355   5.760 -0.7798  0.4413  0.2377
  775MOL0     O 4520   2.278  10.246   5.722  1.3039 -1.6404  0.2524
  775MOL0     C 4521   2.200  10.130   5.689 -0.2832  0.1055  0.3609
  775MOL0     C 4522   2.202  10.091   5.550  0.0095  0.3492 -0.0652
  775MOL0     C 4523   2.110   9.995   5.500 -0.3920  0.1618  0.7691
  775MOL0     C 4524   2.033   9.924   5.587  0.5374  0.2160 -0.9056
  775MOL0     O 4525   1.960   9.816   5.554 -1.4189  0.9703  0.0132
  775MOL0     C 4526   1.969   9.753   5.427 -0.7798  0.6916  0.2734
  775MOL0     C 4527   1.875   9.820   5.322 -0.8403  0.5044  0.5480
  775MOL0     C 4528   1.882   9.763   5.172  0.9315  0.8533  0.0453
  775MOL0     C 4529   1.844   9.609   5.169 -1.0011  0.0420  0.0503
  775MOL0     C 4530   1.896   9.532   5.042  0.3631 -1.0995 -0.1859
  775MOL0     C 4531   1.858   9.381   5.060 -0.1484 -0.9463  0.2001
  775MOL0     C 4532   1.941   9.301   4.959 -0.0171 -0.1988  0.3976
  775MOL0     C 4533   1.965   9.167   5.022  1.0744  0.5588  0.3812
  775MOL0    Cl 4534   1.814   9.079   5.007  0.4003 -0.3309 -0.5243
  775MOL0     C 4535   2.036   9.950   5.723 -0.3477 -0.1563 -0.3972
  775MOL0     C 4536   2.110  10.056   5.772 -0.8075  0.1381  0.0780
  775MOL0     O 4537   2.081  10.352   5.779  0.9712  0.3761  0.3012
  775MOL0     C 4538   2.400  10.503   5.730 -0.3202 -0.1655  0.1740
  775MOL0     C 4539   2.460  10.630   5.722 -0.7705 -0.2858  0.1813
  775MOL0     N 4540   2.396  11.417   5.844 -0.4313  0.3093 -0.7423
  775MOL0     N 4541   2.367  11.511   5.921  0.5706 -0.3413  0.1740
  775MOL0     C 4542   3.072  11.278   6.867 -0.1611  0.1821  0.2155
  775MOL0     C 4543   3.193  11.216   6.921  0.2349 -0.1880 -0.3322
  775MOL0     C 4544   3.467  10.892   7.093 -0.4368 -1.2720  0.2958
  775MOL0     C 4545   3.569  10.957   7.021 -0.2517 -0.0761  0.6362
  775MOL0     C 4546   3.703  10.912   7.013  1.3107  1.4106 -0.5001
  775MOL0     C 4547   3.731  10.778   7.062 -0.5200  0.4127 -0.0430
  775MOL0     O 4548   3.852  10.713   7.035  1.1248  0.1135 -0.3098
  775MOL0     C 4549   3.959  10.789   7.077 -1.5599  1.1523 -0.1456
  775MOL0     C 4550   4.079  10.736   7.000 -0.1102 -0.2361 -0.0563
  775MOL0     C 4551   4.202  10.831   7.003  0.0200  0.4652  0.7442
  775MOL0     C 4552   4.194  10.943   6.901 -0.7261  0.2196  0.0538
  775MOL0     C 4553   4.321  11.021   6.917 -0.6528 -0.0445  0.5093
  775MOL0     C 4554   4.424  11.078   6.911 -0.3825 -0.2245 -0.3763
  775MOL0     C 4555   3.626  10.705   7.118 -0.2524  0.4230  0.7491
  775MOL0     C 4556   3.499  10.765   7.149  0.4374 -0.3387  0.7654
  775MOL0     C 4557   3.396  10.682   7.223  0.1759  0.3672 -0.7213
  775MOL0     H 4558   3.068  10.981   7.124  1.0586 -0.1161 -0.5987
  775MOL0     H 4559   2.848  11.076   7.033  0.5550  1.3649  2.6969
  775MOL0     H 4560   2.855  11.466   6.843  1.3482 -0.8187 -0.0418
  775MOL0     H 4561   2.829  11.345   6.697 -1.9762 -2.6765 -0.1573
  775MOL0     H 4562   2.621  11.407   6.903 -0.9993 -2.3477  0.4281
  775MOL0     H 4563   2.615  11.296   6.762  1.0574  0.7398 -0.9053
  775MOL0     H 4564   2.649  11.584   6.740  3.5201 -2.4781 -0.5025
  775MOL0     H 4565   2.496  11.518   6.763  0.8315 -0.5170  2.3050
  775MOL0     H 4566   2.692  11.457   6.523  0.5910 -3.0860  0.7235
  775MOL0     H 4567   2.568  11.344   6.552  1.3615 -0.2487  0.9598
  775MOL0     H 4568   2.397  11.488   6.481  0.5351 -2.2476  0.3415
  775MOL0     H 4569   2.486  11.637   6.521 -2.2704  0.4964 -0.2198
  775MOL0     H 4570   2.632  11.588   6.322  1.3930 -2.2533 -1.2620
  775MOL0     H 4571   2.539  11.443   6.285 -1.7026  1.4989 -2.7821
  775MOL0     H 4572   2.415  11.732   6.286  0.1202  0.8299 -0.3570
  775MOL0     H 4573   2.340  11.573   6.258  0.6992  0.5039  1.0022
  775MOL0     H 4574   2.418  11.733   6.063 -0.3715  2.4485  3.7599
  775MOL0     H 4575   2.578  11.679   6.107  0.8905 -2.4695  1.5625
  775MOL0     H 4576   2.612  11.398   6.114  0.3111  1.4971  1.2518
  775MOL0     H 4577   2.569  11.194   5.767  1.8208  0.1370 -0.2446
  775MOL0     H 4578   2.669  11.207   5.911 -0.7255 -1.3668  1.5847
  775MOL0     H 4579   2.568  11.011   5.947 -0.3622 -0.0322  2.8836
  775MOL0     H 4580   2.483  11.114   6.049  4.3841  0.4927 -0.0244
  775MOL0     H 4581   2.301  11.136   5.870  1.9030  1.0970  0.1793
  775MOL0     H 4582   2.323  10.975   5.937  1.4328  0.0185  1.8110
  775MOL0     H 4583   2.408  11.058   5.655 -0.4781  0.7068  0.6119
  775MOL0     H 4584   2.258  10.969   5.706 -0.1417 -0.8923  1.1114
  775MOL0     H 4585   2.201  10.809   5.857 -1.9588 -0.3561 -0.5646
  775MOL0     H 4586   2.108  10.581   5.877 -0.1004  0.9358 -0.8306
  775MOL0     H 4587   2.261  10.146   5.478 -0.7053  2.1452  0.6668
  775MOL0     H 4588   2.106   9.971   5.394  0.4193 -1.3424  1.0446
  775MOL0     H 4589   2.073   9.742   5.396 -0.8797 -4.2212  0.9831
  775MOL0     H 4590   1.940   9.649   5.443 -0.3254  0.8155  2.0743
  775MOL0     H 4591   1.774   9.821   5.365 -1.9432  0.0808 -1.8603
  775MOL0     H 4592   1.908   9.924   5.308 -1.2114  0.6159  0.4675
  775MOL0     H 4593   1.804   9.821   5.123 -2.1435 -3.4249 -0.7626
  775MOL0     H 4594   1.982   9.777   5.130  2.4483 -3.2486  1.6969
  775MOL0     H 4595   1.736   9.601   5.186 -0.9914  0.3434  0.2756
  775MOL0     H 4596   1.896   9.563   5.253  1.2786  1.3293 -0.5659
  775MOL0     H 4597   2.004   9.553   5.037  0.0348  0.3225 -2.3222
  775MOL0     H 4598   1.857   9.566   4.946 -0.4112 -0.9539  0.1761
  775MOL0     H 4599   1.887   9.349   5.160  1.0704 -2.6080 -0.6154
  775MOL0     H 4600   1.751   9.361   5.049 -0.2003 -2.4073  2.7609
  775MOL0     H 4601   2.043   9.335   4.939 -0.4955  0.4025 -1.0788
  775MOL0     H 4602   1.894   9.275   4.864 -1.1947 -1.1309  1.2056
  775MOL0     H 4603   2.035   9.117   4.955  0.9698 -0.3028  0.9059
  775MOL0     H 4604   2.012   9.156   5.120  4.2433 -0.4378 -1.1359
  775MOL0     H 4605   1.978   9.891   5.794 -0.0183 -0.4645 -0.3828
  775MOL0     H 4606   2.095  10.088   5.875  1.6112  3.2265 -0.3722
  775MOL0     H 4607   2.443  10.428   5.665 -1.1240 -0.8437  0.4124
  775MOL0     H 4608   2.554  10.643   5.669 -2.1845 -1.7698 -2.9649
  775MOL0     H 4609   3.085  11.352   6.789  0.0401 -1.9595 -1.9115
  775MOL0     H 4610   3.290  11.252   6.888  0.6198  1.3939  2.2888
  775MOL0     H 4611   3.543  11.050   6.971 -1.7983  0.1951  1.8652
  775MOL0     H 4612   3.765  10.985   6.962 -0.2167  2.1386 -1.4126
  775MOL0     H 4613   3.976  10.781   7.184  1.9850 -0.1668 -0.6514
  775MOL0     H 4614   3.948  10.895   7.055  0.7817  1.3350 -0.7429
  775MOL0     H 4615   4.047  10.742   6.896 -1.4971  0.5837  0.3899
  775MOL0     H 4616   4.115  10.638   7.034  0.8563  1.1174  3.2640
  775MOL0     H 4617   4.292  10.769   6.994  0.4670  0.5931  3.6348
  775MOL0     H 4618   4.208  10.883   7.099 -0.0904 -1.5491  1.9009
  775MOL0     H 4619   4.184  10.907   6.798 -1.0764  1.8711 -0.5097
  775MOL0     H 4620   4.107  11.005   6.921 -0.4777  0.1848  1.3502
  775MOL0     H 4621   4.517  11.126   6.889  0.5351 -2.1089 -0.8095
  775MOL0     H 4622   3.636  10.599   7.141 -3.0859 -0.3345 -1.0902
  775MOL0     H 4623   3.294  10.703   7.189 -0.8917 -0.5408  1.7114
  775MOL0     H 4624   3.415  10.576   7.200  0.4918 -0.3068  2.2862
  775MOL0     H 4625   3.389  10.688   7.332 -0.1472 -3.1797 -0.4113
  776MOL0     O 4626  10.913   6.096   5.230 -0.2293  0.1448  0.5661
  776MOL0     C 4627  10.928   6.193   5.304 -0.6066  0.3824  0.2684
  776MOL0     O 4628  10.879   6.320   5.291 -0.0820 -0.3865  0.0349
  776MOL0     C 4629  10.817   6.355   5.173 -0.4573 -0.1711 -0.8504
  776MOL0     C 4630  10.852   6.472   5.114  0.1159  0.4179  0.3971
  776MOL0     C 4631  10.783   6.519   4.997  0.0696 -0.0817 -0.1551
  776MOL0     C 4632  10.675   6.448   4.947  0.6628  0.1684  0.2289
  776MOL0     O 4633  10.601   6.513   4.851 -0.4576 -0.4631 -0.5256
  776MOL0     C 4634  10.498   6.451   4.790 -0.1111  0.5946  0.0517
  776MOL0     C 4635  10.420   6.546   4.696 -0.6218  0.4349  0.2918
  776MOL0     C 4636  10.297   6.594   4.763  0.5230 -0.8033  0.0357
  776MOL0     C 4637  10.226   6.715   4.693 -0.2935  0.1494 -0.0404
  776MOL0     C 4638  10.314   6.832   4.708  0.6128 -0.5536  0.4978
  776MOL0     C 4639  10.270   6.958   4.612  0.1225 -0.5969  0.6659
  776MOL0     C 4640  10.145   7.031   4.662  0.8663 -0.6850 -0.2472
  776MOL0     C 4641  10.152   7.085   4.804  0.6881 -0.6506 -0.1991
  776MOL0     N 4642  10.268   7.168   4.817  0.2002 -0.0100  0.0774
  776MOL0     C 4643  10.372   7.140   4.906  0.4338 -0.6346 -0.4636
  776MOL0     C 4644  10.447   7.245   4.912  0.0639 -0.2975 -0.8642
  776MOL0     C 4645  10.564   7.278   4.996  0.5095 -0.5530 -0.1262
  776MOL0     C 4646  10.543   7.420   5.057  0.3428 -0.0743 -0.7540
  776MOL0     C 4647  10.657   7.448   5.154  0.2147 -0.6528 -0.6747
  776MOL0     C 4648  10.645   7.600   5.191  1.3197  0.9128  0.7924
  776MOL0     O 4649  10.704   7.631   5.323 -0.1681 -0.6831  0.0483
  776MOL0     C 4650  10.845   7.630   5.328  0.3798 -0.8464 -0.4450
  776MOL0     C 4651  10.897   7.662   5.454  0.7277  0.3801  0.4244
  776MOL0     C 4652  11.037   7.672   5.475 -0.9500  0.5278  0.2002
  776MOL0     C 4653  11.132   7.626   5.376  0.6046  0.3017 -0.0302
  776MOL0     C 4654  11.272   7.607   5.406 -0.3644  0.1579 -0.0980
  776MOL0     O 4655  11.364   7.608   5.299  0.5406  0.4664  0.9381
  776MOL0     C 4656  11.491   7.640   5.331  0.5384  0.3136 -0.6053
  776MOL0     C 4657  11.528   7.764   5.380  0.5644  0.2466  0.1614
  776MOL0     C 4658  11.664   7.803   5.387  0.0946 -0.8567 -0.0631
  776MOL0     C 4659  11.762   7.710   5.351  0.6479  1.3002 -0.2166
  776MOL0     O 4660  11.889   7.744   5.381 -0.6566  0.2059 -0.0339
  776MOL0     C 4661  12.002   7.659   5.359 -0.9735 -0.3265  0.1820
  776MOL0     C 4662  12.015   7.564   5.470 -0.2755  0.4588  0.8642
  776MOL0     C 4663  12.156   7.499   5.469  0.0326 -1.0852  0.0040
  776MOL0     C 4664  12.165   7.386   5.567  0.4073  0.1883 -0.1743
  776MOL0     C 4665  12.298   7.313   5.544  0.5576  0.1112 -0.7061
  776MOL0     C 4666  12.395   7.374   5.649  0.3361 -0.4332  0.0253
  776MOL0     C 4667  12.543   7.359   5.616 -0.3528  0.1764  0.5586
  776MOL0     C 4668  12.613   7.457   5.517 -1.0799  0.3735  0.5870
  776MOL0    Cl 4669  12.588   7.626   5.570 -0.1656  0.0402  0.0381
  776MOL0     C 4670  11.713   7.582   5.302 -0.2498 -1.2185 -0.2583
  776MOL0     C 4671  11.581   7.543   5.291  0.1757 -0.0187  0.2150
  776MOL0     O 4672  11.295   7.598   5.525  0.2108  0.9237  0.7884
  776MOL0     C 4673  11.077   7.610   5.249 -0.5356  0.3369 -0.1711
  776MOL0     C 4674  10.934   7.607   5.230  0.0813  0.2467  0.7874
  776MOL0     N 4675  10.393   7.340   4.819 -0.7300  0.1852  0.2290
  776MOL0     N 4676  10.289   7.294   4.763  0.1346 -0.4826  0.9162
  776MOL0     C 4677  10.640   6.324   5.005  0.3280 -0.0925  0.1700
  776MOL0     C 4678  10.705   6.288   5.121  0.7860 -0.3408 -0.0027
  776MOL0     C 4679  10.998   6.166   5.435 -0.5304  0.0734  0.7961
  776MOL0     C 4680  10.922   6.140   5.546  0.1949  0.6267 -0.8669
  776MOL0     C 4681  10.986   6.097   5.661 -0.9774 -0.3462 -0.5079
  776MOL0     C 4682  11.126   6.092   5.673 -1.1521  0.3694  0.2176
  776MOL0     O 4683  11.178   6.068   5.790  0.8337 -0.0625 -0.3272
  776MOL0     C 4684  11.258   5.952   5.779  0.6179  1.0207 -0.9038
  776MOL0     C 4685  11.275   5.883   5.929 -0.3293  0.4721  0.0620
  776MOL0     C 4686  11.361   5.756   5.929 -0.4520 -0.5310 -0.4079
  776MOL0     C 4687  11.487   5.764   6.021  0.5104  0.6700 -0.4435
  776MOL0     C 4688  11.588   5.844   5.963  0.2048 -0.2747 -0.3706
  776MOL0     C 4689  11.672   5.916   5.918 -0.5019 -0.3177  0.1888
  776MOL0     C 4690  11.201   6.108   5.554 -0.6014 -0.0696  0.3607
  776MOL0     C 4691  11.141   6.152   5.438  1.1177  0.4868  0.1641
  776MOL0     C 4692  11.219   6.173   5.311  0.1835  0.1089  0.6881
  776MOL0     H 4693  10.925   6.534   5.165  0.2213  0.6248 -0.0049
  776MOL0     H 4694  10.807   6.617   4.958 -2.1995 -0.8419 -3.9522
  776MOL0     H 4695  10.535   6.361   4.739  1.9872  1.6092 -0.3196
  776MOL0     H 4696  10.434   6.429   4.877 -2.7494  4.0802 -0.7737
  776MOL0     H 4697  10.382   6.481   4.616  0.8884 -2.9061  2.1050
  776MOL0     H 4698  10.498   6.615   4.664  1.7793 -0.1911  4.1863
  776MOL0     H 4699  10.302   6.615   4.871 -2.1406 -0.1459  0.1004
  776MOL0     H 4700  10.229   6.509   4.763 -1.4824  0.7007 -1.7021
  776MOL0     H 4701  10.212   6.698   4.585  0.9559  2.3375 -0.6180
  776MOL0     H 4702  10.127   6.722   4.739 -1.2479  1.4445 -2.1301
  776MOL0     H 4703  10.320   6.865   4.812  0.4311 -0.4905  0.4883
  776MOL0     H 4704  10.412   6.805   4.666  0.1756 -0.4458 -0.6245
  776MOL0     H 4705  10.359   7.019   4.594 -0.1644 -0.4984 -0.5014
  776MOL0     H 4706  10.254   6.923   4.510  0.5762 -0.8119  0.6649
  776MOL0     H 4707  10.056   6.968   4.662  0.4592 -0.1154 -0.1942
  776MOL0     H 4708  10.115   7.115   4.599 -1.1834 -1.2787 -0.1295
  776MOL0     H 4709  10.062   7.145   4.821  1.4311  0.1135  1.2774
  776MOL0     H 4710  10.147   7.000   4.873 -1.6717 -0.6027 -0.2347
  776MOL0     H 4711  10.388   7.054   4.971  1.9331  1.3929  2.0170
  776MOL0     H 4712  10.582   7.202   5.072 -0.0927  0.0353  0.6109
  776MOL0     H 4713  10.658   7.281   4.938 -0.8498  1.4074 -2.4261
  776MOL0     H 4714  10.525   7.495   4.979  1.1194  0.1206 -0.7524
  776MOL0     H 4715  10.458   7.434   5.124 -0.0813 -1.5317 -0.9472
  776MOL0     H 4716  10.751   7.414   5.110  0.0018  1.6397 -3.1242
  776MOL0     H 4717  10.648   7.380   5.240 -0.6052 -1.1152 -1.1153
  776MOL0     H 4718  10.541   7.634   5.197  1.2755  1.3329 -1.5328
  776MOL0     H 4719  10.685   7.658   5.108  2.5335 -1.6144 -0.4941
  776MOL0     H 4720  10.833   7.702   5.532  0.4632  4.2328 -1.5442
  776MOL0     H 4721  11.069   7.696   5.576 -0.6969  1.4817 -0.1042
  776MOL0     H 4722  11.448   7.834   5.402 -0.7134 -1.1381  0.0881
  776MOL0     H 4723  11.690   7.906   5.408  0.9050 -0.6729 -1.8328
  776MOL0     H 4724  12.008   7.612   5.261 -1.4031 -1.6965  0.7811
  776MOL0     H 4725  12.087   7.726   5.377 -0.5562 -1.1268  1.3069
  776MOL0     H 4726  11.992   7.590   5.574 -0.7391 -2.7323  1.6674
  776MOL0     H 4727  11.949   7.477   5.459  2.4976 -1.9200  1.6540
  776MOL0     H 4728  12.165   7.453   5.371  2.0686 -1.0198  0.1209
  776MOL0     H 4729  12.233   7.573   5.494 -1.9708  0.3408  2.4575
  776MOL0     H 4730  12.082   7.320   5.541  0.8923 -0.2645 -0.6207
  776MOL0     H 4731  12.144   7.426   5.666 -2.2787 -1.0030 -0.1864
  776MOL0     H 4732  12.347   7.326   5.448  2.8109 -3.3763 -0.1841
  776MOL0     H 4733  12.290   7.205   5.559  0.3503 -0.0699 -1.9718
  776MOL0     H 4734  12.368   7.479   5.666  0.5265 -0.7863  3.0106
  776MOL0     H 4735  12.363   7.335   5.746  0.4599 -1.4296 -0.3261
  776MOL0     H 4736  12.550   7.257   5.577  3.6932  1.2681 -2.2037
  776MOL0     H 4737  12.595   7.370   5.711 -0.3669  2.4551  0.3724
  776MOL0     H 4738  12.720   7.435   5.519 -1.2389 -0.5096  3.4402
  776MOL0     H 4739  12.571   7.429   5.420 -2.7821 -1.2120  1.7135
  776MOL0     H 4740  11.781   7.500   5.281 -2.6698 -4.0967  2.2126
  776MOL0     H 4741  11.549   7.447   5.254  1.2167 -0.5259  0.5946
  776MOL0     H 4742  11.144   7.591   5.166 -1.4245  3.2366 -1.6876
  776MOL0     H 4743  10.908   7.583   5.128  3.2300  0.2190 -0.1148
  776MOL0     H 4744  10.560   6.266   4.962 -0.3811  1.1654 -0.2734
  776MOL0     H 4745  10.663   6.206   5.177 -0.4676 -0.3254 -0.8767
  776MOL0     H 4746  10.814   6.144   5.537 -0.0877 -0.2285  1.4925
  776MOL0     H 4747  10.923   6.072   5.747 -1.7734 -0.3129 -1.0680
  776MOL0     H 4748  11.358   5.981   5.745 -0.4627  2.4477 -3.1114
  776MOL0     H 4749  11.224   5.872   5.713  1.8672  1.6182 -2.3405
  776MOL0     H 4750  11.172   5.862   5.960 -0.1520 -0.2996  0.1233
  776MOL0     H 4751  11.322   5.958   5.994 -0.5965  1.7835 -1.2121
  776MOL0     H 4752  11.391   5.731   5.827 -0.6597 -1.2963 -0.2850
  776MOL0     H 4753  11.294   5.679   5.967 -2.0780  0.8275 -0.4392
  776MOL0     H 4754  11.466   5.808   6.119  2.6764 -0.6679  0.7027
  776MOL0     H 4755  11.503   5.657   6.030 -0.4413  0.5790  0.4071
  776MOL0     H 4756  11.754   5.977   5.887 -0.2141  0.2580  1.9719
  776MOL0     H 4757  11.305   6.079   5.549 -0.8626 -0.7879 -1.4394
  776MOL0     H 4758  11.327   6.170   5.327  1.0391  1.9543 -3.3080
  776MOL0     H 4759  11.196   6.086   5.248  1.3373  0.5320 -0.3526
  776MOL0     H 4760  11.196   6.261   5.251 -0.7026 -0.4182  0.2272
  777MOL0     O 4761   5.869   2.771   4.002 -0.0084 -0.6803 -0.8229
  777MOL0     C 4762   5.926   2.780   4.115  0.9446 -0.2300  0.4265
  777MOL0     O 4763   6.010   2.877   4.152  0.1751 -0.3240 -0.4357
  777MOL0     C 4764   6.032   2.975   4.057  0.3571  0.5810  0.5880
  777MOL0     C 4765   6.099   2.951   3.943 -0.1392  0.7631 -0.0102
  777MOL0     C 4766   6.127   3.049   3.854 -0.1755  0.0520 -0.3531
  777MOL0     C 4767   6.071   3.181   3.887 -0.5619  0.1095  0.3046
  777MOL0     O 4768   6.084   3.279   3.787 -0.6016  0.0078 -0.2676
  777MOL0     C 4769   6.164   3.387   3.822  0.5332  0.5310 -0.5189
  777MOL0     C 4770   6.228   3.433   3.697 -0.3025 -0.5363 -0.1210
  777MOL0     C 4771   6.291   3.573   3.719  0.1260  0.7174 -0.5627
  777MOL0     C 4772   6.368   3.614   3.592 -0.0857 -0.1702 -0.0077
  777MOL0     C 4773   6.435   3.737   3.628  0.7411  0.9272  0.5254
  777MOL0     C 4774   6.559   3.753   3.537  0.3129 -0.0619  1.0321
  777MOL0     C 4775   6.514   3.786   3.396 -0.0697  0.0071 -0.0777
  777MOL0     C 4776   6.617   3.833   3.291  0.1502 -0.1267 -0.0375
  777MOL0     N 4777   6.711   3.727   3.256  0.3596 -0.6600  0.3767
  777MOL0     C 4778   6.821   3.689   3.326 -0.5272  0.0102 -0.1095
  777MOL0     C 4779   6.865   3.585   3.260 -0.1568 -0.7494 -0.2588
  777MOL0     C 4780   6.986   3.503   3.302 -0.0041  0.6861 -0.2685
  777MOL0     C 4781   7.110   3.587   3.331  0.0636 -0.0300 -0.8570
  777MOL0     C 4782   7.229   3.496   3.344  0.1066 -0.3638  0.8056
  777MOL0     C 4783   7.349   3.554   3.408 -1.0215 -0.3856  0.1863
  777MOL0     O 4784   7.424   3.599   3.296 -0.1486 -0.2940 -0.2378
  777MOL0     C 4785   7.543   3.662   3.305 -0.3638 -1.3124  0.5944
  777MOL0     C 4786   7.623   3.667   3.420 -0.0172  0.0738 -0.2384
  777MOL0     C 4787   7.739   3.746   3.420 -0.7931  0.0073  0.1229
  777MOL0     C 4788   7.769   3.837   3.318  0.4835 -0.3938 -0.1909
  777MOL0     C 4789   7.891   3.926   3.320 -0.3419  0.8266 -0.0122
  777MOL0     O 4790   7.916   3.991   3.205 -0.3027 -0.5405  0.3152
  777MOL0     C 4791   8.036   4.065   3.202 -0.5612  1.1700 -0.1830
  777MOL0     C 4792   8.071   4.157   3.297  0.4939  0.2055 -0.3079
  777MOL0     C 4793   8.197   4.227   3.290  1.0605 -0.0027 -0.4466
  777MOL0     C 4794   8.277   4.210   3.179 -0.5292 -0.9184  0.4473
  777MOL0     O 4795   8.409   4.258   3.166  0.3088  0.5654 -0.8506
  777MOL0     C 4796   8.487   4.317   3.269  0.4115  0.2204 -0.3163
  777MOL0     C 4797   8.518   4.464   3.227  0.2683  1.3531  0.6548
  777MOL0     C 4798   8.399   4.561   3.223  1.7326 -0.6685 -0.2010
  777MOL0     C 4799   8.335   4.552   3.078 -0.2661 -0.3214  0.8528
  777MOL0     C 4800   8.214   4.622   3.046  0.4167  0.0173  0.8090
  777MOL0     C 4801   8.231   4.778   3.064  0.6153 -0.2894  0.3794
  777MOL0     C 4802   8.107   4.842   3.001 -0.4425 -0.3243  0.3328
  777MOL0     C 4803   8.105   4.821   2.851 -0.2465 -0.9437 -0.1842
  777MOL0    Cl 4804   8.252   4.874   2.774  0.1188  0.0010  0.3118
  777MOL0     C 4805   8.236   4.116   3.075 -0.7934 -0.0554  0.0740
  777MOL0     C 4806   8.117   4.043   3.092 -0.7314 -0.0201 -1.3203
  777MOL0     O 4807   7.966   3.917   3.419 -0.0722  0.0965 -0.3896
  777MOL0     C 4808   7.684   3.834   3.201 -0.5511 -0.1483 -0.4159
  777MOL0     C 4809   7.574   3.744   3.194 -0.3300  0.4698  0.3101
  777MOL0     N 4810   6.790   3.556   3.152  0.6565 -0.5006 -0.7256
  777MOL0     N 4811   6.695   3.652   3.145 -0.2692  0.4514 -0.7290
  777MOL0     C 4812   5.992   3.208   3.994 -0.0398  0.5920 -0.7056
  777MOL0     C 4813   5.971   3.098   4.077  0.3097  0.8599 -0.7812
  777MOL0     C 4814   5.889   2.696   4.222  0.1264 -0.1700 -1.0890
  777MOL0     C 4815   5.880   2.753   4.346  0.9734 -0.9179  0.9266
  777MOL0     C 4816   5.857   2.681   4.461  0.8952 -0.9626 -1.3338
  777MOL0     C 4817   5.841   2.544   4.455 -0.1249  0.5348  0.1025
  777MOL0     O 4818   5.810   2.460   4.557  0.1247  0.1279 -0.8509
  777MOL0     C 4819   5.797   2.507   4.690 -0.0922 -0.3112 -1.3296
  777MOL0     C 4820   5.716   2.406   4.765 -0.8756  0.7497  0.0762
  777MOL0     C 4821   5.717   2.422   4.917  0.0426  0.3056  0.4701
  777MOL0     C 4822   5.654   2.308   4.990  0.2252 -0.0599  0.2346
  777MOL0     C 4823   5.757   2.206   5.012 -0.0725 -0.2794 -0.1717
  777MOL0     C 4824   5.847   2.130   5.045 -0.0882 -0.0125 -0.1227
  777MOL0     C 4825   5.852   2.482   4.330  0.0320 -0.2208 -1.2338
  777MOL0     C 4826   5.872   2.553   4.218  0.0175  0.0725  0.0116
  777MOL0     C 4827   5.846   2.470   4.091 -0.7943  0.3615  0.0906
  777MOL0     H 4828   6.126   2.846   3.940  0.1653  0.8002  1.0453
  777MOL0     H 4829   6.162   3.042   3.752 -5.6835  1.1570 -2.6566
  777MOL0     H 4830   6.097   3.465   3.857  1.3453  1.6217 -1.2979
  777MOL0     H 4831   6.240   3.366   3.898  0.5957  1.8393 -0.1966
  777MOL0     H 4832   6.160   3.428   3.611  0.9157  0.0351 -1.1547
  777MOL0     H 4833   6.317   3.371   3.688  0.9662  1.2262 -0.2755
  777MOL0     H 4834   6.355   3.565   3.808 -2.8533 -3.4318  1.4986
  777MOL0     H 4835   6.215   3.649   3.736  0.4035  0.8168  0.2750
  777MOL0     H 4836   6.438   3.533   3.572  0.3093 -0.2301  1.4944
  777MOL0     H 4837   6.303   3.631   3.506 -1.5732 -3.7819  0.2243
  777MOL0     H 4838   6.372   3.827   3.627 -1.5115 -0.5749  1.2485
  777MOL0     H 4839   6.466   3.730   3.732  0.0162 -1.0090  0.6390
  777MOL0     H 4840   6.612   3.842   3.573  1.3201 -0.2539  0.1009
  777MOL0     H 4841   6.627   3.667   3.544 -1.6756 -1.7325  0.6479
  777MOL0     H 4842   6.449   3.873   3.404  0.7504  0.8632 -2.1888
  777MOL0     H 4843   6.458   3.700   3.359  0.9843  0.3724 -2.7258
  777MOL0     H 4844   6.551   3.845   3.204  1.7925 -0.6237 -1.4221
  777MOL0     H 4845   6.659   3.929   3.321  3.4047 -0.0831 -3.7974
  777MOL0     H 4846   6.864   3.728   3.418 -0.6335  2.9937 -1.2339
  777MOL0     H 4847   6.971   3.441   3.391 -1.0582 -1.2001 -1.6711
  777MOL0     H 4848   6.997   3.423   3.228  2.2036 -0.0366  0.7394
  777MOL0     H 4849   7.121   3.656   3.247 -0.7139 -0.1308 -1.0469
  777MOL0     H 4850   7.083   3.641   3.422 -1.7248 -0.5539 -1.0506
  777MOL0     H 4851   7.256   3.461   3.243  3.5174  1.9905  0.7550
  777MOL0     H 4852   7.194   3.411   3.403 -3.8218 -1.0492 -2.0860
  777MOL0     H 4853   7.404   3.476   3.462  0.6270  2.3425  2.7111
  777MOL0     H 4854   7.326   3.631   3.482 -2.4248 -1.2383  0.6815
  777MOL0     H 4855   7.606   3.605   3.508  2.4593  0.0864  0.3444
  777MOL0     H 4856   7.816   3.734   3.496  1.6798  1.2225 -2.0462
  777MOL0     H 4857   7.997   4.183   3.371 -0.5271  1.1736 -1.6084
  777MOL0     H 4858   8.219   4.292   3.374  0.5383 -2.9798  2.2075
  777MOL0     H 4859   8.439   4.324   3.367  4.0615 -1.2523  1.7750
  777MOL0     H 4860   8.579   4.258   3.274  0.7776  0.7146 -1.0161
  777MOL0     H 4861   8.599   4.505   3.289 -0.1016  1.1496  1.2774
  777MOL0     H 4862   8.558   4.453   3.126  0.4030  0.5712  0.7875
  777MOL0     H 4863   8.316   4.549   3.293  1.0333 -1.1438 -1.0889
  777MOL0     H 4864   8.427   4.665   3.241 -4.2217  1.4346 -0.7849
  777MOL0     H 4865   8.320   4.450   3.039  0.7411  0.0224 -0.5082
  777MOL0     H 4866   8.403   4.600   3.008 -2.1937 -0.5329 -1.3093
  777MOL0     H 4867   8.130   4.582   3.103 -2.7207  2.5503 -1.7204
  777MOL0     H 4868   8.194   4.593   2.942 -1.1394 -2.8119  1.7760
  777MOL0     H 4869   8.236   4.799   3.171 -0.1350  2.5333 -0.0440
  777MOL0     H 4870   8.325   4.812   3.019 -0.3850  0.3731 -1.3369
  777MOL0     H 4871   8.105   4.946   3.035 -2.2497  0.3202 -1.5110
  777MOL0     H 4872   8.019   4.785   3.031 -1.2449  1.6771  2.0196
  777MOL0     H 4873   8.087   4.715   2.831  1.1756 -1.5316  1.4690
  777MOL0     H 4874   8.031   4.882   2.797 -1.8444 -1.6202  1.1577
  777MOL0     H 4875   8.290   4.103   2.982 -1.0125  2.0287 -0.3984
  777MOL0     H 4876   8.092   3.967   3.019 -0.1514 -1.5478  0.0149
  777MOL0     H 4877   7.700   3.891   3.111  1.3841  0.6755  0.4013
  777MOL0     H 4878   7.517   3.741   3.101  0.0130 -0.7622  0.1217
  777MOL0     H 4879   5.945   3.304   4.015  0.7094  0.8554 -0.1800
  777MOL0     H 4880   5.905   3.107   4.162  1.2264 -0.1615  0.0582
  777MOL0     H 4881   5.894   2.860   4.354  2.0583 -0.7561 -1.8966
  777MOL0     H 4882   5.850   2.735   4.555 -0.4073 -2.9211 -0.2207
  777MOL0     H 4883   5.750   2.605   4.702  3.5995  1.4409  0.6435
  777MOL0     H 4884   5.893   2.518   4.742 -0.9405  1.1796  0.0007
  777MOL0     H 4885   5.750   2.303   4.747  0.1029  0.7778  1.6159
  777MOL0     H 4886   5.615   2.413   4.724 -0.0116  2.9837 -1.8922
  777MOL0     H 4887   5.658   2.512   4.938  2.1855  1.4155  2.1051
  777MOL0     H 4888   5.815   2.446   4.958  0.8016 -0.5463 -0.7633
  777MOL0     H 4889   5.619   2.342   5.088  1.5945  0.1494  0.6741
  777MOL0     H 4890   5.563   2.268   4.944 -0.1826 -0.8985  1.6829
  777MOL0     H 4891   5.911   2.047   5.066 -0.6790 -1.0971 -2.2852
  777MOL0     H 4892   5.831   2.376   4.329  0.4959 -0.3986  1.2569
  777MOL0     H 4893   5.863   2.363   4.101 -1.1591 -0.1212 -3.1611
  777MOL0     H 4894   5.743   2.482   4.057 -1.8643 -3.2949  1.6133
  777MOL0     H 4895   5.916   2.514   4.019 -2.0787  3.0783  0.3611
  778MOL0     O 4896   1.587  10.093   5.967 -0.2220 -1.3989 -0.2334
  778MOL0     C 4897   1.522  10.012   5.909  0.9681  0.0655 -0.0915
  778MOL0     O 4898   1.433   9.932   5.972  0.3133 -0.0939  0.1989
  778MOL0     C 4899   1.392   9.965   6.101 -0.2919  0.0310  0.1530
  778MOL0     C 4900   1.382   9.857   6.190 -0.3720 -0.6484 -0.5888
  778MOL0     C 4901   1.326   9.888   6.319 -0.5655 -0.0699 -0.5955
  778MOL0     C 4902   1.290  10.012   6.361 -0.5572 -0.2835  0.3368
  778MOL0     O 4903   1.239  10.024   6.487 -0.3722 -0.4418  0.3068
  778MOL0     C 4904   1.279  10.135   6.562 -0.1854 -0.3987  0.0204
  778MOL0     C 4905   1.227  10.134   6.700  0.4338 -0.0180  0.0370
  778MOL0     C 4906   1.293  10.024   6.781 -0.1357  0.8827  0.4380
  778MOL0     C 4907   1.204   9.982   6.893  0.7076  0.4929  0.2354
  778MOL0     C 4908   1.264   9.850   6.955  0.3622 -0.5542  0.1065
  778MOL0     C 4909   1.169   9.811   7.063 -0.6831 -0.3650 -0.0289
  778MOL0     C 4910   1.229   9.699   7.140 -0.4071 -0.9293  0.2457
  778MOL0     C 4911   1.157   9.671   7.260  0.8164  0.6021  0.3308
  778MOL0     N 4912   1.008   9.663   7.239  0.4565 -0.0459  0.3602
  778MOL0     C 4913   0.944   9.546   7.200 -0.2597 -0.4943  0.0033
  778MOL0     C 4914   0.818   9.569   7.189  0.5788 -0.6453  0.5356
  778MOL0     C 4915   0.705   9.471   7.144 -0.7293  0.9122  0.3298
  778MOL0     C 4916   0.597   9.457   7.254  0.2537 -0.3117  0.8024
  778MOL0     C 4917   0.651   9.385   7.373  0.1559  0.2972 -0.5720
  778MOL0     C 4918   0.697   9.482   7.485 -0.4530 -0.1502  0.0057
  778MOL0     O 4919   0.829   9.458   7.521 -0.4427  1.3009  0.2308
  778MOL0     C 4920   0.870   9.339   7.585  0.7179 -0.6804 -0.3236
  778MOL0     C 4921   0.787   9.245   7.637  0.2676 -0.2866 -0.8036
  778MOL0     C 4922   0.833   9.126   7.700  0.3525  0.2342 -0.0161
  778MOL0     C 4923   0.973   9.100   7.708 -0.7369 -1.0515  0.7614
  778MOL0     C 4924   1.029   8.998   7.811 -0.0652 -0.2249 -1.1448
  778MOL0     O 4925   1.170   9.000   7.847  1.0170  0.5713 -0.1499
  778MOL0     C 4926   1.220   8.940   7.955 -0.4505  0.5250 -0.5890
  778MOL0     C 4927   1.151   8.904   8.066 -0.2575  1.3608  0.3363
  778MOL0     C 4928   1.215   8.864   8.178 -0.4443  0.0445 -0.3945
  778MOL0     C 4929   1.356   8.870   8.188 -0.5364 -1.0500 -0.0373
  778MOL0     O 4930   1.428   8.842   8.299  0.1861 -0.0457  0.2157
  778MOL0     C 4931   1.355   8.851   8.427  0.3849 -0.0697  0.0195
  778MOL0     C 4932   1.434   8.896   8.547 -1.4341 -0.5062 -0.0397
  778MOL0     C 4933   1.512   9.024   8.523  0.3420 -1.0709 -0.0780
  778MOL0     C 4934   1.447   9.137   8.606  0.4951 -0.3980 -0.3345
  778MOL0     C 4935   1.533   9.268   8.620  0.9316 -0.2591  0.0769
  778MOL0     C 4936   1.480   9.364   8.731  0.6534 -0.5125  0.2992
  778MOL0     C 4937   1.576   9.485   8.764  0.2481 -0.0164  0.0221
  778MOL0     C 4938   1.554   9.595   8.655 -0.0751  1.0154  0.1801
  778MOL0    Cl 4939   1.652   9.730   8.706 -0.2898  0.1646  0.1462
  778MOL0     C 4940   1.431   8.905   8.074  0.6011 -0.2733 -1.0070
  778MOL0     C 4941   1.361   8.940   7.956  0.3601 -0.2381  0.4188
  778MOL0     O 4942   0.944   8.917   7.844 -0.3255  0.0433 -0.2913
  778MOL0     C 4943   1.064   9.198   7.643 -0.3693 -0.5155  0.4633
  778MOL0     C 4944   1.007   9.311   7.582  0.2466  0.1062 -0.6235
  778MOL0     N 4945   0.799   9.701   7.231 -0.1146  0.6826 -0.8217
  778MOL0     N 4946   0.913   9.760   7.251 -0.8768  1.1843  1.2567
  778MOL0     C 4947   1.309  10.118   6.271  0.9155  0.1763 -0.6051
  778MOL0     C 4948   1.352  10.094   6.142  0.5796  0.1040 -0.9054
  778MOL0     C 4949   1.530   9.996   5.756 -0.6234  0.8880 -0.2572
  778MOL0     C 4950   1.425   9.939   5.694 -0.1498 -0.0916  0.1674
  778MOL0     C 4951   1.432   9.922   5.548  0.4378  0.2647 -0.5131
  778MOL0     C 4952   1.540   9.960   5.472 -0.1631 -0.5493 -0.1105
  778MOL0     O 4953   1.556   9.945   5.343 -0.3614  0.7921  0.0592
  778MOL0     C 4954   1.453   9.897   5.255  0.7715  0.3580 -0.1423
  778MOL0     C 4955   1.487   9.939   5.121  0.6736 -0.2158  0.0104
  778MOL0     C 4956   1.384   9.877   5.023 -0.1034  0.1064 -0.7904
  778MOL0     C 4957   1.404   9.922   4.877 -1.2629 -0.2083 -1.0005
  778MOL0     C 4958   1.542   9.900   4.835  0.9154 -0.0457 -0.2850
  778MOL0     C 4959   1.657   9.908   4.799 -0.3770 -0.7348  0.8597
  778MOL0     C 4960   1.644  10.027   5.540 -0.5748  0.0042  0.7593
  778MOL0     C 4961   1.641  10.040   5.681  0.7900  0.2124  0.8791
  778MOL0     C 4962   1.751  10.126   5.738 -0.2344 -0.5066  0.2071
  778MOL0     H 4963   1.413   9.756   6.165  1.5048 -0.5305  1.0196
  778MOL0     H 4964   1.306   9.817   6.398 -0.4072  1.7624  1.1909
  778MOL0     H 4965   1.387  10.154   6.569  0.1613 -0.7541 -3.0297
  778MOL0     H 4966   1.236  10.226   6.520  1.0308  1.2123  2.0807
  778MOL0     H 4967   1.119  10.129   6.686 -0.1444 -1.1426  3.7335
  778MOL0     H 4968   1.253  10.231   6.744 -2.6923  1.3590 -0.9063
  778MOL0     H 4969   1.381  10.063   6.833 -0.1362 -1.1898  2.1315
  778MOL0     H 4970   1.309   9.944   6.708  0.2696  3.0993 -2.0999
  778MOL0     H 4971   1.200  10.058   6.971  2.1140 -0.0707  0.9005
  778MOL0     H 4972   1.101   9.959   6.863  0.6994  2.9622 -1.9676
  778MOL0     H 4973   1.262   9.781   6.870 -0.1338  0.0650 -0.3951
  778MOL0     H 4974   1.364   9.854   6.998 -0.3789 -1.5874  2.0182
  778MOL0     H 4975   1.146   9.894   7.131 -1.0919 -2.0062  1.9205
  778MOL0     H 4976   1.079   9.771   7.016 -2.2798  0.6538  2.0167
  778MOL0     H 4977   1.325   9.734   7.181 -2.2610  1.0688  3.3150
  778MOL0     H 4978   1.246   9.617   7.070 -4.7134 -0.3954 -1.7587
  778MOL0     H 4979   1.183   9.584   7.322  1.1901  0.0706 -0.5568
  778MOL0     H 4980   1.169   9.761   7.321  3.9701  0.9069 -0.5687
  778MOL0     H 4981   0.991   9.452   7.171 -2.8869 -2.0260  0.3888
  778MOL0     H 4982   0.671   9.510   7.047 -1.1729  0.2737  0.2197
  778MOL0     H 4983   0.744   9.371   7.121 -2.0469  0.1081  1.4593
  778MOL0     H 4984   0.558   9.552   7.291  0.1433  0.7194 -1.7440
  778MOL0     H 4985   0.528   9.393   7.198  2.2847 -0.4094 -1.8169
  778MOL0     H 4986   0.737   9.323   7.344  0.3152  1.1898 -2.1499
  778MOL0     H 4987   0.586   9.309   7.417 -1.6483  2.5274  0.8115
  778MOL0     H 4988   0.636   9.475   7.575  1.4581 -2.0356  1.2368
  778MOL0     H 4989   0.683   9.585   7.450 -1.5842 -0.4145 -0.3594
  778MOL0     H 4990   0.681   9.262   7.647  0.8112  2.1651  2.7427
  778MOL0     H 4991   0.766   9.075   7.768 -1.4633  2.2583 -0.1678
  778MOL0     H 4992   1.044   8.891   8.074 -0.3366  1.6977 -0.1494
  778MOL0     H 4993   1.150   8.824   8.256  2.7022 -2.3264  1.2552
  778MOL0     H 4994   1.277   8.927   8.413 -0.1893 -0.6592 -0.0578
  778MOL0     H 4995   1.307   8.756   8.453  0.5761 -0.2986 -0.4445
  778MOL0     H 4996   1.369   8.891   8.635 -0.0929 -0.0940  1.0021
  778MOL0     H 4997   1.510   8.823   8.575 -0.9500 -0.2378 -0.6335
  778MOL0     H 4998   1.616   9.012   8.556  1.5874  3.0266 -1.8243
  778MOL0     H 4999   1.513   9.036   8.414 -0.7421 -0.8494 -0.0731
  778MOL0     H 5000   1.433   9.096   8.706 -1.6285 -0.8697 -0.7737
  778MOL0     H 5001   1.350   9.165   8.563  1.4828 -0.0701 -2.4927
  778MOL0     H 5002   1.547   9.305   8.518  5.2253  4.1200  1.8234
  778MOL0     H 5003   1.636   9.243   8.646  0.1473 -3.6044  0.3540
  778MOL0     H 5004   1.382   9.402   8.702  1.4765  0.5570 -1.2398
  778MOL0     H 5005   1.471   9.309   8.825 -1.8103  0.5821  0.7649
  778MOL0     H 5006   1.677   9.446   8.778  0.3060 -0.9502 -2.4334
  778MOL0     H 5007   1.529   9.520   8.856 -4.1157 -2.2890 -1.0332
  778MOL0     H 5008   1.587   9.565   8.554 -2.7623 -1.2971 -0.1233
  778MOL0     H 5009   1.448   9.618   8.644 -0.5508 -0.2067  1.8531
  778MOL0     H 5010   1.538   8.923   8.083  0.4865 -0.3829  0.8656
  778MOL0     H 5011   1.402   8.994   7.872 -2.2620  1.8963  0.3803
  778MOL0     H 5012   1.169   9.175   7.634 -0.3955 -0.0156 -1.6473
  778MOL0     H 5013   1.061   9.390   7.530  3.3939  0.2966  2.5366
  778MOL0     H 5014   1.277  10.216   6.305 -1.8917  0.4964 -3.6941
  778MOL0     H 5015   1.349  10.172   6.066  0.6477  4.6550  3.2521
  778MOL0     H 5016   1.332   9.909   5.741  1.9524 -3.6382  2.4776
  778MOL0     H 5017   1.345   9.888   5.492 -0.4011  1.4666  0.0188
  778MOL0     H 5018   1.356   9.942   5.278  0.9814  0.9064 -0.2951
  778MOL0     H 5019   1.451   9.788   5.263 -0.6329  0.2627 -1.3468
  778MOL0     H 5020   1.587   9.901   5.100  0.2646 -3.5316  3.0808
  778MOL0     H 5021   1.489  10.047   5.109  2.4373 -0.2220  0.1297
  778MOL0     H 5022   1.280   9.907   5.041  0.2782  2.5370 -2.1848
  778MOL0     H 5023   1.393   9.768   5.022  1.6813  0.2263 -1.9072
  778MOL0     H 5024   1.332   9.864   4.818 -1.6815 -0.0793 -0.6204
  778MOL0     H 5025   1.377  10.028   4.872  0.3916  0.4002  1.5071
  778MOL0     H 5026   1.757   9.907   4.761 -1.0667  1.2231 -1.2571
  778MOL0     H 5027   1.724  10.071   5.481 -0.0412  0.2540  1.6470
  778MOL0     H 5028   1.835  10.148   5.671  2.2774 -2.0376  2.6161
  778MOL0     H 5029   1.696  10.214   5.772  1.3293 -0.2387  2.2440
  778MOL0     H 5030   1.792  10.072   5.824 -3.7116 -0.8323  1.8071
  779MOL0     O 5031   3.096   1.139   9.659  0.5510  0.2140 -0.3585
  779MOL0     C 5032   3.089   1.190   9.768  0.2361 -0.2928  0.9164
  779MOL0     O 5033   3.144   1.317   9.788  0.0532  0.3965 -0.3899
  779MOL0     C 5034   3.200   1.391   9.688 -0.1638 -1.1385 -0.4889
  779MOL0     C 5035   3.152   1.396   9.556  0.3335  0.0810 -0.6953
  779MOL0     C 5036   3.220   1.486   9.468 -0.4567  0.0489  0.2929
  779MOL0     C 5037   3.334   1.559   9.506 -1.0877 -0.5366 -0.7586
  779MOL0     O 5038   3.392   1.656   9.421  0.0968  0.6731  0.1009
  779MOL0     C 5039   3.297   1.742   9.355  0.9499 -0.1827 -0.0651
  779MOL0     C 5040   3.377   1.852   9.282  0.2927 -0.0581  1.4434
  779MOL0     C 5041   3.295   1.968   9.246 -0.0658  0.6311  0.4819
  779MOL0     C 5042   3.228   2.056   9.338 -0.0885  0.2039  0.2553
  779MOL0     C 5043   3.192   2.184   9.279  0.2775 -0.6772 -0.6204
  779MOL0     C 5044   3.070   2.176   9.188 -0.3023  0.2427  0.5883
  779MOL0     C 5045   3.024   2.319   9.149 -0.1277  0.8222 -1.2218
  779MOL0     C 5046   2.926   2.322   9.025 -0.3746 -0.2079 -0.2370
  779MOL0     N 5047   2.813   2.241   9.052  0.2882 -0.1244 -0.3619
  779MOL0     C 5048   2.707   2.269   9.148  0.3497 -1.0851 -0.4235
  779MOL0     C 5049   2.631   2.160   9.164  0.4780  0.2601  0.7260
  779MOL0     C 5050   2.511   2.161   9.264  0.3682  0.4082  0.5571
  779MOL0     C 5051   2.566   2.086   9.390 -1.8413 -0.9884  0.8921
  779MOL0     C 5052   2.480   2.093   9.515 -0.1025 -0.2247  1.0227
  779MOL0     C 5053   2.390   1.978   9.547  0.1853  0.3420  0.1921
  779MOL0     O 5054   2.262   1.979   9.468 -0.1700 -0.4992 -0.4980
  779MOL0     C 5055   2.149   2.050   9.498 -0.7097  0.0312  0.1876
  779MOL0     C 5056   2.034   2.036   9.421  0.6603 -0.1963 -0.9826
  779MOL0     C 5057   1.911   2.097   9.463 -0.3546 -1.2572  0.5642
  779MOL0     C 5058   1.900   2.162   9.587 -0.7780 -0.2829  1.3709
  779MOL0     C 5059   1.769   2.227   9.631  0.1150  0.8537 -0.2840
  779MOL0     O 5060   1.766   2.265   9.772 -0.3835 -0.0322 -0.0930
  779MOL0     C 5061   1.643   2.296   9.822 -0.3492 -0.2952  0.1913
  779MOL0     C 5062   1.629   2.265   9.960  0.7395 -0.3776  0.5973
  779MOL0     C 5063   1.527   2.313  10.027 -0.3408 -0.1269 -0.5941
  779MOL0     C 5064   1.420   2.380   9.965 -1.0528 -0.2427  0.0114
  779MOL0     O 5065   1.312   2.431  10.031 -0.8309 -0.9518  0.1875
  779MOL0     C 5066   1.323   2.464  10.172  0.4112 -0.7766  0.5227
  779MOL0     C 5067   1.364   2.614  10.196 -0.6991 -0.2288 -0.7143
  779MOL0     C 5068   1.519   2.628  10.205 -0.8633 -0.2406  0.6600
  779MOL0     C 5069   1.568   2.770  10.250 -0.2205 -0.6851  0.6943
  779MOL0     C 5070   1.715   2.773  10.231 -0.2347  0.3119  0.5695
  779MOL0     C 5071   1.747   2.919  10.174 -0.3033 -0.1075  0.5561
  779MOL0     C 5072   1.903   2.945  10.153 -0.1721 -0.6384  0.3818
  779MOL0     C 5073   1.982   2.836  10.086  1.6772 -0.4794 -0.1756
  779MOL0    Cl 5074   2.031   2.708  10.201 -0.5921 -0.3677 -0.2171
  779MOL0     C 5075   1.429   2.414   9.831  0.5492  0.0548 -0.7135
  779MOL0     C 5076   1.540   2.368   9.756 -1.2793  0.6829 -0.1737
  779MOL0     O 5077   1.675   2.225   9.546  0.1282 -0.1572  0.2203
  779MOL0     C 5078   2.019   2.185   9.663 -0.6543 -0.5667  0.5251
  779MOL0     C 5079   2.137   2.123   9.612 -0.4153 -1.4434  1.1901
  779MOL0     N 5080   2.685   2.065   9.083 -0.8072  0.0497  0.0060
  779MOL0     N 5081   2.797   2.109   9.032 -0.1345  0.6283  0.0375
  779MOL0     C 5082   3.386   1.541   9.626  0.5498 -0.0062  0.9431
  779MOL0     C 5083   3.313   1.473   9.728 -0.3920  0.2037  0.7350
  779MOL0     C 5084   3.023   1.134   9.889  0.4907 -0.0980  0.0146
  779MOL0     C 5085   3.018   1.215  10.005 -0.1099 -0.1402 -0.0720
  779MOL0     C 5086   2.980   1.165  10.132 -0.7846  0.2255  0.3460
  779MOL0     C 5087   2.945   1.033  10.147 -1.2921  1.1416  0.7285
  779MOL0     O 5088   2.911   0.988  10.268  0.8162 -0.3434  0.3242
  779MOL0     C 5089   2.881   0.849  10.288 -0.9422 -1.0790 -0.3271
  779MOL0     C 5090   2.912   0.784  10.422  0.1643 -0.8679 -0.7612
  779MOL0     C 5091   2.830   0.867  10.524 -0.5899 -0.3821 -0.6864
  779MOL0     C 5092   2.683   0.878  10.500 -0.0652  0.4398 -0.4339
  779MOL0     C 5093   2.617   0.755  10.450  0.4972  0.1797  0.4108
  779MOL0     C 5094   2.569   0.647  10.420 -0.7161 -0.0860  0.4485
  779MOL0     C 5095   2.933   0.957  10.028 -0.0569 -0.5373  0.3560
  779MOL0     C 5096   2.963   1.007   9.900  0.1550  0.1278 -0.2928
  779MOL0     C 5097   2.922   0.926   9.781 -0.8412 -0.9500  0.0675
  779MOL0     H 5098   3.058   1.355   9.520  0.3202  0.5949 -1.2586
  779MOL0     H 5099   3.172   1.500   9.371 -2.3440 -2.1674  0.8132
  779MOL0     H 5100   3.228   1.687   9.291 -1.0269 -0.1947  1.9423
  779MOL0     H 5101   3.234   1.787   9.432 -0.0445 -2.2891  0.4252
  779MOL0     H 5102   3.415   1.813   9.187  0.7374  0.5192  1.3741
  779MOL0     H 5103   3.457   1.890   9.347  0.1538  2.5275  0.2277
  779MOL0     H 5104   3.221   1.937   9.171 -2.9081  4.3148  1.4324
  779MOL0     H 5105   3.371   2.032   9.203 -0.3789  0.8972  0.3235
  779MOL0     H 5106   3.139   2.007   9.380  0.9614 -0.1004  2.2105
  779MOL0     H 5107   3.300   2.067   9.419  0.6679  1.3256 -0.5458
  779MOL0     H 5108   3.160   2.246   9.363  0.3195  3.1532 -3.1581
  779MOL0     H 5109   3.281   2.229   9.232  0.9075 -2.1067 -0.8675
  779MOL0     H 5110   3.099   2.140   9.089 -0.3754  2.9901 -0.5231
  779MOL0     H 5111   2.990   2.116   9.231  1.3532 -1.9949  0.7094
  779MOL0     H 5112   3.101   2.391   9.119  1.5963 -0.3063  0.2848
  779MOL0     H 5113   2.974   2.361   9.237  0.0370  1.0343 -1.2300
  779MOL0     H 5114   2.893   2.423   8.999  0.0826 -0.3602 -1.4521
  779MOL0     H 5115   2.967   2.300   8.926 -0.4679  0.0920 -0.3448
  779MOL0     H 5116   2.685   2.367   9.189 -2.8966 -1.2489 -1.5440
  779MOL0     H 5117   2.462   2.257   9.279 -2.5963 -0.4831 -2.2327
  779MOL0     H 5118   2.433   2.106   9.211  2.2383 -1.4068 -0.5113
  779MOL0     H 5119   2.572   1.983   9.354  2.0599 -1.8641  3.3685
  779MOL0     H 5120   2.664   2.129   9.412 -2.7866  0.8530  1.7482
  779MOL0     H 5121   2.427   2.184   9.543  0.5618 -0.9670  5.4821
  779MOL0     H 5122   2.556   2.090   9.594 -0.9266  0.5019  1.8609
  779MOL0     H 5123   2.358   1.970   9.651  2.1310 -2.5634  0.6912
  779MOL0     H 5124   2.449   1.886   9.541 -1.4197 -0.7421  0.4324
  779MOL0     H 5125   2.047   1.979   9.329 -2.2846  0.9619 -2.2382
  779MOL0     H 5126   1.816   2.082   9.413 -2.0363  1.1379  2.7990
  779MOL0     H 5127   1.707   2.206  10.006  2.6612  1.1145 -0.5812
  779MOL0     H 5128   1.512   2.283  10.130 -2.3121 -1.4582 -1.2316
  779MOL0     H 5129   1.215   2.463  10.189  0.5325 -0.5915  1.3507
  779MOL0     H 5130   1.383   2.398  10.235  2.9977  1.8215  1.0056
  779MOL0     H 5131   1.327   2.684  10.121 -1.3632 -0.9672 -1.0924
  779MOL0     H 5132   1.336   2.643  10.297  4.0924  3.2837 -0.0537
  779MOL0     H 5133   1.564   2.549  10.265 -1.5173 -0.7897  0.4445
  779MOL0     H 5134   1.548   2.620  10.100 -2.8513  1.9182 -0.1466
  779MOL0     H 5135   1.555   2.796  10.355  0.8519  0.5475  0.5469
  779MOL0     H 5136   1.512   2.844  10.193 -0.6981 -1.4736  0.1216
  779MOL0     H 5137   1.756   2.697  10.163 -1.1285  0.1758  0.1622
  779MOL0     H 5138   1.767   2.749  10.324 -0.4937  2.5463  1.3452
  779MOL0     H 5139   1.703   2.931  10.074 -0.3403 -0.3316  0.5463
  779MOL0     H 5140   1.712   2.994  10.246  2.3834  0.9843  0.8536
  779MOL0     H 5141   1.950   2.967  10.250  1.7369 -0.5381 -0.5260
  779MOL0     H 5142   1.921   3.040  10.101 -2.1568  0.0514  0.8748
  779MOL0     H 5143   1.926   2.790  10.004  3.4372 -1.6469 -0.7823
  779MOL0     H 5144   2.074   2.879  10.043  4.3724 -2.1150  3.4502
  779MOL0     H 5145   1.359   2.476   9.776  2.8470  1.2575 -2.4802
  779MOL0     H 5146   1.557   2.385   9.650  1.6413  1.0989  0.2603
  779MOL0     H 5147   2.021   2.249   9.751 -0.6541 -0.5781  0.5334
  779MOL0     H 5148   2.230   2.131   9.668  1.3302  1.3265 -1.7250
  779MOL0     H 5149   3.470   1.604   9.650 -0.8492  3.2800 -1.9027
  779MOL0     H 5150   3.358   1.462   9.826  0.4232 -1.4986  0.2157
  779MOL0     H 5151   3.046   1.320  10.005  2.3608 -0.7431  0.4113
  779MOL0     H 5152   2.981   1.233  10.217  0.2879  1.0910 -0.3309
  779MOL0     H 5153   2.950   0.786  10.230 -0.4916 -3.1974  2.3097
  779MOL0     H 5154   2.781   0.830  10.250 -0.5888  1.0066 -2.5687
  779MOL0     H 5155   3.016   0.776  10.454 -0.6183 -2.2690  1.8034
  779MOL0     H 5156   2.878   0.679  10.424 -4.1581  0.2984 -1.5411
  779MOL0     H 5157   2.869   0.968  10.541 -2.8955  0.4405  0.0034
  779MOL0     H 5158   2.841   0.806  10.614  5.7221  0.1730 -0.6056
  779MOL0     H 5159   2.636   0.909  10.594  3.3751 -0.8126  1.8740
  779MOL0     H 5160   2.677   0.961  10.429  1.2804  1.8573  1.0550
  779MOL0     H 5161   2.532   0.558  10.373  1.0095 -1.4835  1.6084
  779MOL0     H 5162   2.877   0.864  10.022 -2.4252  0.7590  1.0338
  779MOL0     H 5163   2.837   0.983   9.742 -0.2857  1.5050  2.1487
  779MOL0     H 5164   3.012   0.917   9.719  1.0483  1.7717  2.1465
  779MOL0     H 5165   2.875   0.832   9.813 -0.4192 -0.5980  1.8581
  780MOL0     O 5166   8.132   3.565   9.416  0.3837 -0.6721  0.2914
  780MOL0     C 5167   8.042   3.511   9.482 -0.8383  1.3849  0.1425
  780MOL0     O 5168   8.059   3.403   9.567  0.0603 -0.5608 -0.1078
  780MOL0     C 5169   8.176   3.338   9.561 -0.5160  0.1748 -0.0194
  780MOL0     C 5170   8.302   3.392   9.546 -0.2146  0.5067  0.5784
  780MOL0     C 5171   8.416   3.316   9.549 -0.1105  0.5592 -0.2913
  780MOL0     C 5172   8.418   3.187   9.586  0.5650  1.4536  0.1831
  780MOL0     O 5173   8.536   3.120   9.571 -0.9558  0.4631  0.0892
  780MOL0     C 5174   8.545   2.977   9.579  0.0958  0.6609 -0.3220
  780MOL0     C 5175   8.505   2.907   9.443  0.9928 -0.4128 -0.2160
  780MOL0     C 5176   8.516   2.756   9.454  0.2916 -0.3529 -0.5987
  780MOL0     C 5177   8.492   2.677   9.319 -0.1291  0.5240  0.5163
  780MOL0     C 5178   8.481   2.529   9.347 -0.9631  0.3020  0.1247
  780MOL0     C 5179   8.495   2.460   9.209 -1.8459  0.9436  0.3849
  780MOL0     C 5180   8.452   2.307   9.246 -0.0051  0.1575 -0.0956
  780MOL0     C 5181   8.554   2.225   9.336  0.4516 -0.6116  0.1063
  780MOL0     N 5182   8.695   2.220   9.303  0.2365  0.4389  0.7615
  780MOL0     C 5183   8.758   2.111   9.236  0.7112  0.7276 -0.1210
  780MOL0     C 5184   8.884   2.138   9.233  0.6576  0.7266  1.2285
  780MOL0     C 5185   8.994   2.054   9.165 -0.4249  0.3864 -0.6004
  780MOL0     C 5186   9.038   1.932   9.251  0.4028  0.3336 -0.0020
  780MOL0     C 5187   9.170   1.881   9.195  1.6468  0.4007 -0.3973
  780MOL0     C 5188   9.163   1.814   9.059  0.1516  0.2744  0.0741
  780MOL0     O 5189   9.076   1.698   9.075  0.6189  0.4058  0.2348
  780MOL0     C 5190   9.126   1.573   9.103 -0.8105 -0.3925  0.5016
  780MOL0     C 5191   9.262   1.548   9.100  0.5813  0.6095  0.4503
  780MOL0     C 5192   9.307   1.427   9.167 -0.0497  0.4126 -0.7646
  780MOL0     C 5193   9.217   1.337   9.233 -0.0310 -0.3886  0.0853
  780MOL0     C 5194   9.265   1.226   9.317  0.4437  0.0400 -0.4866
  780MOL0     O 5195   9.166   1.158   9.386 -0.9171 -0.7770  0.1350
  780MOL0     C 5196   9.196   1.083   9.494  0.5937  0.3311  0.1178
  780MOL0     C 5197   9.276   1.121   9.606  0.0144 -0.5136 -0.6998
  780MOL0     C 5198   9.296   1.040   9.722  0.3195 -0.0527  0.4991
  780MOL0     C 5199   9.222   0.920   9.729 -1.1154  0.1349 -0.1999
  780MOL0     O 5200   9.230   0.841   9.847 -0.8121  0.5068 -0.0803
  780MOL0     C 5201   9.236   0.698   9.842  0.4320 -0.7749  0.5968
  780MOL0     C 5202   9.319   0.644   9.956  0.0336  0.2006  0.1862
  780MOL0     C 5203   9.456   0.714   9.983  0.0358 -0.6728 -0.1817
  780MOL0     C 5204   9.533   0.648  10.107  0.2138 -0.0112 -0.7573
  780MOL0     C 5205   9.630   0.542  10.055 -1.2425 -0.3401 -0.3267
  780MOL0     C 5206   9.679   0.467  10.177  0.3692 -0.4580 -0.5641
  780MOL0     C 5207   9.766   0.349  10.145  0.2478  0.4935  0.0782
  780MOL0     C 5208   9.818   0.281  10.273 -0.4356 -0.2954 -0.3823
  780MOL0    Cl 5209   9.936   0.155  10.218  0.0203 -0.4137  0.0901
  780MOL0     C 5210   9.139   0.885   9.621  0.4259  0.0300 -0.1673
  780MOL0     C 5211   9.132   0.955   9.502 -0.1374  1.0688  0.5737
  780MOL0     O 5212   9.385   1.206   9.316  0.5638  0.4813  0.0089
  780MOL0     C 5213   9.082   1.371   9.241 -0.0225 -0.6438 -0.4088
  780MOL0     C 5214   9.040   1.487   9.171  0.1712  1.0059  0.5469
  780MOL0     N 5215   8.907   2.258   9.297 -0.0112  0.4027  0.3292
  780MOL0     N 5216   8.790   2.302   9.335 -0.5329 -0.5030  0.6224
  780MOL0     C 5217   8.293   3.130   9.622  0.1812 -0.5185  0.8316
  780MOL0     C 5218   8.172   3.203   9.600 -0.6778  0.3191 -0.5945
  780MOL0     C 5219   7.898   3.541   9.449 -0.6516  0.1652 -0.1431
  780MOL0     C 5220   7.795   3.460   9.513 -0.1284  1.0202  0.2656
  780MOL0     C 5221   7.660   3.474   9.487  0.1964 -0.4158  1.0931
  780MOL0     C 5222   7.624   3.559   9.381 -0.6447 -0.6550  0.4983
  780MOL0     O 5223   7.491   3.567   9.348  0.5305 -0.5213  0.2458
  780MOL0     C 5224   7.437   3.687   9.291 -0.3830  0.3098  0.2896
  780MOL0     C 5225   7.458   3.807   9.387 -1.3367 -0.8806 -0.6706
  780MOL0     C 5226   7.419   3.940   9.330  0.5378 -0.7093 -0.6015
  780MOL0     C 5227   7.537   4.033   9.300  0.0393 -0.5440  0.2125
  780MOL0     C 5228   7.624   3.996   9.184 -0.0368  0.2887  0.5245
  780MOL0     C 5229   7.702   3.972   9.090  0.4908 -0.0675 -0.2201
  780MOL0     C 5230   7.727   3.634   9.312 -0.1542  0.3586  0.2266
  780MOL0     C 5231   7.859   3.638   9.357  0.3679  0.5245  0.3033
  780MOL0     C 5232   7.951   3.734   9.293  0.0672 -0.2783 -0.5688
  780MOL0     H 5233   8.316   3.496   9.516  0.0333  0.1195 -0.6967
  780MOL0     H 5234   8.518   3.351   9.529  1.0062 -0.3973  3.1146
  780MOL0     H 5235   8.647   2.945   9.604  0.5725  0.9963 -1.7769
  780MOL0     H 5236   8.481   2.947   9.663  2.9674 -1.1058  1.4164
  780MOL0     H 5237   8.562   2.952   9.361  1.8506  0.7761  0.9780
  780MOL0     H 5238   8.399   2.927   9.427  0.2865 -0.0931  3.8457
  780MOL0     H 5239   8.434   2.741   9.525 -0.3687  4.2298 -0.0888
  780MOL0     H 5240   8.619   2.735   9.484  2.8654  6.7320 -2.6180
  780MOL0     H 5241   8.405   2.719   9.268 -0.5637 -1.4009 -0.4077
  780MOL0     H 5242   8.581   2.689   9.257  0.2835  2.9484  1.4745
  780MOL0     H 5243   8.566   2.496   9.408 -1.1915  0.5693  0.5917
  780MOL0     H 5244   8.389   2.502   9.400 -0.0280  0.5869  1.9744
  780MOL0     H 5245   8.428   2.500   9.132  2.0584  2.5564 -2.4945
  780MOL0     H 5246   8.595   2.451   9.167 -1.9578  0.7550  0.1508
  780MOL0     H 5247   8.443   2.260   9.148  0.8130  0.0792 -0.1447
  780MOL0     H 5248   8.357   2.304   9.300  1.3424 -2.0256  2.3498
  780MOL0     H 5249   8.545   2.266   9.437 -2.2209 -0.5911 -0.0555
  780MOL0     H 5250   8.520   2.121   9.340 -0.0194 -0.4222  2.2454
  780MOL0     H 5251   8.708   2.021   9.200  1.6488  0.6340 -1.2309
  780MOL0     H 5252   8.953   2.015   9.072 -1.4123  0.8940 -0.3923
  780MOL0     H 5253   9.082   2.102   9.123  0.9248 -1.5809 -0.1841
  780MOL0     H 5254   9.058   1.965   9.353  3.8668  0.2493 -0.5310
  780MOL0     H 5255   8.971   1.846   9.259  0.8110 -0.0449 -0.5823
  780MOL0     H 5256   9.213   1.820   9.275  0.4301  1.7531  1.3839
  780MOL0     H 5257   9.241   1.964   9.198  0.6885  1.2315  2.0932
  780MOL0     H 5258   9.262   1.787   9.021  1.2002  2.1703  1.2633
  780MOL0     H 5259   9.123   1.891   8.993 -1.8550  0.3534  1.3044
  780MOL0     H 5260   9.345   1.607   9.062  0.8663  0.9007  1.4909
  780MOL0     H 5261   9.414   1.412   9.171  0.4910  3.2153 -2.1186
  780MOL0     H 5262   9.329   1.215   9.614 -1.7732  0.6585 -1.9032
  780MOL0     H 5263   9.359   1.084   9.799  0.7834  4.3024 -2.0051
  780MOL0     H 5264   9.129   0.677   9.851 -0.5288  1.7858 -2.8938
  780MOL0     H 5265   9.264   0.656   9.745 -0.4508 -1.6152  0.6817
  780MOL0     H 5266   9.261   0.652  10.048  0.2993 -0.2238  0.3929
  780MOL0     H 5267   9.343   0.539   9.938  0.4491 -0.0576  2.0064
  780MOL0     H 5268   9.525   0.712   9.898 -0.3872  0.9503 -0.5949
  780MOL0     H 5269   9.431   0.819  10.001  5.1749  0.5829  1.2761
  780MOL0     H 5270   9.456   0.599  10.167  0.9440 -2.5190 -1.7519
  780MOL0     H 5271   9.580   0.728  10.166 -0.8802 -0.5466  0.8918
  780MOL0     H 5272   9.710   0.595  10.002 -1.2146  0.1235  0.1731
  780MOL0     H 5273   9.577   0.472   9.989 -1.8704 -0.2576  0.0838
  780MOL0     H 5274   9.739   0.544  10.226 -0.4132 -0.7277  0.8783
  780MOL0     H 5275   9.603   0.426  10.245 -0.0988  2.2931  0.7316
  780MOL0     H 5276   9.849   0.374  10.079  1.0949 -0.6277  0.6801
  780MOL0     H 5277   9.704   0.275  10.094  0.9552  1.6880 -2.6762
  780MOL0     H 5278   9.875   0.350  10.336  2.2284  0.5701 -3.4929
  780MOL0     H 5279   9.733   0.233  10.323  1.3174 -2.5556  0.6490
  780MOL0     H 5280   9.089   0.791   9.641 -0.8209  0.9249  1.1101
  780MOL0     H 5281   9.066   0.921   9.423 -0.7530 -0.0299  1.5346
  780MOL0     H 5282   9.004   1.317   9.294  0.5504  0.1944  1.3461
  780MOL0     H 5283   8.939   1.526   9.178 -0.3235 -0.1167 -0.1725
  780MOL0     H 5284   8.286   3.025   9.645 -2.1788 -0.8367 -0.9670
  780MOL0     H 5285   8.077   3.175   9.645 -0.8288  1.2111 -0.3367
  780MOL0     H 5286   7.831   3.385   9.582 -3.3809  0.6053  1.6728
  780MOL0     H 5287   7.575   3.434   9.542 -2.8309  2.9198 -0.7196
  780MOL0     H 5288   7.328   3.679   9.288 -0.6712  2.6116  1.5930
  780MOL0     H 5289   7.477   3.703   9.190 -3.1103  1.2986 -0.7409
  780MOL0     H 5290   7.562   3.811   9.423 -2.0502 -0.2477  1.5011
  780MOL0     H 5291   7.406   3.788   9.482  0.6500 -1.9771  0.2700
  780MOL0     H 5292   7.367   3.995   9.409  1.7144  2.1141 -1.6573
  780MOL0     H 5293   7.343   3.933   9.252 -1.3151  2.7139  0.6657
  780MOL0     H 5294   7.493   4.130   9.274  1.7893  1.2245  3.1751
  780MOL0     H 5295   7.598   4.043   9.390 -2.4459  1.7724  1.7905
  780MOL0     H 5296   7.762   3.939   9.008  2.5851 -0.2920  1.3324
  780MOL0     H 5297   7.700   3.692   9.224 -1.2556 -0.3655  0.0577
  780MOL0     H 5298   7.888   3.804   9.235 -1.9923  1.4037  3.3433
  780MOL0     H 5299   7.990   3.801   9.370 -0.2664  0.6418 -1.1786
  780MOL0     H 5300   8.017   3.686   9.220 -2.5027 -4.3840 -0.4713
  781MOL0     O 5301   2.761   4.857   0.094 -0.1845 -0.1360  0.2340
  781MOL0     C 5302   2.755   4.841  -0.023  0.5889  1.0166 -0.0755
  781MOL0     O 5303   2.820   4.904  -0.120 -0.4553  0.2592 -0.1108
  781MOL0     C 5304   2.906   4.997  -0.074  0.2051  1.1676 -0.2539
  781MOL0     C 5305   2.881   5.140  -0.073 -0.7489 -0.3252  0.9722
  781MOL0     C 5306   2.969   5.233  -0.018 -0.4068 -0.4689 -0.6522
  781MOL0     C 5307   3.095   5.187   0.022  0.2035 -0.4226  0.0610
  781MOL0     O 5308   3.160   5.286   0.081 -0.0655 -0.5788  0.1281
  781MOL0     C 5309   3.301   5.275   0.094 -0.5119 -0.8268  0.0608
  781MOL0     C 5310   3.363   5.408   0.126 -0.4577 -0.2757  0.1743
  781MOL0     C 5311   3.518   5.414   0.127  0.4795  0.3931 -0.5510
  781MOL0     C 5312   3.556   5.567   0.164 -0.3155  0.1323 -0.5153
  781MOL0     C 5313   3.706   5.567   0.190  0.0193  0.3055 -0.5452
  781MOL0     C 5314   3.750   5.521   0.330 -0.5622  0.5511  0.1236
  781MOL0     C 5315   3.895   5.507   0.357 -0.1740  0.1110  0.5972
  781MOL0     C 5316   3.928   5.430   0.490  0.3506 -0.7083  0.9217
  781MOL0     N 5317   4.065   5.446   0.530 -0.5284  0.5706  0.3214
  781MOL0     C 5318   4.164   5.347   0.509  0.8445 -0.4601  0.1212
  781MOL0     C 5319   4.252   5.370   0.600 -0.0622 -0.4679  0.9688
  781MOL0     C 5320   4.359   5.273   0.658 -1.3101  0.0381  1.3343
  781MOL0     C 5321   4.484   5.282   0.566 -0.8081  0.1608 -0.4580
  781MOL0     C 5322   4.565   5.405   0.598 -0.8184 -0.8074 -0.4138
  781MOL0     C 5323   4.701   5.401   0.532 -0.0374 -0.1567  0.2267
  781MOL0     O 5324   4.678   5.427   0.392  0.0414 -0.2575 -0.1831
  781MOL0     C 5325   4.721   5.548   0.340 -0.0256  0.5180  0.5587
  781MOL0     C 5326   4.805   5.537   0.227  0.3563 -0.0956  0.3888
  781MOL0     C 5327   4.859   5.662   0.181 -0.6349  1.3490  0.7863
  781MOL0     C 5328   4.827   5.789   0.231  0.1545  0.8985  0.5918
  781MOL0     C 5329   4.859   5.912   0.168 -0.5195 -0.0788 -0.2124
  781MOL0     O 5330   4.828   6.033   0.235 -0.4679  0.4232 -0.3713
  781MOL0     C 5331   4.867   6.146   0.176 -0.4952  0.7361  0.0247
  781MOL0     C 5332   4.994   6.191   0.188  0.9091  0.3695  0.8401
  781MOL0     C 5333   5.029   6.314   0.130 -0.4911  0.7028 -0.4428
  781MOL0     C 5334   4.925   6.385   0.062 -0.2253 -1.2990  0.7232
  781MOL0     O 5335   4.947   6.521   0.035 -0.1371  0.5433  0.0734
  781MOL0     C 5336   4.889   6.569  -0.082 -0.5517  0.7686 -0.0483
  781MOL0     C 5337   4.962   6.699  -0.119  1.0866 -0.2817 -0.9413
  781MOL0     C 5338   5.111   6.670  -0.144 -0.0546  0.5020  0.0545
  781MOL0     C 5339   5.196   6.784  -0.077  0.5824  0.0817  0.2362
  781MOL0     C 5340   5.340   6.767  -0.106 -0.5404 -0.1842 -0.4804
  781MOL0     C 5341   5.423   6.813   0.009 -0.7480  0.7378 -0.4477
  781MOL0     C 5342   5.419   6.960   0.034  0.0261 -1.0231  0.2544
  781MOL0     C 5343   5.541   6.998   0.121 -0.0374 -0.7425  0.4406
  781MOL0    Cl 5344   5.580   7.181   0.107  0.1179  0.1709 -0.0752
  781MOL0     C 5345   4.796   6.330   0.059 -0.5061  0.0501 -0.2401
  781MOL0     C 5346   4.766   6.210   0.116  0.7929 -0.5775 -0.1124
  781MOL0     O 5347   4.934   5.902   0.076 -0.1899 -0.4665  0.1724
  781MOL0     C 5348   4.726   5.788   0.330 -0.3609  0.1152 -0.1824
  781MOL0     C 5349   4.672   5.664   0.381  0.5614 -0.7392  0.4121
  781MOL0     N 5350   4.222   5.488   0.661 -0.7690  0.0377 -0.6363
  781MOL0     N 5351   4.110   5.540   0.619 -0.9036 -0.5976 -0.1956
  781MOL0     C 5352   3.139   5.054   0.003  0.6916 -0.0740  0.0167
  781MOL0     C 5353   3.037   4.961  -0.040 -0.6555 -0.7374 -0.0537
  781MOL0     C 5354   2.650   4.743  -0.065 -0.4567  1.2615 -0.7675
  781MOL0     C 5355   2.654   4.698  -0.203 -0.0325 -0.0728  0.2478
  781MOL0     C 5356   2.564   4.599  -0.251 -1.0837 -0.3701 -0.1367
  781MOL0     C 5357   2.456   4.557  -0.173  0.4556 -1.2082 -0.2892
  781MOL0     O 5358   2.362   4.467  -0.214  0.2585 -0.0030  0.0623
  781MOL0     C 5359   2.401   4.353  -0.276  0.0763 -0.0505  0.9326
  781MOL0     C 5360   2.291   4.265  -0.338 -0.8325  0.3971 -0.0987
  781MOL0     C 5361   2.179   4.210  -0.239  0.0907 -0.3747 -0.1390
  781MOL0     C 5362   2.044   4.179  -0.313 -0.8801  0.7024 -0.9622
  781MOL0     C 5363   2.065   4.064  -0.404 -0.4989 -0.8956  0.2176
  781MOL0     C 5364   2.090   3.963  -0.468  0.3275 -0.5358  0.3086
  781MOL0     C 5365   2.443   4.613  -0.048  0.4235 -0.4066  1.1004
  781MOL0     C 5366   2.535   4.703   0.012  0.5969  0.3891  0.6017
  781MOL0     C 5367   2.504   4.733   0.149 -0.0991  0.0800 -0.6629
  781MOL0     H 5368   2.778   5.163  -0.099 -2.8684 -6.2765  2.5595
  781MOL0     H 5369   2.944   5.335   0.009  0.5073 -0.8948  2.0346
  781MOL0     H 5370   3.331   5.198   0.165 -1.1432 -2.6908 -1.6140
  781MOL0     H 5371   3.345   5.238   0.001 -1.5318  0.1972 -0.8561
  781MOL0     H 5372   3.324   5.453   0.218  0.9508 -1.1293  1.2246
  781MOL0     H 5373   3.319   5.458   0.040 -0.3965 -0.7901 -0.1621
  781MOL0     H 5374   3.554   5.396   0.025 -1.4800  0.9087 -1.3663
  781MOL0     H 5375   3.547   5.335   0.197 -0.7652 -0.2790 -0.7638
  781MOL0     H 5376   3.539   5.635   0.079  0.2526 -0.9675 -1.5311
  781MOL0     H 5377   3.497   5.606   0.248 -1.8133 -0.1769 -1.3930
  781MOL0     H 5378   3.752   5.501   0.117  1.8644 -1.7910  2.3141
  781MOL0     H 5379   3.754   5.664   0.175  2.3589 -0.5315  1.0540
  781MOL0     H 5380   3.716   5.588   0.410  0.9297  2.0854 -0.4737
  781MOL0     H 5381   3.709   5.424   0.361  0.4413  0.7257  2.1859
  781MOL0     H 5382   3.940   5.606   0.351  1.7777 -0.8382 -2.7090
  781MOL0     H 5383   3.925   5.438   0.278 -0.4089 -2.5487  2.6548
  781MOL0     H 5384   3.864   5.485   0.560 -1.2280  0.3548 -1.2445
  781MOL0     H 5385   3.892   5.327   0.481 -2.5476  0.4148 -2.7236
  781MOL0     H 5386   4.161   5.259   0.444  0.0969 -0.5795  0.3095
  781MOL0     H 5387   4.368   5.313   0.759  0.9933  2.7621  0.1863
  781MOL0     H 5388   4.320   5.170   0.660  0.3957 -0.7647 -1.4212
  781MOL0     H 5389   4.551   5.197   0.581  0.4002  0.5572 -3.0274
  781MOL0     H 5390   4.463   5.261   0.461  2.4657  1.0870 -1.4072
  781MOL0     H 5391   4.573   5.427   0.704 -2.3364  2.3700 -0.8386
  781MOL0     H 5392   4.510   5.493   0.562 -0.9310  0.0701  1.8018
  781MOL0     H 5393   4.751   5.304   0.539 -0.1679 -0.1784  0.9702
  781MOL0     H 5394   4.760   5.473   0.589 -0.6665  0.7614 -0.2487
  781MOL0     H 5395   4.838   5.444   0.181  0.8357  0.4920 -0.4982
  781MOL0     H 5396   4.925   5.657   0.096 -1.1330  2.9297  0.2651
  781MOL0     H 5397   5.064   6.135   0.249  0.2902  0.6280  1.8111
  781MOL0     H 5398   5.127   6.358   0.142 -0.1040 -0.6727  2.2690
  781MOL0     H 5399   4.893   6.489  -0.157  2.6354 -0.0762  0.8535
  781MOL0     H 5400   4.785   6.593  -0.059 -1.2769 -2.2620  0.2384
  781MOL0     H 5401   4.913   6.740  -0.208 -2.2224  0.3883  0.9986
  781MOL0     H 5402   4.952   6.775  -0.041 -0.0780 -1.1884 -0.1740
  781MOL0     H 5403   5.138   6.572  -0.105 -2.4294 -0.4868 -0.6561
  781MOL0     H 5404   5.129   6.665  -0.252 -0.4448 -1.5927  0.0621
  781MOL0     H 5405   5.182   6.780   0.031 -1.0412  1.4341  0.1099
  781MOL0     H 5406   5.159   6.874  -0.128 -3.4507 -0.5553  1.6873
  781MOL0     H 5407   5.369   6.824  -0.194 -2.2707  3.3573  1.0195
  781MOL0     H 5408   5.363   6.663  -0.131  1.2228 -0.0257  0.3754
  781MOL0     H 5409   5.404   6.762   0.104  0.9751 -1.4395 -1.2065
  781MOL0     H 5410   5.523   6.776  -0.015 -1.8048 -0.5613 -3.3445
  781MOL0     H 5411   5.322   6.992   0.073 -0.6115 -1.4294 -0.9446
  781MOL0     H 5412   5.423   7.000  -0.068 -0.2495  1.1161  1.0468
  781MOL0     H 5413   5.515   6.972   0.224 -1.1630  1.4297  0.7555
  781MOL0     H 5414   5.633   6.945   0.092  0.7532  0.5491  0.4890
  781MOL0     H 5415   4.709   6.387   0.028 -1.9899 -0.9199  1.8823
  781MOL0     H 5416   4.663   6.175   0.113  1.0870 -1.9037  2.2793
  781MOL0     H 5417   4.693   5.882   0.373  1.5080  0.9073 -0.3862
  781MOL0     H 5418   4.591   5.682   0.450  0.1314 -0.4264 -0.1606
  781MOL0     H 5419   3.232   5.012   0.039  0.9913 -2.9910 -3.5494
  781MOL0     H 5420   3.067   4.857  -0.050 -0.9309 -0.7566 -0.7524
  781MOL0     H 5421   2.731   4.736  -0.269 -1.0265  0.5833 -0.5506
  781MOL0     H 5422   2.578   4.554  -0.348 -2.3710 -4.1489  1.2350
  781MOL0     H 5423   2.471   4.293  -0.217 -0.3214  1.4247  3.0174
  781MOL0     H 5424   2.459   4.381  -0.365 -2.6346 -2.3370 -1.7657
  781MOL0     H 5425   2.338   4.174  -0.377 -1.2262  0.9272 -1.9070
  781MOL0     H 5426   2.243   4.310  -0.425  1.3573  1.2610 -0.9306
  781MOL0     H 5427   2.149   4.280  -0.160  0.1053 -0.9543  0.3944
  781MOL0     H 5428   2.216   4.122  -0.185  1.0812 -0.2611 -0.6137
  781MOL0     H 5429   1.973   4.146  -0.237 -0.0027  0.9853  0.0097
  781MOL0     H 5430   2.010   4.270  -0.363  1.9382  3.2458  1.3346
  781MOL0     H 5431   2.107   3.863  -0.502  1.7896 -1.2339  2.8519
  781MOL0     H 5432   2.356   4.578   0.007 -2.3575  0.6064 -2.2623
  781MOL0     H 5433   2.465   4.835   0.152  0.5190  0.3271 -0.7152
  781MOL0     H 5434   2.423   4.674   0.192  0.0329  3.3893  5.1347
  781MOL0     H 5435   2.589   4.717   0.215  0.0599 -0.4795 -0.9951
  782MOL0     O 5436  10.735   1.085   6.878  0.4185  0.0712  0.6440
  782MOL0     C 5437  10.711   1.049   6.766  0.3792 -1.0046 -0.4637
  782MOL0     O 5438  10.800   1.001   6.675  0.2117 -0.9428 -0.0936
  782MOL0     C 5439  10.920   1.060   6.681  0.5497 -0.6501 -1.1829
  782MOL0     C 5440  11.011   1.027   6.780 -1.2829  0.4980 -0.3319
  782MOL0     C 5441  11.132   1.104   6.794 -0.1245  0.6618  0.3077
  782MOL0     C 5442  11.168   1.200   6.703  0.5977 -1.1835  0.7651
  782MOL0     O 5443  11.289   1.270   6.702  0.3162  0.0438 -0.0470
  782MOL0     C 5444  11.323   1.333   6.827  0.2907 -0.7891  0.3096
  782MOL0     C 5445  11.331   1.481   6.812 -0.8944  0.4064 -0.7004
  782MOL0     C 5446  11.182   1.533   6.819 -0.1970  0.2664  0.4052
  782MOL0     C 5447  11.176   1.681   6.859  0.3508 -0.7781  1.3653
  782MOL0     C 5448  11.035   1.751   6.856  0.5827  0.0410 -0.2663
  782MOL0     C 5449  10.905   1.660   6.877 -1.5250  0.6281 -0.9045
  782MOL0     C 5450  10.794   1.756   6.863  0.8601 -0.8494  0.0825
  782MOL0     C 5451  10.683   1.698   6.761 -0.4536  0.1238 -0.0060
  782MOL0     N 5452  10.731   1.745   6.623  0.1005  0.8152  0.2490
  782MOL0     C 5453  10.639   1.805   6.543 -0.2502 -0.6150 -0.4506
  782MOL0     C 5454  10.708   1.839   6.434  0.3180 -0.5268  0.6644
  782MOL0     C 5455  10.643   1.923   6.330 -1.4506 -0.1725  0.0065
  782MOL0     C 5456  10.670   2.071   6.371  0.0677 -0.2356 -0.5304
  782MOL0     C 5457  10.607   2.180   6.271 -0.6498  0.5158 -0.0525
  782MOL0     C 5458  10.457   2.179   6.257 -0.6976  1.0235 -1.0420
  782MOL0     O 5459  10.403   2.261   6.153  0.0838 -0.5819 -0.0182
  782MOL0     C 5460  10.266   2.294   6.159  0.2847 -0.5718 -0.3595
  782MOL0     C 5461  10.210   2.385   6.063 -0.0633 -0.4283  0.6081
  782MOL0     C 5462  10.077   2.417   6.051  0.0109 -0.5463 -0.1316
  782MOL0     C 5463   9.983   2.362   6.138  0.4434  0.0743 -0.2828
  782MOL0     C 5464   9.840   2.395   6.120  0.5283 -0.0078  0.5130
  782MOL0     O 5465   9.796   2.401   5.996 -0.3998 -0.0436  0.6118
  782MOL0     C 5466   9.664   2.415   5.962 -0.5791  0.3477 -0.7144
  782MOL0     C 5467   9.649   2.487   5.848  0.9952 -0.1700  0.1145
  782MOL0     C 5468   9.521   2.506   5.792  0.4216  0.2908 -0.4564
  782MOL0     C 5469   9.402   2.449   5.856 -0.3547 -0.7508 -0.5527
  782MOL0     O 5470   9.272   2.471   5.821 -0.7624  0.0197 -0.0064
  782MOL0     C 5471   9.235   2.515   5.691  0.3948 -0.0658  0.0233
  782MOL0     C 5472   9.092   2.486   5.678  1.1544 -0.7081  0.8296
  782MOL0     C 5473   9.007   2.609   5.716 -0.1744 -0.0499  0.4685
  782MOL0     C 5474   8.870   2.557   5.685  0.8653  0.4560  0.4577
  782MOL0     C 5475   8.758   2.662   5.723 -0.2916  0.2649  0.4580
  782MOL0     C 5476   8.623   2.610   5.684  0.2536 -0.6622  0.0281
  782MOL0     C 5477   8.503   2.685   5.736 -0.2673 -0.1250 -0.0184
  782MOL0     C 5478   8.388   2.585   5.779  0.5511 -0.7506 -0.3553
  782MOL0    Cl 5479   8.275   2.677   5.878  0.1808  0.0767  0.1589
  782MOL0     C 5480   9.419   2.375   5.973  0.5943 -0.3436 -0.9554
  782MOL0     C 5481   9.554   2.358   6.021 -0.4623 -0.2604 -0.1192
  782MOL0     O 5482   9.771   2.408   6.218  0.1427 -0.1209  0.8389
  782MOL0     C 5483  10.032   2.286   6.251  1.0875 -0.4227  0.2347
  782MOL0     C 5484  10.165   2.260   6.264  0.4045  0.4560  0.1474
  782MOL0     N 5485  10.842   1.797   6.449  0.1111 -0.2193 -0.1055
  782MOL0     N 5486  10.850   1.754   6.563  0.0830  0.7816  0.2334
  782MOL0     C 5487  11.088   1.220   6.588 -0.5978 -0.1675 -0.6048
  782MOL0     C 5488  10.967   1.153   6.584  0.5753  1.0050  0.4767
  782MOL0     C 5489  10.564   1.060   6.725  0.2001 -0.5266 -0.3839
  782MOL0     C 5490  10.524   0.990   6.604  0.4595 -0.1108  0.2755
  782MOL0     C 5491  10.392   0.993   6.553 -0.0965  0.5874 -0.1669
  782MOL0     C 5492  10.295   1.066   6.619 -0.3170  1.1799 -0.5224
  782MOL0     O 5493  10.169   1.067   6.561 -0.6284 -0.4833  0.2946
  782MOL0     C 5494  10.062   1.114   6.632 -0.1896 -0.7448  0.0649
  782MOL0     C 5495   9.941   1.112   6.540 -1.7490  0.6889 -0.4922
  782MOL0     C 5496   9.902   0.965   6.538  0.4629  0.4239 -0.9374
  782MOL0     C 5497   9.789   0.935   6.427  0.4213 -0.2768 -1.5524
  782MOL0     C 5498   9.664   0.992   6.466  0.0290  0.0865  0.8341
  782MOL0     C 5499   9.562   1.048   6.484  0.1165  0.5100  0.0865
  782MOL0     C 5500  10.327   1.124   6.745  0.1310 -0.3474 -0.0514
  782MOL0     C 5501  10.460   1.130   6.796 -0.4769 -0.1409  0.8075
  782MOL0     C 5502  10.485   1.227   6.912 -0.3778 -0.0690  0.5802
  782MOL0     H 5503  10.991   0.960   6.862 -2.0137  1.4745  0.3201
  782MOL0     H 5504  11.198   1.063   6.869 -0.6950 -3.5076 -1.2159
  782MOL0     H 5505  11.248   1.316   6.903 -1.3386 -0.1796 -1.0980
  782MOL0     H 5506  11.415   1.283   6.858 -0.0307 -0.2684  2.1893
  782MOL0     H 5507  11.389   1.500   6.722  1.7114 -0.7376  0.6062
  782MOL0     H 5508  11.387   1.529   6.893 -3.6644  0.9005  1.0455
  782MOL0     H 5509  11.131   1.469   6.892  3.5731  0.7970  3.8063
  782MOL0     H 5510  11.142   1.523   6.718  2.2731  1.7328 -0.7853
  782MOL0     H 5511  11.221   1.690   6.958  0.0526 -1.9233  1.6223
  782MOL0     H 5512  11.240   1.737   6.789  1.0345 -0.3079  2.3448
  782MOL0     H 5513  11.042   1.828   6.934  1.2423  0.4336 -0.7017
  782MOL0     H 5514  11.034   1.785   6.752  1.3690  0.3857 -0.1737
  782MOL0     H 5515  10.917   1.572   6.814  0.8206  2.1425 -2.7721
  782MOL0     H 5516  10.907   1.617   6.977  0.5436 -0.4692 -1.3586
  782MOL0     H 5517  10.831   1.854   6.832 -1.4390  0.1138  0.1597
  782MOL0     H 5518  10.757   1.784   6.962  0.7643  0.2042 -0.2340
  782MOL0     H 5519  10.685   1.589   6.771  4.5147  0.1200  2.3987
  782MOL0     H 5520  10.583   1.739   6.776 -2.0156 -1.6324 -4.0972
  782MOL0     H 5521  10.534   1.827   6.559 -1.4691 -1.7512 -5.3636
  782MOL0     H 5522  10.667   1.907   6.225 -4.6346  1.1948 -1.0512
  782MOL0     H 5523  10.536   1.902   6.325 -1.7442  1.1755  0.1916
  782MOL0     H 5524  10.623   2.087   6.468 -2.6271  0.1889 -1.8035
  782MOL0     H 5525  10.778   2.088   6.378 -0.0514  0.2418  0.1509
  782MOL0     H 5526  10.641   2.163   6.168 -1.0338 -1.2564  0.0866
  782MOL0     H 5527  10.631   2.283   6.298 -0.1500  0.1374  0.9783
  782MOL0     H 5528  10.423   2.218   6.353  0.4797 -0.7410  0.1616
  782MOL0     H 5529  10.424   2.076   6.237 -0.5075  0.7633 -0.0697
  782MOL0     H 5530  10.278   2.418   5.985  0.4963  0.5989  1.5018
  782MOL0     H 5531  10.055   2.481   5.966 -1.7803  0.5298  1.0604
  782MOL0     H 5532   9.733   2.524   5.789  1.3933  0.0854  0.8263
  782MOL0     H 5533   9.522   2.569   5.704  0.1407  0.4284 -0.3614
  782MOL0     H 5534   9.249   2.623   5.683 -0.0655 -0.0400 -0.4986
  782MOL0     H 5535   9.292   2.463   5.615 -0.7739  1.1381 -1.7495
  782MOL0     H 5536   9.070   2.458   5.574  1.7888 -0.3719  0.5974
  782MOL0     H 5537   9.062   2.399   5.737 -1.4174  1.3865  2.8794
  782MOL0     H 5538   9.000   2.642   5.819 -0.2946  0.4125  0.3134
  782MOL0     H 5539   9.042   2.698   5.663  0.0183 -0.9076 -0.9119
  782MOL0     H 5540   8.844   2.466   5.740 -0.7853  0.2946 -0.5105
  782MOL0     H 5541   8.853   2.536   5.579 -2.2615 -0.2788  0.9949
  782MOL0     H 5542   8.775   2.756   5.670  0.4699 -0.2501 -0.2274
  782MOL0     H 5543   8.767   2.672   5.832 -1.2077  1.3861  0.4505
  782MOL0     H 5544   8.617   2.606   5.575 -1.8790  4.0351 -0.2586
  782MOL0     H 5545   8.620   2.504   5.713 -3.3398 -0.6617  0.1083
  782MOL0     H 5546   8.459   2.753   5.663 -0.6526  0.5972  0.8679
  782MOL0     H 5547   8.542   2.740   5.822 -0.8741  1.3661 -0.6516
  782MOL0     H 5548   8.335   2.560   5.687 -2.2591  0.7568  0.7477
  782MOL0     H 5549   8.430   2.495   5.825  0.9981 -0.6990 -0.6591
  782MOL0     H 5550   9.322   2.351   6.016  1.4701 -0.4082  1.0834
  782MOL0     H 5551   9.570   2.302   6.113 -1.0621 -2.0535 -1.0518
  782MOL0     H 5552   9.964   2.242   6.323  1.8932  1.0004  1.9158
  782MOL0     H 5553  10.201   2.209   6.353 -1.4656 -0.0347  0.6665
  782MOL0     H 5554  11.110   1.293   6.511  0.0749 -1.7808 -2.0167
  782MOL0     H 5555  10.892   1.156   6.506  0.5579  3.2733  0.5136
  782MOL0     H 5556  10.592   0.931   6.544 -0.3436 -0.7652 -0.0099
  782MOL0     H 5557  10.360   0.944   6.462 -0.8183 -1.0121  0.8953
  782MOL0     H 5558  10.090   1.215   6.663  0.0250 -1.3706  2.1037
  782MOL0     H 5559  10.049   1.040   6.712 -0.1970 -2.7586 -1.7334
  782MOL0     H 5560   9.955   1.151   6.438 -0.0780  1.7730  0.1187
  782MOL0     H 5561   9.868   1.179   6.588 -1.0409  0.1698  1.3869
  782MOL0     H 5562   9.861   0.938   6.636  2.5698 -1.3146 -0.4623
  782MOL0     H 5563   9.991   0.910   6.506 -1.2481 -3.8711  0.8940
  782MOL0     H 5564   9.816   0.973   6.328  0.8938  1.5000 -0.7948
  782MOL0     H 5565   9.775   0.827   6.419  0.2701 -0.1601 -3.0178
  782MOL0     H 5566   9.476   1.111   6.495 -1.2818 -1.0947 -1.1959
  782MOL0     H 5567  10.245   1.166   6.801 -0.7108  0.2284 -1.6424
  782MOL0     H 5568  10.485   1.170   7.005 -0.7727  1.7782  1.7724
  782MOL0     H 5569  10.584   1.273   6.901 -0.5203 -0.0921 -1.1099
  782MOL0     H 5570  10.416   1.312   6.908  1.2287  1.2769  0.2925
  783MOL0     O 5571   1.882   9.295   5.838 -0.8453 -0.1508  0.2853
  783MOL0     C 5572   1.816   9.361   5.763  0.0470 -0.1938  0.6474
  783MOL0     O 5573   1.849   9.361   5.630 -0.6985 -1.1966 -0.0796
  783MOL0     C 5574   1.975   9.350   5.569 -0.2996 -0.0098  0.4461
  783MOL0     C 5575   1.980   9.316   5.437  0.0374 -0.0969 -0.3912
  783MOL0     C 5576   2.101   9.335   5.369 -0.2522  0.4447  0.2622
  783MOL0     C 5577   2.224   9.371   5.435  0.5921 -1.1455  0.0775
  783MOL0     O 5578   2.333   9.366   5.358  0.3398 -0.0585  0.1352
  783MOL0     C 5579   2.458   9.426   5.421 -0.9462  0.4651  0.1881
  783MOL0     C 5580   2.454   9.577   5.419 -0.7478  0.1484 -0.5295
  783MOL0     C 5581   2.463   9.633   5.271  0.2467 -0.2775 -0.4909
  783MOL0     C 5582   2.448   9.783   5.277  0.3767 -0.0173  0.3863
  783MOL0     C 5583   2.448   9.846   5.131 -0.0536 -0.3887 -0.1098
  783MOL0     C 5584   2.514   9.985   5.123 -0.0382 -0.3166  0.1346
  783MOL0     C 5585   2.508  10.048   4.985  0.4523  0.1716 -0.9686
  783MOL0     C 5586   2.370  10.106   4.954 -0.0952  0.5302  0.2440
  783MOL0     N 5587   2.323  10.206   5.061 -0.2889 -0.6827 -0.9304
  783MOL0     C 5588   2.370  10.342   5.079  0.3301  0.3144 -0.1294
  783MOL0     C 5589   2.306  10.375   5.193  0.3215 -0.3094 -0.0076
  783MOL0     C 5590   2.325  10.485   5.290 -0.1689 -0.3694 -1.3660
  783MOL0     C 5591   2.465  10.514   5.334 -0.6145 -1.0942 -0.0144
  783MOL0     C 5592   2.544  10.392   5.378 -0.2103  0.4617  0.5827
  783MOL0     C 5593   2.684  10.392   5.432 -0.2442  0.5797 -0.3418
  783MOL0     O 5594   2.744  10.255   5.429 -0.4333  0.5270 -0.2193
  783MOL0     C 5595   2.695  10.153   5.506  0.3042 -0.4631  0.2899
  783MOL0     C 5596   2.716  10.026   5.453 -1.1185 -0.6299 -0.8684
  783MOL0     C 5597   2.671   9.915   5.527 -0.2817  0.1029  0.3011
  783MOL0     C 5598   2.595   9.933   5.648 -0.4571  0.3621 -0.1192
  783MOL0     C 5599   2.537   9.821   5.720  0.5094  0.6756  0.6598
  783MOL0     O 5600   2.416   9.853   5.786 -0.4479 -0.9443  0.0164
  783MOL0     C 5601   2.350   9.753   5.849 -0.3643 -0.3879 -0.8912
  783MOL0     C 5602   2.233   9.703   5.794 -0.3612 -0.1168  0.3983
  783MOL0     C 5603   2.145   9.629   5.873  0.1319  0.4105  0.1201
  783MOL0     C 5604   2.180   9.595   6.004 -0.1093  0.2115  0.6426
  783MOL0     O 5605   2.098   9.523   6.086  0.2523  0.1660  0.3917
  783MOL0     C 5606   1.960   9.557   6.091 -0.5129  0.3622  1.0968
  783MOL0     C 5607   1.919   9.535   6.233  0.2362 -0.1915  0.1766
  783MOL0     C 5608   1.808   9.630   6.285 -0.7215 -0.1908  0.7857
  783MOL0     C 5609   1.719   9.568   6.397  0.0386  0.4004 -0.0695
  783MOL0     C 5610   1.613   9.478   6.340  0.6913  0.8546  0.4732
  783MOL0     C 5611   1.486   9.465   6.415  0.6085 -0.4975  0.5141
  783MOL0     C 5612   1.379   9.390   6.334  1.8003 -0.5848 -0.4017
  783MOL0     C 5613   1.242   9.396   6.392 -0.1443  0.6328  0.1864
  783MOL0    Cl 5614   1.238   9.319   6.552 -0.6431 -0.0939 -0.3653
  783MOL0     C 5615   2.306   9.634   6.055 -0.3302 -0.3711 -0.2177
  783MOL0     C 5616   2.392   9.717   5.982  0.0447  0.0817 -0.1561
  783MOL0     O 5617   2.587   9.704   5.722 -0.5053 -0.5444  0.5484
  783MOL0     C 5618   2.571  10.064   5.688 -0.2244  0.5118 -1.1305
  783MOL0     C 5619   2.617  10.177   5.620  0.9079 -0.6121 -0.1681
  783MOL0     N 5620   2.220  10.272   5.231 -1.6529 -0.5547 -0.4414
  783MOL0     N 5621   2.225  10.180   5.148  0.1129  0.4225 -0.0098
  783MOL0     C 5622   2.218   9.394   5.575 -0.0556 -0.4387  0.3546
  783MOL0     C 5623   2.087   9.394   5.629 -0.0681 -0.3082 -1.1736
  783MOL0     C 5624   1.680   9.417   5.798  0.0108  0.3564 -0.2138
  783MOL0     C 5625   1.598   9.334   5.872  0.6143  1.4205 -0.5257
  783MOL0     C 5626   1.464   9.361   5.901  0.1512 -0.6119 -0.6215
  783MOL0     C 5627   1.409   9.475   5.871  0.2726 -0.6640  0.2296
  783MOL0     O 5628   1.281   9.488   5.920 -0.9120 -0.5118  0.0991
  783MOL0     C 5629   1.216   9.614   5.891 -0.4312 -0.3527  0.4547
  783MOL0     C 5630   1.057   9.617   5.919  1.0763 -0.3113 -0.3007
  783MOL0     C 5631   1.040   9.559   6.067 -0.2125 -0.5588  0.2357
  783MOL0     C 5632   0.908   9.600   6.129  0.6578 -0.6441  0.3860
  783MOL0     C 5633   0.896   9.535   6.250  0.1618 -0.7209 -0.0892
  783MOL0     C 5634   0.885   9.473   6.356 -0.5089 -0.1397  1.0476
  783MOL0     C 5635   1.479   9.568   5.786 -0.1185  0.2654  0.2475
  783MOL0     C 5636   1.616   9.535   5.751  0.6454  0.5086 -1.3667
  783MOL0     C 5637   1.692   9.631   5.660 -0.3167  0.3816  0.1046
  783MOL0     H 5638   1.883   9.290   5.395  0.2604 -0.9022 -0.4157
  783MOL0     H 5639   2.095   9.306   5.264  0.4564  2.5994 -0.4184
  783MOL0     H 5640   2.488   9.392   5.521  1.9779  0.7273 -0.5249
  783MOL0     H 5641   2.538   9.395   5.353 -0.9855  0.2602  0.2357
  783MOL0     H 5642   2.538   9.610   5.480 -1.0721  0.3604 -0.1869
  783MOL0     H 5643   2.358   9.611   5.461 -1.7918 -3.1684  0.1059
  783MOL0     H 5644   2.392   9.582   5.205  1.0154 -1.3108 -0.5526
  783MOL0     H 5645   2.565   9.609   5.239 -0.2882 -1.0702 -1.6848
  783MOL0     H 5646   2.362   9.801   5.341 -1.8857 -1.2384 -2.1177
  783MOL0     H 5647   2.533   9.830   5.328  1.1521  1.4511 -2.0589
  783MOL0     H 5648   2.508   9.783   5.064 -1.3296  0.3064 -1.9906
  783MOL0     H 5649   2.350   9.834   5.084 -1.8886 -0.2549  3.3649
  783MOL0     H 5650   2.459  10.046   5.196 -2.3505  0.1469 -1.8990
  783MOL0     H 5651   2.620   9.982   5.150  0.2183  2.0287 -0.3771
  783MOL0     H 5652   2.532   9.968   4.914  0.0754 -2.8741  2.1058
  783MOL0     H 5653   2.580  10.129   4.971  1.6229 -1.4085 -6.6715
  783MOL0     H 5654   2.388  10.164   4.863  2.8362  2.3098  1.8210
  783MOL0     H 5655   2.298  10.028   4.929  0.0286  0.5825 -0.3012
  783MOL0     H 5656   2.459  10.391   5.043 -1.3371  1.4624 -3.0984
  783MOL0     H 5657   2.291  10.581   5.252  3.1221  0.6799 -1.9864
  783MOL0     H 5658   2.275  10.454   5.382  0.8146  1.2928 -0.2169
  783MOL0     H 5659   2.514  10.563   5.249 -2.2353 -2.4740 -1.8296
  783MOL0     H 5660   2.453  10.588   5.414 -0.8867  0.6421 -1.5970
  783MOL0     H 5661   2.576  10.332   5.292  2.2857 -1.4223  2.6438
  783MOL0     H 5662   2.486  10.342   5.457  2.3753  2.9236  4.3634
  783MOL0     H 5663   2.676  10.432   5.533  2.0945  0.0435  0.1120
  783MOL0     H 5664   2.747  10.466   5.382 -0.5456  0.7905 -0.4098
  783MOL0     H 5665   2.773  10.017   5.361 -1.9071  0.1123 -1.4495
  783MOL0     H 5666   2.697   9.815   5.495  1.7076 -0.1640  2.4909
  783MOL0     H 5667   2.213   9.734   5.692  0.5686  2.7715  0.9901
  783MOL0     H 5668   2.044   9.618   5.833 -0.0422  0.5399  0.5209
  783MOL0     H 5669   1.952   9.661   6.057  3.6433  0.7397  0.6859
  783MOL0     H 5670   1.894   9.493   6.032 -2.2144  2.7616  0.2639
  783MOL0     H 5671   1.880   9.433   6.231  0.9087 -0.5015 -3.0872
  783MOL0     H 5672   2.007   9.546   6.297  1.4901  2.3319 -1.8216
  783MOL0     H 5673   1.843   9.727   6.323 -0.1857  0.8548 -2.1210
  783MOL0     H 5674   1.735   9.652   6.208  0.7600 -2.8362 -1.5513
  783MOL0     H 5675   1.681   9.655   6.451  0.0563  2.2403 -2.8273
  783MOL0     H 5676   1.781   9.510   6.467  1.8187  0.8960 -1.1700
  783MOL0     H 5677   1.659   9.379   6.325 -1.1601 -0.7583  4.1775
  783MOL0     H 5678   1.588   9.506   6.238  2.8733 -1.1211 -0.7254
  783MOL0     H 5679   1.510   9.415   6.510  0.4898  0.1023  0.8649
  783MOL0     H 5680   1.439   9.562   6.437 -1.1719 -1.3191  0.4678
  783MOL0     H 5681   1.404   9.291   6.294 -0.3334 -0.6268 -1.7598
  783MOL0     H 5682   1.365   9.451   6.245  2.2976 -0.6331 -0.5200
  783MOL0     H 5683   1.221   9.503   6.388  1.1979  0.8726 -1.9870
  783MOL0     H 5684   1.172   9.342   6.327  0.2543  0.9800 -0.5455
  783MOL0     H 5685   2.340   9.625   6.158  1.6964  1.1416 -0.6710
  783MOL0     H 5686   2.483   9.757   6.027 -0.7500 -1.9283  3.6910
  783MOL0     H 5687   2.514  10.078   5.780 -1.9606  0.3248 -2.1262
  783MOL0     H 5688   2.628  10.279   5.653  1.4192 -0.4957 -0.6869
  783MOL0     H 5689   2.291   9.429   5.647 -1.3211  0.9567  1.0101
  783MOL0     H 5690   2.076   9.425   5.733  3.6389 -1.1183 -0.3751
  783MOL0     H 5691   1.636   9.240   5.910  0.9744  1.6537 -0.2943
  783MOL0     H 5692   1.406   9.291   5.959 -0.4088 -3.1567 -3.9578
  783MOL0     H 5693   1.227   9.636   5.784 -0.6561 -0.2646  0.4491
  783MOL0     H 5694   1.268   9.694   5.945  0.5272 -0.5252 -0.1813
  783MOL0     H 5695   0.995   9.559   5.849 -3.1235  0.9615  2.0402
  783MOL0     H 5696   1.008   9.715   5.917  2.2358  0.3283  1.1946
  783MOL0     H 5697   1.103   9.608   6.142 -2.5123  3.8583 -0.3763
  783MOL0     H 5698   1.057   9.451   6.073  2.4152 -0.2332 -0.2381
  783MOL0     H 5699   0.911   9.709   6.141  0.2504 -0.5183 -0.5452
  783MOL0     H 5700   0.826   9.572   6.062  0.8302 -0.7750  0.2293
  783MOL0     H 5701   0.863   9.440   6.456 -2.8061 -2.6199 -0.1421
  783MOL0     H 5702   1.443   9.663   5.747 -0.2817  0.4551  0.8424
  783MOL0     H 5703   1.655   9.733   5.673  1.8191  1.1279  0.8186
  783MOL0     H 5704   1.798   9.648   5.682 -0.1041 -2.1291  1.3953
  783MOL0     H 5705   1.704   9.592   5.559 -2.4598 -0.8931  0.2841
  784MOL0     O 5706   1.725   4.167   1.709  0.2575  0.6001 -0.1088
  784MOL0     C 5707   1.662   4.092   1.634 -0.6004  0.1224 -0.2214
  784MOL0     O 5708   1.681   3.955   1.640 -0.2828 -0.3246 -0.1661
  784MOL0     C 5709   1.774   3.897   1.728  0.9657  0.6753 -0.0268
  784MOL0     C 5710   1.906   3.948   1.751 -0.3202  0.2321  0.3949
  784MOL0     C 5711   2.000   3.867   1.836  0.6491  0.3917 -0.0737
  784MOL0     C 5712   1.961   3.739   1.890  0.0593  0.0221 -0.1149
  784MOL0     O 5713   2.040   3.675   1.974 -0.4753 -0.2887  0.4466
  784MOL0     C 5714   2.162   3.632   1.915  0.0927 -0.2933  0.2821
  784MOL0     C 5715   2.156   3.506   1.830  0.6812 -0.5378 -0.2487
  784MOL0     C 5716   2.299   3.461   1.778  0.6293  0.1585 -0.4400
  784MOL0     C 5717   2.295   3.321   1.710  0.6371 -0.0202  0.2557
  784MOL0     C 5718   2.286   3.215   1.812 -0.2092  0.3580 -1.1573
  784MOL0     C 5719   2.308   3.070   1.760 -0.4460 -0.1660 -0.2323
  784MOL0     C 5720   2.262   2.964   1.864 -0.7322  0.2408 -0.2962
  784MOL0     C 5721   2.256   2.825   1.799  0.0813  0.2624 -0.7084
  784MOL0     N 5722   2.208   2.729   1.895 -0.7900 -0.6952 -0.3376
  784MOL0     C 5723   2.085   2.672   1.887 -0.6497  0.3645 -0.6799
  784MOL0     C 5724   2.092   2.557   1.962 -0.2936 -1.3352 -0.8646
  784MOL0     C 5725   2.007   2.443   1.988  0.3908  0.7680 -0.0417
  784MOL0     C 5726   1.858   2.489   2.008  1.2111  0.5841  0.3305
  784MOL0     C 5727   1.832   2.565   2.137 -0.3205 -0.6003  1.1752
  784MOL0     C 5728   1.881   2.494   2.262  0.3167  0.4241  0.2492
  784MOL0     O 5729   1.827   2.558   2.369 -0.1081 -0.5025  0.0695
  784MOL0     C 5730   1.848   2.500   2.490  0.5820 -0.1294 -0.4384
  784MOL0     C 5731   1.915   2.377   2.516 -0.4313  0.2178 -0.1311
  784MOL0     C 5732   1.962   2.351   2.642 -0.7513 -0.3333 -0.4096
  784MOL0     C 5733   1.919   2.416   2.753  1.0460 -0.3352  0.8133
  784MOL0     C 5734   1.971   2.369   2.883  0.2837  0.4818  0.3550
  784MOL0     O 5735   2.036   2.250   2.884  0.1300 -0.3844  0.0260
  784MOL0     C 5736   2.057   2.190   3.004 -0.1772 -0.2526 -0.0890
  784MOL0     C 5737   2.186   2.141   3.037  0.1736  0.2380  0.2277
  784MOL0     C 5738   2.203   2.087   3.162  0.4749 -0.2854 -0.7827
  784MOL0     C 5739   2.097   2.062   3.253  0.1446  0.2096 -0.7054
  784MOL0     O 5740   2.103   1.992   3.376 -1.1461 -0.0214  0.6223
  784MOL0     C 5741   2.227   1.906   3.385  0.5534  0.5998 -0.5627
  784MOL0     C 5742   2.187   1.820   3.499  0.5234  0.3208  0.0143
  784MOL0     C 5743   2.301   1.742   3.553 -0.3468 -0.5708  0.9267
  784MOL0     C 5744   2.248   1.629   3.650  0.6257 -0.8930 -0.1139
  784MOL0     C 5745   2.366   1.529   3.696  0.1716 -0.0250  0.4500
  784MOL0     C 5746   2.384   1.404   3.611  0.4231 -0.1935 -0.9934
  784MOL0     C 5747   2.473   1.310   3.685  0.5789  0.3704  1.1719
  784MOL0     C 5748   2.549   1.211   3.598  0.1828  0.3685 -0.8830
  784MOL0    Cl 5749   2.580   1.047   3.671  0.1971 -0.2009  0.0641
  784MOL0     C 5750   1.969   2.103   3.216 -0.1371 -0.4626 -0.8881
  784MOL0     C 5751   1.951   2.169   3.096  0.1260 -0.2552 -0.9151
  784MOL0     O 5752   1.941   2.440   2.978  0.2661 -0.4013  0.1006
  784MOL0     C 5753   1.826   2.523   2.735 -0.2404  0.5660  0.5162
  784MOL0     C 5754   1.796   2.564   2.600  0.9562 -0.3786  0.4899
  784MOL0     N 5755   2.217   2.562   2.024  0.4741 -0.8159  0.1858
  784MOL0     N 5756   2.285   2.657   1.978  0.1892  0.0082  0.0590
  784MOL0     C 5757   1.825   3.695   1.864 -0.9527  0.4762 -0.3789
  784MOL0     C 5758   1.739   3.774   1.793 -0.4608 -0.5115  0.6112
  784MOL0     C 5759   1.564   4.157   1.545  0.0709  0.8698 -0.2888
  784MOL0     C 5760   1.440   4.090   1.524 -0.0083 -0.7065  0.0896
  784MOL0     C 5761   1.346   4.151   1.446 -0.2414  0.4208 -0.6069
  784MOL0     C 5762   1.374   4.268   1.375 -0.3359  0.3295 -0.4849
  784MOL0     O 5763   1.288   4.335   1.289 -0.7360 -0.4065 -0.4553
  784MOL0     C 5764   1.159   4.281   1.269  0.0402  0.0176  0.8429
  784MOL0     C 5765   1.074   4.386   1.206 -0.3364  0.5024 -0.0679
  784MOL0     C 5766   0.927   4.350   1.190  0.0665  0.6480  0.3422
  784MOL0     C 5767   0.857   4.458   1.114  0.2989 -0.3725 -0.3741
  784MOL0     C 5768   0.705   4.432   1.112 -0.2444 -0.6755  0.4580
  784MOL0     C 5769   0.595   4.399   1.078  0.0872 -0.0260 -0.5131
  784MOL0     C 5770   1.490   4.342   1.389 -1.1095  1.4508  0.1996
  784MOL0     C 5771   1.583   4.286   1.488  0.5039 -1.0063 -1.2951
  784MOL0     C 5772   1.713   4.361   1.506 -0.4640  0.2371 -0.4606
  784MOL0     H 5773   1.935   4.047   1.716 -0.2644 -0.6811 -2.4587
  784MOL0     H 5774   2.097   3.907   1.864  0.5543 -0.2917  1.3088
  784MOL0     H 5775   2.206   3.715   1.859 -4.6825  1.5539 -1.2555
  784MOL0     H 5776   2.225   3.604   2.001 -1.2924 -3.9793  0.2721
  784MOL0     H 5777   2.091   3.532   1.746  0.8598  1.1494  0.0949
  784MOL0     H 5778   2.118   3.431   1.900  2.2935  1.7457  3.3605
  784MOL0     H 5779   2.375   3.474   1.856  0.1744  0.0102  0.0353
  784MOL0     H 5780   2.324   3.534   1.700 -2.1544  1.1563 -0.5097
  784MOL0     H 5781   2.210   3.311   1.642  1.9267 -1.6082 -1.2122
  784MOL0     H 5782   2.385   3.302   1.652  0.4766  1.2416 -0.4394
  784MOL0     H 5783   2.359   3.240   1.890 -0.2451  2.1147 -1.6516
  784MOL0     H 5784   2.187   3.226   1.857  0.7883  1.7490  0.8692
  784MOL0     H 5785   2.249   3.064   1.667  1.2771  1.3285 -1.4925
  784MOL0     H 5786   2.410   3.052   1.725 -1.8964 -2.8068 -3.7244
  784MOL0     H 5787   2.158   2.977   1.897 -1.1301 -1.1906 -0.8854
  784MOL0     H 5788   2.321   2.966   1.956  0.4053 -1.7772 -0.9231
  784MOL0     H 5789   2.189   2.829   1.713 -4.2434  2.3049  2.3918
  784MOL0     H 5790   2.354   2.789   1.766 -0.1273 -2.3884  1.2563
  784MOL0     H 5791   2.003   2.696   1.820 -1.0981  1.4676  0.2325
  784MOL0     H 5792   2.018   2.376   1.902 -4.1711 -1.7748  1.0046
  784MOL0     H 5793   2.050   2.384   2.069  0.7046 -4.3287 -3.5138
  784MOL0     H 5794   1.821   2.554   1.928  0.6251  2.0301  1.7181
  784MOL0     H 5795   1.795   2.399   2.010  2.2609 -0.2246  3.5626
  784MOL0     H 5796   1.725   2.585   2.143 -0.5051 -0.1724 -1.8562
  784MOL0     H 5797   1.888   2.659   2.131  1.9264 -1.8242  1.6064
  784MOL0     H 5798   1.991   2.487   2.262  0.2394 -1.9787  1.7695
  784MOL0     H 5799   1.840   2.393   2.249  0.9925  0.1609  0.0876
  784MOL0     H 5800   1.963   2.317   2.439  1.3610  1.5592 -0.1168
  784MOL0     H 5801   2.044   2.280   2.651  0.5403  1.2253  0.7115
  784MOL0     H 5802   2.266   2.143   2.963  0.5472 -0.0984  0.6127
  784MOL0     H 5803   2.303   2.072   3.202  0.2870 -2.7287 -1.0877
  784MOL0     H 5804   2.233   1.845   3.295  1.7903 -0.0091 -0.0943
  784MOL0     H 5805   2.327   1.950   3.394  0.9389 -0.5505  1.6675
  784MOL0     H 5806   2.137   1.883   3.574 -1.7811  1.3432 -2.2331
  784MOL0     H 5807   2.108   1.750   3.470 -1.1060  1.7474  0.8404
  784MOL0     H 5808   2.352   1.707   3.463 -0.4082  1.1250  0.2069
  784MOL0     H 5809   2.362   1.812   3.610 -2.1365  1.8793 -0.0026
  784MOL0     H 5810   2.164   1.571   3.610  1.0489 -0.0618 -2.3456
  784MOL0     H 5811   2.227   1.684   3.742  5.1203 -3.0161  2.5267
  784MOL0     H 5812   2.326   1.492   3.791 -0.3019 -0.4460  0.0984
  784MOL0     H 5813   2.466   1.572   3.706 -0.0654  0.2207  2.1674
  784MOL0     H 5814   2.284   1.362   3.592 -1.2200  1.4959  2.9266
  784MOL0     H 5815   2.423   1.422   3.510  0.8047 -2.0562 -1.2190
  784MOL0     H 5816   2.406   1.249   3.745  1.3459 -0.8607  0.8157
  784MOL0     H 5817   2.547   1.368   3.741  0.5664 -0.5399  2.1534
  784MOL0     H 5818   2.489   1.188   3.510 -0.1626 -1.5921 -0.1963
  784MOL0     H 5819   2.646   1.244   3.561  1.3122  0.7618  2.1606
  784MOL0     H 5820   1.891   2.081   3.289  0.1801 -0.8784 -0.6701
  784MOL0     H 5821   1.854   2.206   3.062  1.8634  3.1908 -2.6960
  784MOL0     H 5822   1.794   2.596   2.809  3.5052  1.5407  1.3464
  784MOL0     H 5823   1.734   2.652   2.590 -0.9411 -1.2718  3.1696
  784MOL0     H 5824   1.808   3.593   1.898 -0.5678  1.3842  2.8521
  784MOL0     H 5825   1.640   3.737   1.768  0.0897  0.6371 -4.2337
  784MOL0     H 5826   1.400   4.001   1.571 -1.6565  0.6685  1.4226
  784MOL0     H 5827   1.262   4.082   1.441  0.9711 -1.5879  2.8557
  784MOL0     H 5828   1.106   4.242   1.356  0.9795 -2.0423  0.5511
  784MOL0     H 5829   1.165   4.199   1.197 -4.1676  1.0874 -1.0062
  784MOL0     H 5830   1.123   4.411   1.111  2.5457 -0.2698  1.1011
  784MOL0     H 5831   1.074   4.477   1.267 -2.2669  1.2977 -1.1814
  784MOL0     H 5832   0.880   4.337   1.288  1.7025  3.2511  1.6065
  784MOL0     H 5833   0.912   4.257   1.134 -0.9331  1.7549 -1.3397
  784MOL0     H 5834   0.876   4.552   1.166  1.1097  0.5897 -2.3003
  784MOL0     H 5835   0.892   4.451   1.011  0.5294 -0.2730 -0.3019
  784MOL0     H 5836   0.492   4.371   1.070 -0.8850  2.6192  1.3964
  784MOL0     H 5837   1.493   4.422   1.316 -1.9271 -0.5666 -2.1987
  784MOL0     H 5838   1.788   4.305   1.449 -2.9212 -3.5260 -0.3696
  784MOL0     H 5839   1.713   4.461   1.461  1.4789 -0.0413 -1.1794
  784MOL0     H 5840   1.725   4.384   1.612 -1.6136 -1.2890  0.0356
  785MOL0     O 5841   6.954  11.064   8.880 -0.3886 -0.7085 -0.1052
  785MOL0     C 5842   7.007  10.980   8.943 -0.2479  0.6127  0.3201
  785MOL0     O 5843   6.940  10.881   9.014  0.8294  0.4767 -0.2292
  785MOL0     C 5844   6.804  10.868   8.989 -0.2074  1.0225  0.8681
  785MOL0     C 5845   6.753  10.737   8.981  1.1327  1.4792 -0.3363
  785MOL0     C 5846   6.611  10.727   8.972  0.5842 -0.2737  1.2815
  785MOL0     C 5847   6.533  10.833   8.972  0.2594  0.0737 -0.5500
  785MOL0     O 5848   6.398  10.804   8.943 -0.2478  0.1118 -0.0613
  785MOL0     C 5849   6.294  10.873   9.014  0.4011 -0.3007 -0.2408
  785MOL0     C 5850   6.177  10.776   9.014  0.0314 -0.4012 -0.5018
  785MOL0     C 5851   6.067  10.843   9.092  0.1653 -0.2016 -0.9879
  785MOL0     C 5852   6.084  10.836   9.254  0.0302 -0.0488  0.0935
  785MOL0     C 5853   5.940  10.851   9.321 -0.2481  0.1932 -0.4240
  785MOL0     C 5854   5.940  10.802   9.468 -0.2226  0.3886  0.5414
  785MOL0     C 5855   5.816  10.841   9.545  0.0298 -0.4208 -0.2115
  785MOL0     C 5856   5.680  10.789   9.481  0.2526  0.2583 -0.3029
  785MOL0     N 5857   5.573  10.806   9.575  0.0644  0.3393  0.0165
  785MOL0     C 5858   5.524  10.921   9.622 -0.3272 -0.0790  0.0862
  785MOL0     C 5859   5.422  10.878   9.703  0.2551 -0.0632 -0.3989
  785MOL0     C 5860   5.341  10.971   9.793  0.7611 -0.1017 -0.2098
  785MOL0     C 5861   5.361  10.938   9.939 -0.0977  0.9162  0.4605
  785MOL0     C 5862   5.501  10.985   9.999 -0.5582  0.0848 -0.9364
  785MOL0     C 5863   5.530  11.133   9.977 -0.8399  0.4436  1.0080
  785MOL0     O 5864   5.562  11.160   9.838  0.1136 -0.3209  0.6197
  785MOL0     C 5865   5.693  11.156   9.794 -0.6316  0.2069  0.0682
  785MOL0     C 5866   5.726  11.231   9.678 -0.6254  0.5575 -0.3014
  785MOL0     C 5867   5.859  11.238   9.627  0.8321 -0.4113  0.2803
  785MOL0     C 5868   5.960  11.162   9.678 -0.5267 -0.2770 -0.6609
  785MOL0     C 5869   6.091  11.169   9.630  0.3126 -0.1724  0.5655
  785MOL0     O 5870   6.103  11.251   9.523  0.3603 -0.2171 -0.8153
  785MOL0     C 5871   6.224  11.263   9.472  0.1127  1.1580 -1.5901
  785MOL0     C 5872   6.255  11.184   9.362 -0.6306 -1.6032  0.1103
  785MOL0     C 5873   6.372  11.207   9.299 -0.6212  0.0614  0.8140
  785MOL0     C 5874   6.452  11.310   9.349 -0.7269 -0.5631  0.5356
  785MOL0     O 5875   6.568  11.333   9.283 -0.6239 -0.2462  0.1176
  785MOL0     C 5876   6.657  11.227   9.255  0.8349  0.7927 -0.4429
  785MOL0     C 5877   6.790  11.286   9.203 -0.0946  0.5198  0.4149
  785MOL0     C 5878   6.864  11.374   9.298  0.3609 -0.2657 -0.0668
  785MOL0     C 5879   7.008  11.430   9.261  0.7834  0.1750 -0.5949
  785MOL0     C 5880   7.020  11.543   9.158 -0.2563  0.5470  0.9014
  785MOL0     C 5881   7.150  11.533   9.076 -0.1820 -0.2352 -0.5511
  785MOL0     C 5882   7.153  11.647   8.976  0.9449  1.1241 -0.1616
  785MOL0     C 5883   7.287  11.649   8.895  0.2289 -0.3802 -0.1307
  785MOL0    Cl 5884   7.412  11.732   8.985 -0.3878 -0.2074 -0.2372
  785MOL0     C 5885   6.418  11.390   9.457 -0.2222 -0.4167  0.7177
  785MOL0     C 5886   6.300  11.372   9.520  0.1553  0.4079  0.1403
  785MOL0     O 5887   6.179  11.100   9.675 -0.0749  0.1186 -0.2802
  785MOL0     C 5888   5.930  11.083   9.792 -1.4553  0.8766 -0.3068
  785MOL0     C 5889   5.802  11.073   9.851 -0.0703 -0.3691  0.2979
  785MOL0     N 5890   5.417  10.744   9.707 -0.1787 -0.1370 -0.0117
  785MOL0     N 5891   5.506  10.694   9.631 -0.6054 -0.1800 -0.5424
  785MOL0     C 5892   6.584  10.956   8.991 -0.4606 -0.5361  0.0316
  785MOL0     C 5893   6.718  10.976   8.999 -0.5179 -0.0294  0.1228
  785MOL0     C 5894   7.150  10.977   8.942 -0.5876  0.2481 -0.7123
  785MOL0     C 5895   7.221  11.091   8.919  0.6750  0.3524 -0.9635
  785MOL0     C 5896   7.356  11.096   8.927 -0.2908  0.0192 -1.1939
  785MOL0     C 5897   7.433  10.994   8.974  0.9996  0.6998  0.1389
  785MOL0     O 5898   7.571  11.015   8.982  0.1107  0.1226 -0.2760
  785MOL0     C 5899   7.649  10.911   8.921  0.9407 -0.6584  0.6793
  785MOL0     C 5900   7.793  10.945   8.970  0.0383 -0.9983  0.4626
  785MOL0     C 5901   7.903  10.881   8.882  0.8087  0.3681 -1.7205
  785MOL0     C 5902   8.042  10.883   8.932 -0.4477 -0.0354  1.1906
  785MOL0     C 5903   8.063  10.827   9.060  0.0010  0.6671  0.3116
  785MOL0     C 5904   8.093  10.752   9.150  0.3869 -2.1861 -0.3036
  785MOL0     C 5905   7.368  10.879   9.020 -0.3355  0.9393  0.4267
  785MOL0     C 5906   7.227  10.863   8.989 -0.3756 -0.3762  0.4910
  785MOL0     C 5907   7.169  10.723   9.002  0.1752 -0.5292  0.2220
  785MOL0     H 5908   6.813  10.648   8.966 -2.3112 -0.8383 -1.5623
  785MOL0     H 5909   6.565  10.634   8.941 -0.9930  0.5215  1.1118
  785MOL0     H 5910   6.329  10.904   9.113 -1.4699 -0.1812  0.4180
  785MOL0     H 5911   6.276  10.965   8.956 -1.7288  0.8228  1.9933
  785MOL0     H 5912   6.217  10.682   9.054  0.8048 -0.1638 -0.6991
  785MOL0     H 5913   6.133  10.749   8.918 -0.4877  0.0205 -0.3870
  785MOL0     H 5914   5.978  10.783   9.071  0.2299 -1.9727  2.8823
  785MOL0     H 5915   6.055  10.949   9.069 -1.1603 -0.1682 -0.2454
  785MOL0     H 5916   6.133  10.742   9.284 -1.8259 -0.6365  1.4111
  785MOL0     H 5917   6.152  10.908   9.299 -0.9382  0.9034  0.0464
  785MOL0     H 5918   5.914  10.957   9.312  0.9684  0.4467 -1.0833
  785MOL0     H 5919   5.867  10.799   9.258 -1.4547  3.5793 -2.0941
  785MOL0     H 5920   5.947  10.693   9.482  2.3038  0.7578  3.1638
  785MOL0     H 5921   6.035  10.833   9.512 -1.3033  2.6298  1.4580
  785MOL0     H 5922   5.817  10.950   9.538  2.7706 -0.4639 -4.3885
  785MOL0     H 5923   5.824  10.818   9.651  1.1360  3.0787  0.6097
  785MOL0     H 5924   5.654  10.843   9.389 -3.3569 -3.4720 -1.7733
  785MOL0     H 5925   5.691  10.685   9.450  2.7824  0.7323 -1.2772
  785MOL0     H 5926   5.551  11.024   9.601 -0.3089 -0.2703 -0.8879
  785MOL0     H 5927   5.352  11.079   9.782  1.8023 -0.0207  1.3078
  785MOL0     H 5928   5.236  10.945   9.772 -0.4953  1.0380  3.7585
  785MOL0     H 5929   5.286  10.997   9.992 -1.3940 -0.3630  0.1302
  785MOL0     H 5930   5.343  10.835   9.971 -0.7975  0.8711 -0.0700
  785MOL0     H 5931   5.586  10.922   9.974  1.6501  2.3855  0.3905
  785MOL0     H 5932   5.496  10.955  10.104  1.3618 -0.6621 -1.0318
  785MOL0     H 5933   5.621  11.163  10.030 -0.8528  1.1822  0.6152
  785MOL0     H 5934   5.451  11.196  10.017 -1.9180 -0.5671  0.5420
  785MOL0     H 5935   5.647  11.298   9.645  0.1370  2.0068  0.7258
  785MOL0     H 5936   5.868  11.308   9.545 -0.0510 -0.9466 -0.2862
  785MOL0     H 5937   6.194  11.105   9.320  0.5659 -0.9407 -3.1978
  785MOL0     H 5938   6.393  11.141   9.216  0.5196  0.3848  0.8329
  785MOL0     H 5939   6.666  11.171   9.349 -4.1261 -1.6442 -1.1121
  785MOL0     H 5940   6.619  11.161   9.176  3.4014 -1.8241  0.3019
  785MOL0     H 5941   6.861  11.204   9.184  0.2819  0.8461  0.3914
  785MOL0     H 5942   6.782  11.343   9.110  1.7077  0.8786  0.4426
  785MOL0     H 5943   6.795  11.459   9.305 -2.4516 -1.8843 -4.2179
  785MOL0     H 5944   6.871  11.331   9.398 -3.8717 -0.2304  0.4474
  785MOL0     H 5945   7.065  11.347   9.218  1.3349  0.6585 -0.8111
  785MOL0     H 5946   7.063  11.461   9.350 -1.7745 -1.3194  1.6619
  785MOL0     H 5947   7.002  11.641   9.202  0.8883  0.4429  1.6332
  785MOL0     H 5948   6.941  11.529   9.083  1.6671 -1.6551 -0.8473
  785MOL0     H 5949   7.230  11.547   9.149 -0.4994 -2.3564  0.2768
  785MOL0     H 5950   7.179  11.436   9.036  0.0959 -0.7674  0.9199
  785MOL0     H 5951   7.139  11.749   9.015  3.2859  2.4480 -2.4268
  785MOL0     H 5952   7.073  11.634   8.902 -0.7683  1.5934  1.5298
  785MOL0     H 5953   7.310  11.547   8.865 -2.6039 -0.2742 -3.1840
  785MOL0     H 5954   7.270  11.699   8.800  0.4421 -1.8021 -0.9336
  785MOL0     H 5955   6.495  11.457   9.493  0.6183 -1.0663  0.1642
  785MOL0     H 5956   6.259  11.430   9.602  0.7844  1.2218 -0.1097
  785MOL0     H 5957   6.006  11.015   9.827 -1.9512 -1.7936 -3.8623
  785MOL0     H 5958   5.776  11.009   9.935 -5.4194 -1.5032 -1.7661
  785MOL0     H 5959   6.512  11.038   8.989 -0.0313 -0.1611 -1.4939
  785MOL0     H 5960   6.759  11.075   9.017  1.2082 -0.7394  0.3103
  785MOL0     H 5961   7.172  11.187   8.904 -0.3756  0.0462  0.3348
  785MOL0     H 5962   7.412  11.188   8.920  1.0527 -0.6814 -0.1638
  785MOL0     H 5963   7.637  10.911   8.812 -2.4236  0.7553  0.9323
  785MOL0     H 5964   7.632  10.810   8.959 -1.1725 -0.4620  0.3888
  785MOL0     H 5965   7.802  10.924   9.077 -2.1142  1.0924  1.1532
  785MOL0     H 5966   7.795  11.053   8.957 -0.5532 -0.7812  1.9810
  785MOL0     H 5967   7.901  10.933   8.786  1.4247  2.6883 -0.5542
  785MOL0     H 5968   7.877  10.776   8.869 -0.7843  0.4415  0.3420
  785MOL0     H 5969   8.100  10.835   8.852 -3.2089 -1.0338 -0.3315
  785MOL0     H 5970   8.075  10.987   8.938 -0.7114  0.4738 -3.0380
  785MOL0     H 5971   8.105  10.683   9.231 -3.0503 -3.6925 -0.9083
  785MOL0     H 5972   7.426  10.795   9.058  1.9266  2.2138  0.0077
  785MOL0     H 5973   7.109  10.712   9.093 -1.8835 -1.4813 -1.1689
  785MOL0     H 5974   7.096  10.697   8.925 -0.1561  2.1635 -0.4796
  785MOL0     H 5975   7.252  10.652   9.001  1.4923  0.9593 -0.4663
  786MOL0     O 5976   6.763   5.507   8.558  0.4021 -0.1870 -0.0435
  786MOL0     C 5977   6.828   5.567   8.468 -0.7998  0.1735 -0.6810
  786MOL0     O 5978   6.934   5.520   8.398  0.5670 -0.3092  0.1062
  786MOL0     C 5979   6.986   5.395   8.419 -0.3569  0.0227 -0.2689
  786MOL0     C 5980   6.923   5.277   8.456 -0.5233 -0.2704  1.0160
  786MOL0     C 5981   6.990   5.153   8.477  0.1330 -0.8314  0.4950
  786MOL0     C 5982   7.126   5.149   8.462  0.5966  0.2121  0.1928
  786MOL0     O 5983   7.161   5.016   8.472 -0.4807  0.4236 -0.0696
  786MOL0     C 5984   7.304   4.989   8.492  0.3132 -0.1504  0.2898
  786MOL0     C 5985   7.327   4.859   8.568  0.6615  0.0425 -0.1955
  786MOL0     C 5986   7.279   4.721   8.505 -0.2216  0.2997  0.4836
  786MOL0     C 5987   7.295   4.583   8.583 -0.0741  0.9391  0.5657
  786MOL0     C 5988   7.220   4.462   8.519 -0.0758  0.5563  0.1947
  786MOL0     C 5989   7.264   4.431   8.375 -0.1332 -0.4918 -0.1322
  786MOL0     C 5990   7.167   4.328   8.312 -0.4598  0.3374 -0.7366
  786MOL0     C 5991   7.024   4.371   8.299 -0.8006 -0.0083 -0.4246
  786MOL0     N 5992   6.927   4.281   8.239  0.2599  0.1540 -0.1928
  786MOL0     C 5993   6.873   4.312   8.113 -0.5573  0.7028 -0.1677
  786MOL0     C 5994   6.757   4.243   8.111  0.0441  0.1908 -0.0716
  786MOL0     C 5995   6.655   4.254   8.004  0.5563 -0.1842 -1.1070
  786MOL0     C 5996   6.672   4.170   7.877 -0.9171 -0.9776 -0.6257
  786MOL0     C 5997   6.700   4.260   7.756 -0.4973  0.0845 -0.3292
  786MOL0     C 5998   6.642   4.212   7.623 -0.1313 -0.3235  0.3767
  786MOL0     O 5999   6.676   4.303   7.525  0.3841 -0.0399  0.8782
  786MOL0     C 6000   6.594   4.323   7.412  0.4213  0.8595 -0.0559
  786MOL0     C 6001   6.500   4.238   7.363  0.2893 -0.0257 -0.1306
  786MOL0     C 6002   6.423   4.266   7.254  0.0629 -0.8960 -0.9016
  786MOL0     C 6003   6.425   4.395   7.195  0.8888 -0.5193  0.5753
  786MOL0     C 6004   6.351   4.426   7.075 -0.4359 -0.1289 -0.2838
  786MOL0     O 6005   6.412   4.527   6.998 -0.7574  0.3808  0.6530
  786MOL0     C 6006   6.373   4.560   6.875  0.3943 -0.8468  0.3170
  786MOL0     C 6007   6.264   4.639   6.850 -0.7452 -0.7502 -0.5067
  786MOL0     C 6008   6.238   4.684   6.717  0.8115  1.0819  0.0311
  786MOL0     C 6009   6.306   4.635   6.613  0.2670 -0.1919  1.1966
  786MOL0     O 6010   6.265   4.666   6.479 -1.0180  0.1764 -0.4420
  786MOL0     C 6011   6.340   4.608   6.370 -1.0780 -0.5788 -0.4351
  786MOL0     C 6012   6.273   4.638   6.236 -0.4948 -0.5447  0.1146
  786MOL0     C 6013   6.355   4.612   6.108 -0.7162  0.2125 -0.3232
  786MOL0     C 6014   6.271   4.638   5.993 -0.7268  0.1651  1.5008
  786MOL0     C 6015   6.346   4.660   5.864 -0.5278  0.5775 -0.0577
  786MOL0     C 6016   6.416   4.531   5.814  0.5222 -0.2729  0.5395
  786MOL0     C 6017   6.525   4.572   5.717 -0.0989 -0.1323  0.1484
  786MOL0     C 6018   6.611   4.451   5.667  0.0343 -0.1909 -0.5043
  786MOL0    Cl 6019   6.734   4.502   5.564 -0.2565  0.2181  0.0358
  786MOL0     C 6020   6.419   4.558   6.636  1.2309  0.0490  0.2423
  786MOL0     C 6021   6.457   4.524   6.771  0.2532  0.7451  0.5295
  786MOL0     O 6022   6.239   4.378   7.057 -0.5288 -0.0962  0.3815
  786MOL0     C 6023   6.515   4.487   7.249 -0.7470 -0.0250  0.6275
  786MOL0     C 6024   6.600   4.444   7.353 -0.7802  0.2468  0.1964
  786MOL0     N 6025   6.745   4.177   8.232  0.1354 -0.0707 -0.5843
  786MOL0     N 6026   6.844   4.201   8.305  0.5483 -0.3496 -0.2202
  786MOL0     C 6027   7.192   5.266   8.417 -0.0939  0.0109 -0.3994
  786MOL0     C 6028   7.128   5.388   8.404  0.2159 -1.2105 -0.3093
  786MOL0     C 6029   6.771   5.702   8.439 -0.3457 -0.2375  0.3536
  786MOL0     C 6030   6.722   5.791   8.541 -0.5033  0.7544  0.0800
  786MOL0     C 6031   6.699   5.925   8.525 -0.7767  0.0220 -0.7781
  786MOL0     C 6032   6.702   5.982   8.401  0.4562 -0.6383  0.3890
  786MOL0     O 6033   6.665   6.114   8.393 -0.7277  0.2617  0.0534
  786MOL0     C 6034   6.703   6.196   8.278  0.7376  0.3450 -0.7401
  786MOL0     C 6035   6.635   6.320   8.321 -0.1856 -0.3931 -1.3197
  786MOL0     C 6036   6.680   6.434   8.231 -0.0768 -0.7757 -0.4705
  786MOL0     C 6037   6.600   6.567   8.261  0.2171 -0.1333  0.6798
  786MOL0     C 6038   6.655   6.642   8.370  0.3261 -0.0209 -0.0502
  786MOL0     C 6039   6.698   6.706   8.465  0.0803 -0.1470  0.5883
  786MOL0     C 6040   6.743   5.900   8.291 -0.3448 -0.6249  0.4896
  786MOL0     C 6041   6.773   5.765   8.310 -0.2647 -0.5242 -0.2125
  786MOL0     C 6042   6.800   5.687   8.181 -0.7224  0.2555 -0.1685
  786MOL0     H 6043   6.816   5.288   8.463 -0.6158 -0.1527 -0.2936
  786MOL0     H 6044   6.934   5.062   8.499 -0.5357 -1.3428 -2.8498
  786MOL0     H 6045   7.348   4.969   8.394 -1.1950 -3.0819  0.0956
  786MOL0     H 6046   7.346   5.077   8.542 -0.5883  1.8519 -2.2673
  786MOL0     H 6047   7.289   4.867   8.670  1.3462  0.2685  0.0470
  786MOL0     H 6048   7.436   4.859   8.574  1.0304  4.8191 -2.1621
  786MOL0     H 6049   7.343   4.714   8.417  0.5735 -2.1909  1.1814
  786MOL0     H 6050   7.174   4.717   8.476  0.1609  0.9657 -1.0781
  786MOL0     H 6051   7.403   4.570   8.593  0.0690  2.8473  1.9479
  786MOL0     H 6052   7.255   4.596   8.684 -0.9537  0.0069  0.3488
  786MOL0     H 6053   7.226   4.379   8.590 -1.3672  0.5876  0.3780
  786MOL0     H 6054   7.113   4.485   8.519  0.0380  1.1342  0.9425
  786MOL0     H 6055   7.263   4.520   8.310 -1.1860 -1.6344 -1.7542
  786MOL0     H 6056   7.365   4.388   8.378  0.4469  0.7869  3.7056
  786MOL0     H 6057   7.164   4.240   8.377 -0.4879  2.4984  2.4060
  786MOL0     H 6058   7.211   4.284   8.222  0.3527 -0.7046  0.1410
  786MOL0     H 6059   6.974   4.383   8.396 -3.1087 -0.6955 -1.4653
  786MOL0     H 6060   7.027   4.466   8.245 -0.3605 -0.7508 -1.7263
  786MOL0     H 6061   6.899   4.387   8.039  2.3450  1.5603  1.5624
  786MOL0     H 6062   6.562   4.214   8.045  2.0074 -1.5482  1.1182
  786MOL0     H 6063   6.640   4.360   7.986 -0.8059 -0.0846  0.4371
  786MOL0     H 6064   6.752   4.096   7.891 -0.0022  0.0961  0.0475
  786MOL0     H 6065   6.574   4.128   7.855 -0.3879 -1.8678 -1.3887
  786MOL0     H 6066   6.810   4.259   7.754 -0.4486 -1.9822  0.9626
  786MOL0     H 6067   6.657   4.359   7.770 -2.0367 -0.6524  0.3048
  786MOL0     H 6068   6.533   4.204   7.619 -0.1583  0.5380 -1.5162
  786MOL0     H 6069   6.682   4.114   7.595 -1.7859 -0.7105 -0.8007
  786MOL0     H 6070   6.493   4.138   7.407  1.9605 -0.8566 -1.6307
  786MOL0     H 6071   6.355   4.187   7.220  1.5097 -2.4707 -0.2762
  786MOL0     H 6072   6.206   4.680   6.933  0.2066  3.2405 -1.5634
  786MOL0     H 6073   6.147   4.739   6.693 -0.7597 -2.5044 -3.4761
  786MOL0     H 6074   6.438   4.657   6.377 -0.2510 -2.1616 -0.4639
  786MOL0     H 6075   6.352   4.500   6.377  1.4167 -0.6901 -3.8042
  786MOL0     H 6076   6.181   4.579   6.236 -1.6932  1.1263 -2.5836
  786MOL0     H 6077   6.237   4.742   6.236  1.0071  0.0173 -1.7328
  786MOL0     H 6078   6.436   4.685   6.106  0.2852 -0.8186  0.9967
  786MOL0     H 6079   6.378   4.505   6.107 -2.9870 -0.3297 -0.6787
  786MOL0     H 6080   6.222   4.734   6.013  0.0743  1.6522 -2.6514
  786MOL0     H 6081   6.197   4.557   5.987 -0.1696 -0.2708 -2.6082
  786MOL0     H 6082   6.412   4.747   5.868  1.8554 -1.0774 -0.9135
  786MOL0     H 6083   6.277   4.683   5.783  0.9375  3.4064 -0.6178
  786MOL0     H 6084   6.475   4.477   5.889  2.9912  1.6984  0.1844
  786MOL0     H 6085   6.340   4.467   5.770  1.7590 -1.1798 -0.3218
  786MOL0     H 6086   6.589   4.642   5.772 -1.4939  2.9384 -1.8530
  786MOL0     H 6087   6.486   4.627   5.631 -1.1853  0.2233  0.8467
  786MOL0     H 6088   6.661   4.395   5.747 -3.4271 -1.6253  0.8823
  786MOL0     H 6089   6.549   4.373   5.622  0.2451 -0.0794 -0.9856
  786MOL0     H 6090   6.474   4.507   6.557 -0.5671  1.9328 -2.3945
  786MOL0     H 6091   6.552   4.474   6.788 -1.6021 -2.4653  2.3438
  786MOL0     H 6092   6.545   4.582   7.206  2.4891  0.0004  2.6064
  786MOL0     H 6093   6.667   4.515   7.400 -1.4916  0.2941  1.1908
  786MOL0     H 6094   7.300   5.259   8.406 -0.1960 -1.4972 -0.6875
  786MOL0     H 6095   7.168   5.488   8.388 -0.7774 -0.8935 -0.8992
  786MOL0     H 6096   6.727   5.738   8.636 -0.8753  0.5785  0.0050
  786MOL0     H 6097   6.680   5.985   8.614  0.1528 -2.0986  0.9483
  786MOL0     H 6098   6.668   6.157   8.182  0.6795 -0.7913 -0.2765
  786MOL0     H 6099   6.811   6.210   8.271  0.9151  0.3420  1.2086
  786MOL0     H 6100   6.656   6.353   8.423 -3.4880  2.1185 -1.2755
  786MOL0     H 6101   6.525   6.313   8.319 -0.6571  3.4253  1.1940
  786MOL0     H 6102   6.665   6.406   8.127 -1.1379 -2.7790  0.1629
  786MOL0     H 6103   6.785   6.460   8.243  0.1684 -0.7157 -2.4565
  786MOL0     H 6104   6.606   6.620   8.165 -1.9434 -3.6201 -1.6149
  786MOL0     H 6105   6.497   6.536   8.282 -0.5148  1.0714 -0.9146
  786MOL0     H 6106   6.736   6.772   8.539  0.0346  0.0143  0.4694
  786MOL0     H 6107   6.756   5.941   8.191  0.6640 -2.5948 -0.2545
  786MOL0     H 6108   6.905   5.665   8.159 -0.4880  1.6354 -0.4862
  786MOL0     H 6109   6.752   5.590   8.195 -0.1787  0.2197  1.7406
  786MOL0     H 6110   6.755   5.743   8.099 -0.2117 -0.7412 -1.1652
  787MOL0     O 6111  11.183  10.218   4.279  0.0909 -0.0244 -0.9036
  787MOL0     C 6112  11.064  10.204   4.240 -0.3840  0.7765 -0.8094
  787MOL0     O 6113  10.982  10.099   4.271 -0.5500  0.2651 -0.0227
  787MOL0     C 6114  11.042   9.975   4.312 -0.0325  0.1880 -0.6397
  787MOL0     C 6115  10.961   9.891   4.390  0.0412  0.0412 -0.2842
  787MOL0     C 6116  10.995   9.760   4.391 -0.3617  0.3848  1.0601
  787MOL0     C 6117  11.109   9.704   4.345 -0.2205 -0.0573 -1.3127
  787MOL0     O 6118  11.124   9.561   4.354  0.4019 -0.5157  0.8868
  787MOL0     C 6119  11.190   9.523   4.473  0.2876 -0.5428  0.1844
  787MOL0     C 6120  11.212   9.372   4.498  0.1858 -0.4642  1.2400
  787MOL0     C 6121  11.073   9.314   4.512  0.1597  0.4408 -0.2777
  787MOL0     C 6122  11.081   9.166   4.545  0.4096 -0.5011 -0.2850
  787MOL0     C 6123  11.027   9.143   4.686 -0.5860  0.2112  0.2532
  787MOL0     C 6124  10.871   9.117   4.676  0.4858 -0.5714  0.7809
  787MOL0     C 6125  10.843   8.973   4.643 -0.2535  0.0688 -0.9733
  787MOL0     C 6126  10.700   8.958   4.589  1.2979 -0.2078  0.1398
  787MOL0     N 6127  10.676   8.827   4.535  0.5504  0.6845 -0.1951
  787MOL0     C 6128  10.652   8.701   4.589 -0.0494 -0.2534 -0.6441
  787MOL0     C 6129  10.639   8.617   4.484 -0.0236  0.6370 -0.5823
  787MOL0     C 6130  10.618   8.468   4.485  0.7022  0.4860 -0.2696
  787MOL0     C 6131  10.469   8.432   4.444 -0.4852 -0.5297 -0.0350
  787MOL0     C 6132  10.441   8.285   4.448 -0.6484 -0.3861 -0.0149
  787MOL0     C 6133  10.542   8.193   4.376 -0.4088  0.2495  0.3723
  787MOL0     O 6134  10.492   8.056   4.380  0.3419  0.3848  1.0406
  787MOL0     C 6135  10.464   8.005   4.255 -0.5207  1.1099  0.2739
  787MOL0     C 6136  10.413   8.061   4.141 -0.7269 -0.2142  0.4825
  787MOL0     C 6137  10.372   7.978   4.033 -0.2766 -0.5281  0.2082
  787MOL0     C 6138  10.393   7.834   4.045  0.0134 -0.0276 -1.3223
  787MOL0     C 6139  10.364   7.735   3.942  0.2248 -0.5171  0.8353
  787MOL0     O 6140  10.285   7.778   3.837  1.0540  0.0205 -0.3231
  787MOL0     C 6141  10.232   7.699   3.733 -0.3170  0.1713  0.1583
  787MOL0     C 6142  10.121   7.609   3.757 -0.4991  0.2869 -0.1290
  787MOL0     C 6143  10.068   7.531   3.655 -0.0765 -0.3060  0.6488
  787MOL0     C 6144  10.131   7.536   3.532  0.0762 -0.5847 -0.1870
  787MOL0     O 6145  10.075   7.459   3.436  0.4719  0.8248  0.1013
  787MOL0     C 6146  10.103   7.457   3.299  1.2042  0.5100 -1.1805
  787MOL0     C 6147  10.030   7.578   3.232  0.4013  1.3576 -0.5131
  787MOL0     C 6148   9.878   7.533   3.225 -0.9854  1.1603  1.2302
  787MOL0     C 6149   9.793   7.638   3.148 -1.4023 -0.2819  0.2865
  787MOL0     C 6150   9.654   7.581   3.159 -0.4539 -0.2372  0.3907
  787MOL0     C 6151   9.548   7.693   3.144 -0.4029  0.2598  0.2666
  787MOL0     C 6152   9.536   7.809   3.259  0.0411 -0.0191  0.6292
  787MOL0     C 6153   9.439   7.925   3.227 -0.6609  0.9356  0.4872
  787MOL0    Cl 6154   9.433   8.046   3.359 -0.1097  0.2527 -0.1749
  787MOL0     C 6155  10.232   7.621   3.501 -1.2552  0.7515 -0.5248
  787MOL0     C 6156  10.289   7.702   3.600 -0.1908  0.4139 -0.1597
  787MOL0     O 6157  10.435   7.630   3.939  0.0732  0.1618  0.2851
  787MOL0     C 6158  10.441   7.774   4.168  0.6317 -0.2925 -0.6802
  787MOL0     C 6159  10.477   7.866   4.266 -1.1108 -0.6553 -1.5778
  787MOL0     N 6160  10.654   8.687   4.364 -0.6340 -0.1540 -0.6957
  787MOL0     N 6161  10.689   8.811   4.398  0.0967 -0.2649  0.2532
  787MOL0     C 6162  11.193   9.788   4.278 -0.3282  0.4847 -0.1821
  787MOL0     C 6163  11.160   9.918   4.252  1.2187 -0.0462 -0.2202
  787MOL0     C 6164  11.002  10.324   4.178 -0.1125  1.0661  0.1248
  787MOL0     C 6165  11.026  10.451   4.229 -0.8545  0.0753  0.1115
  787MOL0     C 6166  10.957  10.564   4.197 -0.0768  0.3838  0.5823
  787MOL0     C 6167  10.854  10.556   4.105 -0.3486  1.8329 -0.5825
  787MOL0     O 6168  10.786  10.670   4.071  0.3016  0.3414  0.0907
  787MOL0     C 6169  10.652  10.672   4.115  0.0368  0.1607 -0.9481
  787MOL0     C 6170  10.560  10.728   4.021  0.4760 -0.4654  1.0984
  787MOL0     C 6171  10.586  10.878   4.009  0.6068 -0.1085 -0.0055
  787MOL0     C 6172  10.471  10.945   3.934  0.1076 -0.2648 -0.5036
  787MOL0     C 6173  10.481  11.092   3.951  0.3410  0.6043  0.3855
  787MOL0     C 6174  10.478  11.208   3.979 -0.9230  0.6087  0.3952
  787MOL0     C 6175  10.816  10.424   4.059 -0.4467 -0.5276 -0.3290
  787MOL0     C 6176  10.890  10.311   4.086 -0.2167 -0.0128  0.1740
  787MOL0     C 6177  10.850  10.185   4.011  1.3867  1.7893 -0.5677
  787MOL0     H 6178  10.866   9.924   4.431 -0.1102 -0.6768 -0.0444
  787MOL0     H 6179  10.925   9.695   4.442 -1.5844  1.8914  1.3884
  787MOL0     H 6180  11.288   9.570   4.485 -0.2994  0.2697  2.1418
  787MOL0     H 6181  11.122   9.560   4.550  1.8824  1.0431  0.9029
  787MOL0     H 6182  11.274   9.367   4.589  0.0045 -0.5792  1.3569
  787MOL0     H 6183  11.279   9.327   4.425  0.5942  0.4896  1.0059
  787MOL0     H 6184  11.020   9.322   4.416  1.4736  1.2917 -0.9649
  787MOL0     H 6185  11.015   9.372   4.584 -2.4503  0.7072 -2.4405
  787MOL0     H 6186  11.016   9.117   4.472  0.3288 -0.7412 -0.0528
  787MOL0     H 6187  11.180   9.125   4.524  0.3033 -1.2077  0.5641
  787MOL0     H 6188  11.064   9.053   4.736  0.9502  0.4875 -0.3346
  787MOL0     H 6189  11.066   9.224   4.749  3.2498  0.3474 -1.9823
  787MOL0     H 6190  10.823   9.139   4.772  2.3830 -0.3951  1.7318
  787MOL0     H 6191  10.837   9.182   4.594  0.0972  0.6963  1.9121
  787MOL0     H 6192  10.858   8.912   4.732  0.7915 -1.8743 -2.4022
  787MOL0     H 6193  10.910   8.934   4.565  0.2219  0.4743 -0.7676
  787MOL0     H 6194  10.630   8.991   4.667 -0.6065  0.7921 -1.8956
  787MOL0     H 6195  10.681   9.040   4.519  0.1981 -1.0591 -0.5843
  787MOL0     H 6196  10.632   8.661   4.688 -4.6179 -0.0342 -1.2576
  787MOL0     H 6197  10.680   8.414   4.413  0.2095 -1.6575  0.8056
  787MOL0     H 6198  10.629   8.425   4.585  2.5481  2.1007  0.2920
  787MOL0     H 6199  10.396   8.482   4.508  2.4486  2.3523  1.3736
  787MOL0     H 6200  10.443   8.457   4.341  0.7452  1.7503  0.1228
  787MOL0     H 6201  10.344   8.269   4.400 -1.8723 -0.3391  2.3304
  787MOL0     H 6202  10.430   8.240   4.547  1.4177 -2.6401 -0.6903
  787MOL0     H 6203  10.641   8.190   4.421 -0.1345  3.1937  0.1805
  787MOL0     H 6204  10.563   8.224   4.273  2.6089 -2.0796  0.1345
  787MOL0     H 6205  10.399   8.169   4.140 -0.6744 -0.2110 -0.7219
  787MOL0     H 6206  10.345   8.017   3.935 -0.5376 -1.7905 -0.2393
  787MOL0     H 6207  10.071   7.619   3.854  0.9986 -1.5781  0.9192
  787MOL0     H 6208   9.987   7.461   3.671  2.6155 -3.3303  2.2950
  787MOL0     H 6209  10.210   7.452   3.275  1.1053  0.7330 -1.6989
  787MOL0     H 6210  10.053   7.368   3.259 -0.1799  1.7170 -2.2690
  787MOL0     H 6211  10.048   7.665   3.296  2.5138  0.0409  0.8343
  787MOL0     H 6212  10.065   7.591   3.129 -1.2228 -2.3804 -1.7291
  787MOL0     H 6213   9.879   7.453   3.150  3.0030  1.9465  0.2074
  787MOL0     H 6214   9.846   7.511   3.327 -1.6258 -0.1734  0.7637
  787MOL0     H 6215   9.819   7.653   3.043 -4.3803  1.3800 -0.3177
  787MOL0     H 6216   9.807   7.736   3.195  1.1114 -1.7685  3.0491
  787MOL0     H 6217   9.627   7.539   3.256 -0.4612  0.0980  0.5337
  787MOL0     H 6218   9.644   7.496   3.090 -1.0910 -0.6708  1.0113
  787MOL0     H 6219   9.565   7.745   3.050 -0.3878  0.1967  0.2341
  787MOL0     H 6220   9.446   7.654   3.146 -1.1349  2.1368  1.0540
  787MOL0     H 6221   9.639   7.843   3.276  0.6391 -1.9911  1.1996
  787MOL0     H 6222   9.512   7.751   3.348 -2.2394 -3.2139 -1.8133
  787MOL0     H 6223   9.472   7.974   3.135  1.4037  0.1544  0.7483
  787MOL0     H 6224   9.341   7.879   3.209  0.0179  0.3969 -2.2824
  787MOL0     H 6225  10.275   7.629   3.402  3.3238 -0.7380  1.0672
  787MOL0     H 6226  10.365   7.777   3.581  1.8595 -1.5989 -0.3197
  787MOL0     H 6227  10.452   7.668   4.185  0.1728 -0.0610  1.2197
  787MOL0     H 6228  10.501   7.833   4.367 -0.1551 -0.2044 -1.6453
  787MOL0     H 6229  11.270   9.738   4.220 -0.4197  2.0626 -1.7387
  787MOL0     H 6230  11.224   9.976   4.187  3.3874 -0.8626  1.0909
  787MOL0     H 6231  11.101  10.458   4.308 -1.4393 -0.9419  0.7802
  787MOL0     H 6232  10.972  10.658   4.250 -0.3991  0.8354 -0.1169
  787MOL0     H 6233  10.653  10.731   4.208 -1.2528  1.5516 -1.7695
  787MOL0     H 6234  10.619  10.571   4.140  0.4543  0.7715  2.7158
  787MOL0     H 6235  10.461  10.699   4.056  0.4554 -0.0887  1.3515
  787MOL0     H 6236  10.569  10.692   3.918 -1.7600 -1.3899  1.1762
  787MOL0     H 6237  10.673  10.881   3.943  0.8232 -1.2562  0.2094
  787MOL0     H 6238  10.596  10.932   4.104 -0.9557  1.9050 -0.8907
  787MOL0     H 6239  10.454  10.930   3.827 -1.5300  0.3669 -0.3651
  787MOL0     H 6240  10.376  10.921   3.984  1.8151 -1.3379  2.4805
  787MOL0     H 6241  10.472  11.313   3.993 -1.1577  0.5014  1.1302
  787MOL0     H 6242  10.736  10.423   3.985  0.2075 -3.1065 -1.1485
  787MOL0     H 6243  10.907  10.159   3.922  1.9719  0.1096  0.2517
  787MOL0     H 6244  10.846  10.108   4.089  1.7230  2.0989 -0.2380
  787MOL0     H 6245  10.747  10.212   3.984  0.0999 -2.6407 -0.8749
  788MOL0     O 6246   4.761  11.441   4.348  0.2596  0.3555  0.1286
  788MOL0     C 6247   4.713  11.345   4.283 -1.0528  0.0261 -0.6348
  788MOL0     O 6248   4.785  11.256   4.213  0.3742  0.1572  0.0133
  788MOL0     C 6249   4.895  11.311   4.151  0.2617  0.7796 -1.3501
  788MOL0     C 6250   4.877  11.365   4.021 -0.4844  0.5364  0.3767
  788MOL0     C 6251   4.986  11.422   3.948  0.0174 -0.2699  0.0501
  788MOL0     C 6252   5.110  11.423   4.008  0.5407  0.1268 -0.3591
  788MOL0     O 6253   5.223  11.470   3.945  0.1146  0.4200 -0.0630
  788MOL0     C 6254   5.306  11.363   3.896  0.1817 -0.1838  0.4170
  788MOL0     C 6255   5.447  11.433   3.859  0.1529  1.0359  0.0258
  788MOL0     C 6256   5.539  11.321   3.810  0.4030 -0.1939  0.8965
  788MOL0     C 6257   5.545  11.313   3.652 -0.0516 -0.2464 -0.4726
  788MOL0     C 6258   5.593  11.174   3.610 -0.9023 -0.2475 -0.1065
  788MOL0     C 6259   5.588  11.163   3.460 -0.4486 -0.3699  0.5524
  788MOL0     C 6260   5.666  11.034   3.406  0.1773 -1.1881 -0.8110
  788MOL0     C 6261   5.659  11.027   3.250 -0.5961 -0.7937 -0.3301
  788MOL0     N 6262   5.780  11.095   3.189  0.4331  0.4891  0.0422
  788MOL0     C 6263   5.829  11.222   3.218 -0.4903 -0.7771  0.5977
  788MOL0     C 6264   5.932  11.235   3.123 -0.0467 -0.3128 -1.5735
  788MOL0     C 6265   6.027  11.360   3.106  0.5494 -0.3606  0.5873
  788MOL0     C 6266   6.098  11.420   3.225 -1.1793  0.5290  1.1499
  788MOL0     C 6267   6.216  11.504   3.181 -0.2524  0.3147 -0.9340
  788MOL0     C 6268   6.198  11.629   3.095 -0.3872 -0.4137  0.9549
  788MOL0     O 6269   6.109  11.723   3.154  0.1071  0.3929  0.4408
  788MOL0     C 6270   6.103  11.847   3.111  0.0278 -0.7157  0.6900
  788MOL0     C 6271   6.022  11.948   3.175  0.0304 -0.1953  0.3978
  788MOL0     C 6272   6.018  12.082   3.134  0.7673  0.2052 -0.4979
  788MOL0     C 6273   6.084  12.119   3.014  0.9470 -0.4599 -0.7772
  788MOL0     C 6274   6.072  12.263   2.967  0.1585  0.0357 -1.5021
  788MOL0     O 6275   6.144  12.312   2.859 -0.6983  0.0311 -0.1738
  788MOL0     C 6276   6.140  12.442   2.823 -0.1933 -0.6855 -0.1388
  788MOL0     C 6277   6.127  12.469   2.681  0.7401 -0.6920 -1.1874
  788MOL0     C 6278   6.129  12.607   2.634 -0.0886 -0.4689 -0.6085
  788MOL0     C 6279   6.169  12.705   2.717  0.5515  0.2558 -1.2099
  788MOL0     O 6280   6.161  12.831   2.669  0.5698 -0.4355 -0.3838
  788MOL0     C 6281   6.188  12.951   2.744 -0.0536 -1.3815 -0.0147
  788MOL0     C 6282   6.058  12.991   2.815 -0.2162  0.2314 -0.0796
  788MOL0     C 6283   5.925  13.021   2.720 -0.2450  0.0866  0.1306
  788MOL0     C 6284   5.861  12.893   2.643 -0.5362 -0.0810 -0.3659
  788MOL0     C 6285   5.739  12.927   2.565  0.9074  0.0860  1.1357
  788MOL0     C 6286   5.699  12.786   2.510  1.1299  0.5476 -0.1614
  788MOL0     C 6287   5.594  12.793   2.392  0.2052 -0.7345  0.3569
  788MOL0     C 6288   5.452  12.822   2.453  0.8932 -0.8708  0.5891
  788MOL0    Cl 6289   5.415  12.712   2.589 -0.0533 -0.8270 -0.1207
  788MOL0     C 6290   6.172  12.677   2.857 -0.4771 -0.1361 -0.1653
  788MOL0     C 6291   6.162  12.545   2.906 -0.3095  0.0420  0.0215
  788MOL0     O 6292   6.002  12.326   3.038  0.0242  0.1340 -0.6495
  788MOL0     C 6293   6.161  12.027   2.954  0.0760 -0.2198 -0.4514
  788MOL0     C 6294   6.174  11.892   2.999 -0.7748 -0.0737  0.5300
  788MOL0     N 6295   5.930  11.129   3.040  1.1774 -0.2004  0.3592
  788MOL0     N 6296   5.835  11.047   3.078 -0.0117 -0.4417  0.9806
  788MOL0     C 6297   5.132  11.374   4.143 -0.0041  0.0632  0.9844
  788MOL0     C 6298   5.024  11.323   4.213  0.3742  1.5985  0.8868
  788MOL0     C 6299   4.575  11.317   4.294 -0.2412  0.7466  0.0102
  788MOL0     C 6300   4.540  11.181   4.320 -0.1291  0.0799  0.2733
  788MOL0     C 6301   4.407  11.142   4.323  0.1002 -0.1881 -0.7387
  788MOL0     C 6302   4.307  11.238   4.329  0.3463 -0.0607  0.1061
  788MOL0     O 6303   4.183  11.190   4.368 -1.0228  0.9480 -0.1810
  788MOL0     C 6304   4.100  11.152   4.256  0.3302 -0.4486  0.9286
  788MOL0     C 6305   3.985  11.080   4.308 -0.0786  0.7762  0.1916
  788MOL0     C 6306   4.014  10.925   4.337  0.9082 -0.1803 -0.8702
  788MOL0     C 6307   4.033  10.911   4.487 -0.9979 -0.1123 -0.2082
  788MOL0     C 6308   4.125  10.796   4.515 -0.4496  0.2019 -0.1012
  788MOL0     C 6309   4.215  10.720   4.534  0.4545 -0.3721 -0.5512
  788MOL0     C 6310   4.335  11.379   4.309  0.2816 -0.0266  0.1398
  788MOL0     C 6311   4.468  11.415   4.283 -0.4315 -1.1076  0.8836
  788MOL0     C 6312   4.491  11.562   4.245 -0.8772  0.3251  0.8649
  788MOL0     H 6313   4.777  11.349   3.984 -0.1441 -1.9045  0.3359
  788MOL0     H 6314   4.984  11.455   3.845  4.3230 -1.8160 -0.7464
  788MOL0     H 6315   5.319  11.281   3.967  0.1105 -1.6700 -1.2346
  788MOL0     H 6316   5.251  11.318   3.813 -0.3080  0.6731  0.2562
  788MOL0     H 6317   5.483  11.487   3.947 -2.3180  0.2317  1.6276
  788MOL0     H 6318   5.428  11.509   3.783 -2.0375  0.3583 -0.1851
  788MOL0     H 6319   5.519  11.229   3.866  2.6637 -1.9224 -0.9773
  788MOL0     H 6320   5.638  11.348   3.848  0.5508 -0.5158  0.7432
  788MOL0     H 6321   5.451  11.330   3.599 -1.4939  0.9059  2.2003
  788MOL0     H 6322   5.612  11.392   3.617  0.8817 -0.9483 -0.2903
  788MOL0     H 6323   5.699  11.178   3.636 -1.2939 -0.6706  1.7026
  788MOL0     H 6324   5.535  11.089   3.650 -0.8069 -1.7721 -2.9460
  788MOL0     H 6325   5.482  11.149   3.442 -0.5813  1.6631 -0.4578
  788MOL0     H 6326   5.618  11.258   3.415 -2.3875  0.2339  0.4494
  788MOL0     H 6327   5.600  10.956   3.446 -4.3116  2.1209 -1.0476
  788MOL0     H 6328   5.770  11.028   3.438  0.8877 -0.4663 -2.8468
  788MOL0     H 6329   5.641  10.926   3.212 -1.2895 -0.0010 -2.2122
  788MOL0     H 6330   5.570  11.083   3.220  1.2271  1.6006 -1.6284
  788MOL0     H 6331   5.809  11.300   3.291  0.9933  0.1284  0.1050
  788MOL0     H 6332   6.085  11.334   3.018  0.4515  1.7106 -0.1335
  788MOL0     H 6333   5.959  11.442   3.078 -0.0468 -1.6363 -1.9631
  788MOL0     H 6334   6.036  11.495   3.276 -0.6694  2.6406 -1.1259
  788MOL0     H 6335   6.132  11.340   3.291  0.9496  1.1938  0.9549
  788MOL0     H 6336   6.284  11.437   3.129 -0.3471  0.5437 -1.3575
  788MOL0     H 6337   6.261  11.532   3.276  0.3158 -2.4672 -0.2876
  788MOL0     H 6338   6.167  11.602   2.994  1.2647 -2.5630  0.9399
  788MOL0     H 6339   6.296  11.677   3.085  1.6556 -4.2277  0.8779
  788MOL0     H 6340   5.967  11.926   3.266 -1.8046 -2.2426 -1.0964
  788MOL0     H 6341   5.972  12.158   3.197 -0.6717 -0.2710 -0.9345
  788MOL0     H 6342   6.092  12.384   2.623 -2.2710 -0.1998 -0.2527
  788MOL0     H 6343   6.112  12.635   2.531 -3.1634 -1.0205 -0.3335
  788MOL0     H 6344   6.277  12.929   2.803  0.7209  2.3518  0.4311
  788MOL0     H 6345   6.205  13.031   2.672  0.0542 -0.6937  0.7627
  788MOL0     H 6346   6.029  12.912   2.886  0.0218  0.9833  0.8788
  788MOL0     H 6347   6.098  13.078   2.868  1.4167  0.1158 -1.0748
  788MOL0     H 6348   5.846  13.071   2.777 -0.4573 -2.3577  2.1628
  788MOL0     H 6349   5.965  13.089   2.644  1.1975  0.2768  1.0439
  788MOL0     H 6350   5.840  12.810   2.711 -0.9875 -1.2943 -1.9266
  788MOL0     H 6351   5.921  12.851   2.562 -1.4421  1.0678 -1.6711
  788MOL0     H 6352   5.763  13.007   2.494  3.4049 -2.2611 -0.8812
  788MOL0     H 6353   5.662  12.962   2.634 -2.4390 -0.3632 -2.0795
  788MOL0     H 6354   5.790  12.745   2.467  2.5441  2.5532  0.7534
  788MOL0     H 6355   5.675  12.724   2.597  1.4764  1.1496  0.3704
  788MOL0     H 6356   5.600  12.690   2.356 -0.5520  0.1586 -2.5459
  788MOL0     H 6357   5.635  12.868   2.324 -2.2170  2.1799  1.8861
  788MOL0     H 6358   5.459  12.927   2.480  0.1478 -0.4343 -0.8208
  788MOL0     H 6359   5.376  12.818   2.374  1.0578  1.4000  0.2480
  788MOL0     H 6360   6.179  12.754   2.933 -1.0372 -2.2900  2.2257
  788MOL0     H 6361   6.175  12.520   3.011  0.5435  0.3520 -0.0009
  788MOL0     H 6362   6.220  12.067   2.872  0.3011 -0.8792 -0.6091
  788MOL0     H 6363   6.237  11.832   2.934 -1.7279  0.8582 -1.2976
  788MOL0     H 6364   5.226  11.392   4.194  0.8500 -3.6802  1.0294
  788MOL0     H 6365   5.037  11.302   4.319  0.1834 -1.0562  0.4351
  788MOL0     H 6366   4.607  11.097   4.328 -1.5307 -1.0208  0.8133
  788MOL0     H 6367   4.368  11.041   4.331  0.5396 -0.3929 -1.1094
  788MOL0     H 6368   4.148  11.101   4.172 -2.7613  0.3810 -1.5460
  788MOL0     H 6369   4.062  11.244   4.209  1.5802 -0.4462 -0.1376
  788MOL0     H 6370   3.919  11.081   4.221  2.6378 -2.0335 -2.1560
  788MOL0     H 6371   3.945  11.134   4.394 -1.4320  0.8239 -0.4476
  788MOL0     H 6372   4.103  10.910   4.276  0.4498  2.5723 -2.3515
  788MOL0     H 6373   3.928  10.864   4.307 -0.2439 -1.8309  4.5278
  788MOL0     H 6374   4.087  11.001   4.521  2.2003 -0.7225 -3.0849
  788MOL0     H 6375   3.941  10.885   4.539 -1.2897  0.8030 -0.2474
  788MOL0     H 6376   4.296  10.654   4.561  1.0660  1.4193  2.5051
  788MOL0     H 6377   4.253  11.450   4.306 -0.6088 -0.9693 -4.2872
  788MOL0     H 6378   4.491  11.566   4.135  0.0804 -0.6904  0.8065
  788MOL0     H 6379   4.401  11.611   4.283 -1.9830 -0.9937  0.0626
  788MOL0     H 6380   4.579  11.604   4.295 -1.0619  1.0560  0.5915
  789MOL0     O 6381  11.317   1.212   7.520  0.1465 -0.2856 -0.0983
  789MOL0     C 6382  11.400   1.269   7.450  0.6377 -1.5745 -0.4494
  789MOL0     O 6383  11.457   1.209   7.334 -0.2045 -0.6018 -0.7154
  789MOL0     C 6384  11.408   1.101   7.261  0.0288  0.0921 -0.1922
  789MOL0     C 6385  11.444   1.102   7.128 -0.2382  0.4297  1.1924
  789MOL0     C 6386  11.412   0.994   7.038  0.2600 -0.2446 -0.3155
  789MOL0     C 6387  11.330   0.886   7.082 -0.3011 -0.2139 -0.2068
  789MOL0     O 6388  11.300   0.788   6.989  1.0268  0.0803  0.1207
  789MOL0     C 6389  11.298   0.654   7.041  0.3309 -0.4815  0.1934
  789MOL0     C 6390  11.257   0.552   6.926  0.4761  0.3862  0.3362
  789MOL0     C 6391  11.120   0.569   6.859  0.1592 -0.0401  0.1531
  789MOL0     C 6392  11.007   0.574   6.965  0.4224  1.0386 -0.0489
  789MOL0     C 6393  10.873   0.557   6.896 -1.1186 -0.8621 -0.2126
  789MOL0     C 6394  10.820   0.699   6.853 -0.3162 -0.0322  0.2865
  789MOL0     C 6395  10.675   0.698   6.801  0.0726  0.4729  0.6425
  789MOL0     C 6396  10.637   0.591   6.690  0.3870 -0.2362  0.2979
  789MOL0     N 6397  10.493   0.604   6.642  0.6134 -0.0059  0.4185
  789MOL0     C 6398  10.390   0.643   6.725 -0.2439 -0.6704 -0.1062
  789MOL0     C 6399  10.292   0.668   6.635 -0.1472 -0.1262 -1.1061
  789MOL0     C 6400  10.147   0.695   6.673 -0.1287  0.8745 -0.2507
  789MOL0     C 6401  10.050   0.582   6.689  0.6083  0.3085  0.3559
  789MOL0     C 6402  10.091   0.485   6.799 -0.1548 -0.2497 -0.0209
  789MOL0     C 6403   9.983   0.449   6.897 -0.4677 -0.9695 -0.2245
  789MOL0     O 6404   9.871   0.383   6.840  0.1809  0.4868  0.0103
  789MOL0     C 6405   9.769   0.330   6.915  0.5465 -0.0634  0.4633
  789MOL0     C 6406   9.749   0.360   7.048 -0.0978  0.1845 -0.2531
  789MOL0     C 6407   9.638   0.316   7.125 -0.2848  0.2012  0.4697
  789MOL0     C 6408   9.546   0.231   7.063  0.2421 -0.3579 -0.5993
  789MOL0     C 6409   9.424   0.190   7.131  0.3283 -0.4624  0.0721
  789MOL0     O 6410   9.327   0.133   7.052 -0.4631  0.1627  0.3078
  789MOL0     C 6411   9.200   0.116   7.101 -0.6083  0.8609  0.5666
  789MOL0     C 6412   9.120   0.221   7.143  0.0130  0.4659 -0.1001
  789MOL0     C 6413   8.986   0.199   7.175 -0.4674  0.5031 -0.2449
  789MOL0     C 6414   8.930   0.073   7.157  0.0924  0.3300 -0.9443
  789MOL0     O 6415   8.793   0.058   7.190  0.1470  0.3102  0.4774
  789MOL0     C 6416   8.751  -0.073   7.137  1.1364  0.3792 -0.3270
  789MOL0     C 6417   8.594  -0.091   7.181 -0.4676 -0.1561 -0.9054
  789MOL0     C 6418   8.503   0.032   7.190 -0.8167 -0.6736 -0.1881
  789MOL0     C 6419   8.375   0.031   7.095 -0.2001 -0.2936 -0.4563
  789MOL0     C 6420   8.410   0.038   6.950 -0.2582 -0.5732 -0.4176
  789MOL0     C 6421   8.311   0.121   6.870 -0.2018  0.5355 -0.0863
  789MOL0     C 6422   8.351   0.130   6.720  0.3931  0.6391 -0.1065
  789MOL0     C 6423   8.469   0.222   6.700 -0.0501 -0.0436 -0.7390
  789MOL0    Cl 6424   8.534   0.213   6.536 -0.0845  0.0295 -0.1636
  789MOL0     C 6425   9.018  -0.040   7.123  0.5016  0.1874  0.0032
  789MOL0     C 6426   9.150  -0.017   7.088 -0.4188  0.4884  0.1035
  789MOL0     O 6427   9.428   0.210   7.253 -0.1533 -0.3335  0.5330
  789MOL0     C 6428   9.570   0.191   6.929  0.2647 -0.4718  0.2146
  789MOL0     C 6429   9.677   0.242   6.857 -1.0377 -0.1283 -0.2828
  789MOL0     N 6430  10.336   0.658   6.507  0.8216 -0.1100  0.3973
  789MOL0     N 6431  10.457   0.621   6.514  0.5366 -0.0390 -0.3119
  789MOL0     C 6432  11.289   0.891   7.220 -0.9058  0.0013  0.0416
  789MOL0     C 6433  11.326   0.992   7.307  0.1900  0.1330  0.1386
  789MOL0     C 6434  11.452   1.406   7.491 -0.3892  0.2509  0.2769
  789MOL0     C 6435  11.409   1.456   7.615  0.8869 -0.2638  0.2619
  789MOL0     C 6436  11.467   1.574   7.670 -0.4023  0.3682 -0.1235
  789MOL0     C 6437  11.558   1.652   7.597  0.0324 -0.1560  0.1346
  789MOL0     O 6438  11.611   1.761   7.661  0.3879  0.1349 -0.2500
  789MOL0     C 6439  11.707   1.840   7.601  0.8413 -0.9497 -0.5625
  789MOL0     C 6440  11.757   1.954   7.686  1.0093 -0.5558  0.3823
  789MOL0     C 6441  11.865   1.907   7.789  0.8178  0.3522 -0.4501
  789MOL0     C 6442  11.931   2.031   7.859  1.2715  0.4512 -0.3487
  789MOL0     C 6443  11.844   2.138   7.922  0.1001 -0.0443 -0.1938
  789MOL0     C 6444  11.778   2.238   7.956 -0.2460  0.2615  0.9810
  789MOL0     C 6445  11.575   1.616   7.461  0.8036 -0.2649  0.0780
  789MOL0     C 6446  11.530   1.490   7.404  1.3308 -0.2441  0.4538
  789MOL0     C 6447  11.608   1.458   7.277  0.8619  0.4101 -1.6041
  789MOL0     H 6448  11.513   1.177   7.092  0.2512  0.6017  2.4444
  789MOL0     H 6449  11.444   0.987   6.935  0.3111  0.8131 -0.3813
  789MOL0     H 6450  11.393   0.617   7.079  0.8141 -0.1158 -0.6207
  789MOL0     H 6451  11.217   0.631   7.112 -1.3710 -3.5765 -2.4547
  789MOL0     H 6452  11.239   0.453   6.969 -3.7577  1.1309  0.7320
  789MOL0     H 6453  11.335   0.547   6.850 -1.0782 -0.7526 -1.2907
  789MOL0     H 6454  11.099   0.492   6.785 -1.8170  1.1751 -0.6337
  789MOL0     H 6455  11.119   0.670   6.817 -2.1813 -0.3132 -0.5943
  789MOL0     H 6456  11.010   0.492   7.037 -1.9247  1.9519  1.2155
  789MOL0     H 6457  11.008   0.669   7.021 -2.4686  0.6260  0.8407
  789MOL0     H 6458  10.867   0.487   6.812 -2.9426 -0.6087 -0.3308
  789MOL0     H 6459  10.796   0.515   6.962 -0.1876 -0.9872  0.8136
  789MOL0     H 6460  10.822   0.762   6.943 -0.1450 -3.7414  3.1136
  789MOL0     H 6461  10.897   0.740   6.786 -0.8674 -0.8730 -0.8944
  789MOL0     H 6462  10.633   0.791   6.763 -2.8551 -1.9199 -2.6813
  789MOL0     H 6463  10.606   0.682   6.884 -0.7390 -1.3832 -0.3105
  789MOL0     H 6464  10.700   0.611   6.603 -1.3399  0.9158 -0.7641
  789MOL0     H 6465  10.656   0.489   6.724 -3.6630 -1.6911 -1.2173
  789MOL0     H 6466  10.396   0.643   6.833  0.9973 -0.8210 -0.1606
  789MOL0     H 6467  10.142   0.752   6.767 -0.1200  0.7567 -0.1777
  789MOL0     H 6468  10.104   0.758   6.595  0.9729  1.2035 -0.6032
  789MOL0     H 6469   9.951   0.618   6.717 -1.4015  0.7142 -5.8137
  789MOL0     H 6470  10.035   0.543   6.588 -1.2067  3.9134 -0.9419
  789MOL0     H 6471  10.182   0.521   6.848 -0.8910  0.2085  1.0468
  789MOL0     H 6472  10.113   0.390   6.749 -3.4770 -0.6881 -0.8678
  789MOL0     H 6473   9.949   0.536   6.953 -2.2698 -0.7178 -1.6170
  789MOL0     H 6474  10.037   0.386   6.968  3.4000  2.5950  0.4439
  789MOL0     H 6475   9.823   0.424   7.096 -1.7964  2.9022 -1.0626
  789MOL0     H 6476   9.633   0.364   7.222 -2.3795  1.6238 -0.2483
  789MOL0     H 6477   9.167   0.318   7.154  1.9317 -0.4211  0.0298
  789MOL0     H 6478   8.914   0.271   7.212  0.0256  1.5784 -1.3338
  789MOL0     H 6479   8.757  -0.075   7.028 -1.1867  2.5898 -0.5808
  789MOL0     H 6480   8.805  -0.159   7.178 -0.5352 -1.0639 -0.9982
  789MOL0     H 6481   8.542  -0.157   7.112  0.2511 -2.6948  0.8361
  789MOL0     H 6482   8.597  -0.154   7.270 -0.6055 -1.5762 -1.8674
  789MOL0     H 6483   8.457   0.023   7.289  0.5752 -2.4597  0.3470
  789MOL0     H 6484   8.559   0.126   7.183 -2.1269  0.0526 -1.4355
  789MOL0     H 6485   8.305   0.111   7.120  0.7339 -0.0708  1.6316
  789MOL0     H 6486   8.326  -0.065   7.109 -0.5028 -0.2915 -1.4475
  789MOL0     H 6487   8.414  -0.061   6.904 -4.5864 -0.7146 -0.9411
  789MOL0     H 6488   8.511   0.079   6.951  0.2379 -1.7233  0.8023
  789MOL0     H 6489   8.215   0.070   6.863 -0.1920  0.6539 -1.2528
  789MOL0     H 6490   8.293   0.222   6.909 -1.1623  1.3401 -2.3985
  789MOL0     H 6491   8.276   0.152   6.644 -1.2530 -1.9355  0.6575
  789MOL0     H 6492   8.385   0.034   6.681  2.4970  2.1528 -2.3586
  789MOL0     H 6493   8.430   0.321   6.724 -1.6631 -0.8701  0.2025
  789MOL0     H 6494   8.537   0.195   6.781 -2.2794  1.2240  1.6795
  789MOL0     H 6495   8.989  -0.145   7.123  0.1734  0.1793 -3.1584
  789MOL0     H 6496   9.217  -0.093   7.049 -0.2378  0.5821  0.2272
  789MOL0     H 6497   9.494   0.136   6.875  1.3359 -1.0112 -0.7990
  789MOL0     H 6498   9.691   0.205   6.756 -0.3704  0.8999 -0.5821
  789MOL0     H 6499  11.227   0.814   7.265 -0.8709  1.3262  2.5034
  789MOL0     H 6500  11.296   0.974   7.410  0.8624 -2.8065 -0.0657
  789MOL0     H 6501  11.339   1.403   7.678  1.1554 -2.0128 -0.8379
  789MOL0     H 6502  11.458   1.592   7.777  1.5660  0.8900 -0.0115
  789MOL0     H 6503  11.665   1.888   7.512  1.7517  1.2597  0.1199
  789MOL0     H 6504  11.794   1.778   7.579  2.0932  0.3291  0.5465
  789MOL0     H 6505  11.672   2.005   7.733 -1.6784 -1.2244 -3.2814
  789MOL0     H 6506  11.803   2.026   7.616  0.3452 -1.8002 -1.4039
  789MOL0     H 6507  11.940   1.847   7.738 -1.9222 -7.2080  2.9065
  789MOL0     H 6508  11.826   1.829   7.856 -0.4052  0.9713 -0.4151
  789MOL0     H 6509  11.994   1.990   7.939  1.7188  3.0644  0.7636
  789MOL0     H 6510  11.996   2.081   7.786  0.6479  4.0897  1.3191
  789MOL0     H 6511  11.732   2.329   7.989  0.7369  1.2019 -0.1431
  789MOL0     H 6512  11.640   1.674   7.397 -1.7334 -1.2862 -3.7859
  789MOL0     H 6513  11.537   1.437   7.196 -0.9237  0.6981 -0.1930
  789MOL0     H 6514  11.658   1.552   7.253  0.3586  1.1026 -0.1140
  789MOL0     H 6515  11.682   1.378   7.288  0.3215 -0.2698 -2.6813
  790MOL0     O 6516   0.702   8.472   0.774  0.8062 -0.5819 -1.1129
  790MOL0     C 6517   0.790   8.387   0.749 -1.2541  0.4520 -0.3645
  790MOL0     O 6518   0.781   8.292   0.652 -0.2906  0.2561 -0.2596
  790MOL0     C 6519   0.675   8.293   0.569  0.7296  0.8482  0.3019
  790MOL0     C 6520   0.575   8.195   0.578 -1.5312 -0.2308 -0.3394
  790MOL0     C 6521   0.498   8.175   0.468  0.5970  0.7883 -1.3214
  790MOL0     C 6522   0.501   8.245   0.354  0.4830 -1.0610 -0.2811
  790MOL0     O 6523   0.433   8.195   0.248 -0.4099 -0.3534 -0.3406
  790MOL0     C 6524   0.352   8.292   0.186 -0.4714 -0.0223  0.1216
  790MOL0     C 6525   0.241   8.223   0.116 -0.1289  0.8282 -0.0380
  790MOL0     C 6526   0.134   8.315   0.053  0.3611  0.2737 -0.1132
  790MOL0     C 6527   0.090   8.439   0.133 -0.3070  0.1121 -0.2875
  790MOL0     C 6528  -0.028   8.504   0.048 -0.0124 -0.2760 -1.6247
  790MOL0     C 6529  -0.072   8.633   0.131 -0.6495  0.4001  0.0262
  790MOL0     C 6530  -0.175   8.714   0.063  0.4529  0.2563  0.7732
  790MOL0     C 6531  -0.318   8.660   0.051  0.5207  0.0021 -0.4902
  790MOL0     N 6532  -0.400   8.753  -0.021  0.8839  0.6206  0.9667
  790MOL0     C 6533  -0.407   8.766  -0.156 -0.6075  0.2496  0.4179
  790MOL0     C 6534  -0.511   8.839  -0.184 -0.8762  0.7063  0.5339
  790MOL0     C 6535  -0.546   8.877  -0.326 -0.0364 -0.0134  0.1623
  790MOL0     C 6536  -0.562   9.031  -0.326  0.3374 -0.0401  1.0183
  790MOL0     C 6537  -0.615   9.083  -0.469 -0.4293  0.0909 -0.1028
  790MOL0     C 6538  -0.613   9.236  -0.455 -0.1626  0.0331  0.2611
  790MOL0     O 6539  -0.497   9.304  -0.511 -0.3859  0.6233 -0.1873
  790MOL0     C 6540  -0.450   9.280  -0.634 -0.6062  0.0575  0.0665
  790MOL0     C 6541  -0.514   9.198  -0.737  0.4455 -0.3880 -1.4216
  790MOL0     C 6542  -0.437   9.167  -0.849  0.4935 -0.3778  0.5474
  790MOL0     C 6543  -0.321   9.223  -0.888 -1.2051  0.0095 -0.4307
  790MOL0     C 6544  -0.242   9.191  -1.007  0.9090 -0.7102 -0.4297
  790MOL0     O 6545  -0.321   9.131  -1.099 -1.0322  0.1618 -0.0524
  790MOL0     C 6546  -0.267   9.091  -1.217  0.0333  0.0789 -1.4600
  790MOL0     C 6547  -0.342   8.998  -1.287 -0.1089 -0.4192 -0.1061
  790MOL0     C 6548  -0.307   8.952  -1.412  0.2188 -0.1531  0.0290
  790MOL0     C 6549  -0.204   9.014  -1.488 -0.6574  0.0102 -0.4562
  790MOL0     O 6550  -0.169   8.952  -1.611 -0.7485 -0.2922 -0.5138
  790MOL0     C 6551  -0.057   9.000  -1.693 -0.4466 -0.0066 -0.7404
  790MOL0     C 6552  -0.055   8.917  -1.825 -0.2846  0.0078 -1.6526
  790MOL0     C 6553   0.056   8.979  -1.913  0.6079  0.4717 -0.8433
  790MOL0     C 6554   0.015   9.106  -2.000  0.9936  0.1082  0.3211
  790MOL0     C 6555  -0.067   9.064  -2.127  0.1432  0.8829 -0.5711
  790MOL0     C 6556  -0.115   9.191  -2.193  0.0524  0.0521 -0.2251
  790MOL0     C 6557  -0.204   9.179  -2.320  0.2815  0.3429  0.1603
  790MOL0     C 6558  -0.153   9.100  -2.440 -0.2945 -0.1106 -0.2396
  790MOL0    Cl 6559  -0.139   8.922  -2.410 -0.1202  0.2465  0.1465
  790MOL0     C 6560  -0.122   9.113  -1.420 -0.0844 -0.8461  0.7836
  790MOL0     C 6561  -0.159   9.146  -1.291 -0.4843  0.5643 -0.0486
  790MOL0     O 6562  -0.117   9.209  -1.020  0.8590  0.3203  0.1111
  790MOL0     C 6563  -0.271   9.325  -0.797  0.7666  1.2543 -0.2732
  790MOL0     C 6564  -0.331   9.345  -0.671  0.2975 -0.7495 -0.7576
  790MOL0     N 6565  -0.577   8.873  -0.068 -0.4065  0.2374  0.5441
  790MOL0     N 6566  -0.512   8.820   0.032  0.2802 -0.1938 -0.5597
  790MOL0     C 6567   0.581   8.357   0.358 -1.0601  0.6092 -0.3049
  790MOL0     C 6568   0.669   8.383   0.462  0.2133 -0.1451  0.1254
  790MOL0     C 6569   0.908   8.376   0.837 -0.3241 -0.3633  0.0372
  790MOL0     C 6570   0.961   8.248   0.869  0.5486 -0.0389 -0.0233
  790MOL0     C 6571   1.069   8.228   0.952 -0.6199 -0.0496 -0.3657
  790MOL0     C 6572   1.133   8.342   1.002  0.1268 -1.0228  0.3617
  790MOL0     O 6573   1.250   8.313   1.070 -0.3443  0.4327  0.0416
  790MOL0     C 6574   1.351   8.252   0.986 -0.5263 -0.4486  0.3038
  790MOL0     C 6575   1.474   8.349   0.987  0.9863  0.0061 -0.3632
  790MOL0     C 6576   1.571   8.333   1.097 -0.0680 -0.2461 -0.0758
  790MOL0     C 6577   1.706   8.385   1.048  0.2340  0.6178 -0.8420
  790MOL0     C 6578   1.780   8.293   0.960 -0.0558 -0.6013  0.2619
  790MOL0     C 6579   1.843   8.214   0.903  0.2818  0.6463  0.3033
  790MOL0     C 6580   1.081   8.473   0.970 -0.0654  0.3139  0.3199
  790MOL0     C 6581   0.970   8.487   0.894  0.9267  0.3790  0.4957
  790MOL0     C 6582   0.916   8.628   0.870  0.0873  0.2473 -0.2887
  790MOL0     H 6583   0.589   8.125   0.659  2.5540  0.3934 -0.3064
  790MOL0     H 6584   0.434   8.087   0.464  1.1500  0.1261  2.0433
  790MOL0     H 6585   0.311   8.368   0.254  0.3410  0.7607 -0.2404
  790MOL0     H 6586   0.414   8.338   0.108  1.2608 -3.7000 -0.8822
  790MOL0     H 6587   0.183   8.168   0.191 -0.0393 -0.0378 -0.5943
  790MOL0     H 6588   0.296   8.146   0.061  1.7566  1.9632  0.1812
  790MOL0     H 6589   0.045   8.261   0.022  0.0064  2.7108 -3.9667
  790MOL0     H 6590   0.179   8.349  -0.040 -0.4164 -0.0770 -0.6256
  790MOL0     H 6591   0.063   8.420   0.237  2.1852  0.1148  0.4451
  790MOL0     H 6592   0.174   8.509   0.141  0.3936 -0.7482  0.0308
  790MOL0     H 6593   0.013   8.536  -0.048 -0.3274  1.4755 -1.2076
  790MOL0     H 6594  -0.114   8.437   0.035  0.0942 -0.3012 -2.2259
  790MOL0     H 6595  -0.115   8.593   0.224 -2.0083 -2.5866 -1.7259
  790MOL0     H 6596   0.018   8.690   0.153 -0.3593  0.6653 -1.7430
  790MOL0     H 6597  -0.144   8.720  -0.041 -0.6507  0.9309  0.4615
  790MOL0     H 6598  -0.180   8.817   0.101  2.3079  1.2208 -1.3650
  790MOL0     H 6599  -0.319   8.556   0.019 -2.5666  0.1931 -1.3087
  790MOL0     H 6600  -0.366   8.656   0.149  0.0643 -0.3066 -0.7266
  790MOL0     H 6601  -0.346   8.711  -0.227 -0.6574  0.7001  0.0251
  790MOL0     H 6602  -0.472   8.839  -0.397  0.9039  1.8093  0.1263
  790MOL0     H 6603  -0.641   8.829  -0.355 -0.0354  1.1288 -1.9020
  790MOL0     H 6604  -0.643   9.051  -0.255  1.0812  0.0144  1.8708
  790MOL0     H 6605  -0.471   9.080  -0.291  0.1922 -0.5491  2.1623
  790MOL0     H 6606  -0.717   9.050  -0.491 -0.5246  0.1773  0.2078
  790MOL0     H 6607  -0.551   9.037  -0.545 -0.2059 -2.0632  1.2717
  790MOL0     H 6608  -0.610   9.268  -0.351 -2.6459 -1.4153  0.8358
  790MOL0     H 6609  -0.699   9.285  -0.501 -1.0415 -3.0578 -1.6766
  790MOL0     H 6610  -0.612   9.154  -0.723 -0.5338  1.8236 -0.9087
  790MOL0     H 6611  -0.495   9.097  -0.908 -0.0427 -0.6900  1.4387
  790MOL0     H 6612  -0.434   8.955  -1.248  0.8032 -2.9903 -0.5933
  790MOL0     H 6613  -0.361   8.876  -1.468 -0.3137 -0.6334  1.1619
  790MOL0     H 6614  -0.065   9.107  -1.712 -0.4439  0.4404  1.5762
  790MOL0     H 6615   0.034   8.978  -1.636 -0.0638 -2.7006 -2.1761
  790MOL0     H 6616  -0.043   8.811  -1.803 -1.2395  0.4281  1.3700
  790MOL0     H 6617  -0.152   8.924  -1.875 -1.3904 -0.2014  0.3534
  790MOL0     H 6618   0.146   9.001  -1.856  1.6006 -0.4398 -2.0204
  790MOL0     H 6619   0.084   8.897  -1.979 -3.1587 -1.8766  0.1903
  790MOL0     H 6620   0.108   9.150  -2.038  1.0555  0.0638  0.4209
  790MOL0     H 6621  -0.048   9.174  -1.942 -4.4940 -3.1533 -1.0537
  790MOL0     H 6622  -0.152   8.998  -2.109 -0.4011  1.2093 -1.8296
  790MOL0     H 6623  -0.006   9.011  -2.201  0.1313 -1.1253  0.7829
  790MOL0     H 6624  -0.178   9.242  -2.119  2.4763 -0.0578  2.0693
  790MOL0     H 6625  -0.037   9.262  -2.223 -0.1095  0.8879  1.2457
  790MOL0     H 6626  -0.205   9.281  -2.358  5.2591  0.6342  0.1614
  790MOL0     H 6627  -0.306   9.150  -2.292  0.1619  1.4530  0.9397
  790MOL0     H 6628  -0.227   9.107  -2.520 -1.0557 -1.5206  0.2960
  790MOL0     H 6629  -0.069   9.151  -2.486  0.6518 -2.0722 -0.8183
  790MOL0     H 6630  -0.033   9.161  -1.460 -1.3897  0.6435 -0.4666
  790MOL0     H 6631  -0.117   9.236  -1.248 -2.3018  1.5938 -0.3199
  790MOL0     H 6632  -0.178   9.381  -0.809  1.3637  0.6226  1.1676
  790MOL0     H 6633  -0.290   9.420  -0.603 -0.7437 -0.4226 -0.4710
  790MOL0     H 6634   0.597   8.414   0.267 -0.9580  0.3760 -0.4321
  790MOL0     H 6635   0.742   8.463   0.462  0.1405  0.0177 -2.8611
  790MOL0     H 6636   0.917   8.161   0.821 -0.7162  0.6598 -0.1584
  790MOL0     H 6637   1.102   8.130   0.983  1.8364  1.5111  2.5388
  790MOL0     H 6638   1.320   8.238   0.882  1.1927  1.2134 -0.4896
  790MOL0     H 6639   1.373   8.150   1.021  1.4770 -0.1166  0.0921
  790MOL0     H 6640   1.431   8.449   0.979  0.6010 -0.2683 -2.2387
  790MOL0     H 6641   1.521   8.332   0.889  1.8597 -0.1054  0.0659
  790MOL0     H 6642   1.602   8.231   1.119  4.9462  1.0697  0.1065
  790MOL0     H 6643   1.547   8.389   1.188  2.0899  1.9859 -0.7564
  790MOL0     H 6644   1.690   8.483   1.003 -3.1800  1.5789  1.9906
  790MOL0     H 6645   1.783   8.403   1.124  1.6595  1.9414 -2.4949
  790MOL0     H 6646   1.890   8.148   0.833  1.3599  2.2583 -0.5682
  790MOL0     H 6647   1.124   8.557   1.023  2.7040  1.2223 -3.0208
  790MOL0     H 6648   0.902   8.651   0.764  1.8220 -1.0213 -0.8496
  790MOL0     H 6649   0.816   8.644   0.910 -1.2698 -4.0027 -1.4164
  790MOL0     H 6650   0.992   8.691   0.918  1.9704 -1.9817 -0.1575
  791MOL0     O 6651   2.035   5.028   4.121 -0.3103  0.0583  0.8361
  791MOL0     C 6652   2.146   5.082   4.125  0.5911  0.4737  0.0746
  791MOL0     O 6653   2.173   5.205   4.079  0.1488 -0.5819 -0.2823
  791MOL0     C 6654   2.067   5.276   4.022  0.0868 -0.2230  0.1472
  791MOL0     C 6655   2.060   5.293   3.880 -0.6320 -0.4488 -0.4821
  791MOL0     C 6656   1.950   5.359   3.810  0.7120 -0.0219 -0.0224
  791MOL0     C 6657   1.853   5.424   3.891 -0.4668 -0.5276  0.0364
  791MOL0     O 6658   1.752   5.500   3.834  0.1604  0.0746  0.5865
  791MOL0     C 6659   1.678   5.433   3.722 -0.4893 -0.7371 -0.2415
  791MOL0     C 6660   1.589   5.542   3.667 -0.2310  0.0064 -0.6623
  791MOL0     C 6661   1.476   5.504   3.564  0.1268  0.8098  0.5791
  791MOL0     C 6662   1.363   5.414   3.639  0.1368  0.4135  0.2015
  791MOL0     C 6663   1.371   5.258   3.602  0.4151  0.1725 -0.6441
  791MOL0     C 6664   1.254   5.191   3.682 -0.2998  0.2586  0.5733
  791MOL0     C 6665   1.257   5.035   3.669 -0.0422 -0.0776 -0.1183
  791MOL0     C 6666   1.138   4.957   3.720 -0.1648  1.0637  0.8776
  791MOL0     N 6667   1.155   4.809   3.692  0.2244  0.1373 -0.4075
  791MOL0     C 6668   1.239   4.733   3.773 -0.5022 -0.1257 -0.1886
  791MOL0     C 6669   1.283   4.627   3.705 -0.9675  0.5914 -0.0169
  791MOL0     C 6670   1.387   4.529   3.759 -0.2373  0.2029  0.3124
  791MOL0     C 6671   1.474   4.572   3.884  0.0727 -1.1063  0.2856
  791MOL0     C 6672   1.594   4.473   3.896  0.0199  0.3974  0.5773
  791MOL0     C 6673   1.659   4.462   4.027 -0.6111  0.4577  0.1297
  791MOL0     O 6674   1.696   4.589   4.078 -1.4269 -0.3406 -0.7046
  791MOL0     C 6675   1.739   4.607   4.209  0.0841 -1.4499 -0.8985
  791MOL0     C 6676   1.748   4.742   4.251  0.1253 -0.2373  0.7914
  791MOL0     C 6677   1.794   4.760   4.377  0.7950 -0.3927 -0.4899
  791MOL0     C 6678   1.843   4.647   4.455 -0.6171  0.3934 -0.5259
  791MOL0     C 6679   1.910   4.670   4.583 -0.9090 -1.2092  0.5735
  791MOL0     O 6680   1.969   4.571   4.653 -0.3121  0.1252  0.1004
  791MOL0     C 6681   2.098   4.589   4.716  0.3712 -0.1641 -0.1407
  791MOL0     C 6682   2.203   4.684   4.694 -0.0336 -0.6898  0.8680
  791MOL0     C 6683   2.333   4.667   4.747  0.1572  0.1004 -0.6390
  791MOL0     C 6684   2.360   4.568   4.844  0.2461  0.4466 -0.3005
  791MOL0     O 6685   2.482   4.539   4.903  0.5064  0.3418  0.1084
  791MOL0     C 6686   2.592   4.535   4.816  0.6772  0.2485 -0.1185
  791MOL0     C 6687   2.580   4.417   4.711 -0.0141 -0.1462  0.3952
  791MOL0     C 6688   2.568   4.277   4.777 -0.3558  0.8384 -0.0313
  791MOL0     C 6689   2.581   4.168   4.676  0.1714  0.2844  0.3611
  791MOL0     C 6690   2.528   4.038   4.736 -0.1093 -0.7566 -0.9446
  791MOL0     C 6691   2.516   3.930   4.622  0.6325  1.1632 -0.9479
  791MOL0     C 6692   2.455   3.795   4.651 -0.1814  0.0962 -0.0827
  791MOL0     C 6693   2.536   3.718   4.748  0.5543  0.0831 -0.1802
  791MOL0    Cl 6694   2.472   3.555   4.770 -0.0202  0.0811 -0.4230
  791MOL0     C 6695   2.256   4.482   4.876  0.5401  1.0558  0.1874
  791MOL0     C 6696   2.131   4.484   4.811 -0.7102 -1.5862 -0.0707
  791MOL0     O 6697   1.930   4.791   4.619 -0.0250  0.2722  0.1418
  791MOL0     C 6698   1.829   4.518   4.409 -0.3612 -0.2515 -0.4716
  791MOL0     C 6699   1.760   4.501   4.292 -0.1395  0.1651  0.4860
  791MOL0     N 6700   1.226   4.637   3.585 -0.5211  0.4794  0.5064
  791MOL0     N 6701   1.153   4.745   3.573 -0.3839  0.1558 -1.0822
  791MOL0     C 6702   1.860   5.403   4.028 -1.0158 -0.0540  0.0810
  791MOL0     C 6703   1.968   5.345   4.094 -0.6152 -0.6757 -0.4447
  791MOL0     C 6704   2.247   5.009   4.193 -0.0394  0.4963 -0.4436
  791MOL0     C 6705   2.384   5.029   4.170 -0.5095 -0.4217  0.5241
  791MOL0     C 6706   2.481   4.974   4.249  1.4324 -0.0245  0.1533
  791MOL0     C 6707   2.455   4.882   4.346 -0.2233 -0.7115 -0.1124
  791MOL0     O 6708   2.554   4.834   4.429 -0.0061 -0.0942 -0.3076
  791MOL0     C 6709   2.631   4.725   4.375  0.0013  0.7085 -0.7262
  791MOL0     C 6710   2.555   4.588   4.383 -0.3596  0.0315  0.4906
  791MOL0     C 6711   2.649   4.479   4.366 -0.5771  0.0758 -0.0855
  791MOL0     C 6712   2.571   4.343   4.360 -0.7097 -0.0207 -0.9204
  791MOL0     C 6713   2.539   4.317   4.220 -0.7280 -0.5919  0.4879
  791MOL0     C 6714   2.494   4.282   4.113 -0.3938 -0.5800  0.2060
  791MOL0     C 6715   2.325   4.850   4.362  0.3541 -0.1199 -0.1212
  791MOL0     C 6716   2.218   4.912   4.288 -0.3342 -0.2700 -0.2765
  791MOL0     C 6717   2.088   4.880   4.349 -0.1828 -0.3687 -0.5148
  791MOL0     H 6718   2.147   5.252   3.829  0.3942  0.7019  0.2873
  791MOL0     H 6719   1.949   5.361   3.702  0.0015 -4.5132 -0.2605
  791MOL0     H 6720   1.747   5.375   3.660  1.3466 -2.0333  2.7617
  791MOL0     H 6721   1.618   5.360   3.778  1.3525 -1.5959  0.7042
  791MOL0     H 6722   1.666   5.597   3.611 -1.4852  0.4494 -2.0444
  791MOL0     H 6723   1.550   5.588   3.758 -0.8024 -0.9174 -0.4296
  791MOL0     H 6724   1.518   5.446   3.482  1.8648  3.0821 -0.2453
  791MOL0     H 6725   1.430   5.595   3.526  0.7159  0.8818  0.0291
  791MOL0     H 6726   1.382   5.419   3.747 -0.6689  1.2963  0.3168
  791MOL0     H 6727   1.266   5.462   3.623  0.3917  1.0144  0.4336
  791MOL0     H 6728   1.348   5.247   3.495  1.8684 -2.4277 -0.7873
  791MOL0     H 6729   1.472   5.217   3.617  1.6684  2.9312 -1.0071
  791MOL0     H 6730   1.263   5.217   3.788 -1.7203 -0.6768  0.9503
  791MOL0     H 6731   1.155   5.221   3.648  0.5509  2.2222 -0.3230
  791MOL0     H 6732   1.345   5.007   3.727 -0.5954 -0.2373  0.6502
  791MOL0     H 6733   1.278   4.997   3.568 -1.8503  1.3527 -1.0884
  791MOL0     H 6734   1.117   4.977   3.825  3.3520 -1.7475  2.3296
  791MOL0     H 6735   1.049   5.003   3.676  0.0136  3.0039  2.4047
  791MOL0     H 6736   1.268   4.738   3.877 -0.9690 -0.5358 -0.0367
  791MOL0     H 6737   1.333   4.438   3.788  0.9130  0.0757  2.2472
  791MOL0     H 6738   1.450   4.497   3.675 -0.6922 -0.0989  0.0817
  791MOL0     H 6739   1.513   4.674   3.874  1.1745 -1.3804  1.4727
  791MOL0     H 6740   1.424   4.577   3.981  1.0469  1.8858  0.7493
  791MOL0     H 6741   1.675   4.491   3.826  0.3327  0.8062  1.0392
  791MOL0     H 6742   1.550   4.373   3.885 -0.9239  0.9569 -1.0862
  791MOL0     H 6743   1.748   4.399   4.022  0.9199  2.5575 -0.4531
  791MOL0     H 6744   1.582   4.412   4.087  1.6776 -3.0852  0.3994
  791MOL0     H 6745   1.721   4.835   4.201  0.6925  0.2636  1.4112
  791MOL0     H 6746   1.796   4.862   4.415 -2.0882 -0.7680  0.9719
  791MOL0     H 6747   2.171   4.757   4.621 -2.5829 -1.3545  1.2184
  791MOL0     H 6748   2.414   4.736   4.726  3.3693 -2.2488  2.7666
  791MOL0     H 6749   2.602   4.631   4.764  0.2215  1.8132  2.5078
  791MOL0     H 6750   2.680   4.517   4.879 -0.2540 -0.1115  1.1123
  791MOL0     H 6751   2.497   4.445   4.645 -0.8597  0.0549  1.4909
  791MOL0     H 6752   2.678   4.417   4.664  0.2524 -1.4016  0.9095
  791MOL0     H 6753   2.645   4.288   4.854  1.2408  0.0024 -1.4413
  791MOL0     H 6754   2.468   4.276   4.821 -0.7138  2.6869 -0.7316
  791MOL0     H 6755   2.686   4.147   4.650 -0.3450 -1.0079 -0.7761
  791MOL0     H 6756   2.518   4.196   4.592  2.7838 -1.3932 -2.3539
  791MOL0     H 6757   2.423   4.050   4.765  0.9107  1.9819  2.1879
  791MOL0     H 6758   2.595   3.998   4.812 -0.2607  2.4721  1.1065
  791MOL0     H 6759   2.465   3.977   4.537 -1.6158  2.7450  1.1585
  791MOL0     H 6760   2.619   3.915   4.586 -0.1245 -0.2423 -2.6619
  791MOL0     H 6761   2.461   3.734   4.560  2.2517 -0.8201  0.6334
  791MOL0     H 6762   2.352   3.819   4.680 -0.6216 -0.7231 -0.8767
  791MOL0     H 6763   2.635   3.701   4.705  1.6193  0.8482  1.8453
  791MOL0     H 6764   2.540   3.774   4.841 -2.0620  1.1791 -0.6473
  791MOL0     H 6765   2.281   4.394   4.935  0.6064  0.0415 -1.3018
  791MOL0     H 6766   2.061   4.404   4.833  1.2556 -2.7928  2.2879
  791MOL0     H 6767   1.858   4.431   4.466 -1.5442  0.5767  1.5049
  791MOL0     H 6768   1.762   4.398   4.256  0.5522 -0.0873  1.2173
  791MOL0     H 6769   1.783   5.455   4.083 -1.3058  0.0606 -0.4305
  791MOL0     H 6770   1.966   5.340   4.202  2.1765 -1.5810 -0.3476
  791MOL0     H 6771   2.412   5.094   4.088 -2.9821  1.1601  0.8250
  791MOL0     H 6772   2.584   4.998   4.223  1.8993 -2.0387 -0.0782
  791MOL0     H 6773   2.710   4.715   4.449 -2.4239 -2.1420  1.7189
  791MOL0     H 6774   2.663   4.731   4.270  0.4210 -3.6271 -1.0245
  791MOL0     H 6775   2.470   4.586   4.314 -0.5359 -1.6582  0.7170
  791MOL0     H 6776   2.530   4.591   4.490  1.5528  3.4617  1.0075
  791MOL0     H 6777   2.712   4.470   4.454 -1.6735 -0.5303  0.6635
  791MOL0     H 6778   2.701   4.498   4.271 -0.5836  0.9232  0.0773
  791MOL0     H 6779   2.624   4.263   4.412 -0.6936  0.6574  0.1150
  791MOL0     H 6780   2.481   4.363   4.419 -0.6780 -2.8572  0.2358
  791MOL0     H 6781   2.452   4.231   4.029 -0.9804  1.7540 -1.0046
  791MOL0     H 6782   2.310   4.779   4.443  0.1660 -1.1592 -1.0570
  791MOL0     H 6783   2.092   4.801   4.424  0.3459  1.6471  1.7210
  791MOL0     H 6784   2.057   4.976   4.392 -0.9871 -1.3522  1.2108
  791MOL0     H 6785   2.011   4.863   4.273  0.4086 -0.8761 -1.0130
  792MOL0     O 6786  11.393   3.351   8.355 -0.8862 -0.0075  1.0163
  792MOL0     C 6787  11.405   3.293   8.246 -0.3499  0.3193 -0.4970
  792MOL0     O 6788  11.470   3.348   8.137 -0.1623  0.9139 -0.1909
  792MOL0     C 6789  11.546   3.464   8.143  0.1363 -0.8386 -0.2124
  792MOL0     C 6790  11.679   3.452   8.168 -0.2416 -0.8867 -0.2551
  792MOL0     C 6791  11.756   3.569   8.164  0.4226 -0.3531  0.3531
  792MOL0     C 6792  11.702   3.703   8.131  0.3899  1.1141 -0.2689
  792MOL0     O 6793  11.786   3.806   8.141  0.5957 -0.2454  0.5861
  792MOL0     C 6794  11.773   3.907   8.038 -0.2053  0.3138  0.5232
  792MOL0     C 6795  11.885   3.862   7.937  0.0237 -0.1801  0.7343
  792MOL0     C 6796  11.854   3.741   7.851 -0.0429 -0.0115  0.1425
  792MOL0     C 6797  11.952   3.626   7.877  0.0352 -0.1978 -0.6078
  792MOL0     C 6798  11.913   3.505   7.799 -0.6904 -0.4229  0.1424
  792MOL0     C 6799  11.979   3.382   7.864 -0.1324  0.6695 -0.0403
  792MOL0     C 6800  12.130   3.384   7.876 -1.3469  0.1705 -0.6886
  792MOL0     C 6801  12.202   3.350   7.745 -0.4385 -0.5129  0.3450
  792MOL0     N 6802  12.160   3.219   7.697  0.7375  0.3985  0.2366
  792MOL0     C 6803  12.172   3.106   7.767 -0.1822 -0.8469  0.8405
  792MOL0     C 6804  12.112   3.011   7.690  0.3474  1.2746  0.2054
  792MOL0     C 6805  12.090   2.872   7.742  0.5715  0.0714  0.8012
  792MOL0     C 6806  12.209   2.800   7.814  0.5470 -0.1133  0.1963
  792MOL0     C 6807  12.199   2.784   7.968 -0.3720 -0.2377  0.1786
  792MOL0     C 6808  12.260   2.661   8.032  0.1134 -0.2558 -0.3688
  792MOL0     O 6809  12.343   2.597   7.936  0.2902 -0.6715  0.2093
  792MOL0     C 6810  12.393   2.476   7.967  0.1702  0.3459  0.5750
  792MOL0     C 6811  12.444   2.399   7.863  0.3602 -0.5269 -0.6624
  792MOL0     C 6812  12.502   2.274   7.884 -0.3917 -0.6482 -0.3998
  792MOL0     C 6813  12.505   2.221   8.012  0.3794 -0.4554 -0.8057
  792MOL0     C 6814  12.577   2.098   8.045  0.0541  0.7179 -1.1990
  792MOL0     O 6815  12.630   2.090   8.175 -0.0198  0.2692  0.0321
  792MOL0     C 6816  12.679   1.966   8.208 -1.0107  0.3408  1.2974
  792MOL0     C 6817  12.601   1.850   8.205 -0.0031  1.7279 -0.9799
  792MOL0     C 6818  12.652   1.722   8.242 -0.2901 -0.1286  0.4076
  792MOL0     C 6819  12.794   1.706   8.255 -0.6955 -0.7321  0.6302
  792MOL0     O 6820  12.860   1.580   8.255  0.3580  0.6336  0.4460
  792MOL0     C 6821  12.789   1.463   8.306  0.1909  0.1082  0.5048
  792MOL0     C 6822  12.874   1.341   8.353 -0.1436 -0.9392  0.1235
  792MOL0     C 6823  12.938   1.374   8.492  0.1852 -0.9247  0.5568
  792MOL0     C 6824  13.013   1.251   8.529 -0.3614 -0.4827  0.0317
  792MOL0     C 6825  13.061   1.283   8.672 -0.0409  0.1489 -0.5847
  792MOL0     C 6826  13.141   1.158   8.718 -0.9199  0.1241 -0.1359
  792MOL0     C 6827  13.224   1.197   8.843 -0.0214 -0.1705  0.2635
  792MOL0     C 6828  13.145   1.214   8.968  1.2218  0.5410 -0.1668
  792MOL0    Cl 6829  13.254   1.248   9.104 -0.1031 -0.2755  0.1876
  792MOL0     C 6830  12.874   1.818   8.260  0.6716 -0.2854  0.1258
  792MOL0     C 6831  12.811   1.944   8.232 -0.6847 -0.9490  0.0405
  792MOL0     O 6832  12.587   2.003   7.969  0.9180  0.5293 -0.9229
  792MOL0     C 6833  12.451   2.293   8.123 -0.3586 -0.2586 -0.2945
  792MOL0     C 6834  12.402   2.420   8.099 -0.4529  0.6786 -0.4285
  792MOL0     N 6835  12.055   3.066   7.578 -0.1969 -0.3475  0.0234
  792MOL0     N 6836  12.096   3.182   7.583 -0.1939 -0.1360  0.7717
  792MOL0     C 6837  11.565   3.707   8.104 -0.3371 -0.3736 -0.2018
  792MOL0     C 6838  11.490   3.588   8.101  0.8476 -0.0445  0.0370
  792MOL0     C 6839  11.347   3.157   8.221  2.0339 -0.0661 -0.1221
  792MOL0     C 6840  11.352   3.105   8.091  0.9600 -0.1409 -0.0162
  792MOL0     C 6841  11.289   2.990   8.051  1.2673  0.3887  0.3313
  792MOL0     C 6842  11.223   2.910   8.153  0.4321 -0.6674  0.0636
  792MOL0     O 6843  11.147   2.798   8.130  0.1072  0.3079 -0.7721
  792MOL0     C 6844  11.105   2.760   7.998 -0.3364  0.2545  0.4511
  792MOL0     C 6845  10.974   2.676   8.018 -0.8690 -0.2754  0.4745
  792MOL0     C 6846  10.850   2.766   8.061  0.4596 -0.8486 -0.1729
  792MOL0     C 6847  10.719   2.680   8.078 -0.2811 -0.1627  0.9639
  792MOL0     C 6848  10.611   2.767   8.130 -0.4243  0.6868  0.0980
  792MOL0     C 6849  10.513   2.817   8.176  0.1134 -1.3798  0.0548
  792MOL0     C 6850  11.228   2.959   8.285 -0.1567  0.5442  0.1140
  792MOL0     C 6851  11.296   3.075   8.318 -0.1437  0.1645 -0.3472
  792MOL0     C 6852  11.283   3.119   8.456  0.0495  0.2356  0.0933
  792MOL0     H 6853  11.728   3.357   8.189  0.6213 -0.6139 -0.9511
  792MOL0     H 6854  11.860   3.567   8.195  0.0415 -0.5992  1.6736
  792MOL0     H 6855  11.676   3.906   7.988  1.1770  0.5384 -2.3534
  792MOL0     H 6856  11.793   4.007   8.076 -1.3786  1.6098 -2.0478
  792MOL0     H 6857  11.973   3.853   8.001  1.6658  0.3769 -1.3624
  792MOL0     H 6858  11.895   3.939   7.860  0.8554  0.9462  1.9202
  792MOL0     H 6859  11.870   3.774   7.748  0.1033 -0.1178  0.1311
  792MOL0     H 6860  11.748   3.713   7.846  0.1079 -0.4344 -1.2555
  792MOL0     H 6861  12.057   3.650   7.856 -0.1019  1.9469  0.8084
  792MOL0     H 6862  11.955   3.606   7.985 -0.4010 -0.0526 -0.5663
  792MOL0     H 6863  11.804   3.498   7.794 -0.6711 -0.1895 -0.8604
  792MOL0     H 6864  11.948   3.527   7.697  4.1938  1.7868  1.9711
  792MOL0     H 6865  11.940   3.372   7.966  0.0841  3.5896  0.4194
  792MOL0     H 6866  11.949   3.288   7.817 -0.7967 -0.5798  2.7125
  792MOL0     H 6867  12.173   3.308   7.942  2.0859  0.2225 -2.6298
  792MOL0     H 6868  12.168   3.473   7.927 -1.9020  0.3785 -0.6269
  792MOL0     H 6869  12.176   3.419   7.664 -1.7139 -0.7347  0.5398
  792MOL0     H 6870  12.310   3.363   7.756 -0.1582  1.8033 -3.3619
  792MOL0     H 6871  12.208   3.095   7.868  0.8074 -2.8391  0.3126
  792MOL0     H 6872  11.998   2.866   7.802  0.4345  0.0001  0.5840
  792MOL0     H 6873  12.072   2.808   7.655  0.2489 -0.4122  1.2170
  792MOL0     H 6874  12.204   2.703   7.763  3.9066  0.0919 -0.8050
  792MOL0     H 6875  12.307   2.847   7.798  1.1356 -1.3344  0.0754
  792MOL0     H 6876  12.093   2.792   7.991 -0.6534 -1.7472 -0.4882
  792MOL0     H 6877  12.239   2.865   8.030  1.7380 -2.4007  1.8422
  792MOL0     H 6878  12.173   2.607   8.068  0.8846 -0.3237  1.4800
  792MOL0     H 6879  12.325   2.697   8.112  0.3491  0.5184 -0.8935
  792MOL0     H 6880  12.441   2.460   7.773  0.8848  3.2810  1.6867
  792MOL0     H 6881  12.560   2.222   7.810 -1.3822  0.7720 -2.2683
  792MOL0     H 6882  12.495   1.864   8.186 -0.9110 -0.2529  1.9129
  792MOL0     H 6883  12.589   1.635   8.233  1.7560 -1.4848 -2.0486
  792MOL0     H 6884  12.736   1.493   8.396 -0.7275  0.5534 -0.1664
  792MOL0     H 6885  12.715   1.420   8.238  0.8911 -1.8022  0.8825
  792MOL0     H 6886  12.809   1.252   8.353  0.3559 -1.3062  0.2157
  792MOL0     H 6887  12.947   1.320   8.274 -1.6351  0.2590 -1.6791
  792MOL0     H 6888  12.997   1.465   8.495 -2.7340  1.0967  0.8052
  792MOL0     H 6889  12.858   1.380   8.567 -0.4295  1.5651 -0.2272
  792MOL0     H 6890  13.091   1.218   8.459 -0.4587  0.9204 -0.7823
  792MOL0     H 6891  12.940   1.170   8.529 -0.3877 -0.4704 -0.8324
  792MOL0     H 6892  12.977   1.302   8.740  2.4695 -1.8604  3.4624
  792MOL0     H 6893  13.128   1.370   8.671  1.4941 -0.8455  2.4020
  792MOL0     H 6894  13.076   1.072   8.736 -0.8715 -0.3268 -1.9544
  792MOL0     H 6895  13.212   1.121   8.643  1.3482  1.5237  1.2202
  792MOL0     H 6896  13.275   1.290   8.818 -0.8984 -0.3546 -2.6179
  792MOL0     H 6897  13.301   1.122   8.866  0.2315  0.4318  1.4579
  792MOL0     H 6898  13.067   1.290   8.955  2.1756  1.6647  0.5910
  792MOL0     H 6899  13.094   1.120   8.990 -0.7970  2.1161  2.4561
  792MOL0     H 6900  12.980   1.807   8.276  1.1694  1.1348 -1.7967
  792MOL0     H 6901  12.880   2.027   8.230  1.2890 -2.5392 -1.1328
  792MOL0     H 6902  12.459   2.261   8.227  1.2931 -0.8875 -0.5816
  792MOL0     H 6903  12.384   2.480   8.187  3.6456  1.2566  0.2216
  792MOL0     H 6904  11.525   3.803   8.073 -0.1750 -0.2722 -0.0983
  792MOL0     H 6905  11.386   3.578   8.068  1.8965 -5.5807 -2.8047
  792MOL0     H 6906  11.377   3.163   8.003 -0.3325  1.3595  0.5583
  792MOL0     H 6907  11.280   2.956   7.948  3.3474 -4.6799  1.5045
  792MOL0     H 6908  11.176   2.695   7.946 -1.3422 -1.4843  1.1596
  792MOL0     H 6909  11.083   2.853   7.945 -0.9695  0.3696  0.9005
  792MOL0     H 6910  10.999   2.601   8.094 -0.2030  0.7400  1.2926
  792MOL0     H 6911  10.948   2.625   7.925 -2.0846  0.0672  0.5981
  792MOL0     H 6912  10.835   2.850   7.992 -0.6361  0.9722  2.1321
  792MOL0     H 6913  10.885   2.817   8.151  1.6429 -1.5787 -0.1974
  792MOL0     H 6914  10.692   2.634   7.982 -0.6170  1.0771  0.4395
  792MOL0     H 6915  10.725   2.598   8.149 -0.7327 -1.9982 -1.0046
  792MOL0     H 6916  10.424   2.867   8.209 -1.4698 -2.1922 -2.6515
  792MOL0     H 6917  11.174   2.903   8.361 -0.0121  1.2362  0.7383
  792MOL0     H 6918  11.235   3.045   8.521 -2.5731  1.2282 -0.5942
  792MOL0     H 6919  11.386   3.127   8.493  0.9888 -0.4264 -2.1903
  792MOL0     H 6920  11.231   3.215   8.459  0.8263  0.7071 -1.1216
  793MOL0     O 6921  11.321   7.423   0.530 -0.6296 -0.0121  0.3857
  793MOL0     C 6922  11.384   7.530   0.538 -0.2838 -0.7248  0.7313
  793MOL0     O 6923  11.516   7.553   0.504 -0.1001 -0.2172 -0.9826
  793MOL0     C 6924  11.591   7.444   0.471 -0.3682  0.2362  0.6356
  793MOL0     C 6925  11.637   7.352   0.567 -1.0493 -0.5638 -0.3735
  793MOL0     C 6926  11.720   7.243   0.526 -0.7857  0.6374 -0.1123
  793MOL0     C 6927  11.764   7.216   0.392  0.0902 -0.4010 -0.2336
  793MOL0     O 6928  11.846   7.111   0.352  0.5397 -0.0748  0.6837
  793MOL0     C 6929  11.894   7.024   0.449 -0.3368 -0.2366  0.2370
  793MOL0     C 6930  11.968   6.903   0.381 -0.2086 -0.1340 -0.0145
  793MOL0     C 6931  11.889   6.845   0.267 -0.4805  0.4579  0.0932
  793MOL0     C 6932  11.934   6.698   0.228  0.2836 -0.4231  0.8834
  793MOL0     C 6933  11.879   6.600   0.338 -1.1757 -0.0610  0.6283
  793MOL0     C 6934  11.944   6.464   0.336 -0.7271  0.1265 -1.3073
  793MOL0     C 6935  12.089   6.467   0.385 -0.7308 -0.2650  0.2839
  793MOL0     C 6936  12.115   6.478   0.533  1.2927 -0.0161 -0.6535
  793MOL0     N 6937  12.257   6.464   0.561 -0.7725 -0.3467  0.7873
  793MOL0     C 6938  12.330   6.348   0.559 -0.4641 -0.4086 -0.1645
  793MOL0     C 6939  12.459   6.388   0.597 -0.6670  0.0797  0.1869
  793MOL0     C 6940  12.584   6.298   0.583  1.2201 -0.0740 -0.4965
  793MOL0     C 6941  12.657   6.308   0.442  0.4237 -0.8090  0.5580
  793MOL0     C 6942  12.553   6.284   0.319 -0.4655  0.3203  0.2196
  793MOL0     C 6943  12.623   6.271   0.189 -0.9920  0.4211 -0.4830
  793MOL0     O 6944  12.691   6.400   0.154  0.2407 -0.8363  0.1495
  793MOL0     C 6945  12.731   6.419   0.022 -0.3611  0.2820  0.0233
  793MOL0     C 6946  12.719   6.336  -0.095 -0.3909 -0.4002  1.2140
  793MOL0     C 6947  12.774   6.389  -0.216  0.3228 -0.1073  0.1963
  793MOL0     C 6948  12.831   6.511  -0.240 -0.3432  1.0454 -0.4331
  793MOL0     C 6949  12.879   6.552  -0.372  0.8296  0.2457 -0.4014
  793MOL0     O 6950  13.014   6.553  -0.395 -0.0248 -0.7717 -0.1319
  793MOL0     C 6951  13.085   6.461  -0.340  0.2774  0.2431  0.4200
  793MOL0     C 6952  13.139   6.486  -0.210  0.8125 -0.1599  0.5074
  793MOL0     C 6953  13.238   6.403  -0.166 -0.7871  0.3763  0.2870
  793MOL0     C 6954  13.278   6.288  -0.233  0.3517 -0.4186  0.2884
  793MOL0     O 6955  13.360   6.199  -0.167  0.0159 -0.2787  0.0297
  793MOL0     C 6956  13.482   6.244  -0.099  0.4189 -0.2697  0.3905
  793MOL0     C 6957  13.578   6.122  -0.081 -0.5519 -0.2087 -0.1356
  793MOL0     C 6958  13.723   6.160  -0.071  0.4584  0.1354  0.4547
  793MOL0     C 6959  13.754   6.278   0.023  0.1896 -0.4310 -0.4546
  793MOL0     C 6960  13.905   6.323   0.046 -0.5482 -0.5064  0.0639
  793MOL0     C 6961  13.948   6.391   0.189 -0.3680 -0.2838  0.2899
  793MOL0     C 6962  14.053   6.498   0.164 -0.3583  0.1763  0.0515
  793MOL0     C 6963  14.097   6.554   0.300  0.2106  0.2942  0.2346
  793MOL0    Cl 6964  14.226   6.692   0.301  0.0172  0.0326 -0.1344
  793MOL0     C 6965  13.236   6.263  -0.360  0.5853  0.2823  0.3538
  793MOL0     C 6966  13.141   6.356  -0.412 -1.0591  0.0467  0.8693
  793MOL0     O 6967  12.794   6.594  -0.451  0.7532  0.3972 -0.0010
  793MOL0     C 6968  12.832   6.594  -0.129 -0.1656  0.0621 -0.4429
  793MOL0     C 6969  12.788   6.548  -0.005 -0.1603  0.1121  0.2546
  793MOL0     N 6970  12.453   6.522   0.615 -0.5052  0.4376  0.3715
  793MOL0     N 6971  12.336   6.569   0.605  0.2678  0.2847  0.0004
  793MOL0     C 6972  11.721   7.316   0.302  0.2605 -0.0498 -0.2410
  793MOL0     C 6973  11.636   7.426   0.338 -0.1396  0.4142  0.5581
  793MOL0     C 6974  11.305   7.651   0.547  0.0771  0.0743 -0.4963
  793MOL0     C 6975  11.375   7.775   0.534  0.6960 -0.2393  0.1296
  793MOL0     C 6976  11.307   7.890   0.554 -0.1178 -0.6950  0.4984
  793MOL0     C 6977  11.173   7.894   0.585 -0.0579 -0.8070  0.6015
  793MOL0     O 6978  11.128   8.024   0.614  0.0775  0.6503 -0.3273
  793MOL0     C 6979  10.985   8.055   0.620  0.0428 -0.0509 -0.6236
  793MOL0     C 6980  10.939   8.043   0.470 -0.1876 -0.0033 -0.7928
  793MOL0     C 6981  10.826   8.141   0.430  0.3257  0.6108 -0.7448
  793MOL0     C 6982  10.764   8.122   0.281 -0.8644  0.3061  0.1148
  793MOL0     C 6983  10.665   8.007   0.279  1.2891 -0.5979  1.0066
  793MOL0     C 6984  10.589   7.908   0.291  0.0162 -0.7978  0.1170
  793MOL0     C 6985  11.099   7.777   0.578 -0.3173  0.4520 -0.2181
  793MOL0     C 6986  11.166   7.649   0.566  1.0699  0.5296 -0.4364
  793MOL0     C 6987  11.069   7.532   0.582 -0.8551  0.0949  0.0844
  793MOL0     H 6988  11.607   7.358   0.671 -0.6217 -1.5161 -0.1853
  793MOL0     H 6989  11.754   7.166   0.594 -0.8649  0.1501 -0.6220
  793MOL0     H 6990  11.962   7.079   0.515  1.0179  1.1354 -2.1423
  793MOL0     H 6991  11.811   6.974   0.499  0.2373 -1.2365  0.2087
  793MOL0     H 6992  11.989   6.832   0.461 -0.0539 -1.1548 -0.9416
  793MOL0     H 6993  12.060   6.953   0.347 -0.4159  1.1936  1.2758
  793MOL0     H 6994  11.886   6.909   0.179 -1.1766 -0.6367 -0.6971
  793MOL0     H 6995  11.788   6.834   0.308  0.2139 -0.1990  1.7345
  793MOL0     H 6996  11.904   6.677   0.125  1.2595  1.9906  0.0399
  793MOL0     H 6997  12.043   6.687   0.225  0.4191  0.9911 -0.6269
  793MOL0     H 6998  11.895   6.650   0.435  3.0527 -2.6561  1.5627
  793MOL0     H 6999  11.773   6.593   0.313 -2.1364  0.7890  3.9271
  793MOL0     H 7000  11.892   6.401   0.409 -1.3627 -1.3721 -2.9815
  793MOL0     H 7001  11.931   6.420   0.236  0.5550 -0.4219 -1.2410
  793MOL0     H 7002  12.137   6.559   0.349 -2.2292  1.0282  1.4520
  793MOL0     H 7003  12.144   6.378   0.353  2.5730  2.6639 -3.2240
  793MOL0     H 7004  12.061   6.558   0.585 -0.3618 -0.8070 -1.0697
  793MOL0     H 7005  12.066   6.390   0.577 -0.4464  1.7734  1.2163
  793MOL0     H 7006  12.285   6.252   0.536 -2.2421 -0.2414  2.2122
  793MOL0     H 7007  12.655   6.333   0.658 -1.3750  1.3451  1.4446
  793MOL0     H 7008  12.560   6.192   0.596  0.7770 -0.8914 -5.8399
  793MOL0     H 7009  12.696   6.410   0.432 -0.6309 -0.5038 -0.7523
  793MOL0     H 7010  12.746   6.245   0.442  0.7875 -0.3760 -1.3423
  793MOL0     H 7011  12.474   6.356   0.293 -0.6003 -0.6097 -2.1234
  793MOL0     H 7012  12.509   6.187   0.340  0.6624 -0.5186 -1.1554
  793MOL0     H 7013  12.544   6.237   0.120 -2.3943 -2.1302  2.1487
  793MOL0     H 7014  12.691   6.187   0.204 -2.2915 -0.6871 -0.5106
  793MOL0     H 7015  12.660   6.245  -0.087 -0.1398 -0.9288 -1.8874
  793MOL0     H 7016  12.771   6.314  -0.295 -3.5861  0.3996 -0.3504
  793MOL0     H 7017  13.120   6.582  -0.162  0.5706  2.3322 -3.9514
  793MOL0     H 7018  13.276   6.414  -0.065  0.2066  0.4942 -0.0802
  793MOL0     H 7019  13.516   6.318  -0.172 -0.6594  0.4167  0.5623
  793MOL0     H 7020  13.457   6.290  -0.004 -1.5740 -1.4653  0.5053
  793MOL0     H 7021  13.545   6.067   0.007  1.0795 -0.3406  0.4312
  793MOL0     H 7022  13.565   6.057  -0.168 -0.7281 -0.6746  0.2398
  793MOL0     H 7023  13.788   6.074  -0.050  2.8959  0.5389 -4.1864
  793MOL0     H 7024  13.755   6.202  -0.167  3.4223 -0.1587  1.2082
  793MOL0     H 7025  13.705   6.247   0.115  1.6266 -0.9254  0.1832
  793MOL0     H 7026  13.710   6.370  -0.016  0.3223  0.2368  0.9207
  793MOL0     H 7027  13.927   6.392  -0.037  0.2761 -0.5506  0.2375
  793MOL0     H 7028  13.972   6.240   0.026  1.8118  0.9311  1.5514
  793MOL0     H 7029  13.852   6.434   0.218 -0.6874 -1.5600  1.2074
  793MOL0     H 7030  13.975   6.316   0.264 -1.6750 -0.6283  0.4266
  793MOL0     H 7031  14.015   6.579   0.101  1.4608  1.8485  0.9797
  793MOL0     H 7032  14.142   6.462   0.113  2.1225 -0.5064  4.3429
  793MOL0     H 7033  14.011   6.608   0.342 -2.0789 -1.8081 -1.4386
  793MOL0     H 7034  14.140   6.475   0.361 -2.4888 -2.1910 -0.8192
  793MOL0     H 7035  13.284   6.189  -0.423  4.2856  0.4136  2.7216
  793MOL0     H 7036  13.118   6.333  -0.516 -2.3311 -1.2450  1.3991
  793MOL0     H 7037  12.877   6.692  -0.137  1.1509 -0.1759  2.5037
  793MOL0     H 7038  12.799   6.628   0.068  0.9430 -0.3680  0.6447
  793MOL0     H 7039  11.764   7.304   0.203 -0.5752  1.2560 -0.7857
  793MOL0     H 7040  11.603   7.492   0.259  4.0182 -0.1639 -1.9570
  793MOL0     H 7041  11.481   7.791   0.519  0.1927  2.8187 -0.6849
  793MOL0     H 7042  11.370   7.979   0.556 -0.5923 -0.2445 -1.6803
  793MOL0     H 7043  10.966   8.156   0.656  0.9260  1.0726 -3.1167
  793MOL0     H 7044  10.933   7.980   0.680 -1.0123 -0.6804 -2.2656
  793MOL0     H 7045  10.906   7.938   0.464  3.0106 -1.1708  0.1016
  793MOL0     H 7046  11.027   8.060   0.408 -2.1118  2.0510 -3.1850
  793MOL0     H 7047  10.873   8.239   0.443  0.5175  0.5444 -0.9293
  793MOL0     H 7048  10.744   8.140   0.502  1.9000  3.0472  1.2791
  793MOL0     H 7049  10.708   8.210   0.249 -0.4572  0.9499  1.1249
  793MOL0     H 7050  10.837   8.104   0.202 -2.4859  0.7302 -1.5507
  793MOL0     H 7051  10.516   7.831   0.303  0.9043 -1.3121  3.0769
  793MOL0     H 7052  10.996   7.773   0.612  0.4485 -0.9967  2.2589
  793MOL0     H 7053  10.962   7.556   0.585 -0.5052  1.8312  0.0847
  793MOL0     H 7054  11.069   7.465   0.496 -3.2752  0.8803 -0.6212
  793MOL0     H 7055  11.090   7.480   0.676  2.1333  0.4991 -0.2612
  794MOL0     O 7056   8.989   9.437   5.204  0.0540 -0.0851 -0.3218
  794MOL0     C 7057   9.105   9.416   5.244  0.8123  0.3424  0.0563
  794MOL0     O 7058   9.131   9.290   5.311  0.1483 -0.3700 -0.2707
  794MOL0     C 7059   9.033   9.190   5.332  0.3125  0.7547 -0.3836
  794MOL0     C 7060   9.053   9.114   5.444 -0.0948  0.5212 -0.8083
  794MOL0     C 7061   8.946   9.039   5.499  0.1851 -0.8626  1.1157
  794MOL0     C 7062   8.838   9.008   5.424 -0.5495  0.6268 -0.0572
  794MOL0     O 7063   8.742   8.908   5.451  0.3698 -0.6742  0.7299
  794MOL0     C 7064   8.733   8.852   5.585 -0.4626 -0.2521 -0.6306
  794MOL0     C 7065   8.660   8.942   5.685 -0.6789 -0.4519 -0.2800
  794MOL0     C 7066   8.516   8.959   5.644 -1.2107  1.5981 -0.0578
  794MOL0     C 7067   8.443   9.025   5.757 -0.4694 -0.3654  0.1016
  794MOL0     C 7068   8.284   9.037   5.731 -0.0178  0.1300 -0.4992
  794MOL0     C 7069   8.213   8.907   5.778 -1.0737  0.1057  0.3962
  794MOL0     C 7070   8.060   8.916   5.742 -0.1267 -0.3318 -0.2667
  794MOL0     C 7071   7.990   8.774   5.743 -0.8193  0.2379 -0.0738
  794MOL0     N 7072   8.047   8.699   5.634 -0.5795  1.0310  0.1115
  794MOL0     C 7073   8.095   8.722   5.511 -0.1290  0.3397 -0.0398
  794MOL0     C 7074   8.140   8.602   5.464 -0.1275 -0.1608 -0.2139
  794MOL0     C 7075   8.222   8.560   5.338 -0.0730  0.4390  0.5757
  794MOL0     C 7076   8.375   8.562   5.364  0.2316  1.3593 -0.5562
  794MOL0     C 7077   8.456   8.560   5.244 -0.7331  0.6847  0.0921
  794MOL0     C 7078   8.441   8.429   5.168  0.5405 -0.6100 -0.1519
  794MOL0     O 7079   8.471   8.316   5.250  0.1701  0.6954 -0.2402
  794MOL0     C 7080   8.600   8.269   5.264  0.3045  0.4962  0.5255
  794MOL0     C 7081   8.672   8.216   5.158  0.4422  0.1813  0.0646
  794MOL0     C 7082   8.813   8.189   5.174 -0.2188 -0.6348 -0.6209
  794MOL0     C 7083   8.886   8.225   5.291  0.5635 -0.6762  0.3483
  794MOL0     C 7084   9.032   8.205   5.300  0.9998 -0.2680 -0.0511
  794MOL0     O 7085   9.073   8.103   5.221  0.4214 -0.5653 -0.4900
  794MOL0     C 7086   9.207   8.068   5.234  0.6942  0.2337  0.1250
  794MOL0     C 7087   9.282   8.078   5.117  0.3470  1.3384 -0.8608
  794MOL0     C 7088   9.419   8.038   5.118  0.6264  0.8365  0.0509
  794MOL0     C 7089   9.476   7.985   5.235  0.1804 -0.0004  0.3260
  794MOL0     O 7090   9.609   7.943   5.240  0.3560 -0.5610  0.7771
  794MOL0     C 7091   9.634   7.833   5.150 -0.5495  0.3663  0.1928
  794MOL0     C 7092   9.613   7.707   5.220  0.2537  0.2336  0.7506
  794MOL0     C 7093   9.584   7.594   5.108 -0.1487 -0.0038 -0.3187
  794MOL0     C 7094   9.698   7.578   4.999  1.0201  1.1447 -0.4847
  794MOL0     C 7095   9.686   7.470   4.890  0.3265 -0.0243 -0.2339
  794MOL0     C 7096   9.746   7.333   4.912 -0.4613  0.9969 -0.0472
  794MOL0     C 7097   9.669   7.217   4.829  1.0911 -0.1826  0.2338
  794MOL0     C 7098   9.760   7.103   4.803  0.0392 -0.0647 -0.1061
  794MOL0    Cl 7099   9.785   7.020   4.957  0.6174  0.0269  0.4559
  794MOL0     C 7100   9.398   7.981   5.354 -0.1267  0.1626  0.5511
  794MOL0     C 7101   9.264   8.012   5.355  0.1594  0.0157 -0.1675
  794MOL0     O 7102   9.096   8.267   5.382 -0.0094  0.5996 -0.4141
  794MOL0     C 7103   8.813   8.289   5.390 -0.4398  0.3829  0.4629
  794MOL0     C 7104   8.668   8.303   5.383  0.2246 -0.2216  0.8463
  794MOL0     N 7105   8.116   8.505   5.561  0.6209  0.4946  0.0937
  794MOL0     N 7106   8.069   8.560   5.655 -0.5677 -0.7837  0.0477
  794MOL0     C 7107   8.825   9.074   5.303 -0.1213  0.1968  0.5035
  794MOL0     C 7108   8.919   9.170   5.256  0.1021 -0.0676  0.0900
  794MOL0     C 7109   9.217   9.516   5.240  0.8503 -0.2384 -1.2446
  794MOL0     C 7110   9.312   9.499   5.343 -0.2110 -0.0377  1.0902
  794MOL0     C 7111   9.415   9.590   5.359 -0.3849 -0.7054  0.2872
  794MOL0     C 7112   9.431   9.696   5.257 -0.6300  0.5006  0.1844
  794MOL0     O 7113   9.532   9.788   5.265  0.0707 -0.2457  0.2281
  794MOL0     C 7114   9.612   9.794   5.386  0.1972 -0.2332 -0.6906
  794MOL0     C 7115   9.707   9.917   5.367 -0.0295 -0.7445  0.1811
  794MOL0     C 7116   9.813   9.938   5.473  1.0075  0.2576 -0.2682
  794MOL0     C 7117   9.841  10.083   5.509 -0.6210 -0.0201 -0.4886
  794MOL0     C 7118   9.975  10.083   5.575  0.2165  0.8606  0.4234
  794MOL0     C 7119  10.089  10.078   5.622  0.4566 -0.1430 -0.0127
  794MOL0     C 7120   9.343   9.697   5.150 -0.0973 -0.0269  0.4068
  794MOL0     C 7121   9.233   9.611   5.139  0.2535  0.1825 -0.2691
  794MOL0     C 7122   9.150   9.615   5.021 -0.3379  0.6311 -0.6315
  794MOL0     H 7123   9.146   9.130   5.499  0.1444 -3.1430  0.1322
  794MOL0     H 7124   8.968   9.000   5.598 -0.4388  0.2028  1.6914
  794MOL0     H 7125   8.683   8.755   5.580 -1.1207 -0.2395  2.8179
  794MOL0     H 7126   8.833   8.830   5.625  0.0444  2.3506 -0.2725
  794MOL0     H 7127   8.700   9.044   5.686 -3.3176  0.7161 -2.3606
  794MOL0     H 7128   8.662   8.893   5.783 -2.9182 -2.8606 -1.2962
  794MOL0     H 7129   8.467   8.864   5.620  0.9411  0.2906  0.4425
  794MOL0     H 7130   8.513   9.011   5.548 -0.7430 -2.2692 -2.3424
  794MOL0     H 7131   8.452   8.962   5.846  1.6120 -0.4548 -0.1321
  794MOL0     H 7132   8.482   9.122   5.787  0.5567 -0.5811 -0.5163
  794MOL0     H 7133   8.236   9.113   5.793 -1.4084  2.0201 -3.6189
  794MOL0     H 7134   8.263   9.072   5.629 -1.9910  3.3733  0.8492
  794MOL0     H 7135   8.275   8.827   5.737  0.0121  1.6285 -1.0139
  794MOL0     H 7136   8.230   8.901   5.886 -1.3141  4.6479  0.8718
  794MOL0     H 7137   8.044   8.968   5.648  0.4800  3.0757  1.3528
  794MOL0     H 7138   8.014   8.983   5.815 -1.1780 -2.8131  1.5235
  794MOL0     H 7139   8.022   8.723   5.835 -0.8291  0.4846  0.0654
  794MOL0     H 7140   7.881   8.781   5.744 -0.6990  2.7860  0.2104
  794MOL0     H 7141   8.095   8.818   5.462 -0.1600  0.1435 -0.4264
  794MOL0     H 7142   8.190   8.463   5.300 -1.1096  0.7083  0.7176
  794MOL0     H 7143   8.204   8.640   5.266  2.2562  2.6103  2.2263
  794MOL0     H 7144   8.405   8.643   5.431  1.8769  0.9820 -0.7779
  794MOL0     H 7145   8.399   8.485   5.438 -0.6042  4.4085  3.2280
  794MOL0     H 7146   8.564   8.579   5.249 -0.5543 -0.1430 -0.3690
  794MOL0     H 7147   8.420   8.650   5.193  1.8412  2.4299  1.1394
  794MOL0     H 7148   8.509   8.433   5.083  1.0420  2.2835  0.2852
  794MOL0     H 7149   8.339   8.418   5.129  0.1330 -1.6470  1.1117
  794MOL0     H 7150   8.617   8.204   5.066  1.7069  1.6051 -0.9330
  794MOL0     H 7151   8.854   8.138   5.088 -0.7391  0.0680 -1.3065
  794MOL0     H 7152   9.230   8.112   5.028 -1.1592  1.2867 -0.0338
  794MOL0     H 7153   9.470   8.027   5.022  2.6388  1.8194  0.9524
  794MOL0     H 7154   9.596   7.836   5.048  0.6455 -1.0590 -0.3351
  794MOL0     H 7155   9.742   7.852   5.140 -0.8045  2.0381  0.3233
  794MOL0     H 7156   9.704   7.692   5.279 -0.6731 -0.2877  2.0851
  794MOL0     H 7157   9.518   7.712   5.274  0.8253  3.0867  1.6850
  794MOL0     H 7158   9.576   7.492   5.146 -0.4080  0.2665  0.3901
  794MOL0     H 7159   9.487   7.613   5.061 -0.4839 -2.8512 -0.9126
  794MOL0     H 7160   9.793   7.559   5.051  1.7394 -0.9800 -2.4513
  794MOL0     H 7161   9.706   7.676   4.950 -2.3753  0.8627 -1.8640
  794MOL0     H 7162   9.720   7.510   4.794 -0.7132 -2.6528 -1.8162
  794MOL0     H 7163   9.577   7.455   4.883  0.6925 -4.3722  0.5738
  794MOL0     H 7164   9.846   7.346   4.869 -1.9535  2.4860 -3.4069
  794MOL0     H 7165   9.745   7.314   5.020 -0.1474  1.6386  0.0742
  794MOL0     H 7166   9.637   7.275   4.741  2.1138  0.2755  0.1459
  794MOL0     H 7167   9.579   7.185   4.881 -0.1558  3.0632  0.3493
  794MOL0     H 7168   9.699   7.031   4.747  0.5353 -0.3686 -0.2590
  794MOL0     H 7169   9.853   7.123   4.750 -0.7207  1.4861 -0.9156
  794MOL0     H 7170   9.450   7.971   5.448  1.8464  0.3660 -0.4789
  794MOL0     H 7171   9.208   8.004   5.447  1.2701  0.3024  0.5533
  794MOL0     H 7172   8.868   8.320   5.478  2.4257 -0.7509 -0.8029
  794MOL0     H 7173   8.601   8.347   5.456 -0.3596 -2.6296  1.8590
  794MOL0     H 7174   8.735   9.055   5.245  0.2076 -1.6104  0.5213
  794MOL0     H 7175   8.894   9.222   5.164  2.3970 -2.2061 -1.8779
  794MOL0     H 7176   9.317   9.416   5.413 -1.7986 -1.9679 -0.9150
  794MOL0     H 7177   9.478   9.574   5.446  1.1480 -0.5990 -0.7550
  794MOL0     H 7178   9.670   9.707   5.420 -1.1743 -0.8231  0.2464
  794MOL0     H 7179   9.547   9.824   5.469  0.8230 -2.0094  0.5004
  794MOL0     H 7180   9.636  10.001   5.365  0.7944  0.0515  2.1708
  794MOL0     H 7181   9.756   9.904   5.270  1.0877 -0.0459  0.6359
  794MOL0     H 7182   9.898   9.888   5.425 -0.9993 -0.6351 -3.1290
  794MOL0     H 7183   9.785   9.891   5.568 -0.0064 -0.4422 -0.9001
  794MOL0     H 7184   9.851  10.145   5.420 -0.0867  1.1781  0.3779
  794MOL0     H 7185   9.758  10.132   5.561  0.1733 -1.4111  2.2776
  794MOL0     H 7186  10.194  10.073   5.646  1.0444 -1.7401 -2.5908
  794MOL0     H 7187   9.357   9.770   5.071  0.8863 -1.9119 -1.2725
  794MOL0     H 7188   9.063   9.673   5.053  0.2265  1.4484 -0.5212
  794MOL0     H 7189   9.207   9.662   4.941  2.9673  1.1694  1.7977
  794MOL0     H 7190   9.117   9.514   5.000  0.3288  0.3221 -0.2443
  795MOL0     O 7191   2.625   4.719   8.712  0.3411  0.1323  0.3632
  795MOL0     C 7192   2.567   4.696   8.602  0.7658  0.8720  0.6582
  795MOL0     O 7193   2.610   4.731   8.477  0.1009 -0.0775 -0.4963
  795MOL0     C 7194   2.737   4.791   8.468 -0.1167 -0.4457  0.5500
  795MOL0     C 7195   2.855   4.750   8.532  0.3227  0.3564  0.3953
  795MOL0     C 7196   2.979   4.805   8.517  0.2195 -0.3306  0.7143
  795MOL0     C 7197   2.988   4.921   8.442  1.2569 -0.2025  0.4241
  795MOL0     O 7198   3.093   5.006   8.426  1.1610  0.5199 -0.0593
  795MOL0     C 7199   3.205   4.992   8.520  0.0481 -0.3652 -0.6971
  795MOL0     C 7200   3.288   4.879   8.463  0.7868  0.0900  0.4071
  795MOL0     C 7201   3.388   4.928   8.359 -0.6352  0.2914 -0.5257
  795MOL0     C 7202   3.514   4.848   8.346 -0.4745 -1.0507 -0.3474
  795MOL0     C 7203   3.490   4.717   8.276  0.5445 -0.9180 -0.4767
  795MOL0     C 7204   3.594   4.610   8.285 -0.3896 -0.1037  0.4471
  795MOL0     C 7205   3.547   4.504   8.175 -0.0228 -0.2553  0.1770
  795MOL0     C 7206   3.649   4.396   8.158  0.8130 -0.2591 -0.4715
  795MOL0     N 7207   3.791   4.442   8.151  0.0089  0.1031 -0.0063
  795MOL0     C 7208   3.881   4.390   8.241 -0.7158  0.4167  0.0518
  795MOL0     C 7209   4.003   4.433   8.199 -1.1624  0.5062 -0.1754
  795MOL0     C 7210   4.141   4.391   8.260 -0.6098 -0.4568 -0.1895
  795MOL0     C 7211   4.182   4.488   8.369  0.1007 -0.8419 -0.5929
  795MOL0     C 7212   4.084   4.506   8.491 -1.0251 -0.2419  0.7256
  795MOL0     C 7213   4.131   4.568   8.613  0.8523 -0.5356 -0.5917
  795MOL0     O 7214   4.069   4.498   8.728 -0.4256  0.0368 -0.0024
  795MOL0     C 7215   3.938   4.532   8.755 -0.1474 -0.5341 -0.6231
  795MOL0     C 7216   3.866   4.444   8.834  0.9535 -1.0861  0.3806
  795MOL0     C 7217   3.737   4.485   8.885 -0.2165  0.5981  0.1802
  795MOL0     C 7218   3.679   4.600   8.845 -0.5156  0.1363  0.5790
  795MOL0     C 7219   3.547   4.622   8.883  0.6719  0.1960 -0.1882
  795MOL0     O 7220   3.469   4.691   8.791  0.0611  0.4100  0.3642
  795MOL0     C 7221   3.342   4.718   8.830  0.0054  0.3430 -0.7984
  795MOL0     C 7222   3.239   4.622   8.823 -0.1252  0.3203  0.6106
  795MOL0     C 7223   3.120   4.639   8.894 -0.9845 -0.1995  0.4149
  795MOL0     C 7224   3.096   4.759   8.964 -0.0599 -0.0273  0.3906
  795MOL0     O 7225   2.987   4.767   9.043  0.2183  0.2434  0.3386
  795MOL0     C 7226   2.875   4.822   8.971 -0.0159 -0.3666 -0.9312
  795MOL0     C 7227   2.790   4.874   9.073  0.7457  0.0743 -0.5081
  795MOL0     C 7228   2.737   4.777   9.180  0.1538  0.6690  0.7369
  795MOL0     C 7229   2.664   4.845   9.301  0.3187 -0.3645  0.0851
  795MOL0     C 7230   2.623   4.730   9.399  0.4288  0.8972  0.0691
  795MOL0     C 7231   2.528   4.778   9.515 -0.0256  0.2424  0.3051
  795MOL0     C 7232   2.582   4.902   9.583  0.6975  0.0061  0.3145
  795MOL0     C 7233   2.712   4.872   9.655 -0.0137 -0.0468 -0.8310
  795MOL0    Cl 7234   2.729   4.991   9.780  0.0723 -0.2183 -0.0803
  795MOL0     C 7235   3.191   4.859   8.964 -0.2301  0.2935  0.8034
  795MOL0     C 7236   3.313   4.836   8.898  0.7646  0.1176  0.2891
  795MOL0     O 7237   3.505   4.581   8.999  0.4768  0.1016  0.3613
  795MOL0     C 7238   3.759   4.687   8.767 -0.2327 -0.1923  0.5665
  795MOL0     C 7239   3.888   4.661   8.728 -0.3385  0.4119  0.3254
  795MOL0     N 7240   3.990   4.498   8.079 -0.1589 -0.3335 -1.2700
  795MOL0     N 7241   3.865   4.497   8.044  0.3118  0.1584 -0.5152
  795MOL0     C 7242   2.878   4.955   8.360  0.3887 -0.6029 -0.9115
  795MOL0     C 7243   2.750   4.904   8.377 -0.2153  0.3085 -0.2286
  795MOL0     C 7244   2.419   4.658   8.603  0.1556 -0.0008 -0.1506
  795MOL0     C 7245   2.331   4.673   8.486  0.3075  0.0023 -0.7515
  795MOL0     C 7246   2.204   4.618   8.482  0.3922  0.3623 -0.1096
  795MOL0     C 7247   2.146   4.558   8.598 -0.7477 -0.3512 -0.6046
  795MOL0     O 7248   2.015   4.513   8.596  0.3592  0.9129 -0.2664
  795MOL0     C 7249   1.930   4.501   8.706 -0.7996 -0.2701 -1.5930
  795MOL0     C 7250   1.804   4.587   8.690 -0.2676  0.5368 -0.3692
  795MOL0     C 7251   1.716   4.524   8.581  0.5047 -0.0832 -0.1431
  795MOL0     C 7252   1.628   4.623   8.505  0.0372 -0.1689 -0.2304
  795MOL0     C 7253   1.534   4.696   8.600 -0.5221  1.6313  0.7311
  795MOL0     C 7254   1.451   4.754   8.669 -0.1027  0.7984  0.5040
  795MOL0     C 7255   2.227   4.549   8.707  0.7989  0.9167  0.2956
  795MOL0     C 7256   2.357   4.595   8.715  0.0377 -0.2962 -0.6759
  795MOL0     C 7257   2.417   4.581   8.850 -0.5776  0.1305  0.4352
  795MOL0     H 7258   2.834   4.666   8.598 -0.2924 -0.0421 -0.2847
  795MOL0     H 7259   3.070   4.769   8.565  0.7742  3.9298  3.3822
  795MOL0     H 7260   3.259   5.087   8.525 -0.4144 -0.1614  2.6876
  795MOL0     H 7261   3.174   4.986   8.624  2.6999  2.8674  0.4570
  795MOL0     H 7262   3.231   4.795   8.420  0.3350  0.1705  0.8436
  795MOL0     H 7263   3.340   4.826   8.543 -1.7819 -0.8771  1.5492
  795MOL0     H 7264   3.422   5.030   8.376 -0.5414  0.2100 -0.2331
  795MOL0     H 7265   3.341   4.925   8.260 -0.1386 -0.4538 -0.7454
  795MOL0     H 7266   3.578   4.914   8.288 -2.4513 -1.9601 -3.8443
  795MOL0     H 7267   3.556   4.841   8.447  2.4974 -0.8744 -1.4642
  795MOL0     H 7268   3.399   4.668   8.312 -0.0550 -0.2332 -1.0301
  795MOL0     H 7269   3.462   4.743   8.173 -2.6080 -1.4672  0.1240
  795MOL0     H 7270   3.686   4.662   8.257 -2.2434  3.2332 -0.0853
  795MOL0     H 7271   3.600   4.569   8.386  1.1334 -0.4881  0.2181
  795MOL0     H 7272   3.517   4.546   8.079  1.3788  1.0109  0.2529
  795MOL0     H 7273   3.459   4.451   8.213 -0.9097  2.1737  1.7543
  795MOL0     H 7274   3.631   4.321   8.236  2.3015 -0.1159  0.0561
  795MOL0     H 7275   3.631   4.340   8.066 -2.0082 -2.0281  1.0015
  795MOL0     H 7276   3.843   4.325   8.319 -0.1694 -2.7956 -2.1205
  795MOL0     H 7277   4.139   4.287   8.295  1.3627 -0.3094  0.4583
  795MOL0     H 7278   4.206   4.397   8.172 -0.6618  0.7386 -0.1645
  795MOL0     H 7279   4.276   4.455   8.414 -0.9650 -0.9376  1.7207
  795MOL0     H 7280   4.194   4.587   8.325  0.7974  0.3194  1.9940
  795MOL0     H 7281   4.053   4.407   8.525  0.4468 -0.8934  0.2632
  795MOL0     H 7282   3.989   4.554   8.462 -0.2342 -0.1700 -2.0927
  795MOL0     H 7283   4.141   4.677   8.621 -1.5597 -0.3148  0.4822
  795MOL0     H 7284   4.237   4.544   8.614  1.1770  0.7899 -1.2995
  795MOL0     H 7285   3.905   4.346   8.858  0.4937 -1.4258 -0.2386
  795MOL0     H 7286   3.685   4.417   8.951 -0.9626  3.5752  2.9188
  795MOL0     H 7287   3.256   4.528   8.772 -1.0613  0.7226 -0.4989
  795MOL0     H 7288   3.056   4.552   8.889 -0.2925 -0.8540  2.3594
  795MOL0     H 7289   2.895   4.911   8.910 -1.1970  1.9013  1.7880
  795MOL0     H 7290   2.826   4.736   8.924  1.8390 -2.6132  1.0008
  795MOL0     H 7291   2.849   4.959   9.109  0.0640  2.7104 -4.8270
  795MOL0     H 7292   2.700   4.918   9.028 -0.8448 -1.3872  1.0910
  795MOL0     H 7293   2.664   4.713   9.129  0.9433 -2.3009  3.0270
  795MOL0     H 7294   2.814   4.707   9.214 -1.8126 -0.0684  4.1662
  795MOL0     H 7295   2.577   4.903   9.268  1.5028  2.6624  1.8181
  795MOL0     H 7296   2.730   4.922   9.341  1.1103 -0.9187 -0.1312
  795MOL0     H 7297   2.713   4.687   9.443  0.9844  0.2386 -1.6507
  795MOL0     H 7298   2.565   4.656   9.344  0.1060 -0.3162  1.9494
  795MOL0     H 7299   2.428   4.804   9.480 -0.1112 -1.1460 -0.5468
  795MOL0     H 7300   2.505   4.699   9.587 -2.1705  0.3856 -0.1552
  795MOL0     H 7301   2.514   4.944   9.658  1.0271 -1.1914  1.3134
  795MOL0     H 7302   2.588   4.979   9.506  2.6303 -1.0312 -0.6215
  795MOL0     H 7303   2.711   4.774   9.705  1.0160 -0.7786 -2.1845
  795MOL0     H 7304   2.800   4.872   9.590 -1.2329  1.5174 -2.6008
  795MOL0     H 7305   3.189   4.945   9.029 -3.7961 -1.6082  3.5708
  795MOL0     H 7306   3.389   4.913   8.913 -1.2910  2.3135  0.0513
  795MOL0     H 7307   3.717   4.783   8.740 -2.8927 -0.9635  1.6371
  795MOL0     H 7308   3.942   4.731   8.666  1.9572  0.4177  2.1951
  795MOL0     H 7309   2.891   5.038   8.292 -1.1183 -0.6845 -1.3305
  795MOL0     H 7310   2.663   4.945   8.326 -0.5065  2.0512  1.5569
  795MOL0     H 7311   2.382   4.713   8.400  2.4301 -1.9658 -0.4964
  795MOL0     H 7312   2.148   4.625   8.389 -1.0211 -4.2984  0.1235
  795MOL0     H 7313   1.977   4.534   8.799 -2.0539 -2.6875 -0.0188
  795MOL0     H 7314   1.904   4.395   8.716 -1.3116  0.0729  1.9661
  795MOL0     H 7315   1.828   4.692   8.672  1.5115 -0.0754 -1.8317
  795MOL0     H 7316   1.753   4.590   8.787 -0.3371  0.3843 -0.4003
  795MOL0     H 7317   1.647   4.444   8.609 -3.6049  1.8230 -3.7273
  795MOL0     H 7318   1.785   4.470   8.515 -0.7124  0.3339 -1.8172
  795MOL0     H 7319   1.680   4.704   8.452 -1.3247 -0.1075 -1.5450
  795MOL0     H 7320   1.567   4.577   8.427 -0.2138 -1.7480  0.8574
  795MOL0     H 7321   1.372   4.788   8.733 -4.4428 -2.3513 -2.5977
  795MOL0     H 7322   2.188   4.507   8.799  0.0526 -0.0323 -0.4348
  795MOL0     H 7323   2.512   4.526   8.848 -0.3764  0.2108  3.3491
  795MOL0     H 7324   2.434   4.680   8.893 -0.7886 -0.4588  1.9614
  795MOL0     H 7325   2.357   4.523   8.921  1.2387 -2.4312  0.0321
  796MOL0     O 7326   9.389   8.188   7.953  0.5210  0.4366 -0.7918
  796MOL0     C 7327   9.294   8.170   8.028 -0.1296  0.4656  0.1246
  796MOL0     O 7328   9.203   8.268   8.072 -1.0497  0.0818  0.1524
  796MOL0     C 7329   9.246   8.400   8.045  0.9760 -1.2937  0.5786
  796MOL0     C 7330   9.167   8.479   7.944 -0.2589  0.9201  0.0112
  796MOL0     C 7331   9.202   8.611   7.921 -0.4324 -0.0955  0.6212
  796MOL0     C 7332   9.315   8.675   7.994  1.3043 -0.8730  0.3364
  796MOL0     O 7333   9.313   8.801   7.966  0.1321  0.5666 -0.4630
  796MOL0     C 7334   9.443   8.859   7.956  0.3107 -0.2274 -0.5770
  796MOL0     C 7335   9.482   8.858   7.806 -0.0377 -0.3283 -0.4883
  796MOL0     C 7336   9.598   8.969   7.780  1.1169  0.6184  0.5076
  796MOL0     C 7337   9.725   8.955   7.859  0.4115 -0.4354 -0.5004
  796MOL0     C 7338   9.817   9.066   7.849  1.1667 -0.1626  0.5872
  796MOL0     C 7339   9.835   9.118   7.704  0.0048  0.5357 -0.0805
  796MOL0     C 7340   9.953   9.214   7.698  0.5852 -0.2751  0.2941
  796MOL0     C 7341   9.940   9.359   7.748  0.9870  0.4739  0.2004
  796MOL0     N 7342   9.851   9.436   7.655 -0.7215 -0.8234  0.1912
  796MOL0     C 7343   9.722   9.464   7.676  0.1852 -0.1741 -0.4913
  796MOL0     C 7344   9.701   9.576   7.601  0.1726 -0.2775 -0.1047
  796MOL0     C 7345   9.571   9.648   7.593 -0.3974  0.0072 -0.4023
  796MOL0     C 7346   9.575   9.776   7.680  1.7362  0.4942 -0.6135
  796MOL0     C 7347   9.448   9.870   7.632 -0.1993  0.5268  0.3754
  796MOL0     C 7348   9.424   9.993   7.723 -0.5325  0.3491  0.8528
  796MOL0     O 7349   9.330  10.088   7.676  0.1815 -0.6564  0.2410
  796MOL0     C 7350   9.332  10.210   7.747  0.3900  0.3655  0.7747
  796MOL0     C 7351   9.240  10.308   7.708  0.0689  0.2039  0.1197
  796MOL0     C 7352   9.253  10.441   7.760  0.7886  0.0209 -0.5741
  796MOL0     C 7353   9.341  10.477   7.864  0.2111  0.2435 -0.7988
  796MOL0     C 7354   9.353  10.618   7.910 -0.4600  0.2557 -0.2987
  796MOL0     O 7355   9.454  10.651   7.997 -0.7557 -0.2368 -0.2042
  796MOL0     C 7356   9.474  10.782   8.020  1.0634  0.1074 -0.0007
  796MOL0     C 7357   9.366  10.849   8.082  0.1738  0.4243  0.2735
  796MOL0     C 7358   9.381  10.986   8.108 -1.0210 -0.0264 -0.2987
  796MOL0     C 7359   9.497  11.050   8.082  0.6083  0.0562  1.0552
  796MOL0     O 7360   9.512  11.182   8.117  1.0711  0.1546 -0.2494
  796MOL0     C 7361   9.641  11.244   8.116 -0.2686 -1.2091  0.7815
  796MOL0     C 7362   9.640  11.394   8.162 -0.3790  0.5142  0.1520
  796MOL0     C 7363   9.611  11.395   8.312  1.3688 -0.2425 -0.5996
  796MOL0     C 7364   9.729  11.468   8.397 -0.3516  0.2061  0.5377
  796MOL0     C 7365   9.752  11.618   8.375  0.0489  0.8640 -0.3104
  796MOL0     C 7366   9.623  11.683   8.417  0.4350 -0.1603  0.1593
  796MOL0     C 7367   9.653  11.833   8.431  0.3086 -0.0926  0.3184
  796MOL0     C 7368   9.524  11.917   8.464  0.2038 -0.4921 -0.7168
  796MOL0    Cl 7369   9.560  12.090   8.426  0.1203 -0.3727  0.3699
  796MOL0     C 7370   9.607  10.972   8.034  0.0688 -0.0648 -0.1512
  796MOL0     C 7371   9.592  10.837   7.995 -0.4711 -0.1381  0.0826
  796MOL0     O 7372   9.267  10.690   7.869 -0.3833 -0.1220  0.5128
  796MOL0     C 7373   9.410  10.370   7.920 -0.1062 -1.0262 -0.5618
  796MOL0     C 7374   9.404  10.239   7.866  0.4362 -0.3538  0.4462
  796MOL0     N 7375   9.820   9.608   7.530  0.9814 -0.4235  0.1918
  796MOL0     N 7376   9.910   9.524   7.562 -0.2173 -0.6247  0.2444
  796MOL0     C 7377   9.394   8.593   8.070 -0.0331  0.3103  0.5131
  796MOL0     C 7378   9.362   8.460   8.096 -0.0935  0.2999  0.1026
  796MOL0     C 7379   9.260   8.021   8.059 -0.5037  0.5020 -0.3049
  796MOL0     C 7380   9.312   7.923   7.976  0.1488 -0.5058  1.0605
  796MOL0     C 7381   9.279   7.791   7.989  0.6189  0.6883  0.7721
  796MOL0     C 7382   9.203   7.750   8.099  0.5850 -0.5198  0.8497
  796MOL0     O 7383   9.188   7.617   8.113 -0.8458  0.1683 -0.3792
  796MOL0     C 7384   9.125   7.560   8.231  0.3746  0.0442  0.6612
  796MOL0     C 7385   9.135   7.406   8.222  0.7940 -0.5442 -0.3448
  796MOL0     C 7386   9.043   7.351   8.110  0.5365  0.2824  0.1168
  796MOL0     C 7387   9.018   7.201   8.135 -0.7562  0.5321 -0.0056
  796MOL0     C 7388   9.131   7.126   8.080 -0.0366 -0.1965  0.2595
  796MOL0     C 7389   9.230   7.060   8.055 -0.4874 -0.9135  0.6849
  796MOL0     C 7390   9.160   7.852   8.185  0.0369 -0.1126 -0.4119
  796MOL0     C 7391   9.193   7.983   8.168  0.6714  0.0019 -0.0459
  796MOL0     C 7392   9.133   8.080   8.255 -0.3735  0.6512 -0.2513
  796MOL0     H 7393   9.091   8.418   7.895 -0.3295  0.3158  0.8366
  796MOL0     H 7394   9.153   8.667   7.842  1.7404  2.3468  0.9101
  796MOL0     H 7395   9.443   8.961   7.996 -3.0022  0.2877 -1.5742
  796MOL0     H 7396   9.524   8.801   8.002 -1.9199 -2.6458  0.5612
  796MOL0     H 7397   9.392   8.893   7.754 -1.7833  1.0988  3.1455
  796MOL0     H 7398   9.508   8.754   7.784 -2.4517 -1.2160  0.4648
  796MOL0     H 7399   9.540   9.055   7.814 -0.2465 -1.0967  2.8116
  796MOL0     H 7400   9.613   8.970   7.672 -0.5290 -2.1663  0.1291
  796MOL0     H 7401   9.709   8.938   7.966  2.9709 -2.9155 -0.3861
  796MOL0     H 7402   9.785   8.874   7.816  2.6182  1.2560 -0.7937
  796MOL0     H 7403   9.779   9.143   7.916  0.4424  0.3901 -0.4436
  796MOL0     H 7404   9.914   9.028   7.884  0.8690 -1.0696  0.4657
  796MOL0     H 7405   9.855   9.033   7.638 -1.2044  0.0092  0.1875
  796MOL0     H 7406   9.744   9.170   7.672 -0.9568  0.0325  1.6943
  796MOL0     H 7407   9.992   9.225   7.597  1.6195  2.2199  0.8914
  796MOL0     H 7408  10.041   9.176   7.751  0.3955  1.0766  1.6392
  796MOL0     H 7409   9.905   9.361   7.851 -0.7583 -0.3037 -0.3384
  796MOL0     H 7410  10.038   9.409   7.744  0.6689  1.0829 -0.1138
  796MOL0     H 7411   9.653   9.416   7.744  1.4019 -0.4696  0.5645
  796MOL0     H 7412   9.545   9.674   7.490  1.4639  0.1851 -0.8640
  796MOL0     H 7413   9.497   9.578   7.633 -1.3268  0.4539 -1.3052
  796MOL0     H 7414   9.567   9.750   7.786  0.9330 -0.6540 -0.9300
  796MOL0     H 7415   9.672   9.824   7.668  1.5699  1.0019  0.0461
  796MOL0     H 7416   9.361   9.808   7.611  0.7420 -0.8142  0.2629
  796MOL0     H 7417   9.491   9.910   7.539  0.6297  2.2276  1.4508
  796MOL0     H 7418   9.521  10.041   7.741 -0.7395  0.6546  1.1853
  796MOL0     H 7419   9.388   9.965   7.823 -0.8144  2.8568  1.5336
  796MOL0     H 7420   9.168  10.297   7.627 -0.7201  1.0769  0.6837
  796MOL0     H 7421   9.193  10.519   7.714  1.1311  1.5223  1.3879
  796MOL0     H 7422   9.277  10.794   8.109 -0.1785  0.1105 -1.4479
  796MOL0     H 7423   9.304  11.041   8.160  1.9501  4.9082 -0.4409
  796MOL0     H 7424   9.722  11.193   8.169 -1.6938 -3.0596  1.2870
  796MOL0     H 7425   9.673  11.248   8.011  1.2825  1.9944  1.2565
  796MOL0     H 7426   9.740  11.433   8.143  0.6571  0.2225  4.0478
  796MOL0     H 7427   9.565  11.453   8.109  0.6424  0.5897 -1.2770
  796MOL0     H 7428   9.511  11.433   8.335  0.4420 -2.5956 -0.4691
  796MOL0     H 7429   9.599  11.291   8.342 -0.1746  0.2739  0.6990
  796MOL0     H 7430   9.814  11.401   8.377 -2.3043 -1.9888 -1.0159
  796MOL0     H 7431   9.712  11.446   8.503 -2.7706  1.3280  0.4437
  796MOL0     H 7432   9.786  11.648   8.276  0.0574 -0.9775 -0.8965
  796MOL0     H 7433   9.831  11.657   8.441 -1.1323  0.1620  1.6007
  796MOL0     H 7434   9.551  11.661   8.338  0.1373 -1.1386  0.6865
  796MOL0     H 7435   9.580  11.645   8.510 -0.6724  0.2992 -0.1517
  796MOL0     H 7436   9.698  11.870   8.338  2.2343 -0.8181  0.8999
  796MOL0     H 7437   9.732  11.850   8.506 -0.0969 -2.3753  1.3272
  796MOL0     H 7438   9.439  11.876   8.409  0.6499 -2.9765  0.3130
  796MOL0     H 7439   9.508  11.906   8.572 -0.6588  2.3793 -0.4754
  796MOL0     H 7440   9.708  11.012   8.039 -0.8057  2.1633  1.9310
  796MOL0     H 7441   9.675  10.779   7.957  2.5756  3.0075  1.3416
  796MOL0     H 7442   9.480  10.390   8.000  1.7044 -0.4035 -2.2120
  796MOL0     H 7443   9.472  10.169   7.915  0.2450 -1.3181 -0.6368
  796MOL0     H 7444   9.485   8.634   8.112  0.6300 -0.8497  0.2597
  796MOL0     H 7445   9.412   8.400   8.171 -1.8495  0.3871  1.4113
  796MOL0     H 7446   9.367   7.944   7.885  0.8332  0.1173  1.6035
  796MOL0     H 7447   9.305   7.718   7.912 -1.1158  1.9927 -1.1800
  796MOL0     H 7448   9.017   7.575   8.231  0.2518 -0.6743  2.4536
  796MOL0     H 7449   9.168   7.605   8.321 -0.7547  1.1736  0.6666
  796MOL0     H 7450   9.102   7.373   8.321  0.5986  1.1876  0.2081
  796MOL0     H 7451   9.237   7.368   8.217  0.8664 -0.3682 -0.2143
  796MOL0     H 7452   9.081   7.360   8.007 -0.6470 -2.0900 -0.6050
  796MOL0     H 7453   8.945   7.400   8.109 -0.7771 -2.0331 -3.3554
  796MOL0     H 7454   8.999   7.164   8.236  0.6265  0.4840  0.2558
  796MOL0     H 7455   8.932   7.170   8.076 -0.7546  0.2320  0.1470
  796MOL0     H 7456   9.328   7.020   8.036 -1.7469 -2.2780 -4.3771
  796MOL0     H 7457   9.106   7.827   8.276  1.4068  0.0328  0.4590
  796MOL0     H 7458   9.053   8.133   8.204  1.5231  1.0014 -3.1011
  796MOL0     H 7459   9.092   8.018   8.336 -3.6609  1.0650 -1.4605
  796MOL0     H 7460   9.219   8.141   8.286  0.0260  0.3288 -0.7056
  797MOL0     O 7461   7.145  11.049   1.362  0.3325  0.1259  0.1901
  797MOL0     C 7462   7.218  11.115   1.434 -0.5747 -0.9581 -0.2434
  797MOL0     O 7463   7.200  11.253   1.455  0.3174 -0.0052  0.2074
  797MOL0     C 7464   7.138  11.321   1.352 -0.3689 -0.0792 -0.4540
  797MOL0     C 7465   7.210  11.353   1.239  0.6273 -0.1200 -0.3729
  797MOL0     C 7466   7.145  11.426   1.135 -0.6370 -0.2407  0.2383
  797MOL0     C 7467   7.008  11.459   1.143  0.4397 -0.3474  0.0378
  797MOL0     O 7468   6.936  11.533   1.052  0.4646  0.8494 -0.0127
  797MOL0     C 7469   7.004  11.632   0.977  0.6622 -0.5812  0.2938
  797MOL0     C 7470   6.897  11.742   0.950 -0.0929 -0.4510  0.6170
  797MOL0     C 7471   6.842  11.822   1.066 -0.1644  0.0536  0.7442
  797MOL0     C 7472   6.793  11.959   1.024 -0.1755 -0.3037  1.2674
  797MOL0     C 7473   6.733  12.047   1.138  0.3552  0.3346  0.0343
  797MOL0     C 7474   6.601  11.995   1.194  0.2219  0.1118  0.1979
  797MOL0     C 7475   6.551  12.080   1.310 -0.6500 -0.7919 -1.0559
  797MOL0     C 7476   6.632  12.056   1.447  0.2364 -0.2259  0.8342
  797MOL0     N 7477   6.626  11.912   1.474 -0.0861  0.3301 -0.3289
  797MOL0     C 7478   6.528  11.847   1.549 -0.9806  0.0878  0.1347
  797MOL0     C 7479   6.577  11.717   1.556 -0.6158 -0.3784 -0.5327
  797MOL0     C 7480   6.528  11.590   1.624  0.2955  0.1309 -0.5140
  797MOL0     C 7481   6.439  11.611   1.747 -0.5040  0.7407 -0.3713
  797MOL0     C 7482   6.380  11.470   1.781  0.0777  0.5565 -0.2423
  797MOL0     C 7483   6.269  11.467   1.881  0.0526  0.9407  1.0913
  797MOL0     O 7484   6.167  11.540   1.823 -0.0307  0.5654 -0.3562
  797MOL0     C 7485   6.056  11.551   1.905 -0.2158 -0.2009  0.5941
  797MOL0     C 7486   5.933  11.491   1.879  0.2746  0.0586 -0.1406
  797MOL0     C 7487   5.828  11.495   1.978  0.6083 -0.3256 -0.2734
  797MOL0     C 7488   5.848  11.562   2.105  0.0499 -0.1933  1.5735
  797MOL0     C 7489   5.731  11.587   2.197 -0.2187 -0.7200 -0.7837
  797MOL0     O 7490   5.760  11.651   2.315 -0.3634  0.0636 -0.3036
  797MOL0     C 7491   5.661  11.655   2.405 -0.0663 -0.0840  0.3005
  797MOL0     C 7492   5.613  11.546   2.473 -0.0784  0.2455 -0.4296
  797MOL0     C 7493   5.518  11.563   2.582  0.5846 -0.1388  0.1704
  797MOL0     C 7494   5.457  11.689   2.615 -0.7015 -0.9734  0.1991
  797MOL0     O 7495   5.364  11.711   2.713  0.0315  1.0341  0.0463
  797MOL0     C 7496   5.412  11.667   2.839  0.2782  0.2092 -0.3176
  797MOL0     C 7497   5.314  11.721   2.942 -0.7506 -0.7067 -0.5746
  797MOL0     C 7498   5.188  11.636   2.950 -1.0621 -0.2031 -0.2594
  797MOL0     C 7499   5.110  11.668   3.074 -0.3273  0.4194 -0.1718
  797MOL0     C 7500   4.973  11.601   3.061  0.3146  0.2112  0.4615
  797MOL0     C 7501   4.880  11.639   3.176  0.9131  0.1171  0.5055
  797MOL0     C 7502   4.732  11.607   3.151  0.6125 -0.8052  0.6480
  797MOL0     C 7503   4.697  11.470   3.095  0.1626  0.7050 -0.0241
  797MOL0    Cl 7504   4.733  11.324   3.195 -0.1667 -0.6477 -0.0036
  797MOL0     C 7505   5.507  11.803   2.545  0.4636  0.4247 -0.7796
  797MOL0     C 7506   5.594  11.778   2.440 -1.4639  0.4950 -0.5104
  797MOL0     O 7507   5.619  11.550   2.168  0.4657 -0.3391  0.0050
  797MOL0     C 7508   5.980  11.619   2.121  0.9083 -0.7445  0.2854
  797MOL0     C 7509   6.073  11.604   2.027 -0.3069 -0.0355 -0.3070
  797MOL0     N 7510   6.707  11.715   1.494 -0.5168 -0.5184  0.0907
  797MOL0     N 7511   6.736  11.835   1.457  0.7986  1.2133  0.3414
  797MOL0     C 7512   6.941  11.424   1.259 -0.8227  0.5815  0.0563
  797MOL0     C 7513   7.004  11.353   1.363 -0.4253 -0.1650  0.3462
  797MOL0     C 7514   7.339  11.058   1.501  0.3491  0.3702  0.3269
  797MOL0     C 7515   7.429  11.141   1.569 -0.3549 -0.1947  0.0829
  797MOL0     C 7516   7.537  11.098   1.647  0.7251 -0.7056  0.4729
  797MOL0     C 7517   7.551  10.967   1.665 -0.3233  0.4883  0.0421
  797MOL0     O 7518   7.648  10.933   1.754  0.2171 -0.1954 -0.0196
  797MOL0     C 7519   7.658  10.793   1.791  0.5076  0.4099  0.4979
  797MOL0     C 7520   7.793  10.777   1.860 -0.1746  0.8605 -0.6303
  797MOL0     C 7521   7.806  10.630   1.905 -0.2214 -0.0006 -0.1070
  797MOL0     C 7522   7.931  10.607   2.000 -0.3582  0.0137  0.5034
  797MOL0     C 7523   7.930  10.485   2.078 -0.7113  1.3200 -0.5647
  797MOL0     C 7524   7.929  10.376   2.136 -1.0453 -0.0057 -0.2503
  797MOL0     C 7525   7.461  10.879   1.602  0.9843  0.9247  0.9132
  797MOL0     C 7526   7.350  10.915   1.517  0.1889 -0.2397  0.8467
  797MOL0     C 7527   7.261  10.806   1.458 -0.0024  0.2876  0.3750
  797MOL0     H 7528   7.317  11.333   1.238  0.3778 -1.9581  2.0314
  797MOL0     H 7529   7.213  11.457   1.057 -1.7876 -0.7081 -1.0033
  797MOL0     H 7530   7.083  11.679   1.036  1.3872 -1.8538  0.3689
  797MOL0     H 7531   7.034  11.593   0.879  0.9804  0.1543  0.0880
  797MOL0     H 7532   6.818  11.700   0.887 -1.1994  0.6028  1.2709
  797MOL0     H 7533   6.942  11.810   0.877  0.0805  0.7714  1.8247
  797MOL0     H 7534   6.920  11.820   1.143  0.3024 -1.4267  0.2835
  797MOL0     H 7535   6.743  11.780   1.087 -0.7789  1.3583  0.5456
  797MOL0     H 7536   6.885  12.004   0.986 -0.5906 -1.9689 -2.1198
  797MOL0     H 7537   6.735  11.946   0.932  1.3814  0.8208  0.0692
  797MOL0     H 7538   6.799  12.047   1.225 -0.6451  0.8295  0.8248
  797MOL0     H 7539   6.713  12.148   1.103 -1.5435  0.2451  0.7288
  797MOL0     H 7540   6.522  12.001   1.118  0.1533  0.0007  0.2600
  797MOL0     H 7541   6.605  11.889   1.219  1.3892 -0.6068 -2.6003
  797MOL0     H 7542   6.449  12.056   1.342 -0.6651 -1.0797 -1.3172
  797MOL0     H 7543   6.548  12.183   1.275  0.7494 -0.1335  0.6231
  797MOL0     H 7544   6.736  12.092   1.445  0.5168 -1.0248  0.5598
  797MOL0     H 7545   6.585  12.125   1.517  2.4529  3.1292 -0.6941
  797MOL0     H 7546   6.442  11.885   1.604 -3.6953 -1.2565 -2.8735
  797MOL0     H 7547   6.483  11.524   1.549  1.0297  0.6200 -1.4151
  797MOL0     H 7548   6.614  11.527   1.650 -0.8224 -1.1658  0.1239
  797MOL0     H 7549   6.503  11.644   1.830  1.8302  1.2684 -2.2721
  797MOL0     H 7550   6.363  11.688   1.730 -1.4471 -0.5865 -2.6243
  797MOL0     H 7551   6.455  11.401   1.820 -1.2868 -1.6647 -1.3387
  797MOL0     H 7552   6.348  11.416   1.692 -0.9931  0.3476  0.2623
  797MOL0     H 7553   6.302  11.519   1.972  1.0410  2.7827 -0.2344
  797MOL0     H 7554   6.222  11.370   1.895 -2.6107  1.8392 -0.9118
  797MOL0     H 7555   5.915  11.454   1.778 -0.0244 -1.5762  0.4810
  797MOL0     H 7556   5.725  11.465   1.963  1.0488 -2.7561  1.0586
  797MOL0     H 7557   5.645  11.445   2.450 -2.4465 -0.3242 -1.5468
  797MOL0     H 7558   5.474  11.474   2.627  1.4516 -1.7826 -2.0575
  797MOL0     H 7559   5.409  11.558   2.838 -2.1002  0.2254  0.1501
  797MOL0     H 7560   5.509  11.713   2.860  0.1411  0.6443 -0.6151
  797MOL0     H 7561   5.356  11.719   3.043 -1.9281 -0.3214 -0.0689
  797MOL0     H 7562   5.282  11.823   2.923  0.5846 -0.0815  0.3583
  797MOL0     H 7563   5.123  11.666   2.868  1.1142  0.6330 -1.7743
  797MOL0     H 7564   5.228  11.534   2.946  0.1807  0.2076  0.9893
  797MOL0     H 7565   5.097  11.775   3.091 -0.1151  0.2475  1.1493
  797MOL0     H 7566   5.152  11.629   3.167 -0.5104 -0.6102 -0.5066
  797MOL0     H 7567   4.973  11.493   3.044 -2.6015  0.6705 -4.3781
  797MOL0     H 7568   4.925  11.636   2.969  1.1045  0.0778  0.0006
  797MOL0     H 7569   4.910  11.587   3.268  2.6653 -0.9068 -0.5862
  797MOL0     H 7570   4.879  11.748   3.189 -2.5201  0.3387 -0.6615
  797MOL0     H 7571   4.691  11.678   3.079 -1.9112 -0.8028  1.9546
  797MOL0     H 7572   4.686  11.620   3.250  4.2635 -1.2752  2.5874
  797MOL0     H 7573   4.589  11.460   3.083 -0.3134 -0.6131  3.7503
  797MOL0     H 7574   4.741  11.455   2.997  1.1227  0.7862  0.3847
  797MOL0     H 7575   5.467  11.903   2.560  0.1997  0.1081  0.7933
  797MOL0     H 7576   5.618  11.869   2.385 -1.4681  0.6031 -0.3350
  797MOL0     H 7577   6.009  11.670   2.212 -1.3614 -0.0596  0.6895
  797MOL0     H 7578   6.164  11.651   2.064 -1.3100 -0.5433  3.1034
  797MOL0     H 7579   6.837  11.453   1.274 -1.6343 -2.6180  1.4814
  797MOL0     H 7580   6.962  11.323   1.458 -1.6524 -1.5703 -0.5838
  797MOL0     H 7581   7.413  11.248   1.555 -1.0171 -0.1102  1.2566
  797MOL0     H 7582   7.603  11.168   1.697 -2.4214  1.0089  2.5535
  797MOL0     H 7583   7.665  10.714   1.716  1.7635  1.8079 -0.9452
  797MOL0     H 7584   7.569  10.764   1.847 -0.5025  2.6456  0.1649
  797MOL0     H 7585   7.807  10.843   1.946 -2.2606  3.1438 -1.8961
  797MOL0     H 7586   7.881  10.797   1.798  1.2328 -0.3947  0.8541
  797MOL0     H 7587   7.813  10.577   1.809 -4.4956 -0.8862 -0.1454
  797MOL0     H 7588   7.716  10.590   1.953  0.9929 -0.0077  2.2796
  797MOL0     H 7589   8.030  10.613   1.953 -0.6626  1.2116 -0.0227
  797MOL0     H 7590   7.937  10.698   2.060 -2.6837  0.3416  0.3381
  797MOL0     H 7591   7.940  10.272   2.158  3.3194  0.2131 -0.5642
  797MOL0     H 7592   7.476  10.772   1.611 -1.6187  0.3626 -0.5598
  797MOL0     H 7593   7.177  10.779   1.522  1.9309  0.5210  3.1979
  797MOL0     H 7594   7.225  10.812   1.355  1.2721  1.4348 -0.0278
  797MOL0     H 7595   7.306  10.706   1.450 -3.2271 -1.3566  1.1821
  798MOL0     O 7596   5.032   5.625  10.577 -0.4122  0.5766 -0.0400
  798MOL0     C 7597   5.076   5.575  10.475  0.3440 -0.3117  1.2667
  798MOL0     O 7598   5.065   5.626  10.342 -0.2668 -0.3422  0.2279
  798MOL0     C 7599   5.013   5.761  10.342 -0.0513 -0.1712 -0.0702
  798MOL0     C 7600   4.882   5.786  10.341  1.0321  0.3400 -0.3284
  798MOL0     C 7601   4.839   5.918  10.342 -0.7054  0.7268 -0.7033
  798MOL0     C 7602   4.915   6.032  10.352 -0.0402 -1.0454  0.6278
  798MOL0     O 7603   4.858   6.165  10.356  0.0069 -0.6375 -0.6395
  798MOL0     C 7604   4.951   6.266  10.408 -1.2239  0.1642 -0.7391
  798MOL0     C 7605   4.887   6.395  10.441  0.5686 -0.4136 -0.0740
  798MOL0     C 7606   4.768   6.376  10.546  0.9139  0.4317 -0.6492
  798MOL0     C 7607   4.661   6.492  10.554 -0.2828  0.5174  0.7548
  798MOL0     C 7608   4.535   6.460  10.637 -0.1142  0.3617  0.1856
  798MOL0     C 7609   4.438   6.566  10.635 -0.7707 -0.1060 -0.8299
  798MOL0     C 7610   4.359   6.585  10.509  0.0042  0.9618 -0.2837
  798MOL0     C 7611   4.264   6.471  10.496  0.1509  0.8415 -0.0994
  798MOL0     N 7612   4.183   6.479  10.379 -0.3960  0.5826  1.0326
  798MOL0     C 7613   4.130   6.378  10.299 -0.2857 -0.4911 -0.9536
  798MOL0     C 7614   4.096   6.448  10.186  0.3193 -0.3699 -0.0384
  798MOL0     C 7615   4.057   6.376  10.056  0.7282  0.3469 -0.6948
  798MOL0     C 7616   4.159   6.317   9.965 -0.2391 -0.6019 -0.7717
  798MOL0     C 7617   4.099   6.250   9.839  0.5930  0.1906  0.3083
  798MOL0     C 7618   4.084   6.093   9.844  0.1260  0.4444 -0.0896
  798MOL0     O 7619   4.189   6.007   9.798 -0.2922 -0.3694 -0.4458
  798MOL0     C 7620   4.179   5.872   9.805  0.1309  0.0577  0.1018
  798MOL0     C 7621   4.298   5.800   9.802  0.3499  0.3142  0.0199
  798MOL0     C 7622   4.294   5.653   9.817 -0.0365  0.0590  0.3341
  798MOL0     C 7623   4.173   5.598   9.855  0.1198  0.0542  0.7290
  798MOL0     C 7624   4.155   5.455   9.876 -0.1348  1.0879  1.0987
  798MOL0     O 7625   4.103   5.410   9.993 -0.0479 -0.1068 -0.6250
  798MOL0     C 7626   4.067   5.278  10.011  0.6734  0.0420 -0.1795
  798MOL0     C 7627   4.049   5.173   9.912 -0.6759 -0.0191  0.1905
  798MOL0     C 7628   4.024   5.039   9.961  0.1614 -0.3112  0.0096
  798MOL0     C 7629   4.015   5.007  10.095  1.1209 -0.7345  1.8203
  798MOL0     O 7630   3.994   4.877  10.149 -0.5589  0.2168  0.2315
  798MOL0     C 7631   4.055   4.845  10.277 -0.3126  0.4836 -0.6440
  798MOL0     C 7632   4.015   4.704  10.331  0.1763  0.7913 -0.6085
  798MOL0     C 7633   3.862   4.695  10.386  0.0757  0.3982 -0.5891
  798MOL0     C 7634   3.834   4.570  10.475  1.0105  0.9723 -0.6467
  798MOL0     C 7635   3.846   4.588  10.629 -0.0603 -0.3758 -0.8823
  798MOL0     C 7636   3.854   4.450  10.699 -0.2083 -0.3566  0.4347
  798MOL0     C 7637   3.859   4.445  10.857 -0.0707  0.0396 -0.8125
  798MOL0     C 7638   3.882   4.298  10.923 -0.3820 -0.4259  0.2400
  798MOL0    Cl 7639   3.736   4.194  10.891  0.0103  0.2514 -0.0552
  798MOL0     C 7640   4.016   5.115  10.185  0.5035  0.7116  0.0453
  798MOL0     C 7641   4.040   5.242  10.141 -0.4719 -0.4408  0.9274
  798MOL0     O 7642   4.207   5.387   9.794  0.3848  0.7413  0.7628
  798MOL0     C 7643   4.057   5.670   9.872 -0.6255  1.0810 -0.2239
  798MOL0     C 7644   4.060   5.798   9.838  0.3151 -0.2724 -0.8827
  798MOL0     N 7645   4.101   6.589  10.211  0.6440  0.4791 -0.3353
  798MOL0     N 7646   4.157   6.600  10.324 -0.0529  0.5510 -0.3203
  798MOL0     C 7647   5.063   6.003  10.350 -0.5528 -0.2242 -0.2276
  798MOL0     C 7648   5.110   5.868  10.345 -0.0530  0.3962  0.4297
  798MOL0     C 7649   5.126   5.434  10.494 -0.1783 -0.0776  0.1207
  798MOL0     C 7650   5.056   5.355  10.585  0.2883  0.1817 -0.5758
  798MOL0     C 7651   5.111   5.229  10.624  0.1428 -0.5215 -0.7165
  798MOL0     C 7652   5.237   5.188  10.578  0.3958 -0.5921  0.0008
  798MOL0     O 7653   5.304   5.091  10.637 -0.0630  0.6266 -0.7328
  798MOL0     C 7654   5.240   4.963  10.643  0.7232 -0.2773 -0.5651
  798MOL0     C 7655   5.225   4.891  10.510 -0.0039 -0.1624  0.6057
  798MOL0     C 7656   5.359   4.875  10.436  0.3753 -0.1325 -0.2987
  798MOL0     C 7657   5.357   4.798  10.310  0.9066  1.0730  0.2930
  798MOL0     C 7658   5.383   4.655  10.337  0.3964 -0.2846 -0.4071
  798MOL0     C 7659   5.418   4.548  10.382 -0.4389  0.4801  1.0775
  798MOL0     C 7660   5.310   5.275  10.500  0.4074  0.2183 -0.6811
  798MOL0     C 7661   5.251   5.387  10.451 -0.1873 -0.7105 -0.8874
  798MOL0     C 7662   5.330   5.466  10.349 -0.3051 -0.0788 -0.0709
  798MOL0     H 7663   4.815   5.700  10.347 -1.1441  2.0366  2.7023
  798MOL0     H 7664   4.733   5.931  10.356 -0.9226 -0.4516 -1.1791
  798MOL0     H 7665   5.005   6.222  10.492 -1.4210 -1.2378 -1.3113
  798MOL0     H 7666   5.034   6.285  10.339  1.9235 -1.3234  2.3413
  798MOL0     H 7667   4.856   6.430  10.343  1.8551  2.1839  0.3603
  798MOL0     H 7668   4.964   6.468  10.468  1.5728 -1.8765  1.2111
  798MOL0     H 7669   4.798   6.367  10.651  4.0410  1.3998 -1.3573
  798MOL0     H 7670   4.719   6.283  10.517 -0.2366  0.4944  0.9514
  798MOL0     H 7671   4.711   6.576  10.603  2.5580 -1.0308  0.7208
  798MOL0     H 7672   4.642   6.535  10.455  0.5717  1.5695  1.0220
  798MOL0     H 7673   4.495   6.366  10.599 -2.1444 -0.1464  3.3044
  798MOL0     H 7674   4.572   6.450  10.739  1.3304  3.2854  0.0705
  798MOL0     H 7675   4.375   6.553  10.724 -2.5168 -1.4782 -2.2080
  798MOL0     H 7676   4.489   6.662  10.649 -0.9762  0.5253 -3.8609
  798MOL0     H 7677   4.427   6.591  10.423 -1.0090  0.0514 -1.1758
  798MOL0     H 7678   4.303   6.678  10.528 -0.5027  0.7432 -0.6948
  798MOL0     H 7679   4.321   6.378  10.488 -2.2139 -0.5456 -2.1715
  798MOL0     H 7680   4.203   6.455  10.586  2.2851 -2.8424  0.8899
  798MOL0     H 7681   4.142   6.271  10.313  2.4265 -0.2358 -0.9440
  798MOL0     H 7682   3.982   6.300  10.082  1.9018 -0.4134  0.6095
  798MOL0     H 7683   3.988   6.444  10.006  0.8408  1.9916  1.2416
  798MOL0     H 7684   4.224   6.398   9.931  2.4469 -2.0446  0.6412
  798MOL0     H 7685   4.225   6.251  10.022  1.4785 -0.1903 -2.2055
  798MOL0     H 7686   4.172   6.268   9.759  2.9224  0.6533  2.4192
  798MOL0     H 7687   4.003   6.291   9.807 -0.1836 -2.0686 -0.5068
  798MOL0     H 7688   4.001   6.068   9.777 -0.1157 -0.3382  0.4760
  798MOL0     H 7689   4.050   6.056   9.942  0.7903 -1.8274 -0.6526
  798MOL0     H 7690   4.396   5.844   9.785  0.1353 -0.0525 -2.5401
  798MOL0     H 7691   4.386   5.595   9.812 -0.4690 -0.6577  0.5858
  798MOL0     H 7692   4.035   5.201   9.808  0.7807 -1.1702 -0.3534
  798MOL0     H 7693   4.008   4.962   9.886 -1.8036  1.6680 -1.7249
  798MOL0     H 7694   4.162   4.853  10.255  0.0279 -0.8712  0.4259
  798MOL0     H 7695   4.022   4.914  10.355 -1.8670  0.7407 -1.4889
  798MOL0     H 7696   4.035   4.630  10.253  2.3938 -0.1343  0.7433
  798MOL0     H 7697   4.090   4.678  10.406 -0.4904  2.0758  0.5826
  798MOL0     H 7698   3.842   4.793  10.430 -1.3235 -0.9168  1.8902
  798MOL0     H 7699   3.798   4.687  10.297  1.6633  1.5613 -1.8832
  798MOL0     H 7700   3.909   4.493  10.451 -1.3394 -1.9092  0.6274
  798MOL0     H 7701   3.732   4.535  10.458  0.1013  1.7978  2.4009
  798MOL0     H 7702   3.755   4.643  10.657 -0.4248 -1.5966  0.4159
  798MOL0     H 7703   3.940   4.639  10.650 -1.3166  1.7491 -0.1044
  798MOL0     H 7704   3.761   4.399  10.671 -0.3313 -0.6811  1.4222
  798MOL0     H 7705   3.945   4.403  10.659  0.8323  1.5066  0.4629
  798MOL0     H 7706   3.766   4.488  10.893  0.4704 -0.1926  0.9439
  798MOL0     H 7707   3.945   4.507  10.886 -1.1582  1.7940 -1.1978
  798MOL0     H 7708   3.973   4.252  10.883 -0.3347 -0.8258  0.8064
  798MOL0     H 7709   3.886   4.301  11.032 -0.3622  2.1385  0.2286
  798MOL0     H 7710   4.006   5.093  10.291 -0.1269  1.2873  0.1128
  798MOL0     H 7711   4.033   5.316  10.221  1.0947  0.1864  0.5146
  798MOL0     H 7712   3.966   5.619   9.903  1.6817 -1.5681  2.7718
  798MOL0     H 7713   3.966   5.850   9.855 -2.0200 -4.3705 -0.0325
  798MOL0     H 7714   5.127   6.089  10.369  1.2625 -1.7266  0.7422
  798MOL0     H 7715   5.214   5.838  10.358 -0.8117 -3.0146 -0.3045
  798MOL0     H 7716   4.957   5.378  10.624  0.4043 -0.7623  0.3441
  798MOL0     H 7717   5.058   5.172  10.699 -1.7729  0.2379 -1.4309
  798MOL0     H 7718   5.144   4.971  10.695  1.6641 -1.0675  1.3893
  798MOL0     H 7719   5.305   4.890  10.693 -0.4342 -2.3430 -1.9011
  798MOL0     H 7720   5.150   4.928  10.440 -0.5346 -1.9721  0.1568
  798MOL0     H 7721   5.183   4.793  10.533 -0.7091  0.1071  0.4696
  798MOL0     H 7722   5.431   4.827  10.504 -1.2084 -0.2473  1.3618
  798MOL0     H 7723   5.400   4.974  10.414 -0.3944  0.3353  0.3422
  798MOL0     H 7724   5.259   4.816  10.265  0.3447  1.7358  1.7132
  798MOL0     H 7725   5.445   4.820  10.248  0.6761  2.2899  0.3636
  798MOL0     H 7726   5.461   4.458  10.420 -1.7457 -2.2181 -3.1765
  798MOL0     H 7727   5.412   5.243  10.481  0.8273  1.8834 -1.4198
  798MOL0     H 7728   5.388   5.540  10.406  0.1587 -0.1071 -0.5009
  798MOL0     H 7729   5.399   5.390  10.312 -0.0206 -0.7877  1.8159
  798MOL0     H 7730   5.264   5.505  10.271 -2.6992 -1.2988  1.2391
  799MOL0     O 7731   0.541   4.512   4.199  0.3855  0.0113  0.0280
  799MOL0     C 7732   0.640   4.493   4.258 -0.0234  0.0001  0.3448
  799MOL0     O 7733   0.698   4.579   4.352 -0.0087  0.9661 -0.2022
  799MOL0     C 7734   0.626   4.688   4.397  0.5396  0.5156  0.5474
  799MOL0     C 7735   0.492   4.680   4.430 -0.6282  0.9365  0.3686
  799MOL0     C 7736   0.412   4.782   4.430 -0.1219 -0.1469  0.7697
  799MOL0     C 7737   0.463   4.911   4.404 -0.0727 -0.4535 -1.0071
  799MOL0     O 7738   0.378   5.011   4.390 -0.0153  0.3779 -0.3464
  799MOL0     C 7739   0.402   5.116   4.489  0.0327  0.6844  0.0450
  799MOL0     C 7740   0.286   5.209   4.491  0.3736 -0.0473  0.0291
  799MOL0     C 7741   0.333   5.343   4.559  0.2141 -0.5439 -0.6458
  799MOL0     C 7742   0.232   5.469   4.567  0.4689  0.6443 -0.3136
  799MOL0     C 7743   0.103   5.419   4.631  0.0434  0.3365 -0.9666
  799MOL0     C 7744   0.012   5.530   4.675 -0.2421 -0.1825  0.4975
  799MOL0     C 7745  -0.027   5.626   4.560  0.5332  0.2479  0.4653
  799MOL0     C 7746  -0.148   5.710   4.590 -0.1244  0.2888  0.6359
  799MOL0     N 7747  -0.210   5.775   4.475  1.4133 -0.0793 -0.8162
  799MOL0     C 7748  -0.160   5.831   4.363 -0.5811  0.8241 -0.5676
  799MOL0     C 7749  -0.260   5.865   4.283 -0.2977  0.7392  0.3804
  799MOL0     C 7750  -0.257   5.929   4.151 -0.0697  0.3907 -0.7572
  799MOL0     C 7751  -0.251   6.083   4.167 -0.3069  0.0419  1.1587
  799MOL0     C 7752  -0.234   6.137   4.036 -0.6000 -0.6151  0.3743
  799MOL0     C 7753  -0.344   6.111   3.934 -0.6595  0.5928 -0.0804
  799MOL0     O 7754  -0.464   6.150   3.987 -0.4026 -0.3211  0.3652
  799MOL0     C 7755  -0.580   6.089   3.941  0.0663  0.6223  0.1573
  799MOL0     C 7756  -0.607   6.064   3.802 -0.5882 -1.0775 -0.0878
  799MOL0     C 7757  -0.706   5.977   3.763  0.3788 -0.2881 -0.4780
  799MOL0     C 7758  -0.796   5.922   3.864  0.6505 -0.3237 -0.3310
  799MOL0     C 7759  -0.923   5.861   3.820  0.7428 -0.0941 -0.4013
  799MOL0     O 7760  -0.994   5.791   3.909 -0.1816  0.1270 -0.5524
  799MOL0     C 7761  -1.101   5.721   3.853 -0.4015  0.4224 -0.2313
  799MOL0     C 7762  -1.227   5.746   3.901  0.3085 -0.3649  0.8977
  799MOL0     C 7763  -1.340   5.654   3.880  0.2778  0.4085 -0.6090
  799MOL0     C 7764  -1.320   5.527   3.825 -0.2102 -0.3177  0.3159
  799MOL0     O 7765  -1.416   5.425   3.820 -0.5598  0.1560  0.0663
  799MOL0     C 7766  -1.558   5.465   3.858  0.7585 -0.7878 -1.1596
  799MOL0     C 7767  -1.655   5.344   3.836 -1.4094 -1.5556 -0.7218
  799MOL0     C 7768  -1.654   5.222   3.931  0.7254 -0.4743  0.4943
  799MOL0     C 7769  -1.756   5.268   4.040 -0.3587  0.5310  0.6312
  799MOL0     C 7770  -1.766   5.175   4.158  0.1045 -0.7184 -0.7833
  799MOL0     C 7771  -1.857   5.236   4.264 -0.0890 -0.4442  1.0442
  799MOL0     C 7772  -1.860   5.154   4.394 -0.2445 -0.3394 -0.2491
  799MOL0     C 7773  -1.724   5.194   4.477 -0.8271 -0.0823  0.2332
  799MOL0    Cl 7774  -1.720   5.109   4.634 -0.0216 -0.0285 -0.2559
  799MOL0     C 7775  -1.195   5.516   3.763  0.3873  0.3301 -0.4291
  799MOL0     C 7776  -1.087   5.606   3.773  1.0065 -0.8490  0.1564
  799MOL0     O 7777  -0.946   5.871   3.700 -0.7522 -0.2200 -0.1799
  799MOL0     C 7778  -0.776   5.962   3.995 -0.2723  0.7832 -0.5367
  799MOL0     C 7779  -0.668   6.037   4.029 -0.6240 -0.6936  0.7078
  799MOL0     N 7780  -0.375   5.838   4.349  0.2408 -0.0068  0.4880
  799MOL0     N 7781  -0.346   5.785   4.461  0.4635  0.3722 -0.2188
  799MOL0     C 7782   0.600   4.933   4.384 -1.0477  1.0068  0.8369
  799MOL0     C 7783   0.686   4.815   4.384  1.2159 -0.3991 -0.3706
  799MOL0     C 7784   0.714   4.369   4.230 -0.3998 -0.6832  0.1134
  799MOL0     C 7785   0.631   4.253   4.198 -0.1149 -0.3960 -0.4386
  799MOL0     C 7786   0.689   4.129   4.155 -0.5527  0.3652 -0.6103
  799MOL0     C 7787   0.833   4.117   4.158  0.8101 -1.1379  0.3858
  799MOL0     O 7788   0.910   4.006   4.118  0.0405  0.6882  0.3499
  799MOL0     C 7789   0.831   3.889   4.100 -0.4799  0.7583  0.3348
  799MOL0     C 7790   0.944   3.785   4.067 -0.1967  0.1554 -0.4365
  799MOL0     C 7791   0.877   3.652   4.027  0.0943  0.5869 -0.3106
  799MOL0     C 7792   0.989   3.555   3.984  0.3977 -1.4353  0.1084
  799MOL0     C 7793   0.976   3.528   3.838  0.8327 -0.8129 -0.7882
  799MOL0     C 7794   0.964   3.489   3.723  0.2904 -0.4199  0.5267
  799MOL0     C 7795   0.905   4.229   4.192 -0.4193  0.5278  0.0453
  799MOL0     C 7796   0.851   4.356   4.218 -0.2732 -1.2658 -0.6616
  799MOL0     C 7797   0.947   4.465   4.253  0.6019 -1.0071 -0.2285
  799MOL0     H 7798   0.447   4.582   4.437 -0.8262  1.1501  4.0561
  799MOL0     H 7799   0.306   4.766   4.448 -0.3109  0.3572  0.1434
  799MOL0     H 7800   0.416   5.079   4.591 -3.1262  0.8519  0.6253
  799MOL0     H 7801   0.485   5.177   4.451 -0.4699  1.3939  0.0658
  799MOL0     H 7802   0.217   5.163   4.562 -0.3344  1.8023  0.6135
  799MOL0     H 7803   0.236   5.222   4.395 -5.0167 -2.4477  2.1502
  799MOL0     H 7804   0.422   5.393   4.521 -0.4829  0.9049 -0.4186
  799MOL0     H 7805   0.363   5.305   4.657 -0.3737 -1.3612 -0.7692
  799MOL0     H 7806   0.266   5.556   4.623 -2.7813  1.0281  1.3202
  799MOL0     H 7807   0.223   5.509   4.466  1.1136 -0.2324 -0.7311
  799MOL0     H 7808   0.058   5.352   4.558  1.5201 -2.0616  0.1885
  799MOL0     H 7809   0.128   5.371   4.727  2.9878  1.1818 -1.2113
  799MOL0     H 7810  -0.081   5.485   4.712 -0.2041 -0.0994  0.6951
  799MOL0     H 7811   0.054   5.592   4.754 -0.6917  2.0543 -0.9147
  799MOL0     H 7812  -0.046   5.559   4.475  1.4961  1.5263 -0.8132
  799MOL0     H 7813   0.054   5.686   4.518 -1.0847 -0.9754 -5.3002
  799MOL0     H 7814  -0.223   5.646   4.636 -0.2570  0.6372  0.9106
  799MOL0     H 7815  -0.130   5.779   4.673  0.7407  1.5689 -0.5559
  799MOL0     H 7816  -0.053   5.835   4.344  0.2355 -1.0059  2.8301
  799MOL0     H 7817  -0.166   5.895   4.101 -2.0693 -6.1918 -0.7950
  799MOL0     H 7818  -0.339   5.891   4.090  0.0790 -1.3293  0.0440
  799MOL0     H 7819  -0.345   6.110   4.216 -1.0272  4.7472 -2.1346
  799MOL0     H 7820  -0.180   6.111   4.245 -1.1384 -1.4586  2.5264
  799MOL0     H 7821  -0.136   6.110   3.997 -0.4146 -3.0356  2.2648
  799MOL0     H 7822  -0.225   6.244   4.053  2.2021 -0.1339 -3.0465
  799MOL0     H 7823  -0.337   6.002   3.931  2.2158  0.6170  2.0551
  799MOL0     H 7824  -0.326   6.153   3.835  0.2314 -1.2594 -0.7534
  799MOL0     H 7825  -0.550   6.103   3.719 -0.4506 -1.5817 -0.2381
  799MOL0     H 7826  -0.715   5.946   3.659 -1.4112 -2.1407  0.1670
  799MOL0     H 7827  -1.248   5.824   3.974 -1.9728  0.7013 -0.7879
  799MOL0     H 7828  -1.439   5.679   3.916  1.1318  0.3604  1.9820
  799MOL0     H 7829  -1.575   5.498   3.961 -0.8445  1.0264 -1.9404
  799MOL0     H 7830  -1.588   5.544   3.788  1.5286 -0.4207 -1.0834
  799MOL0     H 7831  -1.758   5.376   3.824 -1.4777 -0.7017  1.6548
  799MOL0     H 7832  -1.623   5.311   3.737 -1.6263 -3.1217 -0.2952
  799MOL0     H 7833  -1.684   5.134   3.872  1.1680 -0.1892 -0.1773
  799MOL0     H 7834  -1.553   5.208   3.971  1.4962 -2.2449 -1.8329
  799MOL0     H 7835  -1.850   5.301   3.996 -0.7839  2.0201  2.5082
  799MOL0     H 7836  -1.731   5.360   4.094 -0.0978 -0.8118  2.9614
  799MOL0     H 7837  -1.665   5.154   4.195  0.4592  0.5259 -0.9799
  799MOL0     H 7838  -1.806   5.075   4.142  1.8834 -2.9324  5.5945
  799MOL0     H 7839  -1.823   5.336   4.290 -2.6793  0.2338  2.1816
  799MOL0     H 7840  -1.953   5.237   4.211  0.7187 -2.3469 -0.6088
  799MOL0     H 7841  -1.874   5.045   4.388 -1.5540 -0.7296  4.8286
  799MOL0     H 7842  -1.945   5.190   4.453 -0.5361  0.5360 -1.1794
  799MOL0     H 7843  -1.630   5.175   4.424  0.0146  0.5479  1.4785
  799MOL0     H 7844  -1.719   5.301   4.497 -1.0526  0.0936 -0.6226
  799MOL0     H 7845  -1.170   5.429   3.703  0.0080 -0.0512 -0.0390
  799MOL0     H 7846  -0.994   5.586   3.719  1.3059  2.2897 -0.7043
  799MOL0     H 7847  -0.851   5.925   4.065  0.2396 -1.4884 -1.1155
  799MOL0     H 7848  -0.655   6.057   4.135  1.4088 -0.0505  0.3864
  799MOL0     H 7849   0.642   5.027   4.349  1.0891 -1.1112 -2.9474
  799MOL0     H 7850   0.791   4.832   4.360  1.0612 -0.5435 -1.1932
  799MOL0     H 7851   0.523   4.262   4.203 -0.3328 -1.0457 -2.7884
  799MOL0     H 7852   0.622   4.044   4.142  0.2915 -0.5454  0.7898
  799MOL0     H 7853   0.758   3.902   4.020 -0.3528  0.5706  0.1859
  799MOL0     H 7854   0.766   3.871   4.186 -1.4827 -1.2198 -0.7779
  799MOL0     H 7855   1.000   3.766   4.159  2.3181 -0.4192 -1.9983
  799MOL0     H 7856   1.015   3.811   3.988  1.1954 -2.5479 -0.2047
  799MOL0     H 7857   0.812   3.666   3.940  0.0465 -0.1600 -0.3964
  799MOL0     H 7858   0.824   3.611   4.113  0.6858  0.0187 -0.2068
  799MOL0     H 7859   1.088   3.595   4.011 -0.0244 -0.6626  0.5322
  799MOL0     H 7860   0.983   3.462   4.041  0.1197 -1.9066 -0.6716
  799MOL0     H 7861   0.945   3.461   3.621 -0.8953 -3.1714  1.4071
  799MOL0     H 7862   1.012   4.212   4.179 -0.5082  0.9732 -1.5135
  799MOL0     H 7863   1.053   4.436   4.260  1.3970  1.9482  2.4766
  799MOL0     H 7864   0.943   4.545   4.180 -3.3428 -2.0419 -1.3534
  799MOL0     H 7865   0.911   4.498   4.351 -1.6470 -0.5573 -1.1562
  800MOL0     O 7866   9.325   3.954   3.594  1.2082 -0.1265  0.1379
  800MOL0     C 7867   9.357   3.995   3.483  0.8128 -0.1560  0.5992
  800MOL0     O 7868   9.483   4.002   3.434  0.0676  0.9890 -0.2518
  800MOL0     C 7869   9.577   3.928   3.489  0.0771 -0.4490  0.3106
  800MOL0     C 7870   9.707   3.973   3.467  0.7436 -0.7562 -0.2357
  800MOL0     C 7871   9.822   3.905   3.500 -0.3064  0.2056 -0.0185
  800MOL0     C 7872   9.812   3.787   3.573 -0.9220 -1.0045  0.0234
  800MOL0     O 7873   9.923   3.716   3.620  0.2918 -0.5392  0.2863
  800MOL0     C 7874  10.046   3.785   3.648  0.1910 -0.1813  0.1044
  800MOL0     C 7875  10.142   3.776   3.532 -0.6567  0.6531 -0.2494
  800MOL0     C 7876  10.296   3.768   3.577  0.2269  0.0669 -0.3612
  800MOL0     C 7877  10.343   3.632   3.626 -0.0616 -1.0119  0.6094
  800MOL0     C 7878  10.490   3.614   3.668  0.3679  0.7566  0.3660
  800MOL0     C 7879  10.507   3.469   3.717 -0.9756  0.7270  0.2444
  800MOL0     C 7880  10.532   3.367   3.596 -0.5223  0.6697  0.4117
  800MOL0     C 7881  10.574   3.232   3.659 -0.5939 -1.6183 -0.4213
  800MOL0     N 7882  10.554   3.120   3.569 -0.7528 -0.7383 -0.1088
  800MOL0     C 7883  10.442   3.060   3.506  0.8281  0.1708 -0.5822
  800MOL0     C 7884  10.490   2.956   3.432  0.1112 -0.2262 -0.3799
  800MOL0     C 7885  10.413   2.853   3.358  0.3130  0.0580  0.5727
  800MOL0     C 7886  10.296   2.910   3.277 -0.7620 -0.0159  0.3056
  800MOL0     C 7887  10.220   2.802   3.215  0.7150 -0.1737 -0.4534
  800MOL0     C 7888  10.131   2.874   3.102  0.5858  0.8597 -1.2990
  800MOL0     O 7889  10.051   2.974   3.159 -0.2144  0.3222  0.2450
  800MOL0     C 7890   9.910   2.961   3.157 -0.9989 -0.3002  0.0752
  800MOL0     C 7891   9.865   2.847   3.202  0.3293  0.1146 -0.2911
  800MOL0     C 7892   9.726   2.822   3.215  0.2068 -0.9067 -0.1311
  800MOL0     C 7893   9.633   2.919   3.177 -0.3137  0.4362 -0.7821
  800MOL0     C 7894   9.493   2.895   3.183 -0.4504 -0.1580  0.5999
  800MOL0     O 7895   9.417   2.983   3.119  0.7460  0.0911  0.1471
  800MOL0     C 7896   9.284   2.979   3.136  1.3423  0.2208  0.3443
  800MOL0     C 7897   9.206   2.971   3.250 -0.3968 -0.2332  0.2962
  800MOL0     C 7898   9.069   2.982   3.254 -0.0276  0.4207 -0.5401
  800MOL0     C 7899   9.001   3.002   3.132  0.2531 -0.3872  0.4402
  800MOL0     O 7900   8.859   3.001   3.139 -0.5544  0.0955 -0.0628
  800MOL0     C 7901   8.782   2.909   3.060  0.1483  0.1584 -0.0378
  800MOL0     C 7902   8.642   2.940   3.107 -0.1202 -0.0287 -0.0121
  800MOL0     C 7903   8.548   2.824   3.069  0.0629 -0.1911  0.2714
  800MOL0     C 7904   8.406   2.818   3.135  0.8909 -0.0287  1.2124
  800MOL0     C 7905   8.321   2.938   3.110 -0.3830  0.5747 -0.3563
  800MOL0     C 7906   8.212   2.964   3.217 -1.0547 -0.6044  1.0550
  800MOL0     C 7907   8.094   2.877   3.179 -0.2911  0.3366  0.5398
  800MOL0     C 7908   7.967   2.909   3.255 -0.3023 -1.1753  0.4968
  800MOL0    Cl 7909   7.830   2.814   3.198  0.2770  0.4450  0.4337
  800MOL0     C 7910   9.072   3.000   3.011  0.1556  1.0216 -0.5828
  800MOL0     C 7911   9.213   3.000   3.012  0.4216  0.2377 -0.5767
  800MOL0     O 7912   9.467   2.788   3.231  0.5812  0.1471  0.1918
  800MOL0     C 7913   9.681   3.043   3.124 -0.1282  0.9675 -0.7328
  800MOL0     C 7914   9.824   3.069   3.109  0.1259 -0.2292  0.3608
  800MOL0     N 7915  10.625   2.948   3.446  0.5649  0.5045 -0.1350
  800MOL0     N 7916  10.666   3.055   3.524  0.3093  0.5980  0.5600
  800MOL0     C 7917   9.686   3.739   3.588  1.1026 -0.1953  0.0427
  800MOL0     C 7918   9.568   3.807   3.555  0.6169 -0.6577  0.3682
  800MOL0     C 7919   9.247   4.070   3.409 -0.2291 -0.3837 -0.4873
  800MOL0     C 7920   9.292   4.181   3.334  0.3541  0.7706  1.3531
  800MOL0     C 7921   9.203   4.253   3.250  0.3259  0.5058  0.5519
  800MOL0     C 7922   9.066   4.213   3.256 -0.4337 -0.4672 -0.3083
  800MOL0     O 7923   8.966   4.271   3.186  0.1950 -0.7786 -0.5827
  800MOL0     C 7924   9.010   4.369   3.091  0.3025 -0.6841 -0.5562
  800MOL0     C 7925   8.879   4.420   3.025  0.3997  0.6444 -0.3541
  800MOL0     C 7926   8.828   4.314   2.923  0.4803  0.1370  0.4209
  800MOL0     C 7927   8.750   4.190   2.972 -0.5373 -1.1044 -0.3376
  800MOL0     C 7928   8.724   4.107   2.859  0.2657 -0.3751  0.2011
  800MOL0     C 7929   8.696   4.031   2.769  0.7722  0.8131 -0.2287
  800MOL0     C 7930   9.020   4.120   3.349 -0.8454  0.1509  0.4138
  800MOL0     C 7931   9.114   4.046   3.424 -0.4407 -0.9851  0.5051
  800MOL0     C 7932   9.044   3.939   3.510 -0.2559 -0.0049 -0.5976
  800MOL0     H 7933   9.738   4.067   3.423  0.6463 -0.7696 -0.3345
  800MOL0     H 7934   9.918   3.949   3.476 -0.6694  0.5484 -0.8404
  800MOL0     H 7935  10.035   3.894   3.649  0.5290 -0.1000 -1.6734
  800MOL0     H 7936  10.085   3.754   3.745  1.1895 -0.8172 -0.4885
  800MOL0     H 7937  10.116   3.862   3.470  2.4020  2.6608  1.0253
  800MOL0     H 7938  10.115   3.687   3.475 -0.2686 -0.4510  1.2177
  800MOL0     H 7939  10.318   3.843   3.654 -0.7926 -0.6200  0.6152
  800MOL0     H 7940  10.355   3.793   3.488  0.0372  1.2347 -0.1783
  800MOL0     H 7941  10.272   3.612   3.707 -2.2034 -1.1986 -1.1884
  800MOL0     H 7942  10.337   3.559   3.545  6.2373  1.3325 -2.5854
  800MOL0     H 7943  10.541   3.626   3.571 -0.9191 -1.2229 -0.6016
  800MOL0     H 7944  10.522   3.688   3.742  0.4876 -0.8496  1.9853
  800MOL0     H 7945  10.604   3.461   3.769  0.1280 -3.5258 -1.9662
  800MOL0     H 7946  10.418   3.428   3.766  0.5390 -0.8849  1.8425
  800MOL0     H 7947  10.613   3.401   3.530 -1.5403  1.4612 -0.4638
  800MOL0     H 7948  10.444   3.368   3.531 -0.6757  2.7367  0.5756
  800MOL0     H 7949  10.679   3.237   3.689 -0.4855  1.5098 -0.9770
  800MOL0     H 7950  10.514   3.213   3.748 -1.6334  2.1351 -0.1545
  800MOL0     H 7951  10.337   3.084   3.507 -0.0465 -2.3077 -4.9891
  800MOL0     H 7952  10.485   2.804   3.291 -1.4840 -0.0501 -1.3901
  800MOL0     H 7953  10.369   2.772   3.417  1.0768 -0.6728  0.1703
  800MOL0     H 7954  10.238   2.967   3.351  3.1668  3.8199  0.8535
  800MOL0     H 7955  10.334   2.980   3.202  1.0429 -1.2411  0.0221
  800MOL0     H 7956  10.155   2.748   3.284 -1.7975  0.4396 -2.1825
  800MOL0     H 7957  10.281   2.730   3.160  0.3756  0.9767 -2.4267
  800MOL0     H 7958  10.079   2.797   3.044 -1.5301  1.3335 -0.1549
  800MOL0     H 7959  10.195   2.933   3.036 -1.3552  1.9998 -2.2552
  800MOL0     H 7960   9.926   2.765   3.237 -1.1568 -0.7432  0.3999
  800MOL0     H 7961   9.696   2.731   3.266 -0.6416 -0.8480 -0.5040
  800MOL0     H 7962   9.263   2.961   3.342  1.9363  2.0210 -0.7616
  800MOL0     H 7963   9.020   2.968   3.349 -0.4480 -2.5104 -1.0872
  800MOL0     H 7964   8.787   2.923   2.952  0.7962 -5.0992 -0.9324
  800MOL0     H 7965   8.811   2.807   3.088 -0.4235  0.2814  1.0829
  800MOL0     H 7966   8.647   2.951   3.216  1.5239 -0.8673  0.0271
  800MOL0     H 7967   8.598   3.021   3.049  0.9101  0.8052  0.3395
  800MOL0     H 7968   8.532   2.821   2.960 -1.7460 -1.8056  0.5108
  800MOL0     H 7969   8.594   2.726   3.085  2.1595  0.2913 -2.1244
  800MOL0     H 7970   8.424   2.812   3.243  3.3392 -3.2245  0.7715
  800MOL0     H 7971   8.353   2.730   3.099 -0.0156  0.8954  0.1965
  800MOL0     H 7972   8.277   2.929   3.010 -0.6159 -1.9831 -0.0969
  800MOL0     H 7973   8.379   3.031   3.110 -3.8356  2.9333 -1.6820
  800MOL0     H 7974   8.241   2.936   3.318  1.9382 -0.3703  0.3610
  800MOL0     H 7975   8.178   3.068   3.206 -0.7165 -0.6111 -0.1578
  800MOL0     H 7976   8.113   2.769   3.189 -3.3885 -0.2514  1.4092
  800MOL0     H 7977   8.069   2.900   3.075  0.6477  1.0118  0.4605
  800MOL0     H 7978   7.980   2.901   3.364  0.9721 -2.0608  0.3036
  800MOL0     H 7979   7.947   3.014   3.233 -0.3048 -1.6295 -1.9796
  800MOL0     H 7980   9.018   3.007   2.917 -2.4678 -1.4271  0.5887
  800MOL0     H 7981   9.282   3.000   2.927  1.3116 -0.5072  0.1210
  800MOL0     H 7982   9.618   3.120   3.081  1.1446  2.1250 -0.6077
  800MOL0     H 7983   9.860   3.163   3.068  1.4339 -1.2605 -0.9903
  800MOL0     H 7984   9.669   3.645   3.639  0.9953  1.5384  3.5176
  800MOL0     H 7985   9.475   3.752   3.569 -0.6472  0.7905 -1.7344
  800MOL0     H 7986   9.396   4.211   3.337  0.1977  2.0864 -2.0134
  800MOL0     H 7987   9.240   4.330   3.182 -1.5943 -1.2064 -2.6468
  800MOL0     H 7988   9.077   4.337   3.010  0.5999 -0.5548 -0.3631
  800MOL0     H 7989   9.046   4.460   3.139 -2.5913 -0.1123  0.6942
  800MOL0     H 7990   8.903   4.506   2.962 -0.5878  1.7254  0.6707
  800MOL0     H 7991   8.806   4.455   3.100 -1.5517 -0.3816 -1.6743
  800MOL0     H 7992   8.894   4.294   2.837 -2.6307  0.0846 -2.1693
  800MOL0     H 7993   8.754   4.366   2.860  2.7400 -0.1427 -2.7322
  800MOL0     H 7994   8.813   4.128   3.037 -1.3677 -0.3316  1.2680
  800MOL0     H 7995   8.668   4.217   3.040 -2.3705 -0.6660 -2.6071
  800MOL0     H 7996   8.644   3.964   2.704 -0.4406  0.1757  1.3174
  800MOL0     H 7997   8.914   4.100   3.355 -0.6446 -4.4332 -4.0490
  800MOL0     H 7998   9.031   3.980   3.610  0.9633  1.7696 -1.1327
  800MOL0     H 7999   8.939   3.922   3.483 -1.5337  4.7254  0.4441
  800MOL0     H 8000   9.099   3.844   3.517 -3.4185 -1.8632  2.9318
  801MOL0     O 8001   4.275   5.385   2.890 -0.2915  0.8384 -0.5946
  801MOL0     C 8002   4.216   5.299   2.951  0.6953  0.3572 -0.7278
  801MOL0     O 8003   4.110   5.328   3.035  0.1718  0.0147 -0.0265
  801MOL0     C 8004   4.067   5.452   3.057 -0.4955 -0.8936 -0.1583
  801MOL0     C 8005   4.068   5.574   2.983  0.4669 -0.7609 -0.3925
  801MOL0     C 8006   4.017   5.698   3.039  0.1541  0.5736  0.0179
  801MOL0     C 8007   3.961   5.705   3.159  0.2891  0.1098 -0.3221
  801MOL0     O 8008   3.936   5.819   3.229 -0.3142  0.0920  0.7824
  801MOL0     C 8009   3.914   5.938   3.137 -0.3971  0.0947 -0.8363
  801MOL0     C 8010   3.902   6.061   3.230  0.3355  0.0316 -0.9920
  801MOL0     C 8011   3.941   6.189   3.159  0.1209  0.4199 -0.0528
  801MOL0     C 8012   3.963   6.308   3.252 -0.6927 -0.6133  0.7587
  801MOL0     C 8013   4.014   6.442   3.187  0.8521 -0.4291 -0.7373
  801MOL0     C 8014   4.049   6.531   3.299 -0.4571 -0.4952  0.7899
  801MOL0     C 8015   4.114   6.660   3.247  1.0093  0.8073  0.0995
  801MOL0     C 8016   4.143   6.754   3.363  0.1325 -1.9024  0.0919
  801MOL0     N 8017   4.205   6.871   3.301 -0.1970  0.2698 -0.0384
  801MOL0     C 8018   4.253   6.971   3.374 -0.4538  1.2437  0.4762
  801MOL0     C 8019   4.293   7.071   3.297 -0.3962 -0.1301 -0.7553
  801MOL0     C 8020   4.348   7.197   3.366  0.1262  0.2070  0.1256
  801MOL0     C 8021   4.238   7.275   3.435  0.3388  0.7922 -0.3103
  801MOL0     C 8022   4.271   7.421   3.425  0.3894  0.1082 -0.0835
  801MOL0     C 8023   4.401   7.463   3.499  0.2976 -0.4881  0.1022
  801MOL0     O 8024   4.507   7.481   3.406  0.3168 -0.0599  0.5883
  801MOL0     C 8025   4.642   7.504   3.455  1.1167  0.4988  0.8827
  801MOL0     C 8026   4.744   7.496   3.362  0.3734 -0.9053 -0.2575
  801MOL0     C 8027   4.877   7.516   3.405  0.1442 -0.4414  0.8086
  801MOL0     C 8028   4.915   7.546   3.535 -0.3286 -0.2588 -0.1792
  801MOL0     C 8029   5.063   7.555   3.579  0.3205 -0.2033  0.1724
  801MOL0     O 8030   5.094   7.550   3.716  0.0812  1.2187  1.0913
  801MOL0     C 8031   5.220   7.579   3.760 -1.1724 -1.1508  0.3547
  801MOL0     C 8032   5.334   7.508   3.712 -0.5061  0.1358  0.1835
  801MOL0     C 8033   5.461   7.531   3.761 -0.0965  0.7598 -0.1573
  801MOL0     C 8034   5.486   7.622   3.853 -0.0582 -1.7542 -0.4672
  801MOL0     O 8035   5.611   7.666   3.882  0.4461 -0.3039 -0.4112
  801MOL0     C 8036   5.648   7.808   3.883  0.0415 -0.9544 -0.8721
  801MOL0     C 8037   5.694   7.875   4.013 -0.0369 -0.5161 -0.4898
  801MOL0     C 8038   5.577   7.899   4.111  0.0159 -0.4717  0.9589
  801MOL0     C 8039   5.625   7.980   4.229  0.2876 -0.0185  0.1475
  801MOL0     C 8040   5.506   8.012   4.327  0.8068  0.5764 -0.2981
  801MOL0     C 8041   5.546   8.122   4.418  0.4954 -0.2540 -1.3545
  801MOL0     C 8042   5.416   8.146   4.513 -0.7559 -0.3304 -0.7704
  801MOL0     C 8043   5.452   8.264   4.596 -0.5363  0.2536  0.2948
  801MOL0    Cl 8044   5.307   8.362   4.637 -0.1409  0.1800  0.1816
  801MOL0     C 8045   5.370   7.687   3.912  0.0597  0.3396  0.8863
  801MOL0     C 8046   5.244   7.667   3.865 -0.4263 -0.0257 -0.1548
  801MOL0     O 8047   5.133   7.597   3.487  0.4848 -0.2478 -0.3902
  801MOL0     C 8048   4.810   7.567   3.631  0.9484  0.6535  0.2358
  801MOL0     C 8049   4.680   7.528   3.592 -0.2935  0.5633 -1.1738
  801MOL0     N 8050   4.269   7.030   3.174 -0.3715  0.0792  0.1580
  801MOL0     N 8051   4.218   6.911   3.171 -0.3751  0.2642 -0.8676
  801MOL0     C 8052   3.945   5.586   3.229  0.3935  0.2882 -1.2698
  801MOL0     C 8053   3.995   5.460   3.178 -0.3983 -0.1943  0.5811
  801MOL0     C 8054   4.239   5.149   2.926  0.4555 -0.3979 -0.4296
  801MOL0     C 8055   4.127   5.070   2.957 -0.6639  0.6265 -1.0576
  801MOL0     C 8056   4.143   4.935   2.942 -0.1329 -0.4852 -0.8139
  801MOL0     C 8057   4.250   4.880   2.877 -0.1994 -0.1111  0.5297
  801MOL0     O 8058   4.275   4.754   2.835 -0.7486  0.2162 -0.6034
  801MOL0     C 8059   4.189   4.647   2.879  0.0465 -0.6134 -0.5783
  801MOL0     C 8060   4.276   4.518   2.878 -0.5678 -0.2470 -0.2339
  801MOL0     C 8061   4.326   4.495   2.734  0.1506 -0.1817 -0.4953
  801MOL0     C 8062   4.456   4.414   2.735  0.6194  1.3121  0.1211
  801MOL0     C 8063   4.560   4.493   2.801  0.6337  0.2827  0.4597
  801MOL0     C 8064   4.638   4.555   2.870  0.1925  0.6770  0.2838
  801MOL0     C 8065   4.354   4.966   2.848  0.0662  0.5306  0.8502
  801MOL0     C 8066   4.353   5.099   2.862 -0.1749  0.9201 -0.3627
  801MOL0     C 8067   4.480   5.171   2.847 -0.5650  0.7217  0.5696
  801MOL0     H 8068   4.115   5.596   2.887 -3.0062  2.2958 -1.6660
  801MOL0     H 8069   3.998   5.776   2.965 -2.0366  0.0416 -0.0507
  801MOL0     H 8070   3.998   5.959   3.070 -0.8149 -1.4747 -1.8970
  801MOL0     H 8071   3.829   5.921   3.071 -1.2904  1.3739 -0.0572
  801MOL0     H 8072   3.972   6.045   3.312 -0.5398  1.5493  0.0891
  801MOL0     H 8073   3.800   6.077   3.266  0.3517  1.0256 -1.3545
  801MOL0     H 8074   3.857   6.221   3.096  0.6129  1.1285 -0.3640
  801MOL0     H 8075   4.021   6.184   3.085 -0.7359  1.0990 -1.0654
  801MOL0     H 8076   3.874   6.324   3.313 -2.6740 -0.8364 -1.9115
  801MOL0     H 8077   4.030   6.284   3.336 -2.4725  0.8354  2.7051
  801MOL0     H 8078   4.108   6.424   3.134  0.6320 -1.2369 -0.8773
  801MOL0     H 8079   3.939   6.495   3.127 -0.1676 -0.7999  0.1651
  801MOL0     H 8080   3.959   6.558   3.356 -0.7880  0.9884 -0.4041
  801MOL0     H 8081   4.127   6.480   3.357  1.8662 -0.2677 -1.9175
  801MOL0     H 8082   4.046   6.704   3.173 -0.3427 -2.3933 -0.7229
  801MOL0     H 8083   4.206   6.630   3.196 -0.6359  0.2391 -2.7437
  801MOL0     H 8084   4.052   6.773   3.420 -0.0391 -3.0788  0.2445
  801MOL0     H 8085   4.215   6.711   3.433  1.8285  0.0177 -0.3840
  801MOL0     H 8086   4.256   6.970   3.483 -2.5687 -0.8661  0.5851
  801MOL0     H 8087   4.421   7.168   3.442  1.4451  3.6821  0.3736
  801MOL0     H 8088   4.405   7.255   3.293  0.4810  1.3766  1.2852
  801MOL0     H 8089   4.145   7.267   3.378  0.2430  1.0191 -0.1874
  801MOL0     H 8090   4.228   7.238   3.537 -0.3429 -2.2435 -1.3819
  801MOL0     H 8091   4.186   7.479   3.461  0.7371  0.7656 -0.2980
  801MOL0     H 8092   4.275   7.440   3.318  0.0185  0.5357 -0.0236
  801MOL0     H 8093   4.431   7.390   3.575 -0.1311 -0.6466  0.1259
  801MOL0     H 8094   4.377   7.557   3.548  0.2444 -0.9775  1.0473
  801MOL0     H 8095   4.724   7.466   3.260  0.6430 -2.6494  0.1710
  801MOL0     H 8096   4.947   7.490   3.327  0.5451 -1.1619  1.3927
  801MOL0     H 8097   5.327   7.445   3.623  1.4583  0.5814 -0.3240
  801MOL0     H 8098   5.538   7.468   3.718 -2.0266 -1.7471 -0.1983
  801MOL0     H 8099   5.733   7.829   3.817 -1.5762  3.4652 -1.9423
  801MOL0     H 8100   5.561   7.865   3.848  0.9300  0.5920 -0.6730
  801MOL0     H 8101   5.761   7.805   4.064 -0.5526 -0.6155  0.0630
  801MOL0     H 8102   5.750   7.968   4.004  1.5143 -1.3021  0.6761
  801MOL0     H 8103   5.493   7.954   4.068 -1.4868 -3.0672  0.3166
  801MOL0     H 8104   5.555   7.797   4.146 -0.0651 -0.4547  0.9576
  801MOL0     H 8105   5.661   8.080   4.204 -3.1324  2.1103  2.8263
  801MOL0     H 8106   5.704   7.932   4.288  1.1169 -1.5530 -2.0937
  801MOL0     H 8107   5.492   7.922   4.388  2.5596  1.1938  1.1079
  801MOL0     H 8108   5.411   8.034   4.277 -0.4958 -3.4012  0.0975
  801MOL0     H 8109   5.632   8.101   4.482 -0.2140 -0.5367 -0.4653
  801MOL0     H 8110   5.564   8.213   4.362 -0.0531  0.8030  0.1145
  801MOL0     H 8111   5.396   8.063   4.580  2.2424  0.1064  0.8390
  801MOL0     H 8112   5.329   8.175   4.452 -1.7919 -1.4006  0.1510
  801MOL0     H 8113   5.507   8.239   4.688 -2.3971  4.0140  2.6794
  801MOL0     H 8114   5.529   8.322   4.544 -0.8513  1.0386  0.6819
  801MOL0     H 8115   5.384   7.773   3.978  2.1299  1.1945 -0.5635
  801MOL0     H 8116   5.164   7.725   3.910  0.9659  1.9443 -0.0971
  801MOL0     H 8117   4.835   7.603   3.731  1.7741  0.0365  0.2694
  801MOL0     H 8118   4.614   7.551   3.675 -0.2621 -0.9781 -0.6783
  801MOL0     H 8119   3.902   5.605   3.327  1.7192 -2.1647 -0.1448
  801MOL0     H 8120   3.985   5.370   3.237  2.3905 -1.2480 -0.3940
  801MOL0     H 8121   4.035   5.117   2.990  0.3579  3.2534 -1.6955
  801MOL0     H 8122   4.069   4.859   2.964  0.6846 -0.9910  0.3245
  801MOL0     H 8123   4.092   4.635   2.829 -2.4732 -3.7910  4.1820
  801MOL0     H 8124   4.146   4.665   2.978  0.0425 -0.9558 -0.5139
  801MOL0     H 8125   4.209   4.438   2.910 -1.5323  1.2684  1.7789
  801MOL0     H 8126   4.355   4.524   2.953 -1.4107 -1.7673  0.8429
  801MOL0     H 8127   4.340   4.591   2.685  0.9461 -1.0273 -1.9823
  801MOL0     H 8128   4.259   4.445   2.663 -3.4240  0.4206  2.1737
  801MOL0     H 8129   4.432   4.319   2.782 -0.3417  0.4683 -1.9392
  801MOL0     H 8130   4.492   4.396   2.633  1.6212  0.9906  0.5136
  801MOL0     H 8131   4.709   4.599   2.937 -1.7098  2.2026  1.3917
  801MOL0     H 8132   4.436   4.925   2.790 -0.9219  1.4068 -1.2527
  801MOL0     H 8133   4.479   5.239   2.761  2.5381 -0.6408 -0.7130
  801MOL0     H 8134   4.509   5.233   2.932  1.8816 -0.1249  0.4398
  801MOL0     H 8135   4.558   5.099   2.820 -1.8665 -0.1937 -0.9537
  802MOL0     O 8136   9.141   6.884   4.216 -0.3261 -0.1773  1.7622
  802MOL0     C 8137   9.041   6.814   4.223  0.2333  0.3635 -0.4019
  802MOL0     O 8138   8.930   6.836   4.300 -0.2572 -0.0243 -0.6467
  802MOL0     C 8139   8.935   6.941   4.392  0.9928  0.5717  0.2108
  802MOL0     C 8140   9.022   6.936   4.496  0.0626  0.4558 -0.1706
  802MOL0     C 8141   9.018   7.034   4.600  0.3811  1.1610  0.6111
  802MOL0     C 8142   8.921   7.136   4.581  0.2521  0.3871 -0.1634
  802MOL0     O 8143   8.902   7.244   4.670 -0.1293 -0.7271  0.8182
  802MOL0     C 8144   8.961   7.370   4.624  0.1923 -0.9942 -0.4143
  802MOL0     C 8145   9.070   7.399   4.716  0.5447  0.7458 -0.6627
  802MOL0     C 8146   9.025   7.401   4.861 -0.0538  0.2669 -0.1479
  802MOL0     C 8147   9.148   7.440   4.955 -0.2366 -0.1720  0.2366
  802MOL0     C 8148   9.088   7.440   5.094 -0.2449 -0.2551  0.5694
  802MOL0     C 8149   9.179   7.468   5.215  0.2059 -0.2041  0.7876
  802MOL0     C 8150   9.102   7.511   5.346 -0.2333 -0.2015  1.0068
  802MOL0     C 8151   9.156   7.458   5.482 -0.3642  0.7798  0.2799
  802MOL0     N 8152   9.297   7.489   5.500 -0.8403  0.4770  0.2866
  802MOL0     C 8153   9.348   7.603   5.557  0.1695  0.3905  0.5871
  802MOL0     C 8154   9.474   7.561   5.585  0.1387 -0.3950 -0.6163
  802MOL0     C 8155   9.565   7.635   5.686  0.1855  0.4616  0.1712
  802MOL0     C 8156   9.673   7.720   5.619 -0.0809 -0.1364 -0.2952
  802MOL0     C 8157   9.751   7.794   5.732  0.2448  0.1699  0.7065
  802MOL0     C 8158   9.890   7.841   5.669  0.8012  0.1809  0.4204
  802MOL0     O 8159   9.869   7.926   5.555  0.0346  0.0188  0.6512
  802MOL0     C 8160   9.973   8.015   5.511 -0.4715  0.6977  0.2555
  802MOL0     C 8161   9.959   8.060   5.386  0.0616  0.3325  0.3668
  802MOL0     C 8162  10.051   8.146   5.325  0.4026  0.7037 -0.4388
  802MOL0     C 8163  10.151   8.209   5.407 -0.6673  0.5466 -0.4938
  802MOL0     C 8164  10.271   8.287   5.359  0.6368 -1.0045 -0.4899
  802MOL0     O 8165  10.356   8.341   5.447 -0.1695 -0.1959 -0.3169
  802MOL0     C 8166  10.472   8.395   5.405 -0.7472  0.1942 -0.4470
  802MOL0     C 8167  10.528   8.514   5.460  0.2309  0.0817  0.0946
  802MOL0     C 8168  10.653   8.562   5.426 -0.5914  0.4979  0.0922
  802MOL0     C 8169  10.742   8.489   5.351 -0.2822  0.6499  0.4294
  802MOL0     O 8170  10.869   8.529   5.323 -0.1758 -0.4152  0.1896
  802MOL0     C 8171  10.972   8.426   5.295 -0.1863 -0.1572  0.4408
  802MOL0     C 8172  11.113   8.488   5.280  0.2314 -0.4989 -0.6780
  802MOL0     C 8173  11.218   8.381   5.237 -0.6219  0.0931  0.9195
  802MOL0     C 8174  11.176   8.319   5.098  0.0559  0.9388 -0.6526
  802MOL0     C 8175  11.300   8.264   5.020  0.9055  1.0568 -0.7570
  802MOL0     C 8176  11.272   8.256   4.873 -0.3031  0.2171  0.4994
  802MOL0     C 8177  11.382   8.172   4.805  0.1288  0.3117 -0.6209
  802MOL0     C 8178  11.370   8.152   4.652  0.9188  0.6718  0.8422
  802MOL0    Cl 8179  11.312   8.292   4.566  0.1445  0.5085  1.0334
  802MOL0     C 8180  10.692   8.359   5.307 -1.0316  1.0947  1.5191
  802MOL0     C 8181  10.561   8.311   5.325 -0.9702  0.7241 -0.6426
  802MOL0     O 8182  10.275   8.305   5.241  0.2033  0.4643  0.5399
  802MOL0     C 8183  10.165   8.164   5.537  0.6766  0.5400 -0.7858
  802MOL0     C 8184  10.081   8.055   5.589 -0.1009 -0.4713 -0.5823
  802MOL0     N 8185   9.494   7.432   5.560  0.4188  0.4889 -0.1906
  802MOL0     N 8186   9.390   7.389   5.510  0.0099 -0.4823 -0.5896
  802MOL0     C 8187   8.828   7.132   4.478 -0.1045 -0.2039  1.3261
  802MOL0     C 8188   8.827   7.034   4.386 -0.4637  0.9241  0.7731
  802MOL0     C 8189   9.032   6.716   4.114 -0.1292 -0.2761  0.5459
  802MOL0     C 8190   9.003   6.757   3.977  0.3822  1.0735  0.3428
  802MOL0     C 8191   9.003   6.673   3.881  0.6803  0.7604  0.0184
  802MOL0     C 8192   9.031   6.540   3.909 -1.5110 -0.1168  0.3994
  802MOL0     O 8193   9.062   6.448   3.806 -0.8601 -0.0968 -0.3158
  802MOL0     C 8194   9.056   6.473   3.669  0.2529 -0.6326  0.5403
  802MOL0     C 8195   8.981   6.357   3.606 -0.3046  0.1067 -0.2644
  802MOL0     C 8196   9.070   6.252   3.548  0.1109  0.3201  1.1970
  802MOL0     C 8197   9.203   6.293   3.477 -0.6849 -0.1921 -0.0178
  802MOL0     C 8198   9.252   6.177   3.397 -0.3845 -0.1285  0.5936
  802MOL0     C 8199   9.282   6.077   3.335 -0.3781  0.3001 -0.3129
  802MOL0     C 8200   9.067   6.494   4.032  0.0491 -0.7406  0.5498
  802MOL0     C 8201   9.063   6.584   4.135 -0.1216  0.4335 -0.0852
  802MOL0     C 8202   9.088   6.525   4.263  0.2424  0.2489  0.3775
  802MOL0     H 8203   9.096   6.858   4.494 -2.4456 -2.0616 -1.5076
  802MOL0     H 8204   9.076   7.037   4.691  2.2773  0.9192 -0.5183
  802MOL0     H 8205   9.003   7.363   4.523  0.2170 -0.1150 -0.4759
  802MOL0     H 8206   8.891   7.454   4.629  0.2644 -0.9176 -0.6453
  802MOL0     H 8207   9.127   7.486   4.681  3.9547 -0.1588  2.0605
  802MOL0     H 8208   9.140   7.316   4.706 -1.3711 -0.9257 -0.7904
  802MOL0     H 8209   8.977   7.308   4.895 -0.7717 -0.5327 -3.1210
  802MOL0     H 8210   8.944   7.473   4.874  0.6304  1.2949 -1.4567
  802MOL0     H 8211   9.221   7.359   4.953 -3.1205 -3.0172  1.1640
  802MOL0     H 8212   9.190   7.533   4.917  0.3079 -1.0362 -1.3613
  802MOL0     H 8213   9.022   7.527   5.097  0.1981  0.0561  2.4975
  802MOL0     H 8214   9.026   7.351   5.105 -0.8497  0.0895  0.0099
  802MOL0     H 8215   9.226   7.371   5.228 -2.6293 -1.5441  1.9161
  802MOL0     H 8216   9.236   7.557   5.186  1.1467 -1.3007 -0.9100
  802MOL0     H 8217   9.003   7.465   5.336 -0.0459 -0.3773 -0.2021
  802MOL0     H 8218   9.087   7.619   5.346  0.7049 -0.0690  1.4966
  802MOL0     H 8219   9.101   7.498   5.568 -0.9980  0.2213  0.1404
  802MOL0     H 8220   9.136   7.351   5.473  2.5148  0.3268 -2.8525
  802MOL0     H 8221   9.314   7.705   5.572 -2.2962  0.1725 -2.6124
  802MOL0     H 8222   9.504   7.701   5.748  0.3691 -0.3700  1.2721
  802MOL0     H 8223   9.621   7.563   5.748  1.4803  1.9671  0.8198
  802MOL0     H 8224   9.745   7.653   5.571  1.8128  0.8029  1.0822
  802MOL0     H 8225   9.623   7.791   5.553  2.6116  1.7884 -0.4532
  802MOL0     H 8226   9.764   7.728   5.818  2.8702 -2.7207 -1.6741
  802MOL0     H 8227   9.693   7.884   5.758  0.3866  0.2241  0.8345
  802MOL0     H 8228   9.946   7.750   5.647 -2.2761 -1.8229  0.3338
  802MOL0     H 8229   9.928   7.901   5.752 -0.5022 -0.9136  1.8492
  802MOL0     H 8230   9.870   8.024   5.336 -1.0811  0.8655  1.9280
  802MOL0     H 8231  10.034   8.176   5.222 -1.3712  0.2936 -0.3034
  802MOL0     H 8232  10.470   8.560   5.540 -0.6702 -1.2222  0.2181
  802MOL0     H 8233  10.678   8.661   5.461 -0.1259  1.0124 -1.6026
  802MOL0     H 8234  10.976   8.355   5.378 -0.7041 -0.2803  0.3652
  802MOL0     H 8235  10.944   8.372   5.204  0.6312 -1.2686  0.8310
  802MOL0     H 8236  11.113   8.577   5.216  1.1308  0.6467  0.8630
  802MOL0     H 8237  11.150   8.528   5.375 -0.9030  1.7970 -1.1236
  802MOL0     H 8238  11.323   8.415   5.232  0.1738 -2.2611  0.4648
  802MOL0     H 8239  11.238   8.299   5.306  1.0380 -1.1173 -0.8908
  802MOL0     H 8240  11.123   8.389   5.033 -0.3461  0.8817 -0.3901
  802MOL0     H 8241  11.107   8.235   5.113  2.0727 -0.8692 -1.0444
  802MOL0     H 8242  11.325   8.166   5.061 -2.6409  1.1266  2.0575
  802MOL0     H 8243  11.390   8.326   5.027  5.4058 -4.4808 -2.2815
  802MOL0     H 8244  11.180   8.200   4.854  0.5635 -0.8725 -0.6311
  802MOL0     H 8245  11.259   8.353   4.825 -0.2268 -0.1113 -0.1954
  802MOL0     H 8246  11.394   8.076   4.858 -1.1536  1.9771  3.0359
  802MOL0     H 8247  11.478   8.219   4.830  0.5569 -1.0100  0.3636
  802MOL0     H 8248  11.463   8.109   4.613  0.3203  0.0058  0.1004
  802MOL0     H 8249  11.300   8.074   4.622  0.6756  1.4405 -0.7099
  802MOL0     H 8250  10.766   8.313   5.242 -1.6667  2.8938 -0.6372
  802MOL0     H 8251  10.532   8.210   5.296  2.0316 -0.2404 -0.6571
  802MOL0     H 8252  10.240   8.206   5.603 -2.6806  2.1109  2.4128
  802MOL0     H 8253  10.096   8.014   5.688  0.6766 -3.4449 -1.8402
  802MOL0     H 8254   8.756   7.213   4.482  0.7404  0.7524 -0.8941
  802MOL0     H 8255   8.746   7.024   4.316  0.1773 -3.1152  0.3827
  802MOL0     H 8256   8.981   6.862   3.960 -1.3815  0.8376  0.9237
  802MOL0     H 8257   8.975   6.709   3.782  0.2745  2.0607  0.5790
  802MOL0     H 8258   9.156   6.500   3.634  0.8658 -2.4630  0.7672
  802MOL0     H 8259   8.990   6.560   3.657  0.9284 -0.4452 -2.5478
  802MOL0     H 8260   8.914   6.390   3.525 -2.0201  1.0468  1.4588
  802MOL0     H 8261   8.915   6.302   3.674 -0.1381 -2.9843 -2.3754
  802MOL0     H 8262   9.003   6.199   3.480 -1.4230  1.8062  1.4781
  802MOL0     H 8263   9.087   6.178   3.627 -2.7877  0.8655  2.4566
  802MOL0     H 8264   9.196   6.378   3.409 -1.8047 -0.3450 -0.1054
  802MOL0     H 8265   9.271   6.320   3.558 -1.7446  0.7115  0.6058
  802MOL0     H 8266   9.327   5.985   3.304  3.6309  0.5656  3.5885
  802MOL0     H 8267   9.081   6.388   4.048 -2.2019 -1.8088 -3.1986
  802MOL0     H 8268   9.159   6.443   4.253  1.2439  1.3840 -3.7902
  802MOL0     H 8269   9.141   6.592   4.331  2.3392 -2.6884  1.8342
  802MOL0     H 8270   8.990   6.496   4.302 -2.2304  2.1384 -3.7236
  803MOL0     O 8271   0.400   3.020   3.163 -0.4822  1.3191  0.1901
  803MOL0     C 8272   0.433   3.037   3.282  0.1467 -1.0301  0.7611
  803MOL0     O 8273   0.549   3.002   3.332  0.0038  0.1250 -0.9228
  803MOL0     C 8274   0.621   2.910   3.271  1.0399 -0.5530 -0.9380
  803MOL0     C 8275   0.752   2.937   3.228  0.5430  0.5027  0.5115
  803MOL0     C 8276   0.829   2.836   3.166  0.9265 -0.9205 -0.6237
  803MOL0     C 8277   0.776   2.715   3.141 -0.5224 -0.5824  0.6648
  803MOL0     O 8278   0.857   2.623   3.085  0.7145 -0.2310 -0.2534
  803MOL0     C 8279   0.809   2.567   2.958  0.2820 -0.4406 -0.1281
  803MOL0     C 8280   0.870   2.423   2.941  0.3314 -1.2150 -1.2646
  803MOL0     C 8281   0.855   2.373   2.798 -0.7840 -0.8225 -0.2389
  803MOL0     C 8282   0.861   2.224   2.798  0.0176  0.2838  0.5347
  803MOL0     C 8283   0.928   2.168   2.670  1.7063 -0.2387  0.9496
  803MOL0     C 8284   1.072   2.140   2.677 -0.3669 -0.1574 -0.2820
  803MOL0     C 8285   1.137   2.094   2.538 -0.8251  0.0435  0.1865
  803MOL0     C 8286   1.087   1.958   2.474  1.0330 -0.8391  0.1473
  803MOL0     N 8287   1.160   1.937   2.351  0.1503  0.2356 -1.0461
  803MOL0     C 8288   1.147   2.002   2.228  0.0284  0.1203 -0.3505
  803MOL0     C 8289   1.255   1.957   2.157  0.0678  0.6946  0.3989
  803MOL0     C 8290   1.272   2.000   2.008 -0.0314 -0.6288 -0.3415
  803MOL0     C 8291   1.373   2.121   1.997 -0.2232 -0.0415 -0.0537
  803MOL0     C 8292   1.326   2.216   1.882 -0.7523  0.9057 -0.0039
  803MOL0     C 8293   1.431   2.331   1.867  0.1237  0.8131  0.1778
  803MOL0     O 8294   1.552   2.276   1.819  1.4288  0.1870  0.3958
  803MOL0     C 8295   1.644   2.351   1.756 -0.0783 -0.4539 -0.6475
  803MOL0     C 8296   1.650   2.488   1.717  0.2128  0.2481 -0.6951
  803MOL0     C 8297   1.760   2.546   1.661 -0.3761 -0.1418  0.2092
  803MOL0     C 8298   1.860   2.458   1.611  0.2231  0.6551 -0.6381
  803MOL0     C 8299   1.974   2.511   1.531 -0.6999  0.0132  0.1957
  803MOL0     O 8300   1.964   2.636   1.469 -0.1021 -0.0152 -0.0497
  803MOL0     C 8301   2.074   2.701   1.431 -0.0904  0.7939 -0.8871
  803MOL0     C 8302   2.054   2.816   1.354 -0.4909  0.4045 -0.2194
  803MOL0     C 8303   2.164   2.889   1.303  0.0185  0.1623 -0.9212
  803MOL0     C 8304   2.292   2.846   1.329  0.7374 -0.5276 -0.0896
  803MOL0     O 8305   2.396   2.933   1.287 -0.1930 -0.1518  0.4607
  803MOL0     C 8306   2.529   2.914   1.322  0.0501  1.7744 -0.4304
  803MOL0     C 8307   2.594   3.052   1.298  0.2582 -0.4285  0.2120
  803MOL0     C 8308   2.623   3.077   1.149 -0.2434  0.2465  0.0493
  803MOL0     C 8309   2.691   3.210   1.123  1.0706 -0.0061  0.2400
  803MOL0     C 8310   2.750   3.228   0.981 -0.1173 -0.5810 -0.1702
  803MOL0     C 8311   2.658   3.168   0.878  0.0035 -0.2639  1.0384
  803MOL0     C 8312   2.693   3.219   0.724 -0.4717 -0.0921  0.2292
  803MOL0     C 8313   2.594   3.180   0.611  0.1197  0.0152 -0.3117
  803MOL0    Cl 8314   2.572   3.000   0.620  0.0366 -0.2918  0.0488
  803MOL0     C 8315   2.316   2.732   1.407 -0.4555  0.0849  0.6430
  803MOL0     C 8316   2.206   2.659   1.461 -1.2410  0.6107 -0.2878
  803MOL0     O 8317   2.065   2.429   1.510 -0.4829 -0.3415 -0.1208
  803MOL0     C 8318   1.851   2.321   1.640  0.1051 -0.0377  0.4322
  803MOL0     C 8319   1.745   2.278   1.716  0.8243 -0.0939  0.1245
  803MOL0     N 8320   1.317   1.857   2.225  0.2438  0.5952  0.2712
  803MOL0     N 8321   1.264   1.850   2.340  0.0329  0.7479 -0.4534
  803MOL0     C 8322   0.655   2.686   3.182  1.9052  0.1086 -0.1108
  803MOL0     C 8323   0.570   2.783   3.239  0.1508 -0.2509  0.0987
  803MOL0     C 8324   0.330   3.104   3.377 -0.6059 -1.3219  0.2410
  803MOL0     C 8325   0.376   3.151   3.502 -0.6056 -0.4317  0.3496
  803MOL0     C 8326   0.278   3.221   3.584  0.5696 -0.5948 -0.0308
  803MOL0     C 8327   0.141   3.229   3.561 -0.2566  0.0144  0.1471
  803MOL0     O 8328   0.070   3.313   3.649  0.0151  0.3192  0.4544
  803MOL0     C 8329  -0.076   3.293   3.651 -0.1301 -0.2536  0.3638
  803MOL0     C 8330  -0.111   3.165   3.724 -0.4189 -0.5942 -0.4696
  803MOL0     C 8331  -0.059   3.162   3.875 -0.1202 -0.6317 -0.3321
  803MOL0     C 8332  -0.095   3.026   3.949 -0.1056  0.0630 -0.3249
  803MOL0     C 8333  -0.078   3.048   4.093 -0.8281  0.3535  0.0233
  803MOL0     C 8334  -0.069   3.048   4.213  0.4638  0.3630 -0.0822
  803MOL0     C 8335   0.098   3.175   3.439 -0.0243  0.0191  0.8929
  803MOL0     C 8336   0.191   3.119   3.351 -0.3705 -0.0458 -0.4832
  803MOL0     C 8337   0.126   3.081   3.215 -0.4801 -0.0839 -0.8464
  803MOL0     H 8338   0.803   3.031   3.249  1.3087 -0.1143  1.4872
  803MOL0     H 8339   0.935   2.851   3.144  1.2570 -2.3400 -0.1134
  803MOL0     H 8340   0.700   2.555   2.960  0.2434 -0.1630 -0.4882
  803MOL0     H 8341   0.860   2.625   2.881  3.9033 -2.9043  0.1775
  803MOL0     H 8342   0.826   2.357   3.017  2.1355 -0.4578  0.5179
  803MOL0     H 8343   0.972   2.417   2.979 -0.7635 -0.7391  2.0468
  803MOL0     H 8344   0.942   2.411   2.745  0.1760  0.1915  1.9435
  803MOL0     H 8345   0.770   2.422   2.750 -0.2761 -0.3987 -0.7210
  803MOL0     H 8346   0.934   2.211   2.878  1.0654  0.8789 -0.3007
  803MOL0     H 8347   0.759   2.188   2.815 -0.5894  0.2360 -2.6214
  803MOL0     H 8348   0.877   2.075   2.645  0.6128  1.1090 -2.2628
  803MOL0     H 8349   0.910   2.237   2.587  1.0367  2.5647  3.2549
  803MOL0     H 8350   1.120   2.231   2.716 -0.5898 -0.7082  1.3385
  803MOL0     H 8351   1.084   2.058   2.748  0.6418 -1.5920 -2.0117
  803MOL0     H 8352   1.244   2.085   2.554 -0.5474 -1.8469 -2.3033
  803MOL0     H 8353   1.122   2.171   2.462 -1.2667  0.1147  0.3364
  803MOL0     H 8354   1.114   1.871   2.536  0.8585 -1.2994 -0.4163
  803MOL0     H 8355   0.980   1.970   2.457  0.6438 -1.9270  1.6120
  803MOL0     H 8356   1.066   2.069   2.200  0.3063  0.7104  0.2514
  803MOL0     H 8357   1.317   1.915   1.956  0.3002 -1.5877  1.4114
  803MOL0     H 8358   1.179   2.040   1.968 -0.3978 -0.1589  0.9298
  803MOL0     H 8359   1.386   2.178   2.089 -2.9356 -2.7680  2.2573
  803MOL0     H 8360   1.469   2.082   1.963  0.7660  3.0578 -1.1344
  803MOL0     H 8361   1.232   2.267   1.905  0.5743  3.4956  0.0489
  803MOL0     H 8362   1.317   2.156   1.790  2.2050 -0.8657  0.7356
  803MOL0     H 8363   1.446   2.387   1.959  1.7868  3.5056 -1.5883
  803MOL0     H 8364   1.401   2.404   1.791  1.5413  1.0791 -0.1569
  803MOL0     H 8365   1.564   2.552   1.734 -2.4659 -3.3077  0.0994
  803MOL0     H 8366   1.774   2.650   1.633  0.6966  0.0214  1.2762
  803MOL0     H 8367   1.950   2.845   1.345 -0.0798  2.0635  0.0260
  803MOL0     H 8368   2.156   2.985   1.254 -0.6401  0.5601 -0.0572
  803MOL0     H 8369   2.549   2.878   1.424 -0.6182 -1.3721 -1.2934
  803MOL0     H 8370   2.586   2.843   1.261  2.1964  0.0137  3.2193
  803MOL0     H 8371   2.530   3.125   1.349  0.4517  2.8088 -3.7479
  803MOL0     H 8372   2.694   3.042   1.342 -0.2491 -1.4028  1.2228
  803MOL0     H 8373   2.696   3.001   1.123 -0.0725  0.3455  0.2366
  803MOL0     H 8374   2.535   3.067   1.084 -1.5519  1.4137  1.5527
  803MOL0     H 8375   2.759   3.250   1.200 -1.2928  1.4167  1.7143
  803MOL0     H 8376   2.612   3.285   1.118 -1.4251 -2.5884 -1.9038
  803MOL0     H 8377   2.846   3.178   0.965  0.0196 -0.2487 -0.4090
  803MOL0     H 8378   2.758   3.335   0.959 -0.5784 -0.6627 -0.7804
  803MOL0     H 8379   2.674   3.060   0.876  0.9023 -0.1372  1.0218
  803MOL0     H 8380   2.555   3.187   0.909 -1.4874 -1.4107 -2.6554
  803MOL0     H 8381   2.793   3.191   0.689  0.2086  0.5368  1.5984
  803MOL0     H 8382   2.712   3.326   0.740 -0.9934 -0.3939  3.5903
  803MOL0     H 8383   2.497   3.227   0.629  0.4118  0.0633  1.2359
  803MOL0     H 8384   2.630   3.203   0.510  1.9876 -1.0044  0.0765
  803MOL0     H 8385   2.416   2.704   1.438  0.1397  0.6878 -0.6924
  803MOL0     H 8386   2.246   2.583   1.528 -0.2492  1.4735  0.1180
  803MOL0     H 8387   1.929   2.253   1.608 -0.9802 -0.3885 -1.6550
  803MOL0     H 8388   1.741   2.174   1.745 -1.9052  0.4244  1.9281
  803MOL0     H 8389   0.624   2.584   3.161  0.2828  1.1050 -3.1049
  803MOL0     H 8390   0.469   2.760   3.269  0.3220 -2.1789 -0.6980
  803MOL0     H 8391   0.480   3.144   3.534 -0.0544 -0.9663 -1.4097
  803MOL0     H 8392   0.321   3.269   3.672 -0.3365 -0.3969  0.3219
  803MOL0     H 8393  -0.123   3.303   3.552 -0.2831  1.6619  0.5963
  803MOL0     H 8394  -0.117   3.374   3.711  0.6052  0.6490 -0.3317
  803MOL0     H 8395  -0.058   3.097   3.656  0.0411 -1.7813  1.0006
  803MOL0     H 8396  -0.217   3.140   3.726 -0.6423  0.3823  0.4309
  803MOL0     H 8397  -0.105   3.233   3.943 -1.4560 -2.5332  0.8427
  803MOL0     H 8398   0.048   3.188   3.871 -0.3169  0.1946 -0.3662
  803MOL0     H 8399  -0.196   2.996   3.919  0.9136 -2.6933 -1.3527
  803MOL0     H 8400  -0.038   2.936   3.924 -0.8901 -0.3745 -0.5861
  803MOL0     H 8401  -0.058   3.052   4.320  0.9548 -1.2278 -0.0487
  803MOL0     H 8402  -0.007   3.179   3.410 -0.0528 -3.1619  0.1721
  803MOL0     H 8403   0.129   3.167   3.147 -1.1240  0.4590 -0.1960
  803MOL0     H 8404   0.175   2.997   3.165  2.4643  2.2113 -2.1488
  803MOL0     H 8405   0.020   3.055   3.212 -0.6373  0.2134  1.1817
  804MOL0     O 8406  10.948   1.399   2.172 -0.7012  0.0301  0.3330
  804MOL0     C 8407  10.961   1.317   2.077 -0.2382 -0.5011 -0.3548
  804MOL0     O 8408  11.081   1.272   2.026  1.2993  1.1963  0.4670
  804MOL0     C 8409  11.191   1.307   2.092 -0.0421 -0.4739 -0.0834
  804MOL0     C 8410  11.281   1.210   2.149  0.4428  0.6859 -0.2605
  804MOL0     C 8411  11.392   1.242   2.232  0.6463 -0.1525  0.1946
  804MOL0     C 8412  11.437   1.380   2.242 -0.1918  0.1748 -0.1309
  804MOL0     O 8413  11.553   1.406   2.291 -0.1087 -0.1478  0.1746
  804MOL0     C 8414  11.629   1.508   2.235 -1.1559  0.0816  0.1195
  804MOL0     C 8415  11.776   1.474   2.243 -0.0882 -1.0543  0.3233
  804MOL0     C 8416  11.844   1.607   2.202  0.4028 -0.7982  0.7342
  804MOL0     C 8417  11.989   1.582   2.144 -0.2552 -0.7950 -0.7850
  804MOL0     C 8418  12.092   1.695   2.140  1.0515 -1.0103  0.9198
  804MOL0     C 8419  12.183   1.701   2.262 -0.9994 -0.2883 -0.7577
  804MOL0     C 8420  12.287   1.818   2.243 -0.1567 -0.0792  0.1787
  804MOL0     C 8421  12.237   1.959   2.281  0.3514  0.0488 -0.3649
  804MOL0     N 8422  12.148   1.977   2.400  0.2255  0.3818  0.9186
  804MOL0     C 8423  12.066   2.076   2.400 -0.8351 -0.3377  0.2875
  804MOL0     C 8424  12.031   2.092   2.534  0.4151 -0.8960 -0.0881
  804MOL0     C 8425  11.948   2.193   2.597  0.6849 -0.2821 -0.4161
  804MOL0     C 8426  12.008   2.314   2.663  1.0558 -0.7228  0.6801
  804MOL0     C 8427  11.900   2.403   2.737  0.2368 -0.3582  1.5947
  804MOL0     C 8428  11.822   2.513   2.652  0.3811  0.2690 -1.0216
  804MOL0     O 8429  11.904   2.599   2.579  0.9215  0.0391  0.1148
  804MOL0     C 8430  11.984   2.683   2.646 -0.6903 -0.0509 -0.2390
  804MOL0     C 8431  11.995   2.704   2.783  0.2879 -0.0941  0.5578
  804MOL0     C 8432  12.082   2.801   2.845  0.1013  0.4178  0.3561
  804MOL0     C 8433  12.172   2.876   2.757  0.1581 -1.0523 -0.2205
  804MOL0     C 8434  12.263   2.981   2.802  0.2630  0.1855  0.3676
  804MOL0     O 8435  12.231   3.050   2.913  0.0785  0.0904 -0.2100
  804MOL0     C 8436  12.320   3.130   2.975 -0.3921 -0.3328 -0.2026
  804MOL0     C 8437  12.295   3.249   3.037 -0.3487  0.3505  0.5906
  804MOL0     C 8438  12.389   3.317   3.114  0.2109 -0.3908  0.3740
  804MOL0     C 8439  12.522   3.276   3.111 -0.1141  0.1508 -0.3324
  804MOL0     O 8440  12.623   3.347   3.166 -0.0210 -0.0646 -0.2160
  804MOL0     C 8441  12.593   3.450   3.255  0.2655  0.9867 -0.3875
  804MOL0     C 8442  12.723   3.518   3.279  0.1574 -1.3623 -0.6622
  804MOL0     C 8443  12.710   3.652   3.366 -0.8372 -0.0921  0.5092
  804MOL0     C 8444  12.824   3.657   3.463 -1.3867 -0.2930  0.1622
  804MOL0     C 8445  12.788   3.759   3.582 -1.0004  0.2646  0.3205
  804MOL0     C 8446  12.893   3.770   3.704 -0.7186  0.0658 -0.6893
  804MOL0     C 8447  13.039   3.806   3.675  0.3213  0.7450  0.6891
  804MOL0     C 8448  13.116   3.851   3.796 -1.1032  0.8428  0.1657
  804MOL0    Cl 8449  13.070   4.018   3.841  0.2476  0.2895  0.0428
  804MOL0     C 8450  12.557   3.164   3.038  0.5560  0.5591 -0.0910
  804MOL0     C 8451  12.454   3.091   2.976 -0.0041  1.4571 -0.7023
  804MOL0     O 8452  12.353   3.012   2.724 -0.0911  0.3495  0.0928
  804MOL0     C 8453  12.166   2.849   2.623 -0.5909 -0.5008 -1.3110
  804MOL0     C 8454  12.078   2.760   2.571 -0.0333 -0.0969 -0.0381
  804MOL0     N 8455  12.096   1.995   2.601 -0.7735  0.0814 -0.8569
  804MOL0     N 8456  12.173   1.922   2.523 -0.2009 -1.2022 -1.2780
  804MOL0     C 8457  11.346   1.475   2.188  0.1380  0.0628 -1.0589
  804MOL0     C 8458  11.225   1.440   2.123  0.1567 -0.3204  0.2134
  804MOL0     C 8459  10.840   1.284   2.002 -0.1930  1.0616  0.2709
  804MOL0     C 8460  10.853   1.279   1.863  0.2028 -0.3800  0.1865
  804MOL0     C 8461  10.742   1.238   1.789  0.4951 -0.4674 -0.3028
  804MOL0     C 8462  10.616   1.197   1.845  0.3779  0.2343  0.2384
  804MOL0     O 8463  10.521   1.129   1.768  0.5047 -1.3813  0.7456
  804MOL0     C 8464  10.431   1.048   1.836 -0.0912  1.0938  0.3343
  804MOL0     C 8465  10.363   0.954   1.731  0.0203 -1.5038 -1.8105
  804MOL0     C 8466  10.251   0.883   1.796  0.4773  0.7750  0.5443
  804MOL0     C 8467  10.196   0.789   1.686  0.4250  0.2161  0.0918
  804MOL0     C 8468  10.072   0.716   1.732 -0.2784  0.4920  0.1982
  804MOL0     C 8469   9.983   0.635   1.764 -0.3517  0.8930 -1.1229
  804MOL0     C 8470  10.607   1.203   1.988 -0.3987  0.8273 -0.1432
  804MOL0     C 8471  10.726   1.225   2.065 -0.1412  0.9057 -0.1096
  804MOL0     C 8472  10.715   1.212   2.220 -0.6930 -0.1908 -0.4905
  804MOL0     H 8473  11.269   1.106   2.118  1.2669 -0.3494  2.5798
  804MOL0     H 8474  11.441   1.158   2.281  1.7098 -0.0065 -0.5892
  804MOL0     H 8475  11.608   1.520   2.129  1.1065 -3.2415 -0.8422
  804MOL0     H 8476  11.611   1.594   2.301  1.1474 -0.7762  2.0301
  804MOL0     H 8477  11.809   1.392   2.179  2.6009 -0.8696  1.3385
  804MOL0     H 8478  11.814   1.447   2.342 -1.2083  1.9356  1.6634
  804MOL0     H 8479  11.855   1.673   2.288  1.1019 -1.1392  0.9153
  804MOL0     H 8480  11.776   1.654   2.130 -1.0002  1.6393  3.4216
  804MOL0     H 8481  12.036   1.501   2.201 -2.5745 -0.9915  1.0148
  804MOL0     H 8482  11.989   1.537   2.044  0.5812 -0.4533 -0.9437
  804MOL0     H 8483  12.153   1.710   2.050  4.5366  1.5641  3.4385
  804MOL0     H 8484  12.036   1.789   2.144  3.9540  0.8535  1.1569
  804MOL0     H 8485  12.134   1.699   2.360  0.4537 -3.3641  0.0324
  804MOL0     H 8486  12.243   1.610   2.261 -0.1286  0.2578 -0.2335
  804MOL0     H 8487  12.333   1.820   2.144  0.8527  4.5153  0.4992
  804MOL0     H 8488  12.368   1.796   2.313  0.1032  1.1110  0.2784
  804MOL0     H 8489  12.327   2.021   2.292  1.7743 -2.4243  5.7043
  804MOL0     H 8490  12.177   2.002   2.200 -1.1665  2.6931  1.9943
  804MOL0     H 8491  12.047   2.148   2.321 -2.3350 -1.0749 -0.0551
  804MOL0     H 8492  11.885   2.242   2.522 -0.2859 -0.4143  0.2995
  804MOL0     H 8493  11.872   2.147   2.661 -1.9359 -1.2637 -3.8583
  804MOL0     H 8494  12.077   2.294   2.746  1.4366 -5.0157 -0.4029
  804MOL0     H 8495  12.065   2.379   2.597  0.0759  2.7641  3.0125
  804MOL0     H 8496  11.942   2.463   2.818 -0.8934  3.1921 -0.2433
  804MOL0     H 8497  11.831   2.335   2.789 -1.8860 -1.6497 -2.4844
  804MOL0     H 8498  11.765   2.583   2.714  1.9514  1.9033 -1.3347
  804MOL0     H 8499  11.754   2.450   2.593  1.3837 -1.1840 -0.6759
  804MOL0     H 8500  11.934   2.659   2.860 -1.7592  2.5735  0.6456
  804MOL0     H 8501  12.080   2.834   2.948 -1.5546  3.3688 -0.5032
  804MOL0     H 8502  12.188   3.266   3.043 -0.8343 -2.1272 -0.0032
  804MOL0     H 8503  12.349   3.400   3.171 -1.5900 -1.8569  1.3914
  804MOL0     H 8504  12.529   3.523   3.205  1.3580  2.2897  0.0533
  804MOL0     H 8505  12.535   3.416   3.342 -0.7975  1.4014 -0.9124
  804MOL0     H 8506  12.795   3.449   3.325 -0.7378 -1.5113  0.5732
  804MOL0     H 8507  12.775   3.552   3.189 -2.3702  2.9962 -0.7388
  804MOL0     H 8508  12.713   3.734   3.293  2.6449 -0.2343  0.3230
  804MOL0     H 8509  12.610   3.661   3.409 -0.4591  0.3545  1.3096
  804MOL0     H 8510  12.921   3.684   3.420 -1.5404  0.3120  0.1820
  804MOL0     H 8511  12.833   3.553   3.497  0.2974 -1.5277 -3.5548
  804MOL0     H 8512  12.693   3.735   3.631 -1.9613  2.9268 -0.0814
  804MOL0     H 8513  12.772   3.860   3.543 -0.3806  0.2600  0.0488
  804MOL0     H 8514  12.857   3.841   3.780  1.3410  1.5019 -0.9660
  804MOL0     H 8515  12.886   3.668   3.743  0.1449 -1.0742 -3.2796
  804MOL0     H 8516  13.059   3.865   3.586  2.8712 -1.2437 -0.2034
  804MOL0     H 8517  13.092   3.713   3.649  0.7573  0.9936  0.6775
  804MOL0     H 8518  13.091   3.787   3.881  0.3755 -1.1555 -0.8024
  804MOL0     H 8519  13.225   3.846   3.791 -1.1958 -1.5732 -2.0449
  804MOL0     H 8520  12.657   3.133   3.067  0.6319  1.3277  0.5218
  804MOL0     H 8521  12.480   2.990   2.945  0.4435  1.7877 -1.4547
  804MOL0     H 8522  12.235   2.897   2.554 -0.7069  0.4090 -0.8082
  804MOL0     H 8523  12.087   2.754   2.463 -2.8097 -1.2013 -0.2870
  804MOL0     H 8524  11.378   1.576   2.212  1.3031 -0.5626  0.1281
  804MOL0     H 8525  11.165   1.528   2.103  1.1366 -0.0049 -1.6031
  804MOL0     H 8526  10.949   1.293   1.813  1.3350  2.2581  2.8059
  804MOL0     H 8527  10.746   1.236   1.681  2.2555 -0.8323 -0.2678
  804MOL0     H 8528  10.354   1.104   1.889 -3.3805 -2.1013 -0.6306
  804MOL0     H 8529  10.472   0.975   1.906 -4.0693 -1.4754  0.3196
  804MOL0     H 8530  10.446   0.891   1.699  0.1877 -0.9742 -2.4497
  804MOL0     H 8531  10.334   1.013   1.643  0.9116 -0.2801 -1.3143
  804MOL0     H 8532  10.182   0.956   1.838 -0.3941  1.0059 -1.2033
  804MOL0     H 8533  10.284   0.819   1.879 -1.7221  2.2190  2.6423
  804MOL0     H 8534  10.144   0.855   1.616 -0.3033  0.7598  1.1193
  804MOL0     H 8535  10.275   0.731   1.637 -1.8060 -1.3331 -1.8780
  804MOL0     H 8536   9.919   0.562   1.808  1.8054 -0.9847 -0.8975
  804MOL0     H 8537  10.511   1.170   2.027 -1.0550  2.1357 -0.5832
  804MOL0     H 8538  10.644   1.284   2.261 -0.0891  0.3330 -0.3536
  804MOL0     H 8539  10.678   1.111   2.239  0.2076 -0.2262  1.2428
  804MOL0     H 8540  10.806   1.221   2.280 -0.6074  1.0136 -0.7732
  805MOL0     O 8541   6.606   1.676   4.174 -0.2007  0.2159 -0.2936
  805MOL0     C 8542   6.630   1.726   4.281  0.1096 -0.2017  0.3346
  805MOL0     O 8543   6.669   1.854   4.302  0.5775  0.1856 -0.0728
  805MOL0     C 8544   6.654   1.954   4.213 -0.5352  0.0047 -0.8866
  805MOL0     C 8545   6.560   1.949   4.104  1.0145 -0.0259 -0.3610
  805MOL0     C 8546   6.542   2.056   4.017 -0.8483  0.2233  0.3852
  805MOL0     C 8547   6.622   2.164   4.032 -0.1876  0.2959 -0.0697
  805MOL0     O 8548   6.587   2.272   3.951 -0.1508  0.5069 -0.0961
  805MOL0     C 8549   6.681   2.295   3.847  0.6671  0.0705 -0.2371
  805MOL0     C 8550   6.792   2.387   3.876  0.3303 -0.2874 -0.3831
  805MOL0     C 8551   6.868   2.411   3.739  0.1286  0.3738 -0.2310
  805MOL0     C 8552   6.819   2.547   3.686 -0.0628  0.1577 -0.2428
  805MOL0     C 8553   6.914   2.599   3.571 -1.0526 -0.1244  0.0953
  805MOL0     C 8554   7.058   2.638   3.616  0.6245 -0.0133 -0.2223
  805MOL0     C 8555   7.127   2.711   3.503  0.8085  0.9903  1.0782
  805MOL0     C 8556   7.276   2.710   3.535 -0.6943 -0.0221  0.3262
  805MOL0     N 8557   7.359   2.591   3.526 -0.1305 -0.6015 -0.0687
  805MOL0     C 8558   7.443   2.547   3.425 -0.3481 -0.8367  0.0682
  805MOL0     C 8559   7.515   2.449   3.480 -0.3173  0.1582  0.3321
  805MOL0     C 8560   7.611   2.379   3.390  0.1326  0.7581 -0.0229
  805MOL0     C 8561   7.762   2.397   3.432  0.1258 -0.5390  0.3290
  805MOL0     C 8562   7.800   2.540   3.383 -0.4138  0.4675  0.1108
  805MOL0     C 8563   7.951   2.557   3.380  0.5034 -0.0818  0.3979
  805MOL0     O 8564   8.021   2.552   3.513 -0.3665 -0.1677  0.0325
  805MOL0     C 8565   8.153   2.506   3.518  0.6505  0.6633  0.3814
  805MOL0     C 8566   8.253   2.570   3.447 -0.1308  0.8016 -0.0722
  805MOL0     C 8567   8.377   2.512   3.427  1.2339  1.0010  0.1557
  805MOL0     C 8568   8.404   2.377   3.451  0.4060 -0.1540  0.5012
  805MOL0     C 8569   8.534   2.305   3.424 -0.0350  0.5754  0.2976
  805MOL0     O 8570   8.561   2.180   3.482 -0.4820  0.5524 -0.5739
  805MOL0     C 8571   8.680   2.121   3.480 -0.6380 -0.1897  0.3488
  805MOL0     C 8572   8.738   2.089   3.602  0.1310  0.5078  1.2749
  805MOL0     C 8573   8.867   2.036   3.611  0.6574 -0.1455  0.0182
  805MOL0     C 8574   8.951   2.024   3.497 -0.3164 -0.3437 -0.3998
  805MOL0     O 8575   9.083   1.983   3.501  0.1666 -0.4467 -0.0720
  805MOL0     C 8576   9.147   1.982   3.628  0.1752  0.4040 -0.1916
  805MOL0     C 8577   9.296   1.962   3.605  0.2535 -0.6728 -1.1202
  805MOL0     C 8578   9.342   1.831   3.553  0.3686  0.0193 -0.1510
  805MOL0     C 8579   9.495   1.822   3.555  0.8804 -0.4133 -0.1077
  805MOL0     C 8580   9.560   1.681   3.558  0.1902 -0.0402  0.7553
  805MOL0     C 8581   9.518   1.599   3.439 -0.5036  0.6714  0.5911
  805MOL0     C 8582   9.585   1.462   3.423 -0.6677  0.7016  0.2174
  805MOL0     C 8583   9.730   1.474   3.366  0.1784  0.7937 -0.5296
  805MOL0    Cl 8584   9.740   1.503   3.190  0.6988  0.2140 -0.4235
  805MOL0     C 8585   8.892   2.054   3.377 -0.3739  0.0625 -0.1332
  805MOL0     C 8586   8.755   2.100   3.362  0.6964 -0.6519 -0.8664
  805MOL0     O 8587   8.615   2.366   3.361 -0.2180  0.2819  0.4955
  805MOL0     C 8588   8.305   2.315   3.521 -0.2890  0.0533 -0.3550
  805MOL0     C 8589   8.182   2.378   3.561  0.3563  0.1549 -0.2450
  805MOL0     N 8590   7.465   2.419   3.602 -0.3876  0.3245 -0.0203
  805MOL0     N 8591   7.374   2.509   3.632  0.1327 -0.6617  0.3868
  805MOL0     C 8592   6.726   2.173   4.135 -0.3248  0.2258  0.0164
  805MOL0     C 8593   6.731   2.067   4.228 -0.8044 -0.3421 -0.3157
  805MOL0     C 8594   6.648   1.625   4.384 -0.1918 -1.0513  0.0729
  805MOL0     C 8595   6.775   1.592   4.430 -0.1281  0.1691  0.2668
  805MOL0     C 8596   6.788   1.480   4.511  0.0779  0.0850  0.3415
  805MOL0     C 8597   6.673   1.400   4.552  0.0979 -0.1614 -0.4915
  805MOL0     O 8598   6.687   1.305   4.645  0.3648 -0.4806 -0.3387
  805MOL0     C 8599   6.580   1.256   4.723 -0.0474  0.4416 -0.2200
  805MOL0     C 8600   6.641   1.153   4.827  0.5264  0.6751  0.0365
  805MOL0     C 8601   6.561   1.032   4.870 -0.2331  0.9567 -0.0806
  805MOL0     C 8602   6.441   1.075   4.960 -0.5163  0.2611  0.2762
  805MOL0     C 8603   6.369   0.953   4.979  0.6258  1.0728  0.6534
  805MOL0     C 8604   6.285   0.873   5.012 -0.0501 -1.9665  0.9324
  805MOL0     C 8605   6.543   1.442   4.517 -1.0314  0.2069  0.1904
  805MOL0     C 8606   6.537   1.558   4.437 -0.3629  0.7389 -0.5861
  805MOL0     C 8607   6.396   1.611   4.397 -0.6345 -0.3793  0.5815
  805MOL0     H 8608   6.486   1.871   4.091  0.9434 -0.2589  1.3070
  805MOL0     H 8609   6.466   2.056   3.940 -0.9955  1.2846  0.5216
  805MOL0     H 8610   6.715   2.201   3.802  0.8663 -0.7026  1.4349
  805MOL0     H 8611   6.621   2.340   3.768 -0.2040  1.8740  1.3883
  805MOL0     H 8612   6.861   2.335   3.944 -0.1462 -2.0702 -1.1894
  805MOL0     H 8613   6.739   2.467   3.928 -1.4343 -2.4054  1.2867
  805MOL0     H 8614   6.847   2.335   3.664 -0.7130  0.4993 -0.1297
  805MOL0     H 8615   6.976   2.426   3.754  0.0514  2.1121 -1.1253
  805MOL0     H 8616   6.720   2.542   3.640  0.2943 -2.2188 -0.8551
  805MOL0     H 8617   6.819   2.616   3.771 -2.4128 -0.0251 -0.0262
  805MOL0     H 8618   6.907   2.524   3.492 -1.5809 -1.1841  1.1276
  805MOL0     H 8619   6.872   2.696   3.540  1.2829  0.4895 -1.4230
  805MOL0     H 8620   7.047   2.710   3.699  1.5956 -2.3951  2.1143
  805MOL0     H 8621   7.119   2.554   3.650 -1.1463 -0.0187  3.4425
  805MOL0     H 8622   7.088   2.812   3.493  0.5807  0.6994 -2.5115
  805MOL0     H 8623   7.105   2.656   3.410 -1.5510  1.1659  1.4641
  805MOL0     H 8624   7.319   2.782   3.465 -0.5826 -1.2828 -0.9585
  805MOL0     H 8625   7.283   2.757   3.634 -0.9090  1.5751 -0.3837
  805MOL0     H 8626   7.446   2.591   3.326 -1.7185 -1.3910 -0.2479
  805MOL0     H 8627   7.582   2.274   3.382  1.2207  0.3977  0.5646
  805MOL0     H 8628   7.601   2.429   3.293 -3.1867  2.8153  1.1999
  805MOL0     H 8629   7.782   2.380   3.538  1.0386 -1.9206 -0.0350
  805MOL0     H 8630   7.814   2.320   3.375 -2.1678  0.0457 -2.8596
  805MOL0     H 8631   7.759   2.628   3.434 -0.4785 -1.0114  2.7567
  805MOL0     H 8632   7.757   2.540   3.282  0.5114 -1.9495 -0.3486
  805MOL0     H 8633   7.974   2.643   3.317  1.1631  1.7621  2.9691
  805MOL0     H 8634   7.990   2.478   3.316  0.3629 -0.0888  0.3219
  805MOL0     H 8635   8.249   2.677   3.431 -2.2352  0.6011 -1.2130
  805MOL0     H 8636   8.440   2.570   3.360  2.6208 -0.8487 -0.2207
  805MOL0     H 8637   8.679   2.113   3.690  1.8564  4.6096  1.5725
  805MOL0     H 8638   8.908   2.022   3.710 -1.1506  1.5815  1.0673
  805MOL0     H 8639   9.129   2.082   3.668  0.6898  0.6128 -0.4722
  805MOL0     H 8640   9.096   1.901   3.681 -1.4462  0.9412 -0.8539
  805MOL0     H 8641   9.317   2.043   3.534 -0.6998  0.2597 -0.3567
  805MOL0     H 8642   9.335   1.982   3.705  0.5132 -2.9444 -0.7186
  805MOL0     H 8643   9.300   1.745   3.606  1.4793 -1.0000 -0.8628
  805MOL0     H 8644   9.331   1.831   3.444  3.3926 -0.9410 -0.5742
  805MOL0     H 8645   9.532   1.853   3.653 -2.5749  0.3660  1.1077
  805MOL0     H 8646   9.535   1.884   3.475 -3.9609 -1.1085 -3.5187
  805MOL0     H 8647   9.538   1.635   3.655 -1.8183  2.7334  1.7267
  805MOL0     H 8648   9.667   1.706   3.549 -0.2439  1.4699 -0.6485
  805MOL0     H 8649   9.410   1.586   3.452 -0.6362  1.2756  0.1578
  805MOL0     H 8650   9.527   1.664   3.351  0.0422  1.0367  0.9098
  805MOL0     H 8651   9.525   1.412   3.346 -1.0467  2.0239 -0.3771
  805MOL0     H 8652   9.576   1.413   3.520  1.6852  1.5530  0.9318
  805MOL0     H 8653   9.799   1.545   3.414  1.0559 -0.2369 -0.2180
  805MOL0     H 8654   9.778   1.377   3.385 -0.6069 -0.1029 -2.8537
  805MOL0     H 8655   8.954   2.049   3.288  0.2456  0.9018  0.2486
  805MOL0     H 8656   8.721   2.143   3.268 -0.4719  1.3861  0.4090
  805MOL0     H 8657   8.317   2.211   3.551  0.5847  1.2345  4.1033
  805MOL0     H 8658   8.107   2.327   3.620  3.7099 -3.2772  1.5599
  805MOL0     H 8659   6.785   2.261   4.159  0.6488  0.3563 -2.5829
  805MOL0     H 8660   6.810   2.070   4.302  0.6567 -3.6237 -1.5659
  805MOL0     H 8661   6.858   1.647   4.388  0.0642 -0.3482 -0.0474
  805MOL0     H 8662   6.885   1.460   4.556 -0.6355 -0.1062  1.8656
  805MOL0     H 8663   6.510   1.197   4.663 -0.7723  0.4003  0.6376
  805MOL0     H 8664   6.527   1.343   4.763 -3.1667 -1.9861  1.4147
  805MOL0     H 8665   6.665   1.221   4.909  0.0853  0.5673  0.2545
  805MOL0     H 8666   6.732   1.101   4.794 -0.4415 -1.7070  0.9546
  805MOL0     H 8667   6.628   0.952   4.905 -0.6103  0.4913 -0.4078
  805MOL0     H 8668   6.522   0.979   4.783  2.4938 -2.9837  0.7747
  805MOL0     H 8669   6.478   1.102   5.059  2.3186 -5.1040  1.0817
  805MOL0     H 8670   6.376   1.145   4.908  0.9883  1.4038 -0.1425
  805MOL0     H 8671   6.214   0.806   5.056  0.4679 -2.6613  0.7245
  805MOL0     H 8672   6.448   1.411   4.560 -2.0567  2.4864 -0.2718
  805MOL0     H 8673   6.366   1.589   4.294  0.8530 -0.7408  0.2077
  805MOL0     H 8674   6.317   1.567   4.459 -0.1240  1.0726  2.3295
  805MOL0     H 8675   6.386   1.718   4.415 -2.0056 -0.4343  0.2937
  806MOL0     O 8676  11.291  10.856   7.484  0.1597  0.1384  0.0034
  806MOL0     C 8677  11.224  10.762   7.441  0.8074 -0.3680  1.0186
  806MOL0     O 8678  11.095  10.771   7.387  0.2534 -0.1752  0.1559
  806MOL0     C 8679  11.053  10.890   7.341 -0.4255  0.0904 -0.4929
  806MOL0     C 8680  11.088  10.930   7.210 -0.7385 -0.0257  0.4776
  806MOL0     C 8681  11.053  11.056   7.156  0.0238 -0.3481 -0.6712
  806MOL0     C 8682  10.978  11.140   7.242 -0.2500 -0.8612  0.5550
  806MOL0     O 8683  10.940  11.269   7.202  0.0423  0.0956 -0.0028
  806MOL0     C 8684  10.886  11.301   7.077  0.2894 -0.0735  0.1126
  806MOL0     C 8685  10.739  11.354   7.093  0.4560  0.2474 -0.5884
  806MOL0     C 8686  10.637  11.246   7.136 -0.4369 -0.0032 -0.1097
  806MOL0     C 8687  10.644  11.122   7.045 -0.0685 -0.0658 -1.0207
  806MOL0     C 8688  10.530  11.027   7.067  0.5356 -0.7842  0.0591
  806MOL0     C 8689  10.550  10.945   7.195 -0.5169  0.3991  0.9032
  806MOL0     C 8690  10.650  10.828   7.171 -0.0854 -0.3187 -0.1928
  806MOL0     C 8691  10.662  10.752   7.299  0.1478  1.4192 -1.4141
  806MOL0     N 8692  10.722  10.606   7.281 -0.0282 -1.4891  0.1784
  806MOL0     C 8693  10.851  10.560   7.271 -0.7334 -0.0703 -0.1674
  806MOL0     C 8694  10.837  10.427   7.240 -0.2334 -0.8546  1.1704
  806MOL0     C 8695  10.950  10.333   7.209 -0.1805  0.9371 -0.4090
  806MOL0     C 8696  11.068  10.404   7.156  0.7927 -0.2154  0.1333
  806MOL0     C 8697  11.171  10.313   7.101  0.5843  0.1966 -0.4876
  806MOL0     C 8698  11.271  10.404   7.014 -0.0371  0.3617  0.2097
  806MOL0     O 8699  11.357  10.312   6.953 -0.4855 -0.1124 -0.6073
  806MOL0     C 8700  11.490  10.332   7.000 -0.2350 -0.4179 -0.1001
  806MOL0     C 8701  11.531  10.298   7.130 -0.9188 -0.4363  0.5951
  806MOL0     C 8702  11.659  10.337   7.179  0.2261 -1.0643  1.3128
  806MOL0     C 8703  11.745  10.398   7.089  0.1294 -0.1132 -0.3699
  806MOL0     C 8704  11.880  10.438   7.134  0.2352 -0.4344  0.8391
  806MOL0     O 8705  11.906  10.427   7.267 -0.4431  0.2049  0.3278
  806MOL0     C 8706  12.034  10.428   7.324 -0.1395 -0.5684  0.7556
  806MOL0     C 8707  12.043  10.464   7.456  0.2891  0.0552 -0.0329
  806MOL0     C 8708  12.171  10.490   7.509  0.2199  0.4810  0.6540
  806MOL0     C 8709  12.284  10.456   7.443 -0.6906  0.1472 -0.6922
  806MOL0     O 8710  12.400  10.485   7.510  0.5258 -0.1122  0.2863
  806MOL0     C 8711  12.514  10.411   7.468 -0.6671 -0.0223 -0.4612
  806MOL0     C 8712  12.607  10.408   7.593  0.5340 -0.0017 -0.7600
  806MOL0     C 8713  12.546  10.313   7.703 -0.3030 -0.7415  0.6763
  806MOL0     C 8714  12.656  10.286   7.815 -0.4240 -0.3806  0.2869
  806MOL0     C 8715  12.593  10.210   7.928 -0.0573 -0.3320 -0.8882
  806MOL0     C 8716  12.676  10.183   8.057  0.4541 -0.6352  0.1912
  806MOL0     C 8717  12.805  10.099   8.033  0.2734 -0.0683 -1.3631
  806MOL0     C 8718  12.794   9.977   7.948  0.0531  0.4043 -0.4499
  806MOL0    Cl 8719  12.697   9.863   8.051 -0.1684  0.4613 -0.0232
  806MOL0     C 8720  12.272  10.394   7.321  0.1593 -0.9450  0.4696
  806MOL0     C 8721  12.146  10.391   7.256 -1.0464  0.0619  0.4063
  806MOL0     O 8722  11.962  10.467   7.049  1.3820 -0.1369 -0.4042
  806MOL0     C 8723  11.703  10.436   6.956  0.1457  0.0680  0.3233
  806MOL0     C 8724  11.577  10.406   6.915  0.4577  0.7079 -0.5697
  806MOL0     N 8725  10.708  10.403   7.233 -0.7997  0.4930  0.2123
  806MOL0     N 8726  10.633  10.503   7.258 -0.0444 -0.4307 -0.0630
  806MOL0     C 8727  10.936  11.099   7.367 -0.7461 -0.7157  0.5311
  806MOL0     C 8728  10.971  10.978   7.418  0.5757  0.1736  1.3181
  806MOL0     C 8729  11.280  10.625   7.458  0.0217  0.3677  0.1463
  806MOL0     C 8730  11.183  10.530   7.501 -0.5222  0.0762 -0.0973
  806MOL0     C 8731  11.215  10.399   7.507 -0.2081  0.3622  0.4468
  806MOL0     C 8732  11.352  10.359   7.487 -0.7447  0.5241 -0.0590
  806MOL0     O 8733  11.377  10.227   7.508  0.5939  0.7270 -1.1060
  806MOL0     C 8734  11.502  10.168   7.473  0.4688 -0.5809  0.5739
  806MOL0     C 8735  11.501  10.021   7.534  1.2438  0.1165  0.5403
  806MOL0     C 8736  11.400   9.919   7.472 -0.0254  0.3575  0.2538
  806MOL0     C 8737  11.395   9.910   7.317 -0.4791  0.0863  0.1275
  806MOL0     C 8738  11.355   9.782   7.263 -0.5010  0.4046 -0.5269
  806MOL0     C 8739  11.318   9.665   7.218  0.0152  0.3270  0.3800
  806MOL0     C 8740  11.451  10.454   7.466  0.4246 -0.2784  0.9188
  806MOL0     C 8741  11.414  10.590   7.439  0.1954  0.5963  0.8084
  806MOL0     C 8742  11.527  10.679   7.392 -0.6170  0.2250  0.0646
  806MOL0     H 8743  11.145  10.860   7.150  0.9023  2.1275 -0.5964
  806MOL0     H 8744  11.084  11.079   7.055  3.0156  0.0353  0.2330
  806MOL0     H 8745  10.932  11.389   7.032  1.8589 -0.9480 -0.0625
  806MOL0     H 8746  10.904  11.228   6.998  1.1464 -1.8599  1.8476
  806MOL0     H 8747  10.709  11.410   7.004  1.0024  2.0896  0.3359
  806MOL0     H 8748  10.731  11.424   7.176 -2.0291  1.6037 -1.8608
  806MOL0     H 8749  10.536  11.288   7.124 -0.1867  0.9650  0.9140
  806MOL0     H 8750  10.648  11.207   7.238  0.2381 -0.6832 -0.4353
  806MOL0     H 8751  10.652  11.162   6.944 -1.2809  3.7087  0.2101
  806MOL0     H 8752  10.735  11.066   7.067  0.5559  0.9560 -0.9578
  806MOL0     H 8753  10.433  11.077   7.069 -0.5143 -2.6669 -1.2123
  806MOL0     H 8754  10.523  10.965   6.977  0.8443 -0.5904 -0.1024
  806MOL0     H 8755  10.573  11.000   7.287  1.0186  3.4545 -1.1302
  806MOL0     H 8756  10.454  10.897   7.211 -0.9942  0.8199 -0.5457
  806MOL0     H 8757  10.747  10.859   7.133  0.2327  1.0113  1.5764
  806MOL0     H 8758  10.622  10.750   7.099 -2.9644  1.2607 -0.9419
  806MOL0     H 8759  10.726  10.801   7.373 -1.3551  0.6495  0.5032
  806MOL0     H 8760  10.560  10.750   7.340  0.4515 -2.9962 -0.3658
  806MOL0     H 8761  10.941  10.618   7.285 -1.9008  1.2258  2.6815
  806MOL0     H 8762  10.979  10.292   7.306 -2.0233  1.7432  0.5360
  806MOL0     H 8763  10.918  10.252   7.143 -0.1255 -0.0802  0.7550
  806MOL0     H 8764  11.034  10.471   7.077 -2.6629 -0.9093  0.8764
  806MOL0     H 8765  11.116  10.469   7.230  1.5332  0.7945 -1.1966
  806MOL0     H 8766  11.118  10.243   7.037 -1.8308  0.7241  0.8314
  806MOL0     H 8767  11.212  10.270   7.193 -1.1120 -1.3599 -0.4042
  806MOL0     H 8768  11.315  10.480   7.080  1.2461  0.2011 -0.4187
  806MOL0     H 8769  11.224  10.465   6.936  0.7856  3.7491  2.1545
  806MOL0     H 8770  11.452  10.250   7.187 -1.3664 -0.6751 -0.2142
  806MOL0     H 8771  11.695  10.317   7.279 -0.5964 -0.1223  1.8063
  806MOL0     H 8772  11.966  10.489   7.529  0.5203  1.5982 -0.2860
  806MOL0     H 8773  12.172  10.527   7.611 -2.7685  0.4954  0.7544
  806MOL0     H 8774  12.484  10.310   7.437 -1.0463 -0.1113  0.1762
  806MOL0     H 8775  12.560  10.476   7.393  0.5463  2.9544  2.6038
  806MOL0     H 8776  12.703  10.365   7.561  0.2536 -0.3466 -1.1425
  806MOL0     H 8777  12.629  10.508   7.633  1.4593 -1.2946  2.2292
  806MOL0     H 8778  12.465  10.365   7.754  1.9738 -0.2676  4.0734
  806MOL0     H 8779  12.529  10.209   7.670  0.8440 -0.6902 -0.1452
  806MOL0     H 8780  12.696  10.383   7.845  0.8455 -0.0014 -2.3142
  806MOL0     H 8781  12.739  10.229   7.771 -0.6239 -0.0386 -0.5573
  806MOL0     H 8782  12.565  10.110   7.894  0.0448 -0.1035 -1.6574
  806MOL0     H 8783  12.498  10.260   7.951  0.8551  0.6871  0.8915
  806MOL0     H 8784  12.705  10.276   8.105  2.6056 -1.3799  0.4605
  806MOL0     H 8785  12.600  10.141   8.123 -1.4922  0.1734 -1.4020
  806MOL0     H 8786  12.844  10.073   8.132 -1.2397  0.0436 -0.7167
  806MOL0     H 8787  12.869  10.171   7.981 -0.0032  1.8370  0.7549
  806MOL0     H 8788  12.752  10.000   7.849  0.8588  0.7024 -0.7366
  806MOL0     H 8789  12.886   9.923   7.922  0.6975  0.1175  2.1704
  806MOL0     H 8790  12.362  10.369   7.265 -0.8002 -2.4914 -0.4290
  806MOL0     H 8791  12.146  10.366   7.151  3.1375  1.1491 -0.0376
  806MOL0     H 8792  11.770  10.504   6.903 -0.4915 -0.9056 -1.8329
  806MOL0     H 8793  11.554  10.433   6.813 -0.5746 -1.6114 -1.0211
  806MOL0     H 8794  10.870  11.165   7.423  1.5637  1.2934  1.0293
  806MOL0     H 8795  10.921  10.954   7.511 -2.4505  3.1230  0.6394
  806MOL0     H 8796  11.078  10.554   7.517 -0.4591 -0.0276  0.5091
  806MOL0     H 8797  11.132  10.333   7.527 -0.8769  0.9657 -0.2954
  806MOL0     H 8798  11.589  10.222   7.509  0.4487 -0.4323  0.3991
  806MOL0     H 8799  11.506  10.164   7.363 -1.9746  4.0491  0.0971
  806MOL0     H 8800  11.495  10.012   7.643  0.1143 -4.1219  0.3064
  806MOL0     H 8801  11.602   9.983   7.519  0.7531 -2.1769  2.5453
  806MOL0     H 8802  11.298   9.944   7.503 -0.8653 -2.0985 -0.2554
  806MOL0     H 8803  11.431   9.818   7.501 -1.3203 -0.4841 -1.1519
  806MOL0     H 8804  11.314   9.974   7.282  0.1979  0.7143 -0.3104
  806MOL0     H 8805  11.497   9.937   7.286 -1.3799  0.9334 -2.3324
  806MOL0     H 8806  11.300   9.572   7.168 -0.0285  1.0929 -1.0920
  806MOL0     H 8807  11.557  10.433   7.459 -0.0415 -2.6952  0.0305
  806MOL0     H 8808  11.482  10.758   7.333  1.2355  2.7061  1.7624
  806MOL0     H 8809  11.573  10.732   7.476 -0.7396  0.2967  0.0865
  806MOL0     H 8810  11.599  10.617   7.337 -0.1132  0.2265  0.7053
  807MOL0     O 8811   1.348   9.861   1.171  0.4187  0.0832  0.9437
  807MOL0     C 8812   1.385   9.896   1.282 -0.5422  0.5927 -0.6328
  807MOL0     O 8813   1.384   9.819   1.399  0.2253 -0.3502  0.7571
  807MOL0     C 8814   1.331   9.687   1.410 -0.9902 -0.1497  0.3259
  807MOL0     C 8815   1.289   9.642   1.530 -0.7165  0.1367 -0.2760
  807MOL0     C 8816   1.225   9.510   1.555 -0.3508 -0.7211  0.5652
  807MOL0     C 8817   1.219   9.418   1.456 -0.2956 -0.4401 -0.2661
  807MOL0     O 8818   1.153   9.298   1.487 -0.5054  0.7277 -0.8151
  807MOL0     C 8819   1.060   9.250   1.389 -0.7025 -0.7527  0.6411
  807MOL0     C 8820   1.011   9.111   1.414 -0.7107  0.5875  0.9641
  807MOL0     C 8821   0.969   9.011   1.302 -1.2483  0.7809  0.2648
  807MOL0     C 8822   0.868   9.067   1.204 -0.4471  1.2539 -0.2733
  807MOL0     C 8823   0.835   8.944   1.117  0.2028  0.1359 -0.0278
  807MOL0     C 8824   0.686   8.947   1.060 -0.6615  0.2378 -0.0625
  807MOL0     C 8825   0.643   9.076   0.989 -0.1205  0.3688  0.1216
  807MOL0     C 8826   0.717   9.088   0.849  0.1081 -0.2634  0.1088
  807MOL0     N 8827   0.678   9.216   0.793  0.3197 -0.0041 -0.4831
  807MOL0     C 8828   0.591   9.228   0.682 -0.0117  0.2496  0.3690
  807MOL0     C 8829   0.592   9.356   0.642 -0.5338  0.3694  0.3379
  807MOL0     C 8830   0.530   9.413   0.518  0.9211  0.3996 -0.0443
  807MOL0     C 8831   0.643   9.387   0.412 -0.4759  0.2097  0.1838
  807MOL0     C 8832   0.617   9.422   0.270  0.1317  0.2684 -0.1646
  807MOL0     C 8833   0.708   9.542   0.218 -0.7058  0.9359  0.2113
  807MOL0     O 8834   0.670   9.660   0.286 -0.2717  0.1897 -0.8145
  807MOL0     C 8835   0.574   9.720   0.213 -0.2853  0.1579 -0.0101
  807MOL0     C 8836   0.460   9.763   0.273  1.2766 -0.7227  1.7326
  807MOL0     C 8837   0.360   9.829   0.195  0.3632  0.9948  0.8104
  807MOL0     C 8838   0.390   9.870   0.061  0.0590  0.0066  0.5684
  807MOL0     C 8839   0.292   9.948  -0.032 -0.2798  0.4842 -0.8365
  807MOL0     O 8840   0.165   9.943   0.016  0.2309  0.4504 -0.1481
  807MOL0     C 8841   0.061   9.964  -0.068 -0.5870  0.0158  1.3156
  807MOL0     C 8842  -0.051   9.876  -0.086 -0.2267 -0.1136 -0.4002
  807MOL0     C 8843  -0.157   9.910  -0.166  0.9606  0.3543 -0.2955
  807MOL0     C 8844  -0.168  10.040  -0.220  0.0917 -0.1780  0.1820
  807MOL0     O 8845  -0.279  10.057  -0.309 -0.8390 -0.2457  0.2861
  807MOL0     C 8846  -0.296  10.194  -0.357  0.9918  0.5859  0.0548
  807MOL0     C 8847  -0.424  10.212  -0.427  0.2454  0.8240  0.0504
  807MOL0     C 8848  -0.446  10.350  -0.480 -0.0374  0.5052  0.0239
  807MOL0     C 8849  -0.573  10.364  -0.565 -1.1653  0.3184  0.4610
  807MOL0     C 8850  -0.609  10.516  -0.613 -0.1715  0.0147 -0.2928
  807MOL0     C 8851  -0.632  10.629  -0.511 -0.9920 -0.4569  0.5051
  807MOL0     C 8852  -0.744  10.579  -0.424 -0.0564  0.6309 -0.0770
  807MOL0     C 8853  -0.774  10.671  -0.305  0.2071 -0.2161 -0.2269
  807MOL0    Cl 8854  -0.878  10.807  -0.358  0.4162 -0.7283 -0.0334
  807MOL0     C 8855  -0.060  10.136  -0.196  1.4800  0.1878 -0.2828
  807MOL0     C 8856   0.051  10.100  -0.116  0.8576 -0.4882 -0.5412
  807MOL0     O 8857   0.334   9.990  -0.134  0.3950 -0.0370 -0.0172
  807MOL0     C 8858   0.520   9.844   0.016 -0.2143 -0.3018  1.0493
  807MOL0     C 8859   0.606   9.774   0.094 -0.0588 -0.8890 -0.1886
  807MOL0     N 8860   0.697   9.410   0.715 -0.2113 -0.1881  0.3854
  807MOL0     N 8861   0.755   9.329   0.801  0.4354  1.0022 -0.4426
  807MOL0     C 8862   1.266   9.461   1.329 -1.0606  0.0034  0.0652
  807MOL0     C 8863   1.322   9.592   1.310 -0.1708  0.2980 -0.0604
  807MOL0     C 8864   1.451  10.024   1.305 -0.7978 -0.2964  0.4477
  807MOL0     C 8865   1.516  10.086   1.195  0.9264 -0.7993 -0.3421
  807MOL0     C 8866   1.589  10.204   1.216  0.9639  0.2130  0.1002
  807MOL0     C 8867   1.590  10.274   1.341  0.5340  0.6377  0.4274
  807MOL0     O 8868   1.672  10.386   1.351 -0.1738  0.0507 -0.2372
  807MOL0     C 8869   1.630  10.494   1.435  0.7114  1.4776 -0.0901
  807MOL0     C 8870   1.696  10.624   1.395  0.7760 -0.0196  0.0342
  807MOL0     C 8871   1.848  10.647   1.430 -0.0495 -0.0902 -0.4118
  807MOL0     C 8872   1.893  10.762   1.328 -0.3746 -0.0116 -0.6176
  807MOL0     C 8873   2.039  10.781   1.330 -0.4304  0.4926  0.2462
  807MOL0     C 8874   2.148  10.798   1.362 -0.3077  0.9508 -0.3973
  807MOL0     C 8875   1.516  10.217   1.439 -0.3109 -0.5831 -1.4757
  807MOL0     C 8876   1.447  10.091   1.427  0.5007 -0.1483 -0.4569
  807MOL0     C 8877   1.355  10.051   1.539  0.5611  0.0784  0.3975
  807MOL0     H 8878   1.295   9.709   1.616  2.3096 -3.1526  2.3982
  807MOL0     H 8879   1.198   9.488   1.658 -1.5448  0.6780  0.5770
  807MOL0     H 8880   0.970   9.311   1.394 -0.3342 -0.3082  3.7517
  807MOL0     H 8881   1.096   9.251   1.286 -2.4439  1.3874 -0.0031
  807MOL0     H 8882   0.925   9.119   1.482 -0.6051 -1.0585  1.3419
  807MOL0     H 8883   1.094   9.057   1.461  0.7691  1.6862 -0.2839
  807MOL0     H 8884   0.950   8.917   1.354  1.1572 -0.7585 -1.4110
  807MOL0     H 8885   1.056   8.977   1.245 -2.3905 -0.4224 -0.8190
  807MOL0     H 8886   0.778   9.104   1.255 -0.9613 -0.9596  0.5560
  807MOL0     H 8887   0.908   9.144   1.139  0.4053  0.9708 -0.0935
  807MOL0     H 8888   0.913   8.941   1.040  0.8813 -1.5448  0.6777
  807MOL0     H 8889   0.857   8.860   1.183 -1.3759  0.9044  1.5491
  807MOL0     H 8890   0.668   8.849   1.017  1.1913 -1.9722  3.7145
  807MOL0     H 8891   0.620   8.946   1.147  3.2538 -1.1981  3.2401
  807MOL0     H 8892   0.651   9.163   1.056 -0.4057 -1.2193  2.3252
  807MOL0     H 8893   0.536   9.070   0.965  0.0466 -0.5635 -0.4231
  807MOL0     H 8894   0.822   9.096   0.878 -0.5641  4.8531  2.3480
  807MOL0     H 8895   0.703   9.005   0.780  0.8732 -0.4380  0.1567
  807MOL0     H 8896   0.520   9.155   0.646  0.7059 -0.9109  1.2596
  807MOL0     H 8897   0.435   9.374   0.480  0.7485  1.0629 -0.3082
  807MOL0     H 8898   0.510   9.520   0.530 -2.3824 -0.1555  0.1634
  807MOL0     H 8899   0.735   9.431   0.452  0.1763 -1.7222  0.9474
  807MOL0     H 8900   0.664   9.279   0.411  1.7131  0.5736  0.5073
  807MOL0     H 8901   0.515   9.454   0.245 -0.7870 -2.2857 -0.0079
  807MOL0     H 8902   0.641   9.337   0.206  3.7825  2.2114 -1.6544
  807MOL0     H 8903   0.718   9.543   0.109  0.2121 -2.4746  0.1510
  807MOL0     H 8904   0.809   9.536   0.259 -0.3126  1.5481 -0.6373
  807MOL0     H 8905   0.452   9.718   0.371  1.3422 -2.4702  0.9650
  807MOL0     H 8906   0.262   9.834   0.242  0.0956 -1.0351  0.5825
  807MOL0     H 8907  -0.037   9.777  -0.043  0.6895 -1.0869 -2.7813
  807MOL0     H 8908  -0.248   9.853  -0.151  1.4126  0.1013  1.8274
  807MOL0     H 8909  -0.292  10.265  -0.274 -5.0924  0.0773  1.2662
  807MOL0     H 8910  -0.218  10.220  -0.430  1.6398  3.5427  1.6219
  807MOL0     H 8911  -0.441  10.130  -0.496  0.0916 -0.2890  1.3730
  807MOL0     H 8912  -0.496  10.189  -0.348 -1.2639 -0.7521 -1.6948
  807MOL0     H 8913  -0.447  10.428  -0.404  0.1367  1.6343 -1.1061
  807MOL0     H 8914  -0.371  10.386  -0.552 -0.7523  0.3016 -0.8488
  807MOL0     H 8915  -0.659  10.310  -0.525 -0.9916 -1.1647 -1.0530
  807MOL0     H 8916  -0.561  10.301  -0.654  0.0640 -0.0034  0.8369
  807MOL0     H 8917  -0.693  10.516  -0.683  0.5832  1.5665 -1.2442
  807MOL0     H 8918  -0.515  10.544  -0.661 -0.2653  0.1296 -0.4102
  807MOL0     H 8919  -0.542  10.641  -0.449 -0.6779  2.1801 -0.3468
  807MOL0     H 8920  -0.637  10.724  -0.566  0.6549 -1.7751 -2.1337
  807MOL0     H 8921  -0.721  10.484  -0.375 -1.1675  0.9354  1.0811
  807MOL0     H 8922  -0.831  10.553  -0.486 -0.0533 -1.9417  0.8745
  807MOL0     H 8923  -0.816  10.604  -0.230  1.9132 -2.2338 -0.9870
  807MOL0     H 8924  -0.683  10.710  -0.259  0.1621  2.8983 -2.4265
  807MOL0     H 8925  -0.068  10.234  -0.240  3.0847 -0.1195 -1.3673
  807MOL0     H 8926   0.133  10.164  -0.086  2.7432 -1.7961 -2.5970
  807MOL0     H 8927   0.559   9.886  -0.077 -2.6750  1.4146  0.6852
  807MOL0     H 8928   0.699   9.769   0.039 -0.6368 -1.0185 -1.1848
  807MOL0     H 8929   1.253   9.399   1.241 -0.0204  1.9849 -1.5645
  807MOL0     H 8930   1.351   9.623   1.210  0.5834 -0.5767 -0.1304
  807MOL0     H 8931   1.521  10.045   1.094 -1.0696 -3.5078  0.5444
  807MOL0     H 8932   1.648  10.250   1.137 -2.3273  1.2099 -2.0049
  807MOL0     H 8933   1.650  10.471   1.541  0.4621  1.3802 -0.0638
  807MOL0     H 8934   1.521  10.494   1.426  0.4276 -1.4390  1.8607
  807MOL0     H 8935   1.640  10.703   1.445  1.5035  0.6197 -0.1348
  807MOL0     H 8936   1.684  10.638   1.287  0.0654  3.3826  0.4442
  807MOL0     H 8937   1.907  10.557   1.410  1.8512  1.2046 -0.9437
  807MOL0     H 8938   1.861  10.682   1.533 -1.5229 -2.9982  0.8602
  807MOL0     H 8939   1.864  10.729   1.227  0.2542 -2.9262  0.0797
  807MOL0     H 8940   1.848  10.861   1.344 -0.2907 -0.1629  0.5968
  807MOL0     H 8941   2.251  10.817   1.386 -0.4225  0.5751  0.4061
  807MOL0     H 8942   1.515  10.283   1.525  1.8913 -3.2877  0.8623
  807MOL0     H 8943   1.269  10.014   1.483  1.9690  0.1237 -1.9503
  807MOL0     H 8944   1.398   9.971   1.599 -1.4553 -0.5527  1.0856
  807MOL0     H 8945   1.336  10.139   1.602  3.7197 -0.8016  2.8353
  808MOL0     O 8946   6.617   1.492   2.475 -0.4877  0.5976 -0.1737
  808MOL0     C 8947   6.521   1.560   2.515 -0.8092 -0.8639  0.9562
  808MOL0     O 8948   6.533   1.660   2.599 -0.6880 -0.0222 -0.7433
  808MOL0     C 8949   6.643   1.742   2.598 -0.2957  0.1236  0.8266
  808MOL0     C 8950   6.765   1.690   2.645 -0.9970 -0.1603 -0.6781
  808MOL0     C 8951   6.885   1.761   2.634 -0.0850  0.2013 -0.1826
  808MOL0     C 8952   6.880   1.894   2.586 -0.5654  0.8130 -0.4841
  808MOL0     O 8953   7.004   1.961   2.569  0.6409 -1.0719  0.5607
  808MOL0     C 8954   7.126   1.916   2.632  0.6401  0.4249  0.6680
  808MOL0     C 8955   7.229   2.026   2.620 -0.0665 -0.6173 -0.1826
  808MOL0     C 8956   7.169   2.174   2.623  0.5842  0.7088  0.1720
  808MOL0     C 8957   7.284   2.287   2.630  0.0317  0.6009  0.0377
  808MOL0     C 8958   7.205   2.416   2.625  0.5748  1.1655  0.0759
  808MOL0     C 8959   7.297   2.539   2.640 -0.0432 -0.6476  0.8824
  808MOL0     C 8960   7.288   2.641   2.527 -0.2606  0.6051  1.1940
  808MOL0     C 8961   7.374   2.766   2.561  0.5242 -0.2625 -0.0708
  808MOL0     N 8962   7.310   2.833   2.674  0.7610 -0.7472  0.1593
  808MOL0     C 8963   7.190   2.899   2.667  0.6951 -0.3330 -0.1011
  808MOL0     C 8964   7.160   2.952   2.790  0.5666  0.0704 -0.1636
  808MOL0     C 8965   7.040   3.031   2.831 -0.3620  0.2433  0.3195
  808MOL0     C 8966   6.946   3.073   2.715 -0.0410  0.0571  0.2615
  808MOL0     C 8967   6.830   3.132   2.778  0.9801 -0.1411 -0.1193
  808MOL0     C 8968   6.746   3.233   2.690  0.4065  0.1631  0.0504
  808MOL0     O 8969   6.839   3.316   2.614 -0.3793 -0.0973 -0.0481
  808MOL0     C 8970   6.900   3.411   2.683 -0.6917  0.9874 -0.1421
  808MOL0     C 8971   6.875   3.470   2.808  0.4373 -0.3774  0.3592
  808MOL0     C 8972   6.941   3.595   2.848  0.4459 -0.4428  0.2000
  808MOL0     C 8973   7.034   3.660   2.764 -0.5921  0.1296 -0.4832
  808MOL0     C 8974   7.103   3.786   2.796 -0.2880  0.5982 -0.2702
  808MOL0     O 8975   7.224   3.806   2.737  0.9770 -0.4096  0.0019
  808MOL0     C 8976   7.312   3.898   2.786  0.6043 -0.3623 -0.6429
  808MOL0     C 8977   7.330   3.928   2.918  0.6043 -0.7641  0.3814
  808MOL0     C 8978   7.441   3.994   2.966 -0.1152 -0.2750 -0.4307
  808MOL0     C 8979   7.534   4.042   2.877 -0.8168 -0.2716  0.0075
  808MOL0     O 8980   7.646   4.117   2.915 -0.1524  0.5241  0.0318
  808MOL0     C 8981   7.665   4.242   2.861  0.8123 -0.5015 -0.2272
  808MOL0     C 8982   7.776   4.329   2.931  0.8545  0.0369 -0.3632
  808MOL0     C 8983   7.827   4.450   2.842 -0.3341 -0.3991 -0.4056
  808MOL0     C 8984   7.713   4.545   2.796 -0.9445  0.0183 -0.5100
  808MOL0     C 8985   7.765   4.660   2.712 -0.4041 -0.0669 -0.3025
  808MOL0     C 8986   7.773   4.634   2.559  0.1330 -0.0315  0.1698
  808MOL0     C 8987   7.846   4.738   2.468  0.0298 -0.0242  1.4818
  808MOL0     C 8988   7.996   4.763   2.499  0.5524  0.1689 -0.5445
  808MOL0    Cl 8989   8.071   4.877   2.397 -0.0021  0.1796  0.0546
  808MOL0     C 8990   7.519   4.009   2.735  0.5586  0.4364 -0.7361
  808MOL0     C 8991   7.405   3.940   2.687 -0.2560  0.8036 -0.3686
  808MOL0     O 8992   7.052   3.865   2.880  0.3121  0.4247  0.2798
  808MOL0     C 8993   7.066   3.597   2.643  0.0617  0.2982 -0.5560
  808MOL0     C 8994   6.998   3.476   2.605 -0.2800 -0.2169 -0.3296
  808MOL0     N 8995   7.262   2.906   2.869 -0.1137 -0.1846 -0.1247
  808MOL0     N 8996   7.360   2.849   2.799  1.0937 -0.4129  0.8075
  808MOL0     C 8997   6.755   1.949   2.559  0.4056 -0.0792 -0.2299
  808MOL0     C 8998   6.635   1.874   2.571 -1.0024  0.0092 -0.3970
  808MOL0     C 8999   6.393   1.533   2.453  0.4044 -0.7415 -0.4779
  808MOL0     C 9000   6.293   1.634   2.460  0.3579 -0.8630 -0.4512
  808MOL0     C 9001   6.175   1.620   2.397 -0.1442  0.4886  0.1436
  808MOL0     C 9002   6.148   1.498   2.330  0.4456 -0.4987  0.9342
  808MOL0     O 9003   6.018   1.486   2.281  0.3353  0.4293 -0.5241
  808MOL0     C 9004   5.965   1.374   2.218 -1.0469  0.5759 -0.3661
  808MOL0     C 9005   5.990   1.379   2.070  0.2745 -0.8019 -0.0341
  808MOL0     C 9006   5.945   1.524   2.015 -0.3050  0.0921  0.4851
  808MOL0     C 9007   6.008   1.564   1.874 -0.0035 -0.2627 -0.2758
  808MOL0     C 9008   5.909   1.617   1.770 -0.6775  0.5267 -0.5726
  808MOL0     C 9009   5.844   1.661   1.679  0.0448  0.2671 -0.5218
  808MOL0     C 9010   6.245   1.403   2.314 -0.0548  0.6638  1.1472
  808MOL0     C 9011   6.362   1.419   2.370  0.3317  0.3394 -0.8317
  808MOL0     C 9012   6.456   1.297   2.347  0.2817  0.0831 -0.4485
  808MOL0     H 9013   6.773   1.588   2.683 -1.4848  0.1191  0.2129
  808MOL0     H 9014   6.978   1.721   2.673  0.5798  3.5790  2.1974
  808MOL0     H 9015   7.104   1.897   2.738  2.3173  1.2918  1.2113
  808MOL0     H 9016   7.161   1.824   2.584 -0.2992 -0.8579  2.3221
  808MOL0     H 9017   7.270   2.025   2.519 -4.3166 -0.5738 -2.1462
  808MOL0     H 9018   7.305   2.016   2.697  3.1914 -3.9134 -3.4071
  808MOL0     H 9019   7.112   2.176   2.716 -1.9133  0.6750 -1.2424
  808MOL0     H 9020   7.101   2.197   2.540  1.9058  3.4635 -0.2485
  808MOL0     H 9021   7.338   2.273   2.724 -2.4150  2.9989  1.9594
  808MOL0     H 9022   7.352   2.277   2.545  0.0680 -0.6554  0.1902
  808MOL0     H 9023   7.134   2.422   2.542 -3.1633  1.3242  2.9913
  808MOL0     H 9024   7.146   2.410   2.717  1.3826 -0.7127  0.5331
  808MOL0     H 9025   7.274   2.591   2.734  0.0051  2.3018 -0.6201
  808MOL0     H 9026   7.403   2.514   2.642 -0.0185 -0.5072  1.6745
  808MOL0     H 9027   7.182   2.653   2.504 -0.4937 -1.8133  0.8522
  808MOL0     H 9028   7.327   2.604   2.432 -2.8237  0.9508 -0.0635
  808MOL0     H 9029   7.481   2.746   2.572  1.0281  1.2781 -1.6067
  808MOL0     H 9030   7.387   2.835   2.476  2.8850 -0.9937 -0.3898
  808MOL0     H 9031   7.123   2.906   2.582  1.8865 -3.3580 -1.4301
  808MOL0     H 9032   6.992   2.972   2.910  0.3230 -2.4293 -1.1376
  808MOL0     H 9033   7.075   3.115   2.892 -0.1834 -1.0005  2.0383
  808MOL0     H 9034   6.991   3.139   2.640 -0.6888  0.9101  0.6014
  808MOL0     H 9035   6.916   2.985   2.657 -1.1473  0.4502  0.2119
  808MOL0     H 9036   6.860   3.180   2.871  1.1104 -0.9862  0.2814
  808MOL0     H 9037   6.765   3.048   2.803 -3.5039  2.2072 -2.5778
  808MOL0     H 9038   6.666   3.286   2.743  0.7014 -0.2776  0.9561
  808MOL0     H 9039   6.687   3.179   2.614  0.5008  3.3236 -2.4984
  808MOL0     H 9040   6.804   3.436   2.882  0.8360  2.2651  2.1209
  808MOL0     H 9041   6.925   3.637   2.947  1.4401  0.2113  0.0916
  808MOL0     H 9042   7.258   3.891   2.990 -1.7002  2.3578 -0.1219
  808MOL0     H 9043   7.448   3.999   3.074 -0.0678 -0.3476 -0.4301
  808MOL0     H 9044   7.691   4.232   2.755  1.4383  1.0031 -0.2479
  808MOL0     H 9045   7.571   4.297   2.873 -0.8825 -2.7728 -2.2245
  808MOL0     H 9046   7.738   4.379   3.021  0.2740  1.5343 -1.3924
  808MOL0     H 9047   7.861   4.272   2.968  0.1724  1.6542  4.2748
  808MOL0     H 9048   7.903   4.501   2.901  0.8780 -4.2137  1.6673
  808MOL0     H 9049   7.866   4.417   2.745 -0.4723  1.6384 -1.2022
  808MOL0     H 9050   7.677   4.597   2.885  2.0355  1.4125  0.0055
  808MOL0     H 9051   7.640   4.499   2.728 -1.2554  0.1890 -0.2930
  808MOL0     H 9052   7.868   4.684   2.740 -0.3127 -1.2055  0.3856
  808MOL0     H 9053   7.695   4.740   2.741  0.9186  0.4120  1.7909
  808MOL0     H 9054   7.823   4.537   2.544  1.8957  0.9476 -0.6315
  808MOL0     H 9055   7.676   4.611   2.514 -0.3197  2.2460 -0.1396
  808MOL0     H 9056   7.798   4.836   2.472 -0.3622 -0.1631  0.5011
  808MOL0     H 9057   7.847   4.697   2.366 -0.0846  0.1619  1.4065
  808MOL0     H 9058   8.008   4.790   2.604 -2.1651 -2.1759  0.5036
  808MOL0     H 9059   8.054   4.674   2.476  1.2928  0.2326  0.9434
  808MOL0     H 9060   7.599   4.049   2.675  0.4496 -0.5551 -1.5717
  808MOL0     H 9061   7.406   3.896   2.588 -0.1889 -1.8412  0.7020
  808MOL0     H 9062   7.124   3.648   2.567  1.1161  0.9722  0.6659
  808MOL0     H 9063   7.013   3.433   2.506  3.1033 -0.8589  0.3339
  808MOL0     H 9064   6.751   2.054   2.531  1.6987  1.2688  3.9402
  808MOL0     H 9065   6.536   1.906   2.540 -1.5521 -2.4441 -1.3825
  808MOL0     H 9066   6.316   1.721   2.521 -2.8450 -0.3832  0.2140
  808MOL0     H 9067   6.096   1.694   2.398 -2.8008 -2.1535  0.8795
  808MOL0     H 9068   5.858   1.365   2.241 -0.3772 -1.3311  2.4747
  808MOL0     H 9069   6.014   1.290   2.268 -1.3261 -0.5212 -1.8618
  808MOL0     H 9070   5.944   1.287   2.034  1.6201 -1.8165  0.7474
  808MOL0     H 9071   6.092   1.371   2.032  0.0736 -1.5600 -0.4188
  808MOL0     H 9072   5.991   1.590   2.090  3.4137 -1.4716 -0.1870
  808MOL0     H 9073   5.837   1.533   2.025 -0.1954  0.6694  1.2773
  808MOL0     H 9074   6.079   1.644   1.896  2.3325 -2.6151  1.4839
  808MOL0     H 9075   6.059   1.479   1.827 -0.0656 -1.5590  1.8544
  808MOL0     H 9076   5.793   1.694   1.591  0.4866  2.5413 -0.0050
  808MOL0     H 9077   6.223   1.309   2.265  0.2711  0.4392  1.4223
  808MOL0     H 9078   6.534   1.310   2.272  3.5974 -2.4389  2.2092
  808MOL0     H 9079   6.504   1.272   2.442 -3.0189  2.1441  2.0071
  808MOL0     H 9080   6.400   1.209   2.313  1.8446 -0.9569 -0.4188
  809MOL0     O 9081   6.494   8.063   7.900  0.3365 -0.0859  0.5332
  809MOL0     C 9082   6.544   8.173   7.868 -0.2104 -0.4730  0.7209
  809MOL0     O 9083   6.679   8.190   7.838 -0.5056  0.5722  0.6574
  809MOL0     C 9084   6.770   8.093   7.872 -0.1941  0.2873 -0.4348
  809MOL0     C 9085   6.886   8.075   7.798 -0.0911 -0.0196  0.4283
  809MOL0     C 9086   6.987   7.982   7.831  1.0257  0.1763 -0.5863
  809MOL0     C 9087   6.968   7.909   7.955  0.0389  0.0353  0.9364
  809MOL0     O 9088   7.067   7.837   8.004  0.0860  0.8760 -0.1459
  809MOL0     C 9089   7.197   7.835   7.939  0.8553 -0.1816 -0.0121
  809MOL0     C 9090   7.301   7.763   8.023 -0.7862 -0.2783 -0.0123
  809MOL0     C 9091   7.312   7.801   8.167 -0.4669  0.5815 -1.1964
  809MOL0     C 9092   7.420   7.731   8.245 -0.3172  0.8349 -0.2876
  809MOL0     C 9093   7.440   7.750   8.394  0.2801  0.2102  0.0797
  809MOL0     C 9094   7.357   7.644   8.461 -0.6803  0.0524 -0.2275
  809MOL0     C 9095   7.416   7.639   8.604  0.1471 -1.1927  0.1963
  809MOL0     C 9096   7.352   7.523   8.684  0.7033 -0.0060  0.2885
  809MOL0     N 9097   7.407   7.508   8.808  0.6055 -0.1472  0.0491
  809MOL0     C 9098   7.532   7.460   8.836 -0.0338 -0.4485  0.2686
  809MOL0     C 9099   7.538   7.433   8.968  0.3227 -0.6811 -0.4689
  809MOL0     C 9100   7.663   7.402   9.038 -0.2831  0.4438 -0.1351
  809MOL0     C 9101   7.719   7.257   9.011  0.4357 -0.3471 -0.2640
  809MOL0     C 9102   7.874   7.239   9.030  0.4298 -0.2411 -0.2552
  809MOL0     C 9103   7.916   7.095   9.036  0.3147 -0.1318 -1.3876
  809MOL0     O 9104   8.070   7.077   9.049  0.2518 -0.3458 -0.4149
  809MOL0     C 9105   8.112   7.083   9.178 -0.3936 -0.5672  0.3294
  809MOL0     C 9106   8.151   7.200   9.240  0.5274  0.0927 -0.4433
  809MOL0     C 9107   8.210   7.192   9.370 -0.2392  0.8772 -0.2628
  809MOL0     C 9108   8.229   7.064   9.432  0.4877 -0.5343  0.4369
  809MOL0     C 9109   8.318   7.043   9.553  0.4679 -0.3885 -0.6760
  809MOL0     O 9110   8.347   6.908   9.598 -0.3531 -0.3941 -0.3649
  809MOL0     C 9111   8.414   6.896   9.716  0.7430  0.2583  0.0803
  809MOL0     C 9112   8.551   6.924   9.724 -0.8404  0.0991  0.3099
  809MOL0     C 9113   8.626   6.894   9.834 -0.1224 -0.3758 -0.1883
  809MOL0     C 9114   8.554   6.849   9.946 -1.4001  0.9092 -0.2815
  809MOL0     O 9115   8.626   6.826  10.061  0.2413  0.8442 -0.5797
  809MOL0     C 9116   8.712   6.709  10.061 -0.6665  0.5358  0.4161
  809MOL0     C 9117   8.735   6.667  10.211  0.0759  0.2747  0.4154
  809MOL0     C 9118   8.824   6.539  10.205 -0.1046 -0.3118  0.7383
  809MOL0     C 9119   8.813   6.449  10.328 -0.4172 -0.4327 -0.0756
  809MOL0     C 9120   8.822   6.521  10.467  0.0338 -0.2895  0.1812
  809MOL0     C 9121   8.830   6.431  10.592 -1.0917 -0.4889 -0.0894
  809MOL0     C 9122   8.982   6.412  10.637  0.6395  0.5179  0.9068
  809MOL0     C 9123   9.000   6.337  10.766  1.2597  0.5559 -0.2780
  809MOL0    Cl 9124   9.021   6.150  10.750  0.2764  0.4666  0.2432
  809MOL0     C 9125   8.420   6.831   9.949  1.2551 -0.1756 -0.1682
  809MOL0     C 9126   8.349   6.862   9.835  0.5743 -0.3417 -0.4067
  809MOL0     O 9127   8.353   7.149   9.605 -0.0128 -0.6091  0.0497
  809MOL0     C 9128   8.179   6.952   9.367 -0.5338 -0.1650 -0.0772
  809MOL0     C 9129   8.115   6.963   9.246 -0.2215 -1.1124  0.9010
  809MOL0     N 9130   7.412   7.463   9.020  0.5116  0.2191  0.6009
  809MOL0     N 9131   7.339   7.512   8.929  0.5223  0.5285 -0.0804
  809MOL0     C 9132   6.855   7.922   8.032  0.6659 -0.7213  0.2561
  809MOL0     C 9133   6.760   8.024   7.987  0.1079  0.4888 -0.4300
  809MOL0     C 9134   6.455   8.292   7.828  0.4002  0.9240  0.1147
  809MOL0     C 9135   6.483   8.372   7.715  0.2770  0.7930  0.5553
  809MOL0     C 9136   6.406   8.480   7.675 -0.1408  0.2071 -0.3363
  809MOL0     C 9137   6.291   8.507   7.751  0.2957  0.6677  0.0470
  809MOL0     O 9138   6.205   8.614   7.730 -0.0947 -0.1099 -0.1322
  809MOL0     C 9139   6.240   8.729   7.664  0.2536 -0.8955  0.1455
  809MOL0     C 9140   6.201   8.711   7.517 -0.1041 -0.4595 -0.2395
  809MOL0     C 9141   6.051   8.732   7.497 -0.2295 -0.1974  0.0021
  809MOL0     C 9142   6.016   8.696   7.347  0.0932  0.7342  0.7742
  809MOL0     C 9143   5.866   8.677   7.341 -0.6134  0.0394  1.1857
  809MOL0     C 9144   5.745   8.673   7.347  0.1936 -0.4104  0.8383
  809MOL0     C 9145   6.259   8.418   7.851  0.8298  0.8723  0.2585
  809MOL0     C 9146   6.337   8.313   7.897 -0.3908  0.1158  0.2329
  809MOL0     C 9147   6.295   8.224   8.007  0.4641  0.1668 -0.1445
  809MOL0     H 9148   6.884   8.131   7.705  2.5423  0.1876  0.4172
  809MOL0     H 9149   7.077   7.966   7.773  1.2891  2.5233 -0.8942
  809MOL0     H 9150   7.187   7.781   7.845  2.3180  0.1236 -0.3763
  809MOL0     H 9151   7.235   7.936   7.920 -1.0927  0.5181 -0.3312
  809MOL0     H 9152   7.398   7.781   7.976 -0.4169 -0.9203  0.4768
  809MOL0     H 9153   7.289   7.654   8.027  0.5530 -0.4041  2.1720
  809MOL0     H 9154   7.222   7.788   8.227  0.3483 -2.3966 -0.4515
  809MOL0     H 9155   7.345   7.904   8.186  1.0740 -0.2102  0.8012
  809MOL0     H 9156   7.419   7.622   8.230 -2.0505  0.4060  2.2606
  809MOL0     H 9157   7.516   7.764   8.204  0.5582  0.9553  1.7354
  809MOL0     H 9158   7.546   7.735   8.419  0.4873  0.5697 -0.5673
  809MOL0     H 9159   7.428   7.854   8.426 -0.4042  0.1062  0.1727
  809MOL0     H 9160   7.252   7.672   8.467 -0.6978 -0.3063  1.6346
  809MOL0     H 9161   7.375   7.551   8.406  0.6116  0.8039 -1.1546
  809MOL0     H 9162   7.397   7.734   8.655 -0.1123 -2.1914  2.0515
  809MOL0     H 9163   7.523   7.619   8.603  0.8963  2.2361 -2.1571
  809MOL0     H 9164   7.243   7.521   8.681  0.6746  0.8291  0.6795
  809MOL0     H 9165   7.378   7.431   8.630  0.1815 -1.2199  2.0154
  809MOL0     H 9166   7.612   7.432   8.768  1.0347 -4.0645  2.7038
  809MOL0     H 9167   7.737   7.469   8.993  0.6014  0.4138  1.2086
  809MOL0     H 9168   7.653   7.421   9.145  0.3933 -0.3149  0.0786
  809MOL0     H 9169   7.668   7.190   9.082 -1.9725 -1.4006 -2.7883
  809MOL0     H 9170   7.700   7.229   8.907 -1.3934  1.3133 -0.4274
  809MOL0     H 9171   7.913   7.290   9.118  1.2710  0.5944 -1.0830
  809MOL0     H 9172   7.931   7.297   8.956 -0.4960  1.5187  0.3353
  809MOL0     H 9173   7.886   7.048   8.942 -2.4705  0.4259 -0.8820
  809MOL0     H 9174   7.865   7.035   9.113  0.8492  0.9310 -0.1603
  809MOL0     H 9175   8.130   7.291   9.186 -3.1150  0.6922  1.6352
  809MOL0     H 9176   8.249   7.280   9.421 -2.2127  1.3407  0.5497
  809MOL0     H 9177   8.608   6.966   9.642  0.8020 -1.1092  0.7654
  809MOL0     H 9178   8.734   6.906   9.832 -0.2253  1.5141  1.6643
  809MOL0     H 9179   8.658   6.632  10.005  0.9643 -1.8771  1.9874
  809MOL0     H 9180   8.803   6.723  10.001 -0.5805 -4.0922 -0.9478
  809MOL0     H 9181   8.789   6.742  10.269  1.1239 -0.5721  0.5811
  809MOL0     H 9182   8.636   6.644  10.252 -2.1317  1.7739 -3.5590
  809MOL0     H 9183   8.793   6.482  10.117 -2.3886  2.5998 -0.4986
  809MOL0     H 9184   8.926   6.577  10.193 -0.9815  1.5893 -1.4972
  809MOL0     H 9185   8.896   6.379  10.319  0.4524  0.4935  0.4398
  809MOL0     H 9186   8.715   6.403  10.316  0.5926 -2.6989 -0.1365
  809MOL0     H 9187   8.743   6.594  10.489 -1.1531 -2.1111  2.4538
  809MOL0     H 9188   8.904   6.593  10.458 -1.5295  1.4706 -0.9581
  809MOL0     H 9189   8.787   6.483  10.678  3.5021 -1.0010  2.8449
  809MOL0     H 9190   8.781   6.336  10.569 -1.1439 -0.7584  1.0787
  809MOL0     H 9191   9.026   6.511  10.652  0.5075  0.9693 -1.2772
  809MOL0     H 9192   9.032   6.361  10.554  0.4149  0.6712  0.6743
  809MOL0     H 9193   9.087   6.375  10.820  1.5855  0.8621 -1.0109
  809MOL0     H 9194   8.907   6.354  10.821 -0.4522 -0.8971 -2.5666
  809MOL0     H 9195   8.364   6.811  10.040  1.5802  1.2404  0.3668
  809MOL0     H 9196   8.240   6.860   9.832  0.3679  0.0268  2.8827
  809MOL0     H 9197   8.194   6.856   9.413  1.0612  1.8312  4.0391
  809MOL0     H 9198   8.076   6.873   9.199  1.6940 -2.4595  1.7846
  809MOL0     H 9199   6.839   7.869   8.126  1.7871  0.6699  1.2819
  809MOL0     H 9200   6.679   8.041   8.057  1.6911  0.8179  1.4193
  809MOL0     H 9201   6.561   8.335   7.649  0.0687 -0.9488  1.2428
  809MOL0     H 9202   6.425   8.535   7.583  1.2677  0.0520 -0.1636
  809MOL0     H 9203   6.347   8.747   7.676 -0.0458 -0.1969  2.1314
  809MOL0     H 9204   6.187   8.809   7.717  0.8051 -0.0986 -0.4842
  809MOL0     H 9205   6.245   8.620   7.475  3.6882  1.1320 -0.1193
  809MOL0     H 9206   6.256   8.788   7.462 -1.4787 -0.7571 -2.1179
  809MOL0     H 9207   6.027   8.837   7.513 -1.3329 -0.3807 -0.3588
  809MOL0     H 9208   5.993   8.673   7.569 -1.5636  1.9727  0.8115
  809MOL0     H 9209   6.056   8.778   7.287 -1.3862 -0.2282 -1.6909
  809MOL0     H 9210   6.062   8.603   7.311 -0.5862  1.1258 -1.2100
  809MOL0     H 9211   5.641   8.671   7.374 -0.3593  1.5725 -0.8130
  809MOL0     H 9212   6.169   8.455   7.899  1.4029  3.2372 -0.3729
  809MOL0     H 9213   6.285   8.118   7.986 -0.0368  0.3602 -0.9263
  809MOL0     H 9214   6.359   8.234   8.096  0.7589 -1.5803 -0.1264
  809MOL0     H 9215   6.192   8.249   8.036  0.1041  0.5413 -1.6400
  810MOL0     O 9216  10.535   0.733   7.973 -0.0385  0.2103  0.5725
  810MOL0     C 9217  10.537   0.844   7.930  0.3837 -0.3225 -0.5217
  810MOL0     O 9218  10.448   0.947   7.962  0.0190 -0.0574 -0.0203
  810MOL0     C 9219  10.333   0.936   8.041  0.6801 -0.5822 -0.3608
  810MOL0     C 9220  10.312   1.034   8.135  0.1998 -0.8284  0.4879
  810MOL0     C 9221  10.205   1.037   8.225  0.2008  0.8401  0.0107
  810MOL0     C 9222  10.103   0.935   8.218  0.1048 -0.4097  0.3778
  810MOL0     O 9223   9.981   0.958   8.274  0.8852 -0.1824  0.5446
  810MOL0     C 9224   9.912   0.834   8.302 -0.2530  0.4714  0.1581
  810MOL0     C 9225   9.779   0.871   8.361  0.5092 -0.0600 -0.1941
  810MOL0     C 9226   9.782   0.934   8.509 -0.0288 -0.8430  0.1667
  810MOL0     C 9227   9.815   1.085   8.505  0.5524 -0.9698 -0.5644
  810MOL0     C 9228   9.833   1.149   8.647  0.9105  0.3830 -0.3194
  810MOL0     C 9229   9.701   1.131   8.724  1.0184  0.1815  0.2883
  810MOL0     C 9230   9.718   1.212   8.858 -0.1180  0.5793 -0.8616
  810MOL0     C 9231   9.582   1.221   8.923  0.2467 -0.5001 -0.9338
  810MOL0     N 9232   9.482   1.311   8.849  0.2164 -0.0052  0.8707
  810MOL0     C 9233   9.508   1.441   8.800  0.3943  0.2998 -0.6753
  810MOL0     C 9234   9.385   1.498   8.780 -0.2859 -0.9366  0.2796
  810MOL0     C 9235   9.353   1.652   8.752 -0.2093 -0.1091 -0.6096
  810MOL0     C 9236   9.372   1.670   8.601  1.1250  0.1076 -0.0052
  810MOL0     C 9237   9.239   1.656   8.516  0.1993 -0.2787 -0.9818
  810MOL0     C 9238   9.134   1.770   8.521  0.1027  0.5649 -0.4647
  810MOL0     O 9239   9.049   1.761   8.640 -0.0683  0.3382  0.0419
  810MOL0     C 9240   8.953   1.852   8.654  0.3194  0.4175  0.9609
  810MOL0     C 9241   8.885   1.850   8.773  0.5012 -0.1658 -0.0383
  810MOL0     C 9242   8.780   1.932   8.801  1.2113  0.4642 -0.6576
  810MOL0     C 9243   8.728   2.019   8.702 -0.2728 -0.2684  0.1143
  810MOL0     C 9244   8.614   2.112   8.717  0.2533 -0.4229 -0.1510
  810MOL0     O 9245   8.572   2.197   8.626  0.7564  0.6325  0.0518
  810MOL0     C 9246   8.465   2.280   8.653  0.1536  1.0679 -0.1703
  810MOL0     C 9247   8.452   2.345   8.780  1.0678 -0.4418 -0.7700
  810MOL0     C 9248   8.338   2.426   8.801  0.0325 -0.1033 -0.8074
  810MOL0     C 9249   8.237   2.442   8.699  0.0904 -0.3073 -0.0047
  810MOL0     O 9250   8.120   2.507   8.739  0.1938 -0.8033  0.7392
  810MOL0     C 9251   8.045   2.587   8.643 -0.5645 -0.6002 -1.2921
  810MOL0     C 9252   7.901   2.607   8.696  0.1136  0.2290 -0.2631
  810MOL0     C 9253   7.901   2.659   8.845 -0.0464  0.4197 -0.0255
  810MOL0     C 9254   7.771   2.729   8.896 -0.3003  1.1005  0.2811
  810MOL0     C 9255   7.649   2.634   8.875 -0.7073 -0.2138 -0.2845
  810MOL0     C 9256   7.506   2.699   8.867 -0.0971 -0.7602 -0.1435
  810MOL0     C 9257   7.485   2.787   8.743 -0.1855 -0.3217 -0.4054
  810MOL0     C 9258   7.345   2.822   8.723  0.1186 -0.0289 -0.1005
  810MOL0    Cl 9259   7.284   2.937   8.835  0.0104 -0.0835  0.4162
  810MOL0     C 9260   8.265   2.394   8.573 -0.1400  0.6627  0.1238
  810MOL0     C 9261   8.383   2.319   8.550  1.3526  0.1538  0.0973
  810MOL0     O 9262   8.560   2.097   8.829  0.5097  0.1278 -0.2021
  810MOL0     C 9263   8.789   2.013   8.580  0.3673 -0.0498  0.2615
  810MOL0     C 9264   8.890   1.931   8.548  0.3440 -0.4482 -0.3927
  810MOL0     N 9265   9.286   1.405   8.818 -0.8889 -0.2343 -0.4622
  810MOL0     N 9266   9.343   1.292   8.845 -1.0365 -0.3488  0.4388
  810MOL0     C 9267  10.137   0.827   8.137  0.1854 -0.6526 -0.4178
  810MOL0     C 9268  10.250   0.824   8.053  0.6400  0.0608  0.6811
  810MOL0     C 9269  10.645   0.883   7.835 -0.1075 -0.3683 -0.8275
  810MOL0     C 9270  10.774   0.895   7.888  0.5626  0.0932 -0.1961
  810MOL0     C 9271  10.891   0.907   7.813  0.1780 -0.1060 -0.1341
  810MOL0     C 9272  10.875   0.935   7.680 -0.4509 -0.6049 -0.1440
  810MOL0     O 9273  10.976   0.944   7.588  0.0457  0.5111 -0.1944
  810MOL0     C 9274  10.986   1.059   7.508 -0.9895 -0.2651  0.4632
  810MOL0     C 9275  10.961   1.010   7.372 -0.1429  0.2140  0.1498
  810MOL0     C 9276  10.989   1.109   7.259 -0.5590  0.8068 -0.4587
  810MOL0     C 9277  10.881   1.212   7.244  0.3602  0.6604 -0.0985
  810MOL0     C 9278  10.893   1.282   7.111 -0.3283 -0.4077 -1.3759
  810MOL0     C 9279  10.892   1.319   6.998  0.0238 -0.2192 -0.0599
  810MOL0     C 9280  10.745   0.932   7.627 -0.2326 -0.4798  0.1231
  810MOL0     C 9281  10.626   0.914   7.699 -0.3368 -0.5674  0.2622
  810MOL0     C 9282  10.498   0.904   7.636  0.4509  0.6551 -0.0167
  810MOL0     H 9283  10.393   1.106   8.148  0.4823  0.4790 -5.6702
  810MOL0     H 9284  10.188   1.130   8.277  1.7367  1.2603 -0.1794
  810MOL0     H 9285   9.892   0.783   8.207 -0.1940 -1.8908  1.3375
  810MOL0     H 9286   9.964   0.775   8.378  0.9199 -1.0540 -1.7265
  810MOL0     H 9287   9.720   0.779   8.357 -0.8882  0.8350 -3.2853
  810MOL0     H 9288   9.731   0.929   8.282  0.3313 -0.1222 -0.1301
  810MOL0     H 9289   9.856   0.880   8.570 -1.3096 -1.9329  0.8042
  810MOL0     H 9290   9.688   0.913   8.560 -0.0808 -0.8156  0.0824
  810MOL0     H 9291   9.906   1.097   8.446 -0.5040 -1.3595 -2.3716
  810MOL0     H 9292   9.729   1.136   8.461 -2.5547  0.8933  6.2457
  810MOL0     H 9293   9.917   1.098   8.693 -1.0519 -0.4785  2.5803
  810MOL0     H 9294   9.834   1.257   8.630  0.9762  0.5143  0.4758
  810MOL0     H 9295   9.614   1.158   8.663  0.7670  2.6763  1.6089
  810MOL0     H 9296   9.682   1.028   8.755 -0.4142  0.6692  1.0880
  810MOL0     H 9297   9.771   1.305   8.834  1.0717 -0.5325 -2.8510
  810MOL0     H 9298   9.769   1.145   8.928 -1.7505  1.1671  0.9795
  810MOL0     H 9299   9.529   1.127   8.941  0.5121 -0.6690 -1.0152
  810MOL0     H 9300   9.595   1.267   9.021  3.4773 -2.2807 -0.3851
  810MOL0     H 9301   9.605   1.488   8.799  0.3275  0.5172  0.6217
  810MOL0     H 9302   9.258   1.668   8.803  0.8351 -2.2467  2.2583
  810MOL0     H 9303   9.430   1.707   8.806  0.0714 -1.0099 -0.0647
  810MOL0     H 9304   9.411   1.771   8.583  1.0529  0.2714  0.7110
  810MOL0     H 9305   9.433   1.593   8.553  0.6662 -0.0015 -0.4258
  810MOL0     H 9306   9.179   1.569   8.546  0.9069 -0.0677  1.2359
  810MOL0     H 9307   9.258   1.639   8.410  0.9920  1.5048 -1.1552
  810MOL0     H 9308   9.071   1.752   8.433  1.1636 -1.6350 -0.8291
  810MOL0     H 9309   9.175   1.870   8.503  2.0964  0.2185  1.7071
  810MOL0     H 9310   8.921   1.786   8.853 -0.8796 -0.8063  0.0873
  810MOL0     H 9311   8.746   1.935   8.905  0.2199 -0.6294 -0.9291
  810MOL0     H 9312   8.526   2.321   8.855  2.0959 -1.3188 -2.0204
  810MOL0     H 9313   8.322   2.452   8.905  1.4717 -4.0534  0.6172
  810MOL0     H 9314   8.086   2.687   8.628 -1.1216 -0.0842  0.3869
  810MOL0     H 9315   8.019   2.538   8.548  2.9457 -0.1813 -2.6089
  810MOL0     H 9316   7.838   2.672   8.636  0.1279  2.1178  1.6480
  810MOL0     H 9317   7.849   2.510   8.702 -3.0938  1.8287 -0.1221
  810MOL0     H 9318   7.912   2.580   8.920 -0.2375  0.5018  0.0883
  810MOL0     H 9319   7.973   2.740   8.859 -1.1557  1.6239 -1.0409
  810MOL0     H 9320   7.755   2.827   8.852  1.6027  1.2960 -0.0885
  810MOL0     H 9321   7.782   2.737   9.004 -2.2872 -1.8482  0.8171
  810MOL0     H 9322   7.640   2.570   8.963  4.2192 -0.7063  0.1421
  810MOL0     H 9323   7.663   2.580   8.781  2.9167 -0.2585  0.1648
  810MOL0     H 9324   7.431   2.620   8.870  0.2941 -1.2452 -1.7526
  810MOL0     H 9325   7.498   2.764   8.954  1.8810 -2.0834  1.1078
  810MOL0     H 9326   7.522   2.732   8.656  1.9943 -1.0968  0.9458
  810MOL0     H 9327   7.544   2.879   8.754 -1.6628  0.9663 -2.4810
  810MOL0     H 9328   7.343   2.874   8.627 -3.0723  0.7425  0.2718
  810MOL0     H 9329   7.267   2.746   8.713 -0.9808  1.1311 -0.7895
  810MOL0     H 9330   8.191   2.410   8.494  1.2565 -2.7580 -2.1253
  810MOL0     H 9331   8.406   2.286   8.449 -2.4406  1.6332 -1.4631
  810MOL0     H 9332   8.759   2.073   8.494  1.4096  1.1254  0.6794
  810MOL0     H 9333   8.923   1.932   8.445  0.5984  1.0572 -0.3275
  810MOL0     H 9334  10.064   0.749   8.115  1.9373 -2.2289 -0.9088
  810MOL0     H 9335  10.261   0.740   7.984  0.6472 -0.3303  1.1482
  810MOL0     H 9336  10.780   0.885   7.996  0.5080  1.4790 -0.0517
  810MOL0     H 9337  10.989   0.892   7.856  0.0204 -1.3476 -0.1789
  810MOL0     H 9338  11.086   1.103   7.507 -0.9100 -0.4497  0.0175
  810MOL0     H 9339  10.914   1.137   7.538 -0.1575 -0.0424  1.9992
  810MOL0     H 9340  10.855   0.992   7.351  0.2552 -1.8108 -0.3718
  810MOL0     H 9341  11.016   0.916   7.369 -2.1878 -1.1871  2.7397
  810MOL0     H 9342  11.004   1.059   7.163  0.1115 -1.1184  0.6010
  810MOL0     H 9343  11.087   1.150   7.288 -0.0519 -1.5888  1.5502
  810MOL0     H 9344  10.778   1.174   7.249  0.2826  0.8058 -0.5224
  810MOL0     H 9345  10.880   1.287   7.323 -1.9662  1.2402 -0.6002
  810MOL0     H 9346  10.917   1.349   6.898 -3.1525  3.8333  0.0812
  810MOL0     H 9347  10.737   0.916   7.520  0.6721 -0.8287  0.0961
  810MOL0     H 9348  10.419   0.895   7.711 -0.8610  1.7804 -1.2004
  810MOL0     H 9349  10.481   1.004   7.594  2.1560  1.4046  0.9695
  810MOL0     H 9350  10.488   0.826   7.560 -2.0061  0.8278  0.0321
  811MOL0     O 9351   0.465  11.389   0.017 -0.2190  0.4924  0.2647
  811MOL0     C 9352   0.362  11.426   0.074 -0.5140  0.5010  0.0948
  811MOL0     O 9353   0.226  11.379   0.045 -0.4986 -0.1566  0.4998
  811MOL0     C 9354   0.195  11.285  -0.049 -0.1348  0.3381  0.6676
  811MOL0     C 9355   0.142  11.161  -0.009 -0.3147 -0.5767  0.0939
  811MOL0     C 9356   0.107  11.055  -0.097  0.2658  0.2226 -0.7577
  811MOL0     C 9357   0.124  11.070  -0.233 -0.0600 -0.1891 -1.1313
  811MOL0     O 9358   0.097  10.965  -0.310  0.4942 -0.1219  0.1205
  811MOL0     C 9359   0.204  10.873  -0.316  0.2475  1.0086  0.2609
  811MOL0     C 9360   0.137  10.737  -0.320  1.4955  0.4960  1.3007
  811MOL0     C 9361   0.247  10.629  -0.303 -0.3920 -0.7870  0.6460
  811MOL0     C 9362   0.196  10.486  -0.333  0.3850 -0.4260 -0.2124
  811MOL0     C 9363   0.301  10.388  -0.284  0.8525 -0.0431  0.1883
  811MOL0     C 9364   0.402  10.359  -0.387 -0.1164 -0.6297  0.9330
  811MOL0     C 9365   0.502  10.253  -0.335 -0.0280  0.4844  0.2977
  811MOL0     C 9366   0.614  10.232  -0.440 -0.6553 -0.0701 -0.1134
  811MOL0     N 9367   0.581  10.173  -0.567  0.6741  0.2460 -0.0639
  811MOL0     C 9368   0.538  10.042  -0.577  0.1953 -0.7542  0.5532
  811MOL0     C 9369   0.464  10.035  -0.692 -0.5466  0.3094  0.6271
  811MOL0     C 9370   0.399   9.906  -0.744 -0.3531  0.4108  0.8197
  811MOL0     C 9371   0.350   9.919  -0.892 -0.6898 -0.2415 -0.9196
  811MOL0     C 9372   0.451   9.966  -1.003  0.9610 -0.2769  0.1547
  811MOL0     C 9373   0.579   9.883  -0.997 -0.4197  0.0429  0.0637
  811MOL0     O 9374   0.653   9.876  -1.123 -0.2557 -0.0812 -0.3244
  811MOL0     C 9375   0.697   9.995  -1.176 -0.4197 -0.3666  0.0988
  811MOL0     C 9376   0.701  10.006  -1.314 -0.3347  0.3220  0.0489
  811MOL0     C 9377   0.757  10.121  -1.379 -0.1378  0.7642 -0.5242
  811MOL0     C 9378   0.806  10.229  -1.305 -0.3973  0.1042  0.2562
  811MOL0     C 9379   0.869  10.353  -1.366 -0.1981 -0.3279  1.0614
  811MOL0     O 9380   0.877  10.353  -1.505  0.6632 -0.7032 -0.7939
  811MOL0     C 9381   0.868  10.460  -1.591  0.6598 -0.3232 -0.9749
  811MOL0     C 9382   0.822  10.594  -1.556  0.7578  0.9903  0.3594
  811MOL0     C 9383   0.791  10.685  -1.661  0.1553  0.5604  0.1274
  811MOL0     C 9384   0.821  10.653  -1.792  0.9474 -0.3824  0.9154
  811MOL0     O 9385   0.792  10.744  -1.886 -0.5948 -0.1790 -0.7927
  811MOL0     C 9386   0.899  10.782  -1.972  0.4903 -0.4106 -0.7553
  811MOL0     C 9387   0.861  10.867  -2.096  0.8108 -0.1685 -0.1368
  811MOL0     C 9388   0.978  10.894  -2.186  0.2079  0.1594  0.5887
  811MOL0     C 9389   0.916  10.949  -2.312 -0.0666 -0.2196 -0.4422
  811MOL0     C 9390   1.022  11.028  -2.403 -0.2946 -0.4504  0.2514
  811MOL0     C 9391   1.138  10.951  -2.469 -0.2204 -0.0643 -0.5923
  811MOL0     C 9392   1.234  11.047  -2.531 -0.6497  0.4547  1.3201
  811MOL0     C 9393   1.321  10.973  -2.647 -0.3080 -0.6321 -0.7362
  811MOL0    Cl 9394   1.396  11.095  -2.751  0.5294 -0.2018 -0.2074
  811MOL0     C 9395   0.872  10.525  -1.832 -0.6822 -0.4261 -0.8870
  811MOL0     C 9396   0.890  10.432  -1.727 -0.8914 -0.0686 -1.1747
  811MOL0     O 9397   0.888  10.448  -1.296 -0.5193  0.2544  1.0121
  811MOL0     C 9398   0.767  10.226  -1.167 -0.4760  0.7844 -0.0216
  811MOL0     C 9399   0.725  10.112  -1.103  1.2140  0.3704  0.3186
  811MOL0     N 9400   0.471  10.159  -0.759 -0.9519  0.3521 -0.5466
  811MOL0     N 9401   0.539  10.231  -0.680  0.1527 -0.2689 -0.3498
  811MOL0     C 9402   0.180  11.191  -0.285  0.3096  0.1238  0.0246
  811MOL0     C 9403   0.219  11.296  -0.195  0.8940 -0.2569 -0.5872
  811MOL0     C 9404   0.384  11.513   0.190 -1.1709 -0.2362  0.1733
  811MOL0     C 9405   0.307  11.498   0.298 -0.2649  0.1129  0.4788
  811MOL0     C 9406   0.326  11.572   0.410  0.8662 -0.7038  0.5355
  811MOL0     C 9407   0.410  11.682   0.415 -0.0317 -0.7859  0.2503
  811MOL0     O 9408   0.436  11.761   0.527  0.0028 -0.0081 -0.1450
  811MOL0     C 9409   0.376  11.725   0.660 -0.3362 -0.0288 -0.7619
  811MOL0     C 9410   0.401  11.846   0.758  0.5227 -0.3857  0.0987
  811MOL0     C 9411   0.554  11.877   0.779 -0.5558  1.2044 -0.6509
  811MOL0     C 9412   0.606  12.008   0.723 -1.1378  1.0888 -0.1677
  811MOL0     C 9413   0.522  12.122   0.767 -0.2347 -0.2366  1.2611
  811MOL0     C 9414   0.465  12.221   0.808  0.2432 -0.2854 -0.9159
  811MOL0     C 9415   0.474  11.714   0.299  0.2191 -0.3059 -0.0162
  811MOL0     C 9416   0.463  11.633   0.185 -0.3146 -0.9232  0.4480
  811MOL0     C 9417   0.550  11.674   0.066 -0.0098 -0.0734  0.2742
  811MOL0     H 9418   0.125  11.147   0.098  2.7681  1.0386  0.9186
  811MOL0     H 9419   0.066  10.965  -0.054 -1.8249  1.7954  0.7669
  811MOL0     H 9420   0.264  10.882  -0.407  4.8809 -2.0062  2.6281
  811MOL0     H 9421   0.284  10.871  -0.242  0.5925  2.1366 -0.0574
  811MOL0     H 9422   0.083  10.740  -0.415 -0.4352  1.8511  2.3711
  811MOL0     H 9423   0.066  10.724  -0.238 -0.7494  2.5833 -0.1788
  811MOL0     H 9424   0.291  10.642  -0.204 -2.3033  2.5813  1.2247
  811MOL0     H 9425   0.315  10.651  -0.386 -0.6880 -2.2950 -0.0285
  811MOL0     H 9426   0.102  10.461  -0.284  0.7423 -4.4132 -1.2064
  811MOL0     H 9427   0.188  10.473  -0.442 -0.7597 -1.5664 -0.0087
  811MOL0     H 9428   0.355  10.428  -0.198  2.0642 -2.5377  0.6759
  811MOL0     H 9429   0.257  10.291  -0.258 -2.5102  1.4857  0.8230
  811MOL0     H 9430   0.356  10.316  -0.477 -0.6820  1.4929  0.1441
  811MOL0     H 9431   0.467  10.444  -0.412  0.8306 -1.9681 -1.4852
  811MOL0     H 9432   0.448  10.158  -0.325  0.7297  0.2210  2.2262
  811MOL0     H 9433   0.534  10.283  -0.234 -0.3048 -4.0532  1.9522
  811MOL0     H 9434   0.672  10.323  -0.456  1.3786 -1.2407  0.2511
  811MOL0     H 9435   0.688  10.157  -0.409 -1.2483 -1.9231 -2.8800
  811MOL0     H 9436   0.564   9.960  -0.511  0.6840 -0.9978  0.0671
  811MOL0     H 9437   0.474   9.827  -0.746 -0.6839  0.0991  0.5860
  811MOL0     H 9438   0.331   9.885  -0.662 -1.1853  2.5415  0.7379
  811MOL0     H 9439   0.297   9.833  -0.933 -3.5384  0.5008  0.9413
  811MOL0     H 9440   0.276   9.999  -0.881  2.7485  2.9759  1.4767
  811MOL0     H 9441   0.477  10.072  -0.993 -1.5492  0.4449 -0.2434
  811MOL0     H 9442   0.408   9.958  -1.104 -1.8356 -0.4250  1.2816
  811MOL0     H 9443   0.562   9.777  -0.973  1.8748 -0.0898  1.3911
  811MOL0     H 9444   0.637   9.902  -0.907 -0.8978  1.4970  0.0899
  811MOL0     H 9445   0.663   9.926  -1.377 -0.9786 -0.0666  0.8935
  811MOL0     H 9446   0.747  10.134  -1.486 -1.5904  1.3800 -0.3315
  811MOL0     H 9447   0.794  10.613  -1.453  3.6605 -0.5108  1.5445
  811MOL0     H 9448   0.748  10.784  -1.652 -1.0224  0.9057 -5.4523
  811MOL0     H 9449   0.969  10.846  -1.917 -1.6597 -0.2719  2.0512
  811MOL0     H 9450   0.963  10.699  -2.005  2.0629  0.0355  0.9997
  811MOL0     H 9451   0.782  10.814  -2.150  0.3558 -0.2416  0.5833
  811MOL0     H 9452   0.815  10.955  -2.051  1.8689  1.1626 -1.5842
  811MOL0     H 9453   1.038  10.977  -2.149  0.7764 -0.4512  1.0653
  811MOL0     H 9454   1.042  10.810  -2.217  2.5708  2.3807 -0.9410
  811MOL0     H 9455   0.832  11.014  -2.283 -0.1049 -0.4814  0.0320
  811MOL0     H 9456   0.886  10.866  -2.377 -1.3504  0.1474 -0.3507
  811MOL0     H 9457   1.052  11.125  -2.363 -1.0673 -0.8596  1.9239
  811MOL0     H 9458   0.947  11.051  -2.480  0.6905 -2.1184 -1.2633
  811MOL0     H 9459   1.178  10.889  -2.389 -1.3505 -0.4189 -0.2794
  811MOL0     H 9460   1.097  10.877  -2.539 -1.4520 -1.5126  1.5227
  811MOL0     H 9461   1.304  11.099  -2.465  0.8016 -0.8542  0.8459
  811MOL0     H 9462   1.174  11.126  -2.578  0.1262  1.5352  2.0858
  811MOL0     H 9463   1.396  10.902  -2.612 -0.6403 -2.1253 -2.8367
  811MOL0     H 9464   1.247  10.921  -2.709  0.6167 -1.9560 -0.7795
  811MOL0     H 9465   0.899  10.493  -1.932  3.9021 -0.0623  0.0157
  811MOL0     H 9466   0.935  10.337  -1.752 -1.6628 -0.8660  0.3604
  811MOL0     H 9467   0.797  10.311  -1.106  1.4289 -0.0445  0.2928
  811MOL0     H 9468   0.706  10.111  -0.996  1.1214  0.4680  0.3035
  811MOL0     H 9469   0.188  11.195  -0.393  1.2058 -2.3037 -0.0649
  811MOL0     H 9470   0.248  11.387  -0.247 -3.5140  0.3460 -2.4342
  811MOL0     H 9471   0.229  11.423   0.287 -1.0266  0.8459  0.7879
  811MOL0     H 9472   0.259  11.543   0.490 -0.6507  0.2298 -0.3314
  811MOL0     H 9473   0.416  11.632   0.700  0.1856  0.5489  0.1103
  811MOL0     H 9474   0.268  11.710   0.652 -0.5490 -0.5622  2.0054
  811MOL0     H 9475   0.360  11.808   0.852  1.3646 -2.3680 -0.2857
  811MOL0     H 9476   0.349  11.937   0.725  2.7329  0.6731 -0.6701
  811MOL0     H 9477   0.619  11.793   0.750  0.2919  0.4285  3.0340
  811MOL0     H 9478   0.577  11.880   0.886  1.5809 -1.9276 -0.8678
  811MOL0     H 9479   0.711  12.023   0.748 -1.0408  0.9518 -0.4842
  811MOL0     H 9480   0.605  12.005   0.613 -1.2931 -1.5406 -0.1745
  811MOL0     H 9481   0.418  12.316   0.823 -1.5127 -0.8958 -2.2332
  811MOL0     H 9482   0.534  11.804   0.306 -1.6791  0.9632  0.6939
  811MOL0     H 9483   0.622  11.752   0.095 -1.8559  0.9951  2.3586
  811MOL0     H 9484   0.609  11.589   0.032 -0.3759 -0.5436  0.7943
  811MOL0     H 9485   0.496  11.717  -0.019  0.3009  0.7947  0.4971
  812MOL0     O 9486   0.528  10.388   0.827 -0.2332 -0.5933  0.4178
  812MOL0     C 9487   0.520  10.313   0.731 -0.1893  0.7178 -0.1955
  812MOL0     O 9488   0.439  10.335   0.621  0.2177 -0.8977  0.3838
  812MOL0     C 9489   0.347  10.446   0.631 -0.5875  0.7381  0.2541
  812MOL0     C 9490   0.211  10.422   0.652  0.1480 -0.6734 -0.2358
  812MOL0     C 9491   0.128  10.536   0.670 -0.6159  0.1606 -0.0439
  812MOL0     C 9492   0.173  10.666   0.677 -0.5667  0.2817  0.2829
  812MOL0     O 9493   0.089  10.772   0.714  0.9053  0.2340 -0.6118
  812MOL0     C 9494   0.107  10.906   0.668  0.3730 -1.1695  0.0752
  812MOL0     C 9495   0.105  10.996   0.793  0.2401 -0.3595  0.7093
  812MOL0     C 9496   0.204  10.933   0.903 -0.1195  0.4590 -0.0297
  812MOL0     C 9497   0.262  11.051   0.981 -0.3612  0.1766  0.3954
  812MOL0     C 9498   0.156  11.130   1.068  0.2111 -0.2972  0.1396
  812MOL0     C 9499   0.180  11.283   1.062 -0.9873  0.1581 -0.6616
  812MOL0     C 9500   0.057  11.340   1.138 -0.3356  0.2114  0.5366
  812MOL0     C 9501   0.074  11.494   1.152  0.1181  0.1473 -0.4554
  812MOL0     N 9502  -0.037  11.574   1.229 -0.1017 -0.5823  0.1531
  812MOL0     C 9503  -0.039  11.710   1.263  0.4133  0.3794 -0.3373
  812MOL0     C 9504  -0.118  11.708   1.367 -1.3041  0.4536  0.8154
  812MOL0     C 9505  -0.141  11.843   1.415 -0.2566  0.5964  0.2823
  812MOL0     C 9506  -0.287  11.875   1.378 -0.4086  0.6002 -0.5992
  812MOL0     C 9507  -0.360  11.976   1.462 -0.3238  0.3186 -0.1565
  812MOL0     C 9508  -0.280  12.103   1.472 -0.1846  0.5723 -0.8370
  812MOL0     O 9509  -0.249  12.159   1.343 -0.6482 -0.0739  0.7260
  812MOL0     C 9510  -0.201  12.280   1.324  0.1200 -0.8433 -0.2527
  812MOL0     C 9511  -0.137  12.349   1.423  0.8579 -0.9436  1.0371
  812MOL0     C 9512  -0.067  12.470   1.395  0.7024 -0.0850  0.3318
  812MOL0     C 9513  -0.063  12.518   1.265 -0.5036 -0.3796  0.4558
  812MOL0     C 9514   0.016  12.638   1.232 -0.9813  0.4426  0.0909
  812MOL0     O 9515   0.003  12.696   1.115  0.0553 -0.1535 -0.2425
  812MOL0     C 9516   0.051  12.826   1.084  0.6407 -0.0562  0.3823
  812MOL0     C 9517  -0.011  12.894   0.977  0.0963 -0.9638  0.4846
  812MOL0     C 9518   0.049  13.017   0.931  0.0899 -0.0965  0.0889
  812MOL0     C 9519   0.169  13.067   0.978 -0.6034  0.0790  0.0973
  812MOL0     O 9520   0.235  13.172   0.928  0.3626 -0.4848 -0.4701
  812MOL0     C 9521   0.229  13.211   0.786 -0.1293 -0.1774 -0.1293
  812MOL0     C 9522   0.277  13.110   0.682 -0.1521 -0.8196  0.3202
  812MOL0     C 9523   0.419  13.058   0.703  0.8168  0.3222  0.1257
  812MOL0     C 9524   0.470  12.979   0.585  1.3398  0.7018  0.6764
  812MOL0     C 9525   0.405  12.835   0.588 -0.4920  0.1187 -0.5166
  812MOL0     C 9526   0.399  12.768   0.449 -0.3421  0.3722  0.6847
  812MOL0     C 9527   0.327  12.635   0.454  0.2140 -0.8968  0.2656
  812MOL0     C 9528   0.419  12.526   0.501  0.7190 -0.2076  0.5517
  812MOL0    Cl 9529   0.556  12.485   0.397 -0.5184 -0.0278  0.4546
  812MOL0     C 9530   0.229  13.007   1.078 -1.0346  0.1164  0.4187
  812MOL0     C 9531   0.176  12.885   1.136  0.3789 -0.9174  0.6503
  812MOL0     O 9532   0.102  12.670   1.317  0.4832 -0.3149 -0.0599
  812MOL0     C 9533  -0.131  12.445   1.162 -0.5415  0.1377  0.0879
  812MOL0     C 9534  -0.199  12.331   1.195 -0.5572  0.8277  0.0166
  812MOL0     N 9535  -0.165  11.587   1.406  0.1528  0.0037  0.0806
  812MOL0     N 9536  -0.118  11.502   1.313 -0.3840 -0.2715  0.2313
  812MOL0     C 9537   0.314  10.683   0.647  0.2316 -0.1068  0.2695
  812MOL0     C 9538   0.402  10.574   0.623 -0.9389  0.2289 -0.8503
  812MOL0     C 9539   0.609  10.189   0.723 -1.1859 -0.4544 -0.1228
  812MOL0     C 9540   0.645  10.149   0.603 -0.0399 -0.7883  0.4456
  812MOL0     C 9541   0.734  10.047   0.568  0.5109  1.2289  0.5949
  812MOL0     C 9542   0.797   9.981   0.664 -1.1284 -0.1735  0.3459
  812MOL0     O 9543   0.898   9.889   0.645 -0.3037  0.1204 -0.4248
  812MOL0     C 9544   0.851   9.756   0.661 -1.0287  1.6877  0.2163
  812MOL0     C 9545   0.974   9.665   0.677  0.1216 -0.9095 -0.2311
  812MOL0     C 9546   1.069   9.669   0.559  0.5015  0.0560  0.1229
  812MOL0     C 9547   1.024   9.616   0.428 -0.5839 -0.2750  0.0212
  812MOL0     C 9548   1.132   9.579   0.335 -0.2834  0.5264 -0.4027
  812MOL0     C 9549   1.229   9.560   0.263 -0.7688 -0.5407  0.6932
  812MOL0     C 9550   0.770  10.020   0.794  0.4763  0.1455  0.0321
  812MOL0     C 9551   0.676  10.118   0.830  0.0079  0.6488  0.1592
  812MOL0     C 9552   0.654  10.151   0.980 -0.1527 -0.5301  0.4918
  812MOL0     H 9553   0.170  10.322   0.657  1.5741 -1.2601  0.3493
  812MOL0     H 9554   0.023  10.519   0.693 -0.0628 -3.4068  0.3824
  812MOL0     H 9555   0.202  10.918   0.616  1.3898 -1.2230  1.8586
  812MOL0     H 9556   0.027  10.941   0.601  2.1024  1.8691 -0.5985
  812MOL0     H 9557   0.002  10.996   0.829 -0.0255  1.7294  0.0485
  812MOL0     H 9558   0.133  11.095   0.755 -0.7581 -0.0109  0.8510
  812MOL0     H 9559   0.287  10.878   0.857  1.9101  0.8780  2.8951
  812MOL0     H 9560   0.150  10.864   0.969  2.0855 -0.1001  1.3043
  812MOL0     H 9561   0.343  11.028   1.051 -0.6005 -0.9581  0.3231
  812MOL0     H 9562   0.307  11.121   0.911  0.2328 -0.0178  0.5791
  812MOL0     H 9563   0.057  11.100   1.033  0.6987  0.1101 -1.6876
  812MOL0     H 9564   0.168  11.110   1.175 -0.1351  3.4094  1.0374
  812MOL0     H 9565   0.269  11.315   1.118  0.3713 -1.1700 -1.9412
  812MOL0     H 9566   0.174  11.324   0.961 -1.3068 -0.8869 -1.0890
  812MOL0     H 9567   0.046  11.298   1.238 -2.8495  2.0921  1.1474
  812MOL0     H 9568  -0.034  11.325   1.079 -0.0761  1.9982 -0.3968
  812MOL0     H 9569   0.167  11.512   1.206 -0.3251  1.6654 -0.1283
  812MOL0     H 9570   0.087  11.537   1.052  0.7771 -5.2418 -3.0350
  812MOL0     H 9571   0.021  11.792   1.224  1.8730  0.8707  2.6937
  812MOL0     H 9572  -0.136  11.840   1.524 -0.9897  0.7507  0.3248
  812MOL0     H 9573  -0.071  11.917   1.375 -1.9641  0.9588 -2.2326
  812MOL0     H 9574  -0.284  11.911   1.275  4.9661  0.2602 -0.8290
  812MOL0     H 9575  -0.350  11.786   1.370 -1.6252  1.2064  1.3958
  812MOL0     H 9576  -0.387  11.940   1.562  1.6782 -2.8911 -0.6350
  812MOL0     H 9577  -0.454  12.001   1.413 -0.0511  2.2414  0.2235
  812MOL0     H 9578  -0.195  12.079   1.536 -2.4649 -1.0452  1.8119
  812MOL0     H 9579  -0.341  12.172   1.530  1.7915 -0.4609  2.7931
  812MOL0     H 9580  -0.159  12.321   1.526 -3.2942  2.5121  1.3694
  812MOL0     H 9581  -0.005  12.510   1.474  2.5499 -2.3802  0.1676
  812MOL0     H 9582  -0.110  12.870   0.939 -1.0283  0.3718  2.4240
  812MOL0     H 9583   0.001  13.068   0.848  1.1081 -1.7568 -1.5837
  812MOL0     H 9584   0.130  13.247   0.755  0.0888  0.9898  0.4721
  812MOL0     H 9585   0.302  13.291   0.778 -1.2520  0.8590 -0.3891
  812MOL0     H 9586   0.194  13.039   0.692 -1.6220  0.7447 -0.2295
  812MOL0     H 9587   0.274  13.155   0.582  1.3135 -2.3149 -0.4387
  812MOL0     H 9588   0.482  13.147   0.713 -1.1985  1.5913  2.8295
  812MOL0     H 9589   0.421  12.991   0.790 -1.5558  0.9080  0.7322
  812MOL0     H 9590   0.575  12.955   0.607  0.3868 -2.7337  2.1541
  812MOL0     H 9591   0.454  13.025   0.488  0.7337 -4.0003 -1.7504
  812MOL0     H 9592   0.300  12.838   0.616 -0.2650 -2.3104  0.8392
  812MOL0     H 9593   0.462  12.774   0.659 -1.8655  0.8327  1.2580
  812MOL0     H 9594   0.339  12.822   0.375  0.2433 -1.8044 -1.5202
  812MOL0     H 9595   0.496  12.754   0.400 -2.3590 -2.2407 -3.0834
  812MOL0     H 9596   0.284  12.609   0.356  1.0327  2.0197 -0.9723
  812MOL0     H 9597   0.242  12.640   0.522 -0.7542 -0.3378 -0.9332
  812MOL0     H 9598   0.472  12.565   0.589 -2.0893  3.4314  0.8626
  812MOL0     H 9599   0.361  12.437   0.526 -2.3129  2.3516  3.5284
  812MOL0     H 9600   0.331  13.039   1.101 -0.1371  0.7936 -3.6882
  812MOL0     H 9601   0.223  12.841   1.223 -0.4308 -1.0208  1.0400
  812MOL0     H 9602  -0.111  12.483   1.063  1.6073  3.0270  1.4575
  812MOL0     H 9603  -0.254  12.273   1.121 -0.2884 -0.6419  0.9382
  812MOL0     H 9604   0.361  10.781   0.642 -2.2514  1.2153  0.9069
  812MOL0     H 9605   0.507  10.578   0.596 -1.2981 -0.7651 -2.5656
  812MOL0     H 9606   0.592  10.171   0.510 -3.5404  0.8290  2.5829
  812MOL0     H 9607   0.728  10.013   0.465 -3.0320 -1.5044  1.4771
  812MOL0     H 9608   0.795   9.729   0.570 -1.1692  1.9000  0.2390
  812MOL0     H 9609   0.773   9.744   0.737  0.0361  1.2018  1.2599
  812MOL0     H 9610   0.946   9.560   0.681 -2.6536 -0.2290  0.7565
  812MOL0     H 9611   1.012   9.696   0.775  1.6554  1.6607 -1.5376
  812MOL0     H 9612   1.144   9.596   0.592 -0.0335 -0.9077 -0.7488
  812MOL0     H 9613   1.116   9.767   0.551  2.9267 -1.0482  0.0269
  812MOL0     H 9614   0.969   9.525   0.453 -0.6875 -0.9193 -2.2772
  812MOL0     H 9615   0.961   9.686   0.373 -0.7792 -0.1711  0.3744
  812MOL0     H 9616   1.312   9.555   0.194 -2.0607 -0.1826 -0.9465
  812MOL0     H 9617   0.838   9.965   0.860  3.0733 -3.3408 -4.8947
  812MOL0     H 9618   0.694  10.250   1.006  0.7042 -0.5542 -0.6490
  812MOL0     H 9619   0.549  10.139   1.009 -0.6540  0.6505 -0.7257
  812MOL0     H 9620   0.699  10.072   1.040 -1.3865 -1.0050  0.8173
  813MOL0     O 9621   4.429   4.968   8.725 -0.0386 -0.1137  0.0659
  813MOL0     C 9622   4.360   5.052   8.675 -0.6419 -0.1434 -1.2652
  813MOL0     O 9623   4.409   5.140   8.586  0.1479 -0.3669 -0.1269
  813MOL0     C 9624   4.529   5.126   8.514  0.1098  0.1636 -0.3771
  813MOL0     C 9625   4.591   5.002   8.495  0.3930 -0.3723 -0.0659
  813MOL0     C 9626   4.695   4.994   8.399  0.1748 -0.3731  1.2239
  813MOL0     C 9627   4.735   5.103   8.326  0.4631 -0.6840  0.0663
  813MOL0     O 9628   4.830   5.094   8.229  0.2511 -0.9120 -0.6022
  813MOL0     C 9629   4.882   4.971   8.196 -0.2838  0.0948  0.5018
  813MOL0     C 9630   5.000   4.976   8.092  0.2888 -1.1528  0.0149
  813MOL0     C 9631   5.074   4.846   8.057 -0.2816  0.3179 -0.7884
  813MOL0     C 9632   5.146   4.845   7.923  0.0692 -0.2935 -0.5077
  813MOL0     C 9633   5.056   4.849   7.797 -0.8578  0.4608 -0.0867
  813MOL0     C 9634   5.142   4.865   7.676 -0.1665  0.9922 -0.1556
  813MOL0     C 9635   5.086   4.955   7.567  0.2098  0.4474 -0.8230
  813MOL0     C 9636   5.072   5.100   7.603 -0.0394 -0.2142 -0.1051
  813MOL0     N 9637   5.017   5.180   7.494 -0.0209 -0.1843 -0.4694
  813MOL0     C 9638   4.895   5.165   7.433  0.3212 -0.0468 -0.1850
  813MOL0     C 9639   4.889   5.264   7.343  0.0751 -0.7171 -0.0241
  813MOL0     C 9640   4.768   5.286   7.257  0.1700  0.6417  0.1075
  813MOL0     C 9641   4.743   5.423   7.193 -0.6290  0.2875  0.0566
  813MOL0     C 9642   4.599   5.426   7.125 -0.6518  0.8536 -0.3297
  813MOL0     C 9643   4.584   5.568   7.073 -0.1979  0.4983 -0.1822
  813MOL0     O 9644   4.472   5.576   6.987  0.4110  0.7832 -0.3687
  813MOL0     C 9645   4.350   5.611   7.045 -0.4719  0.7846  0.6724
  813MOL0     C 9646   4.243   5.662   6.962 -0.1287  0.4204 -0.8467
  813MOL0     C 9647   4.122   5.706   7.015 -0.6877  0.3774  0.3801
  813MOL0     C 9648   4.100   5.717   7.153 -0.2976  0.6496 -0.9696
  813MOL0     C 9649   3.976   5.783   7.193  0.2952  0.0463 -0.6287
  813MOL0     O 9650   3.933   5.880   7.102 -0.2714 -0.4030 -0.3378
  813MOL0     C 9651   3.819   5.955   7.133 -0.6036 -0.1816  1.0431
  813MOL0     C 9652   3.804   6.082   7.084  0.1209 -0.1921 -0.5991
  813MOL0     C 9653   3.681   6.157   7.085  0.1410 -0.3378  0.6698
  813MOL0     C 9654   3.570   6.105   7.150  0.2823 -0.4943  0.0259
  813MOL0     O 9655   3.451   6.184   7.150  0.0174  0.2664 -0.5438
  813MOL0     C 9656   3.358   6.147   7.251 -0.7107  0.7441 -0.5475
  813MOL0     C 9657   3.243   6.240   7.262 -0.4113  0.4389 -0.3290
  813MOL0     C 9658   3.146   6.214   7.142 -0.2040 -0.7502 -0.4577
  813MOL0     C 9659   3.043   6.321   7.158 -0.4057  0.3218  0.4093
  813MOL0     C 9660   2.958   6.331   7.036 -0.2635 -1.0293 -0.6400
  813MOL0     C 9661   2.855   6.225   7.015  0.4188 -0.6205  0.0871
  813MOL0     C 9662   2.771   6.268   6.900  0.2681  0.0638  0.4035
  813MOL0     C 9663   2.683   6.143   6.860 -0.0002 -0.4406  0.4973
  813MOL0    Cl 9664   2.565   6.169   6.724 -0.0583  0.1844 -0.1461
  813MOL0     C 9665   3.576   5.976   7.195 -0.5860 -0.6276  0.3587
  813MOL0     C 9666   3.701   5.910   7.179 -0.9949  1.1851  0.2571
  813MOL0     O 9667   3.920   5.744   7.296 -0.6344 -0.1871 -0.3293
  813MOL0     C 9668   4.193   5.658   7.237 -0.2465 -0.2355 -0.2105
  813MOL0     C 9669   4.320   5.610   7.183 -0.4316  0.3822  0.1683
  813MOL0     N 9670   5.009   5.333   7.347  0.4285  0.4494  0.0249
  813MOL0     N 9671   5.087   5.278   7.438  0.5969  0.1004 -0.5623
  813MOL0     C 9672   4.670   5.227   8.345  0.0404  0.4465 -0.1742
  813MOL0     C 9673   4.565   5.237   8.443  0.0572  0.1986  0.2194
  813MOL0     C 9674   4.219   5.050   8.719  1.2657  1.1395  0.0942
  813MOL0     C 9675   4.145   5.153   8.659  0.0380 -0.0873  0.3003
  813MOL0     C 9676   4.006   5.161   8.659 -0.6885 -0.5061  0.6117
  813MOL0     C 9677   3.934   5.060   8.728  0.1863 -0.0929  0.4912
  813MOL0     O 9678   3.798   5.055   8.738 -0.7304 -0.4696 -0.7712
  813MOL0     C 9679   3.718   5.175   8.713  0.4812 -0.1518  0.4777
  813MOL0     C 9680   3.600   5.164   8.797 -0.3414  0.1655 -0.0842
  813MOL0     C 9681   3.514   5.286   8.762 -0.5583 -0.9999 -0.4821
  813MOL0     C 9682   3.366   5.276   8.814  0.9631 -0.6877  0.4231
  813MOL0     C 9683   3.374   5.262   8.963  0.0292 -0.0724 -0.2635
  813MOL0     C 9684   3.382   5.254   9.087 -1.2913 -0.7254  0.3202
  813MOL0     C 9685   4.007   4.966   8.797 -0.5381 -0.3811 -0.1207
  813MOL0     C 9686   4.146   4.956   8.796 -0.2447 -0.1534  0.0799
  813MOL0     C 9687   4.220   4.857   8.884  0.4403 -0.3847  0.9833
  813MOL0     H 9688   4.561   4.909   8.541 -0.6618  0.7165  1.5747
  813MOL0     H 9689   4.735   4.894   8.380 -2.6603 -1.0957 -1.9633
  813MOL0     H 9690   4.919   4.915   8.282  2.3212 -2.1546 -1.8525
  813MOL0     H 9691   4.808   4.913   8.141  0.8319 -1.5320  0.6610
  813MOL0     H 9692   5.076   5.040   8.137 -1.1139  0.6490 -0.0367
  813MOL0     H 9693   4.965   5.025   8.000  0.9297 -1.5629 -0.4585
  813MOL0     H 9694   4.997   4.770   8.070  0.7263 -0.7291 -0.8312
  813MOL0     H 9695   5.151   4.825   8.132 -0.5948 -3.6285 -1.3698
  813MOL0     H 9696   5.218   4.928   7.914  0.1772 -0.3706 -0.3604
  813MOL0     H 9697   5.216   4.761   7.922  0.5246  0.0473  0.8460
  813MOL0     H 9698   5.003   4.754   7.792  2.3012 -1.3533 -1.8932
  813MOL0     H 9699   4.987   4.933   7.808  1.9588  3.1313 -1.3297
  813MOL0     H 9700   5.245   4.897   7.693 -0.7070  3.5469 -1.1766
  813MOL0     H 9701   5.157   4.766   7.630 -1.0383  1.5074 -1.6373
  813MOL0     H 9702   4.986   4.915   7.549 -0.3939  2.5548 -2.5430
  813MOL0     H 9703   5.147   4.939   7.478  2.4811 -0.0438  0.7369
  813MOL0     H 9704   5.007   5.114   7.690  3.3394 -1.5234  2.8833
  813MOL0     H 9705   5.168   5.141   7.637 -1.4969  3.8920 -0.3310
  813MOL0     H 9706   4.825   5.087   7.462 -0.5046  1.0243  0.7378
  813MOL0     H 9707   4.753   5.205   7.185 -0.8439  1.6320 -0.8443
  813MOL0     H 9708   4.688   5.269   7.329  0.2787  0.2571  0.1375
  813MOL0     H 9709   4.744   5.491   7.279  1.1526  0.6738 -0.2484
  813MOL0     H 9710   4.830   5.439   7.130 -0.3947 -0.9376  0.0553
  813MOL0     H 9711   4.527   5.392   7.199  0.6507  2.6542  1.9027
  813MOL0     H 9712   4.601   5.357   7.040 -0.2804  0.1070  0.2703
  813MOL0     H 9713   4.665   5.581   7.000  1.3772 -2.0046  0.9753
  813MOL0     H 9714   4.590   5.639   7.156  2.1023  1.3397 -0.9682
  813MOL0     H 9715   4.258   5.672   6.855 -1.2156 -0.9395 -1.1625
  813MOL0     H 9716   4.053   5.728   6.934  0.8919 -0.5105 -1.2604
  813MOL0     H 9717   3.885   6.126   7.027 -0.8828  4.3356  1.0150
  813MOL0     H 9718   3.675   6.254   7.037  2.8558  0.0878  1.0716
  813MOL0     H 9719   3.328   6.042   7.247  1.4393 -0.1177  2.5589
  813MOL0     H 9720   3.409   6.156   7.347  2.7856  0.2391 -2.2059
  813MOL0     H 9721   3.187   6.210   7.351  1.9274 -1.9449  0.4835
  813MOL0     H 9722   3.288   6.340   7.268 -1.3321  0.8101  0.7055
  813MOL0     H 9723   3.200   6.232   7.049 -1.1946  0.4016 -0.8411
  813MOL0     H 9724   3.107   6.114   7.165  1.0927 -0.4027  4.3411
  813MOL0     H 9725   3.099   6.415   7.163 -2.5240  1.6923 -0.1440
  813MOL0     H 9726   2.988   6.305   7.251  2.2214 -0.9357  1.8532
  813MOL0     H 9727   3.022   6.340   6.947 -0.2131  0.6887 -0.4690
  813MOL0     H 9728   2.913   6.431   7.031 -0.4251 -1.0058  0.7889
  813MOL0     H 9729   2.899   6.126   7.005 -0.7090 -1.4986  2.7125
  813MOL0     H 9730   2.797   6.222   7.108 -0.6675 -1.4198 -0.5902
  813MOL0     H 9731   2.834   6.289   6.813 -1.4082 -1.9725 -1.3926
  813MOL0     H 9732   2.711   6.358   6.915  1.5986  1.0301  0.1824
  813MOL0     H 9733   2.751   6.062   6.834 -1.2452 -1.3193 -0.0634
  813MOL0     H 9734   2.616   6.117   6.943 -0.2273  1.1187  0.8375
  813MOL0     H 9735   3.492   5.918   7.232  0.7418 -2.2762  0.8922
  813MOL0     H 9736   3.704   5.808   7.215  0.6113  0.8216 -0.8364
  813MOL0     H 9737   4.167   5.646   7.342 -0.7007 -0.4503 -0.3448
  813MOL0     H 9738   4.390   5.580   7.261  0.6680  1.3102 -0.4342
  813MOL0     H 9739   4.693   5.311   8.281 -0.2401 -1.0461 -2.3348
  813MOL0     H 9740   4.506   5.327   8.459  1.6266  1.3212 -0.1290
  813MOL0     H 9741   4.198   5.239   8.617 -0.2876  1.3766  2.7318
  813MOL0     H 9742   3.948   5.237   8.610 -5.2863 -2.5379  2.3516
  813MOL0     H 9743   3.683   5.185   8.609 -1.1975  5.0447  1.2455
  813MOL0     H 9744   3.762   5.274   8.725 -0.5951  0.2415  1.3107
  813MOL0     H 9745   3.635   5.164   8.901  2.4720 -0.7383 -0.9379
  813MOL0     H 9746   3.554   5.069   8.768 -1.1251  0.9129 -1.3563
  813MOL0     H 9747   3.514   5.281   8.652  3.2731 -0.6240 -0.6554
  813MOL0     H 9748   3.553   5.384   8.791 -1.0738 -1.0832  0.5351
  813MOL0     H 9749   3.298   5.360   8.798 -0.8612 -2.2186 -0.2583
  813MOL0     H 9750   3.312   5.200   8.758  0.1553 -0.2603  0.6001
  813MOL0     H 9751   3.395   5.262   9.193 -0.5987  1.8892  0.1005
  813MOL0     H 9752   3.950   4.899   8.861  1.2229  1.3990  3.5705
  813MOL0     H 9753   4.265   4.896   8.975  2.4129 -3.6590  1.5684
  813MOL0     H 9754   4.160   4.769   8.911 -3.6656  1.7380 -0.3238
  813MOL0     H 9755   4.302   4.811   8.827  0.7554 -0.4777  1.5107
  814MOL0     O 9756  11.075   1.490   5.304 -0.3337  0.4401  0.1184
  814MOL0     C 9757  11.024   1.578   5.234 -1.3798  0.3083 -0.1527
  814MOL0     O 9758  11.020   1.584   5.101  0.0560 -0.9865 -0.1375
  814MOL0     C 9759  11.134   1.539   5.037  0.9280 -0.3607  0.6086
  814MOL0     C 9760  11.262   1.566   5.075 -0.4154 -0.4897 -0.2626
  814MOL0     C 9761  11.372   1.524   4.991  0.5852 -0.5359 -1.2826
  814MOL0     C 9762  11.343   1.457   4.870  0.4397  0.2119  0.1256
  814MOL0     O 9763  11.443   1.400   4.795 -0.4358 -0.3529 -0.0798
  814MOL0     C 9764  11.457   1.430   4.659 -0.3697  0.3034 -0.2910
  814MOL0     C 9765  11.582   1.521   4.661 -0.2280  0.8950 -0.6608
  814MOL0     C 9766  11.529   1.667   4.668 -0.3671 -0.0856  0.3030
  814MOL0     C 9767  11.647   1.769   4.644  0.5736  0.4797 -0.0770
  814MOL0     C 9768  11.620   1.921   4.651 -0.7694 -0.7208 -0.1522
  814MOL0     C 9769  11.759   1.989   4.691 -0.2001 -0.6744  0.3284
  814MOL0     C 9770  11.860   1.977   4.570 -0.2137 -0.9075  0.0744
  814MOL0     C 9771  11.994   2.064   4.581  0.5347 -0.8044  0.1981
  814MOL0     N 9772  12.102   2.026   4.497 -0.0837 -0.3444  0.0878
  814MOL0     C 9773  12.198   1.934   4.516 -0.0582  0.3896 -0.0190
  814MOL0     C 9774  12.282   1.942   4.412 -0.2851 -0.2298  0.7287
  814MOL0     C 9775  12.397   1.852   4.399 -0.0407  0.1181 -0.2913
  814MOL0     C 9776  12.521   1.942   4.430  0.1440  0.3385  0.7467
  814MOL0     C 9777  12.584   1.911   4.565  0.0839  0.1450  0.7849
  814MOL0     C 9778  12.505   1.966   4.684  0.6504 -0.6258 -0.9944
  814MOL0     O 9779  12.462   2.101   4.657  0.6661  0.9883  0.0831
  814MOL0     C 9780  12.379   2.157   4.758  0.7446 -0.3723  0.0184
  814MOL0     C 9781  12.356   2.096   4.880 -0.3951  0.3104  0.1319
  814MOL0     C 9782  12.263   2.148   4.969  0.1915  0.2308  0.5909
  814MOL0     C 9783  12.189   2.266   4.938 -0.5768 -0.0602  0.6438
  814MOL0     C 9784  12.079   2.309   5.029  1.5174  0.0924  0.0117
  814MOL0     O 9785  12.031   2.442   5.025 -0.0264  0.1514  0.1589
  814MOL0     C 9786  11.930   2.481   5.113  0.3217 -0.3053 -0.3421
  814MOL0     C 9787  11.930   2.448   5.250  0.0225  0.3472 -0.3082
  814MOL0     C 9788  11.839   2.506   5.337  0.6847 -0.1968 -0.4191
  814MOL0     C 9789  11.743   2.593   5.293  0.5155  0.6298  0.0996
  814MOL0     O 9790  11.650   2.633   5.386  0.0103  0.2884 -0.2688
  814MOL0     C 9791  11.532   2.681   5.324 -1.1847 -0.4187  0.7330
  814MOL0     C 9792  11.436   2.724   5.438 -0.3088  0.5521 -0.4183
  814MOL0     C 9793  11.382   2.601   5.505 -0.1714 -0.0742 -0.2604
  814MOL0     C 9794  11.309   2.642   5.623 -0.0718  0.1844 -1.6200
  814MOL0     C 9795  11.257   2.516   5.708 -0.6551  0.3277  0.7185
  814MOL0     C 9796  11.145   2.451   5.636  0.0617  0.3671 -0.2930
  814MOL0     C 9797  11.020   2.522   5.610  0.2082 -0.7187  0.6610
  814MOL0     C 9798  10.889   2.441   5.601 -0.2546 -0.8464 -0.2687
  814MOL0    Cl 9799  10.779   2.566   5.577 -0.1063  0.1285 -0.1274
  814MOL0     C 9800  11.740   2.624   5.156 -0.0089 -0.7259  0.2680
  814MOL0     C 9801  11.837   2.572   5.065  0.9992  0.1384  0.7493
  814MOL0     O 9802  12.041   2.232   5.112  1.6022  0.6266  0.0619
  814MOL0     C 9803  12.223   2.330   4.813 -0.0499  0.2035  0.3442
  814MOL0     C 9804  12.327   2.280   4.733  0.2927  0.1801 -0.4866
  814MOL0     N 9805  12.240   2.038   4.330  0.3492 -0.2256 -0.3560
  814MOL0     N 9806  12.134   2.094   4.383 -1.5239  1.3036 -0.3377
  814MOL0     C 9807  11.210   1.431   4.832 -0.1926 -0.5862  0.3483
  814MOL0     C 9808  11.108   1.466   4.915 -0.0200  0.1924 -0.5509
  814MOL0     C 9809  10.948   1.677   5.317  0.6789  0.4336  0.7931
  814MOL0     C 9810  10.999   1.690   5.449  0.2266 -0.3133 -0.3039
  814MOL0     C 9811  10.940   1.771   5.542  0.1080  0.5701 -0.8767
  814MOL0     C 9812  10.832   1.846   5.500 -0.3459 -0.1881 -0.0498
  814MOL0     O 9813  10.775   1.953   5.579 -0.6495 -0.1710  0.6286
  814MOL0     C 9814  10.828   1.969   5.715 -0.3460 -0.6089  0.5365
  814MOL0     C 9815  10.742   2.087   5.778 -0.6570  0.6088  0.3455
  814MOL0     C 9816  10.748   2.104   5.932 -0.3941 -1.0943  0.1899
  814MOL0     C 9817  10.877   2.168   5.984 -0.5703 -0.3897 -0.4651
  814MOL0     C 9818  10.991   2.076   5.972 -0.2547  0.4650 -0.4235
  814MOL0     C 9819  11.079   1.991   5.968 -0.4160 -0.7793  0.4383
  814MOL0     C 9820  10.781   1.825   5.373 -0.2960 -0.3115 -0.2327
  814MOL0     C 9821  10.839   1.748   5.275  0.1545 -0.3375 -0.8177
  814MOL0     C 9822  10.774   1.731   5.139  0.4734  0.1145  0.3572
  814MOL0     H 9823  11.285   1.626   5.163 -0.4374  0.0620 -0.6254
  814MOL0     H 9824  11.478   1.539   5.010  0.1063 -0.7884  2.2394
  814MOL0     H 9825  11.468   1.337   4.603 -2.8990 -0.0616 -0.2878
  814MOL0     H 9826  11.371   1.484   4.618 -0.0346  3.6461  2.8685
  814MOL0     H 9827  11.634   1.502   4.566  1.4620 -3.4404  0.8972
  814MOL0     H 9828  11.640   1.492   4.750 -2.2769  1.2383  0.8561
  814MOL0     H 9829  11.477   1.690   4.762  2.3484 -3.3818  2.8678
  814MOL0     H 9830  11.473   1.672   4.574  1.6833  3.0765 -0.9218
  814MOL0     H 9831  11.723   1.731   4.712  0.4611 -4.0126 -2.0776
  814MOL0     H 9832  11.670   1.742   4.540 -4.5575 -1.2992 -1.0918
  814MOL0     H 9833  11.574   1.973   4.566  1.2085 -0.5620 -1.1784
  814MOL0     H 9834  11.553   1.922   4.738 -4.5798 -2.9697 -2.8018
  814MOL0     H 9835  11.742   2.093   4.721 -0.9307 -0.5559 -0.4758
  814MOL0     H 9836  11.803   1.944   4.780  1.1332  1.0263  0.5694
  814MOL0     H 9837  11.807   1.996   4.476 -2.0717 -1.0965  1.0198
  814MOL0     H 9838  11.889   1.871   4.568  1.9361 -0.3680  0.3900
  814MOL0     H 9839  11.974   2.171   4.575 -0.6909 -1.0861 -1.4361
  814MOL0     H 9840  12.033   2.068   4.683  0.4944  1.9844  0.1751
  814MOL0     H 9841  12.216   1.871   4.602  1.5516 -0.2338 -0.7578
  814MOL0     H 9842  12.388   1.767   4.467  0.7574  1.3402  1.4336
  814MOL0     H 9843  12.392   1.819   4.295 -3.2687  1.5875 -0.7173
  814MOL0     H 9844  12.589   1.935   4.345 -1.2992  0.1008 -0.4276
  814MOL0     H 9845  12.502   2.050   4.429 -1.8318  0.0524  1.7894
  814MOL0     H 9846  12.675   1.971   4.569  0.4267 -0.4099  1.4679
  814MOL0     H 9847  12.611   1.806   4.574 -0.6665 -0.0865  0.4343
  814MOL0     H 9848  12.570   1.969   4.772 -0.6103 -4.6433  0.3375
  814MOL0     H 9849  12.418   1.903   4.706  1.3235 -0.9954  0.7847
  814MOL0     H 9850  12.409   2.004   4.905 -1.6762 -1.1378 -2.0854
  814MOL0     H 9851  12.251   2.083   5.055  2.6375  0.1033  0.9102
  814MOL0     H 9852  12.014   2.387   5.281  0.0803 -0.8115 -2.5722
  814MOL0     H 9853  11.851   2.485   5.443  0.7103  0.4888 -0.2796
  814MOL0     H 9854  11.559   2.770   5.266  0.3521 -0.0603  1.9404
  814MOL0     H 9855  11.493   2.608   5.252  1.7097  0.7169 -2.2507
  814MOL0     H 9856  11.466   2.806   5.504 -4.0294  2.2122 -0.5030
  814MOL0     H 9857  11.350   2.771   5.389  0.4732  1.1556 -1.2410
  814MOL0     H 9858  11.325   2.543   5.432  0.0793  0.7871 -1.1556
  814MOL0     H 9859  11.463   2.534   5.536  1.1483 -0.0040 -3.1897
  814MOL0     H 9860  11.229   2.713   5.601 -0.4855 -0.1342 -1.1672
  814MOL0     H 9861  11.379   2.683   5.696 -0.2596  0.1930 -1.4433
  814MOL0     H 9862  11.222   2.555   5.804  0.0528  1.3950  0.5541
  814MOL0     H 9863  11.343   2.454   5.733  1.4880  2.7334 -0.2837
  814MOL0     H 9864  11.174   2.411   5.538 -3.1371 -0.0846 -1.1865
  814MOL0     H 9865  11.119   2.356   5.684 -3.0067  0.4533 -1.5752
  814MOL0     H 9866  11.030   2.572   5.513  2.1755  0.7274  1.5299
  814MOL0     H 9867  11.012   2.599   5.688 -1.0586 -0.4718  0.3119
  814MOL0     H 9868  10.888   2.368   5.518  0.7530 -2.8105  1.3531
  814MOL0     H 9869  10.873   2.399   5.701 -1.1200  0.5024  0.1917
  814MOL0     H 9870  11.676   2.696   5.106  0.0134 -1.6701 -1.1631
  814MOL0     H 9871  11.832   2.593   4.959 -0.3363 -2.0611  0.3020
  814MOL0     H 9872  12.171   2.415   4.769  0.6554  0.8590  0.7511
  814MOL0     H 9873  12.370   2.326   4.644  1.4892  0.2698  0.1282
  814MOL0     H 9874  11.185   1.372   4.744  1.3459 -1.3132  0.3757
  814MOL0     H 9875  11.003   1.448   4.892  0.2572  0.9029 -2.6211
  814MOL0     H 9876  11.085   1.640   5.493 -0.6442  0.5783  2.6484
  814MOL0     H 9877  10.995   1.774   5.636 -0.2462  1.6271 -0.6941
  814MOL0     H 9878  10.933   2.001   5.719 -0.3414 -0.7138  3.8294
  814MOL0     H 9879  10.826   1.875   5.771  6.1464 -0.8262  1.1718
  814MOL0     H 9880  10.640   2.071   5.743 -0.4854  0.0314  0.0989
  814MOL0     H 9881  10.777   2.178   5.728  0.6049 -0.6179 -1.0947
  814MOL0     H 9882  10.714   2.009   5.976 -0.1738 -0.2129  2.4038
  814MOL0     H 9883  10.670   2.179   5.950  1.0359  1.3324 -2.8635
  814MOL0     H 9884  10.890   2.258   5.923 -0.2014 -0.3075 -0.2675
  814MOL0     H 9885  10.869   2.187   6.091 -0.9549  1.7796 -0.8433
  814MOL0     H 9886  11.157   1.918   5.956  0.0065 -0.3148  0.3093
  814MOL0     H 9887  10.686   1.870   5.346 -0.6885 -1.2322 -0.4194
  814MOL0     H 9888  10.664   1.729   5.144  0.0163 -1.9323 -4.3588
  814MOL0     H 9889  10.811   1.794   5.058  3.2542 -1.2084  0.4937
  814MOL0     H 9890  10.781   1.630   5.097  1.1746 -1.1692  3.3407
  815MOL0     O 9891   0.551   7.028   1.365 -0.0081 -0.4801  0.0213
  815MOL0     C 9892   0.638   7.011   1.446 -0.8991 -0.5438  0.7271
  815MOL0     O 9893   0.678   7.112   1.532 -0.6040 -0.9468  0.7070
  815MOL0     C 9894   0.626   7.243   1.526 -0.0787  0.7493 -0.0939
  815MOL0     C 9895   0.581   7.305   1.641 -0.1778  0.3178 -0.2852
  815MOL0     C 9896   0.537   7.438   1.635 -1.2705 -0.4062 -0.1245
  815MOL0     C 9897   0.544   7.511   1.513  0.4514  0.5234  0.2822
  815MOL0     O 9898   0.494   7.643   1.514 -0.3505 -0.0591  0.0695
  815MOL0     C 9899   0.512   7.724   1.397  0.2937 -0.4552  0.6575
  815MOL0     C 9900   0.462   7.866   1.434  0.2487  0.0552 -0.1579
  815MOL0     C 9901   0.310   7.875   1.438  0.3988  0.0107 -0.9464
  815MOL0     C 9902   0.281   8.006   1.527  0.2948  0.6913  0.7865
  815MOL0     C 9903   0.128   8.001   1.579  0.0546 -0.0632  0.2712
  815MOL0     C 9904   0.022   7.984   1.464 -0.0850 -0.2620 -0.0788
  815MOL0     C 9905  -0.109   7.972   1.517  0.2066  0.8337 -0.5986
  815MOL0     C 9906  -0.171   8.097   1.579 -1.0583 -0.9360 -0.0603
  815MOL0     N 9907  -0.310   8.088   1.606  1.0791 -0.8165  0.4969
  815MOL0     C 9908  -0.420   8.134   1.534  0.0097 -0.5045 -1.0488
  815MOL0     C 9909  -0.516   8.124   1.625 -0.2854 -0.8591 -0.9422
  815MOL0     C 9910  -0.655   8.167   1.604 -0.5045  0.1108  0.1857
  815MOL0     C 9911  -0.748   8.059   1.665  0.8211 -0.1439 -0.6805
  815MOL0     C 9912  -0.894   8.088   1.618  0.1746  0.1367 -0.2104
  815MOL0     C 9913  -0.991   7.970   1.634  0.0887  0.7302 -0.4710
  815MOL0     O 9914  -1.118   8.002   1.569 -0.1004  0.0828  0.1973
  815MOL0     C 9915  -1.210   7.901   1.555  0.1513  0.3876  0.0344
  815MOL0     C 9916  -1.338   7.943   1.520  0.2929  0.7472  0.0479
  815MOL0     C 9917  -1.453   7.852   1.514 -0.3525  0.6119 -0.0563
  815MOL0     C 9918  -1.431   7.720   1.546 -0.2284 -0.6894  0.4084
  815MOL0     C 9919  -1.533   7.614   1.520 -0.3349  0.2897  0.1511
  815MOL0     O 9920  -1.523   7.493   1.587 -0.1334  0.2887  0.2692
  815MOL0     C 9921  -1.560   7.382   1.519 -0.1914  0.7691 -0.0514
  815MOL0     C 9922  -1.478   7.334   1.418  0.2270 -0.2904  0.8053
  815MOL0     C 9923  -1.501   7.218   1.345  0.4023  0.2696 -0.7040
  815MOL0     C 9924  -1.619   7.139   1.378 -0.7655  0.5254 -0.6212
  815MOL0     O 9925  -1.617   7.018   1.315  0.2740  0.1126  0.1328
  815MOL0     C 9926  -1.721   6.922   1.336 -0.2261 -0.5495  0.6232
  815MOL0     C 9927  -1.697   6.786   1.273  0.5562 -0.7082 -0.2271
  815MOL0     C 9928  -1.548   6.757   1.253 -0.1948 -0.3100 -0.3814
  815MOL0     C 9929  -1.526   6.607   1.227  0.2925  0.9530 -0.0987
  815MOL0     C 9930  -1.587   6.553   1.090  0.7156 -0.3635  0.4119
  815MOL0     C 9931  -1.619   6.399   1.087 -0.3256 -0.3334 -0.3588
  815MOL0     C 9932  -1.483   6.324   1.049  0.1393  0.3975 -0.0603
  815MOL0     C 9933  -1.512   6.185   0.998  0.3568  0.0561 -0.6977
  815MOL0    Cl 9934  -1.355   6.134   0.952 -0.5437 -0.5086 -0.0485
  815MOL0     C 9935  -1.699   7.186   1.478  0.6052 -0.3905 -0.3713
  815MOL0     C 9936  -1.668   7.303   1.552  0.4987  0.3393 -0.0806
  815MOL0     O 9937  -1.623   7.646   1.448  0.3515  0.3888 -0.8136
  815MOL0     C 9938  -1.310   7.674   1.584 -0.6833  0.4341  0.4572
  815MOL0     C 9939  -1.195   7.758   1.578  0.3975 -0.8112  0.1820
  815MOL0     N 9940  -0.473   8.074   1.742 -0.4681 -0.1418  0.0614
  815MOL0     N 9941  -0.342   8.048   1.732  0.2228  0.4311  0.1560
  815MOL0     C 9942   0.580   7.450   1.397 -0.6598 -0.0858 -0.2590
  815MOL0     C 9943   0.622   7.312   1.407  0.3046  0.1657 -0.3868
  815MOL0     C 9944   0.722   6.888   1.448 -0.2242  0.1323 -0.4527
  815MOL0     C 9945   0.853   6.904   1.504  0.3942 -0.2451  0.8707
  815MOL0     C 9946   0.938   6.794   1.514  0.2701  0.3420 -0.8550
  815MOL0     C 9947   0.893   6.661   1.480 -0.0294  0.8597 -0.0941
  815MOL0     O 9948   0.986   6.563   1.509 -1.2127 -0.2015  0.9324
  815MOL0     C 9949   1.027   6.489   1.394 -0.3325  0.2263  0.7922
  815MOL0     C 9950   1.097   6.360   1.455  0.7276  1.0041  0.6587
  815MOL0     C 9951   1.213   6.380   1.546  0.5148 -0.7836  0.3557
  815MOL0     C 9952   1.311   6.255   1.533  1.1390 -0.3972 -0.5009
  815MOL0     C 9953   1.415   6.274   1.630  0.2096  0.0883 -0.7699
  815MOL0     C 9954   1.499   6.274   1.723 -0.1827 -1.0208  0.5673
  815MOL0     C 9955   0.763   6.641   1.421 -0.1287 -0.3810 -0.2328
  815MOL0     C 9956   0.678   6.747   1.419 -0.5271 -0.6267 -0.6128
  815MOL0     C 9957   0.538   6.718   1.393  0.2227 -0.3066  0.1807
  815MOL0     H 9958   0.582   7.253   1.736 -2.4496 -0.4204 -0.5903
  815MOL0     H 9959   0.493   7.489   1.721 -1.4382  2.3831 -1.7406
  815MOL0     H 9960   0.616   7.721   1.366  0.2367  1.0847  0.2112
  815MOL0     H 9961   0.453   7.694   1.310 -0.6882 -0.1184  1.1837
  815MOL0     H 9962   0.498   7.942   1.363  0.5157  0.2554  0.1928
  815MOL0     H 9963   0.497   7.891   1.534  2.9665 -3.5658 -0.0033
  815MOL0     H 9964   0.278   7.783   1.488  0.7282 -0.1215 -0.9721
  815MOL0     H 9965   0.255   7.883   1.344  1.4705  2.2857 -1.4437
  815MOL0     H 9966   0.355   8.012   1.607  0.0576  0.4545  1.0275
  815MOL0     H 9967   0.307   8.094   1.468 -1.1802  0.6641  0.0418
  815MOL0     H 9968   0.124   7.918   1.650  0.2528  0.8968  1.4434
  815MOL0     H 9969   0.099   8.083   1.645  3.4397  0.3940  1.3586
  815MOL0     H 9970   0.011   8.065   1.392 -1.9275 -2.3462 -2.3375
  815MOL0     H 9971   0.036   7.899   1.396 -1.2566  0.8966 -1.8419
  815MOL0     H 9972  -0.113   7.894   1.594 -1.4526  0.1944 -1.2827
  815MOL0     H 9973  -0.175   7.932   1.439 -2.6230 -1.7790  2.7712
  815MOL0     H 9974  -0.112   8.116   1.669 -0.4506  1.4760 -0.9187
  815MOL0     H 9975  -0.157   8.180   1.510  0.6461 -3.1667 -2.6128
  815MOL0     H 9976  -0.426   8.169   1.431 -1.1365 -1.9858 -1.5152
  815MOL0     H 9977  -0.676   8.263   1.652  0.7400  2.2343 -3.1610
  815MOL0     H 9978  -0.675   8.197   1.501  0.0345 -1.1732 -0.3110
  815MOL0     H 9979  -0.729   7.960   1.624 -4.2576 -2.4795  1.7600
  815MOL0     H 9980  -0.739   8.064   1.774  1.3464 -1.0959 -0.6757
  815MOL0     H 9981  -0.896   8.118   1.513  2.1371  2.1252  0.2749
  815MOL0     H 9982  -0.931   8.171   1.680 -1.8972 -2.6091  2.6109
  815MOL0     H 9983  -1.018   7.953   1.739 -0.3513  1.4152 -0.4656
  815MOL0     H 9984  -0.941   7.880   1.600 -2.1380 -1.2963  1.2364
  815MOL0     H 9985  -1.358   8.048   1.500  0.6168  0.3219 -2.8928
  815MOL0     H 9986  -1.540   7.903   1.473 -0.3613  4.4054  3.9189
  815MOL0     H 9987  -1.385   7.386   1.402  1.1524 -1.5022  1.9632
  815MOL0     H 9988  -1.443   7.174   1.265 -0.3813  0.6897 -1.5117
  815MOL0     H 9989  -1.743   6.921   1.443 -5.2753  0.7305 -0.1323
  815MOL0     H 9990  -1.809   6.967   1.290  0.4743 -0.0171 -0.2363
  815MOL0     H 9991  -1.746   6.702   1.322  3.2115 -1.4720  1.3264
  815MOL0     H 9992  -1.745   6.801   1.176 -0.8700 -0.9949  0.4015
  815MOL0     H 9993  -1.504   6.819   1.175  0.3589  2.2122  1.8173
  815MOL0     H 9994  -1.497   6.791   1.343 -0.2366 -0.0476 -0.4564
  815MOL0     H 9995  -1.572   6.556   1.312  3.1863 -2.1869 -0.2251
  815MOL0     H 9996  -1.423   6.573   1.235 -0.1386 -0.5459 -0.4792
  815MOL0     H 9997  -1.526   6.590   1.008  1.7950 -1.7743  0.5402
  815MOL0     H 9998  -1.684   6.599   1.067  0.3490 -0.3846  1.8587
  815MOL0     H 9999  -1.641   6.359   1.186  1.6346  0.1615  0.3410
  815MOL0     H10000  -1.709   6.383   1.027 -0.1951 -1.0990 -0.3591
  815MOL0     H10001  -1.418   6.318   1.137  0.0059  0.4453  0.0435
  815MOL0     H10002  -1.426   6.389   0.982  1.7597  2.7449  3.2652
  815MOL0     H10003  -1.540   6.113   1.075 -0.2589 -0.6884 -1.5867
  815MOL0     H10004  -1.588   6.182   0.919 -3.6893  1.1400  2.7586
  815MOL0     H10005  -1.787   7.131   1.510 -1.1578  0.5995 -3.1632
  815MOL0     H10006  -1.725   7.339   1.638  0.2659 -0.8646  0.2979
  815MOL0     H10007  -1.302   7.569   1.609 -1.6571 -0.1405 -1.4829
  815MOL0     H10008  -1.102   7.714   1.613 -0.5239 -2.0108  1.2259
  815MOL0     H10009   0.595   7.515   1.311 -0.1522  1.8515  1.2334
  815MOL0     H10010   0.656   7.270   1.313 -3.9824  0.8312 -2.4838
  815MOL0     H10011   0.896   7.002   1.522  2.0754 -1.5834  5.6985
  815MOL0     H10012   1.031   6.803   1.569 -0.6242  2.1439  0.5128
  815MOL0     H10013   1.106   6.539   1.337 -0.1045 -0.5059  0.4490
  815MOL0     H10014   0.936   6.464   1.338 -0.8542  1.3047  1.1331
  815MOL0     H10015   1.128   6.306   1.365 -1.9645  1.9489 -0.9678
  815MOL0     H10016   1.016   6.304   1.502 -0.0933  1.0142 -0.6957
  815MOL0     H10017   1.168   6.397   1.645 -1.1898 -0.9976 -0.3527
  815MOL0     H10018   1.255   6.477   1.517 -1.4192  0.3210  1.0011
  815MOL0     H10019   1.245   6.171   1.559 -3.7065  3.9897  3.5638
  815MOL0     H10020   1.361   6.245   1.437  1.4411 -5.3114 -0.1029
  815MOL0     H10021   1.574   6.278   1.799  2.8377 -0.7432 -2.2315
  815MOL0     H10022   0.738   6.541   1.388 -2.4205  0.2796 -0.6275
  815MOL0     H10023   0.540   6.673   1.293  2.1407  2.4390 -1.1766
  815MOL0     H10024   0.485   6.660   1.469  0.6516 -0.3117  0.4767
  815MOL0     H10025   0.481   6.810   1.371  3.0123  1.7481  0.9478
  816MOL0     O10026   6.082   2.988  10.969  0.8599 -0.3531 -0.8791
  816MOL0     C10027   6.133   2.877  10.976 -0.0709  0.2320 -0.0081
  816MOL0     O10028   6.132   2.773  10.875  0.5276  0.1107  0.0680
  816MOL0     C10029   6.047   2.793  10.768  0.5373  0.2451 -0.6634
  816MOL0     C10030   5.909   2.790  10.791  0.2167  0.5331 -0.2128
  816MOL0     C10031   5.823   2.821  10.685 -0.1493  0.2084 -0.8632
  816MOL0     C10032   5.861   2.861  10.560 -1.6538  0.0565  0.5906
  816MOL0     O10033   5.785   2.912  10.464  0.2410  0.6177 -0.1997
  816MOL0     C10034   5.645   2.874  10.483 -0.1588 -0.3412 -0.6604
  816MOL0     C10035   5.558   2.914  10.366 -1.1378  0.3816  0.2381
  816MOL0     C10036   5.580   2.836  10.241 -0.5184  0.0577 -0.7562
  816MOL0     C10037   5.722   2.834  10.182  0.4341  0.3324  0.6403
  816MOL0     C10038   5.720   2.758  10.049 -1.1443 -0.2548 -0.0359
  816MOL0     C10039   5.854   2.765   9.968 -0.0072 -0.6070 -0.5314
  816MOL0     C10040   5.841   2.693   9.835  0.3115  0.4271  0.1589
  816MOL0     C10041   5.834   2.540   9.848  0.2505  0.0018  0.0490
  816MOL0     N10042   5.932   2.479   9.933  0.0418  1.0246 -0.4437
  816MOL0     C10043   5.894   2.436  10.062 -0.7215  0.6070 -0.5710
  816MOL0     C10044   6.017   2.424  10.121  0.1633  1.0101  0.8586
  816MOL0     C10045   6.044   2.379  10.263 -0.2893 -0.0984  0.1572
  816MOL0     C10046   5.989   2.488  10.349  0.1927 -0.2383  0.7284
  816MOL0     C10047   6.031   2.474  10.495  0.3445 -0.2803  0.5137
  816MOL0     C10048   5.989   2.344  10.567 -0.6013 -1.4934 -0.3801
  816MOL0     O10049   5.855   2.306  10.541 -0.3360  0.8133 -0.2593
  816MOL0     C10050   5.838   2.193  10.475  0.0192 -0.6538 -0.1164
  816MOL0     C10051   5.750   2.196  10.360  0.3647  0.2811 -0.2502
  816MOL0     C10052   5.723   2.072  10.293  0.0983  0.1261  1.3933
  816MOL0     C10053   5.766   1.949  10.339  0.4733 -1.1725  0.2088
  816MOL0     C10054   5.752   1.824  10.256  0.5882 -0.9367 -0.1861
  816MOL0     O10055   5.861   1.747  10.241 -0.2481 -0.2168  0.1736
  816MOL0     C10056   5.834   1.617  10.199 -0.8262  1.0712  0.4936
  816MOL0     C10057   5.838   1.509  10.283 -0.2997 -0.4066 -0.5583
  816MOL0     C10058   5.829   1.378  10.235 -0.7494  0.5730 -0.2746
  816MOL0     C10059   5.819   1.350  10.098 -0.7605  0.0912 -0.0871
  816MOL0     O10060   5.823   1.226  10.038 -0.2868 -0.0226  0.0163
  816MOL0     C10061   5.835   1.110  10.127  0.0068 -0.9074 -0.1993
  816MOL0     C10062   5.814   0.993  10.037 -1.0321  0.3837  0.2569
  816MOL0     C10063   5.814   0.861  10.123 -0.3337  0.4673  0.3908
  816MOL0     C10064   5.960   0.823  10.148  0.1177  0.8270 -0.2187
  816MOL0     C10065   5.970   0.678  10.202 -0.4680  0.3194  0.4990
  816MOL0     C10066   5.894   0.655  10.331  0.5195  0.0152  0.4321
  816MOL0     C10067   5.934   0.527  10.401  0.2015 -0.5575  0.4105
  816MOL0     C10068   5.842   0.403  10.355  0.0512  0.0425 -0.3687
  816MOL0    Cl10069   5.920   0.319  10.224 -0.0110  0.3966  0.1098
  816MOL0     C10070   5.823   1.456  10.009 -0.7107 -0.5571 -0.2025
  816MOL0     C10071   5.828   1.587  10.055  0.0612  0.3630 -0.1705
  816MOL0     O10072   5.637   1.788  10.232 -0.6008 -0.6123  0.0592
  816MOL0     C10073   5.839   1.949  10.456 -0.0426 -0.2319  0.8176
  816MOL0     C10074   5.870   2.067  10.528 -0.3687 -0.2971  0.0777
  816MOL0     N10075   6.118   2.446  10.034 -1.0398  0.0803 -0.2014
  816MOL0     N10076   6.070   2.495   9.932 -0.6987  0.3399  0.5575
  816MOL0     C10077   6.000   2.854  10.529 -0.5367  0.1885  0.1227
  816MOL0     C10078   6.092   2.821  10.630  0.2362 -0.6303  0.4919
  816MOL0     C10079   6.199   2.840  11.099  1.4292 -0.5218 -0.0673
  816MOL0     C10080   6.318   2.772  11.089  0.3452  0.4087  0.1842
  816MOL0     C10081   6.396   2.748  11.202 -0.6216 -0.1499  0.6168
  816MOL0     C10082   6.343   2.763  11.333  0.5654 -0.4300  0.7763
  816MOL0     O10083   6.425   2.732  11.437  0.3648 -0.8636  0.2948
  816MOL0     C10084   6.395   2.775  11.573  0.7463 -0.7542 -0.0683
  816MOL0     C10085   6.443   2.918  11.602 -0.3612 -0.4424  0.0976
  816MOL0     C10086   6.558   2.941  11.709  0.3933  0.5752 -0.2423
  816MOL0     C10087   6.633   3.075  11.698  0.0045 -1.7352 -0.4269
  816MOL0     C10088   6.542   3.193  11.680  0.8467 -0.2311 -0.7283
  816MOL0     C10089   6.457   3.282  11.660 -1.0267  0.2344 -0.8114
  816MOL0     C10090   6.218   2.822  11.339 -0.6329  0.1958 -0.2126
  816MOL0     C10091   6.147   2.868  11.229  0.9486 -0.0071 -0.2466
  816MOL0     C10092   6.012   2.927  11.271  0.3555  0.4363  0.1762
  816MOL0     H10093   5.869   2.759  10.887 -0.4839  1.8345 -0.0629
  816MOL0     H10094   5.720   2.827  10.717 -0.2188 -1.5033 -0.7019
  816MOL0     H10095   5.644   2.764  10.483 -3.2435 -0.3997  1.2767
  816MOL0     H10096   5.602   2.923  10.570 -0.9589 -0.4983 -0.9624
  816MOL0     H10097   5.572   3.020  10.340  1.9579  0.0069 -0.0245
  816MOL0     H10098   5.451   2.899  10.385 -0.8425 -1.7728  0.4470
  816MOL0     H10099   5.497   2.859  10.173 -2.0705  0.1072  1.0724
  816MOL0     H10100   5.557   2.732  10.264  0.5491  0.3469  2.0311
  816MOL0     H10101   5.753   2.936  10.155 -0.0590  0.0235 -1.2217
  816MOL0     H10102   5.788   2.787  10.256 -2.2850 -1.8760  1.8311
  816MOL0     H10103   5.691   2.653  10.063 -2.9243  0.2043  0.0137
  816MOL0     H10104   5.647   2.804   9.981 -0.7011  2.4686  1.2078
  816MOL0     H10105   5.890   2.866   9.948  0.0304 -0.8276 -1.6421
  816MOL0     H10106   5.944   2.727  10.018 -1.2053 -2.1354  0.5854
  816MOL0     H10107   5.925   2.710   9.767 -0.0519 -2.1552 -1.0491
  816MOL0     H10108   5.750   2.739   9.796 -0.4563 -1.5590 -0.5168
  816MOL0     H10109   5.732   2.520   9.883  0.5945  1.0769  1.7829
  816MOL0     H10110   5.844   2.494   9.750  0.7668  1.9055 -0.8554
  816MOL0     H10111   5.794   2.411  10.096  0.5024 -4.6041  0.1793
  816MOL0     H10112   6.002   2.283  10.295  0.6833 -0.3574  0.7202
  816MOL0     H10113   6.152   2.366  10.270  0.0838  1.6812 -1.5316
  816MOL0     H10114   6.040   2.579  10.314 -0.8345  0.3451  0.7183
  816MOL0     H10115   5.880   2.491  10.341  0.2232  2.5171  0.2542
  816MOL0     H10116   5.992   2.565  10.543  1.9931 -0.0548  1.5100
  816MOL0     H10117   6.137   2.496  10.508  0.4945 -1.0056  0.5606
  816MOL0     H10118   5.995   2.375  10.672 -2.2934  2.1130 -1.1919
  816MOL0     H10119   6.066   2.268  10.551  3.3527  2.0356  0.2058
  816MOL0     H10120   5.725   2.290  10.313  2.8461  1.3453  0.4057
  816MOL0     H10121   5.685   2.071  10.191 -3.2351 -2.2025  2.4799
  816MOL0     H10122   5.856   1.522  10.389  2.1705 -1.0771 -0.8318
  816MOL0     H10123   5.832   1.296  10.305 -0.0018  2.3103  1.8451
  816MOL0     H10124   5.934   1.114  10.173  0.6892  0.2713 -1.6853
  816MOL0     H10125   5.767   1.106  10.213 -1.0295 -1.4356 -1.0212
  816MOL0     H10126   5.719   1.006   9.984 -1.6038 -1.3593  0.7849
  816MOL0     H10127   5.903   0.988   9.974  0.2069  1.6596  1.8243
  816MOL0     H10128   5.766   0.868  10.221  1.7470 -2.6150  1.7814
  816MOL0     H10129   5.768   0.783  10.063 -2.0736  3.4217 -2.4382
  816MOL0     H10130   6.005   0.883  10.228 -1.5238 -2.2301  3.3568
  816MOL0     H10131   6.014   0.839  10.055 -1.7414  3.9813 -0.8836
  816MOL0     H10132   6.077   0.656  10.208 -0.5605  0.0703  1.3086
  816MOL0     H10133   5.938   0.604  10.128  2.9223 -1.0888  0.2663
  816MOL0     H10134   5.925   0.738  10.395  0.7535 -0.1376  0.5173
  816MOL0     H10135   5.788   0.670  10.309  0.8567 -1.2097 -2.5339
  816MOL0     H10136   5.916   0.549  10.507  0.1647  0.8660  0.1337
  816MOL0     H10137   6.041   0.508  10.394  0.3881  0.1590  1.0811
  816MOL0     H10138   5.819   0.343  10.443  2.8432  0.0550  0.4563
  816MOL0     H10139   5.744   0.446  10.331  0.4491  1.1748 -0.0581
  816MOL0     H10140   5.808   1.430   9.905  1.4409 -2.6161 -0.0646
  816MOL0     H10141   5.830   1.676   9.994 -0.7251  0.6295  0.1769
  816MOL0     H10142   5.874   1.850  10.483  0.3008 -0.6503 -0.9904
  816MOL0     H10143   5.925   2.061  10.622  2.1679 -1.4125 -1.3942
  816MOL0     H10144   6.032   2.887  10.432  3.4076 -3.6994 -0.2310
  816MOL0     H10145   6.195   2.825  10.599 -0.9011  2.3655 -3.6763
  816MOL0     H10146   6.357   2.767  10.988 -0.5879  1.6050 -0.2737
  816MOL0     H10147   6.503   2.730  11.197 -0.3048  0.4925  3.3430
  816MOL0     H10148   6.442   2.707  11.645 -1.3335 -1.9330  0.2580
  816MOL0     H10149   6.287   2.765  11.588  0.6360  0.0156 -0.3090
  816MOL0     H10150   6.359   2.986  11.616 -0.2744  0.0359 -1.4488
  816MOL0     H10151   6.490   2.958  11.511  1.9144  3.7598  2.8010
  816MOL0     H10152   6.617   2.849  11.709 -0.7778 -0.3007 -3.6002
  816MOL0     H10153   6.512   2.933  11.808 -1.4701  2.8404 -0.8303
  816MOL0     H10154   6.691   3.094  11.788 -3.6640  0.5919  1.7406
  816MOL0     H10155   6.686   3.070  11.603 -0.3664  2.5121 -1.0474
  816MOL0     H10156   6.396   3.370  11.660 -1.4916 -0.0686  0.5254
  816MOL0     H10157   6.195   2.843  11.443  4.1065 -1.1148  1.3461
  816MOL0     H10158   5.942   2.848  11.295  0.0253 -0.1036 -2.2779
  816MOL0     H10159   6.029   2.995  11.355  5.5153  0.1836 -0.3457
  816MOL0     H10160   5.968   2.991  11.193  1.5260 -0.3458 -1.1839
  817MOL0     O10161   0.465  10.787  10.637 -0.2023  0.4542  0.0204
  817MOL0     C10162   0.431  10.682  10.587 -0.4130  0.1118  0.3394
  817MOL0     O10163   0.485  10.629  10.465  0.0145  0.2088 -0.3606
  817MOL0     C10164   0.478  10.700  10.347 -0.9815 -0.2730  0.2589
  817MOL0     C10165   0.357  10.714  10.285  0.4033  1.0572  0.7585
  817MOL0     C10166   0.354  10.794  10.171 -0.0811  0.6245 -0.2233
  817MOL0     C10167   0.469  10.847  10.110 -0.0217 -0.0708 -0.6847
  817MOL0     O10168   0.461  10.894   9.975 -0.2892 -0.3873 -0.5182
  817MOL0     C10169   0.529  11.018   9.947  0.8815 -0.3538 -0.8065
  817MOL0     C10170   0.491  11.082   9.816  0.3806  0.0855 -0.3738
  817MOL0     C10171   0.516  10.987   9.693  0.3219 -0.4024  1.0853
  817MOL0     C10172   0.467  11.063   9.566  0.3692 -0.4210  1.0471
  817MOL0     C10173   0.446  10.966   9.444  0.1722 -0.1092 -0.1057
  817MOL0     C10174   0.368  11.004   9.312 -0.7680  0.1958 -0.1167
  817MOL0     C10175   0.449  11.122   9.249 -0.3623  0.2494 -0.0098
  817MOL0     C10176   0.428  11.148   9.097 -0.1136 -1.2440 -0.5826
  817MOL0     N10177   0.434  11.023   9.015 -0.5861 -0.1152  0.4468
  817MOL0     C10178   0.542  10.973   8.950 -0.2384 -0.5021  0.7548
  817MOL0     C10179   0.481  10.876   8.877  0.6603  0.0413 -0.4365
  817MOL0     C10180   0.551  10.770   8.781  0.0350  0.7384 -0.0670
  817MOL0     C10181   0.585  10.645   8.867 -0.0308  0.4580  0.5665
  817MOL0     C10182   0.671  10.534   8.796  1.3518 -0.2368  0.5261
  817MOL0     C10183   0.818  10.559   8.772 -0.0932  0.1738  1.4523
  817MOL0     O10184   0.889  10.558   8.892 -0.6409 -0.2766 -0.4160
  817MOL0     C10185   1.024  10.579   8.883  0.1973  0.3852 -0.0485
  817MOL0     C10186   1.101  10.539   8.991  0.1160 -0.4029  0.5621
  817MOL0     C10187   1.240  10.552   8.987 -1.2022 -0.4666 -0.1259
  817MOL0     C10188   1.310  10.619   8.879 -0.1588  0.5963  0.3373
  817MOL0     C10189   1.453  10.637   8.864 -0.0363  0.1945 -0.7795
  817MOL0     O10190   1.499  10.693   8.752 -0.4337  0.1574 -0.4265
  817MOL0     C10191   1.637  10.691   8.729 -0.2640 -0.4970 -0.3969
  817MOL0     C10192   1.692  10.807   8.662  0.0948  0.1272  0.5989
  817MOL0     C10193   1.834  10.821   8.636  0.2087 -0.8135  0.0868
  817MOL0     C10194   1.918  10.727   8.682 -0.4750  0.5053  0.1127
  817MOL0     O10195   2.055  10.756   8.665 -0.7680  0.4019 -0.2743
  817MOL0     C10196   2.140  10.639   8.641  0.8139  0.7301 -0.2750
  817MOL0     C10197   2.282  10.673   8.592 -0.1847 -0.3738  0.6700
  817MOL0     C10198   2.373  10.552   8.559  0.1553 -1.3470  0.6930
  817MOL0     C10199   2.502  10.577   8.476  1.3483 -0.6645 -0.3577
  817MOL0     C10200   2.568  10.447   8.425 -0.4443  0.6042  0.8123
  817MOL0     C10201   2.644  10.374   8.532 -0.7306  0.5082  0.2554
  817MOL0     C10202   2.771  10.304   8.480  0.1217 -0.4180 -0.5608
  817MOL0     C10203   2.829  10.218   8.591  0.0153  0.0457 -0.7082
  817MOL0    Cl10204   2.969  10.134   8.543  0.0473  0.3297 -0.5845
  817MOL0     C10205   1.866  10.614   8.750  0.4078 -0.0465  0.4110
  817MOL0     C10206   1.730  10.596   8.773 -0.3068  0.1204  0.5034
  817MOL0     O10207   1.524  10.613   8.962  0.6629 -0.1160  0.3016
  817MOL0     C10208   1.228  10.653   8.775  0.3609 -0.5318 -0.5986
  817MOL0     C10209   1.087  10.639   8.776  0.7902 -0.0507  0.5418
  817MOL0     N10210   0.347  10.862   8.896 -0.9009  0.0740  0.0464
  817MOL0     N10211   0.322  10.958   8.977 -0.0639 -0.0577 -0.9065
  817MOL0     C10212   0.588  10.832  10.173  0.6103 -0.3597  0.6725
  817MOL0     C10213   0.594  10.765  10.297 -0.4373 -0.2501  0.7543
  817MOL0     C10214   0.333  10.595  10.659  0.0495 -0.5292  0.8389
  817MOL0     C10215   0.338  10.461  10.624  0.6156 -0.6700 -0.7600
  817MOL0     C10216   0.233  10.373  10.677  0.8845  0.0283  0.4477
  817MOL0     C10217   0.140  10.426  10.763  0.8184 -0.4058 -0.9631
  817MOL0     O10218   0.048  10.345  10.831 -0.2825 -0.2005  0.1872
  817MOL0     C10219   0.008  10.212  10.782 -0.7157 -0.0728 -0.8141
  817MOL0     C10220   0.100  10.107  10.841 -0.1359 -1.4193 -0.1031
  817MOL0     C10221   0.050  10.073  10.989 -0.0766 -0.6295  0.6938
  817MOL0     C10222   0.129   9.956  11.056 -0.0490 -0.5622  0.1453
  817MOL0     C10223   0.108   9.841  10.967  0.3834 -0.7904 -0.1325
  817MOL0     C10224   0.070   9.745  10.902 -0.1225  0.1460  0.7273
  817MOL0     C10225   0.139  10.559  10.800 -0.4125  0.2823 -0.0410
  817MOL0     C10226   0.235  10.653  10.751  0.1515  0.0469  0.0591
  817MOL0     C10227   0.232  10.799  10.806  0.0527 -0.5966 -0.5060
  817MOL0     H10228   0.275  10.658  10.328  0.3694 -0.0521 -0.6893
  817MOL0     H10229   0.267  10.812  10.109  0.5246  0.3804 -1.1620
  817MOL0     H10230   0.511  11.090  10.027 -0.7712 -0.3420 -1.1483
  817MOL0     H10231   0.637  11.001   9.945  1.1892  1.3225 -0.3600
  817MOL0     H10232   0.544  11.177   9.803 -0.4474  0.7452  0.8723
  817MOL0     H10233   0.392  11.127   9.831  1.0160  0.9874  1.3489
  817MOL0     H10234   0.455  10.898   9.708  1.0918 -0.9765  0.8849
  817MOL0     H10235   0.620  10.954   9.683  0.3060 -0.3638  0.7693
  817MOL0     H10236   0.369  11.099   9.600 -0.0524  0.1925 -0.6959
  817MOL0     H10237   0.526  11.153   9.548 -0.4461  0.3927  2.2972
  817MOL0     H10238   0.551  10.936   9.431  0.4050 -0.4649  2.2378
  817MOL0     H10239   0.390  10.883   9.488  1.6956 -1.1852 -0.1209
  817MOL0     H10240   0.362  10.918   9.245  2.8586  0.3156 -0.7776
  817MOL0     H10241   0.270  11.045   9.337 -0.9803 -0.9656  1.0340
  817MOL0     H10242   0.553  11.100   9.274 -0.0430  3.8053  2.4735
  817MOL0     H10243   0.417  11.207   9.310  0.1325 -1.6509  3.0884
  817MOL0     H10244   0.329  11.195   9.087 -0.0145 -0.7903  0.4632
  817MOL0     H10245   0.488  11.227   9.051  0.2617 -1.1034  0.1428
  817MOL0     H10246   0.645  11.006   8.958 -0.4096  1.2704 -2.6485
  817MOL0     H10247   0.491  10.743   8.694 -0.4338  4.4934 -1.1073
  817MOL0     H10248   0.648  10.810   8.748  1.4629 -2.1568  0.2471
  817MOL0     H10249   0.634  10.679   8.959 -0.2475  2.4579 -0.0153
  817MOL0     H10250   0.496  10.589   8.898  1.5375 -1.4001  1.9770
  817MOL0     H10251   0.611  10.536   8.704 -0.4230  1.6286  1.6486
  817MOL0     H10252   0.668  10.433   8.839  1.8617 -0.7200 -0.5245
  817MOL0     H10253   0.826  10.645   8.705  2.1423 -0.8041  0.3115
  817MOL0     H10254   0.864  10.482   8.708  0.8435  1.1261  0.9367
  817MOL0     H10255   1.045  10.488   9.069  3.0210 -3.3221  0.9555
  817MOL0     H10256   1.300  10.530   9.075 -1.0871  1.3227  0.2767
  817MOL0     H10257   1.624  10.886   8.631  0.6591  1.0691  1.6466
  817MOL0     H10258   1.879  10.915   8.606 -2.3352  0.5318  0.1676
  817MOL0     H10259   2.152  10.576   8.729 -1.3267  1.5268  0.6453
  817MOL0     H10260   2.099  10.577   8.561 -0.6080  0.3150  0.7449
  817MOL0     H10261   2.280  10.729   8.498  3.1161 -0.2807  0.5685
  817MOL0     H10262   2.342  10.731   8.663  0.4119  2.5247 -1.9977
  817MOL0     H10263   2.398  10.491   8.646  0.6712 -0.4840  1.1644
  817MOL0     H10264   2.309  10.498   8.488 -1.2220  1.1487 -0.0808
  817MOL0     H10265   2.580  10.623   8.536 -0.9932  1.7416  1.0577
  817MOL0     H10266   2.482  10.646   8.393  1.1734  1.1945  1.1626
  817MOL0     H10267   2.636  10.472   8.343 -0.8382 -1.4093 -0.1887
  817MOL0     H10268   2.502  10.374   8.377  0.9531 -0.6261  0.6742
  817MOL0     H10269   2.682  10.456   8.594 -1.1702  4.6374 -4.2566
  817MOL0     H10270   2.574  10.304   8.578  0.7189 -1.3880 -0.2944
  817MOL0     H10271   2.835  10.387   8.450 -1.3891  1.8278  1.9703
  817MOL0     H10272   2.748  10.236   8.397 -1.2632 -0.8364  0.1334
  817MOL0     H10273   2.845  10.279   8.680 -3.1681  1.6598 -1.0993
  817MOL0     H10274   2.751  10.148   8.621 -0.2343  0.3553 -0.6305
  817MOL0     H10275   1.931  10.546   8.804  0.9065 -1.0524 -1.3716
  817MOL0     H10276   1.701  10.520   8.845 -0.5415 -1.9147 -1.6331
  817MOL0     H10277   1.265  10.712   8.692  1.0833  1.9055  1.3419
  817MOL0     H10278   1.036  10.681   8.690 -1.1474 -0.8225  1.2600
  817MOL0     H10279   0.680  10.862  10.123  3.1764 -3.5061  3.0180
  817MOL0     H10280   0.688  10.771  10.351  0.8540  1.7852 -1.5265
  817MOL0     H10281   0.422  10.436  10.561  1.9328 -1.5446  1.2406
  817MOL0     H10282   0.230  10.272  10.639  0.3317  0.1236  0.2387
  817MOL0     H10283   0.018  10.213  10.673  3.0309  2.8820 -0.6426
  817MOL0     H10284  -0.097  10.195  10.810  0.1650 -1.9234  1.6501
  817MOL0     H10285   0.198  10.154  10.855 -1.9551  1.9524  3.2266
  817MOL0     H10286   0.107  10.017  10.780  1.4585 -2.8419  2.0093
  817MOL0     H10287  -0.055  10.044  10.979 -0.0516 -1.2370  2.0203
  817MOL0     H10288   0.056  10.153  11.063  0.1988  0.9452 -0.9558
  817MOL0     H10289   0.237   9.971  11.048 -0.0435 -1.5004 -2.9550
  817MOL0     H10290   0.095   9.941  11.159  0.8246 -0.3528  0.4759
  817MOL0     H10291   0.062   9.664  10.833 -2.1612  0.8074  0.1089
  817MOL0     H10292   0.056  10.587  10.863 -1.5413 -1.9538 -0.4322
  817MOL0     H10293   0.159  10.811  10.887  0.0785 -0.2010 -0.5392
  817MOL0     H10294   0.334  10.818  10.842  1.0191 -0.1903 -3.1978
  817MOL0     H10295   0.214  10.872  10.727 -0.0704 -1.2383 -1.0872
  818MOL0     O10296  10.777  11.336   8.311  0.4026  0.1494 -1.0413
  818MOL0     C10297  10.722  11.260   8.385 -0.1729 -0.0059  0.4362
  818MOL0     O10298  10.743  11.250   8.524 -0.5522  0.0275  0.1918
  818MOL0     C10299  10.812  11.347   8.589 -0.3107 -0.5353 -0.4311
  818MOL0     C10300  10.749  11.427   8.683  0.5996  0.3600  0.0366
  818MOL0     C10301  10.803  11.531   8.748 -0.7025 -0.4356 -0.4591
  818MOL0     C10302  10.941  11.562   8.726  0.1069  1.0779  0.3436
  818MOL0     O10303  10.998  11.658   8.806 -1.2355  0.8688 -0.4080
  818MOL0     C10304  11.137  11.678   8.800  0.2919 -0.4078 -0.0914
  818MOL0     C10305  11.194  11.800   8.871  0.8838 -0.5505 -0.5365
  818MOL0     C10306  11.116  11.924   8.826  0.4424 -0.5625 -0.1259
  818MOL0     C10307  11.197  12.043   8.797 -0.2199 -0.2124  0.3590
  818MOL0     C10308  11.123  12.173   8.765  0.4997  1.0047  0.1735
  818MOL0     C10309  11.050  12.245   8.886 -0.8855  0.9567 -0.0232
  818MOL0     C10310  11.113  12.248   9.018 -0.6099 -0.1052  0.3731
  818MOL0     C10311  11.030  12.320   9.128  0.5440  0.5990  0.7434
  818MOL0     N10312  11.105  12.322   9.256  1.1147 -0.9544  0.4383
  818MOL0     C10313  11.098  12.217   9.347  0.4177  0.1470 -1.1102
  818MOL0     C10314  11.133  12.282   9.465  0.7500  0.2592  1.2314
  818MOL0     C10315  11.124  12.223   9.598 -1.1497 -0.1353 -0.2979
  818MOL0     C10316  11.226  12.109   9.615  0.6523  0.3496  0.0247
  818MOL0     C10317  11.382  12.146   9.610 -0.3594 -0.3919  0.1532
  818MOL0     C10318  11.439  12.202   9.473  0.0423 -0.1431  1.0708
  818MOL0     O10319  11.571  12.248   9.476 -0.7451 -0.1676 -0.6930
  818MOL0     C10320  11.594  12.377   9.503 -0.0770  0.2022  0.4726
  818MOL0     C10321  11.504  12.473   9.551  0.1172  0.1790 -0.4213
  818MOL0     C10322  11.543  12.614   9.545  0.8220 -0.6483  0.2387
  818MOL0     C10323  11.674  12.652   9.523 -1.2643  0.1221 -0.3369
  818MOL0     C10324  11.721  12.791   9.553 -0.1595  0.4860  1.1037
  818MOL0     O10325  11.631  12.885   9.585  0.1570  0.9481  0.6236
  818MOL0     C10326  11.676  13.014   9.601  0.0741 -0.8888  1.1924
  818MOL0     C10327  11.752  13.086   9.504 -0.3543  0.1941  0.3063
  818MOL0     C10328  11.787  13.226   9.517  0.3239  0.2223  0.5141
  818MOL0     C10329  11.763  13.286   9.644 -1.2133  0.3399  0.0172
  818MOL0     O10330  11.818  13.403   9.668 -0.1728  0.6464 -0.4012
  818MOL0     C10331  11.924  13.416   9.767  0.5798 -0.4008 -0.0491
  818MOL0     C10332  12.010  13.546   9.754  0.0913  0.8630  0.6078
  818MOL0     C10333  12.101  13.541   9.625 -0.0909 -1.0960 -0.1525
  818MOL0     C10334  12.176  13.678   9.616 -0.6325  1.2192  0.8368
  818MOL0     C10335  12.224  13.690   9.470  0.1076 -0.5370 -0.2964
  818MOL0     C10336  12.303  13.563   9.431 -0.1944 -0.7039  0.1630
  818MOL0     C10337  12.410  13.598   9.314 -0.9985  0.0872 -0.4698
  818MOL0     C10338  12.472  13.477   9.251  0.3157  0.4095  1.2494
  818MOL0    Cl10339  12.354  13.370   9.185  0.5313  0.1542  0.2934
  818MOL0     C10340  11.698  13.211   9.750  0.7633 -0.1135 -0.4801
  818MOL0     C10341  11.658  13.075   9.724  0.0330 -1.1631  0.1167
  818MOL0     O10342  11.848  12.810   9.532  0.1094  0.3939  0.6615
  818MOL0     C10343  11.767  12.552   9.479 -0.1656  0.7380  0.1603
  818MOL0     C10344  11.726  12.422   9.469  0.4444  0.1071  0.8507
  818MOL0     N10345  11.162  12.414   9.446 -0.4911  0.4940 -0.3466
  818MOL0     N10346  11.142  12.434   9.321 -0.1868  0.6045 -0.1052
  818MOL0     C10347  11.015  11.479   8.634 -0.1777  0.2427  0.3558
  818MOL0     C10348  10.949  11.368   8.580  0.7012 -0.5765  0.2159
  818MOL0     C10349  10.677  11.129   8.315  0.5765  0.0935  0.3060
  818MOL0     C10350  10.767  11.031   8.271 -0.0663  0.5159  0.2475
  818MOL0     C10351  10.732  10.904   8.211 -0.1753  0.0337  0.3284
  818MOL0     C10352  10.592  10.877   8.188  0.3157 -0.3216  0.2183
  818MOL0     O10353  10.535  10.770   8.123  0.3495  0.0330  0.5513
  818MOL0     C10354  10.624  10.700   8.041  0.2219 -0.4230 -0.5720
  818MOL0     C10355  10.537  10.606   7.953 -0.8224  0.3161  1.1400
  818MOL0     C10356  10.413  10.551   8.025 -0.2654  0.0037 -0.8578
  818MOL0     C10357  10.337  10.440   7.950 -0.1373 -0.7587  0.6583
  818MOL0     C10358  10.210  10.387   8.012  0.6281  0.2065  0.2511
  818MOL0     C10359  10.122  10.330   8.063 -0.6889 -0.7354  0.1879
  818MOL0     C10360  10.504  10.977   8.238  0.3118 -0.7018  0.6121
  818MOL0     C10361  10.545  11.097   8.294 -0.4238 -0.3922  0.0785
  818MOL0     C10362  10.449  11.201   8.343 -0.5918  0.0147  0.2181
  818MOL0     H10363  10.645  11.396   8.678  0.9424 -1.3024  2.1087
  818MOL0     H10364  10.732  11.585   8.809 -2.4171  1.4556 -3.8250
  818MOL0     H10365  11.197  11.591   8.828  1.9438  0.9777  0.8846
  818MOL0     H10366  11.174  11.685   8.697  2.9057 -0.5402  0.7734
  818MOL0     H10367  11.298  11.814   8.839  0.8831  1.5987  0.2705
  818MOL0     H10368  11.194  11.791   8.980  4.0231  0.0282 -0.4044
  818MOL0     H10369  11.039  11.955   8.897  0.9097 -1.5027  0.8141
  818MOL0     H10370  11.061  11.900   8.735 -1.3296 -2.5926  1.4095
  818MOL0     H10371  11.257  12.063   8.886  1.4298  1.9414 -1.1413
  818MOL0     H10372  11.262  12.018   8.713  0.6213  0.8399  0.6745
  818MOL0     H10373  11.193  12.251   8.730  0.7965  0.6694  0.0129
  818MOL0     H10374  11.059  12.151   8.679  0.0741 -0.8004  0.9110
  818MOL0     H10375  11.022  12.343   8.848  2.0632  2.5293  1.4996
  818MOL0     H10376  10.960  12.185   8.903 -0.5199 -0.7181 -3.2139
  818MOL0     H10377  11.207  12.302   9.008 -0.1421 -0.8663  0.5797
  818MOL0     H10378  11.152  12.154   9.058  1.5091  0.5759  0.0487
  818MOL0     H10379  10.988  12.414   9.089 -0.0058  2.0824  4.4652
  818MOL0     H10380  10.953  12.244   9.140  1.9278 -0.8114  0.9523
  818MOL0     H10381  11.068  12.116   9.325 -1.5223  0.5341 -0.4503
  818MOL0     H10382  11.137  12.289   9.685  0.1540 -1.3785  0.4780
  818MOL0     H10383  11.020  12.191   9.609 -0.8650 -1.1258 -0.4536
  818MOL0     H10384  11.202  12.067   9.714  0.0315  0.1577 -0.2061
  818MOL0     H10385  11.210  12.038   9.534 -0.5144  2.0009 -1.2429
  818MOL0     H10386  11.444  12.061   9.641 -0.0214  0.8202  3.1401
  818MOL0     H10387  11.395  12.228   9.681 -1.5022 -0.6728  0.7173
  818MOL0     H10388  11.367  12.281   9.452  1.0133  0.2058 -1.1816
  818MOL0     H10389  11.422  12.126   9.397 -0.0877 -0.4230  1.3750
  818MOL0     H10390  11.402  12.443   9.571  0.8253 -1.8115  0.4843
  818MOL0     H10391  11.472  12.692   9.571  3.4784  2.2784 -0.6813
  818MOL0     H10392  11.786  13.034   9.416 -3.1812 -1.3261 -0.0257
  818MOL0     H10393  11.845  13.275   9.440  0.3383  2.5531  1.9156
  818MOL0     H10394  11.889  13.417   9.871  2.0892  0.9735  0.4750
  818MOL0     H10395  11.994  13.334   9.747 -1.7869 -2.0165 -2.3488
  818MOL0     H10396  11.940  13.630   9.762 -0.0268  0.5726  4.1800
  818MOL0     H10397  12.067  13.563   9.846 -0.7473  2.6232  0.8464
  818MOL0     H10398  12.156  13.448   9.607  3.7622  1.0569 -0.5609
  818MOL0     H10399  12.026  13.535   9.545  0.6087  1.1859 -1.0612
  818MOL0     H10400  12.264  13.690   9.680 -1.2190  1.7784  1.5445
  818MOL0     H10401  12.119  13.764   9.650  2.5300  3.1359  1.7499
  818MOL0     H10402  12.293  13.774   9.459  1.7057 -2.0759 -3.4594
  818MOL0     H10403  12.137  13.714   9.408 -0.8322  1.4738  1.6745
  818MOL0     H10404  12.349  13.524   9.523  0.2086  1.3702  0.8999
  818MOL0     H10405  12.230  13.492   9.391 -1.8427  0.7675  0.4103
  818MOL0     H10406  12.486  13.664   9.357 -0.8090 -0.5993  0.2731
  818MOL0     H10407  12.355  13.656   9.240 -0.2982  2.0745  0.4971
  818MOL0     H10408  12.528  13.521   9.168  0.5010  0.5463  1.4447
  818MOL0     H10409  12.537  13.413   9.310  1.0608 -1.7217 -1.6328
  818MOL0     H10410  11.667  13.269   9.836 -2.5206 -1.6100 -0.4830
  818MOL0     H10411  11.593  13.019   9.790  0.0338  1.2718  2.3826
  818MOL0     H10412  11.868  12.581   9.452  0.1981 -0.7354 -0.1797
  818MOL0     H10413  11.794  12.343   9.438  0.8397 -0.4208  2.9057
  818MOL0     H10414  11.123  11.490   8.626 -0.3137  1.7999  0.3489
  818MOL0     H10415  10.999  11.300   8.512 -2.1409 -3.1191  0.4467
  818MOL0     H10416  10.870  11.060   8.290  0.6257 -2.9349  2.9557
  818MOL0     H10417  10.798  10.840   8.154 -1.2195  1.1826 -2.3497
  818MOL0     H10418  10.693  10.637   8.097 -0.1635  1.6234  2.4451
  818MOL0     H10419  10.679  10.766   7.973  3.0448 -2.7337 -0.6900
  818MOL0     H10420  10.601  10.527   7.912  0.8122  2.8133 -1.5568
  818MOL0     H10421  10.502  10.678   7.879 -0.0554  3.6797  3.7940
  818MOL0     H10422  10.346  10.635   8.046  1.8030  1.3487  0.8128
  818MOL0     H10423  10.435  10.509   8.123 -2.8372  1.6957  0.5796
  818MOL0     H10424  10.318  10.465   7.845  0.8634 -0.9937  0.4108
  818MOL0     H10425  10.412  10.360   7.954  1.0668 -0.0629 -3.5480
  818MOL0     H10426  10.037  10.285   8.111 -0.0792 -1.5759  0.5111
  818MOL0     H10427  10.401  10.960   8.208  0.4195  1.0449 -0.9035
  818MOL0     H10428  10.351  11.152   8.350 -0.1556 -0.9588 -0.3596
  818MOL0     H10429  10.488  11.249   8.434 -1.2958 -0.7826  0.9582
  818MOL0     H10430  10.433  11.276   8.265 -0.7292  1.2659  1.4001
  819MOL0     O10431   7.596  10.476   6.952 -0.4609 -0.6398 -0.1156
  819MOL0     C10432   7.609  10.454   7.072 -0.2452 -0.2854 -0.6109
  819MOL0     O10433   7.512  10.423   7.160 -0.2110  0.6516 -0.1819
  819MOL0     C10434   7.396  10.494   7.144  0.9059 -0.2285  0.8487
  819MOL0     C10435   7.280  10.420   7.161 -0.9213  0.1013  0.7062
  819MOL0     C10436   7.162  10.479   7.161  0.7105 -0.2301 -0.4018
  819MOL0     C10437   7.149  10.614   7.133  0.5442 -0.3770 -0.5882
  819MOL0     O10438   7.031  10.685   7.116 -0.7644  0.4104 -0.6606
  819MOL0     C10439   6.944  10.665   7.216  0.9621 -0.6799 -0.2824
  819MOL0     C10440   6.986  10.718   7.353  0.6552 -0.3523 -0.1119
  819MOL0     C10441   6.860  10.717   7.442  0.2390 -0.5700  0.4313
  819MOL0     C10442   6.829  10.581   7.498  0.2252  1.2779 -0.1256
  819MOL0     C10443   6.935  10.519   7.593  0.0292 -0.3393 -0.0184
  819MOL0     C10444   6.912  10.367   7.615  0.3330  0.4061  0.0728
  819MOL0     C10445   7.002  10.298   7.712 -0.4457  0.5590  0.7025
  819MOL0     C10446   7.148  10.336   7.728  1.3275 -1.0052 -0.4777
  819MOL0     N10447   7.236  10.283   7.625  0.2376 -0.4717  0.4327
  819MOL0     C10448   7.233  10.160   7.571  0.7313 -0.5123  0.8637
  819MOL0     C10449   7.346  10.158   7.493 -1.0293  0.0670 -0.3649
  819MOL0     C10450   7.405  10.035   7.421 -0.4526  0.5190 -0.1670
  819MOL0     C10451   7.403  10.049   7.267 -0.2165  0.5235  1.1564
  819MOL0     C10452   7.258  10.019   7.215  0.5288 -0.2726  0.6192
  819MOL0     C10453   7.234  10.035   7.065  0.1548  1.1482  0.5308
  819MOL0     O10454   7.096   9.998   7.023 -0.9995 -0.1297 -0.2981
  819MOL0     C10455   7.079   9.864   6.987  0.2079  0.3450  0.1344
  819MOL0     C10456   7.160   9.759   7.016 -0.1971 -0.2474 -0.9884
  819MOL0     C10457   7.155   9.630   6.959 -0.3399 -0.1070 -0.4861
  819MOL0     C10458   7.053   9.603   6.862 -0.2874  1.3082 -0.9113
  819MOL0     C10459   7.030   9.471   6.802  0.3634  0.1539  0.1284
  819MOL0     O10460   7.132   9.386   6.815 -0.3154  0.5532  0.7890
  819MOL0     C10461   7.137   9.276   6.732  0.9512  0.5561 -0.3975
  819MOL0     C10462   7.098   9.272   6.597  0.5546  0.1652  0.2023
  819MOL0     C10463   7.106   9.158   6.517  1.2200 -0.9986 -1.1543
  819MOL0     C10464   7.162   9.039   6.560 -0.0763  0.8597 -0.5849
  819MOL0     O10465   7.153   8.929   6.475  0.3954  0.3600  0.7798
  819MOL0     C10466   7.139   8.797   6.538  0.5196  0.5826 -0.1756
  819MOL0     C10467   7.236   8.697   6.484 -0.4906  0.9754 -0.4286
  819MOL0     C10468   7.202   8.670   6.339  0.1700 -0.3968  0.4878
  819MOL0     C10469   7.155   8.526   6.306 -0.6833 -0.1603  0.0588
  819MOL0     C10470   7.196   8.495   6.160  0.3209  0.2400 -0.4246
  819MOL0     C10471   7.170   8.344   6.126  1.1759 -0.6730  0.1065
  819MOL0     C10472   7.129   8.318   5.983  0.2494 -0.6748  0.5883
  819MOL0     C10473   7.101   8.170   5.960 -0.8824  0.2234 -0.4120
  819MOL0    Cl10474   7.041   8.128   5.793  0.0490  0.5160 -0.1885
  819MOL0     C10475   7.198   9.041   6.699  0.0321 -0.1865  0.1934
  819MOL0     C10476   7.186   9.154   6.780 -0.3380 -0.7678  1.0624
  819MOL0     O10477   6.922   9.447   6.746  0.1646  0.2787  0.7248
  819MOL0     C10478   6.968   9.703   6.829 -0.1500 -1.0927  0.3702
  819MOL0     C10479   6.976   9.833   6.889  1.0879  0.3149 -0.5707
  819MOL0     N10480   7.414  10.270   7.513 -0.7151 -0.4475  0.5541
  819MOL0     N10481   7.345  10.350   7.587  0.9491  0.3501 -0.4703
  819MOL0     C10482   7.263  10.686   7.126  0.3071 -0.0859 -1.3483
  819MOL0     C10483   7.388  10.635   7.112  0.3597  0.8390  0.4712
  819MOL0     C10484   7.746  10.436   7.132 -0.8819 -0.5250 -0.0136
  819MOL0     C10485   7.838  10.512   7.071  0.2915 -0.7996  1.2562
  819MOL0     C10486   7.976  10.491   7.074 -0.3672  0.4877  0.1446
  819MOL0     C10487   8.038  10.391   7.157  1.2283  0.1113 -0.0098
  819MOL0     O10488   8.175  10.363   7.171 -0.7995  1.1083 -0.1536
  819MOL0     C10489   8.272  10.441   7.099  0.2377 -0.6100  1.0400
  819MOL0     C10490   8.396  10.429   7.182  0.0186 -0.0719 -0.2289
  819MOL0     C10491   8.515  10.500   7.112 -0.5124 -1.0525 -0.8510
  819MOL0     C10492   8.574  10.598   7.220  0.3015  0.2248  1.2374
  819MOL0     C10493   8.653  10.524   7.326  0.3017  0.6412 -0.5743
  819MOL0     C10494   8.729  10.461   7.397  1.0640  0.0240 -1.0095
  819MOL0     C10495   7.943  10.315   7.231  0.0301 -1.1028  1.0985
  819MOL0     C10496   7.802  10.328   7.216 -0.0637  0.4226  0.2530
  819MOL0     C10497   7.709  10.246   7.300  0.3470  0.7102  0.6276
  819MOL0     H10498   7.298  10.314   7.176  1.2071  0.5300  1.5927
  819MOL0     H10499   7.078  10.416   7.190  0.4269  0.7697  1.0796
  819MOL0     H10500   6.851  10.707   7.178 -0.3748 -1.7372  1.6187
  819MOL0     H10501   6.925  10.557   7.215  0.2559 -0.5870 -2.7228
  819MOL0     H10502   7.021  10.821   7.343 -2.0516  0.5516 -1.2443
  819MOL0     H10503   7.078  10.665   7.379  0.9913  0.5369  0.5835
  819MOL0     H10504   6.776  10.760   7.388 -0.3455 -2.0968  0.0905
  819MOL0     H10505   6.879  10.786   7.526 -0.3319  0.2986 -0.1352
  819MOL0     H10506   6.732  10.599   7.545 -0.2522  2.8665 -1.6190
  819MOL0     H10507   6.820  10.509   7.416 -1.2628  0.2656  0.8766
  819MOL0     H10508   7.032  10.524   7.543  0.6346 -2.3085  0.8457
  819MOL0     H10509   6.924  10.565   7.692  3.3325  3.0335 -0.9587
  819MOL0     H10510   6.810  10.345   7.647  0.0776 -0.6032 -1.3605
  819MOL0     H10511   6.925  10.324   7.515  4.9270 -0.6696  0.9012
  819MOL0     H10512   6.983  10.195   7.682 -3.2066  1.3824 -0.7715
  819MOL0     H10513   6.966  10.312   7.814 -1.3808 -1.8365  0.7777
  819MOL0     H10514   7.157  10.445   7.730  0.0269 -0.7499 -3.6576
  819MOL0     H10515   7.182  10.294   7.823 -1.9921 -2.6608  0.1247
  819MOL0     H10516   7.158  10.082   7.583  0.9598 -1.4555 -2.6070
  819MOL0     H10517   7.504  10.008   7.459  0.2903  0.1377 -2.1986
  819MOL0     H10518   7.336   9.956   7.450  1.1984 -0.3294  1.7178
  819MOL0     H10519   7.429  10.153   7.243 -0.3440  0.5318  1.0568
  819MOL0     H10520   7.469   9.982   7.211 -4.4720 -1.3803 -2.1446
  819MOL0     H10521   7.193  10.092   7.265  0.9569  0.0025  0.7734
  819MOL0     H10522   7.227   9.920   7.250  2.4701 -0.5692  1.6378
  819MOL0     H10523   7.315   9.980   7.015 -2.3982 -1.6454 -0.8559
  819MOL0     H10524   7.258  10.138   7.035 -0.2396  1.0676 -0.0768
  819MOL0     H10525   7.225   9.766   7.103 -2.8693  0.3806  1.1157
  819MOL0     H10526   7.217   9.550   6.998  0.9040  1.5659  1.1474
  819MOL0     H10527   7.046   9.356   6.553 -1.9221 -1.3472  0.0050
  819MOL0     H10528   7.064   9.172   6.418 -0.1628  0.6136 -0.3931
  819MOL0     H10529   7.155   8.803   6.646 -0.5118  1.3366 -0.0594
  819MOL0     H10530   7.040   8.754   6.520  0.5911 -0.1104  0.9602
  819MOL0     H10531   7.341   8.723   6.502 -0.2569  0.9313 -1.6448
  819MOL0     H10532   7.224   8.605   6.543 -0.7008  0.6614 -0.9487
  819MOL0     H10533   7.125   8.740   6.306  0.3567  0.0062  0.8957
  819MOL0     H10534   7.287   8.704   6.279 -0.6871  2.4809  0.7623
  819MOL0     H10535   7.047   8.514   6.319 -0.8665  0.4366 -0.8505
  819MOL0     H10536   7.222   8.465   6.367 -1.3172 -0.5844  0.3411
  819MOL0     H10537   7.301   8.522   6.151  0.2786  0.6186  0.1813
  819MOL0     H10538   7.140   8.561   6.092  0.4347  0.7508 -0.0314
  819MOL0     H10539   7.262   8.287   6.143  2.4590  0.9591 -1.0535
  819MOL0     H10540   7.096   8.307   6.197  1.2377 -2.6954 -0.8114
  819MOL0     H10541   7.213   8.348   5.920  1.0711  0.0712  1.9892
  819MOL0     H10542   7.041   8.376   5.955  0.7558  0.0840  0.5474
  819MOL0     H10543   7.194   8.113   5.973 -0.2560  1.1029 -0.9295
  819MOL0     H10544   7.033   8.144   6.041  0.7599 -1.6324  0.4659
  819MOL0     H10545   7.240   8.952   6.747  4.7887  1.1543 -0.9237
  819MOL0     H10546   7.239   9.146   6.874  2.0982  3.2181  0.2792
  819MOL0     H10547   6.877   9.691   6.771 -1.1244  1.0900  1.3147
  819MOL0     H10548   6.898   9.902   6.858  2.3172  1.4588 -1.1886
  819MOL0     H10549   7.255  10.793   7.114 -0.0226  0.1267  0.4764
  819MOL0     H10550   7.471  10.704   7.105  2.2234 -0.6684  4.6608
  819MOL0     H10551   7.807  10.591   7.003  4.3510 -1.1488 -1.3452
  819MOL0     H10552   8.046  10.538   7.005  3.0562 -2.4657  1.3192
  819MOL0     H10553   8.255  10.549   7.104 -0.1559 -0.6961  1.6647
  819MOL0     H10554   8.279  10.406   6.996 -1.5431 -0.2502  0.7675
  819MOL0     H10555   8.413  10.324   7.208  0.5816 -0.3607 -1.6859
  819MOL0     H10556   8.372  10.479   7.276  2.0226 -0.2994  0.4637
  819MOL0     H10557   8.465  10.559   7.034 -0.5619 -0.0180 -0.0477
  819MOL0     H10558   8.599  10.434   7.088  0.6087 -0.8847  2.2159
  819MOL0     H10559   8.649  10.670   7.184 -1.2118  0.6173 -1.3186
  819MOL0     H10560   8.492  10.655   7.263  1.0710  0.2499  2.7571
  819MOL0     H10561   8.778  10.402   7.472 -1.9389 -1.0603  0.2708
  819MOL0     H10562   7.969  10.223   7.283 -1.3708 -3.1491 -1.5529
  819MOL0     H10563   7.742  10.162   7.361 -0.6841 -1.8345 -2.0389
  819MOL0     H10564   7.639  10.300   7.365 -1.5562  1.5523 -1.9578
  819MOL0     H10565   7.640  10.196   7.231 -1.4157  2.2650  1.1672
  820MOL0     O10566   2.892   1.115   2.291  0.0514  0.0338 -0.2758
  820MOL0     C10567   2.890   1.212   2.361 -0.7784 -0.1447 -0.1093
  820MOL0     O10568   3.001   1.280   2.415  0.7715  0.1939 -0.0216
  820MOL0     C10569   3.124   1.225   2.386 -0.0066 -0.0248  0.4502
  820MOL0     C10570   3.190   1.233   2.261  0.2853 -0.7561 -0.4639
  820MOL0     C10571   3.321   1.176   2.255  0.1660  0.0468 -0.0475
  820MOL0     C10572   3.388   1.117   2.370 -0.6705  0.3783  0.7639
  820MOL0     O10573   3.517   1.080   2.353 -0.3770  0.7349 -0.5210
  820MOL0     C10574   3.615   1.092   2.455 -0.7408 -0.2821  0.3189
  820MOL0     C10575   3.724   1.183   2.377  0.4084 -0.1981 -0.3006
  820MOL0     C10576   3.713   1.331   2.415 -0.0159  1.1103 -0.0241
  820MOL0     C10577   3.596   1.408   2.342 -0.5447  0.2197  0.2369
  820MOL0     C10578   3.618   1.553   2.302 -0.1492 -0.2386 -0.9224
  820MOL0     C10579   3.730   1.582   2.196 -0.6927  0.0584  0.1889
  820MOL0     C10580   3.740   1.733   2.166 -0.0174 -1.0836 -0.3030
  820MOL0     C10581   3.805   1.814   2.279  0.3176  0.0878 -0.6735
  820MOL0     N10582   3.937   1.863   2.232  0.6831 -0.7408  0.2899
  820MOL0     C10583   3.955   1.966   2.138 -0.1084  0.1070 -0.1121
  820MOL0     C10584   4.085   1.987   2.138 -0.5355  0.7678  0.5389
  820MOL0     C10585   4.164   2.097   2.068 -0.4209  0.3039 -0.0967
  820MOL0     C10586   4.177   2.057   1.924  0.8627  0.2493  0.7978
  820MOL0     C10587   4.277   1.943   1.895  0.0705  0.1666 -1.6025
  820MOL0     C10588   4.296   1.921   1.755  0.0636 -0.2302  0.0790
  820MOL0     O10589   4.387   2.021   1.698 -0.2681  0.1335 -0.5892
  820MOL0     C10590   4.430   1.990   1.568 -0.6254 -0.2657  0.7225
  820MOL0     C10591   4.386   1.895   1.481  0.5080  0.5006  0.9234
  820MOL0     C10592   4.443   1.876   1.359 -0.7083  0.4102 -0.2270
  820MOL0     C10593   4.555   1.942   1.304  0.0228  1.1387  0.7157
  820MOL0     C10594   4.622   1.916   1.172 -0.3269 -0.5021 -0.4054
  820MOL0     O10595   4.553   1.858   1.073  0.1423 -0.5613  0.3082
  820MOL0     C10596   4.606   1.809   0.950 -0.0819 -0.1463  0.9061
  820MOL0     C10597   4.610   1.679   0.929 -0.3545  0.2621 -0.8719
  820MOL0     C10598   4.664   1.624   0.812 -0.3714 -0.3276  0.1941
  820MOL0     C10599   4.690   1.710   0.705 -0.6396  0.1452 -0.7640
  820MOL0     O10600   4.723   1.672   0.579 -0.5106 -0.4510 -0.3253
  820MOL0     C10601   4.706   1.530   0.557  0.5473 -0.7753  0.2915
  820MOL0     C10602   4.721   1.501   0.409  0.7286  0.0736  0.7939
  820MOL0     C10603   4.864   1.478   0.356 -0.2484  0.2854  0.3279
  820MOL0     C10604   4.928   1.348   0.392 -0.4290  0.0923  0.5355
  820MOL0     C10605   5.045   1.326   0.297  0.1775 -0.4216 -1.0189
  820MOL0     C10606   5.092   1.179   0.318 -0.6740  0.3010  0.4946
  820MOL0     C10607   5.236   1.145   0.304 -0.0484  0.3033 -0.8675
  820MOL0     C10608   5.316   1.202   0.193  1.3302  0.5010  0.2199
  820MOL0    Cl10609   5.469   1.117   0.207 -0.1799  0.2050  0.1532
  820MOL0     C10610   4.678   1.847   0.725  0.6728 -0.2580 -0.7937
  820MOL0     C10611   4.641   1.903   0.848  0.0175  0.9000  0.0087
  820MOL0     O10612   4.741   1.942   1.173  0.2229  0.1487  0.2490
  820MOL0     C10613   4.599   2.046   1.391 -0.1621  0.3482  1.0454
  820MOL0     C10614   4.529   2.070   1.514 -0.3501 -1.0633  0.5180
  820MOL0     N10615   4.146   1.908   2.235 -1.0084  0.0727  0.8900
  820MOL0     N10616   4.058   1.829   2.293  0.0626 -0.4710 -0.9246
  820MOL0     C10617   3.315   1.113   2.494  0.3603  0.2558  0.0028
  820MOL0     C10618   3.180   1.161   2.497 -0.5143 -1.0617  0.6122
  820MOL0     C10619   2.757   1.269   2.376  0.1349  0.1399 -0.1547
  820MOL0     C10620   2.667   1.240   2.272 -0.2276  0.0567  0.2819
  820MOL0     C10621   2.536   1.294   2.276 -0.4564 -0.7351 -0.6449
  820MOL0     C10622   2.488   1.362   2.386  0.1005  0.0813  0.4415
  820MOL0     O10623   2.366   1.420   2.377 -0.3493 -0.1698  0.2459
  820MOL0     C10624   2.295   1.450   2.252 -0.9094  0.7269 -0.3711
  820MOL0     C10625   2.182   1.544   2.282 -1.0757  0.2781 -0.1450
  820MOL0     C10626   2.078   1.535   2.175 -0.5306 -0.2594 -1.2000
  820MOL0     C10627   1.956   1.628   2.199  0.3274 -0.7614 -0.0631
  820MOL0     C10628   1.859   1.624   2.088  0.7727  1.0148  0.4825
  820MOL0     C10629   1.779   1.621   1.989  0.0087 -0.2525  0.2585
  820MOL0     C10630   2.579   1.399   2.482 -1.5505  0.2321 -0.4280
  820MOL0     C10631   2.712   1.343   2.485  0.2393 -0.9630 -0.3208
  820MOL0     C10632   2.797   1.376   2.609 -0.4484 -0.5332  0.6403
  820MOL0     H10633   3.134   1.270   2.176 -1.7813 -2.5154  0.0433
  820MOL0     H10634   3.376   1.180   2.162 -1.4461  0.5977 -1.0283
  820MOL0     H10635   3.579   1.132   2.551 -2.1281 -1.1788  0.2047
  820MOL0     H10636   3.641   0.989   2.481  2.4615  1.0183  2.8916
  820MOL0     H10637   3.703   1.159   2.272 -0.8070 -3.7181  0.6060
  820MOL0     H10638   3.815   1.148   2.426 -0.2385 -0.2354  0.8942
  820MOL0     H10639   3.805   1.385   2.390  0.8529 -0.7462 -1.0721
  820MOL0     H10640   3.727   1.343   2.523  2.6007 -2.5298  0.2240
  820MOL0     H10641   3.591   1.354   2.247 -2.7544 -1.9705  1.4521
  820MOL0     H10642   3.500   1.396   2.393  0.4610  0.2832  2.2329
  820MOL0     H10643   3.522   1.597   2.272 -0.2614  0.3603  0.2465
  820MOL0     H10644   3.654   1.595   2.397  0.6052 -2.9137  0.0672
  820MOL0     H10645   3.828   1.544   2.225 -0.0582 -1.8555 -3.7593
  820MOL0     H10646   3.703   1.534   2.101 -0.1809 -3.3908  1.6264
  820MOL0     H10647   3.645   1.785   2.149  2.0840  2.8843 -0.9690
  820MOL0     H10648   3.798   1.749   2.075  1.1177 -2.5173  0.1345
  820MOL0     H10649   3.734   1.889   2.315 -0.4469 -0.8151 -0.2670
  820MOL0     H10650   3.813   1.751   2.368  0.7028  1.2030  0.1024
  820MOL0     H10651   3.878   2.007   2.073 -1.9188 -1.5501  0.8720
  820MOL0     H10652   4.112   2.192   2.084  1.7832  1.0316  4.4420
  820MOL0     H10653   4.265   2.106   2.110 -0.5839 -1.6247  0.7971
  820MOL0     H10654   4.080   2.046   1.875  1.6179  1.0435 -0.9509
  820MOL0     H10655   4.218   2.148   1.880 -0.8722  1.0458  0.7614
  820MOL0     H10656   4.238   1.848   1.934 -0.3659  1.3189  0.9108
  820MOL0     H10657   4.372   1.971   1.941 -1.7779  4.1423  0.2359
  820MOL0     H10658   4.199   1.924   1.704  0.2025 -1.2922 -0.2566
  820MOL0     H10659   4.337   1.824   1.726 -1.0456 -1.5198  2.5510
  820MOL0     H10660   4.312   1.820   1.507  1.4237 -1.3914 -1.5027
  820MOL0     H10661   4.415   1.786   1.306  1.2678  0.5482 -1.6503
  820MOL0     H10662   4.594   1.622   1.020  3.0665  1.9506  1.0014
  820MOL0     H10663   4.678   1.517   0.804  3.1237 -0.2229  2.7957
  820MOL0     H10664   4.783   1.472   0.610 -0.1182 -0.4561  1.6412
  820MOL0     H10665   4.602   1.515   0.585 -0.0378  3.3998  1.0272
  820MOL0     H10666   4.663   1.412   0.382  1.2012 -0.4861  1.5610
  820MOL0     H10667   4.673   1.582   0.354 -1.5766  0.7185  3.5195
  820MOL0     H10668   4.848   1.476   0.248 -0.1291  2.3981  0.2378
  820MOL0     H10669   4.933   1.560   0.375  0.1061  0.4260 -1.3628
  820MOL0     H10670   4.857   1.267   0.370  2.7978 -2.5666 -1.1489
  820MOL0     H10671   4.962   1.328   0.494  1.8261 -0.9164 -0.3577
  820MOL0     H10672   5.129   1.391   0.322 -0.6377 -1.0532  4.7985
  820MOL0     H10673   5.007   1.341   0.196 -2.3798  2.0588  0.1908
  820MOL0     H10674   5.060   1.142   0.416 -1.1845  0.1648  0.2810
  820MOL0     H10675   5.028   1.116   0.256 -1.1576 -1.0655  2.2793
  820MOL0     H10676   5.230   1.036   0.313  0.4598  0.3045 -0.4736
  820MOL0     H10677   5.284   1.165   0.400  2.0568  0.8252 -1.9755
  820MOL0     H10678   5.274   1.160   0.102 -0.1383 -0.9902  1.5390
  820MOL0     H10679   5.318   1.311   0.180 -2.4055  0.3929 -2.8023
  820MOL0     H10680   4.699   1.915   0.643 -0.3905  0.6588 -0.3281
  820MOL0     H10681   4.638   2.010   0.863  1.9046  1.3895 -2.4975
  820MOL0     H10682   4.686   2.103   1.359 -1.4275  1.9170  0.2451
  820MOL0     H10683   4.573   2.149   1.574  4.6626 -0.8819 -2.7633
  820MOL0     H10684   3.344   1.046   2.575 -0.1423 -0.9553 -0.8037
  820MOL0     H10685   3.130   1.159   2.593 -1.3713 -1.1189  0.1777
  820MOL0     H10686   2.692   1.164   2.198 -4.0636 -2.3152  1.1572
  820MOL0     H10687   2.475   1.270   2.189  2.5491 -4.1543 -2.0789
  820MOL0     H10688   2.258   1.353   2.217 -0.3681  0.6236 -0.6607
  820MOL0     H10689   2.347   1.498   2.168 -3.1198 -0.3488 -2.4924
  820MOL0     H10690   2.220   1.646   2.273  0.3939 -0.2545 -0.1722
  820MOL0     H10691   2.154   1.527   2.387  3.0035 -2.5380  0.7129
  820MOL0     H10692   2.041   1.432   2.173 -1.5899  0.0887 -0.4656
  820MOL0     H10693   2.131   1.562   2.084  0.1997  0.5558 -0.5521
  820MOL0     H10694   1.908   1.591   2.290 -1.9716 -1.1348 -1.3644
  820MOL0     H10695   2.004   1.725   2.217 -0.7627 -0.1631 -0.2850
  820MOL0     H10696   1.729   1.623   1.894  1.7744  0.1033 -0.7082
  820MOL0     H10697   2.529   1.464   2.553 -1.1157  2.0710 -1.7074
  820MOL0     H10698   2.873   1.452   2.588 -1.9741  0.8771  0.0573
  820MOL0     H10699   2.744   1.401   2.702  4.4646  2.0726  3.1340
  820MOL0     H10700   2.856   1.290   2.642 -0.5814 -0.5960  0.7149
  821MOL0     O10701   3.136   4.193   8.740  0.8833  0.3219  1.3353
  821MOL0     C10702   3.182   4.077   8.732 -0.1934 -0.7940 -1.1224
  821MOL0     O10703   3.147   3.974   8.810 -0.4297  0.6085  0.4296
  821MOL0     C10704   3.062   3.984   8.920 -0.3232 -0.0083 -0.3779
  821MOL0     C10705   3.104   3.918   9.042 -0.3329 -0.4207 -1.1149
  821MOL0     C10706   3.029   3.940   9.154 -0.8953 -0.1713 -0.4742
  821MOL0     C10707   2.912   4.018   9.154 -0.3480 -0.4533  0.2759
  821MOL0     O10708   2.850   4.034   9.271  0.5382  0.1053  0.2666
  821MOL0     C10709   2.713   4.076   9.261  0.2319 -0.3920  0.2226
  821MOL0     C10710   2.664   4.090   9.398 -0.9148 -0.1332 -0.1260
  821MOL0     C10711   2.694   4.224   9.452 -1.0369  0.1553 -0.5126
  821MOL0     C10712   2.609   4.261   9.573 -0.4378  0.8229  0.8921
  821MOL0     C10713   2.630   4.407   9.615 -0.3797 -0.4192 -0.2489
  821MOL0     C10714   2.561   4.453   9.747 -0.2152 -0.1102 -1.0365
  821MOL0     C10715   2.600   4.363   9.871 -0.3923  0.2160  0.0086
  821MOL0     C10716   2.701   4.419   9.963 -0.2115 -0.0490  0.1860
  821MOL0     N10717   2.643   4.528  10.039  0.0047 -0.3418 -0.3092
  821MOL0     C10718   2.666   4.663  10.018  0.2392 -0.0976  0.3133
  821MOL0     C10719   2.584   4.730  10.108 -0.2491  0.3716 -0.0615
  821MOL0     C10720   2.594   4.878  10.124 -0.2083 -0.4324  0.1110
  821MOL0     C10721   2.470   4.953  10.083  0.0243  0.3170 -0.1531
  821MOL0     C10722   2.482   5.100  10.121  0.2535 -0.1820 -0.2910
  821MOL0     C10723   2.365   5.176  10.079  1.0473 -0.2290 -0.4923
  821MOL0     O10724   2.397   5.313  10.111  0.8322 -0.4746  0.6101
  821MOL0     C10725   2.294   5.404  10.122  0.3715  0.7584  0.8108
  821MOL0     C10726   2.155   5.377  10.140 -0.3142 -0.2825 -0.7839
  821MOL0     C10727   2.072   5.488  10.152  0.7408 -0.0531 -0.0503
  821MOL0     C10728   2.107   5.628  10.150  0.0323  0.0809  0.5570
  821MOL0     C10729   2.008   5.738  10.169 -0.7576 -0.5687 -1.2446
  821MOL0     O10730   1.883   5.702  10.210  0.1368 -0.1476 -0.1088
  821MOL0     C10731   1.786   5.805  10.223  0.3974 -0.1223  1.0364
  821MOL0     C10732   1.796   5.923  10.302 -0.6332  0.6396  0.5220
  821MOL0     C10733   1.686   6.009  10.313  0.4580  0.2826  0.8726
  821MOL0     C10734   1.560   5.989  10.254 -0.7129 -1.1268 -0.1410
  821MOL0     O10735   1.458   6.080  10.275  0.1167  0.7586 -0.5329
  821MOL0     C10736   1.332   6.034  10.288 -0.1736  0.7166  0.3241
  821MOL0     C10737   1.247   6.079  10.162  0.8164 -0.1189  0.2455
  821MOL0     C10738   1.101   6.078  10.200  0.3927 -0.1192  0.1295
  821MOL0     C10739   1.056   6.202  10.281  0.1987  0.5414  0.1363
  821MOL0     C10740   0.906   6.198  10.316  0.7518  0.6785 -0.1827
  821MOL0     C10741   0.855   6.319  10.403 -0.0270 -1.1230  0.7164
  821MOL0     C10742   0.717   6.289  10.461  0.4659  1.2398 -0.6330
  821MOL0     C10743   0.648   6.394  10.544  0.0124  0.0686 -0.0947
  821MOL0    Cl10744   0.475   6.348  10.579  0.0159  0.1515  0.0409
  821MOL0     C10745   1.554   5.878  10.166 -0.1219  0.3433 -0.3869
  821MOL0     C10746   1.667   5.790  10.142  0.3688  0.2484  0.5300
  821MOL0     O10747   2.053   5.848  10.160 -0.2508 -0.5593  0.3976
  821MOL0     C10748   2.240   5.650  10.153 -0.2199  0.7610  0.0956
  821MOL0     C10749   2.334   5.542  10.134 -0.2118 -1.0212  0.5104
  821MOL0     N10750   2.502   4.636  10.165  0.5061 -0.5778  0.4322
  821MOL0     N10751   2.550   4.514  10.140 -0.1739  0.2932 -0.1917
  821MOL0     C10752   2.868   4.058   9.024  0.3641 -0.3590  0.5480
  821MOL0     C10753   2.948   4.045   8.916  0.9586 -0.0947  0.4349
  821MOL0     C10754   3.282   4.053   8.621  0.3217  0.3869 -0.2411
  821MOL0     C10755   3.252   4.106   8.495  0.1671  0.8968 -0.5725
  821MOL0     C10756   3.336   4.089   8.385  0.0873  0.2527  0.7083
  821MOL0     C10757   3.448   4.004   8.394  0.3006 -0.2505 -0.2263
  821MOL0     O10758   3.537   3.967   8.300 -0.4240  0.9064 -0.0891
  821MOL0     C10759   3.528   4.046   8.180 -0.4884  0.4136 -0.3387
  821MOL0     C10760   3.638   4.010   8.076  0.7908 -0.3091  0.3063
  821MOL0     C10761   3.665   3.864   8.045  0.3329  0.2683  0.1427
  821MOL0     C10762   3.545   3.774   7.999  0.1984 -0.5961 -0.7706
  821MOL0     C10763   3.507   3.804   7.862 -0.7988  0.1379 -0.1516
  821MOL0     C10764   3.487   3.826   7.747 -0.2451 -0.2880  0.3609
  821MOL0     C10765   3.478   3.934   8.508  0.4432 -0.0206  0.3804
  821MOL0     C10766   3.391   3.954   8.624 -0.3187 -0.5706  0.1947
  821MOL0     C10767   3.433   3.890   8.749 -0.7877 -0.1698 -0.3755
  821MOL0     H10768   3.188   3.850   9.047 -0.0860 -0.0220  1.8344
  821MOL0     H10769   3.056   3.904   9.253  1.6136  1.6773 -0.3836
  821MOL0     H10770   2.698   4.175   9.216 -0.4945 -0.6768 -0.1762
  821MOL0     H10771   2.648   4.006   9.209 -1.4208  1.5799 -0.5152
  821MOL0     H10772   2.699   4.010   9.463  4.2295  0.9355 -1.1723
  821MOL0     H10773   2.555   4.083   9.404 -0.8844  0.3672  1.4793
  821MOL0     H10774   2.679   4.302   9.377 -1.3030 -0.1671 -0.7932
  821MOL0     H10775   2.799   4.220   9.486 -0.6677  2.8360 -1.1283
  821MOL0     H10776   2.502   4.244   9.562 -0.1405  0.1530 -1.7051
  821MOL0     H10777   2.641   4.189   9.649  0.3235 -0.5550 -0.6636
  821MOL0     H10778   2.735   4.432   9.636 -0.2822 -2.4279  2.1954
  821MOL0     H10779   2.597   4.470   9.533  0.4486  1.7630  0.9974
  821MOL0     H10780   2.591   4.557   9.761  0.7566 -0.4408 -0.5612
  821MOL0     H10781   2.452   4.444   9.745 -0.3251  1.1362 -3.4697
  821MOL0     H10782   2.609   4.255   9.861 -2.8321 -0.0340 -0.0297
  821MOL0     H10783   2.511   4.359   9.934 -0.3526 -2.6775  0.0154
  821MOL0     H10784   2.729   4.340  10.033  2.9632 -0.6909 -1.6455
  821MOL0     H10785   2.788   4.461   9.913  2.8707 -1.0680  4.1761
  821MOL0     H10786   2.729   4.705   9.941 -3.3982  2.1101 -1.7711
  821MOL0     H10787   2.609   4.899  10.230 -1.7477  0.7810  0.1288
  821MOL0     H10788   2.687   4.907  10.074 -0.5292 -2.5496 -1.8790
  821MOL0     H10789   2.464   4.934   9.975  1.1383  2.1796 -0.5936
  821MOL0     H10790   2.374   4.919  10.122  2.3161 -2.3914  3.7473
  821MOL0     H10791   2.572   5.148  10.081  2.3331 -2.0682  1.8171
  821MOL0     H10792   2.485   5.114  10.230 -1.5695  0.6042 -0.3088
  821MOL0     H10793   2.274   5.152  10.135  0.3333  0.6008 -1.2583
  821MOL0     H10794   2.343   5.156   9.973  4.2590  2.8963 -1.9108
  821MOL0     H10795   2.105   5.281  10.132 -0.7955  0.0046 -1.2586
  821MOL0     H10796   1.970   5.455  10.165  1.7749 -4.5760 -1.4993
  821MOL0     H10797   1.877   5.930  10.375  1.3126  0.9894 -1.5463
  821MOL0     H10798   1.701   6.104  10.363 -3.2006  2.0698 -1.0904
  821MOL0     H10799   1.336   5.925  10.294  1.6595  0.7230 -0.2250
  821MOL0     H10800   1.286   6.083  10.375  0.7478  4.7783 -1.2632
  821MOL0     H10801   1.291   6.173  10.127  0.2210  0.0259 -0.1385
  821MOL0     H10802   1.265   6.011  10.078  2.2206 -0.6336  0.9292
  821MOL0     H10803   1.041   6.096  10.110  0.1411  0.9338  0.4966
  821MOL0     H10804   1.080   5.989  10.260 -2.7642 -1.2267 -2.2716
  821MOL0     H10805   1.083   6.299  10.237  0.5185 -0.6749 -2.5796
  821MOL0     H10806   1.126   6.194  10.364  3.8873  1.5319 -2.6206
  821MOL0     H10807   0.889   6.101  10.364 -0.0195 -0.4552 -2.5769
  821MOL0     H10808   0.855   6.193  10.219  0.4085  1.2014 -0.0308
  821MOL0     H10809   0.930   6.327  10.482  1.5447 -0.4536 -0.7990
  821MOL0     H10810   0.849   6.409  10.341 -3.5524 -2.7256 -1.6297
  821MOL0     H10811   0.715   6.198  10.523 -0.5996  0.8523 -1.2001
  821MOL0     H10812   0.649   6.245  10.388  0.8090 -4.5571  1.9458
  821MOL0     H10813   0.706   6.389  10.636  0.5779 -0.8754 -0.4885
  821MOL0     H10814   0.651   6.496  10.505 -1.6960 -0.3383 -1.4183
  821MOL0     H10815   1.468   5.849  10.107  0.7066 -4.0067  0.2268
  821MOL0     H10816   1.654   5.719  10.061 -1.5191  2.0307 -0.8199
  821MOL0     H10817   2.280   5.750  10.169  0.0875  0.6589 -0.0288
  821MOL0     H10818   2.437   5.557  10.165 -0.5472  3.6107  0.0665
  821MOL0     H10819   2.783   4.124   9.013  3.0642  3.4785  0.5887
  821MOL0     H10820   2.926   4.094   8.822  1.3419 -1.0587 -0.1798
  821MOL0     H10821   3.157   4.159   8.489 -0.2137  0.2545 -0.3807
  821MOL0     H10822   3.305   4.141   8.295 -1.8307 -0.1582  1.1067
  821MOL0     H10823   3.525   4.154   8.202  1.0903  0.5978 -0.8784
  821MOL0     H10824   3.428   4.036   8.137  0.1343 -3.9311 -1.2290
  821MOL0     H10825   3.733   4.054   8.110  0.0945  1.2613  0.2963
  821MOL0     H10826   3.622   4.066   7.983 -1.5057 -0.7641  0.3810
  821MOL0     H10827   3.707   3.820   8.136 -1.6988 -2.1829  0.0128
  821MOL0     H10828   3.741   3.855   7.966 -0.0847  1.4856 -0.4145
  821MOL0     H10829   3.575   3.668   8.001 -1.6577 -1.1965 -1.9751
  821MOL0     H10830   3.450   3.781   8.053  1.3260  1.7816  1.1002
  821MOL0     H10831   3.485   3.824   7.640 -1.1944 -5.3202  0.2550
  821MOL0     H10832   3.564   3.869   8.514  1.3561  1.1102 -0.2365
  821MOL0     H10833   3.401   3.786   8.758  1.1964 -0.7137  1.1273
  821MOL0     H10834   3.542   3.892   8.756 -0.8092  1.2280 -0.2038
  821MOL0     H10835   3.406   3.945   8.840  0.8605  0.8102 -0.4426
  822MOL0     O10836   6.727   3.167   4.473  0.1834  0.2518 -0.1170
  822MOL0     C10837   6.755   3.188   4.592 -0.7597 -0.1348  0.8373
  822MOL0     O10838   6.872   3.142   4.649 -0.6312 -0.5006  0.5517
  822MOL0     C10839   6.910   3.009   4.640  0.1049 -0.1790  0.1097
  822MOL0     C10840   7.035   2.977   4.685 -0.7899  0.0431 -0.9815
  822MOL0     C10841   7.076   2.838   4.685 -0.2929  0.7575 -0.2757
  822MOL0     C10842   6.986   2.733   4.673  0.4567 -0.2830 -1.1079
  822MOL0     O10843   7.032   2.605   4.684  1.3129  0.6032  0.4105
  822MOL0     C10844   6.946   2.496   4.652  0.2719 -0.2667  0.5151
  822MOL0     C10845   7.035   2.372   4.642 -0.5389 -0.7208  0.2474
  822MOL0     C10846   6.956   2.244   4.598  0.6238  0.5212  0.0150
  822MOL0     C10847   7.022   2.109   4.625 -0.8934 -0.0554  0.1421
  822MOL0     C10848   6.955   1.980   4.580  0.0692  0.3365 -0.4028
  822MOL0     C10849   7.052   1.859   4.603  1.0139 -0.5311 -0.4437
  822MOL0     C10850   7.049   1.826   4.760  0.1620  0.2491 -0.1958
  822MOL0     C10851   7.148   1.716   4.801 -0.3251 -1.1039  1.3158
  822MOL0     N10852   7.160   1.600   4.712 -0.4278 -0.8269  0.1381
  822MOL0     C10853   7.244   1.600   4.603  0.2390  0.2057 -0.4081
  822MOL0     C10854   7.221   1.483   4.538  0.2072 -0.0955  0.1040
  822MOL0     C10855   7.295   1.451   4.410  0.0094  0.1407 -0.4452
  822MOL0     C10856   7.426   1.377   4.434  0.2801 -0.3040 -0.0049
  822MOL0     C10857   7.476   1.287   4.317  0.7978 -0.9412 -0.4561
  822MOL0     C10858   7.539   1.151   4.350  0.2659  0.2836  0.3821
  822MOL0     O10859   7.680   1.164   4.359 -0.4700  0.7792 -0.1577
  822MOL0     C10860   7.763   1.063   4.417  0.4978 -0.1225  0.7409
  822MOL0     C10861   7.723   0.953   4.499  0.4730 -0.4866 -0.2703
  822MOL0     C10862   7.821   0.864   4.548  0.2165 -0.0506 -0.0095
  822MOL0     C10863   7.965   0.889   4.544  0.1713 -0.2941 -0.5270
  822MOL0     C10864   8.066   0.802   4.605  1.2680  0.8730 -0.3506
  822MOL0     O10865   8.197   0.836   4.589  0.8490 -0.4326 -0.5585
  822MOL0     C10866   8.288   0.769   4.670  0.7204 -0.1167  1.2970
  822MOL0     C10867   8.388   0.844   4.725  0.0946  0.0023 -0.4403
  822MOL0     C10868   8.489   0.786   4.800  0.8478  0.1737 -0.4893
  822MOL0     C10869   8.499   0.651   4.811  0.0096  0.4513  0.0934
  822MOL0     O10870   8.604   0.596   4.866 -0.5335 -0.1059 -0.4741
  822MOL0     C10871   8.668   0.671   4.969 -0.1471  0.1296 -0.0994
  822MOL0     C10872   8.728   0.561   5.060 -0.3237 -0.7211 -0.2877
  822MOL0     C10873   8.772   0.604   5.194  0.0784 -0.3597  0.0284
  822MOL0     C10874   8.907   0.680   5.174 -0.4766 -0.2071  0.0472
  822MOL0     C10875   8.951   0.724   5.313 -0.4426  0.2814  0.3153
  822MOL0     C10876   9.064   0.837   5.295  0.4914 -0.5687 -0.3528
  822MOL0     C10877   9.122   0.880   5.428  0.7028 -0.3326  1.1843
  822MOL0     C10878   9.232   0.794   5.477 -0.5941 -0.3423  0.1297
  822MOL0    Cl10879   9.312   0.882   5.599 -0.1767  0.0279  0.0469
  822MOL0     C10880   8.411   0.574   4.748 -0.3051  0.0351  0.1661
  822MOL0     C10881   8.299   0.634   4.677  0.2992  0.0986 -0.4559
  822MOL0     O10882   8.022   0.712   4.682  0.6431 -0.5035  0.2835
  822MOL0     C10883   8.001   1.001   4.468  0.9347 -0.2658 -0.1760
  822MOL0     C10884   7.904   1.081   4.410  0.0604  0.0896  0.8240
  822MOL0     N10885   7.120   1.412   4.598  0.1232 -0.3692  0.5115
  822MOL0     N10886   7.091   1.481   4.705  0.2296  0.6444  0.0295
  822MOL0     C10887   6.857   2.770   4.639  0.7517 -0.1439 -0.0959
  822MOL0     C10888   6.819   2.901   4.609 -0.3632 -1.0052 -0.4035
  822MOL0     C10889   6.682   3.288   4.674 -0.6035 -1.1931  0.1918
  822MOL0     C10890   6.723   3.321   4.798  0.5688  0.4975 -0.5900
  822MOL0     C10891   6.661   3.418   4.879  0.5972  0.4827 -0.0629
  822MOL0     C10892   6.554   3.487   4.822  0.6677  1.2066  0.4840
  822MOL0     O10893   6.500   3.579   4.905 -0.2416 -0.6453 -0.2726
  822MOL0     C10894   6.359   3.634   4.877 -0.2278  0.4154 -0.1651
  822MOL0     C10895   6.312   3.721   4.987 -0.1324  1.1758 -0.2290
  822MOL0     C10896   6.299   3.642   5.127  1.0160 -0.6188  0.5510
  822MOL0     C10897   6.272   3.725   5.251  0.3932 -0.7437 -0.0324
  822MOL0     C10898   6.171   3.831   5.228 -0.5984 -0.6191  0.9294
  822MOL0     C10899   6.103   3.927   5.230  0.2347 -0.6579  0.5522
  822MOL0     C10900   6.515   3.467   4.688  1.0447 -0.5865 -0.5749
  822MOL0     C10901   6.577   3.369   4.618  0.3501 -0.0820  0.7398
  822MOL0     C10902   6.541   3.359   4.473 -0.1425  0.3398  0.0120
  822MOL0     H10903   7.105   3.055   4.714 -1.6769  1.3645 -2.2565
  822MOL0     H10904   7.179   2.817   4.715 -0.6974  1.5034  1.7871
  822MOL0     H10905   6.869   2.483   4.730  1.9327  1.7768  2.6486
  822MOL0     H10906   6.895   2.497   4.555 -0.2782 -5.0414  0.5006
  822MOL0     H10907   7.076   2.361   4.743 -2.2477  1.9385  1.3368
  822MOL0     H10908   7.116   2.384   4.569 -1.4008  4.0352 -0.2253
  822MOL0     H10909   6.953   2.248   4.489  1.2711 -1.0138 -0.0789
  822MOL0     H10910   6.850   2.247   4.627  0.0965 -0.1844 -1.7209
  822MOL0     H10911   7.116   2.116   4.570 -1.6721  2.6944 -0.9893
  822MOL0     H10912   7.036   2.116   4.734 -0.0046  4.6863 -0.0515
  822MOL0     H10913   6.854   1.970   4.621  0.3074 -0.0405  0.0997
  822MOL0     H10914   6.943   1.991   4.472 -1.8833 -0.4926 -0.3141
  822MOL0     H10915   7.015   1.768   4.554  2.2350 -0.8044 -0.9097
  822MOL0     H10916   7.152   1.888   4.570  0.9825 -0.6554 -0.6496
  822MOL0     H10917   6.945   1.799   4.783  0.4048 -0.3194  0.2401
  822MOL0     H10918   7.059   1.914   4.825 -4.7078 -1.5995  3.7914
  822MOL0     H10919   7.245   1.763   4.821 -1.2735  1.2192  0.7143
  822MOL0     H10920   7.117   1.684   4.901 -4.5992 -0.6765  0.3124
  822MOL0     H10921   7.320   1.674   4.578  0.4076 -0.1242 -0.8921
  822MOL0     H10922   7.236   1.390   4.341  0.1601  0.3276 -0.7441
  822MOL0     H10923   7.305   1.552   4.371 -0.8219 -0.2580 -1.7468
  822MOL0     H10924   7.506   1.441   4.473  0.0088 -2.7536  5.4567
  822MOL0     H10925   7.398   1.296   4.502 -3.5502  1.7369  1.1447
  822MOL0     H10926   7.546   1.345   4.255  2.0528 -1.4080  0.4982
  822MOL0     H10927   7.394   1.268   4.248 -0.5272 -3.0611  1.5678
  822MOL0     H10928   7.518   1.077   4.273 -0.7278  1.5063 -0.5663
  822MOL0     H10929   7.487   1.121   4.442  0.2057  1.6542  0.8189
  822MOL0     H10930   7.618   0.935   4.515 -0.0199  1.2074 -1.3609
  822MOL0     H10931   7.797   0.784   4.617 -0.4391  1.7851  2.0430
  822MOL0     H10932   8.391   0.952   4.713 -2.2115 -0.0757 -2.7807
  822MOL0     H10933   8.563   0.859   4.830  0.5233 -0.5402  2.3558
  822MOL0     H10934   8.740   0.748   4.942  0.1472  0.4640  1.5143
  822MOL0     H10935   8.600   0.723   5.037  3.3021  0.0303  3.8695
  822MOL0     H10936   8.650   0.487   5.080 -0.1103 -1.4349 -1.9612
  822MOL0     H10937   8.812   0.511   5.011 -1.7211 -2.7873 -0.6887
  822MOL0     H10938   8.687   0.669   5.216  0.1505  0.1140 -1.0501
  822MOL0     H10939   8.771   0.519   5.264 -2.1545 -0.2798  0.1810
  822MOL0     H10940   8.879   0.763   5.108 -1.2698 -1.6092 -1.4453
  822MOL0     H10941   8.992   0.626   5.131  3.2585  1.8236  4.0139
  822MOL0     H10942   8.993   0.638   5.367  2.1598  1.4909  0.3609
  822MOL0     H10943   8.870   0.769   5.372 -1.2433  0.2189 -0.7043
  822MOL0     H10944   9.137   0.796   5.225  2.4859  1.5695  0.3411
  822MOL0     H10945   9.007   0.917   5.247 -1.4966 -1.2641  0.7280
  822MOL0     H10946   9.040   0.882   5.501 -2.0324 -2.8536 -1.5773
  822MOL0     H10947   9.148   0.986   5.421 -4.0363  1.0605  1.2314
  822MOL0     H10948   9.184   0.709   5.525  1.0885  0.1590  2.9027
  822MOL0     H10949   9.297   0.778   5.391  0.6749  1.0808  0.7776
  822MOL0     H10950   8.427   0.467   4.752 -3.2392 -0.5064  0.1842
  822MOL0     H10951   8.222   0.569   4.638  0.9335 -0.9772  0.0339
  822MOL0     H10952   8.106   1.021   4.446  1.1853 -0.6707  0.5983
  822MOL0     H10953   7.933   1.160   4.342  3.2815 -1.0412  0.7150
  822MOL0     H10954   6.783   2.693   4.623  0.9249 -0.3171 -0.0749
  822MOL0     H10955   6.719   2.925   4.575  0.1310 -0.3587 -1.4402
  822MOL0     H10956   6.812   3.273   4.838  0.4781  2.4388  2.2327
  822MOL0     H10957   6.690   3.440   4.981 -1.0775  1.7767  0.1645
  822MOL0     H10958   6.302   3.541   4.878  1.0919 -0.4135  1.5929
  822MOL0     H10959   6.351   3.683   4.779 -2.5208 -0.7047 -0.6215
  822MOL0     H10960   6.217   3.769   4.961 -0.4381  1.8572  1.9849
  822MOL0     H10961   6.390   3.793   5.010  2.6051 -2.0111  1.3026
  822MOL0     H10962   6.399   3.599   5.137  1.2423  0.1633  1.8262
  822MOL0     H10963   6.225   3.562   5.116  1.8630 -1.3302 -0.0801
  822MOL0     H10964   6.234   3.660   5.331  2.9402  0.6743  2.5127
  822MOL0     H10965   6.362   3.764   5.300  0.1173  1.0392 -0.8642
  822MOL0     H10966   6.028   4.004   5.232  3.4618  2.7507  2.1311
  822MOL0     H10967   6.441   3.524   4.633  0.4270 -0.5792  0.2547
  822MOL0     H10968   6.462   3.423   4.433  1.1048  0.6116 -2.1623
  822MOL0     H10969   6.624   3.394   4.412 -4.0157  2.7730 -4.5129
  822MOL0     H10970   6.501   3.261   4.442 -0.5071  1.2777 -2.7787
  823MOL0     O10971   8.058   7.090   4.878  0.2032  0.1545  0.0648
  823MOL0     C10972   8.056   7.151   4.984  0.5050 -0.5553 -0.6315
  823MOL0     O10973   7.942   7.213   5.035  0.3001  0.7446  0.4594
  823MOL0     C10974   7.836   7.251   4.954  0.1431  0.5322  0.9641
  823MOL0     C10975   7.706   7.244   5.003  0.7731  1.1114 -0.6971
  823MOL0     C10976   7.600   7.284   4.918  0.4077 -0.0890  0.1315
  823MOL0     C10977   7.617   7.337   4.793 -0.1555  1.0761 -0.9967
  823MOL0     O10978   7.513   7.380   4.715 -0.4471 -0.3012  0.2346
  823MOL0     C10979   7.400   7.303   4.710  0.7569 -0.0182  0.6535
  823MOL0     C10980   7.283   7.349   4.803  0.6338  0.2374  0.7191
  823MOL0     C10981   7.273   7.501   4.799 -0.0872  0.1011  0.3554
  823MOL0     C10982   7.191   7.534   4.929  0.4224  0.5676  0.4972
  823MOL0     C10983   7.153   7.676   4.924 -0.9546  0.3887  0.4327
  823MOL0     C10984   7.005   7.687   4.974  0.9229  0.5306  0.3891
  823MOL0     C10985   6.888   7.635   4.890  0.0251  0.7532 -0.7153
  823MOL0     C10986   6.886   7.717   4.757  0.3847  0.4057 -0.7254
  823MOL0     N10987   6.760   7.709   4.683 -0.5961  0.1559  0.1879
  823MOL0     C10988   6.716   7.801   4.587  0.1401 -0.6442  0.2913
  823MOL0     C10989   6.606   7.746   4.535  0.6962  0.6209  1.0165
  823MOL0     C10990   6.516   7.801   4.424 -0.4391 -0.9071 -0.2974
  823MOL0     C10991   6.569   7.784   4.282 -0.4792  0.0469 -0.5441
  823MOL0     C10992   6.490   7.830   4.165 -0.5359 -0.1295  0.7580
  823MOL0     C10993   6.515   7.757   4.034  0.3373 -0.6007  0.2003
  823MOL0     O10994   6.414   7.650   4.028  0.1185 -0.2456  0.6662
  823MOL0     C10995   6.393   7.588   3.907 -0.0064  0.4724 -0.2670
  823MOL0     C10996   6.298   7.492   3.901  0.2560  0.5383  0.4209
  823MOL0     C10997   6.270   7.409   3.789  0.6782 -0.0029 -0.0953
  823MOL0     C10998   6.350   7.429   3.673 -0.0309 -0.4084  0.5256
  823MOL0     C10999   6.330   7.343   3.547 -0.5648 -0.6474  0.1648
  823MOL0     O11000   6.327   7.215   3.558  0.6934  0.2399  0.5999
  823MOL0     C11001   6.298   7.134   3.451 -0.0208  0.6969 -0.0120
  823MOL0     C11002   6.391   7.134   3.341 -1.1075 -0.5174 -0.0543
  823MOL0     C11003   6.363   7.058   3.227  0.1924  1.0168  0.2021
  823MOL0     C11004   6.249   6.965   3.223 -1.6045  0.9166 -0.7271
  823MOL0     O11005   6.230   6.895   3.104  0.2721 -0.1735  0.0956
  823MOL0     C11006   6.100   6.835   3.090  0.7674  0.2051 -0.2438
  823MOL0     C11007   6.112   6.782   2.953 -0.3093  0.6206  0.0487
  823MOL0     C11008   6.161   6.642   2.952 -0.2567  0.6123 -0.4743
  823MOL0     C11009   6.199   6.598   2.807  0.3883  0.3961 -0.7782
  823MOL0     C11010   6.291   6.474   2.813  0.4102 -1.1463  0.1838
  823MOL0     C11011   6.332   6.423   2.676  0.0921  0.2465 -0.0998
  823MOL0     C11012   6.390   6.279   2.652 -0.4024 -1.0318  0.1699
  823MOL0     C11013   6.509   6.248   2.739  0.9821 -0.0421 -1.2774
  823MOL0    Cl11014   6.559   6.076   2.735  0.0983 -0.4716 -0.3548
  823MOL0     C11015   6.164   6.959   3.333 -0.1014 -0.4690  0.6503
  823MOL0     C11016   6.185   7.050   3.448 -0.2667  0.5528  0.1583
  823MOL0     O11017   6.302   7.411   3.446  1.2203  0.0041  0.0449
  823MOL0     C11018   6.453   7.525   3.680 -0.4306 -0.1255 -0.5558
  823MOL0     C11019   6.474   7.607   3.797 -0.0753 -0.3020  0.4483
  823MOL0     N11020   6.582   7.629   4.609  0.2245  0.3299  0.8543
  823MOL0     N11021   6.665   7.610   4.698 -0.1576  0.1136  1.0960
  823MOL0     C11022   7.751   7.346   4.747  0.7893  0.2629  0.0780
  823MOL0     C11023   7.857   7.296   4.826 -1.0183  0.5785 -0.4205
  823MOL0     C11024   8.166   7.150   5.079 -0.9288  0.2112 -0.9937
  823MOL0     C11025   8.142   7.186   5.220  0.0830 -0.0250  0.3538
  823MOL0     C11026   8.256   7.178   5.307  0.0211 -0.7595  0.5078
  823MOL0     C11027   8.386   7.143   5.270  1.2391 -0.1599 -0.5149
  823MOL0     O11028   8.478   7.122   5.368 -0.0905 -0.4519 -0.7009
  823MOL0     C11029   8.603   7.196   5.347 -0.3759 -0.4178 -0.3000
  823MOL0     C11030   8.719   7.121   5.403  0.6607 -0.3447 -1.1760
  823MOL0     C11031   8.730   7.117   5.563 -0.3721 -0.4904 -0.5698
  823MOL0     C11032   8.848   7.023   5.603 -0.1410 -0.7041  0.9499
  823MOL0     C11033   8.973   7.056   5.537 -0.1935 -1.0659 -0.0991
  823MOL0     C11034   9.078   7.096   5.489 -0.6081  1.3932  0.1170
  823MOL0     C11035   8.400   7.101   5.136  0.3293  0.9835 -1.3536
  823MOL0     C11036   8.298   7.109   5.035  0.4946 -0.4622 -1.1543
  823MOL0     C11037   8.336   7.062   4.898 -0.6043 -0.1835 -0.0848
  823MOL0     H11038   7.679   7.216   5.104 -0.2157  0.7203 -1.0641
  823MOL0     H11039   7.503   7.282   4.965  0.2472  1.8170 -0.0709
  823MOL0     H11040   7.366   7.317   4.607  1.9406 -0.9762  0.1097
  823MOL0     H11041   7.408   7.194   4.706 -1.3911 -0.2170  0.3399
  823MOL0     H11042   7.304   7.318   4.906  0.9175 -0.0974  0.5613
  823MOL0     H11043   7.188   7.302   4.778  0.3776  0.5916  1.0159
  823MOL0     H11044   7.226   7.534   4.706 -3.2805  0.5361  1.9646
  823MOL0     H11045   7.371   7.548   4.806 -0.2909  0.2714  3.5341
  823MOL0     H11046   7.112   7.460   4.947  0.4356  0.8350  1.6954
  823MOL0     H11047   7.255   7.515   5.015 -1.9818 -0.7291  2.1084
  823MOL0     H11048   7.224   7.730   4.987  2.8381 -1.5859 -1.7742
  823MOL0     H11049   7.169   7.723   4.827  2.7771  1.7634  1.5432
  823MOL0     H11050   7.009   7.644   5.075 -2.9303  1.8480  1.2856
  823MOL0     H11051   6.995   7.795   4.990 -1.2596  0.9827 -3.0027
  823MOL0     H11052   6.793   7.660   4.938  0.6362  0.8599  0.4750
  823MOL0     H11053   6.875   7.527   4.874 -0.3257  0.9296 -1.6901
  823MOL0     H11054   6.898   7.823   4.781  0.7293  0.1450  0.2964
  823MOL0     H11055   6.971   7.680   4.699 -1.4629 -3.2208 -1.3784
  823MOL0     H11056   6.761   7.892   4.551 -0.1755 -2.3669 -5.4991
  823MOL0     H11057   6.435   7.729   4.434  0.8489 -2.1568  1.8640
  823MOL0     H11058   6.486   7.903   4.447  3.2934  0.0966  0.8728
  823MOL0     H11059   6.656   7.850   4.285 -0.9555  0.6777  1.9676
  823MOL0     H11060   6.599   7.681   4.259 -0.3401 -0.0992  0.2636
  823MOL0     H11061   6.514   7.934   4.140 -6.4446  1.5482  0.5459
  823MOL0     H11062   6.384   7.818   4.187 -0.0394 -2.3432  2.2405
  823MOL0     H11063   6.618   7.718   4.035  0.3971 -0.4380  0.5545
  823MOL0     H11064   6.496   7.833   3.959  0.5732  0.6106  1.3218
  823MOL0     H11065   6.239   7.467   3.989 -0.0090  0.2166  0.1574
  823MOL0     H11066   6.183   7.344   3.789 -0.4402  1.4421 -0.4932
  823MOL0     H11067   6.483   7.190   3.343 -1.0522 -0.5549  3.4924
  823MOL0     H11068   6.425   7.060   3.138 -1.0117 -3.7203 -1.0241
  823MOL0     H11069   6.086   6.756   3.164 -1.3838  0.9167  0.1780
  823MOL0     H11070   6.020   6.910   3.095  1.2418  0.6597  0.7053
  823MOL0     H11071   6.012   6.784   2.909 -0.3102  2.8946  0.0787
  823MOL0     H11072   6.161   6.857   2.892  0.1013  0.6846  0.4520
  823MOL0     H11073   6.244   6.641   3.023 -2.1133 -3.7160  2.0603
  823MOL0     H11074   6.087   6.575   2.998  0.5879 -0.4990 -0.6731
  823MOL0     H11075   6.247   6.680   2.754  2.9634  1.1224  2.3158
  823MOL0     H11076   6.101   6.579   2.763 -1.9600  2.7412  2.8390
  823MOL0     H11077   6.230   6.408   2.875 -0.1550 -0.5375  0.2801
  823MOL0     H11078   6.378   6.506   2.871 -0.4032 -0.3497  0.9979
  823MOL0     H11079   6.240   6.422   2.617 -0.1925  0.1156  0.3392
  823MOL0     H11080   6.402   6.499   2.640  0.9547  1.0149  2.8969
  823MOL0     H11081   6.408   6.274   2.544 -0.9024 -1.9836  0.1170
  823MOL0     H11082   6.312   6.204   2.667 -0.8888 -0.5068  0.3160
  823MOL0     H11083   6.590   6.318   2.713  2.5002 -0.0758  2.6273
  823MOL0     H11084   6.486   6.284   2.840  2.3649 -1.1333 -0.5326
  823MOL0     H11085   6.084   6.886   3.342  1.1391 -1.8172  1.3928
  823MOL0     H11086   6.111   7.055   3.527 -1.2243  0.4645 -0.7142
  823MOL0     H11087   6.519   7.552   3.597  0.1953  1.8558  0.5204
  823MOL0     H11088   6.550   7.684   3.796 -0.3227 -0.0468 -1.6161
  823MOL0     H11089   7.754   7.401   4.653 -1.8474 -0.0392 -0.2385
  823MOL0     H11090   7.960   7.315   4.799 -1.6281  0.9474 -2.7427
  823MOL0     H11091   8.053   7.245   5.238  0.7141  0.8024  0.8780
  823MOL0     H11092   8.234   7.213   5.408 -0.5936 -0.1359  0.1651
  823MOL0     H11093   8.604   7.297   5.390  2.6889  0.3798 -1.9028
  823MOL0     H11094   8.611   7.218   5.240 -0.5621 -0.4263 -0.3163
  823MOL0     H11095   8.810   7.176   5.376  0.9860 -0.7216 -0.8807
  823MOL0     H11096   8.726   7.020   5.363 -0.4772 -0.9992  0.2016
  823MOL0     H11097   8.634   7.085   5.604 -0.8326  1.1888 -0.2502
  823MOL0     H11098   8.758   7.213   5.608  2.9984  0.5515 -4.2927
  823MOL0     H11099   8.859   7.010   5.712  1.7181  1.2416  1.0630
  823MOL0     H11100   8.813   6.924   5.571  1.3788 -1.7036  2.2011
  823MOL0     H11101   9.175   7.118   5.449 -0.2329 -0.3095  0.0047
  823MOL0     H11102   8.498   7.062   5.110  0.2038 -0.9924  0.7624
  823MOL0     H11103   8.444   7.057   4.884 -0.1721  1.0325  2.3531
  823MOL0     H11104   8.309   6.958   4.875 -0.0971 -1.4285  4.1269
  823MOL0     H11105   8.296   7.127   4.820 -2.7000 -0.2643  0.8522
  824MOL0     O11106   3.583   0.971   1.370  0.1686  0.8419  0.2820
  824MOL0     C11107   3.569   0.897   1.273 -0.1267 -0.6834 -0.0340
  824MOL0     O11108   3.440   0.863   1.221 -0.2084 -0.6177 -0.4676
  824MOL0     C11109   3.338   0.948   1.236  0.6233  0.1688 -0.3707
  824MOL0     C11110   3.301   1.027   1.127 -0.1535 -0.2721  0.6198
  824MOL0     C11111   3.203   1.120   1.135 -1.0516 -1.5729 -0.2126
  824MOL0     C11112   3.123   1.127   1.248  0.9734  0.5757  0.3808
  824MOL0     O11113   3.028   1.226   1.242  0.3417  1.6348  0.2178
  824MOL0     C11114   3.014   1.302   1.354  0.1363 -0.1949 -0.1773
  824MOL0     C11115   2.931   1.430   1.348 -0.3471  0.7562  0.3211
  824MOL0     C11116   3.001   1.536   1.261 -0.3889 -0.5687 -0.7057
  824MOL0     C11117   2.921   1.658   1.234  0.5068  0.7280 -0.3051
  824MOL0     C11118   3.002   1.776   1.177 -0.4018 -0.3748  0.0458
  824MOL0     C11119   2.909   1.890   1.144  0.2301  0.4228  0.7039
  824MOL0     C11120   2.998   2.008   1.100 -0.7928  0.0208 -0.3854
  824MOL0     C11121   2.928   2.131   1.045 -0.3927 -1.0702 -0.5126
  824MOL0     N11122   2.822   2.097   0.949  0.8424 -0.0396 -0.4304
  824MOL0     C11123   2.700   2.156   0.938 -0.8497 -0.3873 -0.3128
  824MOL0     C11124   2.639   2.102   0.830 -0.3393  0.4685 -0.2217
  824MOL0     C11125   2.512   2.144   0.770 -0.3326 -0.2219 -0.4277
  824MOL0     C11126   2.388   2.066   0.839  0.2690 -0.1416 -0.0380
  824MOL0     C11127   2.259   2.131   0.788  0.2940  0.3127  0.0640
  824MOL0     C11128   2.218   2.074   0.651 -0.8770 -0.3689 -0.1330
  824MOL0     O11129   2.108   2.134   0.585  0.0850 -1.0933 -0.1274
  824MOL0     C11130   2.127   2.230   0.490  0.2362 -0.5126  0.8370
  824MOL0     C11131   2.192   2.350   0.502 -0.5761  0.6163  0.2355
  824MOL0     C11132   2.210   2.436   0.392 -0.1375 -0.1437  0.1028
  824MOL0     C11133   2.153   2.391   0.269  0.5458 -0.0756 -0.8235
  824MOL0     C11134   2.173   2.472   0.144 -0.2681 -1.2416  0.9669
  824MOL0     O11135   2.069   2.451   0.059 -0.1384 -0.8433 -0.1336
  824MOL0     C11136   2.080   2.510  -0.061  0.5085  0.8932 -0.2109
  824MOL0     C11137   1.988   2.611  -0.101  0.6392  0.2956  0.1758
  824MOL0     C11138   1.990   2.663  -0.229 -0.5766  0.1556  0.6010
  824MOL0     C11139   2.088   2.631  -0.321 -0.2970  0.0167  0.1450
  824MOL0     O11140   2.096   2.713  -0.422  0.2195 -1.0160 -0.0926
  824MOL0     C11141   2.217   2.729  -0.500 -0.0695 -0.5830 -0.5698
  824MOL0     C11142   2.195   2.842  -0.602  0.1010  0.2626 -0.6504
  824MOL0     C11143   2.120   2.791  -0.728 -0.6860 -0.4581  0.2226
  824MOL0     C11144   2.074   2.924  -0.808 -0.6269 -0.5640  0.2445
  824MOL0     C11145   2.046   2.874  -0.957 -0.2248 -0.3260 -0.0593
  824MOL0     C11146   2.185   2.863  -1.029 -0.3570 -0.3784  0.6823
  824MOL0     C11147   2.270   2.990  -1.028  0.3369  0.7418 -0.2170
  824MOL0     C11148   2.362   3.012  -1.150 -0.1855 -0.5331  0.4912
  824MOL0    Cl11149   2.279   3.043  -1.312 -0.3377 -0.2377 -0.0832
  824MOL0     C11150   2.174   2.526  -0.289 -0.1153 -0.4944  0.5845
  824MOL0     C11151   2.173   2.467  -0.165  0.0810 -0.5459 -0.1946
  824MOL0     O11152   2.256   2.557   0.125 -0.4482  0.0992 -0.6008
  824MOL0     C11153   2.085   2.277   0.259  1.0729 -0.1616  0.2417
  824MOL0     C11154   2.057   2.197   0.374  0.2433 -0.5536  0.7313
  824MOL0     N11155   2.728   2.021   0.770  0.7211 -0.1183  0.0232
  824MOL0     N11156   2.827   2.013   0.843  0.9160 -0.3794  0.2589
  824MOL0     C11157   3.150   1.044   1.356  0.0821 -0.6825 -0.0268
  824MOL0     C11158   3.248   0.948   1.340  0.2063  0.2024 -0.0405
  824MOL0     C11159   3.695   0.847   1.203 -0.7156 -0.3101  1.5357
  824MOL0     C11160   3.678   0.770   1.078 -0.1424 -0.1720 -0.3844
  824MOL0     C11161   3.791   0.730   1.005 -0.0914 -0.3367 -0.7168
  824MOL0     C11162   3.922   0.764   1.046  0.7803  1.1041  0.7993
  824MOL0     O11163   4.037   0.708   0.996  0.0874  0.2972 -0.0089
  824MOL0     C11164   4.035   0.656   0.865 -0.0559  0.4737  0.1350
  824MOL0     C11165   4.166   0.647   0.796  0.0468 -0.2276 -0.4541
  824MOL0     C11166   4.267   0.582   0.891 -0.3722  1.2605 -0.4473
  824MOL0     C11167   4.417   0.630   0.874  0.2530  0.2033  0.9306
  824MOL0     C11168   4.474   0.603   0.735 -0.4593  0.4907 -0.2282
  824MOL0     C11169   4.528   0.572   0.628 -0.4984 -0.0376 -1.0075
  824MOL0     C11170   3.928   0.840   1.163 -0.2847  0.8563 -0.1543
  824MOL0     C11171   3.824   0.888   1.240  0.6131  0.6760 -0.6112
  824MOL0     C11172   3.863   0.983   1.348 -0.0204 -0.2349 -0.6772
  824MOL0     H11173   3.368   1.021   1.042  0.2141  1.1122  0.7855
  824MOL0     H11174   3.200   1.186   1.049  3.3527  0.4059  0.8699
  824MOL0     H11175   2.957   1.258   1.436  0.9578 -0.5262  0.2242
  824MOL0     H11176   3.111   1.332   1.394  0.5515 -0.7277 -0.7627
  824MOL0     H11177   2.910   1.462   1.450  2.7029  0.2221  1.2032
  824MOL0     H11178   2.829   1.415   1.312 -1.0890  1.3282  2.0616
  824MOL0     H11179   3.038   1.490   1.168  1.6239 -1.1556  0.3332
  824MOL0     H11180   3.087   1.566   1.321 -0.3717  0.0124 -1.0148
  824MOL0     H11181   2.850   1.633   1.155  1.9020  0.1694 -1.4397
  824MOL0     H11182   2.882   1.698   1.328  1.1808  0.8728 -0.0783
  824MOL0     H11183   3.075   1.807   1.252 -0.1579  0.6174 -0.5699
  824MOL0     H11184   3.062   1.744   1.091  0.6698  0.0686  0.6205
  824MOL0     H11185   2.842   1.858   1.064  1.0044  0.8013 -0.1043
  824MOL0     H11186   2.846   1.907   1.233  1.6389 -1.3519  2.1277
  824MOL0     H11187   3.061   1.969   1.020  0.9522  0.9038  0.4955
  824MOL0     H11188   3.066   2.032   1.182  1.1124  2.3214 -2.4868
  824MOL0     H11189   2.901   2.189   1.134 -0.5034  1.6825 -2.2386
  824MOL0     H11190   2.998   2.194   0.991  1.0888 -0.6917  1.7085
  824MOL0     H11191   2.649   2.225   1.004 -0.0801 -2.3910  2.5755
  824MOL0     H11192   2.497   2.252   0.779  0.6670 -0.0192 -1.0519
  824MOL0     H11193   2.513   2.104   0.668  0.6076 -0.0028 -0.5088
  824MOL0     H11194   2.390   1.958   0.823 -0.7259 -0.9167  3.9742
  824MOL0     H11195   2.397   2.084   0.946  0.5143  0.0556 -0.0912
  824MOL0     H11196   2.263   2.240   0.786 -1.9386  0.4323 -0.6655
  824MOL0     H11197   2.178   2.097   0.854 -0.5208  0.2167 -0.9598
  824MOL0     H11198   2.181   1.971   0.663 -1.9936  0.0124 -0.1723
  824MOL0     H11199   2.304   2.068   0.584 -0.8031  0.2711 -0.0955
  824MOL0     H11200   2.237   2.373   0.598 -2.5707 -2.3579  2.0802
  824MOL0     H11201   2.259   2.532   0.405 -2.5727  1.8661 -3.7644
  824MOL0     H11202   1.923   2.649  -0.022  2.2359  1.9750  0.7674
  824MOL0     H11203   1.936   2.753  -0.258 -1.6403  0.0557  2.1822
  824MOL0     H11204   2.302   2.762  -0.440  0.4875 -1.7390 -0.7188
  824MOL0     H11205   2.242   2.638  -0.554  1.2473  1.9593 -4.7107
  824MOL0     H11206   2.131   2.914  -0.549 -2.8695 -1.5320 -1.5648
  824MOL0     H11207   2.291   2.887  -0.628 -0.5009  2.3665  0.5381
  824MOL0     H11208   2.200   2.745  -0.788  0.0326  0.2143  0.6434
  824MOL0     H11209   2.036   2.724  -0.707 -1.8159  0.7073 -0.4450
  824MOL0     H11210   2.149   3.002  -0.794  1.0667 -1.7708 -1.6105
  824MOL0     H11211   1.977   2.957  -0.770 -1.0727 -2.1070  0.5307
  824MOL0     H11212   1.987   2.942  -1.019 -1.2428 -0.6714  0.5050
  824MOL0     H11213   1.996   2.777  -0.953 -1.0954  0.1165 -0.0140
  824MOL0     H11214   2.238   2.784  -0.975  0.5648  1.1648  2.1248
  824MOL0     H11215   2.171   2.833  -1.133  1.1456  0.5963  0.1661
  824MOL0     H11216   2.339   2.989  -0.944 -0.7571 -0.4641  0.7013
  824MOL0     H11217   2.203   3.076  -1.016  0.4189  1.1259 -2.0764
  824MOL0     H11218   2.414   3.106  -1.130  0.1315 -0.6820  0.3679
  824MOL0     H11219   2.432   2.929  -1.157  2.7183  1.7045  0.9732
  824MOL0     H11220   2.238   2.489  -0.368 -0.8747  2.8752 -1.8235
  824MOL0     H11221   2.235   2.382  -0.142  1.1529 -0.2569 -1.8265
  824MOL0     H11222   2.048   2.238   0.164  2.6926 -3.9851  0.9644
  824MOL0     H11223   1.992   2.110   0.363  0.0386 -0.1345 -2.1965
  824MOL0     H11224   3.090   1.053   1.447 -0.0903  0.7322 -0.2532
  824MOL0     H11225   3.279   0.877   1.416 -1.1054  0.0402  0.3663
  824MOL0     H11226   3.576   0.736   1.061 -0.9894 -0.5338  4.0360
  824MOL0     H11227   3.776   0.663   0.921 -4.0192  0.2076 -0.6170
  824MOL0     H11228   3.967   0.714   0.803  0.6743  0.7733 -0.4012
  824MOL0     H11229   4.016   0.548   0.871  3.5288 -0.2202  1.8742
  824MOL0     H11230   4.199   0.751   0.792  2.0366 -0.8230 -0.4720
  824MOL0     H11231   4.160   0.610   0.693  0.6439 -0.1408 -0.5203
  824MOL0     H11232   4.273   0.474   0.875  1.8670  1.6325 -2.5841
  824MOL0     H11233   4.246   0.586   0.998  0.6944 -1.3986 -0.0502
  824MOL0     H11234   4.417   0.738   0.892  1.4886  2.0580 -6.7011
  824MOL0     H11235   4.487   0.582   0.943  0.2375  1.0865  1.5844
  824MOL0     H11236   4.569   0.530   0.538  1.4864 -2.3410  0.8232
  824MOL0     H11237   4.028   0.865   1.194 -0.2002 -0.9859  1.1932
  824MOL0     H11238   3.861   0.927   1.441 -0.3086  2.5408  1.1162
  824MOL0     H11239   3.967   1.013   1.338  0.0837 -0.3779 -0.0321
  824MOL0     H11240   3.801   1.073   1.360 -1.9046 -1.7868  2.6228
  825MOL0     O11241   1.704  11.495   3.271  0.0755  0.6316  0.1532
  825MOL0     C11242   1.727  11.405   3.191 -0.4603 -0.5273  0.4137
  825MOL0     O11243   1.852  11.371   3.148  0.2760  0.7955 -0.4048
  825MOL0     C11244   1.957  11.428   3.218  0.0207  0.5574 -0.0837
  825MOL0     C11245   2.060  11.339   3.259 -0.2105  0.0306  0.1573
  825MOL0     C11246   2.170  11.392   3.334  0.1926 -0.2612  0.8484
  825MOL0     C11247   2.184  11.529   3.341  0.7320 -0.3205  0.2451
  825MOL0     O11248   2.288  11.597   3.398 -0.0330 -0.7606 -0.0604
  825MOL0     C11249   2.399  11.534   3.451 -0.3827 -0.0422  0.2563
  825MOL0     C11250   2.517  11.627   3.478  1.0861  0.9967 -0.0032
  825MOL0     C11251   2.633  11.580   3.563  0.6876  0.0214  0.5389
  825MOL0     C11252   2.756  11.672   3.535  0.1072  0.7794  0.5437
  825MOL0     C11253   2.885  11.612   3.604 -0.4736 -0.6215 -0.2059
  825MOL0     C11254   2.995  11.720   3.582 -0.0794  0.2969  1.0542
  825MOL0     C11255   3.119  11.684   3.670 -0.2843 -0.5911  0.3745
  825MOL0     C11256   3.184  11.554   3.629  0.4626  0.0981  0.1315
  825MOL0     N11257   3.313  11.534   3.694 -0.3728  0.0975 -0.7328
  825MOL0     C11258   3.378  11.418   3.704  1.0146 -0.0802  0.0001
  825MOL0     C11259   3.495  11.442   3.765  0.3032  0.2797 -0.4216
  825MOL0     C11260   3.595  11.346   3.812 -0.5904  0.3510 -0.6605
  825MOL0     C11261   3.673  11.285   3.699  0.9816  0.3221 -0.4090
  825MOL0     C11262   3.758  11.160   3.736 -0.0876 -0.9821  0.1169
  825MOL0     C11263   3.683  11.046   3.818 -0.1042 -0.3569  0.8581
  825MOL0     O11264   3.754  10.921   3.823  0.0054  0.6723 -0.3046
  825MOL0     C11265   3.730  10.836   3.931  0.4213 -0.0383 -0.3479
  825MOL0     C11266   3.643  10.864   4.034 -0.9518 -0.6200 -0.2423
  825MOL0     C11267   3.658  10.794   4.148 -0.3109  0.7113 -0.8700
  825MOL0     C11268   3.762  10.696   4.170  0.0360  0.5015 -0.1261
  825MOL0     C11269   3.786  10.631   4.304 -0.1278  0.2239 -0.2267
  825MOL0     O11270   3.681  10.633   4.396 -1.4482  0.4386  0.2677
  825MOL0     C11271   3.694  10.545   4.504 -0.1242  1.0838  0.1695
  825MOL0     C11272   3.602  10.436   4.505  0.0926 -0.1321  0.2329
  825MOL0     C11273   3.633  10.326   4.589 -0.7822 -0.1244  0.7878
  825MOL0     C11274   3.737  10.335   4.689  1.3299  0.1042  0.2289
  825MOL0     O11275   3.757  10.236   4.779  0.2099 -0.5489 -0.1069
  825MOL0     C11276   3.662  10.259   4.888 -0.0138 -0.1326 -0.4776
  825MOL0     C11277   3.679  10.138   4.970 -0.6434 -0.0525  1.0562
  825MOL0     C11278   3.817  10.128   5.043  0.5474 -0.1502 -0.1485
  825MOL0     C11279   3.815   9.985   5.117  0.1213  0.2738 -0.1951
  825MOL0     C11280   3.937   9.979   5.205 -0.5386  0.3143 -0.7171
  825MOL0     C11281   3.921   9.880   5.325 -1.5104 -0.5351  0.2721
  825MOL0     C11282   4.056   9.842   5.392  0.0914 -0.2262 -0.1579
  825MOL0     C11283   4.113   9.950   5.490 -0.3547  0.0540 -0.0413
  825MOL0    Cl11284   4.012   9.990   5.632  0.6622  0.1136  0.6057
  825MOL0     C11285   3.813  10.451   4.692 -0.0381  1.1850 -0.1472
  825MOL0     C11286   3.795  10.551   4.595  0.4084 -0.9633 -1.0140
  825MOL0     O11287   3.890  10.569   4.327 -1.1131  1.0422 -0.0304
  825MOL0     C11288   3.840  10.666   4.066 -0.7926  0.3615 -0.2459
  825MOL0     C11289   3.824  10.734   3.942 -0.2338 -0.1452 -0.1548
  825MOL0     N11290   3.510  11.574   3.779  1.0760  0.7883  0.0360
  825MOL0     N11291   3.400  11.625   3.737 -0.2044 -0.0181 -0.1995
  825MOL0     C11292   2.090  11.616   3.295 -0.1783  0.1203  0.2232
  825MOL0     C11293   1.975  11.561   3.233 -0.6600  0.1203 -0.4771
  825MOL0     C11294   1.616  11.348   3.101  0.5281 -0.5520  0.1975
  825MOL0     C11295   1.627  11.349   2.960 -0.2031 -0.8827 -0.2483
  825MOL0     C11296   1.527  11.291   2.878  0.3409  0.3700  1.1197
  825MOL0     C11297   1.422  11.208   2.928 -0.4420 -1.1743 -0.9509
  825MOL0     O11298   1.333  11.144   2.843  0.0902 -0.2705 -0.4760
  825MOL0     C11299   1.353  11.001   2.841  0.5332  0.2800 -0.1799
  825MOL0     C11300   1.278  10.910   2.746  0.7788 -0.4832  0.0870
  825MOL0     C11301   1.285  10.958   2.598 -0.7566  0.0457  0.1251
  825MOL0     C11302   1.287  10.841   2.499 -0.6485  0.9539  0.0401
  825MOL0     C11303   1.415  10.778   2.490  0.7015  0.3606 -0.0915
  825MOL0     C11304   1.524  10.728   2.473  0.0512  0.0722  0.7093
  825MOL0     C11305   1.412  11.217   3.066 -0.2404 -0.6361 -0.6708
  825MOL0     C11306   1.499  11.293   3.152  0.5790 -0.4833 -0.4543
  825MOL0     C11307   1.461  11.295   3.304 -0.6847  0.3144 -0.7102
  825MOL0     H11308   2.042  11.233   3.249  1.7429 -0.1935 -1.9939
  825MOL0     H11309   2.232  11.323   3.389 -0.1534 -2.0371 -0.8807
  825MOL0     H11310   2.366  11.485   3.542 -1.7899 -0.7208 -0.5931
  825MOL0     H11311   2.441  11.474   3.369  2.8826  2.2115  0.0578
  825MOL0     H11312   2.473  11.714   3.528 -0.1619  1.8258 -2.3773
  825MOL0     H11313   2.545  11.659   3.377 -1.4129  2.6113 -0.2638
  825MOL0     H11314   2.647  11.481   3.517 -0.2250  1.0762 -2.1944
  825MOL0     H11315   2.614  11.571   3.671  1.0654 -2.2919  0.4669
  825MOL0     H11316   2.772  11.687   3.428  2.3763 -4.0039 -0.0630
  825MOL0     H11317   2.738  11.773   3.572 -2.3431 -0.4061  2.9583
  825MOL0     H11318   2.875  11.574   3.707  2.0209 -0.8856  0.0076
  825MOL0     H11319   2.921  11.527   3.545 -0.1615 -0.5453 -0.1261
  825MOL0     H11320   3.021  11.747   3.480 -1.9778 -0.6076  0.2650
  825MOL0     H11321   2.956  11.811   3.627 -1.0660 -1.0413  3.0555
  825MOL0     H11322   3.086  11.670   3.773  0.6674  0.0295  0.7766
  825MOL0     H11323   3.186  11.770   3.669  0.6694 -1.2546  2.2392
  825MOL0     H11324   3.103  11.484   3.648 -1.5679  2.8638  2.5966
  825MOL0     H11325   3.188  11.557   3.520 -1.2923 -1.0467 -0.0155
  825MOL0     H11326   3.326  11.326   3.679 -3.4722  2.6100 -1.7862
  825MOL0     H11327   3.665  11.392   3.882 -0.0746 -1.5031  0.1084
  825MOL0     H11328   3.534  11.275   3.870 -0.0338 -0.6470 -1.2709
  825MOL0     H11329   3.603  11.260   3.619  1.0157  1.7036 -0.9046
  825MOL0     H11330   3.735  11.362   3.651  2.1500  0.6900  1.6060
  825MOL0     H11331   3.848  11.186   3.792 -0.0832  0.5827 -0.5639
  825MOL0     H11332   3.795  11.120   3.642  2.1302  1.7216 -0.2694
  825MOL0     H11333   3.582  11.039   3.778 -0.0258  2.0797  0.1179
  825MOL0     H11334   3.667  11.086   3.918 -3.4422 -0.0809  0.3046
  825MOL0     H11335   3.566  10.940   4.025  1.0386  1.3552 -1.2553
  825MOL0     H11336   3.594  10.818   4.232 -3.1936 -2.6068 -1.8688
  825MOL0     H11337   3.515  10.432   4.441 -1.6464  1.5145  2.3263
  825MOL0     H11338   3.569  10.240   4.576 -0.2620 -0.8554  2.7791
  825MOL0     H11339   3.698  10.351   4.936 -0.5691  0.0138 -0.3421
  825MOL0     H11340   3.561  10.279   4.850  0.3367  1.4438 -0.6478
  825MOL0     H11341   3.597  10.149   5.043  0.4752  0.7392  2.2449
  825MOL0     H11342   3.659  10.051   4.906 -2.6160  1.0609  0.0732
  825MOL0     H11343   3.902  10.122   4.974 -0.3819  0.6986 -1.4010
  825MOL0     H11344   3.832  10.209   5.116 -0.4327  4.1479 -4.1980
  825MOL0     H11345   3.797   9.906   5.043  0.8910  0.1632 -0.2667
  825MOL0     H11346   3.722   9.981   5.174  1.2618 -0.2633  1.7034
  825MOL0     H11347   3.950  10.076   5.253 -0.2213 -0.7926  1.5764
  825MOL0     H11348   4.014   9.951   5.132 -1.9548 -2.3242 -1.3664
  825MOL0     H11349   3.848   9.929   5.390 -0.7304 -0.1109  0.8427
  825MOL0     H11350   3.868   9.791   5.291 -0.3567 -0.8641 -0.7723
  825MOL0     H11351   4.118   9.810   5.307 -0.9714  2.9143 -2.2916
  825MOL0     H11352   4.033   9.754   5.453 -2.1299  1.0454  0.9635
  825MOL0     H11353   4.213   9.921   5.524 -0.0469 -1.8108 -2.2297
  825MOL0     H11354   4.106  10.045   5.436 -3.6021 -0.3166 -0.4257
  825MOL0     H11355   3.884  10.484   4.768 -0.7088  1.7496  0.2447
  825MOL0     H11356   3.873  10.626   4.604 -0.9134  0.7182 -2.6835
  825MOL0     H11357   3.912  10.585   4.070 -0.2015  0.8840 -0.0789
  825MOL0     H11358   3.881  10.711   3.853 -1.6416  1.1724 -1.4473
  825MOL0     H11359   2.108  11.721   3.317 -0.3901 -0.1448  1.7781
  825MOL0     H11360   1.906  11.621   3.175  1.6514  1.6664 -1.7980
  825MOL0     H11361   1.710  11.402   2.915 -1.4663 -0.2482 -1.9091
  825MOL0     H11362   1.545  11.293   2.771  1.0006  2.9207  1.2123
  825MOL0     H11363   1.347  10.956   2.941  3.9505 -1.0277 -0.4151
  825MOL0     H11364   1.461  10.998   2.821  0.6845  0.4934  0.5688
  825MOL0     H11365   1.174  10.898   2.779  0.3342  1.4813 -0.4797
  825MOL0     H11366   1.329  10.814   2.755  1.3253 -0.3668 -1.6179
  825MOL0     H11367   1.374  11.017   2.574 -1.5097 -0.3972 -4.6134
  825MOL0     H11368   1.196  11.019   2.579  0.8780  2.4293 -0.3633
  825MOL0     H11369   1.213  10.763   2.519  0.5229  0.1732  1.5058
  825MOL0     H11370   1.258  10.865   2.396 -0.3118 -2.1377 -0.8886
  825MOL0     H11371   1.610  10.663   2.477 -1.8804 -2.6114  1.6421
  825MOL0     H11372   1.341  11.152   3.117  2.6712 -2.9802  0.7661
  825MOL0     H11373   1.443  11.401   3.325  0.7102 -0.0605  3.2627
  825MOL0     H11374   1.380  11.236   3.349  0.8833  0.2526  2.2650
  825MOL0     H11375   1.554  11.275   3.357  1.9370  3.8812 -3.4576
  826MOL0     O11376   5.346   7.954   9.124 -0.3867 -0.0556 -0.4712
  826MOL0     C11377   5.251   7.880   9.108 -0.0672  0.3360  0.7558
  826MOL0     O11378   5.250   7.739   9.124  0.2449  0.2025  0.1675
  826MOL0     C11379   5.361   7.667   9.138  0.0123 -0.1337 -0.6728
  826MOL0     C11380   5.486   7.696   9.077  0.6941 -0.1250 -0.2185
  826MOL0     C11381   5.601   7.626   9.109  0.3305  0.6953  1.0873
  826MOL0     C11382   5.590   7.524   9.212 -0.7135 -0.5878  1.1746
  826MOL0     O11383   5.706   7.471   9.270  0.8720  0.7438  0.2295
  826MOL0     C11384   5.846   7.476   9.222 -0.3311 -0.3629  0.6812
  826MOL0     C11385   5.949   7.528   9.323  0.0741  0.1503  0.4533
  826MOL0     C11386   6.071   7.591   9.259 -0.2432 -0.4576  0.9465
  826MOL0     C11387   6.169   7.485   9.226  0.7107  0.9351  0.3004
  826MOL0     C11388   6.296   7.531   9.148  0.1789  0.6289 -0.6225
  826MOL0     C11389   6.353   7.673   9.192  0.6766 -0.0274 -0.4556
  826MOL0     C11390   6.399   7.676   9.337  0.9237  0.0851  0.9425
  826MOL0     C11391   6.451   7.812   9.380  0.8529  0.0219 -0.1600
  826MOL0     N11392   6.501   7.804   9.515 -0.2751  0.1982 -0.3695
  826MOL0     C11393   6.636   7.796   9.553 -0.6895  0.5434  0.1548
  826MOL0     C11394   6.636   7.792   9.680 -0.3495 -0.9595  0.2288
  826MOL0     C11395   6.764   7.786   9.768  0.1291 -0.0329 -0.5922
  826MOL0     C11396   6.748   7.704   9.902  0.2244 -0.6931 -0.1793
  826MOL0     C11397   6.879   7.717   9.977  0.0268  0.3463  0.6462
  826MOL0     C11398   6.859   7.679  10.120 -0.7738  0.2044  0.6631
  826MOL0     O11399   6.984   7.670  10.183 -0.6064  0.3758 -0.8091
  826MOL0     C11400   6.998   7.667  10.317  0.0126 -0.3950 -0.9081
  826MOL0     C11401   7.124   7.698  10.357 -0.3457 -0.3534 -0.8118
  826MOL0     C11402   7.168   7.688  10.494  0.2357  0.0644 -0.6943
  826MOL0     C11403   7.073   7.669  10.592 -0.0387 -0.0956  0.6784
  826MOL0     C11404   7.110   7.673  10.737  0.2661  0.5597 -0.2764
  826MOL0     O11405   7.222   7.730  10.777 -0.0072 -0.0729  0.4234
  826MOL0     C11406   7.296   7.688  10.880  0.1765 -0.5884  0.4628
  826MOL0     C11407   7.427   7.742  10.879  0.4043  0.1875  0.5071
  826MOL0     C11408   7.514   7.707  10.984 -0.1778 -0.2602  0.1856
  826MOL0     C11409   7.470   7.635  11.092 -1.0290 -0.9561  0.1239
  826MOL0     O11410   7.562   7.633  11.190 -0.4393 -0.7051  0.4403
  826MOL0     C11411   7.546   7.541  11.295  1.0213 -0.6570  0.9895
  826MOL0     C11412   7.633   7.597  11.403  1.0926  0.1975  0.1669
  826MOL0     C11413   7.767   7.516  11.416  0.4513 -0.3915  0.4716
  826MOL0     C11414   7.863   7.580  11.526  0.2935 -0.2340  1.3988
  826MOL0     C11415   7.999   7.504  11.556  0.6192  0.1685  1.0031
  826MOL0     C11416   8.129   7.583  11.602  0.6681 -0.5031  0.8164
  826MOL0     C11417   8.233   7.630  11.501  0.5176 -0.3819 -1.0599
  826MOL0     C11418   8.326   7.720  11.571  0.3604 -0.3302 -0.0112
  826MOL0    Cl11419   8.264   7.877  11.642  0.3351  0.3158  0.5160
  826MOL0     C11420   7.345   7.578  11.100  0.5608 -0.0196  0.6429
  826MOL0     C11421   7.259   7.604  10.985 -0.2451  0.3892 -0.5942
  826MOL0     O11422   7.030   7.627  10.819 -0.3070 -0.6772  0.3103
  826MOL0     C11423   6.938   7.656  10.551 -0.0987 -0.7784  0.4481
  826MOL0     C11424   6.898   7.645  10.415 -0.0640 -0.6205  1.5282
  826MOL0     N11425   6.506   7.806   9.727 -0.8047 -0.8601  1.0422
  826MOL0     N11426   6.424   7.815   9.627  0.2552  0.9034 -0.5515
  826MOL0     C11427   5.457   7.491   9.260 -0.6415 -0.7243 -0.1538
  826MOL0     C11428   5.340   7.559   9.220  0.0785  0.4828 -0.8439
  826MOL0     C11429   5.122   7.950   9.049  0.7384  0.0441 -0.3957
  826MOL0     C11430   5.028   7.871   8.975 -0.3754 -0.1636 -0.3319
  826MOL0     C11431   4.896   7.904   8.944 -0.8103 -0.1442 -0.4040
  826MOL0     C11432   4.849   8.029   8.981 -0.4471  0.5964  0.6928
  826MOL0     O11433   4.714   8.061   8.949 -0.3645  0.4709  0.1158
  826MOL0     C11434   4.708   8.177   8.867  0.0075  0.1729  0.3410
  826MOL0     C11435   4.583   8.162   8.771  0.2877 -0.7083 -0.2134
  826MOL0     C11436   4.584   8.026   8.694 -0.6408 -0.6144 -0.3116
  826MOL0     C11437   4.461   8.014   8.603  0.8992 -0.2182 -0.0416
  826MOL0     C11438   4.450   7.874   8.547 -0.4833  0.4186 -1.2384
  826MOL0     C11439   4.426   7.757   8.515  0.3674  0.5244 -1.1154
  826MOL0     C11440   4.938   8.106   9.051  0.6094 -0.2832 -0.2427
  826MOL0     C11441   5.071   8.078   9.085  0.7383  0.1185  0.1106
  826MOL0     C11442   5.150   8.180   9.170  0.8486 -0.2404 -0.8160
  826MOL0     H11443   5.490   7.775   9.003  0.0642 -1.6277 -1.9181
  826MOL0     H11444   5.693   7.643   9.053 -0.6988 -2.9559 -2.2171
  826MOL0     H11445   5.877   7.378   9.185 -3.9170 -1.5219  0.4605
  826MOL0     H11446   5.842   7.550   9.141 -1.9028  1.2335  2.1514
  826MOL0     H11447   5.975   7.438   9.380  2.4486 -0.9711 -2.1667
  826MOL0     H11448   5.906   7.612   9.379  3.4912  3.6703 -1.7289
  826MOL0     H11449   6.114   7.663   9.329 -0.9061  2.5311 -1.4908
  826MOL0     H11450   6.043   7.653   9.173  2.7757 -1.0552 -0.5769
  826MOL0     H11451   6.199   7.440   9.321 -1.4156 -1.1130  0.0716
  826MOL0     H11452   6.110   7.408   9.175  1.5979 -1.5261  2.7207
  826MOL0     H11453   6.377   7.461   9.170  0.2722  0.4753 -1.3943
  826MOL0     H11454   6.271   7.520   9.042 -0.2382 -1.3026 -0.3627
  826MOL0     H11455   6.440   7.697   9.129  2.6261 -0.2379  2.0065
  826MOL0     H11456   6.281   7.752   9.169  2.7186  2.3878  0.9925
  826MOL0     H11457   6.485   7.610   9.354  2.6093  2.3813  1.7755
  826MOL0     H11458   6.317   7.647   9.403 -1.8808  1.8263 -1.5524
  826MOL0     H11459   6.526   7.823   9.301  1.3430 -2.7737 -0.1712
  826MOL0     H11460   6.373   7.889   9.379 -0.0183 -0.7973  1.6483
  826MOL0     H11461   6.727   7.800   9.493  0.8012  1.7500  2.3346
  826MOL0     H11462   6.845   7.734   9.716  0.3211 -1.4935  1.1043
  826MOL0     H11463   6.782   7.893   9.780 -1.8439  0.6485 -2.8525
  826MOL0     H11464   6.667   7.743   9.963 -0.2510  1.1150 -1.8679
  826MOL0     H11465   6.727   7.598   9.886 -0.6190 -0.2858 -1.9552
  826MOL0     H11466   6.917   7.820   9.972 -0.3113  0.4420 -0.1047
  826MOL0     H11467   6.958   7.653   9.937  1.0092  1.0822  1.3423
  826MOL0     H11468   6.807   7.583  10.119 -0.0287 -0.1995 -0.3751
  826MOL0     H11469   6.797   7.757  10.166 -2.4910 -0.5220 -0.3261
  826MOL0     H11470   7.201   7.739  10.293 -0.3937  0.7328 -0.2000
  826MOL0     H11471   7.271   7.712  10.520 -0.4424  1.8726  0.5255
  826MOL0     H11472   7.459   7.814  10.805 -0.6511 -0.4126 -0.5817
  826MOL0     H11473   7.612   7.754  10.989 -0.7211  0.9567 -0.2000
  826MOL0     H11474   7.441   7.545  11.327  0.8850  3.4841  0.5272
  826MOL0     H11475   7.565   7.436  11.272 -2.6502 -1.8781  2.6323
  826MOL0     H11476   7.646   7.705  11.398  0.9759  0.3982  2.8335
  826MOL0     H11477   7.570   7.576  11.491  0.9128  4.2188  1.1828
  826MOL0     H11478   7.740   7.412  11.439 -0.8683 -0.7858 -2.5117
  826MOL0     H11479   7.825   7.526  11.324  3.8201  3.1854  2.6608
  826MOL0     H11480   7.809   7.596  11.620  1.0572 -0.2391  1.8375
  826MOL0     H11481   7.890   7.682  11.496 -1.0075 -0.8071 -2.3561
  826MOL0     H11482   8.029   7.450  11.466 -1.0783 -0.9251  1.0482
  826MOL0     H11483   7.975   7.421  11.623 -1.0246  0.0954  0.3930
  826MOL0     H11484   8.096   7.675  11.651 -0.3911  0.1379 -1.0170
  826MOL0     H11485   8.181   7.512  11.668 -1.7194 -2.9317  0.2939
  826MOL0     H11486   8.176   7.689  11.428 -2.4650 -0.3146  1.1464
  826MOL0     H11487   8.293   7.548  11.461  1.7431  2.7422 -6.6918
  826MOL0     H11488   8.366   7.667  11.658 -0.6650  1.6286  1.7696
  826MOL0     H11489   8.403   7.739  11.496  0.4257 -2.0185 -0.4108
  826MOL0     H11490   7.305   7.531  11.189  2.8298  0.1033  1.8055
  826MOL0     H11491   7.156   7.577  11.003 -0.9779  2.5744 -1.2863
  826MOL0     H11492   6.863   7.633  10.626 -0.6034 -0.8770 -0.0768
  826MOL0     H11493   6.792   7.635  10.394  0.3246  1.8445 -2.9112
  826MOL0     H11494   5.456   7.406   9.328  1.1856  0.1049  0.9793
  826MOL0     H11495   5.238   7.541   9.251  1.1431  0.9248  3.6085
  826MOL0     H11496   5.041   7.774   8.929  0.3727 -0.7105  0.9581
  826MOL0     H11497   4.845   7.838   8.875  3.0144 -1.4174 -2.3373
  826MOL0     H11498   4.797   8.216   8.817 -1.6912  3.8445 -0.1597
  826MOL0     H11499   4.694   8.267   8.928  0.8709 -0.9147  2.2211
  826MOL0     H11500   4.603   8.248   8.706  1.0054 -1.5724 -1.1689
  826MOL0     H11501   4.492   8.177   8.829 -1.1131 -0.8811 -2.2526
  826MOL0     H11502   4.582   7.946   8.769 -0.4074  1.3551  1.9289
  826MOL0     H11503   4.675   8.013   8.636  0.8077 -3.7107  2.3353
  826MOL0     H11504   4.375   8.041   8.664  1.3663 -0.8860  0.9294
  826MOL0     H11505   4.479   8.075   8.513  0.2629 -0.9458 -0.6762
  826MOL0     H11506   4.414   7.651   8.504 -5.6811  0.9663 -2.0770
  826MOL0     H11507   4.890   8.194   9.092  1.8426  1.1218 -1.6661
  826MOL0     H11508   5.259   8.184   9.160  1.6462  1.5403  4.8205
  826MOL0     H11509   5.105   8.280   9.167  1.0404 -0.0517  1.1052
  826MOL0     H11510   5.142   8.145   9.274  1.0376 -0.8814 -1.0173
  827MOL0     O11511   5.167   8.311   8.104  0.0324  0.2473  0.3999
  827MOL0     C11512   5.198   8.295   7.988 -0.2140  0.7078 -0.3607
  827MOL0     O11513   5.155   8.374   7.886  0.7317  0.2231 -0.3227
  827MOL0     C11514   5.098   8.498   7.907 -0.6483  0.1879 -0.2180
  827MOL0     C11515   5.144   8.577   8.013  0.4316  0.5471  1.1532
  827MOL0     C11516   5.085   8.702   8.035 -0.3822  0.5994  0.9510
  827MOL0     C11517   4.996   8.750   7.943  0.4008  0.6529 -0.0856
  827MOL0     O11518   4.959   8.887   7.949 -0.1151 -0.3128 -0.2788
  827MOL0     C11519   5.066   8.984   7.940 -0.6569  0.4771  0.6544
  827MOL0     C11520   5.030   9.113   8.014  0.0485 -0.3937  0.1857
  827MOL0     C11521   4.909   9.174   7.945 -0.7420  0.4505 -0.2777
  827MOL0     C11522   4.869   9.311   8.000 -0.0606  0.5719  0.7355
  827MOL0     C11523   4.952   9.431   7.942 -0.8599  0.0722  0.0398
  827MOL0     C11524   4.891   9.566   7.987  0.4846  0.7359 -0.6101
  827MOL0     C11525   4.961   9.680   7.931  0.3810 -0.1343  0.2593
  827MOL0     C11526   4.898   9.823   7.950 -0.4582 -0.9519 -0.3099
  827MOL0     N11527   4.749   9.813   7.948  0.1683  0.0464 -0.0993
  827MOL0     C11528   4.679   9.837   7.823 -0.5062 -0.1647 -0.2045
  827MOL0     C11529   4.545   9.833   7.857 -0.8510  1.1254 -0.2251
  827MOL0     C11530   4.425   9.852   7.759 -0.8507  0.5847  0.2484
  827MOL0     C11531   4.423   9.724   7.665 -0.0754  0.7635 -0.1190
  827MOL0     C11532   4.311   9.728   7.565 -0.8854  0.2838 -0.7774
  827MOL0     C11533   4.307   9.630   7.442 -0.3640  0.8564 -0.1989
  827MOL0     O11534   4.330   9.501   7.500 -0.3742  0.0357  0.4433
  827MOL0     C11535   4.303   9.388   7.430 -1.3679 -0.4646 -0.0065
  827MOL0     C11536   4.279   9.376   7.299  0.8691 -0.4069  0.1271
  827MOL0     C11537   4.249   9.246   7.229 -0.5457  0.1949 -0.4409
  827MOL0     C11538   4.273   9.122   7.312 -0.4644 -0.7879 -0.9833
  827MOL0     C11539   4.275   8.987   7.259 -0.8954 -0.3662 -0.3899
  827MOL0     O11540   4.242   8.970   7.127 -1.3162  0.2044  0.8027
  827MOL0     C11541   4.263   8.849   7.067 -0.2835  0.2145  0.6490
  827MOL0     C11542   4.382   8.783   7.053 -0.0761 -0.5765 -0.4215
  827MOL0     C11543   4.388   8.656   6.994 -1.1081 -0.6478  0.1825
  827MOL0     C11544   4.276   8.596   6.935 -0.1543  0.4265 -0.3927
  827MOL0     O11545   4.280   8.473   6.871 -0.7794  0.2822 -0.4612
  827MOL0     C11546   4.347   8.368   6.948 -0.3817  0.3687 -0.2152
  827MOL0     C11547   4.349   8.228   6.894 -0.9724 -0.0500  0.5794
  827MOL0     C11548   4.445   8.201   6.779  0.3030  0.1071 -0.3107
  827MOL0     C11549   4.479   8.047   6.758 -0.6567  0.4926 -0.1375
  827MOL0     C11550   4.613   8.017   6.680  0.7202 -0.9715  0.4490
  827MOL0     C11551   4.649   7.869   6.684  0.7304  1.1827 -0.3747
  827MOL0     C11552   4.757   7.835   6.579 -0.6408 -0.4365 -1.1610
  827MOL0     C11553   4.889   7.897   6.613 -0.1699 -0.2366 -0.3096
  827MOL0    Cl11554   5.010   7.815   6.508 -0.1858 -0.3222 -0.0816
  827MOL0     C11555   4.156   8.662   6.948  0.5093 -0.2835  0.0413
  827MOL0     C11556   4.147   8.785   7.012  0.5562  0.8172  0.5926
  827MOL0     O11557   4.335   8.898   7.329  0.2484  0.5330 -0.7140
  827MOL0     C11558   4.293   9.142   7.456 -0.3179  0.0510  0.9228
  827MOL0     C11559   4.300   9.267   7.508  0.3984  0.7521  0.1236
  827MOL0     N11560   4.545   9.809   8.000  0.3199 -0.4386 -0.4198
  827MOL0     N11561   4.663   9.813   8.059 -0.3928 -0.7922 -0.1721
  827MOL0     C11562   4.943   8.668   7.851  0.4453  0.5716 -0.0133
  827MOL0     C11563   4.993   8.535   7.826 -0.5175  0.2350 -1.2016
  827MOL0     C11564   5.269   8.161   7.960 -0.0169 -0.8602 -0.6458
  827MOL0     C11565   5.213   8.088   7.853  0.3043  0.2995  0.0022
  827MOL0     C11566   5.261   7.960   7.824  0.1927 -0.8312 -0.1133
  827MOL0     C11567   5.354   7.897   7.914  0.0074 -0.4383  0.0001
  827MOL0     O11568   5.415   7.781   7.887  0.1120  0.6465  0.3101
  827MOL0     C11569   5.342   7.667   7.851  0.5623 -0.7015 -0.4236
  827MOL0     C11570   5.221   7.629   7.933 -0.4415 -0.9392  0.2329
  827MOL0     C11571   5.261   7.570   8.072 -0.2879 -0.3395 -0.2245
  827MOL0     C11572   5.304   7.418   8.063  0.5319  0.3185  0.0854
  827MOL0     C11573   5.185   7.338   8.014 -0.8577 -0.1515 -0.3710
  827MOL0     C11574   5.083   7.287   7.972  0.0365  0.1704 -0.2259
  827MOL0     C11575   5.415   7.979   8.013  0.8915 -0.0067  0.3257
  827MOL0     C11576   5.367   8.106   8.034 -0.5757 -0.1767 -0.5685
  827MOL0     C11577   5.438   8.182   8.150  0.3303  0.1787 -0.1095
  827MOL0     H11578   5.214   8.539   8.086  1.8779  3.1946  1.2661
  827MOL0     H11579   5.111   8.763   8.121  2.6831  3.0938 -1.4945
  827MOL0     H11580   5.152   8.945   7.995  0.1483  2.0727  0.5929
  827MOL0     H11581   5.103   8.978   7.837  1.4616 -3.4997  1.4283
  827MOL0     H11582   5.115   9.181   8.010 -0.5625  0.7197  3.3791
  827MOL0     H11583   5.024   9.096   8.121  2.7089 -3.4652 -0.0007
  827MOL0     H11584   4.824   9.105   7.948  0.2435 -0.7776  0.2866
  827MOL0     H11585   4.935   9.183   7.839  1.3035 -0.4434  0.0957
  827MOL0     H11586   4.761   9.320   7.984  0.0437 -0.9535 -1.1280
  827MOL0     H11587   4.875   9.296   8.108  1.3610 -1.2544  0.4427
  827MOL0     H11588   5.057   9.427   7.972 -1.1154 -3.1260  0.8812
  827MOL0     H11589   4.973   9.426   7.835  2.5837 -1.0949  0.6404
  827MOL0     H11590   4.789   9.564   7.949 -0.1743 -0.8075  1.1218
  827MOL0     H11591   4.897   9.580   8.095  2.9169 -3.3471 -0.0058
  827MOL0     H11592   4.952   9.656   7.825 -0.3009  0.1691  0.2487
  827MOL0     H11593   5.064   9.680   7.970  0.4875 -0.9761 -0.0047
  827MOL0     H11594   4.936   9.869   8.041  0.6661 -1.9517 -0.2545
  827MOL0     H11595   4.918   9.878   7.858 -1.7319 -0.0874 -0.0940
  827MOL0     H11596   4.726   9.848   7.726 -3.2458  1.7660 -1.4320
  827MOL0     H11597   4.328   9.849   7.809  0.1699 -2.4490  2.3554
  827MOL0     H11598   4.438   9.943   7.700  0.2286 -0.5645 -1.3977
  827MOL0     H11599   4.523   9.724   7.620  0.3298  0.4168  0.7609
  827MOL0     H11600   4.415   9.626   7.712  2.4991  0.4360 -0.2107
  827MOL0     H11601   4.318   9.829   7.523  2.6264  1.9840  3.2048
  827MOL0     H11602   4.220   9.708   7.623 -1.0795 -0.4866 -1.3277
  827MOL0     H11603   4.393   9.645   7.375  1.7958 -0.4778  2.0969
  827MOL0     H11604   4.212   9.651   7.393 -0.5930 -1.1006 -0.7000
  827MOL0     H11605   4.275   9.465   7.237  0.1298  0.0599  0.8221
  827MOL0     H11606   4.228   9.250   7.122 -1.3212  1.1580 -0.2615
  827MOL0     H11607   4.473   8.814   7.103 -0.7507 -1.4598  1.4648
  827MOL0     H11608   4.481   8.603   6.978 -1.3942 -1.2197  0.3875
  827MOL0     H11609   4.450   8.404   6.962 -0.8326  1.0535  1.7934
  827MOL0     H11610   4.304   8.371   7.049  0.7840 -1.2655  0.3643
  827MOL0     H11611   4.364   8.163   6.981 -1.9318  0.4485  1.1348
  827MOL0     H11612   4.251   8.199   6.854 -1.3841  0.4002  1.2472
  827MOL0     H11613   4.396   8.230   6.686  0.6172  0.0672 -0.4887
  827MOL0     H11614   4.535   8.263   6.785  0.8636 -0.4714 -2.2045
  827MOL0     H11615   4.407   8.000   6.690  0.6348  0.5573 -1.5874
  827MOL0     H11616   4.493   7.987   6.849  0.9662 -3.5111 -2.7355
  827MOL0     H11617   4.682   8.089   6.724  0.8219 -2.1553  2.3608
  827MOL0     H11618   4.587   8.045   6.578 -3.7554  0.4405  1.7331
  827MOL0     H11619   4.691   7.843   6.782  0.1121  0.7542 -0.2183
  827MOL0     H11620   4.561   7.807   6.665  0.5428  1.8082 -1.6526
  827MOL0     H11621   4.734   7.872   6.479 -1.5021 -0.4528 -0.9771
  827MOL0     H11622   4.771   7.727   6.579  2.9639 -0.1100  0.6018
  827MOL0     H11623   4.896   8.006   6.604  0.4352 -0.3024 -0.7107
  827MOL0     H11624   4.918   7.882   6.717 -0.6652  2.1282  0.2289
  827MOL0     H11625   4.073   8.610   6.902 -0.2512  0.6080  0.3679
  827MOL0     H11626   4.054   8.833   7.039 -1.6173 -2.4641 -0.4305
  827MOL0     H11627   4.295   9.051   7.515  1.6557  0.0427  0.8850
  827MOL0     H11628   4.313   9.267   7.616  2.8880 -1.8219 -0.0620
  827MOL0     H11629   4.858   8.699   7.792 -0.9339 -0.9336  1.0939
  827MOL0     H11630   4.937   8.472   7.758  0.3404 -1.1814 -0.6309
  827MOL0     H11631   5.130   8.124   7.793  0.7167  1.9795  0.3801
  827MOL0     H11632   5.222   7.922   7.730  2.7231 -0.8647 -1.2276
  827MOL0     H11633   5.405   7.577   7.860  3.2193  1.1139  0.4652
  827MOL0     H11634   5.312   7.681   7.747  1.6567  6.3988 -0.2651
  827MOL0     H11635   5.151   7.570   7.873 -0.9171 -0.0167 -0.1344
  827MOL0     H11636   5.163   7.720   7.949 -0.9775 -1.1683 -0.3895
  827MOL0     H11637   5.168   7.573   8.129  0.4616  0.4555  0.9989
  827MOL0     H11638   5.333   7.632   8.127 -0.0856  1.1619 -2.0901
  827MOL0     H11639   5.384   7.395   7.993  0.3422 -1.4077  0.3935
  827MOL0     H11640   5.331   7.366   8.156  1.9177  2.2961  0.8417
  827MOL0     H11641   4.987   7.245   7.949 -0.8607  0.8085  2.0908
  827MOL0     H11642   5.496   7.936   8.072 -0.9737 -1.0874  2.2402
  827MOL0     H11643   5.410   8.148   8.250  0.7312  2.1237  0.7153
  827MOL0     H11644   5.547   8.180   8.135  0.1792 -1.1312 -1.2189
  827MOL0     H11645   5.417   8.289   8.153  1.8700  0.5614  3.5111
  828MOL0     O11646   8.452  11.467   1.042  0.8074  0.3633 -0.0517
  828MOL0     C11647   8.466  11.361   0.977  0.1703  0.1905  0.5324
  828MOL0     O11648   8.566  11.337   0.898  0.2086  1.1131  0.5306
  828MOL0     C11649   8.685  11.376   0.938 -0.3289  0.0444  0.6982
  828MOL0     C11650   8.729  11.498   0.899 -0.0810  0.9552  0.4946
  828MOL0     C11651   8.856  11.544   0.913 -0.2405  0.5367 -1.1414
  828MOL0     C11652   8.948  11.459   0.979  0.1576  0.3721  0.5108
  828MOL0     O11653   9.075  11.498   0.995 -0.2898 -0.0799 -0.6063
  828MOL0     C11654   9.107  11.527   1.136  0.9266 -1.1700 -0.2736
  828MOL0     C11655   9.251  11.563   1.158  0.3985  0.3287  0.4083
  828MOL0     C11656   9.294  11.672   1.055 -0.1652  0.0633 -0.2147
  828MOL0     C11657   9.435  11.699   1.095  0.1470 -0.3538 -0.7251
  828MOL0     C11658   9.504  11.811   1.027 -0.3402 -0.3424 -0.7779
  828MOL0     C11659   9.656  11.827   1.076  0.4310 -0.2714  1.2047
  828MOL0     C11660   9.733  11.938   1.008  0.3750 -0.5952 -0.1438
  828MOL0     C11661   9.669  12.071   1.017 -0.7775 -0.7499 -0.4649
  828MOL0     N11662   9.757  12.189   0.994  1.0897  0.5917  0.3429
  828MOL0     C11663   9.770  12.249   0.867 -0.9170 -0.0217 -0.0433
  828MOL0     C11664   9.820  12.369   0.905 -0.6822 -1.1504  0.7166
  828MOL0     C11665   9.849  12.484   0.807  0.5947  0.5712 -1.7126
  828MOL0     C11666   9.750  12.603   0.834 -0.4219 -0.2923 -0.0926
  828MOL0     C11667   9.804  12.731   0.766  0.4795  0.9750 -0.3483
  828MOL0     C11668   9.727  12.860   0.805  0.0168  0.4412 -0.5274
  828MOL0     O11669   9.587  12.833   0.782 -0.0792 -0.5413 -0.1235
  828MOL0     C11670   9.492  12.897   0.859  0.3683  0.3022 -0.1725
  828MOL0     C11671   9.362  12.842   0.869  0.0691  0.5058  0.5033
  828MOL0     C11672   9.260  12.905   0.945  1.4583 -0.0010  0.4467
  828MOL0     C11673   9.282  13.024   1.006 -0.9683 -0.3534 -0.9490
  828MOL0     C11674   9.178  13.085   1.092 -1.1087  0.8573 -0.6600
  828MOL0     O11675   9.050  13.027   1.085 -0.1818  0.1635 -0.0088
  828MOL0     C11676   8.941  13.070   1.148 -0.5448  0.1481 -0.4071
  828MOL0     C11677   8.931  13.048   1.287  0.0833  0.1637  0.9922
  828MOL0     C11678   8.815  13.104   1.350  0.2303  0.2511 -1.0851
  828MOL0     C11679   8.721  13.176   1.279  0.0892  0.5465  0.0117
  828MOL0     O11680   8.606  13.211   1.337  0.8839 -0.6390 -0.2333
  828MOL0     C11681   8.527  13.118   1.418  0.4084  0.1521  0.3983
  828MOL0     C11682   8.382  13.102   1.365 -0.4215  0.1834 -0.2803
  828MOL0     C11683   8.392  13.061   1.221  0.5146  0.0428  0.7114
  828MOL0     C11684   8.256  13.068   1.158  1.0472 -0.8940  0.5735
  828MOL0     C11685   8.154  12.961   1.202  0.9092  0.3308  0.2330
  828MOL0     C11686   8.029  12.947   1.121  0.6038  0.3345  0.0994
  828MOL0     C11687   7.947  13.084   1.102 -0.0868 -0.4430 -0.1280
  828MOL0     C11688   7.817  13.064   1.179  0.3351  0.2612 -0.9037
  828MOL0    Cl11689   7.837  13.007   1.353 -0.8799 -0.7007 -0.3012
  828MOL0     C11690   8.742  13.210   1.144 -0.4523  0.4859  0.0269
  828MOL0     C11691   8.850  13.145   1.070 -0.0368 -0.2932 -0.6842
  828MOL0     O11692   9.208  13.173   1.165 -0.0715 -0.8202 -0.2376
  828MOL0     C11693   9.415  13.079   0.997  0.3337 -0.8448  0.9381
  828MOL0     C11694   9.517  13.015   0.928 -0.3137 -0.0281  0.9203
  828MOL0     N11695   9.837  12.371   1.038  0.4964 -0.0039 -0.1429
  828MOL0     N11696   9.793  12.265   1.101  0.1692 -0.8184  1.0291
  828MOL0     C11697   8.915  11.331   1.017  0.0686  0.0669  0.1330
  828MOL0     C11698   8.778  11.293   0.999  0.0711  0.0438 -0.2251
  828MOL0     C11699   8.370  11.241   0.991 -0.2598  0.5720 -0.4111
  828MOL0     C11700   8.392  11.129   0.902  0.0268  0.5237  0.4267
  828MOL0     C11701   8.307  11.019   0.908 -0.9786 -0.5737  0.8296
  828MOL0     C11702   8.198  11.014   0.994 -1.0151 -0.5927  1.2623
  828MOL0     O11703   8.132  10.898   0.978 -0.2010 -0.1761  0.7881
  828MOL0     C11704   7.999  10.879   1.044  0.6179 -0.0340  0.0550
  828MOL0     C11705   7.921  10.758   0.988 -0.5457  0.4639  0.2303
  828MOL0     C11706   7.857  10.766   0.851  0.2436  0.2209 -0.0452
  828MOL0     C11707   7.801  10.629   0.810  0.2574 -0.9640  0.3515
  828MOL0     C11708   7.655  10.639   0.778 -1.0104  0.2540 -0.1984
  828MOL0     C11709   7.534  10.653   0.755  0.1113 -0.2269 -0.7889
  828MOL0     C11710   8.175  11.127   1.072 -0.0797 -0.1361 -0.3630
  828MOL0     C11711   8.258  11.243   1.074  0.4675  0.9865 -0.9800
  828MOL0     C11712   8.224  11.355   1.162  0.4701 -0.0209 -0.6734
  828MOL0     H11713   8.657  11.557   0.843 -0.9001 -0.1747  0.3216
  828MOL0     H11714   8.876  11.649   0.894 -1.9816  0.6927 -2.3679
  828MOL0     H11715   9.044  11.609   1.172  0.0059 -1.8754 -0.2411
  828MOL0     H11716   9.089  11.435   1.192  3.2398 -2.3038 -1.2548
  828MOL0     H11717   9.311  11.476   1.134 -0.3045 -0.8379  2.6228
  828MOL0     H11718   9.269  11.578   1.264  0.3782 -0.5060  0.5360
  828MOL0     H11719   9.236  11.763   1.070  2.2771  1.7277 -0.4389
  828MOL0     H11720   9.274  11.642   0.952 -1.7490  0.6345 -0.1034
  828MOL0     H11721   9.439  11.711   1.204  1.2072 -0.2658 -0.7698
  828MOL0     H11722   9.499  11.611   1.085  0.5302  0.0280 -1.7934
  828MOL0     H11723   9.511  11.794   0.919  2.7254  2.0326 -1.1050
  828MOL0     H11724   9.450  11.904   1.048  0.9233  0.5967 -1.5650
  828MOL0     H11725   9.661  11.830   1.185  1.3106 -3.2255  1.3445
  828MOL0     H11726   9.722  11.742   1.058  2.4247  1.3673  0.3333
  828MOL0     H11727   9.723  11.919   0.901 -2.8837 -1.2779  0.1548
  828MOL0     H11728   9.839  11.934   1.033  0.9146 -0.5603 -2.2919
  828MOL0     H11729   9.582  12.070   0.951 -1.6321 -2.6714  0.6187
  828MOL0     H11730   9.630  12.087   1.118 -0.5974 -1.5096 -0.2621
  828MOL0     H11731   9.753  12.207   0.768  1.2783  1.1342 -0.9818
  828MOL0     H11732   9.954  12.512   0.825  0.2646  0.1272  1.4041
  828MOL0     H11733   9.840  12.456   0.701  2.5559 -0.6535 -1.6035
  828MOL0     H11734   9.656  12.581   0.783  1.7446 -1.9430 -3.7951
  828MOL0     H11735   9.736  12.631   0.938  1.0010  2.2116 -0.4992
  828MOL0     H11736   9.798  12.730   0.657  1.9903  1.1750 -0.4618
  828MOL0     H11737   9.904  12.734   0.811 -0.0620  2.1347  0.8576
  828MOL0     H11738   9.782  12.938   0.751  3.2937 -1.3954 -0.1512
  828MOL0     H11739   9.740  12.886   0.911  1.9254  1.0955 -0.8868
  828MOL0     H11740   9.362  12.751   0.810 -1.8664 -0.8943  2.4525
  828MOL0     H11741   9.160  12.862   0.948  1.2351  0.2165 -1.8005
  828MOL0     H11742   9.010  12.996   1.341 -0.8070 -0.9719  1.2575
  828MOL0     H11743   8.780  13.078   1.449  0.2902  1.2408 -0.7956
  828MOL0     H11744   8.579  13.022   1.423  0.3457 -0.1961 -3.0026
  828MOL0     H11745   8.531  13.153   1.522  2.2324  1.5329 -0.0751
  828MOL0     H11746   8.317  13.034   1.422 -0.8777 -0.2245 -1.2717
  828MOL0     H11747   8.342  13.204   1.375  1.2309  0.7121  1.4807
  828MOL0     H11748   8.456  13.125   1.160  2.5290 -0.6976  1.9278
  828MOL0     H11749   8.433  12.960   1.220 -1.5763 -0.8371 -0.6869
  828MOL0     H11750   8.257  13.052   1.050 -1.4805  0.6282  0.2336
  828MOL0     H11751   8.215  13.169   1.170  0.0436 -1.2105 -0.0894
  828MOL0     H11752   8.122  12.973   1.306  1.2424  0.5680  0.3077
  828MOL0     H11753   8.204  12.864   1.199  0.3372  0.0568 -1.6338
  828MOL0     H11754   8.050  12.917   1.018  1.2362  1.5362 -0.1406
  828MOL0     H11755   7.977  12.863   1.168 -0.4657  1.3726  0.8181
  828MOL0     H11756   7.921  13.097   0.997  0.4877  1.2277 -0.0905
  828MOL0     H11757   8.002  13.172   1.136 -2.2408  0.7034  0.5988
  828MOL0     H11758   7.750  13.151   1.183 -1.5715 -1.1374  3.2533
  828MOL0     H11759   7.765  12.980   1.132  3.0300 -2.0785  0.0203
  828MOL0     H11760   8.669  13.276   1.098  0.9902  2.6676  0.6859
  828MOL0     H11761   8.863  13.168   0.964 -1.0666  2.6345 -0.2737
  828MOL0     H11762   9.438  13.176   1.040  2.7140  0.1347 -2.1670
  828MOL0     H11763   9.608  13.074   0.939 -0.6124  1.2276 -2.3523
  828MOL0     H11764   8.980  11.257   1.061 -1.3898  1.1101  4.4899
  828MOL0     H11765   8.744  11.197   1.037 -1.5412  0.7310  0.1601
  828MOL0     H11766   8.467  11.136   0.824 -0.8025 -0.1011 -0.4594
  828MOL0     H11767   8.329  10.940   0.837  0.4537  1.1227 -0.7292
  828MOL0     H11768   7.930  10.963   1.038 -2.2467 -2.2302 -0.1775
  828MOL0     H11769   8.017  10.859   1.150 -3.0115 -0.3243  0.7342
  828MOL0     H11770   7.837  10.743   1.056 -1.6770  0.5063 -1.0909
  828MOL0     H11771   7.991  10.674   0.996 -3.0541 -1.6426  1.8353
  828MOL0     H11772   7.934  10.791   0.778  2.3191 -1.9799  1.2741
  828MOL0     H11773   7.779  10.842   0.838 -2.8876 -2.8975 -0.9873
  828MOL0     H11774   7.861  10.580   0.732  0.8969  0.0835  0.1570
  828MOL0     H11775   7.813  10.558   0.892  1.9044 -0.9368  0.1712
  828MOL0     H11776   7.436  10.682   0.721  0.3530  3.6132  1.2156
  828MOL0     H11777   8.089  11.129   1.138  0.4307 -0.0450  0.3146
  828MOL0     H11778   8.280  11.340   1.255 -1.2589 -0.5198  0.3134
  828MOL0     H11779   8.224  11.459   1.128  1.5949 -0.6160 -2.6745
  828MOL0     H11780   8.120  11.332   1.184  0.4030 -0.2861 -1.2323
  829MOL0     O11781   8.438   4.696   6.207 -0.0938  0.1250  0.2675
  829MOL0     C11782   8.534   4.670   6.133 -0.3943  0.8374 -0.2821
  829MOL0     O11783   8.670   4.668   6.173 -0.4007  0.5098  0.1634
  829MOL0     C11784   8.698   4.739   6.289 -0.3417  0.3162  0.3849
  829MOL0     C11785   8.679   4.679   6.408  0.5837  0.2255  0.2625
  829MOL0     C11786   8.719   4.745   6.527  0.4697 -0.1866  0.4679
  829MOL0     C11787   8.774   4.870   6.523 -0.9002  0.6935 -0.5750
  829MOL0     O11788   8.811   4.929   6.644  0.0811  0.6593 -0.2191
  829MOL0     C11789   8.909   5.031   6.636 -0.5890 -0.1222 -0.6241
  829MOL0     C11790   8.987   5.024   6.773  0.3283 -0.3084 -0.3794
  829MOL0     C11791   9.079   4.897   6.784 -1.9697  1.6482 -0.4120
  829MOL0     C11792   9.197   4.912   6.883 -0.2303 -0.0205  0.6134
  829MOL0     C11793   9.304   5.016   6.832  0.1544 -0.8687  0.1220
  829MOL0     C11794   9.422   5.026   6.929  0.7331  0.2501  0.3482
  829MOL0     C11795   9.389   5.087   7.068 -0.0977 -0.3237  0.6708
  829MOL0     C11796   9.455   5.020   7.187 -0.5363 -0.1967 -0.2008
  829MOL0     N11797   9.373   4.908   7.239 -0.1593 -0.0212 -0.4422
  829MOL0     C11798   9.304   4.913   7.359 -0.0168  1.6941  0.0847
  829MOL0     C11799   9.229   4.794   7.351 -0.4467  0.1995  0.9210
  829MOL0     C11800   9.116   4.747   7.437  0.4832 -0.7988  0.1837
  829MOL0     C11801   9.079   4.823   7.563 -0.3112  0.5202  0.6158
  829MOL0     C11802   8.943   4.786   7.622  0.4065  0.5736 -1.2168
  829MOL0     C11803   8.939   4.834   7.770  0.4224  0.2739 -0.1256
  829MOL0     O11804   8.798   4.850   7.781  0.1683 -0.0639  0.4118
  829MOL0     C11805   8.753   4.861   7.910  0.4657 -0.4439  0.8203
  829MOL0     C11806   8.827   4.873   8.027  0.4063 -0.4714 -0.3349
  829MOL0     C11807   8.769   4.895   8.150 -0.1471  0.4471 -0.4774
  829MOL0     C11808   8.631   4.905   8.156  0.3869  0.3078 -0.5595
  829MOL0     C11809   8.559   4.942   8.283  0.7567 -0.7960 -0.0205
  829MOL0     O11810   8.419   4.928   8.279 -0.1025 -0.0755 -0.5952
  829MOL0     C11811   8.325   4.967   8.381 -0.5522 -0.1989 -0.4496
  829MOL0     C11812   8.199   4.894   8.393  0.0722  0.3486  0.0794
  829MOL0     C11813   8.107   4.927   8.487 -0.3005  0.6192  0.3011
  829MOL0     C11814   8.136   5.024   8.585  0.2138  0.4292  0.6173
  829MOL0     O11815   8.044   5.035   8.687 -0.5512 -0.1669 -0.1783
  829MOL0     C11816   8.063   5.155   8.762 -0.6359 -0.8429  0.3243
  829MOL0     C11817   7.928   5.175   8.828  0.2803 -0.3412  0.3406
  829MOL0     C11818   7.912   5.081   8.951 -0.2806 -1.0221 -0.0625
  829MOL0     C11819   7.821   5.125   9.056 -0.0008  0.1259 -0.1078
  829MOL0     C11820   7.865   5.248   9.145  0.3620 -0.7429 -0.8506
  829MOL0     C11821   7.793   5.250   9.280  0.5650 -0.5657 -0.0797
  829MOL0     C11822   7.822   5.377   9.363  0.0714  0.8692  0.0076
  829MOL0     C11823   7.776   5.355   9.520 -0.4518 -0.3252 -0.1748
  829MOL0    Cl11824   7.607   5.298   9.537 -0.2187 -0.0403 -0.1973
  829MOL0     C11825   8.260   5.096   8.576  0.3871 -0.6874 -0.7371
  829MOL0     C11826   8.348   5.077   8.472 -0.4117 -1.2412  0.6263
  829MOL0     O11827   8.616   4.986   8.380 -0.9064 -0.5370  0.5972
  829MOL0     C11828   8.557   4.890   8.040 -0.7868  0.0544 -0.2982
  829MOL0     C11829   8.617   4.869   7.916  0.0071 -0.4970  0.2629
  829MOL0     N11830   9.252   4.727   7.230 -0.1494 -0.2104 -0.3218
  829MOL0     N11831   9.336   4.797   7.168 -0.4455  0.7013 -1.4852
  829MOL0     C11832   8.778   4.940   6.398  0.7016  0.0126 -0.2022
  829MOL0     C11833   8.737   4.875   6.285 -0.0951  0.5827  0.4112
  829MOL0     C11834   8.511   4.621   5.998 -0.9275 -0.9180  0.3448
  829MOL0     C11835   8.384   4.653   5.949  0.5800 -0.0719 -0.0837
  829MOL0     C11836   8.335   4.622   5.820 -0.1172  0.2373  0.7129
  829MOL0     C11837   8.407   4.526   5.744 -0.1131  0.5411  0.2822
  829MOL0     O11838   8.378   4.461   5.628  0.3025 -0.4082  0.4503
  829MOL0     C11839   8.243   4.481   5.578  0.6126 -0.4582 -0.7621
  829MOL0     C11840   8.218   4.406   5.454 -0.4821  0.1226 -0.2717
  829MOL0     C11841   8.200   4.253   5.479  0.2860 -0.2305 -0.6282
  829MOL0     C11842   8.334   4.193   5.479 -0.2439 -0.1068 -0.1721
  829MOL0     C11843   8.308   4.049   5.524 -0.1726  0.4035  0.0760
  829MOL0     C11844   8.274   3.943   5.572 -0.5300 -0.1012 -0.9701
  829MOL0     C11845   8.527   4.479   5.799 -0.2772  0.4657  0.7743
  829MOL0     C11846   8.587   4.532   5.923  0.2492 -0.1580 -0.0075
  829MOL0     C11847   8.726   4.490   5.956  0.5109  0.1111 -0.4194
  829MOL0     H11848   8.611   4.597   6.431 -2.0019  2.3135  0.5983
  829MOL0     H11849   8.721   4.685   6.617 -0.2087 -4.2368 -1.9576
  829MOL0     H11850   8.979   5.027   6.553  0.6733 -5.8216  0.2738
  829MOL0     H11851   8.851   5.123   6.646 -0.2567 -0.0104  0.4049
  829MOL0     H11852   8.914   5.039   6.853 -1.5249 -0.9057 -1.8588
  829MOL0     H11853   9.044   5.117   6.767 -0.0202  0.0272  1.1599
  829MOL0     H11854   9.110   4.877   6.681  1.1131  2.8182  0.1921
  829MOL0     H11855   9.012   4.814   6.809 -0.4454  0.3814 -0.3833
  829MOL0     H11856   9.154   4.934   6.981 -0.4718  1.5981  0.1659
  829MOL0     H11857   9.248   4.815   6.882 -1.1422 -0.5299  1.6275
  829MOL0     H11858   9.327   4.976   6.733  1.2614  0.7965 -0.3412
  829MOL0     H11859   9.276   5.120   6.813  0.7041 -0.8961 -0.9024
  829MOL0     H11860   9.450   4.922   6.947 -0.1193  0.2974  2.1890
  829MOL0     H11861   9.488   5.095   6.876 -0.4740  1.3546  0.2168
  829MOL0     H11862   9.282   5.079   7.085  0.1114 -1.5689  1.5406
  829MOL0     H11863   9.417   5.192   7.056  4.9068 -1.4898 -0.2493
  829MOL0     H11864   9.552   4.982   7.155 -1.6840 -3.5044 -0.1123
  829MOL0     H11865   9.463   5.095   7.266 -2.2538  1.2699 -1.3355
  829MOL0     H11866   9.292   4.998   7.426  0.3063  0.8474  1.2482
  829MOL0     H11867   9.034   4.763   7.367  0.1928 -1.6939  0.2978
  829MOL0     H11868   9.130   4.642   7.465  2.7099 -0.2845  1.2211
  829MOL0     H11869   9.156   4.825   7.640 -0.8414  4.2444  1.2231
  829MOL0     H11870   9.069   4.931   7.548 -2.5111  0.2214 -0.5390
  829MOL0     H11871   8.946   4.676   7.624 -0.8698  0.4904 -2.3484
  829MOL0     H11872   8.855   4.823   7.569 -1.1960 -1.2827 -0.0391
  829MOL0     H11873   8.999   4.922   7.794  1.2543 -0.3709  0.2237
  829MOL0     H11874   8.988   4.752   7.824  1.5623 -2.0873 -4.3229
  829MOL0     H11875   8.935   4.877   8.037  0.4830 -3.5544  1.4599
  829MOL0     H11876   8.829   4.920   8.237  1.2986 -2.4438 -0.5194
  829MOL0     H11877   8.201   4.804   8.332  2.3616 -0.2240  0.8999
  829MOL0     H11878   8.022   4.861   8.499 -1.5847  2.2586  0.3957
  829MOL0     H11879   8.145   5.134   8.832 -0.5159 -0.2631  0.3629
  829MOL0     H11880   8.071   5.246   8.702 -2.7901 -2.1501 -2.1938
  829MOL0     H11881   7.920   5.282   8.852 -0.1150 -0.5863  1.3388
  829MOL0     H11882   7.845   5.159   8.758 -1.2142  2.1956  1.3643
  829MOL0     H11883   7.877   4.983   8.917  2.0967 -1.4303 -1.6549
  829MOL0     H11884   8.004   5.054   9.004 -2.1240 -1.5178  3.1149
  829MOL0     H11885   7.813   5.032   9.114  1.3096 -1.3213 -2.1462
  829MOL0     H11886   7.728   5.149   9.003  1.8846  4.1209 -2.0489
  829MOL0     H11887   7.853   5.343   9.092  1.0566  0.8784  1.6753
  829MOL0     H11888   7.973   5.236   9.157  0.7613  2.7732  0.4088
  829MOL0     H11889   7.685   5.244   9.260  0.6766 -0.8980 -0.5920
  829MOL0     H11890   7.820   5.163   9.342  1.9553 -0.8609 -1.0636
  829MOL0     H11891   7.763   5.462   9.326  0.1277  1.1032  0.4524
  829MOL0     H11892   7.927   5.402   9.348 -0.1966  0.7467 -2.5620
  829MOL0     H11893   7.829   5.265   9.551 -2.4452 -1.2269  0.8536
  829MOL0     H11894   7.784   5.448   9.579  0.4885  0.3162 -1.2808
  829MOL0     H11895   8.277   5.179   8.644  0.0161 -1.4111  0.2597
  829MOL0     H11896   8.434   5.142   8.460  0.4468 -2.2505  1.1225
  829MOL0     H11897   8.451   4.912   8.031  0.2514  5.6064 -5.0946
  829MOL0     H11898   8.564   4.868   7.822  0.6206  1.7532 -0.1610
  829MOL0     H11899   8.805   5.045   6.392  1.3157  0.0324  2.1202
  829MOL0     H11900   8.751   4.919   6.186  3.6588  1.5950  1.2246
  829MOL0     H11901   8.322   4.719   6.008  1.6892  0.7308  0.2318
  829MOL0     H11902   8.244   4.673   5.788  0.7604  2.4801  1.5896
  829MOL0     H11903   8.222   4.588   5.571  1.1539  0.0677  3.4924
  829MOL0     H11904   8.175   4.437   5.652  2.0966  1.0018  1.5801
  829MOL0     H11905   8.296   4.426   5.379  1.3710 -0.8499  1.2928
  829MOL0     H11906   8.127   4.451   5.413 -1.0855 -0.8236  0.0040
  829MOL0     H11907   8.157   4.204   5.391 -0.0729  0.6881 -0.9824
  829MOL0     H11908   8.135   4.225   5.562 -1.7130  2.5802 -1.0920
  829MOL0     H11909   8.395   4.190   5.388  2.1842  0.7419  1.3301
  829MOL0     H11910   8.392   4.233   5.563 -1.8715  0.5385  0.6824
  829MOL0     H11911   8.247   3.862   5.636  3.9468  1.0086  2.9042
  829MOL0     H11912   8.580   4.402   5.744  0.1675  2.3135 -1.5337
  829MOL0     H11913   8.763   4.413   5.887 -2.2418 -2.4044  0.6877
  829MOL0     H11914   8.793   4.576   5.960  3.5232 -2.0949  0.5474
  829MOL0     H11915   8.734   4.442   6.054 -3.6661 -1.3755 -0.6059
  830MOL0     O11916  10.673   5.338   7.693  0.0624  0.3847  1.0680
  830MOL0     C11917  10.641   5.418   7.782 -0.2217 -0.1514 -0.1585
  830MOL0     O11918  10.691   5.405   7.905  0.0239 -0.3271 -0.5624
  830MOL0     C11919  10.821   5.407   7.925 -0.2864 -0.0570  0.4505
  830MOL0     C11920  10.906   5.309   7.875  0.0347 -0.5121 -0.5912
  830MOL0     C11921  11.043   5.317   7.905  0.1606  0.1562 -0.0663
  830MOL0     C11922  11.100   5.429   7.965  0.1708  1.1291 -0.0976
  830MOL0     O11923  11.227   5.401   7.999  0.3338  0.5602  0.4644
  830MOL0     C11924  11.305   5.475   8.097  0.3422 -0.6087  0.5344
  830MOL0     C11925  11.256   5.415   8.240  0.7197 -1.2687  0.1462
  830MOL0     C11926  11.288   5.266   8.248 -0.1142 -0.6169  0.7698
  830MOL0     C11927  11.238   5.209   8.375  0.5959  0.5109  0.0523
  830MOL0     C11928  11.087   5.181   8.365 -0.1814  0.0577  0.3989
  830MOL0     C11929  11.037   5.151   8.508 -0.1891 -1.2378  0.2124
  830MOL0     C11930  10.885   5.120   8.518  0.5882  0.5698  0.3242
  830MOL0     C11931  10.841   5.079   8.665 -0.1242 -0.3452  0.1218
  830MOL0     N11932  10.837   5.194   8.751  0.0009 -0.3359 -0.4538
  830MOL0     C11933  10.744   5.289   8.753 -0.1403 -0.3720  0.7398
  830MOL0     C11934  10.770   5.369   8.859  0.7272 -0.4855  0.2010
  830MOL0     C11935  10.697   5.486   8.906 -0.1745 -0.0762 -0.3364
  830MOL0     C11936  10.553   5.512   8.870 -0.0422  0.4035 -0.3334
  830MOL0     C11937  10.461   5.395   8.898  0.7003 -0.3828 -0.8987
  830MOL0     C11938  10.314   5.448   8.892 -0.2338 -0.8558  0.0555
  830MOL0     O11939  10.253   5.496   8.769  0.2495  0.0164 -1.0112
  830MOL0     C11940  10.203   5.414   8.670 -0.9625 -0.6589  0.5931
  830MOL0     C11941  10.243   5.279   8.655  0.4638  0.2395 -0.2377
  830MOL0     C11942  10.192   5.203   8.543  0.6046  0.2426  0.5068
  830MOL0     C11943  10.092   5.260   8.454  0.4221 -0.2527 -0.4091
  830MOL0     C11944  10.032   5.189   8.344 -0.9332 -1.5005 -1.1605
  830MOL0     O11945  10.103   5.081   8.300 -0.6372 -0.2121  0.1322
  830MOL0     C11946  10.093   5.014   8.189 -0.2326 -0.7968 -0.2227
  830MOL0     C11947  10.189   4.918   8.168  0.1173  0.0197 -0.1978
  830MOL0     C11948  10.197   4.845   8.051 -0.7040  0.2205 -0.0207
  830MOL0     C11949  10.103   4.863   7.956 -0.7205  0.5908  0.0288
  830MOL0     O11950  10.105   4.777   7.847  0.0695 -0.3590  0.1982
  830MOL0     C11951   9.990   4.713   7.795  0.0003 -0.7243 -1.0767
  830MOL0     C11952   9.975   4.749   7.646 -0.5464  0.5455  0.4513
  830MOL0     C11953   9.887   4.645   7.565  0.3138 -1.3833  0.0313
  830MOL0     C11954   9.881   4.697   7.421  0.6244  0.3765  0.4875
  830MOL0     C11955   9.797   4.611   7.331  0.2665  0.3846 -0.4768
  830MOL0     C11956   9.801   4.645   7.177 -0.5477  0.5048 -0.4609
  830MOL0     C11957   9.667   4.609   7.099  0.3938 -0.1561 -0.3205
  830MOL0     C11958   9.681   4.642   6.946 -0.8431  0.6108  0.8028
  830MOL0    Cl11959   9.786   4.519   6.859  0.0682 -0.1813  0.2288
  830MOL0     C11960  10.003   4.966   7.969 -0.1689  0.6036  0.0425
  830MOL0     C11961  10.006   5.043   8.090  1.0230 -0.7081  0.4498
  830MOL0     O11962   9.935   5.244   8.289  0.5867  0.3099  0.3380
  830MOL0     C11963  10.064   5.399   8.470 -0.1757  0.0461  0.4306
  830MOL0     C11964  10.114   5.471   8.579 -0.0990 -1.2372 -0.4192
  830MOL0     N11965  10.867   5.312   8.934 -0.0600 -0.5367  1.0160
  830MOL0     N11966  10.917   5.213   8.862  0.7362 -0.5737 -0.8541
  830MOL0     C11967  11.019   5.531   8.009 -0.1725 -0.8935 -0.1603
  830MOL0     C11968  10.882   5.522   7.983  0.1014 -0.4475  0.2646
  830MOL0     C11969  10.547   5.524   7.758 -0.1099  0.9238 -0.6330
  830MOL0     C11970  10.546   5.631   7.856  0.7688 -0.4147 -0.0785
  830MOL0     C11971  10.467   5.740   7.841  1.3748  1.1470  1.2863
  830MOL0     C11972  10.391   5.759   7.722  0.3890  0.2653  0.4199
  830MOL0     O11973  10.323   5.880   7.719 -0.3070 -0.3600  0.2140
  830MOL0     C11974  10.208   5.870   7.645 -0.1238 -0.0403  0.3456
  830MOL0     C11975  10.117   5.987   7.677 -0.6397  0.0692  0.5759
  830MOL0     C11976  10.029   5.956   7.803  0.8249 -0.6779  0.3957
  830MOL0     C11977   9.924   5.839   7.787  0.3401 -1.0565  0.1883
  830MOL0     C11978   9.817   5.889   7.705 -0.0246 -0.0763  0.2108
  830MOL0     C11979   9.731   5.946   7.640  0.0952 -0.8614  0.4187
  830MOL0     C11980  10.405   5.653   7.629 -0.0746 -0.3186 -0.3750
  830MOL0     C11981  10.475   5.535   7.643 -0.1480 -0.7304 -0.7010
  830MOL0     C11982  10.455   5.426   7.515 -0.2824  0.2157 -0.8571
  830MOL0     H11983  10.869   5.214   7.837  1.5553 -1.1270 -0.5804
  830MOL0     H11984  11.113   5.235   7.891  0.9339  0.4039  1.9836
  830MOL0     H11985  11.413   5.455   8.098  0.4112 -0.2063  0.8661
  830MOL0     H11986  11.282   5.581   8.095  0.8531 -0.4949  0.3362
  830MOL0     H11987  11.151   5.445   8.247  0.4974 -0.9201 -3.2643
  830MOL0     H11988  11.321   5.463   8.314  0.5029 -0.0981 -0.4097
  830MOL0     H11989  11.393   5.241   8.233 -0.7474 -1.8047 -2.7130
  830MOL0     H11990  11.246   5.218   8.159 -0.7874 -1.2566  1.4167
  830MOL0     H11991  11.292   5.115   8.393 -1.3306 -0.2574  2.2647
  830MOL0     H11992  11.268   5.268   8.462  0.5939  0.0607  0.3637
  830MOL0     H11993  11.041   5.270   8.321  0.6921  0.5184  0.3903
  830MOL0     H11994  11.070   5.098   8.296 -2.4512  1.9278 -1.4733
  830MOL0     H11995  11.089   5.065   8.552 -0.3705  0.6852  4.6825
  830MOL0     H11996  11.054   5.242   8.566 -1.3743 -3.1043  3.8705
  830MOL0     H11997  10.865   5.032   8.455  1.9607  0.0331  0.6033
  830MOL0     H11998  10.834   5.208   8.479  0.5217  0.1863 -0.4769
  830MOL0     H11999  10.743   5.033   8.651 -1.9351  2.9687  0.7350
  830MOL0     H12000  10.915   5.010   8.706 -0.4675 -2.0137 -1.9047
  830MOL0     H12001  10.667   5.299   8.677  0.4440 -0.3005  0.1432
  830MOL0     H12002  10.696   5.473   9.015 -2.4797  0.1738 -0.2603
  830MOL0     H12003  10.754   5.578   8.889 -3.4727  2.5371  1.4475
  830MOL0     H12004  10.519   5.592   8.936 -0.8856  0.2801 -0.5982
  830MOL0     H12005  10.548   5.544   8.765  3.9930 -0.9260 -1.0996
  830MOL0     H12006  10.470   5.359   9.001 -2.2903  0.4310 -0.2615
  830MOL0     H12007  10.468   5.306   8.834 -2.3276 -1.2622 -0.1634
  830MOL0     H12008  10.314   5.525   8.969  0.2810 -1.8708  1.0961
  830MOL0     H12009  10.243   5.379   8.939  1.4378 -2.9198 -0.2990
  830MOL0     H12010  10.300   5.227   8.731  0.0138 -0.3012 -0.2658
  830MOL0     H12011  10.209   5.095   8.546 -0.1777  0.1284  1.8738
  830MOL0     H12012  10.260   4.904   8.249  0.6929  2.4963 -0.1828
  830MOL0     H12013  10.278   4.773   8.052  1.9535  2.9102 -1.8875
  830MOL0     H12014  10.007   4.605   7.808 -2.3092 -1.0924 -0.7627
  830MOL0     H12015   9.898   4.732   7.851 -0.0957 -0.7954 -1.2100
  830MOL0     H12016   9.924   4.844   7.628 -1.5266 -0.0454  0.0394
  830MOL0     H12017  10.071   4.770   7.599 -2.4131  0.5139 -3.8718
  830MOL0     H12018   9.924   4.542   7.578 -1.0056 -1.9786 -0.6888
  830MOL0     H12019   9.787   4.640   7.610  1.4728 -1.5819  2.8264
  830MOL0     H12020   9.976   4.681   7.369  0.0482 -0.0462 -0.4703
  830MOL0     H12021   9.861   4.804   7.424 -0.1268  0.3030 -0.8769
  830MOL0     H12022   9.691   4.615   7.357  0.4003 -1.4939  0.5210
  830MOL0     H12023   9.828   4.507   7.344 -1.5446 -0.0034  1.2970
  830MOL0     H12024   9.826   4.750   7.158  0.9136 -0.1421 -2.5150
  830MOL0     H12025   9.888   4.594   7.133  0.5970  1.9875  0.0247
  830MOL0     H12026   9.574   4.653   7.137 -0.7303 -0.9851 -1.9820
  830MOL0     H12027   9.643   4.503   7.113 -2.3960  0.4842  0.3296
  830MOL0     H12028   9.584   4.647   6.894  0.2036  0.6772 -1.2446
  830MOL0     H12029   9.728   4.741   6.942  0.7755 -0.1615 -0.1035
  830MOL0     H12030   9.933   4.998   7.893 -2.8332 -0.9568  1.6576
  830MOL0     H12031   9.935   5.125   8.092  1.8896  0.0531  0.7324
  830MOL0     H12032  10.002   5.451   8.397 -2.2874  0.4172  2.3688
  830MOL0     H12033  10.090   5.577   8.577  2.9002 -0.4848 -1.3530
  830MOL0     H12034  11.071   5.609   8.063  0.3140 -2.0773  1.1490
  830MOL0     H12035  10.827   5.612   8.012 -0.2187  0.3278 -2.4490
  830MOL0     H12036  10.590   5.623   7.955  2.4217 -1.2593 -0.8492
  830MOL0     H12037  10.475   5.820   7.915 -0.2617  1.8245  0.7601
  830MOL0     H12038  10.147   5.780   7.659 -2.7084  1.8890  2.5302
  830MOL0     H12039  10.223   5.882   7.537  0.9914  1.2482  0.6186
  830MOL0     H12040  10.059   6.012   7.588  0.1713  0.7701  0.2306
  830MOL0     H12041  10.174   6.078   7.699 -1.0462 -0.2271  3.2518
  830MOL0     H12042   9.960   6.040   7.814  0.7728  0.0463 -3.7255
  830MOL0     H12043  10.100   5.947   7.886  0.2410 -2.2834  0.7451
  830MOL0     H12044   9.975   5.752   7.745 -0.4092 -1.8284  0.8610
  830MOL0     H12045   9.904   5.807   7.889  1.9152  1.8336  1.5119
  830MOL0     H12046   9.666   6.001   7.574 -0.6238 -2.5608 -0.3422
  830MOL0     H12047  10.358   5.673   7.533 -2.6261  3.3565  1.3768
  830MOL0     H12048  10.388   5.464   7.438  0.6132 -1.8782 -2.7688
  830MOL0     H12049  10.549   5.402   7.467 -1.1745 -4.0422 -0.8265
  830MOL0     H12050  10.418   5.331   7.555 -3.3321  1.9560  0.9127
  831MOL0     O12051   4.507   9.660   4.268 -0.2898  0.6827  0.0986
  831MOL0     C12052   4.488   9.713   4.375  0.1402  0.2652 -0.6738
  831MOL0     O12053   4.422   9.825   4.386 -0.4195 -0.4814 -0.2185
  831MOL0     C12054   4.358   9.875   4.277 -0.6492 -0.7567  0.3733
  831MOL0     C12055   4.226   9.844   4.245 -0.0702 -0.8174  0.7979
  831MOL0     C12056   4.166   9.920   4.141  0.1698  0.2572  0.0482
  831MOL0     C12057   4.239  10.017   4.077 -0.2391  0.4743  0.1313
  831MOL0     O12058   4.170  10.089   3.980  0.2008  0.8835  0.1196
  831MOL0     C12059   4.164  10.233   4.020 -0.0924  0.2586 -0.3998
  831MOL0     C12060   4.022  10.286   3.979  0.9469  0.6903 -0.2210
  831MOL0     C12061   3.981  10.254   3.839  0.5677 -0.2674  0.0111
  831MOL0     C12062   4.100  10.299   3.744 -0.2550 -0.2430  0.2727
  831MOL0     C12063   4.064  10.288   3.593 -0.1431  0.0223 -1.7152
  831MOL0     C12064   3.945  10.388   3.551  0.0860  0.0050  0.0747
  831MOL0     C12065   3.971  10.539   3.577 -0.5774  0.3775 -0.0687
  831MOL0     C12066   3.862  10.637   3.520 -0.4475  0.4986  0.2200
  831MOL0     N12067   3.840  10.607   3.380 -0.0793  0.3624 -0.0364
  831MOL0     C12068   3.901  10.647   3.273 -0.7032 -0.0523  0.2595
  831MOL0     C12069   3.833  10.604   3.169 -0.0759  0.5746 -0.7090
  831MOL0     C12070   3.851  10.609   3.022  0.6222  0.3160  0.9634
  831MOL0     C12071   3.877  10.465   2.959  1.2088 -0.4833 -0.8502
  831MOL0     C12072   3.967  10.376   3.047  1.1391  0.6078  0.4249
  831MOL0     C12073   4.118  10.414   3.040  0.0034  0.2016  0.6743
  831MOL0     O12074   4.144  10.545   3.092  0.1141  0.4436  0.1287
  831MOL0     C12075   4.258  10.605   3.036 -0.3925  0.0946  0.0018
  831MOL0     C12076   4.271  10.750   3.054 -0.0164 -0.9015 -0.5816
  831MOL0     C12077   4.372  10.831   3.001 -0.2995  0.5145 -0.3325
  831MOL0     C12078   4.473  10.763   2.926  0.5381 -1.0551 -0.3712
  831MOL0     C12079   4.596  10.835   2.892  0.2479  0.2155  0.7388
  831MOL0     O12080   4.642  10.942   2.981  0.5599 -0.5819 -0.6158
  831MOL0     C12081   4.759  11.012   2.952  0.8039  0.3884  0.7796
  831MOL0     C12082   4.876  10.944   2.965  0.0395 -0.0318  0.8896
  831MOL0     C12083   4.997  11.008   2.931 -0.3614 -0.7119  0.0370
  831MOL0     C12084   5.000  11.137   2.865  0.4327  0.7065  0.6484
  831MOL0     O12085   5.110  11.201   2.813  0.2832  1.3756 -0.0880
  831MOL0     C12086   5.216  11.125   2.768 -0.4729 -0.1084 -0.5488
  831MOL0     C12087   5.321  11.217   2.699 -0.9463  0.3463  0.6394
  831MOL0     C12088   5.444  11.152   2.642  0.4794  0.3489  0.0635
  831MOL0     C12089   5.558  11.117   2.738  0.7188 -0.5095  0.4004
  831MOL0     C12090   5.680  11.090   2.659 -0.6471  1.9443  0.4029
  831MOL0     C12091   5.736  11.207   2.582  0.2846 -0.1432  0.1105
  831MOL0     C12092   5.888  11.185   2.571  0.5926 -0.1923  0.4420
  831MOL0     C12093   5.923  11.270   2.449 -0.2204  0.2613  0.1032
  831MOL0    Cl12094   5.954  11.180   2.295  0.0762 -0.3400 -0.1917
  831MOL0     C12095   4.877  11.207   2.852 -0.2539 -0.0102  0.1304
  831MOL0     C12096   4.763  11.136   2.884  0.1068 -0.3871 -0.8493
  831MOL0     O12097   4.662  10.787   2.800  0.1514 -0.4545 -0.1396
  831MOL0     C12098   4.471  10.626   2.905  0.5662 -0.9472 -0.1763
  831MOL0     C12099   4.357  10.549   2.958  0.9057  0.4426  0.4489
  831MOL0     N12100   3.729  10.532   3.215  0.5407 -0.6407 -0.2535
  831MOL0     N12101   3.732  10.530   3.343 -0.1767 -0.3608 -0.1673
  831MOL0     C12102   4.368  10.056   4.110 -0.7449 -0.6208  1.0799
  831MOL0     C12103   4.422   9.984   4.217 -0.2865 -0.5194 -0.0180
  831MOL0     C12104   4.545   9.657   4.497  1.0570 -0.3400 -0.4511
  831MOL0     C12105   4.521   9.719   4.620  1.0130 -0.2776 -0.1580
  831MOL0     C12106   4.563   9.677   4.746 -0.4531 -0.0250 -0.1504
  831MOL0     C12107   4.632   9.556   4.759  0.0604 -0.4402  0.4033
  831MOL0     O12108   4.667   9.494   4.876  0.4538  0.3941  0.0440
  831MOL0     C12109   4.687   9.573   4.992 -0.9497  0.4028 -0.1168
  831MOL0     C12110   4.561   9.572   5.082 -0.4733  0.6526  0.0466
  831MOL0     C12111   4.528   9.432   5.142  0.7930  0.5949 -0.2832
  831MOL0     C12112   4.398   9.429   5.212  0.8647 -0.3417 -0.2090
  831MOL0     C12113   4.374   9.537   5.312 -0.2252  0.5826 -0.4300
  831MOL0     C12114   4.357   9.625   5.391  0.2322  0.1106  0.0956
  831MOL0     C12115   4.650   9.492   4.644 -0.8807  0.4110  1.1779
  831MOL0     C12116   4.626   9.539   4.507 -0.5112 -0.2700 -0.3129
  831MOL0     C12117   4.660   9.457   4.391  0.2422 -0.0591  0.1502
  831MOL0     H12118   4.170   9.765   4.294  0.7596 -2.0696 -0.2440
  831MOL0     H12119   4.064   9.913   4.103 -0.1263 -0.3944  0.9156
  831MOL0     H12120   4.183  10.242   4.128  1.5670 -1.3377 -0.5238
  831MOL0     H12121   4.245  10.288   3.972 -1.9214  3.3977 -0.1953
  831MOL0     H12122   4.016  10.394   3.995 -1.7214  0.4854  0.7549
  831MOL0     H12123   3.942  10.236   4.034 -3.0631  0.9346 -5.0795
  831MOL0     H12124   3.881  10.280   3.802 -1.7414 -3.6853  3.1687
  831MOL0     H12125   3.979  10.146   3.824 -1.4347 -0.5086  1.6669
  831MOL0     H12126   4.125  10.404   3.762 -2.0039  0.5801 -1.6701
  831MOL0     H12127   4.189  10.237   3.761  0.5839  0.8151 -0.1767
  831MOL0     H12128   4.158  10.312   3.543 -0.2280  0.6822 -1.5674
  831MOL0     H12129   4.035  10.183   3.583 -0.4161  0.0896 -1.6631
  831MOL0     H12130   3.948  10.378   3.442  2.2134  0.0359  0.0859
  831MOL0     H12131   3.846  10.355   3.584 -0.0216 -0.0680 -0.3118
  831MOL0     H12132   4.067  10.560   3.529 -1.4571 -0.0595 -2.0899
  831MOL0     H12133   3.987  10.569   3.681  0.8681  1.4699 -0.5719
  831MOL0     H12134   3.771  10.621   3.579 -0.1556 -0.5473  0.4029
  831MOL0     H12135   3.895  10.741   3.526  2.6840 -0.4749  2.3197
  831MOL0     H12136   3.996  10.701   3.274 -0.1317 -0.6697 -3.8806
  831MOL0     H12137   3.760  10.660   2.991 -1.0304 -1.2301  2.9945
  831MOL0     H12138   3.937  10.672   2.999 -0.0325  1.1191  0.6771
  831MOL0     H12139   3.792  10.396   2.950  2.0488 -1.4714 -1.4756
  831MOL0     H12140   3.926  10.488   2.864  3.3313 -3.1785 -0.5622
  831MOL0     H12141   3.961  10.272   3.013  2.3056  0.4125  0.7831
  831MOL0     H12142   3.932  10.391   3.150  0.1383  1.9776 -0.0898
  831MOL0     H12143   4.139  10.426   2.933  0.9736 -0.3760  0.7944
  831MOL0     H12144   4.185  10.344   3.089 -0.1307  0.1751  0.8192
  831MOL0     H12145   4.194  10.794   3.115  1.9226  0.5935  0.9021
  831MOL0     H12146   4.382  10.939   3.012  3.8160  0.5086 -2.4038
  831MOL0     H12147   4.886  10.842   3.001  2.7783 -0.3414 -0.4626
  831MOL0     H12148   5.090  10.955   2.945  1.1824  1.0786 -2.6037
  831MOL0     H12149   5.265  11.076   2.853  0.1189 -0.0428 -0.8413
  831MOL0     H12150   5.185  11.042   2.704  1.9403 -2.7099  1.3903
  831MOL0     H12151   5.267  11.268   2.618 -1.1354  1.1996  1.2831
  831MOL0     H12152   5.337  11.301   2.767 -4.6382  1.3828  0.4582
  831MOL0     H12153   5.393  11.064   2.602  0.0110  0.6361  0.0158
  831MOL0     H12154   5.493  11.210   2.563  4.4461  2.0130  3.4158
  831MOL0     H12155   5.521  11.036   2.802  1.6520 -1.0327  0.2873
  831MOL0     H12156   5.572  11.194   2.815  2.9454 -0.1715 -0.2997
  831MOL0     H12157   5.657  11.003   2.597 -1.5426 -0.1722  3.4667
  831MOL0     H12158   5.750  11.042   2.728  0.1412 -1.4955 -2.4886
  831MOL0     H12159   5.676  11.199   2.492 -3.6372  3.9530  1.9711
  831MOL0     H12160   5.716  11.305   2.626  0.7345  0.6704 -1.4203
  831MOL0     H12161   5.929  11.083   2.574  3.9270  1.0568  1.3057
  831MOL0     H12162   5.934  11.239   2.654 -0.8612  3.3987 -0.8841
  831MOL0     H12163   5.850  11.350   2.437 -2.0398 -1.5878 -2.0250
  831MOL0     H12164   6.017  11.324   2.461  0.5841 -0.5875 -1.9357
  831MOL0     H12165   4.857  11.303   2.808 -2.7948 -0.1198  0.9081
  831MOL0     H12166   4.668  11.185   2.867 -0.4206 -0.6265  1.1470
  831MOL0     H12167   4.556  10.576   2.858  0.8156  0.9474 -1.8503
  831MOL0     H12168   4.356  10.441   2.946 -0.2757  0.3016  1.5439
  831MOL0     H12169   4.408  10.141   4.055 -1.9873 -0.7643 -0.0932
  831MOL0     H12170   4.523   9.999   4.255 -0.3792 -0.1357  0.0775
  831MOL0     H12171   4.462   9.810   4.623  4.7226  2.3265  0.4850
  831MOL0     H12172   4.539   9.730   4.838  1.0481 -0.0645  0.2858
  831MOL0     H12173   4.712   9.677   4.972  0.4557  0.3955  1.3712
  831MOL0     H12174   4.764   9.530   5.057  0.4798 -0.1350 -2.0872
  831MOL0     H12175   4.480   9.609   5.019 -0.2753 -2.2900 -2.1436
  831MOL0     H12176   4.573   9.643   5.164 -0.9453  0.0860  0.6247
  831MOL0     H12177   4.608   9.392   5.205  0.8352 -0.8738 -1.2187
  831MOL0     H12178   4.526   9.363   5.057  1.2154 -3.3964  2.6502
  831MOL0     H12179   4.330   9.438   5.127  0.5594  0.6324  0.1268
  831MOL0     H12180   4.375   9.329   5.249  3.1125 -0.2959  1.4932
  831MOL0     H12181   4.351   9.703   5.463  0.2223  0.3180 -0.1288
  831MOL0     H12182   4.700   9.400   4.673  0.7080  0.8307 -0.0697
  831MOL0     H12183   4.576   9.404   4.346  2.0472 -2.2444 -0.8206
  831MOL0     H12184   4.701   9.518   4.310  1.9382 -1.1789  0.1282
  831MOL0     H12185   4.735   9.382   4.417  0.7915 -0.2725 -1.9305
  832MOL0     O12186   1.542   3.562   0.907  0.1557  0.5528  0.7282
  832MOL0     C12187   1.433   3.584   0.850 -0.5117 -0.9456 -0.1917
  832MOL0     O12188   1.325   3.504   0.856  0.1997 -0.1272 -0.3732
  832MOL0     C12189   1.329   3.387   0.930  0.8645  0.3279 -0.3366
  832MOL0     C12190   1.306   3.260   0.883  0.6419 -0.0506  1.1341
  832MOL0     C12191   1.319   3.139   0.956  0.2671 -0.4997  1.1405
  832MOL0     C12192   1.333   3.153   1.097 -0.4963 -0.4158  0.5179
  832MOL0     O12193   1.353   3.052   1.186  0.9627 -0.3070  0.1496
  832MOL0     C12194   1.266   2.943   1.177  0.4633  1.3136 -0.4296
  832MOL0     C12195   1.115   2.984   1.196  0.2443 -0.0672  0.0978
  832MOL0     C12196   1.031   2.856   1.188 -0.0563 -0.5313 -0.2645
  832MOL0     C12197   1.036   2.771   1.312  1.5240  0.4898 -0.8211
  832MOL0     C12198   0.962   2.638   1.315 -0.0277 -0.0056  1.0213
  832MOL0     C12199   0.834   2.614   1.227 -0.5097 -0.2888  0.2339
  832MOL0     C12200   0.770   2.484   1.257 -0.0050  0.0491  0.0905
  832MOL0     C12201   0.844   2.354   1.209 -0.3522  0.3257 -0.6771
  832MOL0     N12202   0.885   2.352   1.070 -0.0538 -0.2757  0.2480
  832MOL0     C12203   1.010   2.291   1.052  0.2584  0.1103  0.2865
  832MOL0     C12204   1.037   2.321   0.924  0.9016  0.3111 -0.3349
  832MOL0     C12205   1.164   2.296   0.849 -0.0471 -0.8870  0.3536
  832MOL0     C12206   1.258   2.416   0.862 -0.0536 -0.5183 -0.0035
  832MOL0     C12207   1.391   2.389   0.790 -0.5390 -0.3339  0.3048
  832MOL0     C12208   1.374   2.343   0.646 -0.4255  0.5338 -0.6464
  832MOL0     O12209   1.307   2.438   0.569 -0.3690  0.5558  0.2788
  832MOL0     C12210   1.360   2.569   0.563 -0.7311  0.7257 -0.7024
  832MOL0     C12211   1.265   2.676   0.553  0.4312 -0.1203  0.5721
  832MOL0     C12212   1.300   2.803   0.538  0.3412 -0.2518 -0.4465
  832MOL0     C12213   1.438   2.837   0.540 -0.3482  0.0705 -0.0691
  832MOL0     C12214   1.488   2.984   0.519 -0.0604  0.1891  0.2403
  832MOL0     O12215   1.619   3.010   0.505  0.1254 -0.2522  0.6646
  832MOL0     C12216   1.668   3.131   0.541 -0.5242  0.4226  0.5999
  832MOL0     C12217   1.602   3.223   0.623  0.5388  0.3176  0.4539
  832MOL0     C12218   1.664   3.344   0.677  0.6475  1.0817  0.4219
  832MOL0     C12219   1.803   3.372   0.633 -0.1283 -0.0502 -0.2715
  832MOL0     O12220   1.881   3.474   0.680 -0.5485 -0.9907 -0.3410
  832MOL0     C12221   1.854   3.548   0.800 -0.4961 -0.2587  0.5436
  832MOL0     C12222   1.994   3.590   0.863 -0.3421 -0.1147  0.0191
  832MOL0     C12223   1.972   3.651   1.001  0.0433 -0.5847 -0.5295
  832MOL0     C12224   2.095   3.661   1.084  0.3310 -1.2371  0.5126
  832MOL0     C12225   2.126   3.521   1.148 -0.2133 -0.1862 -0.2356
  832MOL0     C12226   2.251   3.514   1.228 -0.2599 -0.9583 -0.4760
  832MOL0     C12227   2.245   3.573   1.378  0.4251  0.4126  0.2811
  832MOL0     C12228   2.295   3.720   1.393  0.4966  0.2820  0.1523
  832MOL0    Cl12229   2.476   3.738   1.416  0.6698  0.0727 -0.2646
  832MOL0     C12230   1.863   3.283   0.540  0.2258 -0.6024 -0.4529
  832MOL0     C12231   1.803   3.168   0.502  0.3861 -1.1210  0.4012
  832MOL0     O12232   1.399   3.064   0.488  0.0211  0.3837  0.3513
  832MOL0     C12233   1.534   2.738   0.541 -0.3750 -0.5414 -0.7181
  832MOL0     C12234   1.497   2.597   0.549  0.4872 -0.3626 -0.7239
  832MOL0     N12235   0.927   2.378   0.865 -0.0760  0.0297  0.5782
  832MOL0     N12236   0.845   2.404   0.953 -0.7696 -0.1081 -0.4203
  832MOL0     C12237   1.360   3.281   1.144  0.0741  0.1495 -0.2170
  832MOL0     C12238   1.350   3.395   1.066  0.1980 -0.2330  0.2356
  832MOL0     C12239   1.422   3.702   0.761 -0.7392 -0.6617  0.2915
  832MOL0     C12240   1.532   3.792   0.749 -0.4057  0.0719 -0.5369
  832MOL0     C12241   1.547   3.896   0.657 -0.1143  0.1088  0.6303
  832MOL0     C12242   1.439   3.919   0.565 -0.4661 -0.0167 -0.9451
  832MOL0     O12243   1.444   4.021   0.464  0.2384  0.0145  0.3115
  832MOL0     C12244   1.340   4.127   0.458 -0.3866 -0.6678  0.4607
  832MOL0     C12245   1.373   4.236   0.557 -0.2124 -0.8393  0.0942
  832MOL0     C12246   1.503   4.327   0.518 -0.5271 -0.5877 -1.1669
  832MOL0     C12247   1.550   4.421   0.633  0.1958 -0.4533  0.4303
  832MOL0     C12248   1.617   4.350   0.745 -0.4485 -1.5522  1.5934
  832MOL0     C12249   1.691   4.309   0.837  0.0479 -0.1029 -0.0002
  832MOL0     C12250   1.324   3.845   0.577  0.8616 -1.1997  0.5386
  832MOL0     C12251   1.311   3.749   0.681  1.1819 -0.2638  0.5172
  832MOL0     C12252   1.173   3.702   0.700  0.1074  0.0277 -0.5105
  832MOL0     H12253   1.290   3.250   0.776 -0.8204  1.8479  1.1188
  832MOL0     H12254   1.329   3.051   0.893 -0.5906  0.8216 -0.9743
  832MOL0     H12255   1.285   2.893   1.082 -1.1735  2.1443 -1.2410
  832MOL0     H12256   1.293   2.869   1.253 -3.7400 -0.0458 -0.0145
  832MOL0     H12257   1.085   3.063   1.126 -1.5133 -0.4679  0.3439
  832MOL0     H12258   1.103   3.021   1.298  3.7255  1.6037  0.0540
  832MOL0     H12259   1.064   2.786   1.110  2.4380 -0.7266  0.8588
  832MOL0     H12260   0.932   2.888   1.154 -0.0235 -0.1676 -0.0151
  832MOL0     H12261   1.142   2.757   1.334  2.0578  2.2596 -2.0545
  832MOL0     H12262   0.989   2.836   1.387 -4.7995 -3.0228 -1.0824
  832MOL0     H12263   1.036   2.562   1.290  0.1366 -0.3059  2.3237
  832MOL0     H12264   0.944   2.628   1.423  0.2815 -2.0864  0.9233
  832MOL0     H12265   0.772   2.703   1.239  0.3235  0.2311  0.7084
  832MOL0     H12266   0.871   2.608   1.124 -0.5911  1.2888  0.0891
  832MOL0     H12267   0.678   2.479   1.199 -1.6530  0.2489  2.5359
  832MOL0     H12268   0.739   2.480   1.362  2.9236  0.2639  1.0495
  832MOL0     H12269   0.933   2.355   1.273  1.3511  1.1960 -2.9452
  832MOL0     H12270   0.782   2.265   1.226 -1.6911  1.6347  2.0096
  832MOL0     H12271   1.078   2.238   1.117 -1.1962 -1.5986  0.5198
  832MOL0     H12272   1.219   2.206   0.881  0.9900 -0.4147 -0.0605
  832MOL0     H12273   1.140   2.275   0.744  3.3158  1.3883 -1.0575
  832MOL0     H12274   1.216   2.506   0.816  0.1408  1.0362  2.6284
  832MOL0     H12275   1.278   2.440   0.967 -0.6052 -1.0171  0.2171
  832MOL0     H12276   1.440   2.307   0.844  1.2881  1.0586  0.8753
  832MOL0     H12277   1.459   2.474   0.792  0.6484 -1.1990 -1.2669
  832MOL0     H12278   1.329   2.243   0.637  0.3605  0.3033 -2.7390
  832MOL0     H12279   1.477   2.320   0.617 -0.0263 -0.6257  1.4800
  832MOL0     H12280   1.157   2.666   0.558  0.4482 -0.3703  0.4496
  832MOL0     H12281   1.215   2.870   0.533  1.6666  1.9314  2.7500
  832MOL0     H12282   1.506   3.194   0.666 -0.9246  1.1546 -2.0185
  832MOL0     H12283   1.599   3.411   0.732 -1.5311 -0.4509 -0.1480
  832MOL0     H12284   1.788   3.629   0.770 -0.8757 -1.2512 -1.4959
  832MOL0     H12285   1.802   3.489   0.876 -0.7752 -0.0698  0.4963
  832MOL0     H12286   2.051   3.497   0.869  3.4271  1.7520 -2.3042
  832MOL0     H12287   2.056   3.661   0.806 -1.2337  0.2075 -0.5711
  832MOL0     H12288   1.957   3.754   0.969  1.6544 -0.3170 -0.5325
  832MOL0     H12289   1.885   3.615   1.056 -1.0072 -0.2224 -1.8839
  832MOL0     H12290   2.070   3.717   1.175 -0.8804 -4.3394  2.2258
  832MOL0     H12291   2.174   3.692   1.015 -0.6446  2.9022  0.9972
  832MOL0     H12292   2.137   3.451   1.065  6.6622  1.5501 -1.4212
  832MOL0     H12293   2.043   3.492   1.213 -0.6447  0.1453 -0.6272
  832MOL0     H12294   2.265   3.406   1.233  0.2554 -0.9938 -2.0841
  832MOL0     H12295   2.339   3.548   1.171  0.3930 -0.9739  0.5061
  832MOL0     H12296   2.306   3.506   1.439 -0.0987 -0.0851  0.2654
  832MOL0     H12297   2.141   3.566   1.409 -0.2916  0.0046 -2.0259
  832MOL0     H12298   2.269   3.789   1.312  0.1025  0.5547  0.5076
  832MOL0     H12299   2.257   3.763   1.486 -0.1729  2.6615 -1.1550
  832MOL0     H12300   1.962   3.306   0.501  0.2189  0.4107  0.0995
  832MOL0     H12301   1.857   3.101   0.436  1.4362 -0.3487  0.4335
  832MOL0     H12302   1.638   2.771   0.541 -0.9109  1.2582  0.3107
  832MOL0     H12303   1.565   2.514   0.568 -1.4340 -1.3369  2.6455
  832MOL0     H12304   1.383   3.287   1.250 -1.1999 -1.0812  0.1637
  832MOL0     H12305   1.373   3.479   1.131 -0.5389 -1.1773  1.7733
  832MOL0     H12306   1.621   3.781   0.810  0.0956  1.1017 -1.0620
  832MOL0     H12307   1.617   3.978   0.642 -2.0656  1.4847 -1.7315
  832MOL0     H12308   1.242   4.085   0.485 -1.2566  0.4398 -0.7953
  832MOL0     H12309   1.346   4.166   0.356 -0.0947  0.8221  1.0368
  832MOL0     H12310   1.364   4.196   0.659 -1.1085 -1.7095 -0.3098
  832MOL0     H12311   1.290   4.306   0.550 -0.7115 -1.3965  0.3136
  832MOL0     H12312   1.485   4.387   0.428  0.3809  2.8108  0.7659
  832MOL0     H12313   1.592   4.265   0.509  2.1780  2.2083  3.1338
  832MOL0     H12314   1.609   4.506   0.594 -0.8161  0.6592  1.2547
  832MOL0     H12315   1.461   4.466   0.677 -0.8058 -2.4606  0.5380
  832MOL0     H12316   1.754   4.279   0.918  1.3475 -0.4352 -1.1010
  832MOL0     H12317   1.239   3.865   0.513 -0.6377 -0.6827  2.6049
  832MOL0     H12318   1.090   3.770   0.680  1.2153  1.4035 -0.6093
  832MOL0     H12319   1.156   3.609   0.644  1.5285 -0.4554 -0.1884
  832MOL0     H12320   1.160   3.679   0.807  0.0976  1.7390 -0.1098
  833MOL0     O12321   1.228  10.779   9.547  1.0203  0.7399  0.5211
  833MOL0     C12322   1.317  10.697   9.575  0.0894 -0.2768 -0.3604
  833MOL0     O12323   1.428  10.666   9.497 -0.5217 -0.4253 -0.1275
  833MOL0     C12324   1.458  10.751   9.401 -1.2320 -0.8154 -1.3092
  833MOL0     C12325   1.407  10.759   9.280  1.0349  0.1385  0.1384
  833MOL0     C12326   1.457  10.839   9.178  0.2144 -0.8058  0.7052
  833MOL0     C12327   1.563  10.924   9.200  0.1764 -0.4173  0.0736
  833MOL0     O12328   1.585  11.013   9.108  0.4989 -0.7132 -0.2898
  833MOL0     C12329   1.669  10.967   9.005  0.6737 -1.3544  1.3774
  833MOL0     C12330   1.821  10.986   9.035  0.3975 -1.2738 -1.1873
  833MOL0     C12331   1.838  11.130   9.091 -0.5211 -0.3401  0.1608
  833MOL0     C12332   1.993  11.151   9.128  0.4887  1.0717 -0.0831
  833MOL0     C12333   2.016  11.290   9.177 -0.6083  0.1561  0.1256
  833MOL0     C12334   2.159  11.296   9.241 -0.2129  0.0014 -0.5790
  833MOL0     C12335   2.282  11.271   9.154  0.6698  0.4127  0.4350
  833MOL0     C12336   2.301  11.353   9.026  0.6265  0.4443  0.3472
  833MOL0     N12337   2.371  11.479   9.061  0.0705 -0.2998 -0.4521
  833MOL0     C12338   2.318  11.584   9.133 -0.4377 -0.0453 -1.1705
  833MOL0     C12339   2.415  11.671   9.150  0.3609  0.1552  0.0359
  833MOL0     C12340   2.415  11.812   9.214  0.2584 -0.2021  1.2022
  833MOL0     C12341   2.364  11.820   9.353 -0.1128  0.6663 -0.5513
  833MOL0     C12342   2.403  11.950   9.420 -0.3342  0.6424  0.2653
  833MOL0     C12343   2.325  11.980   9.551  0.3624  0.3586 -1.1603
  833MOL0     O12344   2.332  11.863   9.637  0.2272  0.0343  0.3021
  833MOL0     C12345   2.237  11.846   9.731  0.6375  0.1928 -0.7239
  833MOL0     C12346   2.224  11.722   9.796 -0.8102 -0.6245  0.8558
  833MOL0     C12347   2.128  11.698   9.889  0.2621 -0.9228  0.3557
  833MOL0     C12348   2.037  11.802   9.930 -0.7217  0.7337  0.0018
  833MOL0     C12349   1.943  11.779  10.045  0.1323  0.4125  0.3581
  833MOL0     O12350   1.963  11.675  10.132  0.5038  0.1067  1.0704
  833MOL0     C12351   1.900  11.666  10.251 -0.2412  0.4831  0.0854
  833MOL0     C12352   1.904  11.776  10.347 -0.3084 -1.0665  0.2581
  833MOL0     C12353   1.865  11.740  10.478  0.5158 -0.1637  0.2215
  833MOL0     C12354   1.815  11.612  10.523  0.6008 -0.1033 -0.2006
  833MOL0     O12355   1.769  11.601  10.651 -0.6713  0.5067  0.0414
  833MOL0     C12356   1.677  11.500  10.671 -0.0080 -0.5983  0.1739
  833MOL0     C12357   1.626  11.511  10.818  0.5082 -0.3535 -0.4151
  833MOL0     C12358   1.563  11.653  10.820  0.3324  0.0872 -0.5802
  833MOL0     C12359   1.474  11.663  10.946  0.6352 -0.7057 -0.6668
  833MOL0     C12360   1.329  11.696  10.926 -0.1429 -0.2100 -0.2619
  833MOL0     C12361   1.262  11.576  10.860  0.6825 -0.0881  0.3532
  833MOL0     C12362   1.144  11.605  10.756 -0.2259  0.3746  0.0964
  833MOL0     C12363   1.064  11.733  10.789 -0.7563  0.2727 -0.3965
  833MOL0    Cl12364   0.949  11.775  10.652  0.1407 -0.0312  0.0512
  833MOL0     C12365   1.803  11.518  10.423 -0.2089 -0.1984 -1.0563
  833MOL0     C12366   1.850  11.537  10.293 -0.1288 -0.8275 -0.1761
  833MOL0     O12367   1.860  11.872  10.053  0.4027 -0.7412 -0.7667
  833MOL0     C12368   2.052  11.923   9.870  0.5637  0.8340 -0.0136
  833MOL0     C12369   2.148  11.950   9.778  0.4085  0.6359  0.7628
  833MOL0     N12370   2.521  11.633   9.081 -0.1003 -0.0459  1.3583
  833MOL0     N12371   2.495  11.524   9.016 -0.1177  0.3068 -0.1662
  833MOL0     C12372   1.602  10.930   9.330 -0.8686 -0.1963  1.2914
  833MOL0     C12373   1.566  10.844   9.428  0.1268 -0.0223 -0.4312
  833MOL0     C12374   1.307  10.608   9.700 -0.2042  0.2154 -0.2741
  833MOL0     C12375   1.341  10.474   9.680  0.0469 -0.0951 -0.0447
  833MOL0     C12376   1.310  10.386   9.781  0.4923  0.1761  0.1356
  833MOL0     C12377   1.243  10.427   9.895  0.2228  0.3754 -0.2123
  833MOL0     O12378   1.188  10.344   9.992 -0.2973  0.2828  0.7636
  833MOL0     C12379   1.247  10.217  10.017  0.5730  0.1734  0.4668
  833MOL0     C12380   1.323  10.217  10.148 -0.7610  0.3583 -0.2172
  833MOL0     C12381   1.231  10.267  10.262 -0.3702 -0.4258  1.1057
  833MOL0     C12382   1.139  10.162  10.316 -0.8592  0.5004 -0.0644
  833MOL0     C12383   1.134  10.199  10.459  0.1472  0.4787  0.6284
  833MOL0     C12384   1.142  10.217  10.574  0.1524 -0.9284  0.0312
  833MOL0     C12385   1.216  10.560   9.917  0.1062 -0.5861  0.2981
  833MOL0     C12386   1.263  10.653   9.820 -0.1227  0.4668 -0.0126
  833MOL0     C12387   1.235  10.801   9.836  0.1973  0.3005  0.2808
  833MOL0     H12388   1.317  10.712   9.242  0.6319  1.5569 -0.7635
  833MOL0     H12389   1.412  10.845   9.079  1.5741  1.7729  0.1428
  833MOL0     H12390   1.637  10.870   8.967 -1.3696  0.0852 -0.8981
  833MOL0     H12391   1.645  11.032   8.921  1.0358  0.2323  2.4536
  833MOL0     H12392   1.887  10.975   8.949  1.0588 -0.2219 -0.8390
  833MOL0     H12393   1.855  10.914   9.110  0.3867  0.5120  0.6311
  833MOL0     H12394   1.778  11.146   9.182 -0.0487  0.9880  0.2561
  833MOL0     H12395   1.808  11.206   9.019  1.5776  3.2325  2.7222
  833MOL0     H12396   2.006  11.087   9.216  0.4170  0.5229 -0.4612
  833MOL0     H12397   2.059  11.131   9.043 -0.0460 -3.8849  0.3858
  833MOL0     H12398   2.012  11.371   9.103  2.4199  2.1144  1.9154
  833MOL0     H12399   1.939  11.316   9.250  0.5441 -0.3667  1.5716
  833MOL0     H12400   2.176  11.392   9.290 -1.6761  0.1555 -0.3313
  833MOL0     H12401   2.161  11.216   9.315  1.8890  0.5754  0.0602
  833MOL0     H12402   2.274  11.167   9.120  2.9204 -0.2712  1.7832
  833MOL0     H12403   2.375  11.269   9.212  0.2792 -1.5015  1.0858
  833MOL0     H12404   2.356  11.295   8.952 -0.7011  0.8958 -1.0524
  833MOL0     H12405   2.210  11.383   8.973  1.4313  2.1765 -0.1005
  833MOL0     H12406   2.214  11.600   9.157 -0.3323  2.8349 -2.1972
  833MOL0     H12407   2.518  11.848   9.213  0.7823 -1.6274  1.9888
  833MOL0     H12408   2.351  11.873   9.149  1.6602 -1.1891 -1.2304
  833MOL0     H12409   2.255  11.818   9.360 -0.0283  1.9259  2.0813
  833MOL0     H12410   2.409  11.738   9.410  4.7966  0.5277 -4.0241
  833MOL0     H12411   2.389  12.034   9.351  0.8710  0.5971 -0.0478
  833MOL0     H12412   2.510  11.946   9.438  0.1791  2.5196 -1.8807
  833MOL0     H12413   2.223  12.016   9.541  0.1679  1.9745  3.7681
  833MOL0     H12414   2.384  12.056   9.604  1.3224 -2.4086  2.1645
  833MOL0     H12415   2.302  11.648   9.775  0.4470 -0.0708  3.2524
  833MOL0     H12416   2.123  11.602   9.940  0.7413 -1.1557 -0.0298
  833MOL0     H12417   1.942  11.875  10.326  3.2695 -2.0628  1.4779
  833MOL0     H12418   1.878  11.814  10.556 -1.5038 -0.6567  1.0871
  833MOL0     H12419   1.587  11.506  10.610  0.4890 -1.0086 -0.6186
  833MOL0     H12420   1.715  11.398  10.667  0.7737 -0.3970  1.8041
  833MOL0     H12421   1.559  11.426  10.835  1.7201 -0.7886  2.9242
  833MOL0     H12422   1.707  11.505  10.892 -1.6441 -2.4137  1.9568
  833MOL0     H12423   1.639  11.731  10.811  0.3766  0.6925  3.2742
  833MOL0     H12424   1.501  11.664  10.730  0.8997  2.2478 -0.7731
  833MOL0     H12425   1.503  11.754  10.999 -0.8276 -0.1131 -0.8317
  833MOL0     H12426   1.482  11.571  11.005 -3.6660 -1.0400 -0.2618
  833MOL0     H12427   1.325  11.786  10.865  5.8735 -0.8023 -2.2367
  833MOL0     H12428   1.284  11.711  11.025  0.4206 -0.6717  0.0714
  833MOL0     H12429   1.330  11.506  10.810 -1.9980 -1.9203 -0.9702
  833MOL0     H12430   1.220  11.522  10.946  1.0428 -0.2630  0.4214
  833MOL0     H12431   1.074  11.521  10.746  1.1181 -0.6890 -0.7566
  833MOL0     H12432   1.204  11.620  10.666 -0.3432 -0.8934 -0.2209
  833MOL0     H12433   1.005  11.729  10.881  1.7508  0.0542  1.3027
  833MOL0     H12434   1.126  11.820  10.813 -3.2784  2.2933 -0.8018
  833MOL0     H12435   1.756  11.423  10.445  0.3267 -1.2397 -3.9964
  833MOL0     H12436   1.844  11.462  10.215  0.4856  1.8833 -3.0426
  833MOL0     H12437   2.001  12.011   9.906  4.4205  3.1762  0.3273
  833MOL0     H12438   2.152  12.053   9.743  1.7643  1.8464  4.0788
  833MOL0     H12439   1.678  11.003   9.358  3.0208 -1.9178 -3.3573
  833MOL0     H12440   1.626  10.861   9.517  1.6553 -1.7648 -1.0717
  833MOL0     H12441   1.387  10.438   9.588 -1.5122 -0.7910 -0.6035
  833MOL0     H12442   1.339  10.283   9.764  0.0832  0.3047 -1.4374
  833MOL0     H12443   1.309  10.179   9.935 -1.1522  0.3255 -0.9811
  833MOL0     H12444   1.164  10.150  10.039 -0.3101  1.6432  1.7984
  833MOL0     H12445   1.398  10.296  10.140  1.7472 -1.9906 -1.5537
  833MOL0     H12446   1.356  10.119  10.183 -0.5321  1.4924  3.0158
  833MOL0     H12447   1.157  10.341  10.229  2.6792  2.6189  0.5694
  833MOL0     H12448   1.294  10.310  10.340  2.0229 -0.6588 -0.5811
  833MOL0     H12449   1.040  10.163  10.269 -1.4156  1.8763  1.0334
  833MOL0     H12450   1.179  10.061  10.313 -3.6696 -0.8334  2.0956
  833MOL0     H12451   1.171  10.252  10.671  0.8905  1.5430 -1.0009
  833MOL0     H12452   1.173  10.596  10.010  2.0250 -0.2030  1.0989
  833MOL0     H12453   1.138  10.827   9.792  0.4834  0.9630  0.0174
  833MOL0     H12454   1.216  10.830   9.939  1.9530  1.3590  0.3468
  833MOL0     H12455   1.317  10.861   9.794 -0.7314  1.2500 -0.2022
  834MOL0     O12456   8.607   4.778   7.385  0.0352 -0.1350  0.3699
  834MOL0     C12457   8.678   4.820   7.295 -0.2921 -0.4727 -0.0818
  834MOL0     O12458   8.690   4.957   7.271  0.1313 -0.8785  0.9829
  834MOL0     C12459   8.657   5.042   7.367  0.1222 -0.2378 -0.1340
  834MOL0     C12460   8.525   5.075   7.377  1.4982  0.6727 -0.4941
  834MOL0     C12461   8.469   5.149   7.480 -0.2000  0.5284 -0.7989
  834MOL0     C12462   8.548   5.202   7.574 -0.2669 -0.9826 -0.1833
  834MOL0     O12463   8.477   5.267   7.680 -0.1218 -0.0252  0.6148
  834MOL0     C12464   8.516   5.244   7.808 -0.2502 -0.1414 -0.2896
  834MOL0     C12465   8.484   5.364   7.897 -0.0141 -0.0726 -0.1498
  834MOL0     C12466   8.568   5.485   7.862  0.3654  0.2877  0.5572
  834MOL0     C12467   8.507   5.604   7.950 -0.6008  0.6393  1.0568
  834MOL0     C12468   8.586   5.737   7.928  1.1745  0.4776 -1.3928
  834MOL0     C12469   8.510   5.857   7.985 -0.2154  0.3177 -0.5470
  834MOL0     C12470   8.557   5.993   7.946  0.2979  0.4762 -0.1617
  834MOL0     C12471   8.692   6.023   8.015  0.2619  0.9701  0.7188
  834MOL0     N12472   8.688   6.024   8.160 -0.1236 -0.1820  0.2304
  834MOL0     C12473   8.593   6.089   8.231  0.1499 -0.4763 -0.3744
  834MOL0     C12474   8.620   6.059   8.361  0.2431 -0.2210  0.4279
  834MOL0     C12475   8.537   6.111   8.490 -0.2701 -0.1627  1.2462
  834MOL0     C12476   8.391   6.083   8.478 -0.1357  0.3884  0.2299
  834MOL0     C12477   8.362   5.941   8.463 -0.1688 -0.0815  0.2578
  834MOL0     C12478   8.217   5.893   8.463 -0.8300 -1.2060  0.3521
  834MOL0     O12479   8.144   5.971   8.365 -0.8714 -0.7656  1.0137
  834MOL0     C12480   8.138   5.912   8.236  0.0701  0.6296 -0.8373
  834MOL0     C12481   8.064   5.980   8.131 -0.9635 -0.1307  0.2710
  834MOL0     C12482   8.053   5.914   8.006  0.2084 -0.5600  0.4513
  834MOL0     C12483   8.115   5.795   7.980  0.7913 -0.5880  0.4189
  834MOL0     C12484   8.092   5.711   7.860 -0.8541 -0.3926  0.5652
  834MOL0     O12485   8.164   5.595   7.842  0.3374  0.5603  0.0411
  834MOL0     C12486   8.135   5.512   7.739 -0.0467 -0.3119 -0.2872
  834MOL0     C12487   8.024   5.430   7.736 -0.1854 -0.0241 -0.8194
  834MOL0     C12488   7.994   5.339   7.641  1.0579 -0.4360 -0.7060
  834MOL0     C12489   8.087   5.330   7.539  0.8372 -0.7453 -0.0450
  834MOL0     O12490   8.079   5.229   7.445  0.0202  0.3365 -0.2720
  834MOL0     C12491   7.967   5.150   7.430  0.3198 -0.2969 -0.9525
  834MOL0     C12492   7.994   5.063   7.299  0.8671  1.0248  0.3312
  834MOL0     C12493   8.103   4.965   7.330 -0.0766 -0.9221 -1.5206
  834MOL0     C12494   8.131   4.887   7.207 -0.2571 -0.2898 -0.8457
  834MOL0     C12495   8.258   4.800   7.221 -0.5122  0.6106 -0.9580
  834MOL0     C12496   8.261   4.669   7.143  1.4014 -0.3505  0.4447
  834MOL0     C12497   8.408   4.628   7.140  0.1667 -0.8985  0.5481
  834MOL0     C12498   8.430   4.485   7.089 -0.4592  0.0325  0.1225
  834MOL0    Cl12499   8.351   4.356   7.179  0.0083  0.0429  0.2058
  834MOL0     C12500   8.191   5.418   7.537 -0.5714  0.8794 -0.1163
  834MOL0     C12501   8.222   5.504   7.639 -0.0798  0.3038  0.4087
  834MOL0     O12502   8.013   5.758   7.781  0.1695  0.0036  0.1674
  834MOL0     C12503   8.187   5.735   8.085  0.5449  1.1581  1.1972
  834MOL0     C12504   8.210   5.794   8.206  0.6652 -0.2683  0.4703
  834MOL0     N12505   8.720   5.965   8.362  0.0146 -0.1668 -0.5224
  834MOL0     N12506   8.761   5.949   8.245 -0.1473  0.4109 -0.3196
  834MOL0     C12507   8.687   5.185   7.572  0.4244 -0.2680 -0.4138
  834MOL0     C12508   8.739   5.103   7.469  0.3884  0.1198 -0.0412
  834MOL0     C12509   8.740   4.727   7.199 -0.0923  0.3662  0.6140
  834MOL0     C12510   8.740   4.776   7.067 -0.4347  0.0824  0.9518
  834MOL0     C12511   8.807   4.704   6.972  0.8945 -0.1452 -0.2717
  834MOL0     C12512   8.870   4.589   7.003 -0.2096  0.4521 -1.2021
  834MOL0     O12513   8.934   4.524   6.911 -0.2848 -0.3730  0.0690
  834MOL0     C12514   9.075   4.548   6.919 -1.0245 -0.1180 -0.6389
  834MOL0     C12515   9.164   4.434   6.872  0.1721  0.0448 -0.2387
  834MOL0     C12516   9.322   4.460   6.882 -0.3190  0.4566  0.5162
  834MOL0     C12517   9.396   4.325   6.861 -0.2549 -0.4601  0.0016
  834MOL0     C12518   9.388   4.264   6.725 -0.2437  0.0466 -0.5581
  834MOL0     C12519   9.367   4.213   6.614  0.3193  0.5603 -0.1690
  834MOL0     C12520   8.856   4.544   7.131  1.0514  0.1124 -0.1118
  834MOL0     C12521   8.788   4.605   7.237 -0.5666 -0.5191  0.8278
  834MOL0     C12522   8.784   4.542   7.370  0.2767  1.2451  0.4635
  834MOL0     H12523   8.450   5.038   7.308 -0.2437  0.6899  1.2853
  834MOL0     H12524   8.365   5.168   7.503 -0.0918 -0.0229  0.2055
  834MOL0     H12525   8.451   5.166   7.848 -2.0386  1.5984  0.3740
  834MOL0     H12526   8.617   5.206   7.825 -0.0206  1.5887  2.8647
  834MOL0     H12527   8.517   5.338   7.998  0.3692  1.8758  0.2827
  834MOL0     H12528   8.377   5.386   7.893 -0.4102 -1.3196  1.8987
  834MOL0     H12529   8.551   5.509   7.757 -0.0636 -0.2223  0.5054
  834MOL0     H12530   8.674   5.461   7.877  0.7927  3.2581  3.5083
  834MOL0     H12531   8.401   5.611   7.925 -0.6047 -2.0655  0.0398
  834MOL0     H12532   8.519   5.571   8.054 -0.1583 -2.4023  0.1298
  834MOL0     H12533   8.687   5.732   7.971  0.3537  1.1602  0.7263
  834MOL0     H12534   8.603   5.749   7.820 -0.2844  4.6629 -1.3257
  834MOL0     H12535   8.409   5.860   7.943 -0.4720 -3.1865 -0.4799
  834MOL0     H12536   8.502   5.848   8.094  3.0476  3.5157  0.1632
  834MOL0     H12537   8.475   6.052   7.989  0.9973  0.1627  1.6890
  834MOL0     H12538   8.569   6.014   7.840  2.6736  0.1311  0.0009
  834MOL0     H12539   8.753   5.938   7.985  3.5544  3.0903  0.8049
  834MOL0     H12540   8.740   6.117   7.987  0.0497  1.6948  2.6284
  834MOL0     H12541   8.518   6.160   8.197  0.4887  0.2454  0.3530
  834MOL0     H12542   8.579   6.071   8.583 -3.2799  1.2735  3.3600
  834MOL0     H12543   8.546   6.220   8.484  0.1456 -0.1640  1.7628
  834MOL0     H12544   8.347   6.127   8.568 -1.0420  1.1693 -0.5769
  834MOL0     H12545   8.360   6.128   8.384  0.9605  1.8733  0.5472
  834MOL0     H12546   8.419   5.878   8.532  1.4624 -1.8076 -2.4761
  834MOL0     H12547   8.410   5.914   8.368  0.6193  1.5901  0.1356
  834MOL0     H12548   8.164   5.901   8.559 -3.4927 -1.4822 -1.0026
  834MOL0     H12549   8.218   5.784   8.453  0.6817 -1.2067  0.2854
  834MOL0     H12550   8.025   6.080   8.149 -1.5699  0.4534 -3.4552
  834MOL0     H12551   7.997   5.962   7.927  0.1579  4.2661  3.0237
  834MOL0     H12552   7.966   5.426   7.828 -0.3930 -0.8167 -0.9787
  834MOL0     H12553   7.905   5.278   7.654  1.7561 -1.1326  1.1173
  834MOL0     H12554   7.951   5.077   7.510  3.5253 -0.1219 -0.0107
  834MOL0     H12555   7.876   5.211   7.428  0.9624  0.7196 -0.1072
  834MOL0     H12556   7.904   5.004   7.283  0.1534  0.6563  4.5633
  834MOL0     H12557   8.017   5.134   7.219 -2.1875  0.5694 -1.0772
  834MOL0     H12558   8.191   5.017   7.369  0.5126 -1.9344 -1.4840
  834MOL0     H12559   8.071   4.900   7.411  3.6152 -0.1905  0.7558
  834MOL0     H12560   8.154   4.943   7.116 -0.0905 -1.1793 -1.3614
  834MOL0     H12561   8.032   4.843   7.193 -2.0017  3.0141 -0.0049
  834MOL0     H12562   8.281   4.774   7.325  1.4351 -0.3192 -1.5713
  834MOL0     H12563   8.342   4.863   7.192 -0.2672  1.4176  1.2950
  834MOL0     H12564   8.201   4.600   7.204 -1.0922 -0.3565 -1.8496
  834MOL0     H12565   8.210   4.673   7.047 -0.3875 -0.2419  1.3635
  834MOL0     H12566   8.458   4.636   7.237  0.3959  0.6522  0.3337
  834MOL0     H12567   8.465   4.681   7.063 -1.2315 -0.0148  0.0730
  834MOL0     H12568   8.408   4.471   6.982  0.5502  2.5317 -0.4807
  834MOL0     H12569   8.535   4.455   7.088 -0.7782 -1.1163 -0.6921
  834MOL0     H12570   8.253   5.404   7.449 -1.7010  6.3805 -2.2674
  834MOL0     H12571   8.307   5.571   7.633  1.4573 -1.6583 -2.1454
  834MOL0     H12572   8.245   5.650   8.050 -3.1218 -1.2784  0.4181
  834MOL0     H12573   8.261   5.731   8.278  3.3523 -0.4495 -1.4497
  834MOL0     H12574   8.740   5.238   7.650 -1.0805 -0.2761  0.6511
  834MOL0     H12575   8.843   5.075   7.468 -0.0258 -1.5177 -1.5320
  834MOL0     H12576   8.706   4.873   7.033  5.1986  1.4932 -1.9376
  834MOL0     H12577   8.821   4.723   6.867 -2.4528 -0.2455 -0.8391
  834MOL0     H12578   9.108   4.578   7.020 -0.6333 -2.9674  0.1675
  834MOL0     H12579   9.104   4.629   6.852  0.2836 -0.3286 -0.3679
  834MOL0     H12580   9.152   4.407   6.766 -1.2288 -0.9982  0.1713
  834MOL0     H12581   9.123   4.350   6.928  1.3525  1.3170  2.7342
  834MOL0     H12582   9.338   4.497   6.983 -1.9020  3.2200 -0.1588
  834MOL0     H12583   9.350   4.531   6.804 -1.7728  0.2601 -0.2228
  834MOL0     H12584   9.500   4.354   6.879  0.0314 -1.3870 -0.1157
  834MOL0     H12585   9.366   4.249   6.935 -1.5298 -2.0205 -2.0073
  834MOL0     H12586   9.334   4.184   6.517  3.0369  0.6578 -1.2254
  834MOL0     H12587   8.912   4.454   7.152 -0.5743 -0.5251  1.7981
  834MOL0     H12588   8.804   4.434   7.365 -0.2431  0.9441  3.3271
  834MOL0     H12589   8.852   4.588   7.442 -1.2971  4.2960  0.1629
  834MOL0     H12590   8.683   4.551   7.410 -0.1055  0.7973 -0.3659
  835MOL0     O12591   8.227   4.353   2.273  0.7730  0.4909  0.1607
  835MOL0     C12592   8.137   4.435   2.255  0.5959  0.3878 -0.1495
  835MOL0     O12593   8.154   4.557   2.207 -0.0931 -0.0734 -0.1488
  835MOL0     C12594   8.284   4.590   2.178  0.9254  0.6398  0.8817
  835MOL0     C12595   8.362   4.655   2.274  0.2455  0.0938 -0.2270
  835MOL0     C12596   8.491   4.693   2.242  1.1702 -0.7427  0.1165
  835MOL0     C12597   8.544   4.677   2.111 -0.4374  0.6357  0.0316
  835MOL0     O12598   8.660   4.740   2.080 -0.6551  0.2209  0.1153
  835MOL0     C12599   8.769   4.764   2.160  0.8729  0.3925 -0.5099
  835MOL0     C12600   8.828   4.629   2.230  0.6874 -0.1535 -0.1360
  835MOL0     C12601   8.862   4.522   2.125  0.2689 -0.6189 -1.1171
  835MOL0     C12602   8.827   4.383   2.167 -0.3235 -0.7997  0.0847
  835MOL0     C12603   8.682   4.359   2.172 -0.5081  0.1630  0.2745
  835MOL0     C12604   8.654   4.218   2.229  0.4884 -0.4197 -0.2950
  835MOL0     C12605   8.501   4.187   2.207  0.0098 -0.9929 -0.1707
  835MOL0     C12606   8.462   4.048   2.249  0.2474 -0.5511 -0.2649
  835MOL0     N12607   8.317   4.041   2.237  1.3833  0.2059  1.2460
  835MOL0     C12608   8.218   4.047   2.327 -0.0310  0.5508 -0.5076
  835MOL0     C12609   8.112   3.987   2.268 -0.3464  0.5707 -0.0333
  835MOL0     C12610   7.992   3.943   2.332  0.2636  0.0918 -0.2074
  835MOL0     C12611   7.866   3.971   2.243  0.1448 -0.5218 -0.2626
  835MOL0     C12612   7.733   3.929   2.317  0.3243 -0.6175  0.5205
  835MOL0     C12613   7.620   3.978   2.235 -0.6146  1.0278  0.4487
  835MOL0     O12614   7.581   3.881   2.133  0.3658 -1.3394  0.7850
  835MOL0     C12615   7.492   3.773   2.162 -1.5381  0.2861 -0.5066
  835MOL0     C12616   7.460   3.728   2.293 -0.2569  0.3906  0.0710
  835MOL0     C12617   7.377   3.617   2.296  0.4681 -0.0693  0.6209
  835MOL0     C12618   7.318   3.554   2.184  0.1351  0.0129 -0.0304
  835MOL0     C12619   7.247   3.419   2.211  0.1598  0.6569  0.2321
  835MOL0     O12620   7.248   3.333   2.104  0.2130 -0.5045 -0.3569
  835MOL0     C12621   7.249   3.196   2.121  0.2818 -0.6747 -0.2076
  835MOL0     C12622   7.362   3.114   2.103  0.3455  1.1533  0.0362
  835MOL0     C12623   7.349   2.980   2.110 -0.3800  0.2077  0.3022
  835MOL0     C12624   7.227   2.916   2.126  0.1804  0.7750  0.4582
  835MOL0     O12625   7.220   2.780   2.121 -0.5920 -0.6111  0.1287
  835MOL0     C12626   7.088   2.718   2.143  0.2857 -1.6946 -0.7300
  835MOL0     C12627   7.122   2.568   2.143 -0.2716 -1.2765 -0.4318
  835MOL0     C12628   7.016   2.470   2.170  0.3490 -0.0503 -0.0404
  835MOL0     C12629   7.072   2.326   2.188  0.0969 -0.3908 -0.8259
  835MOL0     C12630   6.980   2.213   2.247  0.2354  0.1151 -0.2577
  835MOL0     C12631   7.049   2.075   2.228 -1.1047  0.1580  0.3230
  835MOL0     C12632   6.943   1.973   2.245  0.0198 -0.2608 -0.1326
  835MOL0     C12633   6.998   1.841   2.279 -0.0472  0.5805 -0.3105
  835MOL0    Cl12634   7.058   1.771   2.128 -0.1166  0.2197 -0.1958
  835MOL0     C12635   7.113   3.002   2.146  0.4400 -0.1999 -0.6131
  835MOL0     C12636   7.118   3.133   2.140 -0.4419  0.4264  0.5150
  835MOL0     O12637   7.214   3.392   2.325 -0.7825  0.0009  0.3888
  835MOL0     C12638   7.361   3.598   2.061  0.8243 -0.6198 -0.1559
  835MOL0     C12639   7.445   3.707   2.050 -0.2115  0.3606  0.0442
  835MOL0     N12640   8.140   3.960   2.133  0.2317  0.2657 -0.4801
  835MOL0     N12641   8.262   3.995   2.118 -0.2637 -0.2545  0.4252
  835MOL0     C12642   8.476   4.593   2.021  0.0603  0.5653 -0.3233
  835MOL0     C12643   8.343   4.558   2.051 -0.2753 -1.0099  0.1120
  835MOL0     C12644   8.002   4.393   2.292  0.6755  1.9205 -0.0898
  835MOL0     C12645   7.984   4.304   2.395 -0.0211  0.4730  0.2573
  835MOL0     C12646   7.864   4.260   2.432  0.5217 -0.4232  0.5741
  835MOL0     C12647   7.742   4.296   2.360 -0.0106  0.5453 -0.1499
  835MOL0     O12648   7.628   4.242   2.408  0.0672  0.0182  0.0263
  835MOL0     C12649   7.492   4.280   2.374 -0.5253  1.6765  0.5476
  835MOL0     C12650   7.448   4.425   2.411 -0.5720 -0.1870  0.3046
  835MOL0     C12651   7.304   4.450   2.444 -0.9394  0.0403 -0.3388
  835MOL0     C12652   7.205   4.461   2.329 -0.5686  0.1985  0.3147
  835MOL0     C12653   7.198   4.588   2.250  0.3825 -0.1261 -0.4221
  835MOL0     C12654   7.193   4.702   2.198 -0.4185 -0.7769 -0.7766
  835MOL0     C12655   7.756   4.392   2.262 -0.1273  0.4318 -0.2725
  835MOL0     C12656   7.888   4.428   2.215  0.0034  0.2907 -1.1537
  835MOL0     C12657   7.890   4.516   2.094 -0.4228 -0.4853 -0.9158
  835MOL0     H12658   8.315   4.686   2.367 -0.8834 -1.1639 -0.3403
  835MOL0     H12659   8.545   4.747   2.318 -1.1433 -0.5530  1.7359
  835MOL0     H12660   8.833   4.817   2.088 -0.1181  0.7785 -1.1231
  835MOL0     H12661   8.734   4.842   2.228  0.2224  0.5101 -0.9702
  835MOL0     H12662   8.753   4.589   2.299  0.3111  1.3042  0.3279
  835MOL0     H12663   8.914   4.664   2.286 -0.9761  0.4611  2.1888
  835MOL0     H12664   8.969   4.536   2.106  0.8043  1.5348  2.5183
  835MOL0     H12665   8.801   4.540   2.037 -1.0296 -1.5065 -0.4244
  835MOL0     H12666   8.873   4.324   2.087 -0.6667 -4.9580  2.6357
  835MOL0     H12667   8.860   4.346   2.264 -3.1574  0.6573  1.7197
  835MOL0     H12668   8.632   4.435   2.233  1.9208  0.9871  1.3414
  835MOL0     H12669   8.641   4.370   2.071 -1.5074 -0.6051  0.5662
  835MOL0     H12670   8.710   4.150   2.164  0.8180  1.9473 -2.6936
  835MOL0     H12671   8.673   4.215   2.336 -2.0149 -0.1560  0.2296
  835MOL0     H12672   8.467   4.183   2.103  0.5861 -2.0431 -0.3341
  835MOL0     H12673   8.439   4.267   2.250  1.4976  0.0286  0.1431
  835MOL0     H12674   8.519   3.975   2.193  1.2583 -0.2034  0.2775
  835MOL0     H12675   8.494   4.036   2.353  0.0188  0.6574 -0.0364
  835MOL0     H12676   8.230   4.079   2.430 -2.0774  2.9015 -0.9200
  835MOL0     H12677   7.992   3.837   2.360 -0.0312 -0.3478 -1.7902
  835MOL0     H12678   7.981   4.008   2.420  1.3893 -1.2131  0.9462
  835MOL0     H12679   7.853   4.079   2.233  1.4309 -0.3697 -0.4828
  835MOL0     H12680   7.884   3.916   2.150  3.0239 -0.8564  0.3994
  835MOL0     H12681   7.716   3.969   2.417 -1.1064 -0.6513  0.3159
  835MOL0     H12682   7.743   3.821   2.330  1.5416 -0.4663  1.0164
  835MOL0     H12683   7.655   4.073   2.194  1.9971 -1.7008 -4.6285
  835MOL0     H12684   7.539   3.995   2.306  0.8707 -0.0811  2.5337
  835MOL0     H12685   7.495   3.774   2.385 -1.7536 -0.7234  1.2585
  835MOL0     H12686   7.348   3.583   2.395 -1.1207 -3.8999 -0.9488
  835MOL0     H12687   7.463   3.154   2.098  1.1101 -0.8176 -1.9355
  835MOL0     H12688   7.442   2.924   2.100 -0.3461 -1.1807  5.5043
  835MOL0     H12689   7.063   2.737   2.248  2.7007  2.1132 -0.6490
  835MOL0     H12690   7.004   2.740   2.077 -1.8633 -4.0079  1.0693
  835MOL0     H12691   7.166   2.555   2.044  0.9022  0.7525 -0.2331
  835MOL0     H12692   7.192   2.551   2.225 -1.8888 -1.0482  1.0477
  835MOL0     H12693   6.972   2.479   2.270 -1.6145 -0.3052 -0.8238
  835MOL0     H12694   6.943   2.489   2.091 -0.9213  1.4858  1.4419
  835MOL0     H12695   7.162   2.321   2.250  1.3851  0.8826 -2.4965
  835MOL0     H12696   7.083   2.289   2.086 -4.5902 -1.5103 -1.1653
  835MOL0     H12697   6.887   2.218   2.190  0.7134 -1.0865 -1.1901
  835MOL0     H12698   6.959   2.240   2.351  2.1594 -0.7938  0.4287
  835MOL0     H12699   7.085   2.067   2.125  2.1935 -1.7837  1.4510
  835MOL0     H12700   7.132   2.063   2.298  1.5321 -2.6711 -2.9054
  835MOL0     H12701   6.894   1.975   2.147  0.6068  4.2399 -0.5371
  835MOL0     H12702   6.881   2.004   2.329  1.3109 -2.0478  1.5687
  835MOL0     H12703   7.076   1.847   2.355  2.0678  2.1745 -2.4617
  835MOL0     H12704   6.912   1.783   2.316  0.5234  0.3960  0.7545
  835MOL0     H12705   7.015   2.962   2.169  1.1571 -2.1471 -0.6667
  835MOL0     H12706   7.032   3.199   2.133  1.4609  2.9956 -0.9462
  835MOL0     H12707   7.324   3.544   1.975 -1.2767 -1.9609  1.5061
  835MOL0     H12708   7.476   3.753   1.957  2.1199  1.4223  1.2465
  835MOL0     H12709   8.508   4.579   1.918 -3.7652 -0.4357 -1.5295
  835MOL0     H12710   8.279   4.507   1.980  0.1848  0.0095 -1.0754
  835MOL0     H12711   8.073   4.273   2.450  1.0196  0.2693 -1.4512
  835MOL0     H12712   7.855   4.184   2.509 -1.9231  0.1173  0.9208
  835MOL0     H12713   7.426   4.215   2.432  1.8366  1.6772  3.5292
  835MOL0     H12714   7.480   4.253   2.269 -1.2773  0.0834  1.0168
  835MOL0     H12715   7.456   4.480   2.317  3.7636 -0.7517  0.1030
  835MOL0     H12716   7.514   4.466   2.488 -0.5236 -0.8550  0.6340
  835MOL0     H12717   7.299   4.534   2.514  0.6039 -0.1658  0.0511
  835MOL0     H12718   7.294   4.359   2.504 -0.1304  0.5161  0.5457
  835MOL0     H12719   7.232   4.382   2.258 -1.2897  0.8211 -0.6652
  835MOL0     H12720   7.105   4.433   2.362 -0.5703 -0.2601 -0.0651
  835MOL0     H12721   7.207   4.801   2.159  0.7601 -0.6367 -0.0207
  835MOL0     H12722   7.669   4.441   2.217 -0.6528  0.6941  0.9848
  835MOL0     H12723   7.973   4.479   2.034  1.1323 -0.9560  1.3785
  835MOL0     H12724   7.790   4.510   2.051 -1.9064 -1.9598  2.3254
  835MOL0     H12725   7.921   4.617   2.121  1.0727 -0.7525 -1.5374
  836MOL0     O12726   0.409   3.208  10.847 -0.4664 -0.2492  0.1443
  836MOL0     C12727   0.379   3.195  10.962 -0.1378 -0.5675 -0.2461
  836MOL0     O12728   0.254   3.223  11.019 -0.6121  1.2528  0.3628
  836MOL0     C12729   0.172   3.302  10.936 -0.0921 -0.1190 -0.4011
  836MOL0     C12730   0.068   3.245  10.854  0.4391  0.3136  0.5187
  836MOL0     C12731  -0.012   3.330  10.775  0.3568 -0.0011  0.4828
  836MOL0     C12732   0.012   3.468  10.772  0.8801  1.1231  0.1016
  836MOL0     O12733  -0.062   3.545  10.695 -0.3342  0.7316 -0.0328
  836MOL0     C12734  -0.020   3.542  10.549  0.4409  0.6006 -0.3209
  836MOL0     C12735   0.104   3.623  10.517 -0.8314 -0.4552 -0.6833
  836MOL0     C12736   0.064   3.766  10.480 -0.4239 -0.4322 -0.3472
  836MOL0     C12737   0.183   3.859  10.444  1.6194 -0.0026 -0.6547
  836MOL0     C12738   0.133   4.001  10.390 -0.3755 -0.3710 -0.6423
  836MOL0     C12739   0.258   4.068  10.338 -0.3154  0.5280 -0.0437
  836MOL0     C12740   0.238   4.193  10.270 -0.2112 -0.4550  0.7523
  836MOL0     C12741   0.378   4.247  10.230  0.7584  0.3766 -0.7943
  836MOL0     N12742   0.444   4.316  10.340 -0.2148 -0.0785  0.9629
  836MOL0     C12743   0.560   4.278  10.399 -0.3778 -0.1699  0.6146
  836MOL0     C12744   0.588   4.361  10.492 -0.7051 -0.4503 -1.0697
  836MOL0     C12745   0.706   4.358  10.581 -0.6610  1.0240  0.0745
  836MOL0     C12746   0.831   4.306  10.516 -0.0863 -1.5141  0.2801
  836MOL0     C12747   0.938   4.314  10.610 -0.3694 -0.1208 -0.0516
  836MOL0     C12748   1.079   4.288  10.549  0.8198  1.1549  0.6257
  836MOL0     O12749   1.183   4.323  10.643 -0.8146 -0.2787  0.7643
  836MOL0     C12750   1.313   4.350  10.599  0.3583  0.3049 -0.2808
  836MOL0     C12751   1.402   4.408  10.690  0.3966  0.2562  0.6911
  836MOL0     C12752   1.539   4.403  10.668 -0.8022 -1.0305 -0.3727
  836MOL0     C12753   1.597   4.335  10.560  0.1816  0.5955 -0.0292
  836MOL0     C12754   1.745   4.319  10.568 -0.0009 -0.0207 -0.4957
  836MOL0     O12755   1.814   4.411  10.643  0.1841  0.1496 -0.1279
  836MOL0     C12756   1.952   4.426  10.639 -0.3203  0.1224  0.5212
  836MOL0     C12757   2.008   4.505  10.537 -0.4580  0.2930 -0.0784
  836MOL0     C12758   2.149   4.520  10.520  0.8687  0.2835 -0.1593
  836MOL0     C12759   2.232   4.438  10.596  0.0707 -0.3477 -0.4535
  836MOL0     O12760   2.370   4.448  10.596  0.8196 -0.3372 -0.5545
  836MOL0     C12761   2.454   4.515  10.502  0.2942 -0.5092 -0.0832
  836MOL0     C12762   2.598   4.491  10.535  0.5672 -0.8261  0.6517
  836MOL0     C12763   2.696   4.550  10.437 -0.6312 -0.3274  0.3497
  836MOL0     C12764   2.827   4.580  10.504 -0.7064  1.0259 -0.2188
  836MOL0     C12765   2.940   4.650  10.423 -0.8017 -0.4778 -0.0791
  836MOL0     C12766   3.034   4.572  10.333  0.2777 -0.6586 -0.8638
  836MOL0     C12767   2.968   4.473  10.260 -0.4558 -0.3538  0.1112
  836MOL0     C12768   3.056   4.411  10.160  0.4948  0.2774 -0.6218
  836MOL0    Cl12769   3.210   4.341  10.230 -0.0279  0.2040 -0.2803
  836MOL0     C12770   2.180   4.353  10.696 -0.4387  0.2705  0.0237
  836MOL0     C12771   2.044   4.343  10.716  0.3634 -0.3917  0.3458
  836MOL0     O12772   1.791   4.238  10.489 -0.9695 -0.5089  0.3049
  836MOL0     C12773   1.508   4.296  10.461  0.9763 -0.6435  0.3831
  836MOL0     C12774   1.370   4.306  10.481  0.3390  0.0786  0.0859
  836MOL0     N12775   0.484   4.454  10.501 -0.5516 -0.7165  0.5186
  836MOL0     N12776   0.400   4.431  10.403 -0.4283  1.4470  0.2917
  836MOL0     C12777   0.110   3.516  10.852  0.4342 -0.3455 -0.0778
  836MOL0     C12778   0.196   3.432  10.928  0.7394 -0.1322 -0.8449
  836MOL0     C12779   0.485   3.136  11.058 -0.7361 -0.8616 -0.4246
  836MOL0     C12780   0.448   3.082  11.176 -0.2504  0.4389 -0.2752
  836MOL0     C12781   0.536   3.015  11.265 -0.9208  0.1519  0.5177
  836MOL0     C12782   0.670   3.004  11.243 -0.0090  0.7415  0.4738
  836MOL0     O12783   0.760   2.921  11.293 -0.7487  0.0637 -0.8342
  836MOL0     C12784   0.729   2.832  11.406  0.1387 -0.1244 -0.5214
  836MOL0     C12785   0.852   2.780  11.475  0.0243  0.7049  1.1912
  836MOL0     C12786   0.958   2.888  11.499  0.3271  0.1153 -0.6037
  836MOL0     C12787   1.080   2.827  11.579 -0.5510  0.3353 -0.3625
  836MOL0     C12788   1.149   2.939  11.650  0.4621  0.2407  0.5073
  836MOL0     C12789   1.216   3.037  11.680  0.3084 -0.6519 -0.3170
  836MOL0     C12790   0.720   3.059  11.130  1.5064 -0.1383 -0.0912
  836MOL0     C12791   0.632   3.127  11.043 -0.1987 -0.3691  0.7203
  836MOL0     C12792   0.690   3.185  10.919  0.1827  0.9132 -0.1548
  836MOL0     H12793   0.052   3.139  10.866 -1.2587  0.3607 -0.9149
  836MOL0     H12794  -0.090   3.284  10.715  0.2949  2.5699 -1.5957
  836MOL0     H12795  -0.004   3.437  10.522 -3.4210 -0.7240  1.7354
  836MOL0     H12796  -0.104   3.573  10.485 -1.2281 -0.8245  1.0672
  836MOL0     H12797   0.151   3.579  10.429  1.2184  1.3903 -0.5984
  836MOL0     H12798   0.165   3.628  10.608 -2.0015 -0.7773  0.1482
  836MOL0     H12799   0.020   3.802  10.573 -0.4315  0.2266 -0.6012
  836MOL0     H12800  -0.007   3.765  10.397  0.4581 -0.5508 -1.1132
  836MOL0     H12801   0.233   3.864  10.541 -1.3545 -0.1019  0.9912
  836MOL0     H12802   0.236   3.814  10.359 -0.8632 -0.5104 -2.0321
  836MOL0     H12803   0.061   3.993  10.308 -0.9472  1.0838 -0.3242
  836MOL0     H12804   0.092   4.067  10.467  1.4711  2.5409 -1.9575
  836MOL0     H12805   0.325   4.079  10.424 -0.7843 -0.0197  0.4040
  836MOL0     H12806   0.307   3.999  10.268  2.1993  1.4228  0.7146
  836MOL0     H12807   0.193   4.274  10.329 -1.1155 -1.0677  0.9274
  836MOL0     H12808   0.181   4.180  10.177 -2.9850 -0.0483  2.2922
  836MOL0     H12809   0.423   4.152  10.201 -1.9753 -1.1520 -0.3820
  836MOL0     H12810   0.378   4.313  10.143  0.8213 -1.0109 -1.8826
  836MOL0     H12811   0.628   4.204  10.358 -2.0147 -1.9284  0.9092
  836MOL0     H12812   0.703   4.463  10.612  1.3890  1.1078  0.1351
  836MOL0     H12813   0.684   4.291  10.664  0.0778 -0.0146 -0.5323
  836MOL0     H12814   0.817   4.205  10.476  3.4410 -1.6396 -0.9731
  836MOL0     H12815   0.860   4.363  10.427  3.6507 -2.1965  0.9012
  836MOL0     H12816   0.932   4.241  10.691 -0.7709  0.7647  0.7275
  836MOL0     H12817   0.940   4.416  10.648 -2.0805  0.6798 -1.9368
  836MOL0     H12818   1.089   4.337  10.451  1.2669 -2.7649 -1.4964
  836MOL0     H12819   1.092   4.181  10.536  0.5168  0.9529  1.9036
  836MOL0     H12820   1.351   4.458  10.771  3.0576  3.7007  0.4521
  836MOL0     H12821   1.580   4.452  10.755 -1.3703 -1.6648  0.2707
  836MOL0     H12822   1.947   4.560  10.466  0.7410  2.3977  0.4215
  836MOL0     H12823   2.187   4.568  10.431  0.9365 -2.2013 -1.5669
  836MOL0     H12824   2.436   4.496  10.396  1.2594  1.0488 -0.5471
  836MOL0     H12825   2.432   4.621  10.517  0.9239 -0.5239  0.9933
  836MOL0     H12826   2.614   4.532  10.636 -0.0868  3.1554 -0.6691
  836MOL0     H12827   2.597   4.382  10.523  1.3252 -0.7757  0.0633
  836MOL0     H12828   2.706   4.474  10.359 -0.3701 -1.6479  1.6317
  836MOL0     H12829   2.651   4.638  10.390 -0.6474 -0.4466  0.1369
  836MOL0     H12830   2.868   4.500  10.567  4.0596  4.6774  1.9823
  836MOL0     H12831   2.816   4.655  10.583  2.6797  0.9057  0.5002
  836MOL0     H12832   3.010   4.690  10.498  1.5100 -0.9695 -1.8715
  836MOL0     H12833   2.888   4.736  10.378  1.3202 -0.4226 -2.6479
  836MOL0     H12834   3.096   4.640  10.273 -2.3283  1.6489 -1.1758
  836MOL0     H12835   3.110   4.524  10.395 -2.1697 -3.2711  0.2949
  836MOL0     H12836   2.881   4.508  10.204 -2.5483 -1.1752  2.6614
  836MOL0     H12837   2.936   4.404  10.338  0.0542  0.9656  1.5411
  836MOL0     H12838   2.996   4.348  10.093 -1.0072 -0.4530  1.3353
  836MOL0     H12839   3.082   4.499  10.099  0.4356  1.4849  1.0339
  836MOL0     H12840   2.247   4.304  10.765 -2.3728  2.7045  3.9988
  836MOL0     H12841   1.999   4.279  10.791  0.9348 -3.2286 -1.5768
  836MOL0     H12842   1.530   4.239  10.371 -1.4042 -5.3685  2.4913
  836MOL0     H12843   1.307   4.263  10.405  1.0115 -0.7075 -0.0412
  836MOL0     H12844   0.125   3.624  10.855 -0.1750 -0.2771  1.5344
  836MOL0     H12845   0.267   3.472  11.000 -1.0713  0.8668  0.4594
  836MOL0     H12846   0.345   3.073  11.209 -0.5927 -0.3661 -1.5174
  836MOL0     H12847   0.493   2.952  11.343  1.2300 -1.2463  0.6553
  836MOL0     H12848   0.666   2.752  11.367  1.2154 -0.5409 -1.4682
  836MOL0     H12849   0.675   2.880  11.488  0.0687  0.0694 -0.6816
  836MOL0     H12850   0.889   2.698  11.412 -2.3170  1.5567 -1.4738
  836MOL0     H12851   0.815   2.733  11.567 -1.4464 -1.4715 -0.4058
  836MOL0     H12852   0.908   2.967  11.556  0.2778 -0.2263 -0.1665
  836MOL0     H12853   0.994   2.914  11.399  2.3004  2.3083  0.5768
  836MOL0     H12854   1.038   2.758  11.652  1.2495  1.3999  1.7857
  836MOL0     H12855   1.145   2.780  11.504  1.0729  4.5347 -1.9174
  836MOL0     H12856   1.262   3.131  11.702  0.6628 -0.5955 -1.2511
  836MOL0     H12857   0.824   3.038  11.107  2.3650  1.3198  2.1086
  836MOL0     H12858   0.675   3.114  10.837  1.0567 -1.3470  1.5373
  836MOL0     H12859   0.630   3.274  10.897 -2.2374  0.1681  2.7899
  836MOL0     H12860   0.795   3.212  10.937 -0.5064  3.0391  1.0401
  837MOL0     O12861   9.616   7.326   9.501 -0.0646  0.8221 -0.3545
  837MOL0     C12862   9.563   7.398   9.427 -0.5881  0.6690 -0.0331
  837MOL0     O12863   9.622   7.476   9.333  0.0033  0.1271  0.7829
  837MOL0     C12864   9.759   7.495   9.336  0.1386  0.4151  0.3491
  837MOL0     C12865   9.824   7.493   9.206  0.1320 -0.6850  0.1595
  837MOL0     C12866   9.959   7.510   9.195  0.7936  0.0241 -0.0143
  837MOL0     C12867  10.028   7.545   9.308 -0.1179 -0.9255  0.0004
  837MOL0     O12868  10.163   7.568   9.288  0.0444 -0.9450 -0.0786
  837MOL0     C12869  10.206   7.692   9.348  1.1239 -0.3760 -0.7548
  837MOL0     C12870  10.357   7.719   9.335 -0.0851 -0.2852  0.0254
  837MOL0     C12871  10.395   7.744   9.179 -0.3741  0.7339  0.4055
  837MOL0     C12872  10.550   7.758   9.176  0.1020 -0.2784  0.6580
  837MOL0     C12873  10.612   7.822   9.056 -0.1106 -0.3637  0.1656
  837MOL0     C12874  10.762   7.796   9.042  0.7432  0.2262 -0.4509
  837MOL0     C12875  10.794   7.716   8.911  0.3084 -0.0752 -0.5647
  837MOL0     C12876  10.889   7.599   8.934 -0.2551  0.8246  0.1729
  837MOL0     N12877  10.932   7.553   8.805 -0.1027  0.1429  1.0553
  837MOL0     C12878  11.046   7.585   8.738 -0.1505 -0.1989 -0.5504
  837MOL0     C12879  11.030   7.531   8.617  0.0466  0.4315  0.6884
  837MOL0     C12880  11.117   7.522   8.490 -0.6478 -0.6453  0.1529
  837MOL0     C12881  11.257   7.455   8.519  0.1098  0.3667 -0.6404
  837MOL0     C12882  11.249   7.307   8.498 -0.0272  1.1409  0.6110
  837MOL0     C12883  11.254   7.240   8.364  0.2997 -0.0997  1.0747
  837MOL0     O12884  11.352   7.298   8.284  0.4508  0.1668 -0.3863
  837MOL0     C12885  11.482   7.261   8.310  0.1636 -0.6778  0.8750
  837MOL0     C12886  11.580   7.366   8.334 -1.2092  0.0742 -0.2417
  837MOL0     C12887  11.718   7.333   8.352 -0.2621  0.4466 -0.4401
  837MOL0     C12888  11.759   7.191   8.345 -0.2365 -0.1906  0.4997
  837MOL0     C12889  11.904   7.148   8.357 -0.5344  0.0443 -0.2414
  837MOL0     O12890  11.934   7.021   8.343 -0.8700  0.4318 -0.6057
  837MOL0     C12891  12.068   6.986   8.341 -0.4973  0.2610  0.7902
  837MOL0     C12892  12.119   6.919   8.223  0.0415  0.6295 -0.7378
  837MOL0     C12893  12.262   6.911   8.204 -0.3638 -0.4555 -0.1090
  837MOL0     C12894  12.353   6.927   8.314  0.0148 -1.2029 -1.1908
  837MOL0     O12895  12.490   6.909   8.327  0.1875  0.1878  0.1825
  837MOL0     C12896  12.560   6.833   8.229 -0.1058  0.5095 -0.4177
  837MOL0     C12897  12.697   6.797   8.273  0.0347 -0.0917 -0.5186
  837MOL0     C12898  12.807   6.901   8.288  0.1914  0.2313  1.2963
  837MOL0     C12899  12.757   7.015   8.366  0.3550 -0.7525  0.7083
  837MOL0     C12900  12.855   7.115   8.419 -0.2636  0.0214  0.5244
  837MOL0     C12901  12.779   7.209   8.523  0.2195 -0.8935 -1.6184
  837MOL0     C12902  12.866   7.319   8.586  0.4705  0.4724 -0.2513
  837MOL0     C12903  12.788   7.414   8.672  0.4801 -0.1232  0.0593
  837MOL0    Cl12904  12.889   7.517   8.763 -0.5189 -0.4975  0.2291
  837MOL0     C12905  12.297   6.975   8.442 -0.0628 -0.1601 -1.6066
  837MOL0     C12906  12.154   7.007   8.449 -0.6043 -0.0623  0.4604
  837MOL0     O12907  11.988   7.239   8.391  0.1119  0.2952 -0.3517
  837MOL0     C12908  11.662   7.098   8.312 -0.4300 -1.0003  0.2801
  837MOL0     C12909  11.528   7.132   8.294  0.6091  0.7402 -0.5394
  837MOL0     N12910  10.912   7.472   8.607  0.9717  0.8172 -0.4680
  837MOL0     N12911  10.853   7.483   8.723 -0.4253  0.7220  0.0133
  837MOL0     C12912   9.974   7.536   9.439 -0.0050  0.2901 -0.2371
  837MOL0     C12913   9.838   7.506   9.456  0.5478  0.7177 -0.9479
  837MOL0     C12914   9.415   7.414   9.442 -0.4678  0.7618 -0.2334
  837MOL0     C12915   9.355   7.360   9.561 -0.1167 -0.1923 -0.7097
  837MOL0     C12916   9.223   7.385   9.591  0.3837  1.0954  0.2362
  837MOL0     C12917   9.141   7.454   9.499  0.6505  0.1576  1.2118
  837MOL0     O12918   9.011   7.463   9.530  0.0960 -0.0615  0.0345
  837MOL0     C12919   8.938   7.570   9.475 -0.2288 -0.6936  0.3080
  837MOL0     C12920   8.814   7.594   9.566 -0.0496 -0.5720 -0.5021
  837MOL0     C12921   8.709   7.684   9.501  0.6731 -0.4553  0.1379
  837MOL0     C12922   8.604   7.729   9.605  0.5013  0.5666  0.5371
  837MOL0     C12923   8.517   7.606   9.620  0.0505 -0.5064 -0.4015
  837MOL0     C12924   8.461   7.498   9.636 -0.3686 -0.1643 -0.7115
  837MOL0     C12925   9.196   7.500   9.375 -0.3149 -0.2626  0.7120
  837MOL0     C12926   9.329   7.467   9.344 -1.1610 -0.5345 -0.9916
  837MOL0     C12927   9.377   7.525   9.212 -0.0016  0.1938 -0.3191
  837MOL0     H12928   9.770   7.472   9.114  0.5261 -0.7882 -0.0560
  837MOL0     H12929  10.009   7.507   9.099  1.6301  1.0249  0.3775
  837MOL0     H12930  10.157   7.776   9.297 -0.0320  0.3189  1.3861
  837MOL0     H12931  10.184   7.688   9.455 -0.2357 -1.1038 -1.0300
  837MOL0     H12932  10.413   7.640   9.385  0.8575  0.9298  0.9463
  837MOL0     H12933  10.392   7.809   9.387  0.6381  0.4151 -1.6020
  837MOL0     H12934  10.365   7.847   9.154  0.4306  0.8668 -0.0577
  837MOL0     H12935  10.354   7.670   9.110 -1.2804  1.2040  0.4232
  837MOL0     H12936  10.578   7.808   9.269 -1.5037  0.8006  0.6098
  837MOL0     H12937  10.598   7.661   9.164 -0.3555 -0.6180  1.4602
  837MOL0     H12938  10.568   7.777   8.966 -0.1481 -0.7738  0.3820
  837MOL0     H12939  10.594   7.929   9.058 -1.4317 -0.5348  3.5527
  837MOL0     H12940  10.819   7.889   9.050  0.7563  0.0691  1.9189
  837MOL0     H12941  10.820   7.751   9.123  1.4799  0.8819 -0.6019
  837MOL0     H12942  10.842   7.790   8.846 -1.3663  0.4255 -1.2797
  837MOL0     H12943  10.706   7.665   8.871  0.0770  0.5290 -0.8282
  837MOL0     H12944  10.976   7.635   8.991  2.2158 -1.7449 -1.6513
  837MOL0     H12945  10.847   7.519   8.995  1.4481 -0.0836  0.2253
  837MOL0     H12946  11.123   7.647   8.783 -2.1735  1.2921  1.0421
  837MOL0     H12947  11.066   7.475   8.405 -1.0020  1.4156 -0.8304
  837MOL0     H12948  11.147   7.626   8.475  2.3757 -1.0681  2.3292
  837MOL0     H12949  11.340   7.493   8.459 -0.6959 -0.3068 -2.2466
  837MOL0     H12950  11.277   7.464   8.626  2.4937 -2.6257 -0.6961
  837MOL0     H12951  11.167   7.258   8.551 -0.1020 -0.3493 -0.7908
  837MOL0     H12952  11.333   7.261   8.549  0.9965  1.0488 -1.0947
  837MOL0     H12953  11.153   7.244   8.322  1.2839  3.0929 -1.4476
  837MOL0     H12954  11.279   7.135   8.383 -0.3180 -1.2206 -3.0971
  837MOL0     H12955  11.533   7.464   8.334  0.4231  0.8870 -1.0142
  837MOL0     H12956  11.797   7.407   8.367 -0.8007  2.1717 -4.8026
  837MOL0     H12957  12.056   6.887   8.141 -0.7407  3.5159 -1.3747
  837MOL0     H12958  12.303   6.878   8.109  3.0873 -0.8555  1.3420
  837MOL0     H12959  12.485   6.755   8.212 -0.9589  1.0145  0.8588
  837MOL0     H12960  12.559   6.897   8.140 -1.6308 -1.9706 -2.3528
  837MOL0     H12961  12.681   6.759   8.375 -1.2728 -0.8735 -0.9836
  837MOL0     H12962  12.722   6.714   8.206 -1.1827 -1.3542  0.5193
  837MOL0     H12963  12.889   6.851   8.341  0.3689 -2.6298 -1.4023
  837MOL0     H12964  12.830   6.922   8.183 -4.4469 -2.1635 -0.5215
  837MOL0     H12965  12.697   6.981   8.451 -1.4594 -1.2427 -0.7055
  837MOL0     H12966  12.688   7.071   8.301  0.3083 -1.1745  0.3942
  837MOL0     H12967  12.903   7.173   8.339  2.1648  2.7196  3.6724
  837MOL0     H12968  12.944   7.071   8.465  0.4167  0.1191 -0.6592
  837MOL0     H12969  12.703   7.263   8.466  0.1753 -1.4766 -2.1156
  837MOL0     H12970  12.743   7.144   8.602  2.6895 -2.5491 -1.7461
  837MOL0     H12971  12.928   7.367   8.509  1.3441 -1.3805 -0.7691
  837MOL0     H12972  12.948   7.273   8.643  1.3607  1.5946 -0.5748
  837MOL0     H12973  12.725   7.469   8.602  0.5480  0.1512  0.2142
  837MOL0     H12974  12.724   7.350   8.734 -1.4037  0.1153 -1.5307
  837MOL0     H12975  12.358   6.975   8.531  0.0481 -0.8184 -1.6790
  837MOL0     H12976  12.105   7.044   8.538  0.4151  0.4599  0.8250
  837MOL0     H12977  11.692   6.997   8.285  2.7339  0.6242 -2.9897
  837MOL0     H12978  11.453   7.057   8.268  0.2762  1.1640 -0.8182
  837MOL0     H12979  10.032   7.531   9.530  2.0304 -1.9420 -1.5268
  837MOL0     H12980   9.789   7.487   9.551 -0.8121  0.6773 -1.6222
  837MOL0     H12981   9.412   7.305   9.635  0.6143 -1.2978 -2.0521
  837MOL0     H12982   9.172   7.334   9.673  1.2681 -0.3329 -0.0699
  837MOL0     H12983   8.905   7.549   9.373 -0.8716  1.4211  0.0407
  837MOL0     H12984   9.005   7.655   9.461 -0.9744 -0.3555 -1.5432
  837MOL0     H12985   8.852   7.648   9.653  0.2172  1.0790 -1.5969
  837MOL0     H12986   8.772   7.501   9.606 -1.0377  1.1561  2.8110
  837MOL0     H12987   8.657   7.634   9.418  1.0365  0.4659 -0.6657
  837MOL0     H12988   8.750   7.772   9.451 -1.6009  2.0525  2.4003
  837MOL0     H12989   8.663   7.751   9.695  0.3260  2.4702  0.2200
  837MOL0     H12990   8.550   7.814   9.564 -1.2349 -1.8298 -2.5790
  837MOL0     H12991   8.402   7.409   9.647  0.6014 -0.7696 -0.2614
  837MOL0     H12992   9.137   7.549   9.298 -0.9239  1.6868  2.3270
  837MOL0     H12993   9.299   7.561   9.145  0.4457  1.8519  0.0117
  837MOL0     H12994   9.440   7.611   9.235 -2.3343  1.7653  0.5773
  837MOL0     H12995   9.440   7.449   9.165  2.3756  1.4245  0.6796
  838MOL0     O12996   9.644   7.586   4.087 -0.1533 -0.8454  0.3926
  838MOL0     C12997   9.677   7.562   3.968  0.2215  0.0155  0.6459
  838MOL0     O12998   9.797   7.579   3.921  0.2722 -0.5411  0.0057
  838MOL0     C12999   9.884   7.642   4.016  0.3223  0.8558 -0.7638
  838MOL0     C13000   9.961   7.568   4.104 -0.3313  0.2632  0.1498
  838MOL0     C13001  10.030   7.648   4.198 -0.2039  0.6663 -0.5240
  838MOL0     C13002  10.054   7.785   4.189  0.5449 -0.4138 -0.0990
  838MOL0     O13003  10.124   7.864   4.281 -0.2521  0.4133 -0.1435
  838MOL0     C13004  10.082   7.850   4.415 -0.4254 -0.3008 -0.2025
  838MOL0     C13005  10.166   7.928   4.512 -0.2005 -0.3975 -1.0090
  838MOL0     C13006  10.157   8.081   4.487 -0.0258 -0.5696 -0.0150
  838MOL0     C13007  10.016   8.142   4.514  0.5353  0.1170 -0.0698
  838MOL0     C13008  10.029   8.290   4.566 -0.4510  0.1244  0.4581
  838MOL0     C13009   9.890   8.341   4.623  0.0637  0.0220  0.9773
  838MOL0     C13010   9.905   8.477   4.666  0.0377 -1.0917  0.2204
  838MOL0     C13011   9.768   8.539   4.706  0.3580  0.4966  0.5102
  838MOL0     N13012   9.793   8.681   4.725  0.8532 -0.2777  0.2089
  838MOL0     C13013   9.765   8.777   4.630 -0.4876 -0.7454  0.4689
  838MOL0     C13014   9.746   8.898   4.696 -0.4795 -0.4706 -0.3697
  838MOL0     C13015   9.690   9.030   4.635  0.6482  0.0915  1.1305
  838MOL0     C13016   9.729   9.053   4.489  0.2196  1.0696  0.5725
  838MOL0     C13017   9.874   9.126   4.479  0.0135 -0.1677  0.2536
  838MOL0     C13018   9.888   9.184   4.335  0.0753 -0.5188  0.4743
  838MOL0     O13019  10.021   9.221   4.321 -0.2514  0.1849  0.3155
  838MOL0     C13020  10.062   9.353   4.341  0.1162  0.4041  0.9372
  838MOL0     C13021   9.976   9.452   4.373  0.3762  0.6951 -0.4700
  838MOL0     C13022  10.022   9.582   4.376  0.4888  0.0866 -0.2904
  838MOL0     C13023  10.150   9.621   4.345 -0.4478  0.0976 -0.5090
  838MOL0     C13024  10.192   9.761   4.375  0.1593 -0.6914  0.4087
  838MOL0     O13025  10.323   9.795   4.330 -0.4047 -0.0777 -0.0079
  838MOL0     C13026  10.391   9.906   4.375  0.1666 -0.3342 -0.4900
  838MOL0     C13027  10.396   9.949   4.511  0.1046  0.8097 -0.4642
  838MOL0     C13028  10.466  10.055   4.542 -0.1421 -0.0799  0.1803
  838MOL0     C13029  10.536  10.134   4.448 -0.4559 -0.0603  0.7376
  838MOL0     O13030  10.593  10.253   4.483  0.1526 -0.3015 -0.1372
  838MOL0     C13031  10.686  10.324   4.403 -0.3083  0.8162  1.1832
  838MOL0     C13032  10.735  10.457   4.465  1.0203  0.1531  0.0241
  838MOL0     C13033  10.619  10.540   4.513 -0.2888  0.4962  0.3934
  838MOL0     C13034  10.648  10.673   4.589  0.2410 -0.0006  0.7556
  838MOL0     C13035  10.707  10.789   4.513 -0.0393  0.4589  0.2334
  838MOL0     C13036  10.735  10.910   4.599  0.2948  0.0692  0.2695
  838MOL0     C13037  10.789  11.030   4.532 -0.8945 -0.3422  0.2400
  838MOL0     C13038  10.921  11.019   4.476 -0.0713  0.3629 -0.3171
  838MOL0    Cl13039  10.998  11.172   4.433 -0.1485 -0.4837  0.0096
  838MOL0     C13040  10.530  10.090   4.316 -1.0093 -0.7013  0.0558
  838MOL0     C13041  10.464   9.977   4.284 -0.1183 -0.4479  0.4023
  838MOL0     O13042  10.123   9.838   4.447 -0.4734  0.7741  0.2072
  838MOL0     C13043  10.235   9.526   4.298 -0.3216 -0.1855 -0.9686
  838MOL0     C13044  10.197   9.392   4.304  1.0487 -0.1096 -0.0378
  838MOL0     N13045   9.778   8.873   4.832  0.1699 -0.1682  0.9932
  838MOL0     N13046   9.797   8.743   4.842  0.1523 -0.7201  0.1198
  838MOL0     C13047   9.985   7.848   4.087  0.7186 -0.2624  0.4979
  838MOL0     C13048   9.899   7.782   3.994  0.3805  0.3910  0.0932
  838MOL0     C13049   9.575   7.530   3.864  0.0443 -0.5428 -0.6981
  838MOL0     C13050   9.596   7.540   3.727  0.0809 -0.7460  0.3286
  838MOL0     C13051   9.505   7.503   3.633 -0.6496  0.0123  0.7624
  838MOL0     C13052   9.375   7.465   3.670 -0.1466  0.1421 -0.2702
  838MOL0     O13053   9.282   7.439   3.565 -0.2506  0.0251 -0.4961
  838MOL0     C13054   9.142   7.466   3.589  0.3733  0.9974 -1.1462
  838MOL0     C13055   9.102   7.608   3.617 -1.1398 -0.8612 -0.4535
  838MOL0     C13056   9.203   7.702   3.539  0.3460  0.5487  0.9596
  838MOL0     C13057   9.137   7.841   3.520 -0.6436 -0.2190  0.2116
  838MOL0     C13058   9.085   7.906   3.634 -0.0357  0.0779  0.4166
  838MOL0     C13059   9.032   7.958   3.728 -0.0267 -0.1385 -0.2649
  838MOL0     C13060   9.343   7.469   3.803  0.1103 -0.2653 -0.4943
  838MOL0     C13061   9.442   7.489   3.902  0.1529  0.6835 -0.3124
  838MOL0     C13062   9.396   7.448   4.040 -0.3755  0.4495 -0.1242
  838MOL0     H13063   9.935   7.467   4.133  3.3232 -0.4617  1.4859
  838MOL0     H13064  10.057   7.593   4.287  2.9019  0.0298 -1.7213
  838MOL0     H13065   9.977   7.880   4.420 -1.4480 -3.2229 -1.6962
  838MOL0     H13066  10.089   7.746   4.449  0.8944  0.1872  1.1343
  838MOL0     H13067  10.271   7.899   4.501  1.4539  4.9567 -2.1300
  838MOL0     H13068  10.136   7.904   4.614 -0.0423 -1.3074 -1.1676
  838MOL0     H13069  10.194   8.092   4.385  1.0118  4.2957  0.6138
  838MOL0     H13070  10.224   8.129   4.559 -1.2076 -0.0038  0.7505
  838MOL0     H13071   9.968   8.140   4.415  0.0027 -1.6382  0.2003
  838MOL0     H13072   9.959   8.085   4.587  0.8280  0.5786  0.5215
  838MOL0     H13073  10.104   8.293   4.646 -1.4784  1.2754  1.4255
  838MOL0     H13074  10.049   8.353   4.479 -2.9451 -0.5988 -0.7216
  838MOL0     H13075   9.818   8.350   4.541  0.8816  0.8471  0.3175
  838MOL0     H13076   9.839   8.269   4.688  0.8319  1.3917  3.2274
  838MOL0     H13077   9.942   8.531   4.578  0.8952 -0.8901  0.6896
  838MOL0     H13078   9.981   8.499   4.743  0.3767  1.0206 -0.6268
  838MOL0     H13079   9.695   8.522   4.627  0.5150  1.9175  0.0212
  838MOL0     H13080   9.727   8.502   4.800 -3.0276  1.0106 -0.6364
  838MOL0     H13081   9.769   8.775   4.522 -1.0994  4.4821  0.0898
  838MOL0     H13082   9.581   9.023   4.641  0.3692  2.8490  0.7828
  838MOL0     H13083   9.722   9.121   4.686  0.2787  1.6458 -1.2020
  838MOL0     H13084   9.738   8.959   4.434  1.3858  0.2807  2.0500
  838MOL0     H13085   9.651   9.118   4.448  0.0404  1.3466  1.3488
  838MOL0     H13086   9.959   9.061   4.503  2.6459  3.0364  0.1945
  838MOL0     H13087   9.879   9.206   4.552 -1.8717 -0.4616  0.7786
  838MOL0     H13088   9.816   9.265   4.322  2.0132  1.7947  2.8584
  838MOL0     H13089   9.861   9.105   4.266  1.8224  1.1539 -2.3160
  838MOL0     H13090   9.884   9.439   4.429  2.3507 -2.5661  2.4436
  838MOL0     H13091   9.959   9.659   4.420  2.5690  2.1826 -0.7564
  838MOL0     H13092  10.340   9.888   4.581  1.0680 -2.6046 -2.4157
  838MOL0     H13093  10.462  10.087   4.646  1.3036  0.7496  0.0238
  838MOL0     H13094  10.774  10.261   4.391 -1.8287 -1.1343 -0.4732
  838MOL0     H13095  10.640  10.350   4.307  1.3202  0.4075  0.2527
  838MOL0     H13096  10.783  10.445   4.563 -2.4110  2.5064  2.2089
  838MOL0     H13097  10.801  10.505   4.392  0.5587  0.0805 -0.4462
  838MOL0     H13098  10.547  10.552   4.431 -0.3885  3.8270  0.8500
  838MOL0     H13099  10.561  10.483   4.586  1.1475 -3.0744 -0.9881
  838MOL0     H13100  10.723  10.650   4.665  3.0537 -0.1229 -1.8631
  838MOL0     H13101  10.548  10.710   4.612 -0.0111  0.5077 -1.0059
  838MOL0     H13102  10.658  10.810   4.418  2.8420  0.7007 -1.3003
  838MOL0     H13103  10.807  10.759   4.480  1.4494  2.1122  2.8123
  838MOL0     H13104  10.633  10.927   4.635 -1.0803 -5.1519 -0.3643
  838MOL0     H13105  10.788  10.892   4.693 -0.8878 -0.4667  0.8567
  838MOL0     H13106  10.800  11.115   4.601  0.5986  0.0472 -0.4318
  838MOL0     H13107  10.721  11.070   4.457  0.1155  0.6898 -0.1625
  838MOL0     H13108  10.986  10.967   4.547 -0.6047  1.7530  1.2614
  838MOL0     H13109  10.908  10.957   4.387 -0.5289 -0.1022  0.0712
  838MOL0     H13110  10.575  10.145   4.234 -1.8261  3.7884  2.2957
  838MOL0     H13111  10.461   9.946   4.180  1.6460  0.6863 -0.0342
  838MOL0     H13112  10.336   9.557   4.275  0.6817 -2.1556  0.5330
  838MOL0     H13113  10.254   9.310   4.262 -3.3133 -3.0703 -0.8087
  838MOL0     H13114   9.992   7.956   4.095 -2.4127  0.1802 -1.0387
  838MOL0     H13115   9.844   7.844   3.925  0.3683  0.0472 -0.2085
  838MOL0     H13116   9.695   7.565   3.690 -0.3541 -0.0473 -0.3855
  838MOL0     H13117   9.545   7.511   3.532  0.2284  0.5163  1.1400
  838MOL0     H13118   9.100   7.406   3.670  2.8160  1.9952  0.9601
  838MOL0     H13119   9.108   7.433   3.490  1.6418 -0.8998 -0.9999
  838MOL0     H13120   9.109   7.621   3.726 -0.0984 -2.4774 -0.2923
  838MOL0     H13121   9.000   7.633   3.587 -0.6633  1.5400 -0.2827
  838MOL0     H13122   9.219   7.660   3.439 -0.3989  1.7206  0.3238
  838MOL0     H13123   9.301   7.707   3.587  1.3973 -0.7877 -0.9445
  838MOL0     H13124   9.211   7.906   3.474  0.1751 -1.8879 -0.9179
  838MOL0     H13125   9.051   7.837   3.452 -0.5824  1.5457 -0.0194
  838MOL0     H13126   8.967   7.992   3.806  0.2954  1.6793 -0.7488
  838MOL0     H13127   9.243   7.442   3.833  0.3562 -1.0845 -0.3783
  838MOL0     H13128   9.466   7.373   4.077 -2.6585 -0.4356  2.8076
  838MOL0     H13129   9.402   7.536   4.104  1.2779  0.0887  0.2643
  838MOL0     H13130   9.297   7.401   4.046  0.3411 -0.8592  2.4625
  839MOL0     O13131   3.876   7.842   3.969 -0.7278 -0.3633 -0.0908
  839MOL0     C13132   3.801   7.808   3.873 -0.0780  1.1713 -0.0918
  839MOL0     O13133   3.834   7.734   3.764 -0.1178  0.6825  0.2533
  839MOL0     C13134   3.943   7.661   3.768  1.0307 -0.4967 -0.6200
  839MOL0     C13135   4.067   7.703   3.722  0.0211  0.2724  0.1055
  839MOL0     C13136   4.173   7.618   3.736 -0.3533 -0.0375  0.4132
  839MOL0     C13137   4.162   7.495   3.805  0.4162  0.3571  0.0086
  839MOL0     O13138   4.273   7.415   3.818 -0.4333 -0.0248  0.6440
  839MOL0     C13139   4.266   7.265   3.855  0.3376  0.0930 -0.5402
  839MOL0     C13140   4.393   7.199   3.825 -0.3751 -0.3820 -0.2400
  839MOL0     C13141   4.381   7.060   3.891  0.4784  0.6619 -0.5354
  839MOL0     C13142   4.509   6.973   3.880  0.6247 -0.3445  0.3123
  839MOL0     C13143   4.484   6.833   3.932  1.1084  0.2419  1.0403
  839MOL0     C13144   4.605   6.741   3.895 -0.5702 -0.7837 -0.0047
  839MOL0     C13145   4.616   6.696   3.756 -0.5052  0.6080  0.6247
  839MOL0     C13146   4.750   6.629   3.737  0.9696 -0.1269 -0.2460
  839MOL0     N13147   4.776   6.573   3.610 -0.4910  0.3032  1.3854
  839MOL0     C13148   4.737   6.449   3.560  0.2986 -0.4480  0.0773
  839MOL0     C13149   4.755   6.451   3.428  0.2629 -0.3731  0.7843
  839MOL0     C13150   4.726   6.348   3.329  0.7849 -0.3869 -0.5329
  839MOL0     C13151   4.827   6.242   3.299 -0.6444 -0.0691 -0.0926
  839MOL0     C13152   4.776   6.117   3.222 -0.2047 -0.8057 -0.1380
  839MOL0     C13153   4.873   6.000   3.216 -0.6165 -0.3443  0.6946
  839MOL0     O13154   4.891   5.943   3.347 -0.7035  0.5044  0.6937
  839MOL0     C13155   4.832   5.824   3.361  0.2079  0.3631 -0.3659
  839MOL0     C13156   4.692   5.814   3.379  0.0303 -0.0134  0.3593
  839MOL0     C13157   4.639   5.689   3.396  0.6242  1.1874 -0.7460
  839MOL0     C13158   4.700   5.561   3.373  0.2142 -0.5774  0.1663
  839MOL0     C13159   4.631   5.425   3.365  0.1850 -0.6070  0.0046
  839MOL0     O13160   4.492   5.433   3.358  0.0170  0.0725  0.4671
  839MOL0     C13161   4.420   5.319   3.330  0.2193  0.8469  0.3048
  839MOL0     C13162   4.279   5.331   3.364 -0.4017 -1.2159 -0.0837
  839MOL0     C13163   4.198   5.225   3.350  0.2679  0.5671 -0.1005
  839MOL0     C13164   4.245   5.100   3.302  0.3852  0.8046  0.2284
  839MOL0     O13165   4.171   4.986   3.298 -0.4422  0.1258 -0.2118
  839MOL0     C13166   4.028   4.988   3.330 -0.1579  0.2595 -0.4587
  839MOL0     C13167   3.977   4.847   3.299  0.0675  0.1011 -0.8757
  839MOL0     C13168   3.990   4.758   3.433 -0.1417 -0.5855  0.3768
  839MOL0     C13169   3.970   4.618   3.418  1.1679 -0.1934  1.2473
  839MOL0     C13170   4.031   4.538   3.538 -0.1722  0.6667  0.5859
  839MOL0     C13171   4.008   4.390   3.513 -0.5507  0.1900  0.1674
  839MOL0     C13172   4.066   4.304   3.612 -0.1104  0.6161  0.3393
  839MOL0     C13173   4.082   4.165   3.564 -0.1858  0.1072 -0.5141
  839MOL0    Cl13174   4.170   4.080   3.696 -0.0271  0.0806 -0.2316
  839MOL0     C13175   4.383   5.091   3.254  0.2508  0.1057 -0.5710
  839MOL0     C13176   4.463   5.200   3.268 -0.1027  1.2802  0.1699
  839MOL0     O13177   4.703   5.331   3.372 -0.9347  0.3406  0.1626
  839MOL0     C13178   4.837   5.584   3.368 -0.5788  0.4428  0.5928
  839MOL0     C13179   4.905   5.710   3.357 -0.0217  0.3473 -0.1623
  839MOL0     N13180   4.800   6.580   3.400 -0.0685  0.0831  0.4811
  839MOL0     N13181   4.820   6.644   3.507  0.1291 -0.4200  0.4298
  839MOL0     C13182   4.041   7.463   3.863  0.0641 -1.1608  0.4670
  839MOL0     C13183   3.930   7.546   3.845 -0.2701 -0.7130 -0.6890
  839MOL0     C13184   3.652   7.837   3.883 -1.2150  0.2345  0.2746
  839MOL0     C13185   3.570   7.742   3.821 -0.6003 -0.0091 -0.0954
  839MOL0     C13186   3.432   7.757   3.826 -0.1415 -0.0059 -1.2772
  839MOL0     C13187   3.383   7.866   3.892 -0.1619  0.3534 -0.0355
  839MOL0     O13188   3.249   7.874   3.886 -0.1594 -0.0307  0.2691
  839MOL0     C13189   3.174   7.930   3.997  0.2090  0.2594  0.7111
  839MOL0     C13190   3.130   8.076   3.969 -0.0463  1.7849  0.3987
  839MOL0     C13191   3.034   8.090   3.848 -0.1654 -0.3788 -0.7176
  839MOL0     C13192   2.984   8.233   3.847  0.7247 -0.1855 -0.9049
  839MOL0     C13193   2.903   8.267   3.731  0.4434  0.4152  0.2263
  839MOL0     C13194   2.834   8.298   3.633  0.5052 -0.0322 -0.8698
  839MOL0     C13195   3.462   7.948   3.960  0.5977 -0.2359 -0.0711
  839MOL0     C13196   3.600   7.944   3.955  0.1723  0.4559  0.4127
  839MOL0     C13197   3.677   8.055   4.029 -0.6198 -0.1248  0.4979
  839MOL0     H13198   4.071   7.796   3.667 -0.2736  0.0178 -0.3543
  839MOL0     H13199   4.269   7.637   3.689  0.7020 -3.4899  0.8532
  839MOL0     H13200   4.250   7.258   3.963  1.0760 -0.8500 -0.4791
  839MOL0     H13201   4.182   7.221   3.800 -0.8389  2.4256 -0.7561
  839MOL0     H13202   4.477   7.259   3.860 -1.6073  0.9941  0.4884
  839MOL0     H13203   4.402   7.199   3.716 -0.8134  2.2362 -0.3490
  839MOL0     H13204   4.314   6.988   3.843  0.4328  0.4012 -0.0849
  839MOL0     H13205   4.353   7.076   3.995  0.6031 -2.9167  0.1829
  839MOL0     H13206   4.544   6.973   3.776  1.0476  0.9396  0.4418
  839MOL0     H13207   4.582   7.029   3.940  1.2263  0.5582 -1.1987
  839MOL0     H13208   4.470   6.818   4.040 -3.9375 -1.2382  0.4462
  839MOL0     H13209   4.401   6.784   3.881  1.1815  1.9427 -0.8109
  839MOL0     H13210   4.698   6.786   3.930  1.2027 -2.5320 -2.1214
  839MOL0     H13211   4.588   6.648   3.950  0.5323 -0.0387  1.6561
  839MOL0     H13212   4.615   6.779   3.685 -1.6564 -0.0588 -0.1749
  839MOL0     H13213   4.531   6.629   3.739 -1.1805  1.1028  1.8926
  839MOL0     H13214   4.810   6.718   3.760 -2.3476  2.2371 -0.1497
  839MOL0     H13215   4.759   6.553   3.816 -0.5957 -0.5896 -0.4903
  839MOL0     H13216   4.698   6.369   3.622 -0.0910  0.1974  0.6731
  839MOL0     H13217   4.642   6.298   3.378  3.4977 -5.2499 -0.2198
  839MOL0     H13218   4.685   6.409   3.248 -1.4844  2.1405  2.2729
  839MOL0     H13219   4.898   6.292   3.233 -3.4459  1.5383 -2.0978
  839MOL0     H13220   4.881   6.210   3.389  0.0503 -1.0257 -0.8217
  839MOL0     H13221   4.759   6.144   3.117 -1.0754 -1.9180 -0.3042
  839MOL0     H13222   4.683   6.082   3.266 -1.6536  0.9760 -1.6401
  839MOL0     H13223   4.963   6.032   3.163 -0.8036  0.5117  0.8816
  839MOL0     H13224   4.834   5.923   3.148  1.0158 -0.1219 -0.5802
  839MOL0     H13225   4.621   5.896   3.386 -0.3270 -0.3806  1.1332
  839MOL0     H13226   4.531   5.680   3.406  0.9446 -1.1888  1.8690
  839MOL0     H13227   4.255   5.426   3.411 -1.3782 -1.1680 -0.6461
  839MOL0     H13228   4.103   5.233   3.404  2.4317  1.3569  3.9948
  839MOL0     H13229   4.012   5.025   3.432  3.1868 -0.0881  0.2864
  839MOL0     H13230   3.983   5.066   3.267  0.6046  0.5449 -0.6587
  839MOL0     H13231   3.869   4.849   3.279 -0.5910  0.9168  2.2097
  839MOL0     H13232   4.018   4.802   3.209 -0.3281 -1.6826 -0.2018
  839MOL0     H13233   4.085   4.768   3.486  0.1348 -0.6026 -0.1122
  839MOL0     H13234   3.917   4.803   3.501  1.7176 -0.5109  2.4364
  839MOL0     H13235   4.015   4.589   3.323 -0.7386  4.5524 -1.4876
  839MOL0     H13236   3.863   4.595   3.420  0.7331  1.6175  1.2517
  839MOL0     H13237   3.982   4.575   3.628 -3.3560  2.6316 -1.7418
  839MOL0     H13238   4.136   4.566   3.534 -0.5434  2.0835  0.3811
  839MOL0     H13239   3.898   4.384   3.508 -0.6103 -1.8437  2.1814
  839MOL0     H13240   4.065   4.362   3.424 -0.8556  0.6864 -0.1894
  839MOL0     H13241   4.006   4.306   3.704 -2.2747 -0.4884 -0.9462
  839MOL0     H13242   4.163   4.347   3.636  0.3959  1.3083 -2.5308
  839MOL0     H13243   3.985   4.119   3.544 -0.5908  1.5135 -2.0368
  839MOL0     H13244   4.149   4.167   3.478 -1.7760  3.7683 -1.9164
  839MOL0     H13245   4.428   5.010   3.197 -0.6817 -0.9402  0.1208
  839MOL0     H13246   4.564   5.182   3.231 -1.0388  3.2218 -3.9743
  839MOL0     H13247   4.901   5.497   3.357 -2.3184 -0.9177  0.7292
  839MOL0     H13248   5.013   5.712   3.343  0.2763  1.9825  1.8839
  839MOL0     H13249   4.037   7.373   3.922  0.3851 -1.2681  0.3259
  839MOL0     H13250   3.833   7.533   3.892 -0.7228  3.1933 -0.2220
  839MOL0     H13251   3.615   7.656   3.772  0.2557  1.3510 -1.7826
  839MOL0     H13252   3.360   7.690   3.779  0.9409 -2.6595  0.5813
  839MOL0     H13253   3.225   7.926   4.094 -4.4473 -0.1070  3.4761
  839MOL0     H13254   3.099   7.850   3.998  0.8780 -0.6727 -3.7463
  839MOL0     H13255   3.212   8.148   3.976 -1.2854  3.2978 -0.1355
  839MOL0     H13256   3.067   8.104   4.054  0.5117  0.6040  1.2180
  839MOL0     H13257   2.962   8.008   3.839 -1.0073  0.5126 -3.2369
  839MOL0     H13258   3.093   8.085   3.755  1.2531  2.3370 -0.0758
  839MOL0     H13259   2.926   8.242   3.939 -0.1285 -3.6376 -0.9817
  839MOL0     H13260   3.068   8.303   3.846 -0.8439  1.7871  0.0382
  839MOL0     H13261   2.767   8.326   3.554  0.0080  0.3616 -0.3185
  839MOL0     H13262   3.423   8.031   4.017  3.7670  0.1475  1.7887
  839MOL0     H13263   3.714   8.011   4.123 -0.2099  1.6010  1.1814
  839MOL0     H13264   3.765   8.087   3.973  0.7991 -0.2880  2.4844
  839MOL0     H13265   3.620   8.147   4.043 -0.4450 -0.0679  0.8797
  840MOL0     O13266   7.454   6.680   0.364  0.0296 -0.0483 -0.3394
  840MOL0     C13267   7.549   6.598   0.380  0.1632 -0.2047  0.9952
  840MOL0     O13268   7.642   6.599   0.484 -0.4312  0.0479 -0.1441
  840MOL0     C13269   7.669   6.713   0.555 -0.6029  0.7417  0.5943
  840MOL0     C13270   7.588   6.774   0.649 -0.1542  1.6265  0.2019
  840MOL0     C13271   7.625   6.883   0.728  1.0281 -0.7926  0.5734
  840MOL0     C13272   7.755   6.936   0.713  0.1478 -0.3904  0.7728
  840MOL0     O13273   7.793   7.049   0.779  0.0574 -0.4884 -0.2216
  840MOL0     C13274   7.741   7.084   0.907  0.2640 -0.0624  0.8047
  840MOL0     C13275   7.866   7.147   0.967 -0.2788 -0.3405  0.7964
  840MOL0     C13276   7.915   7.266   0.896 -0.1160 -0.9557  0.2049
  840MOL0     C13277   7.940   7.394   0.974 -0.8921  0.0139  0.0359
  840MOL0     C13278   7.989   7.500   0.870  0.8446 -0.5606 -0.4870
  840MOL0     C13279   7.964   7.650   0.912  0.1905  0.0477 -0.1904
  840MOL0     C13280   7.984   7.675   1.060  0.3301 -0.9737  0.1610
  840MOL0     C13281   7.935   7.820   1.087 -0.5842  0.1379  0.8877
  840MOL0     N13282   7.924   7.845   1.234  0.7005  0.0672  0.0226
  840MOL0     C13283   7.813   7.820   1.308  0.6164  0.4178 -0.2770
  840MOL0     C13284   7.854   7.838   1.431 -0.3614  0.4143 -1.3703
  840MOL0     C13285   7.780   7.817   1.567  0.3337 -0.5556  0.6905
  840MOL0     C13286   7.794   7.686   1.639 -0.0543  0.4680 -0.0345
  840MOL0     C13287   7.936   7.676   1.687 -0.3176 -0.1858  0.0081
  840MOL0     C13288   7.981   7.560   1.771  0.3770  0.4262 -0.1192
  840MOL0     O13289   7.879   7.540   1.870 -0.4392 -0.6210  0.1711
  840MOL0     C13290   7.860   7.425   1.926 -0.2982  0.4285 -0.4367
  840MOL0     C13291   7.828   7.300   1.864  0.0100 -0.2989  0.3846
  840MOL0     C13292   7.812   7.178   1.932 -0.7375 -0.2598  0.1947
  840MOL0     C13293   7.819   7.177   2.072  0.2455  0.8629  0.1474
  840MOL0     C13294   7.791   7.049   2.144 -0.1888  0.0704  0.1238
  840MOL0     O13295   7.718   6.946   2.078 -0.2360 -0.5289  0.6335
  840MOL0     C13296   7.660   6.846   2.143  1.2364  0.1488  0.4227
  840MOL0     C13297   7.526   6.843   2.142 -0.1881 -0.1642  0.6982
  840MOL0     C13298   7.466   6.740   2.222 -0.0715 -0.3852  0.6741
  840MOL0     C13299   7.536   6.661   2.297 -0.2576 -0.1686  1.1932
  840MOL0     O13300   7.465   6.579   2.382  0.0350  1.1238 -0.2461
  840MOL0     C13301   7.365   6.500   2.316  0.6062  0.1722  0.0084
  840MOL0     C13302   7.356   6.362   2.384 -0.1083 -0.1142 -0.5506
  840MOL0     C13303   7.362   6.350   2.543  0.9096  0.5686 -1.0960
  840MOL0     C13304   7.309   6.215   2.602  0.2243 -0.1993  0.3616
  840MOL0     C13305   7.319   6.204   2.762  0.4382 -1.3026  0.8272
  840MOL0     C13306   7.461   6.159   2.802 -0.1798 -0.1210  0.3097
  840MOL0     C13307   7.474   6.155   2.954 -0.7657  0.7015  0.6925
  840MOL0     C13308   7.610   6.107   2.999 -0.0156  0.2766  0.3678
  840MOL0    Cl13309   7.597   6.085   3.176 -0.1508  0.1593  0.0019
  840MOL0     C13310   7.670   6.675   2.308  0.1720 -0.4781  0.7783
  840MOL0     C13311   7.732   6.770   2.224 -0.0047 -0.8093  0.4452
  840MOL0     O13312   7.830   7.033   2.257 -0.0225 -0.3503 -0.0696
  840MOL0     C13313   7.859   7.291   2.141  0.4310 -0.3050  0.5505
  840MOL0     C13314   7.875   7.415   2.066  0.1163 -0.3029  0.7411
  840MOL0     N13315   7.996   7.868   1.434 -0.8149  0.7348  0.2777
  840MOL0     N13316   8.034   7.872   1.311  0.7247  0.5837 -0.3634
  840MOL0     C13317   7.848   6.871   0.623 -0.1930 -0.3412 -0.5690
  840MOL0     C13318   7.807   6.758   0.549 -0.2314  0.6434 -0.6559
  840MOL0     C13319   7.557   6.480   0.287  0.0683  0.2545 -0.1642
  840MOL0     C13320   7.456   6.457   0.195 -0.0966 -0.8570  0.1356
  840MOL0     C13321   7.458   6.346   0.107  0.7008 -0.3477 -0.2743
  840MOL0     C13322   7.574   6.272   0.095  0.1085  0.1191  0.1725
  840MOL0     O13323   7.571   6.163   0.013 -0.3741 -0.2043  0.3547
  840MOL0     C13324   7.525   6.038   0.046 -0.3307  0.1414  0.1102
  840MOL0     C13325   7.510   5.934  -0.070 -0.2274 -0.2342 -1.2833
  840MOL0     C13326   7.446   5.997  -0.194 -0.3429 -1.1653  0.1346
  840MOL0     C13327   7.444   5.892  -0.307  0.1421 -0.0651 -0.1446
  840MOL0     C13328   7.337   5.789  -0.287  0.3301 -0.7497 -0.3061
  840MOL0     C13329   7.243   5.714  -0.270  1.1135  0.1015 -0.9228
  840MOL0     C13330   7.685   6.298   0.175 -0.2371 -0.3321  0.1661
  840MOL0     C13331   7.673   6.394   0.277  0.4415  0.2939 -0.5296
  840MOL0     C13332   7.781   6.381   0.388 -0.3220 -0.8314 -0.0960
  840MOL0     H13333   7.486   6.740   0.658  0.5620 -0.1235  3.2605
  840MOL0     H13334   7.538   6.917   0.783  0.0351 -4.1876  1.3511
  840MOL0     H13335   7.646   7.137   0.893 -0.5132 -1.8043 -1.1132
  840MOL0     H13336   7.728   7.001   0.977  2.1647  1.9473  3.7936
  840MOL0     H13337   7.942   7.070   0.981  0.9683  1.3920  5.7781
  840MOL0     H13338   7.843   7.170   1.072 -0.4276 -1.2401  0.9732
  840MOL0     H13339   7.834   7.303   0.832  1.4554  1.5224 -0.5166
  840MOL0     H13340   8.006   7.245   0.839  0.5040  1.5303  0.1404
  840MOL0     H13341   7.852   7.429   1.030 -0.2115  4.5727 -1.3554
  840MOL0     H13342   8.019   7.381   1.048  0.7466  1.0340 -1.4490
  840MOL0     H13343   8.092   7.471   0.849 -0.1988 -3.1577 -2.5540
  840MOL0     H13344   7.927   7.489   0.780  2.4773  0.1323 -1.7403
  840MOL0     H13345   8.030   7.718   0.858  0.3279  1.5351  1.7126
  840MOL0     H13346   7.860   7.665   0.881  0.3301  0.5365 -0.4329
  840MOL0     H13347   8.086   7.661   1.097  0.0395  0.4352  1.5517
  840MOL0     H13348   7.930   7.601   1.119 -0.6250  0.4297  1.0989
  840MOL0     H13349   8.018   7.875   1.043  2.0162 -4.4837 -0.7394
  840MOL0     H13350   7.837   7.839   1.042  0.1625  3.6426  0.4533
  840MOL0     H13351   7.712   7.789   1.280  0.5346 -3.0226  3.0278
  840MOL0     H13352   7.812   7.894   1.638  2.7115 -1.9310  1.2197
  840MOL0     H13353   7.678   7.845   1.538  0.0920  0.1365  2.1533
  840MOL0     H13354   7.728   7.668   1.724  2.1027 -0.1408  1.5897
  840MOL0     H13355   7.772   7.612   1.561  0.7713  0.8799 -0.6796
  840MOL0     H13356   7.961   7.769   1.738  0.1007 -0.2502 -0.0742
  840MOL0     H13357   8.007   7.666   1.604 -0.4904  0.3519 -0.2123
  840MOL0     H13358   8.064   7.575   1.840 -2.4896 -1.9723  4.3333
  840MOL0     H13359   8.002   7.472   1.708  2.4523 -0.2902  1.4625
  840MOL0     H13360   7.806   7.288   1.758 -2.8916 -0.3177  0.9099
  840MOL0     H13361   7.791   7.090   1.872 -0.5087  0.9195 -1.7263
  840MOL0     H13362   7.472   6.910   2.075  3.9671  0.8871 -2.0230
  840MOL0     H13363   7.361   6.716   2.207  0.3257 -2.9935  1.5769
  840MOL0     H13364   7.266   6.548   2.317 -0.5409 -1.9966 -1.3126
  840MOL0     H13365   7.391   6.486   2.211 -3.6487 -2.1532 -0.9834
  840MOL0     H13366   7.257   6.324   2.355 -0.6167  0.8957 -0.1792
  840MOL0     H13367   7.428   6.292   2.339  2.3341  2.4636 -0.9370
  840MOL0     H13368   7.464   6.370   2.578  1.5917 -1.0711 -2.0366
  840MOL0     H13369   7.297   6.428   2.584 -0.9072 -0.7608 -1.3475
  840MOL0     H13370   7.344   6.123   2.554  2.5015  0.6470  0.2899
  840MOL0     H13371   7.199   6.210   2.596  0.3295 -3.1795 -0.8626
  840MOL0     H13372   7.258   6.118   2.793 -1.3391 -1.0170 -1.5863
  840MOL0     H13373   7.278   6.293   2.809  0.1389 -0.4512 -0.9384
  840MOL0     H13374   7.484   6.062   2.755 -0.9942 -0.0055 -0.3560
  840MOL0     H13375   7.536   6.227   2.760  1.9211 -2.0554  0.7043
  840MOL0     H13376   7.395   6.091   2.995  0.3635  0.1091  2.0201
  840MOL0     H13377   7.456   6.256   2.991  0.7792  1.1236  0.3571
  840MOL0     H13378   7.647   6.011   2.964 -0.9186 -0.4249  1.2748
  840MOL0     H13379   7.672   6.196   2.981 -0.2224  0.7638  1.9157
  840MOL0     H13380   7.724   6.611   2.377  3.5955  0.5928 -0.6599
  840MOL0     H13381   7.836   6.800   2.231 -0.5011  1.7642 -1.4902
  840MOL0     H13382   7.868   7.281   2.249  0.2248  1.4017  0.7549
  840MOL0     H13383   7.872   7.513   2.112 -0.6102  1.3412 -2.4924
  840MOL0     H13384   7.948   6.913   0.616  0.4069 -0.8420  2.8979
  840MOL0     H13385   7.873   6.709   0.477 -2.1146 -2.4175 -0.4463
  840MOL0     H13386   7.365   6.516   0.186 -0.1030 -0.8570  0.1999
  840MOL0     H13387   7.380   6.331   0.032  0.8211  1.2494 -0.7545
  840MOL0     H13388   7.422   6.055   0.080 -1.8040 -3.4798 -1.8960
  840MOL0     H13389   7.591   5.984   0.115 -0.4234 -2.1394 -1.4619
  840MOL0     H13390   7.451   5.851  -0.030  0.0218  0.1313 -0.1181
  840MOL0     H13391   7.606   5.895  -0.104  0.4619  0.2131  0.0903
  840MOL0     H13392   7.501   6.085  -0.228  0.2859 -1.1126  1.2460
  840MOL0     H13393   7.341   6.023  -0.174 -0.1257  0.3493 -0.5283
  840MOL0     H13394   7.423   5.936  -0.405 -2.8529 -3.1891 -1.1026
  840MOL0     H13395   7.541   5.843  -0.317 -0.8987 -2.5755  1.0843
  840MOL0     H13396   7.168   5.637  -0.267  0.0884  1.0775  1.0704
  840MOL0     H13397   7.774   6.243   0.147 -1.0799 -1.7603  0.1844
  840MOL0     H13398   7.842   6.291   0.394  1.5766  0.5107  2.5602
  840MOL0     H13399   7.837   6.475   0.383  0.7482 -1.3353  1.7050
  840MOL0     H13400   7.716   6.382   0.476  2.3680 -1.9017  2.0162
  841MOL0     O13401   1.397   5.624   4.227  0.3700  0.1897  0.0504
  841MOL0     C13402   1.445   5.695   4.318 -0.3658  0.3820  0.3849
  841MOL0     O13403   1.567   5.683   4.379  0.4745 -0.0127 -0.7026
  841MOL0     C13404   1.631   5.562   4.392  0.3044 -0.6293  0.4004
  841MOL0     C13405   1.733   5.573   4.489  0.5567  1.2767 -0.4925
  841MOL0     C13406   1.815   5.469   4.528 -0.5599 -0.2959  0.0992
  841MOL0     C13407   1.796   5.347   4.469  0.4555  0.1517  0.3944
  841MOL0     O13408   1.870   5.235   4.500  0.0888 -0.0083  0.9751
  841MOL0     C13409   1.830   5.176   4.626 -0.4076 -0.6939  1.1344
  841MOL0     C13410   1.963   5.128   4.676  0.0686 -0.0127 -0.6401
  841MOL0     C13411   1.942   5.048   4.804 -0.7491 -0.5037 -0.0602
  841MOL0     C13412   2.068   5.001   4.863  0.4548  0.7431  0.5120
  841MOL0     C13413   2.062   4.935   5.001  0.7198 -0.4559  0.5886
  841MOL0     C13414   2.195   4.859   5.032  0.1481 -0.3935 -0.4452
  841MOL0     C13415   2.215   4.842   5.186 -0.0894 -0.1509 -1.2034
  841MOL0     C13416   2.309   4.725   5.223 -0.4721 -0.0382  0.8482
  841MOL0     N13417   2.348   4.705   5.367 -0.6984 -0.9049 -0.4955
  841MOL0     C13418   2.279   4.731   5.483 -0.2823 -0.1634  1.1151
  841MOL0     C13419   2.359   4.695   5.585 -0.7152  0.3201  1.0184
  841MOL0     C13420   2.343   4.717   5.730  0.7257 -0.3221  1.1255
  841MOL0     C13421   2.363   4.864   5.765  0.1228  0.1571  0.6129
  841MOL0     C13422   2.341   4.910   5.922 -0.0442 -0.5825  0.0678
  841MOL0     C13423   2.360   5.059   5.938 -0.3912 -0.3297 -0.0896
  841MOL0     O13424   2.497   5.095   5.917  0.1052  0.2044 -0.8599
  841MOL0     C13425   2.585   5.067   6.019  0.8117  0.8408  0.6288
  841MOL0     C13426   2.556   5.034   6.154 -0.2778  0.7256  0.9471
  841MOL0     C13427   2.653   5.028   6.249 -0.6622 -0.2360  0.0147
  841MOL0     C13428   2.791   5.058   6.206  0.9239 -0.7874 -0.5178
  841MOL0     C13429   2.896   5.048   6.307 -0.0319 -0.0546 -0.1102
  841MOL0     O13430   3.018   5.107   6.275 -0.3996 -0.5023 -0.7563
  841MOL0     C13431   3.111   5.106   6.374  0.0457  0.0219  0.0649
  841MOL0     C13432   3.165   4.983   6.413 -0.5505  0.2049 -0.4180
  841MOL0     C13433   3.272   4.988   6.504  0.6650 -0.2624  1.3102
  841MOL0     C13434   3.322   5.110   6.553  0.3058 -0.9249 -0.5653
  841MOL0     O13435   3.407   5.140   6.649 -0.0971  0.0940 -0.6390
  841MOL0     C13436   3.506   5.030   6.653 -0.6348  0.0364  0.3452
  841MOL0     C13437   3.602   5.044   6.776 -0.4767 -0.2294  0.2746
  841MOL0     C13438   3.552   5.004   6.909  0.5977 -0.0394  0.0663
  841MOL0     C13439   3.446   5.110   6.962  0.1894 -0.6010  0.2907
  841MOL0     C13440   3.386   5.045   7.090 -0.4297  0.3653  0.9845
  841MOL0     C13441   3.297   5.136   7.166  0.0649  0.3983  0.0162
  841MOL0     C13442   3.357   5.204   7.290  0.3734  1.0942 -0.5204
  841MOL0     C13443   3.345   5.109   7.410 -0.5645 -0.4588 -0.7764
  841MOL0    Cl13444   3.433   5.190   7.547  0.1383 -0.1298  0.1091
  841MOL0     C13445   3.278   5.231   6.498  0.3771  0.2849  0.0681
  841MOL0     C13446   3.174   5.228   6.409 -0.0808 -0.0174 -0.3638
  841MOL0     O13447   2.869   4.979   6.412  0.2002 -0.0241  0.3046
  841MOL0     C13448   2.813   5.098   6.071 -0.1516  0.4560 -0.4873
  841MOL0     C13449   2.715   5.111   5.982  0.1092  0.4691 -0.1479
  841MOL0     N13450   2.462   4.617   5.530 -0.2174 -0.4043  0.5591
  841MOL0     N13451   2.468   4.644   5.401  1.0457 -0.1676 -0.0685
  841MOL0     C13452   1.695   5.334   4.365  0.2363 -0.2682 -0.2555
  841MOL0     C13453   1.604   5.436   4.326 -0.3304  0.3291  0.1353
  841MOL0     C13454   1.366   5.811   4.369  0.1221  1.5790  0.4913
  841MOL0     C13455   1.364   5.846   4.505  0.1632 -0.7933  0.2637
  841MOL0     C13456   1.290   5.954   4.552  0.9468 -0.4844  0.1379
  841MOL0     C13457   1.219   6.035   4.467  0.4025  0.1817 -0.0571
  841MOL0     O13458   1.155   6.145   4.499  0.1569  0.1733 -0.4300
  841MOL0     C13459   1.244   6.228   4.580  0.9126 -0.7383 -0.5551
  841MOL0     C13460   1.375   6.263   4.509  0.5476 -0.4141 -0.2541
  841MOL0     C13461   1.469   6.314   4.617 -0.0711  0.0850 -0.8245
  841MOL0     C13462   1.598   6.388   4.558  0.0640  0.2731 -0.3136
  841MOL0     C13463   1.686   6.444   4.665 -0.1510  0.8752  1.2002
  841MOL0     C13464   1.752   6.488   4.750  0.3018 -0.2136  0.2605
  841MOL0     C13465   1.220   5.994   4.335  0.3578  0.1896 -0.0933
  841MOL0     C13466   1.286   5.886   4.282 -0.0253 -0.0573  0.2351
  841MOL0     C13467   1.307   5.879   4.133  0.6337  0.3198  0.9918
  841MOL0     H13468   1.744   5.668   4.540 -3.3220  1.9229 -0.6181
  841MOL0     H13469   1.892   5.481   4.603  0.0444  0.8875 -0.6687
  841MOL0     H13470   1.790   5.253   4.693  1.7787  0.9790  0.6408
  841MOL0     H13471   1.762   5.091   4.612  1.3595 -2.1869  1.1982
  841MOL0     H13472   2.030   5.212   4.695  1.2926 -0.9298 -0.7710
  841MOL0     H13473   1.992   5.062   4.593  2.2436  1.9389 -1.5496
  841MOL0     H13474   1.873   4.965   4.787 -1.4800 -0.0001  0.4077
  841MOL0     H13475   1.894   5.111   4.880 -2.4104 -2.8026  0.9199
  841MOL0     H13476   2.128   4.938   4.797 -0.1584  2.1841 -1.4999
  841MOL0     H13477   2.132   5.089   4.872 -0.1927  1.6905 -2.9437
  841MOL0     H13478   2.041   5.017   5.070  0.0219 -0.4083  0.3268
  841MOL0     H13479   1.988   4.856   4.985  1.7300 -0.6340 -5.1910
  841MOL0     H13480   2.204   4.764   4.979 -1.2240  0.8545 -3.0419
  841MOL0     H13481   2.280   4.916   4.993 -0.6704 -0.4161 -2.3354
  841MOL0     H13482   2.127   4.818   5.247  1.4317 -1.5780  0.5449
  841MOL0     H13483   2.270   4.925   5.232  2.8543 -2.2726 -0.5689
  841MOL0     H13484   2.267   4.635   5.177 -3.1504  2.1793 -1.4000
  841MOL0     H13485   2.401   4.747   5.168  0.0177 -3.2116  0.2336
  841MOL0     H13486   2.180   4.774   5.484  0.5016  2.0751 -1.7864
  841MOL0     H13487   2.243   4.683   5.761 -1.1628  4.2528  0.8128
  841MOL0     H13488   2.420   4.660   5.783  2.3649 -0.1825 -1.0019
  841MOL0     H13489   2.464   4.897   5.740  0.2419  0.7649  1.8379
  841MOL0     H13490   2.296   4.921   5.700  1.8865 -0.0461 -1.5225
  841MOL0     H13491   2.408   4.859   5.991  1.6725  0.3180 -0.8684
  841MOL0     H13492   2.244   4.871   5.954  1.2956 -3.4857  0.9607
  841MOL0     H13493   2.320   5.088   6.035 -0.6217  0.3516 -0.3749
  841MOL0     H13494   2.302   5.113   5.862 -0.6316 -0.5762 -0.0810
  841MOL0     H13495   2.456   5.009   6.186  0.5865  0.5862  3.7836
  841MOL0     H13496   2.627   5.003   6.352 -1.0990 -1.2510 -0.3312
  841MOL0     H13497   3.116   4.891   6.381 -2.3638 -0.1896  3.0279
  841MOL0     H13498   3.295   4.893   6.551  3.0250  0.8148  2.5444
  841MOL0     H13499   3.480   4.925   6.669  4.9051 -1.6954  0.3163
  841MOL0     H13500   3.567   5.020   6.563  1.2423 -0.2694  1.5898
  841MOL0     H13501   3.681   4.970   6.766 -1.8326 -2.0872  2.4300
  841MOL0     H13502   3.652   5.139   6.796 -0.9639 -0.2406  1.6565
  841MOL0     H13503   3.508   4.905   6.897  2.2403 -0.9531  1.1748
  841MOL0     H13504   3.638   4.982   6.973 -0.2363  0.7598  1.5202
  841MOL0     H13505   3.363   5.127   6.892  0.7400  2.0848  0.1986
  841MOL0     H13506   3.500   5.201   6.990 -3.2106  0.8836  2.6644
  841MOL0     H13507   3.464   4.995   7.148  0.6783  0.9653  0.0598
  841MOL0     H13508   3.313   4.973   7.051 -0.5023  0.6464  0.5940
  841MOL0     H13509   3.259   5.213   7.098  1.0155 -1.4800 -2.7912
  841MOL0     H13510   3.214   5.074   7.200  0.2396 -0.9286 -1.8797
  841MOL0     H13511   3.294   5.291   7.311 -1.6431  0.1243 -2.1463
  841MOL0     H13512   3.459   5.239   7.274  1.0328 -0.2824  0.4793
  841MOL0     H13513   3.242   5.092   7.442 -0.4254  0.5562  0.2893
  841MOL0     H13514   3.383   5.009   7.386 -0.0316 -0.3887 -0.2646
  841MOL0     H13515   3.311   5.330   6.531 -1.3511  0.1045  2.6035
  841MOL0     H13516   3.157   5.322   6.357  1.0082 -0.4653 -1.6052
  841MOL0     H13517   2.917   5.119   6.047 -0.7218  0.5774 -3.1964
  841MOL0     H13518   2.731   5.152   5.883 -2.2199  0.8581 -0.4371
  841MOL0     H13519   1.689   5.231   4.331 -1.8772 -0.6283  1.0508
  841MOL0     H13520   1.542   5.428   4.237  0.5769 -0.6755 -0.4355
  841MOL0     H13521   1.421   5.783   4.573  0.1467  0.1607  1.1813
  841MOL0     H13522   1.294   5.975   4.658  1.7221  1.0214 -0.1582
  841MOL0     H13523   1.258   6.178   4.676  0.4012  0.6155  0.2471
  841MOL0     H13524   1.182   6.315   4.602  1.1273 -0.6446 -0.3241
  841MOL0     H13525   1.360   6.338   4.431  6.8121  1.0814 -0.4796
  841MOL0     H13526   1.421   6.180   4.455  3.1340 -0.1518  1.4034
  841MOL0     H13527   1.504   6.225   4.669  0.4342  0.6849 -0.1173
  841MOL0     H13528   1.422   6.388   4.683 -0.4921 -1.1591  0.3334
  841MOL0     H13529   1.659   6.323   4.495  2.3152  2.8417 -1.0018
  841MOL0     H13530   1.567   6.477   4.501 -1.0056  1.4945  2.0293
  841MOL0     H13531   1.817   6.536   4.821 -1.3777  0.6928  1.2504
  841MOL0     H13532   1.177   6.072   4.273  0.4690 -0.8203 -1.4748
  841MOL0     H13533   1.291   5.975   4.085 -4.3940  0.5604  2.5927
  841MOL0     H13534   1.413   5.855   4.114 -0.0603 -1.2175 -1.3707
  841MOL0     H13535   1.234   5.820   4.078 -0.6374  2.4031  0.3685
  842MOL0     O13536   9.395   3.525  10.690 -0.7610  0.0885  0.3669
  842MOL0     C13537   9.429   3.410  10.654 -0.8692 -0.2873 -0.1030
  842MOL0     O13538   9.504   3.332  10.736 -0.1303  0.1179  0.2418
  842MOL0     C13539   9.495   3.352  10.866  0.1578 -0.5033 -0.4044
  842MOL0     C13540   9.612   3.357  10.936  0.4875 -0.4417  0.4294
  842MOL0     C13541   9.617   3.361  11.064 -0.6945 -0.4258 -1.0074
  842MOL0     C13542   9.502   3.382  11.142 -1.1929 -0.6715  0.9209
  842MOL0     O13543   9.516   3.409  11.276  0.4808  0.6739  0.1712
  842MOL0     C13544   9.465   3.538  11.311 -0.3120 -0.0385 -0.0339
  842MOL0     C13545   9.484   3.549  11.468  0.3155 -0.8822  1.2914
  842MOL0     C13546   9.393   3.465  11.547  0.1906 -0.2181 -0.4884
  842MOL0     C13547   9.405   3.486  11.702  0.4211  0.3482  1.3928
  842MOL0     C13548   9.292   3.414  11.777  0.2270 -0.4199  0.9163
  842MOL0     C13549   9.300   3.457  11.936  0.1746 -0.6319  0.6907
  842MOL0     C13550   9.256   3.602  11.954  0.2947 -0.4229  0.3552
  842MOL0     C13551   9.244   3.639  12.098  0.0568 -0.1912  0.6513
  842MOL0     N13552   9.156   3.539  12.159  0.5801  0.6772  0.4138
  842MOL0     C13553   9.050   3.480  12.105 -0.3518 -0.7628  0.4937
  842MOL0     C13554   8.989   3.419  12.211 -0.0933 -0.2025  0.0487
  842MOL0     C13555   8.855   3.364  12.205  0.3296  0.6764 -1.1055
  842MOL0     C13556   8.751   3.477  12.182 -0.8172  0.5322 -0.2998
  842MOL0     C13557   8.607   3.421  12.162  0.1136 -0.3385 -0.6792
  842MOL0     C13558   8.577   3.409  12.014  1.0497  0.2752 -1.4137
  842MOL0     O13559   8.652   3.316  11.930  0.0612  0.5722  0.3168
  842MOL0     C13560   8.581   3.273  11.821 -0.0911 -0.2779 -0.2333
  842MOL0     C13561   8.573   3.136  11.802 -0.0739 -0.2002  0.9550
  842MOL0     C13562   8.496   3.077  11.695  0.1922 -0.8920 -0.2583
  842MOL0     C13563   8.431   3.168  11.597 -0.2108  0.9962 -0.1294
  842MOL0     C13564   8.375   3.131  11.476  1.0835  0.3961  0.4488
  842MOL0     O13565   8.251   3.187  11.455  0.3161 -0.7435 -0.5394
  842MOL0     C13566   8.178   3.121  11.360 -0.8697 -0.4869  0.3979
  842MOL0     C13567   8.118   3.002  11.396  0.0413  0.5985  0.3044
  842MOL0     C13568   8.042   2.930  11.305 -0.3273  0.5315  0.1740
  842MOL0     C13569   8.022   2.983  11.180  0.2008  0.9054  0.1367
  842MOL0     O13570   7.949   2.926  11.083  0.2307  0.0351 -0.6430
  842MOL0     C13571   7.850   2.831  11.139  0.4846  0.1924 -0.2584
  842MOL0     C13572   7.755   2.785  11.029 -0.0271 -0.4432 -0.2048
  842MOL0     C13573   7.691   2.653  11.069  0.1507  0.2965  0.2488
  842MOL0     C13574   7.592   2.610  10.962 -0.2108 -0.0563 -0.2221
  842MOL0     C13575   7.489   2.499  11.024 -0.0529 -1.5649 -0.2227
  842MOL0     C13576   7.564   2.366  11.060  0.3703  0.2719  0.3597
  842MOL0     C13577   7.475   2.256  11.106  0.2428  0.3313  0.4742
  842MOL0     C13578   7.432   2.176  10.981 -0.0190 -0.2878 -0.1040
  842MOL0    Cl13579   7.291   2.240  10.882 -0.3615 -0.5315 -0.2439
  842MOL0     C13580   8.078   3.105  11.141 -0.1196 -0.0355 -0.1641
  842MOL0     C13581   8.155   3.174  11.232  0.2122 -0.2887  0.8292
  842MOL0     O13582   8.430   3.046  11.409  0.1622  0.6151  0.3246
  842MOL0     C13583   8.442   3.302  11.619 -0.8043 -0.5502 -0.8039
  842MOL0     C13584   8.508   3.358  11.728 -0.5475  0.3424 -0.6319
  842MOL0     N13585   9.049   3.449  12.329  0.0854  0.2654  0.6895
  842MOL0     N13586   9.148   3.522  12.295 -0.0414 -0.0957 -0.5768
  842MOL0     C13587   9.380   3.365  11.088 -0.2860 -0.3905 -0.0527
  842MOL0     C13588   9.374   3.345  10.948  1.2825  0.0414 -1.3310
  842MOL0     C13589   9.393   3.362  10.525 -0.2621 -0.6777  0.2837
  842MOL0     C13590   9.284   3.434  10.463 -1.1668 -0.1830 -0.8835
  842MOL0     C13591   9.214   3.389  10.358  0.3944 -0.2082  0.1901
  842MOL0     C13592   9.246   3.267  10.294 -0.3623  0.4152  0.3190
  842MOL0     O13593   9.174   3.227  10.182  0.0780 -0.0560  0.4773
  842MOL0     C13594   9.169   3.082  10.145 -0.0792  0.3364  0.6254
  842MOL0     C13595   9.063   3.058  10.037  0.2774  0.0079  0.0229
  842MOL0     C13596   9.037   2.909  10.021 -0.2175 -1.0773 -0.1932
  842MOL0     C13597   9.011   2.875   9.883  0.0204  0.3855  0.0503
  842MOL0     C13598   8.872   2.891   9.841 -0.3439 -0.1684 -0.5288
  842MOL0     C13599   8.749   2.905   9.838  0.3341  0.5250  0.7302
  842MOL0     C13600   9.359   3.194  10.346  0.2262  0.5817 -0.3275
  842MOL0     C13601   9.431   3.242  10.455 -0.7890 -0.8644 -0.1684
  842MOL0     C13602   9.552   3.162  10.514 -0.3785  0.6309 -0.9110
  842MOL0     H13603   9.704   3.341  10.882  0.3920 -0.2160  0.1995
  842MOL0     H13604   9.718   3.360  11.104 -1.7444 -2.4916  1.9399
  842MOL0     H13605   9.514   3.615  11.251  0.0612 -0.4027 -0.2037
  842MOL0     H13606   9.360   3.547  11.282  0.2179 -2.1832 -3.1062
  842MOL0     H13607   9.469   3.650  11.507  2.4228 -0.6754  1.7017
  842MOL0     H13608   9.584   3.513  11.492  0.1908 -0.3094  2.7497
  842MOL0     H13609   9.413   3.360  11.524  0.1297 -0.8002  1.8587
  842MOL0     H13610   9.288   3.485  11.523 -0.1007  1.4376  1.8740
  842MOL0     H13611   9.503   3.455  11.741 -0.9674 -0.6136  4.4747
  842MOL0     H13612   9.388   3.593  11.717  1.4465  1.0534 -1.7858
  842MOL0     H13613   9.192   3.440  11.741  1.4363  4.0687  0.1478
  842MOL0     H13614   9.307   3.307  11.760 -3.8551 -0.9123 -0.9085
  842MOL0     H13615   9.228   3.385  11.975  0.5866 -1.9222 -0.8333
  842MOL0     H13616   9.398   3.432  11.978 -0.4240 -0.1723  2.4337
  842MOL0     H13617   9.158   3.612  11.905  1.2916 -0.4822 -1.7354
  842MOL0     H13618   9.324   3.675  11.909 -0.6286  0.6942  0.7119
  842MOL0     H13619   9.334   3.622  12.157  0.4944 -2.0998 -0.4844
  842MOL0     H13620   9.190   3.734  12.108 -2.1949 -0.8624 -3.1334
  842MOL0     H13621   9.026   3.470  11.999  0.9104  0.6769  0.0244
  842MOL0     H13622   8.846   3.282  12.133  0.9999  0.6318 -1.1475
  842MOL0     H13623   8.826   3.317  12.300  1.4677 -0.5751 -1.3404
  842MOL0     H13624   8.758   3.541  12.271 -1.3567 -0.1411  0.2493
  842MOL0     H13625   8.777   3.543  12.099  1.9918 -1.3074 -1.0032
  842MOL0     H13626   8.538   3.500  12.192 -0.5156 -0.0585 -2.7204
  842MOL0     H13627   8.586   3.323  12.207 -1.6869 -0.2548 -1.2647
  842MOL0     H13628   8.603   3.504  11.967 -0.5084  1.7002  0.4168
  842MOL0     H13629   8.468   3.400  12.001  0.3281  1.2603  2.3764
  842MOL0     H13630   8.633   3.086  11.878  2.8238  1.5255 -0.0336
  842MOL0     H13631   8.514   2.971  11.684  4.9819 -0.3334 -0.0627
  842MOL0     H13632   8.118   2.971  11.499 -1.7441  5.5560  2.1109
  842MOL0     H13633   7.986   2.844  11.341  0.5768  1.9813  6.1891
  842MOL0     H13634   7.907   2.744  11.172  1.6427  0.5587 -1.2373
  842MOL0     H13635   7.780   2.875  11.211 -0.1514  0.0316 -0.7631
  842MOL0     H13636   7.689   2.872  11.019  1.5481  1.3084  2.9848
  842MOL0     H13637   7.803   2.776  10.931  0.1548  4.4886 -0.8459
  842MOL0     H13638   7.776   2.586  11.089  0.2219  0.6518  1.1967
  842MOL0     H13639   7.641   2.677  11.163  2.1221  2.3828  0.8659
  842MOL0     H13640   7.637   2.563  10.874 -1.4868 -2.7773  0.4640
  842MOL0     H13641   7.527   2.695  10.940  0.3442  0.5249  0.3452
  842MOL0     H13642   7.414   2.497  10.946  1.1796  1.8207 -1.7016
  842MOL0     H13643   7.431   2.544  11.105  1.2478  1.7708 -0.9547
  842MOL0     H13644   7.618   2.321  10.976 -0.0701  1.4359 -0.5748
  842MOL0     H13645   7.634   2.394  11.140 -0.1380  0.8913  0.5876
  842MOL0     H13646   7.394   2.294  11.169  2.0822  0.7798  2.7111
  842MOL0     H13647   7.536   2.191  11.169 -0.3066  0.3085  0.9962
  842MOL0     H13648   7.517   2.152  10.916  1.5581 -0.6283  1.9522
  842MOL0     H13649   7.414   2.076  11.021 -0.1130  0.6965  2.5126
  842MOL0     H13650   8.058   3.146  11.043  1.9900  1.0097 -0.2195
  842MOL0     H13651   8.205   3.265  11.199 -2.2105  0.1350 -2.0756
  842MOL0     H13652   8.399   3.375  11.552 -2.6817  0.2453  1.1297
  842MOL0     H13653   8.514   3.466  11.740 -2.3662  0.5176 -1.0477
  842MOL0     H13654   9.290   3.355  11.147 -0.3310  1.1849  0.1874
  842MOL0     H13655   9.277   3.324  10.904  0.8451  1.9875 -1.3465
  842MOL0     H13656   9.248   3.531  10.495  2.6111  0.8576  0.7526
  842MOL0     H13657   9.128   3.443  10.319  0.5484 -1.6372 -2.3892
  842MOL0     H13658   9.151   3.025  10.236 -1.1698 -2.6223 -1.2855
  842MOL0     H13659   9.264   3.047  10.106  1.0189  0.7639  2.7730
  842MOL0     H13660   9.085   3.125   9.954 -1.1724  2.1774  1.3033
  842MOL0     H13661   8.971   3.108  10.069  1.5081  2.6347 -0.2818
  842MOL0     H13662   8.960   2.860  10.082  1.8083 -2.5600  1.3457
  842MOL0     H13663   9.133   2.864  10.049  1.5531  2.0635 -0.7815
  842MOL0     H13664   9.076   2.930   9.813  0.3591 -0.1923 -0.0964
  842MOL0     H13665   9.046   2.773   9.868  0.6042  0.5585  0.1816
  842MOL0     H13666   8.647   2.939   9.834  0.7982  1.8430 -1.0259
  842MOL0     H13667   9.402   3.107  10.297 -2.0701 -0.0922 -1.2774
  842MOL0     H13668   9.586   3.080  10.449  1.1805 -1.4092  2.2137
  842MOL0     H13669   9.637   3.227  10.536  2.2284 -2.7409 -0.1785
  842MOL0     H13670   9.528   3.119  10.612  2.2289 -1.1293 -0.9255
  843MOL0     O13671   8.793   8.964  10.746 -0.1291 -0.2498 -0.3663
  843MOL0     C13672   8.778   8.941  10.859 -0.6577  0.5620 -0.1749
  843MOL0     O13673   8.877   8.959  10.957 -0.0166  0.0647  0.7973
  843MOL0     C13674   9.009   8.954  10.928  0.0534  0.4597 -0.1026
  843MOL0     C13675   9.063   8.864  10.838 -0.9339 -0.5695  0.2860
  843MOL0     C13676   9.204   8.860  10.844 -0.2446  0.2649 -0.8559
  843MOL0     C13677   9.291   8.949  10.918 -0.1166  0.0614 -0.1081
  843MOL0     O13678   9.431   8.940  10.911 -0.2635 -0.2782  0.2455
  843MOL0     C13679   9.488   8.829  10.846  0.4205 -0.0324  0.8625
  843MOL0     C13680   9.641   8.829  10.866 -0.8263 -0.8782  0.0415
  843MOL0     C13681   9.691   8.901  10.997  0.4631 -0.0809  0.4424
  843MOL0     C13682   9.845   8.884  11.004 -0.2983 -0.3520  0.0774
  843MOL0     C13683   9.886   8.914  11.150  0.0554 -0.4118  0.4405
  843MOL0     C13684   9.852   8.799  11.238 -0.7166  0.6214  1.0564
  843MOL0     C13685   9.899   8.838  11.382 -0.1317 -0.1607  0.4834
  843MOL0     C13686   9.868   8.714  11.478  0.6586  0.4929  0.6597
  843MOL0     N13687   9.726   8.660  11.482  0.1783  0.5822 -0.8083
  843MOL0     C13688   9.617   8.708  11.541 -0.3177 -0.0100  0.0183
  843MOL0     C13689   9.515   8.656  11.468 -0.1462 -0.3458 -0.0793
  843MOL0     C13690   9.362   8.662  11.481  1.1865 -0.3181  0.0549
  843MOL0     C13691   9.310   8.719  11.611  0.1578 -0.0878  0.4452
  843MOL0     C13692   9.318   8.620  11.725 -0.2807 -1.6023 -0.4080
  843MOL0     C13693   9.203   8.518  11.714 -0.1218  0.7481 -0.2133
  843MOL0     O13694   9.192   8.443  11.839  0.0686  0.1912 -0.4158
  843MOL0     C13695   9.096   8.477  11.930 -0.3681 -0.4891 -0.0623
  843MOL0     C13696   9.026   8.595  11.937 -0.4742  0.0463 -0.5443
  843MOL0     C13697   8.926   8.630  12.038 -0.4498  0.9446  0.0729
  843MOL0     C13698   8.890   8.535  12.131 -0.1701 -0.3098  0.0947
  843MOL0     C13699   8.794   8.570  12.228  0.2640  0.4957 -0.6303
  843MOL0     O13700   8.720   8.691  12.210  0.0858  0.4645  0.5926
  843MOL0     C13701   8.624   8.708  12.306 -0.7040  0.2510  0.7879
  843MOL0     C13702   8.498   8.683  12.265  0.1888  0.1916 -0.0626
  843MOL0     C13703   8.394   8.685  12.356  0.1667  0.2845 -0.2005
  843MOL0     C13704   8.414   8.709  12.492 -0.9921  0.9255 -0.7150
  843MOL0     O13705   8.299   8.718  12.569 -0.0757  0.3307  0.5861
  843MOL0     C13706   8.288   8.825  12.662 -0.1975  0.5767  0.2328
  843MOL0     C13707   8.168   8.785  12.752  0.8352 -0.3486  0.2127
  843MOL0     C13708   8.036   8.835  12.696  0.1512 -0.0186 -0.0074
  843MOL0     C13709   7.910   8.793  12.770  0.2726 -0.8066  0.7655
  843MOL0     C13710   7.805   8.802  12.658 -0.0047 -0.4844 -0.7211
  843MOL0     C13711   7.676   8.722  12.707  0.0114 -0.8619  0.1217
  843MOL0     C13712   7.587   8.808  12.794  0.2208 -0.5825  0.2845
  843MOL0     C13713   7.442   8.743  12.818 -0.4622  0.8198  0.0993
  843MOL0    Cl13714   7.358   8.713  12.662  0.1172  0.4754  0.0394
  843MOL0     C13715   8.550   8.725  12.533  0.7124  0.5775  0.6083
  843MOL0     C13716   8.659   8.724  12.436  0.7347  1.2049  0.4911
  843MOL0     O13717   8.790   8.498  12.328  0.7794  0.8176 -0.0189
  843MOL0     C13718   8.972   8.420  12.139  0.5673  0.3648 -0.1713
  843MOL0     C13719   9.064   8.389  12.035 -0.6476  0.0248 -0.6610
  843MOL0     N13720   9.562   8.560  11.396  0.4122 -0.0037  0.1849
  843MOL0     N13721   9.690   8.558  11.407 -0.8839  0.1729  0.0712
  843MOL0     C13722   9.228   9.033  11.006  0.7126 -0.5017 -0.3802
  843MOL0     C13723   9.088   9.038  11.009  0.6753 -0.3544 -0.6163
  843MOL0     C13724   8.641   8.904  10.898 -0.2070  0.5267  0.8212
  843MOL0     C13725   8.603   8.904  11.032  0.5550 -0.1236 -1.5582
  843MOL0     C13726   8.483   8.849  11.080 -0.5171 -0.4227 -0.3122
  843MOL0     C13727   8.396   8.787  10.996 -0.1212  1.0158 -0.5659
  843MOL0     O13728   8.280   8.734  11.052 -0.0246 -0.0845 -0.0799
  843MOL0     C13729   8.162   8.808  11.002  0.3194  0.4683 -0.9673
  843MOL0     C13730   8.028   8.735  11.052  0.5850 -0.2208 -1.8005
  843MOL0     C13731   8.033   8.713  11.205 -0.5771  0.5136  1.0652
  843MOL0     C13732   7.896   8.665  11.250 -0.9814 -0.3228  0.0558
  843MOL0     C13733   7.899   8.518  11.236  0.2701 -0.5600 -0.4640
  843MOL0     C13734   7.922   8.400  11.222  0.1967  0.4908  0.3454
  843MOL0     C13735   8.432   8.786  10.868  0.0393  0.0374 -0.4187
  843MOL0     C13736   8.545   8.848  10.812 -0.3386 -0.6963 -0.3686
  843MOL0     C13737   8.554   8.836  10.658 -0.0879 -0.0577  0.2578
  843MOL0     H13738   9.018   8.790  10.773 -2.7282  1.1615 -0.5226
  843MOL0     H13739   9.255   8.795  10.773  2.5450  2.4137 -1.0105
  843MOL0     H13740   9.465   8.726  10.875  2.9745 -0.7482  0.6437
  843MOL0     H13741   9.464   8.838  10.740 -0.8355 -1.3072  1.0017
  843MOL0     H13742   9.693   8.888  10.789 -0.0910 -2.6761 -0.8974
  843MOL0     H13743   9.679   8.728  10.852  0.3000 -0.6361  1.1752
  843MOL0     H13744   9.639   8.847  11.077  1.4083  0.7819  1.6626
  843MOL0     H13745   9.662   9.006  11.000 -3.8469 -1.1029  1.6102
  843MOL0     H13746   9.877   8.782  10.979 -0.7929  0.0758 -2.7444
  843MOL0     H13747   9.901   8.943  10.931  3.1499 -1.9815  1.2135
  843MOL0     H13748   9.986   8.959  11.148 -0.8179  1.8322  2.3457
  843MOL0     H13749   9.831   9.004  11.181  0.1621 -1.3213  3.6948
  843MOL0     H13750   9.743   8.786  11.242 -0.6946  0.2188  0.4608
  843MOL0     H13751   9.884   8.701  11.201 -2.6012  0.0380  0.8281
  843MOL0     H13752   9.844   8.921  11.425 -1.6172 -0.3136 -1.0341
  843MOL0     H13753  10.007   8.857  11.385 -0.0747 -0.1535 -0.9742
  843MOL0     H13754   9.935   8.634  11.443 -2.4343 -2.6532  1.3535
  843MOL0     H13755   9.884   8.749  11.580 -4.3257  0.6887  1.6279
  843MOL0     H13756   9.613   8.783  11.618  1.9879  1.7513 -1.4487
  843MOL0     H13757   9.315   8.719  11.401 -1.0614  0.4998  1.8367
  843MOL0     H13758   9.321   8.560  11.479 -4.5188  1.5220  1.9534
  843MOL0     H13759   9.371   8.806  11.635 -0.2159  0.4818 -0.6044
  843MOL0     H13760   9.205   8.749  11.609 -0.5626 -2.3157  1.0095
  843MOL0     H13761   9.315   8.678  11.818  4.0305  1.4670 -1.8322
  843MOL0     H13762   9.422   8.586  11.735  0.1256  0.0527  2.0148
  843MOL0     H13763   9.222   8.439  11.641 -0.4834  0.3432  0.1220
  843MOL0     H13764   9.108   8.558  11.678  1.2203  3.0688 -1.3893
  843MOL0     H13765   9.052   8.679  11.873  2.8013  0.9393  1.6815
  843MOL0     H13766   8.890   8.733  12.037 -0.6189  0.8849 -0.8853
  843MOL0     H13767   8.474   8.655  12.163  1.1091 -2.8309  0.4567
  843MOL0     H13768   8.293   8.660  12.325 -0.2593  1.7541 -0.0994
  843MOL0     H13769   8.366   8.818  12.738  0.9758 -0.2830 -1.0091
  843MOL0     H13770   8.279   8.931  12.634 -0.2439  0.4859 -0.0985
  843MOL0     H13771   8.162   8.676  12.759 -0.5905 -0.3337 -0.5507
  843MOL0     H13772   8.182   8.814  12.857 -1.9184  0.7807  0.3396
  843MOL0     H13773   8.047   8.944  12.683 -0.1429  0.5575  3.6026
  843MOL0     H13774   8.038   8.806  12.591 -1.2211 -1.1259  0.2442
  843MOL0     H13775   7.887   8.855  12.858  2.2013 -1.7651  2.0159
  843MOL0     H13776   7.925   8.697  12.819  1.8076 -0.1531  1.6750
  843MOL0     H13777   7.843   8.753  12.568 -0.8047 -0.1275 -1.2676
  843MOL0     H13778   7.790   8.909  12.643  4.4102  0.4447  0.1261
  843MOL0     H13779   7.613   8.697  12.621  1.1710  1.5885 -1.5398
  843MOL0     H13780   7.695   8.624  12.750  0.7208 -0.7629  0.0395
  843MOL0     H13781   7.570   8.892  12.725 -0.9900 -1.0540 -0.0201
  843MOL0     H13782   7.640   8.833  12.886  2.2926 -0.8850 -0.7750
  843MOL0     H13783   7.463   8.649  12.871 -1.8294  2.6304  4.2821
  843MOL0     H13784   7.379   8.807  12.880  2.5102  1.5687  2.6547
  843MOL0     H13785   8.572   8.721  12.639  2.6943  2.2540  0.3079
  843MOL0     H13786   8.763   8.739  12.465  1.7325 -0.4721 -1.8932
  843MOL0     H13787   8.980   8.348  12.219 -0.3593  1.4041  0.8890
  843MOL0     H13788   9.114   8.293  12.045  2.7919  1.6651 -0.5495
  843MOL0     H13789   9.274   9.095  11.082 -1.4406 -0.7332  1.1872
  843MOL0     H13790   9.039   9.106  11.077 -3.6197  0.0658 -3.7711
  843MOL0     H13791   8.663   8.951  11.110 -1.5145 -0.5534  0.3657
  843MOL0     H13792   8.451   8.845  11.183  0.4051 -2.8315 -0.0560
  843MOL0     H13793   8.168   8.817  10.893  1.2472 -4.2297 -1.5527
  843MOL0     H13794   8.166   8.911  11.036  0.9277  0.5834 -1.3621
  843MOL0     H13795   8.020   8.636  11.006  0.3692 -0.4666 -1.2343
  843MOL0     H13796   7.937   8.793  11.036  0.0770  0.3107  2.1182
  843MOL0     H13797   8.043   8.815  11.244 -2.6746  2.2181 -2.2662
  843MOL0     H13798   8.118   8.650  11.231 -0.4166  0.4685  0.4455
  843MOL0     H13799   7.878   8.704  11.350 -2.2283  2.8116 -1.2474
  843MOL0     H13800   7.813   8.698  11.186  0.4498  0.3388 -1.5512
  843MOL0     H13801   7.939   8.295  11.213 -0.4080  0.3189  1.1352
  843MOL0     H13802   8.371   8.743  10.790 -3.7739 -0.4154  2.4884
  843MOL0     H13803   8.484   8.764  10.614 -1.8676  1.0528  1.1744
  843MOL0     H13804   8.539   8.934  10.613 -0.3114  0.2491  0.9834
  843MOL0     H13805   8.655   8.807  10.626 -0.2203  0.0274 -0.2544
  844MOL0     O13806   6.007   2.828   2.172 -0.9095 -0.3952 -0.6117
  844MOL0     C13807   5.913   2.786   2.107  0.0204 -0.2034 -0.0427
  844MOL0     O13808   5.819   2.865   2.053 -0.2278  0.3728 -0.7544
  844MOL0     C13809   5.841   2.996   2.018  0.1413  0.4622 -0.6291
  844MOL0     C13810   5.728   3.078   1.985  0.3134  0.6288 -0.2534
  844MOL0     C13811   5.729   3.209   1.942 -0.0220  0.7922  0.8997
  844MOL0     C13812   5.858   3.267   1.923 -0.0042 -0.2504 -0.1232
  844MOL0     O13813   5.873   3.396   1.880  0.2493 -1.3290  0.4924
  844MOL0     C13814   5.847   3.504   1.966 -0.4128  0.2703 -0.0808
  844MOL0     C13815   5.891   3.636   1.919  0.3891 -0.3259  0.8461
  844MOL0     C13816   5.776   3.702   1.845 -1.0613  0.6169  0.3555
  844MOL0     C13817   5.830   3.826   1.772  0.1112 -0.4310 -1.6052
  844MOL0     C13818   5.879   3.933   1.871  0.0340 -0.6895 -0.4942
  844MOL0     C13819   5.890   4.066   1.797 -0.0162  0.0803 -0.0127
  844MOL0     C13820   5.909   4.190   1.891 -0.5076 -1.0419  0.0263
  844MOL0     C13821   5.939   4.325   1.810 -0.2443  0.0271 -0.3800
  844MOL0     N13822   5.863   4.336   1.696 -0.1644  0.7374 -0.1307
  844MOL0     C13823   5.891   4.273   1.576 -0.3081  0.6480  0.3608
  844MOL0     C13824   5.790   4.313   1.491  0.1385 -0.3051  0.5424
  844MOL0     C13825   5.786   4.275   1.346  0.9530 -0.3698  1.5799
  844MOL0     C13826   5.865   4.149   1.311 -0.1533 -1.4639 -0.7507
  844MOL0     C13827   5.829   4.098   1.171  0.4938 -0.0919  0.8599
  844MOL0     C13828   5.916   3.985   1.125 -0.5208 -0.3347 -0.3345
  844MOL0     O13829   5.887   3.928   1.000 -0.0027 -0.1216  0.2595
  844MOL0     C13830   5.776   3.845   0.990 -0.0711  0.1250  0.3394
  844MOL0     C13831   5.688   3.803   1.090 -0.7536  0.4805 -1.2613
  844MOL0     C13832   5.579   3.724   1.072  0.6119 -0.0405  0.0618
  844MOL0     C13833   5.546   3.704   0.932  0.1478 -0.0621 -1.1296
  844MOL0     C13834   5.421   3.635   0.899  0.4157  0.5361  0.4898
  844MOL0     O13835   5.364   3.660   0.769  0.7914 -0.0442 -0.1362
  844MOL0     C13836   5.234   3.621   0.733  0.3920  0.4630 -0.1357
  844MOL0     C13837   5.120   3.616   0.812  0.2656  0.2599 -0.5711
  844MOL0     C13838   4.999   3.590   0.752  0.6682 -0.3444 -0.3777
  844MOL0     C13839   4.979   3.565   0.622  0.3674 -0.0208  0.0310
  844MOL0     O13840   4.855   3.528   0.570 -0.5777 -0.0100 -0.2387
  844MOL0     C13841   4.742   3.522   0.652 -0.2985 -0.9115  0.5191
  844MOL0     C13842   4.612   3.476   0.589 -0.9500 -0.5545  0.2784
  844MOL0     C13843   4.615   3.326   0.548  0.7152  0.2765 -0.6778
  844MOL0     C13844   4.480   3.264   0.519 -0.1964 -0.6524  0.0082
  844MOL0     C13845   4.489   3.110   0.540 -0.1376 -0.1219  0.3778
  844MOL0     C13846   4.361   3.049   0.475  0.2866 -0.2358 -0.8281
  844MOL0     C13847   4.257   3.029   0.587 -0.0954 -0.3993  1.2090
  844MOL0     C13848   4.113   3.029   0.513 -0.1205  0.0227  0.1633
  844MOL0    Cl13849   4.094   2.942   0.357 -0.7192  0.7163 -0.0773
  844MOL0     C13850   5.087   3.586   0.534  0.0311 -0.0009  0.3746
  844MOL0     C13851   5.212   3.617   0.596  0.5098 -0.3036 -0.2364
  844MOL0     O13852   5.373   3.557   0.978  0.0730 -0.1482 -0.1027
  844MOL0     C13853   5.627   3.751   0.827  0.0238 -0.6935  0.4962
  844MOL0     C13854   5.748   3.822   0.855  0.2793 -0.2358  0.1902
  844MOL0     N13855   5.709   4.399   1.563  0.6633  0.6205 -0.0652
  844MOL0     N13856   5.743   4.401   1.688 -0.5260 -0.0299 -0.0208
  844MOL0     C13857   5.969   3.191   1.953 -1.0321 -0.7161  0.2933
  844MOL0     C13858   5.970   3.067   1.997  0.6993  0.8393  0.3527
  844MOL0     C13859   5.896   2.646   2.104 -0.6200 -0.1543 -0.6980
  844MOL0     C13860   5.835   2.584   2.214  1.0217  0.4459  0.4906
  844MOL0     C13861   5.831   2.441   2.224 -0.8642  0.4546  0.8563
  844MOL0     C13862   5.869   2.361   2.114  0.0996 -0.0062 -0.3125
  844MOL0     O13863   5.843   2.234   2.080  0.5220  0.1749  0.1495
  844MOL0     C13864   5.807   2.147   2.186 -0.4476  0.2409 -0.5243
  844MOL0     C13865   5.828   2.003   2.137 -0.3895  0.3872  0.0535
  844MOL0     C13866   5.843   1.897   2.243  0.2085  0.1291  0.2919
  844MOL0     C13867   5.714   1.863   2.325 -0.4373 -0.5154 -0.0058
  844MOL0     C13868   5.630   1.771   2.245  0.2805  0.6693 -0.0878
  844MOL0     C13869   5.572   1.714   2.150  0.5270  0.7832 -1.2275
  844MOL0     C13870   5.908   2.429   1.995 -0.4325 -0.1456 -0.2686
  844MOL0     C13871   5.927   2.563   1.990 -0.4504 -0.1316  0.6716
  844MOL0     C13872   5.970   2.614   1.856 -0.0091 -0.1344  0.1484
  844MOL0     H13873   5.630   3.035   2.001 -1.3354  3.5783 -1.5423
  844MOL0     H13874   5.643   3.260   1.900 -0.4036 -1.5480 -1.3503
  844MOL0     H13875   5.744   3.500   2.003 -0.3515 -2.1597  0.0013
  844MOL0     H13876   5.918   3.468   2.041 -1.3076 -1.5615 -0.0648
  844MOL0     H13877   5.978   3.620   1.855 -1.6977 -2.8424 -1.6274
  844MOL0     H13878   5.923   3.699   2.002 -0.9666  2.2029 -0.4009
  844MOL0     H13879   5.705   3.735   1.921  0.5515  4.7493  0.3212
  844MOL0     H13880   5.726   3.629   1.781 -1.3911  0.5121  0.7334
  844MOL0     H13881   5.916   3.797   1.711  1.8374  0.7270  0.1997
  844MOL0     H13882   5.752   3.873   1.711  1.2375  1.7945 -1.4187
  844MOL0     H13883   5.794   3.953   1.936 -0.4245 -2.6514 -0.4486
  844MOL0     H13884   5.972   3.902   1.919  0.6725  1.4585 -0.2317
  844MOL0     H13885   5.981   4.064   1.736 -0.3588  0.8950 -0.5704
  844MOL0     H13886   5.805   4.083   1.731 -0.3154 -1.1181  0.0325
  844MOL0     H13887   5.988   4.156   1.959 -0.7804 -1.0826  0.3249
  844MOL0     H13888   5.837   4.206   1.972 -0.2567  2.1333 -0.2675
  844MOL0     H13889   5.917   4.416   1.866 -1.4140  0.3731 -1.3752
  844MOL0     H13890   6.042   4.326   1.774  0.1665 -2.9692  0.4306
  844MOL0     H13891   5.974   4.205   1.558 -1.3811 -1.0818  1.5933
  844MOL0     H13892   5.685   4.244   1.319  1.9363 -4.2462  1.7979
  844MOL0     H13893   5.801   4.366   1.286 -5.1308 -0.8543 -1.4815
  844MOL0     H13894   5.969   4.181   1.316 -0.7522  0.8348 -1.8101
  844MOL0     H13895   5.837   4.067   1.377 -1.0885  0.6850  1.6960
  844MOL0     H13896   5.846   4.176   1.097 -0.2907 -0.1315  0.6206
  844MOL0     H13897   5.723   4.072   1.162  0.0079  2.2755 -1.7625
  844MOL0     H13898   5.925   3.909   1.204  0.7719  0.9739  0.8578
  844MOL0     H13899   6.012   4.036   1.110  0.5779 -2.0878  0.3860
  844MOL0     H13900   5.711   3.826   1.193  1.9659 -0.4044 -1.6056
  844MOL0     H13901   5.518   3.692   1.156 -0.9990  1.5837 -0.4234
  844MOL0     H13902   5.133   3.623   0.919 -0.9170  2.5099 -0.5029
  844MOL0     H13903   4.914   3.578   0.819 -2.2820 -0.7656 -3.9206
  844MOL0     H13904   4.756   3.464   0.744  0.7022  0.4966  1.2907
  844MOL0     H13905   4.724   3.626   0.682 -0.5032 -0.5970 -0.6334
  844MOL0     H13906   4.538   3.496   0.667 -0.3905  2.4634  0.1659
  844MOL0     H13907   4.586   3.533   0.499  2.1001  2.1594  0.9111
  844MOL0     H13908   4.683   3.313   0.463 -0.9458  2.3489 -2.4275
  844MOL0     H13909   4.645   3.272   0.638 -0.4179 -0.0360 -0.4780
  844MOL0     H13910   4.456   3.290   0.415 -0.8374  0.8762  0.5192
  844MOL0     H13911   4.404   3.308   0.584 -3.8581 -1.0544 -3.5250
  844MOL0     H13912   4.493   3.086   0.647 -3.5706  0.1764  0.6641
  844MOL0     H13913   4.580   3.072   0.492  0.9450  0.1934  2.0770
  844MOL0     H13914   4.330   3.105   0.387  0.6354  0.0515 -0.7699
  844MOL0     H13915   4.378   2.948   0.437  2.2506 -1.4380  2.6738
  844MOL0     H13916   4.254   3.112   0.658  1.9292  2.7951 -2.0951
  844MOL0     H13917   4.274   2.930   0.631 -0.6516 -0.0330  2.2815
  844MOL0     H13918   4.036   2.990   0.580  0.4960  0.9751  1.4708
  844MOL0     H13919   4.088   3.134   0.494 -1.4435 -0.4291 -0.7774
  844MOL0     H13920   5.086   3.553   0.431  1.1902  0.4402  0.1969
  844MOL0     H13921   5.300   3.636   0.534  0.3158  1.9675  0.1023
  844MOL0     H13922   5.598   3.746   0.722 -2.2407 -0.6818  1.0730
  844MOL0     H13923   5.812   3.859   0.777  0.7172 -1.3090  0.0198
  844MOL0     H13924   6.060   3.244   1.927 -2.1992 -0.1181 -3.0784
  844MOL0     H13925   6.066   3.027   2.024  0.8058 -0.3799 -1.6006
  844MOL0     H13926   5.810   2.650   2.296  0.3677  5.2488 -3.1090
  844MOL0     H13927   5.796   2.392   2.314 -0.6500 -0.8864  0.2388
  844MOL0     H13928   5.703   2.160   2.218 -0.6361 -2.2505  0.0857
  844MOL0     H13929   5.867   2.166   2.276  0.5552 -1.6191 -0.7641
  844MOL0     H13930   5.920   1.991   2.079  0.0508  0.4804  0.7187
  844MOL0     H13931   5.737   1.982   2.081 -0.7922 -2.5071  1.5861
  844MOL0     H13932   5.925   1.933   2.305  2.6842 -1.7429 -1.6914
  844MOL0     H13933   5.875   1.799   2.207  1.0672 -0.8308  3.4185
  844MOL0     H13934   5.729   1.814   2.421  2.5457  2.1217  1.0454
  844MOL0     H13935   5.659   1.957   2.338 -0.4183 -0.1194 -2.3295
  844MOL0     H13936   5.531   1.655   2.070 -1.4393  0.5381 -0.1255
  844MOL0     H13937   5.912   2.377   1.900 -3.5950  0.3455 -0.7618
  844MOL0     H13938   5.973   2.722   1.836 -0.8794 -0.1365 -0.0403
  844MOL0     H13939   6.076   2.587   1.851 -0.5975 -2.4990 -0.6387
  844MOL0     H13940   5.907   2.571   1.778  2.0857  0.8138 -2.2051
  845MOL0     O13941   9.792   9.769  11.078  0.4862 -0.0029 -0.6947
  845MOL0     C13942   9.837   9.787  11.193 -0.1983  0.3221 -0.3891
  845MOL0     O13943   9.833   9.697  11.298  0.7541  0.3601  0.4307
  845MOL0     C13944   9.774   9.576  11.292 -0.1549  0.4508  0.1054
  845MOL0     C13945   9.814   9.483  11.395  1.4617  0.6666 -0.2188
  845MOL0     C13946   9.778   9.347  11.391 -0.4323 -0.9232  0.6982
  845MOL0     C13947   9.680   9.312  11.290 -1.0466  0.2419  0.5583
  845MOL0     O13948   9.644   9.189  11.295  0.1459  1.0267 -0.5657
  845MOL0     C13949   9.509   9.153  11.258  0.5166  0.0855  0.2107
  845MOL0     C13950   9.435   9.043  11.339 -0.9260  1.3961 -1.6735
  845MOL0     C13951   9.351   9.106  11.449 -0.9249 -0.9438 -0.6521
  845MOL0     C13952   9.207   9.153  11.426 -0.1145 -0.0654  0.6564
  845MOL0     C13953   9.128   9.201  11.540  0.0999 -0.4620 -0.3062
  845MOL0     C13954   9.091   9.087  11.643 -0.7869 -1.1371  0.4411
  845MOL0     C13955   8.998   9.138  11.752  0.2532  0.0546  1.1112
  845MOL0     C13956   9.007   9.040  11.865 -0.0934  0.0614 -0.8520
  845MOL0     N13957   8.890   9.050  11.951  0.1144 -0.4184 -0.1628
  845MOL0     C13958   8.761   9.022  11.921 -0.2377 -0.7211  0.3903
  845MOL0     C13959   8.678   9.033  12.027  0.6082 -0.2924 -0.0961
  845MOL0     C13960   8.525   9.007  12.037 -0.6254  0.3283 -0.6976
  845MOL0     C13961   8.442   9.132  12.043 -0.1457  0.3082 -0.6127
  845MOL0     C13962   8.290   9.092  12.055  0.2547 -1.0471 -0.0286
  845MOL0     C13963   8.198   9.190  11.990 -0.1982  0.0744 -0.7733
  845MOL0     O13964   8.232   9.198  11.854  0.1432  0.2757 -0.1242
  845MOL0     C13965   8.157   9.273  11.767 -0.2492  0.6578  1.2179
  845MOL0     C13966   8.087   9.396  11.788 -0.8095 -0.4906  0.4712
  845MOL0     C13967   8.045   9.468  11.677 -0.2670  0.1464 -0.7101
  845MOL0     C13968   8.073   9.430  11.549 -0.4876  0.1042 -0.0664
  845MOL0     C13969   8.027   9.522  11.443 -0.1575 -0.0899 -0.0355
  845MOL0     O13970   7.921   9.615  11.466 -0.1712  0.3994 -0.0110
  845MOL0     C13971   7.888   9.700  11.365  0.3797 -0.8144  0.4767
  845MOL0     C13972   7.829   9.663  11.245 -0.7148 -0.3760  0.5455
  845MOL0     C13973   7.808   9.757  11.142  0.3926 -0.5111  0.0783
  845MOL0     C13974   7.851   9.886  11.164 -0.0959  0.0725  0.1690
  845MOL0     O13975   7.858   9.979  11.062  0.7684  1.8065  0.0676
  845MOL0     C13976   7.845   9.934  10.927  0.2192  0.4226 -0.0272
  845MOL0     C13977   7.833  10.076  10.870  0.1971 -0.5843 -0.3123
  845MOL0     C13978   7.843  10.067  10.718  0.3730  0.6959  0.6400
  845MOL0     C13979   7.728  10.149  10.657 -0.1975 -0.4936 -0.0756
  845MOL0     C13980   7.760  10.181  10.514  0.0434  0.2743  0.1967
  845MOL0     C13981   7.773  10.053  10.429  0.5054 -0.2731 -0.6401
  845MOL0     C13982   7.820  10.096  10.293  0.2554  0.4785 -0.2008
  845MOL0     C13983   7.793   9.978  10.197  0.6155 -0.4694 -0.2434
  845MOL0    Cl13984   7.902   9.848  10.217 -0.1219 -0.2582 -0.2137
  845MOL0     C13985   7.891   9.928  11.291 -0.2164  0.0165 -0.3757
  845MOL0     C13986   7.914   9.830  11.392 -0.2540 -0.4836  0.0913
  845MOL0     O13987   8.093   9.511  11.339  0.1677 -0.5013  0.3492
  845MOL0     C13988   8.151   9.310  11.527  0.4928 -0.1841 -0.7400
  845MOL0     C13989   8.188   9.234  11.639  0.1269 -0.2013 -0.6479
  845MOL0     N13990   8.761   9.082  12.130  0.9992 -0.0652 -0.2710
  845MOL0     N13991   8.887   9.080  12.087  0.1694 -0.3813  0.2955
  845MOL0     C13992   9.638   9.402  11.193  0.5337 -1.1236  0.3446
  845MOL0     C13993   9.686   9.533  11.195  0.7457 -0.5093  0.1938
  845MOL0     C13994   9.933   9.898  11.217 -1.1370  1.0808 -0.9456
  845MOL0     C13995  10.032   9.921  11.126  0.1612 -0.7179  0.5981
  845MOL0     C13996  10.136  10.019  11.146 -0.1123  0.4458 -0.7014
  845MOL0     C13997  10.141  10.083  11.265 -0.3334 -0.8194 -0.7914
  845MOL0     O13998  10.243  10.182  11.272  0.8665  0.1247 -0.5595
  845MOL0     C13999  10.312  10.188  11.395  0.1391  0.7871 -0.3114
  845MOL0     C14000  10.393  10.310  11.384 -0.3382  0.0652 -0.2939
  845MOL0     C14001  10.499  10.309  11.270 -0.6674 -1.0190 -0.1718
  845MOL0     C14002  10.592  10.193  11.260 -0.3568 -0.2957  0.2740
  845MOL0     C14003  10.654  10.167  11.391  0.2804 -0.2347  0.2087
  845MOL0     C14004  10.717  10.130  11.492  0.6002 -0.6609 -0.4463
  845MOL0     C14005  10.040  10.061  11.356  0.4934 -0.1277  0.2134
  845MOL0     C14006   9.939   9.965  11.339  0.0435 -0.9096  0.5275
  845MOL0     C14007   9.854   9.935  11.453  0.6439 -0.0948  0.0956
  845MOL0     H14008   9.875   9.520  11.477 -1.0246  0.1694  2.0123
  845MOL0     H14009   9.811   9.281  11.470 -1.9104  1.5026  3.5500
  845MOL0     H14010   9.441   9.238  11.257 -0.0800 -0.2829 -3.4815
  845MOL0     H14011   9.503   9.122  11.153  1.5388 -0.4239  0.2874
  845MOL0     H14012   9.505   8.969  11.377 -2.2075  2.2671  3.0551
  845MOL0     H14013   9.368   8.991  11.269 -1.5727 -0.8468  0.4796
  845MOL0     H14014   9.414   9.187  11.488  2.1422 -2.3789 -2.2685
  845MOL0     H14015   9.349   9.036  11.532  3.9686  0.9417  1.5093
  845MOL0     H14016   9.208   9.237  11.356 -4.4673 -1.8765 -1.9730
  845MOL0     H14017   9.156   9.062  11.392  1.4387 -1.9479  3.0120
  845MOL0     H14018   9.187   9.283  11.583  3.2689 -1.5883 -2.1642
  845MOL0     H14019   9.036   9.251  11.509 -0.5112 -1.2226  0.2340
  845MOL0     H14020   9.048   9.009  11.580  0.1033 -0.3895 -1.1522
  845MOL0     H14021   9.184   9.049  11.688  0.4990  3.4687  2.2228
  845MOL0     H14022   8.898   9.148  11.711  1.1662  2.5045 -0.7421
  845MOL0     H14023   9.027   9.239  11.780 -1.6182  1.0581 -0.4108
  845MOL0     H14024   9.022   8.939  11.828 -1.4860  0.4761 -2.6772
  845MOL0     H14025   9.097   9.064  11.922  1.8063  0.5366 -3.8350
  845MOL0     H14026   8.732   9.002  11.818 -0.2810 -1.9392  0.6259
  845MOL0     H14027   8.502   8.944  11.951 -0.4322 -0.0580 -0.4697
  845MOL0     H14028   8.498   8.946  12.124 -2.9958  3.2406  0.8116
  845MOL0     H14029   8.479   9.186  12.131  3.1532 -0.4094 -1.4247
  845MOL0     H14030   8.465   9.195  11.957  1.3787  0.5766 -0.0502
  845MOL0     H14031   8.259   9.073  12.158 -0.5665 -1.7301 -0.3935
  845MOL0     H14032   8.264   9.006  11.994 -2.3778 -0.0617 -0.4574
  845MOL0     H14033   8.200   9.294  12.025 -1.1231 -0.1451 -0.0390
  845MOL0     H14034   8.091   9.167  11.983 -0.3159  0.1872  0.4553
  845MOL0     H14035   8.056   9.442  11.882 -0.5922  2.6806 -0.8819
  845MOL0     H14036   7.982   9.549  11.714 -3.4851 -1.8202 -1.4786
  845MOL0     H14037   7.807   9.556  11.241  1.8714 -1.1135  2.7738
  845MOL0     H14038   7.768   9.722  11.047  0.0387 -3.2441  1.1606
  845MOL0     H14039   7.927   9.879  10.880  0.4751  0.4804  0.3475
  845MOL0     H14040   7.757   9.872  10.910  0.1111  0.5906 -0.0829
  845MOL0     H14041   7.740  10.121  10.906 -1.0372 -2.7781 -0.5683
  845MOL0     H14042   7.911  10.143  10.907 -1.4527 -0.7213  4.0673
  845MOL0     H14043   7.944  10.095  10.687  0.0096  0.9077 -0.3943
  845MOL0     H14044   7.824   9.966  10.680  2.2232  0.3167  0.5995
  845MOL0     H14045   7.724  10.237  10.721  3.9802 -1.8238  2.4058
  845MOL0     H14046   7.633  10.099  10.676 -0.3748  0.0230  0.4262
  845MOL0     H14047   7.848  10.245  10.507 -0.2884  0.5891 -2.8376
  845MOL0     H14048   7.677  10.242  10.475 -1.3595 -1.2938  0.5987
  845MOL0     H14049   7.846   9.985  10.475 -0.9863 -0.4171  1.7023
  845MOL0     H14050   7.675  10.005  10.429  1.1994 -1.7423 -0.4907
  845MOL0     H14051   7.921  10.132  10.275  0.2960 -1.1393 -3.9846
  845MOL0     H14052   7.752  10.176  10.261  0.2939  0.6477  0.1329
  845MOL0     H14053   7.695   9.929  10.202 -0.1211  1.0805  1.9145
  845MOL0     H14054   7.824  10.024  10.103  1.5082 -0.6680 -0.0490
  845MOL0     H14055   7.919  10.032  11.293  2.3229 -0.6124  0.4682
  845MOL0     H14056   7.964   9.854  11.486  1.9073 -0.4946 -0.9954
  845MOL0     H14057   8.172   9.271  11.428 -1.4219 -2.5956 -0.2914
  845MOL0     H14058   8.248   9.148  11.612  1.3443  1.2197 -2.6543
  845MOL0     H14059   9.583   9.362  11.108  4.2600  0.0020 -2.8936
  845MOL0     H14060   9.644   9.592  11.113  0.9994 -0.4330  0.1192
  845MOL0     H14061  10.028   9.861  11.035 -1.6373 -1.9257  1.4298
  845MOL0     H14062  10.216  10.042  11.076  0.9650 -1.3351 -0.1205
  845MOL0     H14063  10.361  10.090  11.397  1.5662  1.2945 -3.8579
  845MOL0     H14064  10.246  10.205  11.481  1.3711  3.2821  0.2282
  845MOL0     H14065  10.441  10.334  11.479  1.9420 -4.4189 -0.0626
  845MOL0     H14066  10.326  10.393  11.358 -1.0583 -0.2590  0.5024
  845MOL0     H14067  10.560  10.400  11.270  0.1913 -1.5484 -1.7521
  845MOL0     H14068  10.449  10.314  11.173 -0.2974 -1.1480 -0.3727
  845MOL0     H14069  10.527  10.111  11.229 -3.9729  3.0056 -1.8138
  845MOL0     H14070  10.669  10.212  11.184 -2.9202  2.6445 -1.8761
  845MOL0     H14071  10.773  10.123  11.583 -0.4455  4.6736  0.9268
  845MOL0     H14072  10.038  10.117  11.449 -0.4250 -0.8258  0.6319
  845MOL0     H14073   9.842  10.021  11.520  0.2938  0.7927 -1.0689
  845MOL0     H14074   9.754   9.908  11.416  0.3980 -0.9074  1.2855
  845MOL0     H14075   9.897   9.854  11.512 -1.9679 -0.7252  1.2826
  846MOL0     O14076   4.727   7.120   7.700 -0.3335 -0.2627  0.0739
  846MOL0     C14077   4.695   7.169   7.593  1.0977  0.0126  1.2335
  846MOL0     O14078   4.657   7.294   7.566 -0.0176  0.4045 -0.0682
  846MOL0     C14079   4.671   7.410   7.646  0.2750  0.2305  0.1322
  846MOL0     C14080   4.627   7.538   7.607 -0.2399  0.8325  0.0872
  846MOL0     C14081   4.643   7.653   7.685  0.1743 -0.1579 -0.0033
  846MOL0     C14082   4.707   7.648   7.812  0.0744  0.2322 -0.0977
  846MOL0     O14083   4.727   7.768   7.881 -0.5519  0.1349 -0.7342
  846MOL0     C14084   4.787   7.768   8.016 -0.1917  0.6515 -0.6015
  846MOL0     C14085   4.806   7.913   8.066 -0.1970  1.1857  0.6302
  846MOL0     C14086   4.942   7.937   8.132 -0.4877  0.0190 -0.1569
  846MOL0     C14087   4.966   7.863   8.266 -0.7820 -0.0521  0.0957
  846MOL0     C14088   5.121   7.877   8.299  0.2870 -0.1050 -0.3682
  846MOL0     C14089   5.148   8.010   8.362 -0.0697  0.3996 -0.0095
  846MOL0     C14090   5.091   8.020   8.504 -0.3789 -0.7208  0.4879
  846MOL0     C14091   5.083   8.176   8.549 -0.0062  0.6203  0.0827
  846MOL0     N14092   4.970   8.246   8.487 -1.0117  0.0197  1.1318
  846MOL0     C14093   4.987   8.320   8.374  0.2750  0.4339  0.6950
  846MOL0     C14094   4.856   8.340   8.329 -0.5183 -1.0999 -0.0176
  846MOL0     C14095   4.833   8.416   8.208  0.2597 -0.6338 -0.6805
  846MOL0     C14096   4.689   8.482   8.187  0.3296  0.2429  0.1577
  846MOL0     C14097   4.689   8.579   8.073  0.2160 -0.9396  0.1143
  846MOL0     C14098   4.703   8.726   8.117 -0.0897  0.1300  0.3990
  846MOL0     O14099   4.593   8.764   8.191  0.6657 -0.1027 -0.1256
  846MOL0     C14100   4.572   8.889   8.252  0.4216  0.5674  0.2722
  846MOL0     C14101   4.438   8.917   8.291 -0.3242 -0.6671 -0.1251
  846MOL0     C14102   4.402   9.042   8.344  0.5117 -0.6731  0.7484
  846MOL0     C14103   4.501   9.139   8.358 -0.9170 -0.2927 -1.2455
  846MOL0     C14104   4.460   9.267   8.410  0.4231  0.0467 -0.2396
  846MOL0     O14105   4.323   9.311   8.392  0.0637 -0.1449 -0.2491
  846MOL0     C14106   4.294   9.444   8.416 -1.0555 -0.2476 -0.0323
  846MOL0     C14107   4.273   9.511   8.539  0.0339 -0.1557 -0.2372
  846MOL0     C14108   4.238   9.645   8.551  0.2802 -0.3129 -0.2228
  846MOL0     C14109   4.229   9.720   8.436 -0.5308  0.1149  1.4843
  846MOL0     O14110   4.185   9.851   8.449 -0.5018 -0.0554  0.5865
  846MOL0     C14111   4.040   9.857   8.453 -0.7227  0.2228 -0.7082
  846MOL0     C14112   3.997   9.992   8.509  0.6661 -0.4543  0.2617
  846MOL0     C14113   4.050  10.018   8.647  0.5785 -0.4783  0.1092
  846MOL0     C14114   3.991  10.156   8.705 -0.0023  0.3152  0.6327
  846MOL0     C14115   3.843  10.135   8.747 -0.2361  0.3109 -0.3234
  846MOL0     C14116   3.792  10.241   8.844 -0.0172  0.4763  0.2840
  846MOL0     C14117   3.784  10.370   8.763 -0.1715  0.6586  0.1576
  846MOL0     C14118   3.719  10.492   8.840  0.8358  0.5769  0.9785
  846MOL0    Cl14119   3.692  10.623   8.722 -0.1002 -0.0112 -0.2009
  846MOL0     C14120   4.255   9.665   8.313 -0.0681  0.4113  0.1732
  846MOL0     C14121   4.281   9.526   8.307  0.3572  0.5117  0.6313
  846MOL0     O14122   4.544   9.337   8.466  0.3095 -0.0530 -0.0948
  846MOL0     C14123   4.637   9.114   8.323  0.1109 -0.8688 -1.6805
  846MOL0     C14124   4.675   8.993   8.268  0.2119  0.3480 -1.1217
  846MOL0     N14125   4.772   8.294   8.422  0.5107 -0.0752 -0.2053
  846MOL0     N14126   4.843   8.235   8.511  0.1337  0.0463  0.7646
  846MOL0     C14127   4.763   7.522   7.851  0.7981 -0.6368  0.5631
  846MOL0     C14128   4.743   7.408   7.768 -0.6529 -1.2384 -0.4403
  846MOL0     C14129   4.696   7.084   7.473 -0.3453  0.5435  0.0312
  846MOL0     C14130   4.749   7.139   7.349  0.4249  0.2265 -0.8289
  846MOL0     C14131   4.761   7.066   7.234 -0.1131 -0.4920  0.2488
  846MOL0     C14132   4.737   6.925   7.235  0.2410  0.5961  0.5711
  846MOL0     O14133   4.758   6.835   7.130  0.1670 -0.7261 -0.6246
  846MOL0     C14134   4.803   6.870   7.005  0.3607 -0.3336 -0.4585
  846MOL0     C14135   4.949   6.845   6.982  1.4602  0.2546 -0.2451
  846MOL0     C14136   5.001   6.733   7.055  0.0445 -0.1915 -1.0818
  846MOL0     C14137   4.953   6.591   7.020  1.0147 -0.5061  1.3119
  846MOL0     C14138   5.033   6.543   6.913  0.3206  0.3856 -0.6169
  846MOL0     C14139   5.092   6.499   6.821 -0.4677  0.0045 -0.6782
  846MOL0     C14140   4.683   6.875   7.350 -0.8424  0.4128 -0.6032
  846MOL0     C14141   4.651   6.949   7.467 -0.5185 -0.0575 -0.4219
  846MOL0     C14142   4.589   6.885   7.580 -0.1610 -1.4057  0.0679
  846MOL0     H14143   4.573   7.526   7.514  3.5719 -2.0818 -2.0336
  846MOL0     H14144   4.622   7.756   7.660  0.2208  0.2670  1.6184
  846MOL0     H14145   4.725   7.713   8.088 -1.5674  1.6954 -0.9396
  846MOL0     H14146   4.885   7.721   8.005 -0.8810 -0.9956 -0.1210
  846MOL0     H14147   4.729   7.932   8.141  0.3363 -0.3897  1.6438
  846MOL0     H14148   4.799   7.973   7.975 -2.6346  2.0635  1.3286
  846MOL0     H14149   4.942   8.045   8.150  0.1190 -0.5635  4.6907
  846MOL0     H14150   5.021   7.907   8.061 -1.9937 -1.8440 -1.1360
  846MOL0     H14151   4.909   7.913   8.345  0.6142 -0.6730  1.5484
  846MOL0     H14152   4.944   7.756   8.258 -0.3077 -0.1971  0.6301
  846MOL0     H14153   5.151   7.794   8.363  0.9689 -0.1479 -0.7289
  846MOL0     H14154   5.176   7.865   8.205 -0.1104 -2.1482 -0.3719
  846MOL0     H14155   5.256   8.023   8.352 -0.3621  1.1660 -3.0109
  846MOL0     H14156   5.115   8.095   8.302 -1.8826  0.8236  1.5031
  846MOL0     H14157   5.149   7.973   8.584  1.7375  1.0138  0.0690
  846MOL0     H14158   4.990   7.978   8.510 -0.6506 -0.0719  0.5373
  846MOL0     H14159   5.063   8.179   8.657  1.6035  3.8022  0.4062
  846MOL0     H14160   5.178   8.229   8.537  0.3122 -0.0439 -0.3650
  846MOL0     H14161   5.081   8.348   8.328 -0.0883  1.2182  0.4181
  846MOL0     H14162   4.906   8.498   8.208  2.4749 -2.4947 -1.1239
  846MOL0     H14163   4.853   8.351   8.123 -1.4518 -0.1895 -1.4624
  846MOL0     H14164   4.621   8.401   8.159  2.9276 -1.2385 -2.4417
  846MOL0     H14165   4.656   8.541   8.273 -1.6578  3.2117 -2.4315
  846MOL0     H14166   4.595   8.562   8.019  0.9033 -3.4456 -0.4093
  846MOL0     H14167   4.761   8.548   7.996 -2.5438  0.0485 -3.1193
  846MOL0     H14168   4.722   8.801   8.039 -0.9342 -1.5418 -1.4936
  846MOL0     H14169   4.778   8.727   8.196 -0.9891 -0.5980  1.2788
  846MOL0     H14170   4.371   8.834   8.271  0.3964 -1.8604  2.0081
  846MOL0     H14171   4.295   9.051   8.359  0.6908 -0.4598  2.0474
  846MOL0     H14172   4.291   9.458   8.632 -2.2491  1.7649  1.4009
  846MOL0     H14173   4.219   9.685   8.650  1.4194 -0.4354  0.0545
  846MOL0     H14174   3.993   9.839   8.355  3.8145 -1.9858 -2.7905
  846MOL0     H14175   4.000   9.795   8.533  1.1795  2.1491  1.9254
  846MOL0     H14176   4.037  10.066   8.438  2.0738 -2.9061 -1.6858
  846MOL0     H14177   3.888   9.986   8.512  0.5197  1.4961  0.4329
  846MOL0     H14178   4.038   9.928   8.707  3.0433 -1.4091 -0.6506
  846MOL0     H14179   4.158  10.035   8.639  0.2139  2.3205  0.1675
  846MOL0     H14180   4.001  10.244   8.642  0.8578  0.0022  0.3234
  846MOL0     H14181   4.046  10.192   8.792 -3.9451  3.7433  2.0357
  846MOL0     H14182   3.832  10.040   8.801 -1.1853  0.4583 -0.2345
  846MOL0     H14183   3.776  10.122   8.661  1.2068  1.4254 -1.6629
  846MOL0     H14184   3.690  10.221   8.879  0.6509 -5.0608 -0.1234
  846MOL0     H14185   3.859  10.248   8.930  0.2370  0.0748  0.1219
  846MOL0     H14186   3.723  10.344   8.676  1.2095 -4.4615  0.4262
  846MOL0     H14187   3.884  10.406   8.739 -0.0229 -0.9829 -1.9642
  846MOL0     H14188   3.626  10.472   8.895 -0.4314  2.1489 -0.5230
  846MOL0     H14189   3.795  10.527   8.911  0.3674  1.8469  0.8673
  846MOL0     H14190   4.262   9.731   8.227  0.4228  1.8457  1.2671
  846MOL0     H14191   4.308   9.482   8.211 -1.6627  2.2249 -0.8108
  846MOL0     H14192   4.717   9.187   8.328 -1.1538  0.4934  1.2270
  846MOL0     H14193   4.777   8.977   8.234 -1.0881 -2.0281 -4.4794
  846MOL0     H14194   4.812   7.515   7.947 -0.8222 -1.7968  1.3484
  846MOL0     H14195   4.802   7.320   7.794  2.1212  0.3698 -0.9008
  846MOL0     H14196   4.777   7.244   7.355 -1.7376  0.8939 -1.6225
  846MOL0     H14197   4.793   7.106   7.139 -0.5307  2.0090  1.0752
  846MOL0     H14198   4.774   6.973   6.980 -1.6518 -0.2503  1.8691
  846MOL0     H14199   4.742   6.816   6.932 -1.3337  1.9201 -0.8228
  846MOL0     H14200   5.006   6.925   7.031  0.2344  0.9056  0.1649
  846MOL0     H14201   4.955   6.835   6.873 -0.2586  1.6863 -0.5267
  846MOL0     H14202   4.962   6.748   7.156  0.6655  1.9901 -1.1160
  846MOL0     H14203   5.109   6.746   7.055 -0.0985  1.2396 -1.6178
  846MOL0     H14204   4.967   6.519   7.100 -0.7155 -1.4842  0.7911
  846MOL0     H14205   4.847   6.601   6.993  1.1044  3.5094  1.6967
  846MOL0     H14206   5.158   6.473   6.740  0.3863  1.3071 -0.4370
  846MOL0     H14207   4.656   6.770   7.341  2.8284 -0.9741  1.9011
  846MOL0     H14208   4.579   6.778   7.558  0.8615 -0.9686 -2.9714
  846MOL0     H14209   4.649   6.898   7.671  1.9551 -1.3305 -1.2661
  846MOL0     H14210   4.494   6.934   7.603 -1.1671 -2.6923 -1.1707
  847MOL0     O14211   7.454   1.411   8.724 -0.2353 -0.0006 -0.3423
  847MOL0     C14212   7.528   1.512   8.700  0.0315 -0.3561  0.4476
  847MOL0     O14213   7.485   1.608   8.607  0.1699 -0.2954 -0.5847
  847MOL0     C14214   7.364   1.575   8.548 -0.1779 -0.3557  0.4341
  847MOL0     C14215   7.237   1.630   8.582 -0.5859 -0.2364 -0.7205
  847MOL0     C14216   7.118   1.598   8.520  0.3867  0.7305 -0.1582
  847MOL0     C14217   7.125   1.525   8.396 -0.5688 -0.3927  0.5968
  847MOL0     O14218   7.015   1.496   8.318  0.0294  0.4804  0.0729
  847MOL0     C14219   6.906   1.455   8.399 -1.3639  0.1343 -0.6576
  847MOL0     C14220   6.887   1.315   8.344 -0.4569 -1.2170  0.3750
  847MOL0     C14221   6.751   1.260   8.404 -0.0704  0.6183 -1.2541
  847MOL0     C14222   6.679   1.165   8.317  0.6061 -0.1718 -0.8192
  847MOL0     C14223   6.577   1.098   8.391 -0.1431  1.2753 -0.1787
  847MOL0     C14224   6.507   0.986   8.310 -0.4150  0.1014  0.0768
  847MOL0     C14225   6.471   0.868   8.395  0.9064 -1.1374  0.1907
  847MOL0     C14226   6.344   0.792   8.354 -1.5844  0.3488  0.4131
  847MOL0     N14227   6.379   0.690   8.254 -0.4646  0.1329 -0.0399
  847MOL0     C14228   6.462   0.577   8.263 -0.4603  0.2761  0.2911
  847MOL0     C14229   6.445   0.509   8.146  1.1839  0.3381  1.2681
  847MOL0     C14230   6.509   0.384   8.097 -0.5281  1.0134  0.3879
  847MOL0     C14231   6.481   0.279   8.209 -0.0682 -0.8016 -1.3550
  847MOL0     C14232   6.532   0.131   8.175 -0.3557 -0.0515 -0.1747
  847MOL0     C14233   6.690   0.136   8.150 -0.0810 -0.0160 -0.0901
  847MOL0     O14234   6.717   0.187   8.023  0.2291 -0.2914  0.2910
  847MOL0     C14235   6.848   0.213   7.997 -1.5658 -0.5532 -0.2920
  847MOL0     C14236   6.880   0.325   7.917  0.1215  0.2779 -0.1611
  847MOL0     C14237   7.009   0.351   7.876 -0.0450  0.3376 -0.6159
  847MOL0     C14238   7.111   0.259   7.907 -0.7184 -0.7699  0.3615
  847MOL0     C14239   7.254   0.305   7.873 -0.4177  1.0577  0.2826
  847MOL0     O14240   7.345   0.209   7.901 -0.3090 -0.6898  0.0664
  847MOL0     C14241   7.478   0.249   7.901 -0.2355  0.5042  0.6059
  847MOL0     C14242   7.571   0.174   7.826 -1.0330 -0.2012 -0.5156
  847MOL0     C14243   7.711   0.199   7.827 -1.0745 -1.3901  0.4164
  847MOL0     C14244   7.764   0.298   7.910  0.7149 -0.2880 -0.3402
  847MOL0     O14245   7.890   0.337   7.926 -0.3132  0.7434  0.6290
  847MOL0     C14246   7.996   0.247   7.924  0.2220  0.3612  0.5196
  847MOL0     C14247   8.128   0.315   7.899 -0.5209  0.2785  0.2368
  847MOL0     C14248   8.158   0.379   7.764  0.1251 -0.1707 -0.2003
  847MOL0     C14249   8.164   0.298   7.634  0.2870  0.1671  0.1016
  847MOL0     C14250   8.153   0.379   7.511 -0.2039 -0.7920 -0.1783
  847MOL0     C14251   8.273   0.476   7.497 -1.5139  0.0191  0.3878
  847MOL0     C14252   8.255   0.621   7.539  0.0200  0.7146  0.4580
  847MOL0     C14253   8.355   0.711   7.484 -0.5545  0.0868  0.2900
  847MOL0    Cl14254   8.524   0.644   7.472 -0.2831  0.2645 -0.0735
  847MOL0     C14255   7.676   0.385   7.972  0.9824 -0.5169 -0.9043
  847MOL0     C14256   7.534   0.362   7.965  0.1410  0.7002  0.2822
  847MOL0     O14257   7.280   0.422   7.834 -0.3415  0.1479 -0.1712
  847MOL0     C14258   7.077   0.147   7.980  0.7886 -0.4649 -0.2646
  847MOL0     C14259   6.945   0.132   8.028 -0.5991 -0.7033 -0.2405
  847MOL0     N14260   6.347   0.575   8.069  0.0251 -0.3151  0.6200
  847MOL0     N14261   6.314   0.684   8.132  0.5728  0.1668 -0.6741
  847MOL0     C14262   7.245   1.474   8.354 -0.3555 -0.8624  0.1331
  847MOL0     C14263   7.366   1.494   8.429  0.3443 -0.5151  0.3863
  847MOL0     C14264   7.674   1.523   8.731  0.5044 -1.3734 -0.5463
  847MOL0     C14265   7.735   1.645   8.696  0.5384 -0.1525  0.2660
  847MOL0     C14266   7.866   1.675   8.731 -0.0080  0.0917  0.2965
  847MOL0     C14267   7.952   1.574   8.783 -0.4390  0.1890  0.3536
  847MOL0     O14268   8.076   1.606   8.816 -0.6015  0.0405 -1.0458
  847MOL0     C14269   8.170   1.645   8.711 -0.5478 -0.0985  0.1302
  847MOL0     C14270   8.169   1.562   8.583  0.8426 -0.5233 -0.0080
  847MOL0     C14271   8.206   1.419   8.618 -0.0424 -0.4439  0.5893
  847MOL0     C14272   8.203   1.334   8.485 -0.4046 -0.0725  0.0655
  847MOL0     C14273   8.292   1.379   8.376 -0.1399 -0.5868  0.4251
  847MOL0     C14274   8.356   1.420   8.279 -0.3833  0.2693 -0.0112
  847MOL0     C14275   7.889   1.451   8.826  0.2470 -0.3682 -0.3488
  847MOL0     C14276   7.754   1.428   8.805 -0.3015 -0.8340 -0.5090
  847MOL0     C14277   7.696   1.314   8.878 -0.5151 -0.1133  0.5950
  847MOL0     H14278   7.245   1.694   8.669  0.5308  0.4016 -1.2647
  847MOL0     H14279   7.017   1.628   8.543  0.8199  2.3269 -0.2464
  847MOL0     H14280   6.913   1.454   8.508 -0.1781  0.3132 -0.7191
  847MOL0     H14281   6.823   1.522   8.374 -3.9648 -3.0976 -1.4063
  847MOL0     H14282   6.968   1.249   8.377 -0.2405  0.1180  2.7402
  847MOL0     H14283   6.886   1.310   8.235  3.1943 -0.8060  0.1915
  847MOL0     H14284   6.680   1.342   8.420 -1.2099 -0.5158 -0.3954
  847MOL0     H14285   6.769   1.223   8.505  0.8850  2.4869 -0.6809
  847MOL0     H14286   6.648   1.201   8.218  1.0047 -1.1171 -1.3000
  847MOL0     H14287   6.756   1.088   8.304  0.5713 -0.2432 -0.5991
  847MOL0     H14288   6.622   1.047   8.476 -0.7994 -0.0754 -0.6198
  847MOL0     H14289   6.509   1.170   8.438 -2.7276 -0.0421 -1.6808
  847MOL0     H14290   6.423   1.020   8.250 -0.0184 -0.8822 -1.0646
  847MOL0     H14291   6.584   0.951   8.241  1.2205  0.2487  1.7366
  847MOL0     H14292   6.451   0.897   8.499  0.1976 -2.1635  0.3605
  847MOL0     H14293   6.545   0.788   8.401 -0.4233 -2.2894  2.1147
  847MOL0     H14294   6.304   0.744   8.445  1.7253 -1.2401  1.1891
  847MOL0     H14295   6.269   0.854   8.304 -2.2932 -0.5237  0.3719
  847MOL0     H14296   6.525   0.554   8.348  0.2882 -3.6070 -1.0953
  847MOL0     H14297   6.464   0.340   8.008  1.5961 -1.1130  0.2559
  847MOL0     H14298   6.610   0.423   8.083 -1.4686  4.5211  2.0035
  847MOL0     H14299   6.540   0.316   8.293  0.0403  0.9015 -2.1483
  847MOL0     H14300   6.376   0.288   8.239 -0.6104 -2.2378 -2.7080
  847MOL0     H14301   6.486   0.094   8.083  1.8676 -1.5793 -0.7789
  847MOL0     H14302   6.512   0.062   8.257  0.1903  1.1545  1.0117
  847MOL0     H14303   6.716   0.031   8.161  0.7195  0.2231  0.4989
  847MOL0     H14304   6.735   0.190   8.234 -1.5213  0.3352  0.4757
  847MOL0     H14305   6.800   0.388   7.878 -0.5745  0.3615  1.3379
  847MOL0     H14306   7.029   0.434   7.809  0.4647 -0.4690 -1.4899
  847MOL0     H14307   7.535   0.084   7.777  1.8339 -1.7738  0.0891
  847MOL0     H14308   7.773   0.139   7.761 -1.7738 -0.7851 -0.8109
  847MOL0     H14309   7.994   0.195   8.020  0.7473 -0.5934  0.0337
  847MOL0     H14310   7.991   0.168   7.847 -0.4852 -0.2693  1.1896
  847MOL0     H14311   8.136   0.397   7.972 -0.6894  0.7021 -0.2145
  847MOL0     H14312   8.204   0.241   7.924  2.4501  3.3591  1.2503
  847MOL0     H14313   8.094   0.466   7.748 -0.0535 -0.0265  1.1881
  847MOL0     H14314   8.257   0.424   7.776  0.5016 -0.9937 -0.1798
  847MOL0     H14315   8.076   0.234   7.645 -0.6056  1.3784  0.2177
  847MOL0     H14316   8.259   0.244   7.629  0.1004 -0.1187 -0.4355
  847MOL0     H14317   8.055   0.427   7.513 -2.0919 -3.9735 -3.4818
  847MOL0     H14318   8.146   0.315   7.423 -0.2487 -0.0344 -0.7384
  847MOL0     H14319   8.357   0.437   7.555 -1.8385 -0.2715  0.6695
  847MOL0     H14320   8.286   0.477   7.388 -2.1267  0.9707  0.3109
  847MOL0     H14321   8.255   0.616   7.648  1.8087 -0.8719  0.4219
  847MOL0     H14322   8.158   0.648   7.496  0.4914 -2.0629 -2.7700
  847MOL0     H14323   8.321   0.746   7.386 -1.0565  2.0846  1.1174
  847MOL0     H14324   8.364   0.806   7.538  0.7734  0.5533 -0.6879
  847MOL0     H14325   7.718   0.469   8.026  1.5757 -1.6601  0.4532
  847MOL0     H14326   7.461   0.432   8.006  0.4277  0.8243  0.5764
  847MOL0     H14327   7.159   0.082   8.011  0.8939  1.0937  3.1991
  847MOL0     H14328   6.950   0.036   8.078  1.9178  0.5229  2.1220
  847MOL0     H14329   7.237   1.415   8.263 -0.8234 -0.9648  0.2398
  847MOL0     H14330   7.458   1.445   8.397  0.4028 -0.1494 -0.0131
  847MOL0     H14331   7.673   1.720   8.648  0.4822 -0.4276 -0.0915
  847MOL0     H14332   7.917   1.769   8.712 -1.7978  2.0402  3.9890
  847MOL0     H14333   8.267   1.613   8.749 -0.6485 -1.3381 -0.5841
  847MOL0     H14334   8.168   1.752   8.691  0.8521  0.0154  0.5238
  847MOL0     H14335   8.242   1.610   8.517  1.3032 -0.7211  0.3553
  847MOL0     H14336   8.066   1.581   8.550  0.0375 -0.0744  2.5525
  847MOL0     H14337   8.134   1.376   8.688 -1.1548 -0.1193 -0.3312
  847MOL0     H14338   8.308   1.424   8.658  0.0571 -1.5757  0.5195
  847MOL0     H14339   8.240   1.233   8.508 -1.4382  0.0921  2.7529
  847MOL0     H14340   8.103   1.317   8.443 -0.2558  1.0377 -0.7981
  847MOL0     H14341   8.413   1.455   8.195  0.0143  2.8231  1.2357
  847MOL0     H14342   7.956   1.390   8.885 -1.3795 -1.3583  0.5441
  847MOL0     H14343   7.663   1.224   8.825 -2.1554  0.0105  1.3382
  847MOL0     H14344   7.771   1.274   8.948  1.6225  2.2755 -0.1615
  847MOL0     H14345   7.612   1.355   8.934  0.4996  2.3306  0.4295
  848MOL0     O14346   7.724   2.810   0.845  0.2129  0.4054 -0.0471
  848MOL0     C14347   7.784   2.907   0.888 -0.9151  0.2846  0.3117
  848MOL0     O14348   7.783   3.024   0.814  0.0943 -0.2828 -0.2448
  848MOL0     C14349   7.705   3.026   0.705 -0.6585  0.5940  0.3296
  848MOL0     C14350   7.753   2.978   0.581  0.4608 -0.0675 -0.3303
  848MOL0     C14351   7.680   3.008   0.465 -0.5718 -0.3272 -0.2584
  848MOL0     C14352   7.557   3.059   0.461  0.2756 -0.0305  0.6460
  848MOL0     O14353   7.491   3.085   0.339 -0.1630 -0.4352 -0.5872
  848MOL0     C14354   7.435   2.983   0.256  0.0865 -0.4166 -0.1098
  848MOL0     C14355   7.296   2.958   0.308 -0.6370 -0.9142  0.3306
  848MOL0     C14356   7.212   2.868   0.217 -0.6184  0.7715  0.0463
  848MOL0     C14357   7.101   2.795   0.293  0.2476  0.2390 -1.2838
  848MOL0     C14358   7.006   2.899   0.343  0.3703 -0.0922 -0.2848
  848MOL0     C14359   6.890   2.825   0.418  1.1011  0.1520  0.5032
  848MOL0     C14360   6.910   2.819   0.571  0.1092 -0.8464 -0.7550
  848MOL0     C14361   6.853   2.938   0.652  0.2638  0.1230  0.5516
  848MOL0     N14362   6.845   2.930   0.797 -0.0577  0.5581 -0.5804
  848MOL0     C14363   6.953   2.930   0.886  0.2882  0.1964  0.2053
  848MOL0     C14364   6.903   2.917   1.011 -0.0141 -1.0897  0.1041
  848MOL0     C14365   6.984   2.887   1.134 -0.0243  0.1107 -0.0249
  848MOL0     C14366   6.986   2.999   1.228  0.0831  0.2121 -0.2983
  848MOL0     C14367   7.029   3.140   1.184 -0.5213  0.6126 -0.0948
  848MOL0     C14368   7.003   3.243   1.293  0.1618 -0.5154  1.1125
  848MOL0     O14369   7.045   3.378   1.242 -0.1280  0.0683  0.0579
  848MOL0     C14370   7.173   3.413   1.250 -0.9997  0.7359 -0.8331
  848MOL0     C14371   7.280   3.339   1.307 -0.3232  0.1475 -0.3773
  848MOL0     C14372   7.413   3.395   1.306 -0.0678 -0.1027 -0.0781
  848MOL0     C14373   7.438   3.500   1.229 -0.1559 -0.0759 -1.0421
  848MOL0     C14374   7.574   3.577   1.235 -0.3367  0.8262  0.3390
  848MOL0     O14375   7.678   3.509   1.293 -0.0265  0.3118 -0.9826
  848MOL0     C14376   7.803   3.571   1.305  0.3762 -0.3250 -0.4184
  848MOL0     C14377   7.918   3.537   1.240  0.5252 -0.2471  0.3482
  848MOL0     C14378   8.029   3.628   1.254 -0.3692  0.1811  1.5074
  848MOL0     C14379   8.031   3.740   1.335  0.0232 -0.3772  0.9035
  848MOL0     O14380   8.137   3.822   1.354  0.8198  0.8219  0.3182
  848MOL0     C14381   8.262   3.808   1.294 -0.5459 -0.3796 -0.5711
  848MOL0     C14382   8.357   3.899   1.379  0.5642  0.5195  0.6551
  848MOL0     C14383   8.488   3.928   1.299  0.2552  0.4660  0.4368
  848MOL0     C14384   8.612   3.875   1.358 -0.4362 -0.2681 -0.3790
  848MOL0     C14385   8.739   3.927   1.287  0.9337  0.8656 -1.5903
  848MOL0     C14386   8.767   3.857   1.154  0.8646 -0.2457  0.5098
  848MOL0     C14387   8.907   3.886   1.107  0.3479 -0.4359  0.0429
  848MOL0     C14388   8.936   3.852   0.960  0.1827 -0.0087 -0.2400
  848MOL0    Cl14389   9.118   3.896   0.946 -0.5353 -0.2515 -0.4373
  848MOL0     C14390   7.914   3.771   1.393  0.0280 -0.0208 -0.5397
  848MOL0     C14391   7.804   3.686   1.392  0.2752  0.2618  0.0858
  848MOL0     O14392   7.586   3.689   1.192  0.6471  0.7429 -0.5892
  848MOL0     C14393   7.344   3.562   1.147 -0.1748 -0.0834 -0.2201
  848MOL0     C14394   7.214   3.520   1.171  0.9027 -0.5048  1.2529
  848MOL0     N14395   6.764   2.915   1.000  0.2402  0.3433  0.2104
  848MOL0     N14396   6.733   2.940   0.873  0.5372 -1.4371 -0.2849
  848MOL0     C14397   7.496   3.085   0.587 -0.3783 -0.7036 -0.0064
  848MOL0     C14398   7.579   3.077   0.702  0.1560 -0.2591  0.3723
  848MOL0     C14399   7.880   2.890   0.995 -0.9786 -0.1554  0.0967
  848MOL0     C14400   7.955   3.005   1.031  0.3458 -1.3858  1.0045
  848MOL0     C14401   8.032   3.024   1.134  0.2773  0.1718  0.1807
  848MOL0     C14402   8.058   2.919   1.219 -0.2681  0.6101  0.0008
  848MOL0     O14403   8.120   2.934   1.341  0.6772  0.1478  0.5267
  848MOL0     C14404   8.258   2.961   1.329 -0.6636 -0.8533  0.7598
  848MOL0     C14405   8.306   3.040   1.452 -0.1010  1.1964 -0.0995
  848MOL0     C14406   8.232   3.174   1.471 -0.2008 -0.4893  0.3910
  848MOL0     C14407   8.272   3.280   1.375 -0.4541 -1.0575  0.5716
  848MOL0     C14408   8.276   3.418   1.437 -0.3729 -0.4694 -0.2699
  848MOL0     C14409   8.268   3.522   1.493 -0.3009 -1.4642  0.4979
  848MOL0     C14410   7.985   2.796   1.186 -0.3160  0.9160 -0.5270
  848MOL0     C14411   7.898   2.781   1.076  0.1143  0.5788  0.0589
  848MOL0     C14412   7.804   2.660   1.079 -0.0939  0.0728 -0.4881
  848MOL0     H14413   7.842   2.916   0.580 -0.1414 -0.9936  0.9003
  848MOL0     H14414   7.721   2.984   0.367  3.7984 -2.2945  1.7886
  848MOL0     H14415   7.437   3.026   0.155  1.2482  0.6900  0.3512
  848MOL0     H14416   7.495   2.891   0.253  1.1307  0.2711 -1.1356
  848MOL0     H14417   7.240   3.052   0.306 -2.3363 -1.8619  0.8260
  848MOL0     H14418   7.304   2.925   0.413  3.9671  0.1619  0.4990
  848MOL0     H14419   7.264   2.783   0.171  0.8271  1.3982  0.5004
  848MOL0     H14420   7.179   2.927   0.131 -1.1961  0.7368  0.2373
  848MOL0     H14421   7.038   2.731   0.231 -2.0696  1.7828 -0.6346
  848MOL0     H14422   7.144   2.736   0.374  0.7620  1.4816 -0.6119
  848MOL0     H14423   7.051   2.971   0.413  0.8355  1.0661 -1.7282
  848MOL0     H14424   6.962   2.951   0.258 -2.7311  0.1283  1.2754
  848MOL0     H14425   6.799   2.885   0.408 -0.6200 -2.4347 -0.1408
  848MOL0     H14426   6.871   2.725   0.380 -1.0055  0.8982 -0.5706
  848MOL0     H14427   7.014   2.798   0.596  0.3603  0.3745 -0.7373
  848MOL0     H14428   6.845   2.734   0.596 -0.9368 -0.5865 -2.4505
  848MOL0     H14429   6.911   3.030   0.639 -2.1477  1.4647 -1.7528
  848MOL0     H14430   6.751   2.961   0.620  0.3097  3.1555  2.2755
  848MOL0     H14431   7.058   2.942   0.861 -0.0197 -0.4782 -1.5414
  848MOL0     H14432   6.941   2.800   1.184  1.1334 -0.7360 -0.4451
  848MOL0     H14433   7.089   2.858   1.125  0.3089  0.0552  3.0868
  848MOL0     H14434   6.884   3.005   1.266 -0.5051 -2.9476 -1.1329
  848MOL0     H14435   7.045   2.958   1.310 -0.7387 -2.2551 -0.8666
  848MOL0     H14436   6.976   3.168   1.093  0.6110  1.6434 -0.4606
  848MOL0     H14437   7.137   3.140   1.168 -0.2644 -0.5968  1.4333
  848MOL0     H14438   7.053   3.213   1.385  0.0202 -3.0131  0.4397
  848MOL0     H14439   6.894   3.247   1.301 -0.3786 -1.7035 -3.0741
  848MOL0     H14440   7.249   3.254   1.366 -0.7508  1.9312  2.1333
  848MOL0     H14441   7.495   3.353   1.363  0.6662 -0.1248 -1.1180
  848MOL0     H14442   7.923   3.452   1.173 -0.8830 -1.0126  1.1660
  848MOL0     H14443   8.120   3.615   1.196  0.1391 -0.1246  2.3526
  848MOL0     H14444   8.305   3.708   1.302 -1.7086 -0.7477  2.1479
  848MOL0     H14445   8.266   3.831   1.187 -1.8702  2.0277 -0.1799
  848MOL0     H14446   8.299   3.990   1.393 -0.0782  0.2035  0.0648
  848MOL0     H14447   8.374   3.848   1.474  0.1214 -2.3596 -0.7169
  848MOL0     H14448   8.486   3.907   1.191  2.6684 -1.7228  0.7247
  848MOL0     H14449   8.505   4.036   1.301  1.1346  0.4875 -2.5073
  848MOL0     H14450   8.622   3.769   1.381  2.0000 -0.0473 -0.1338
  848MOL0     H14451   8.618   3.928   1.453 -2.1526 -0.5071 -0.1080
  848MOL0     H14452   8.828   3.910   1.348  1.9276 -4.2414 -3.9853
  848MOL0     H14453   8.723   4.033   1.264 -1.1152  0.6792 -1.1482
  848MOL0     H14454   8.746   3.750   1.165 -2.0427  0.3010  1.1280
  848MOL0     H14455   8.699   3.897   1.079 -0.4949 -1.1983  1.1836
  848MOL0     H14456   8.983   3.824   1.156  0.5452 -1.3215 -1.3489
  848MOL0     H14457   8.936   3.988   1.136  1.4876 -0.9611  0.8482
  848MOL0     H14458   8.914   3.745   0.952  3.2993 -1.1980  3.6341
  848MOL0     H14459   8.873   3.916   0.899  2.9280  3.0109 -0.1946
  848MOL0     H14460   7.906   3.860   1.454 -1.8778 -0.3041 -0.3140
  848MOL0     H14461   7.729   3.724   1.461  2.3539  1.2873  1.8760
  848MOL0     H14462   7.347   3.643   1.075  1.3315  0.9194  0.9175
  848MOL0     H14463   7.141   3.559   1.101  1.8053 -1.7798 -0.4763
  848MOL0     H14464   7.393   3.118   0.584  0.1170  0.8333 -1.4723
  848MOL0     H14465   7.537   3.116   0.795  0.7328  0.6723  0.2490
  848MOL0     H14466   7.930   3.100   0.985  3.7079  0.5167  2.6929
  848MOL0     H14467   8.068   3.126   1.147 -0.0337  0.3840 -0.5574
  848MOL0     H14468   8.288   3.009   1.235  4.4893 -2.9845  0.9530
  848MOL0     H14469   8.323   2.873   1.321 -0.3679 -0.5396 -0.5415
  848MOL0     H14470   8.415   3.048   1.437  0.2287 -1.2022  0.5056
  848MOL0     H14471   8.282   2.990   1.547  1.7288  1.3103  0.4711
  848MOL0     H14472   8.234   3.211   1.574  0.4205  1.5466 -0.3128
  848MOL0     H14473   8.124   3.158   1.467 -0.3807 -0.8153  3.6686
  848MOL0     H14474   8.365   3.257   1.323 -0.7900 -1.6046  0.1934
  848MOL0     H14475   8.189   3.281   1.304 -0.3558  1.9467  0.3801
  848MOL0     H14476   8.267   3.617   1.541 -1.4303 -0.1162 -1.9947
  848MOL0     H14477   8.000   2.708   1.248 -1.9153  0.7998 -0.2812
  848MOL0     H14478   7.791   2.610   0.982  1.3310 -2.0613  0.3537
  848MOL0     H14479   7.853   2.587   1.143  0.1588  0.4514 -0.2476
  848MOL0     H14480   7.706   2.676   1.124 -0.4098 -1.0744 -0.7528
  849MOL0     O14481   0.425   2.499   7.352 -0.0503 -0.2263  0.2642
  849MOL0     C14482   0.483   2.492   7.460  0.5284 -0.0916  0.0096
  849MOL0     O14483   0.604   2.432   7.486 -0.3795  0.3920  0.5234
  849MOL0     C14484   0.682   2.349   7.397  0.6175 -1.0255 -0.5448
  849MOL0     C14485   0.789   2.284   7.464  0.8801  0.9117  0.2546
  849MOL0     C14486   0.866   2.212   7.369 -0.4327  0.1160 -0.0678
  849MOL0     C14487   0.844   2.211   7.232 -1.0669 -0.1927 -0.0864
  849MOL0     O14488   0.930   2.152   7.140 -0.6662  0.1411 -0.7079
  849MOL0     C14489   0.971   2.023   7.182  0.4429  0.4804 -0.5971
  849MOL0     C14490   1.023   1.948   7.055  0.7558  0.2442  0.5295
  849MOL0     C14491   0.909   1.874   6.975 -0.3788  0.7393  0.0987
  849MOL0     C14492   0.887   1.740   7.038  0.4249 -0.2924 -0.0179
  849MOL0     C14493   0.794   1.657   6.945  0.2886 -0.6345 -1.0790
  849MOL0     C14494   0.753   1.531   7.032  0.6267  0.5372 -1.1339
  849MOL0     C14495   0.865   1.452   7.101 -0.0368  0.5747 -0.3458
  849MOL0     C14496   0.802   1.336   7.191 -0.0384  0.1395  0.1743
  849MOL0     N14497   0.800   1.362   7.337 -0.4586 -0.2019 -0.6105
  849MOL0     C14498   0.913   1.377   7.418 -0.4360  0.6845  0.4864
  849MOL0     C14499   0.865   1.360   7.546  0.1711 -0.5990  0.5478
  849MOL0     C14500   0.940   1.357   7.677 -0.8989  1.1547 -1.4591
  849MOL0     C14501   0.956   1.213   7.737 -0.8070  0.6982  1.0357
  849MOL0     C14502   0.848   1.093   7.706 -0.4015  0.0167 -0.6569
  849MOL0     C14503   0.913   0.967   7.766  0.4219  0.0972  0.5757
  849MOL0     O14504   0.869   0.852   7.697  1.2195  0.3997 -0.2825
  849MOL0     C14505   0.756   0.787   7.751 -0.0986  0.3433 -0.9108
  849MOL0     C14506   0.771   0.670   7.826  0.6729  0.0904  0.2276
  849MOL0     C14507   0.650   0.627   7.883 -0.5048  0.5862  0.5028
  849MOL0     C14508   0.520   0.680   7.865 -1.4157 -0.7389 -0.2710
  849MOL0     C14509   0.406   0.601   7.923  0.6858  1.9823  0.6938
  849MOL0     O14510   0.439   0.476   7.974 -0.5984  0.0747  0.3117
  849MOL0     C14511   0.338   0.377   7.993  0.8355 -0.4969  0.0415
  849MOL0     C14512   0.199   0.389   7.978  0.2840 -0.6074  0.6753
  849MOL0     C14513   0.110   0.279   8.005  0.0229  0.9478 -0.6283
  849MOL0     C14514   0.172   0.163   8.058 -1.2064  0.5711  0.3226
  849MOL0     O14515   0.100   0.054   8.096  0.6350  0.6612  0.6823
  849MOL0     C14516   0.057  -0.023   7.979 -0.0722  0.9119  0.6376
  849MOL0     C14517   0.164  -0.132   7.928  0.1821 -0.0230 -0.4770
  849MOL0     C14518   0.217  -0.245   8.030 -1.0653 -0.1197 -0.7718
  849MOL0     C14519   0.108  -0.311   8.109  0.4725 -0.0989  0.1082
  849MOL0     C14520   0.152  -0.444   8.169  0.4849  0.6708  0.0277
  849MOL0     C14521   0.229  -0.426   8.302 -0.7888  0.0758  0.9397
  849MOL0     C14522   0.236  -0.558   8.380 -0.5861 -0.6563 -0.2037
  849MOL0     C14523   0.339  -0.548   8.494 -0.6338 -0.9825 -1.4960
  849MOL0    Cl14524   0.468  -0.429   8.471 -0.1134 -0.2649  0.3973
  849MOL0     C14525   0.309   0.149   8.082  0.2042 -0.6972  0.0042
  849MOL0     C14526   0.386   0.258   8.040  0.7703  1.2099 -0.4941
  849MOL0     O14527   0.296   0.653   7.927  1.2284  0.0809 -0.1725
  849MOL0     C14528   0.512   0.798   7.784  0.2231 -0.0437  0.1979
  849MOL0     C14529   0.630   0.846   7.735 -0.4170  0.4942 -0.0801
  849MOL0     N14530   0.725   1.364   7.532  0.4293  0.1322  0.4002
  849MOL0     N14531   0.688   1.363   7.410 -0.0639 -0.3127  0.7037
  849MOL0     C14532   0.740   2.279   7.178  0.0397  0.7657 -0.5903
  849MOL0     C14533   0.654   2.346   7.262 -0.1561 -0.6908 -0.5309
  849MOL0     C14534   0.423   2.550   7.585 -0.3705 -0.6594  0.3942
  849MOL0     C14535   0.326   2.645   7.566 -0.3106 -0.0423 -0.9202
  849MOL0     C14536   0.255   2.698   7.678 -1.0652 -0.7485  0.3101
  849MOL0     C14537   0.289   2.658   7.811  0.2658 -0.3833 -0.0039
  849MOL0     O14538   0.237   2.696   7.930  0.1141  0.3658  0.4162
  849MOL0     C14539   0.138   2.805   7.931 -0.0419  0.0267 -0.6325
  849MOL0     C14540   0.217   2.930   7.929 -0.4669 -0.5157 -0.0586
  849MOL0     C14541   0.314   2.937   8.051 -0.3853  0.6817 -0.5238
  849MOL0     C14542   0.404   3.056   8.055  0.0172  1.1845  0.5918
  849MOL0     C14543   0.458   3.081   8.185  0.4588 -0.0347  0.0421
  849MOL0     C14544   0.483   3.121   8.292 -0.3405  0.0539  0.0667
  849MOL0     C14545   0.387   2.566   7.824  0.2303  0.0192  0.3136
  849MOL0     C14546   0.462   2.509   7.719  0.2584 -0.0990  0.2003
  849MOL0     C14547   0.564   2.391   7.751 -0.5207 -0.6433 -0.2952
  849MOL0     H14548   0.805   2.298   7.570 -0.5516  0.2962  0.5622
  849MOL0     H14549   0.959   2.169   7.405  1.5603  4.0944  0.1784
  849MOL0     H14550   1.052   2.023   7.255 -2.1332  2.9742  2.5979
  849MOL0     H14551   0.897   1.971   7.245  0.1121  1.6103 -0.0180
  849MOL0     H14552   1.103   1.877   7.076  1.1577  0.5435  0.0416
  849MOL0     H14553   1.072   2.021   6.990 -0.5824  1.8712  1.2440
  849MOL0     H14554   0.943   1.849   6.874 -0.3945 -0.1481  0.2998
  849MOL0     H14555   0.822   1.940   6.979 -0.8858  0.1375 -0.5558
  849MOL0     H14556   0.978   1.680   7.047  0.1899 -0.7995 -0.8503
  849MOL0     H14557   0.849   1.751   7.140 -1.4801 -2.1506 -0.4512
  849MOL0     H14558   0.706   1.715   6.919  2.6343  2.6839 -2.3944
  849MOL0     H14559   0.851   1.629   6.855  2.9785 -1.4367  0.7154
  849MOL0     H14560   0.693   1.579   7.110  2.1518 -0.3245  0.6644
  849MOL0     H14561   0.682   1.466   6.981 -1.4322 -0.5941  2.7507
  849MOL0     H14562   0.928   1.514   7.166  0.0744 -1.6519  1.7983
  849MOL0     H14563   0.931   1.408   7.027  0.1509  2.4519 -1.3632
  849MOL0     H14564   0.697   1.315   7.169 -0.3665  0.0643  1.7140
  849MOL0     H14565   0.855   1.243   7.170 -0.5039 -0.9171  3.1957
  849MOL0     H14566   1.015   1.391   7.383 -0.4221  0.7531  0.5526
  849MOL0     H14567   1.039   1.404   7.675 -0.8322  1.0266 -1.0983
  849MOL0     H14568   0.894   1.427   7.747 -0.8865 -0.9329  0.7729
  849MOL0     H14569   1.037   1.165   7.681 -2.6848 -1.2344 -0.1773
  849MOL0     H14570   0.976   1.229   7.843  0.8433 -2.3697  1.3103
  849MOL0     H14571   0.829   1.088   7.598 -1.0424  1.3753 -0.6276
  849MOL0     H14572   0.757   1.120   7.759  0.7451 -0.7778  1.8926
  849MOL0     H14573   0.905   0.952   7.875 -2.8365 -2.4077  0.1561
  849MOL0     H14574   1.020   0.978   7.747  0.2537  0.9718  0.0749
  849MOL0     H14575   0.864   0.615   7.838  0.2558 -0.5030  0.8631
  849MOL0     H14576   0.646   0.530   7.932 -3.8571  1.0816  1.4313
  849MOL0     H14577   0.150   0.477   7.939  1.7157 -1.0715 -2.4350
  849MOL0     H14578   0.003   0.291   8.017  0.0358  0.0424  0.5376
  849MOL0     H14579  -0.028  -0.080   8.018 -1.7796  2.4694 -0.6149
  849MOL0     H14580   0.026   0.054   7.908 -0.7090  1.3387  1.3631
  849MOL0     H14581   0.103  -0.197   7.864  0.1239 -2.6882  2.0848
  849MOL0     H14582   0.244  -0.082   7.873  2.1394 -1.7567  0.6353
  849MOL0     H14583   0.273  -0.310   7.961 -0.4921  1.2279 -1.6202
  849MOL0     H14584   0.294  -0.195   8.090 -1.0861 -1.3971  0.3758
  849MOL0     H14585   0.025  -0.340   8.045 -0.4710 -0.5139  1.4628
  849MOL0     H14586   0.070  -0.241   8.184  2.6842  1.2543  0.0535
  849MOL0     H14587   0.209  -0.499   8.094 -0.2651  0.4211 -0.3692
  849MOL0     H14588   0.054  -0.483   8.199 -0.5936  4.2625  1.7067
  849MOL0     H14589   0.326  -0.383   8.276 -0.0726 -1.5472  0.8093
  849MOL0     H14590   0.180  -0.346   8.359 -4.2776 -0.0127 -1.6259
  849MOL0     H14591   0.276  -0.640   8.320  0.8789 -0.0964 -0.0381
  849MOL0     H14592   0.139  -0.595   8.413 -1.0191  0.0917 -0.5925
  849MOL0     H14593   0.316  -0.540   8.601  3.5089 -1.9854 -0.3087
  849MOL0     H14594   0.394  -0.643   8.495  1.7474  0.2785  0.3221
  849MOL0     H14595   0.361   0.059   8.111  3.0804 -0.8667 -4.5518
  849MOL0     H14596   0.493   0.251   8.052  0.7192 -0.1919 -0.6496
  849MOL0     H14597   0.416   0.834   7.749  0.4964 -0.1134 -0.6590
  849MOL0     H14598   0.623   0.946   7.694 -4.0879  1.2953  2.0659
  849MOL0     H14599   0.714   2.272   7.073 -3.2093 -2.3011  0.2195
  849MOL0     H14600   0.574   2.404   7.217  0.0537  1.5940  1.8219
  849MOL0     H14601   0.301   2.675   7.465  1.4480 -0.8616 -1.6426
  849MOL0     H14602   0.173   2.767   7.658  0.4328  1.1354  0.3804
  849MOL0     H14603   0.075   2.804   8.020  2.7771 -0.5663  1.4688
  849MOL0     H14604   0.063   2.796   7.851  0.9064 -0.6246 -1.4718
  849MOL0     H14605   0.146   3.010   7.953 -0.9039 -1.0266  0.3658
  849MOL0     H14606   0.270   2.948   7.835 -1.2596  1.8013 -0.1213
  849MOL0     H14607   0.376   2.847   8.055 -2.2465 -0.6560 -0.0066
  849MOL0     H14608   0.257   2.945   8.144 -0.8131  1.7999 -0.8598
  849MOL0     H14609   0.499   3.030   8.006 -0.0758 -0.7519  1.3308
  849MOL0     H14610   0.356   3.149   8.023  0.6971  1.0836 -0.8013
  849MOL0     H14611   0.497   3.160   8.390  3.1337  1.2192 -0.7361
  849MOL0     H14612   0.424   2.530   7.920  0.7303 -3.3497 -1.0246
  849MOL0     H14613   0.668   2.417   7.730 -1.2024  2.5897 -0.1832
  849MOL0     H14614   0.564   2.365   7.857 -2.4425 -0.2500 -0.1510
  849MOL0     H14615   0.528   2.302   7.698  0.8769 -0.2288 -2.0073
  850MOL0     O14616   2.239   8.288   0.853 -0.1927 -0.5189  0.1634
  850MOL0     C14617   2.263   8.349   0.959 -0.2780 -0.5614  0.7858
  850MOL0     O14618   2.380   8.337   1.026  0.1920  0.6514 -0.1051
  850MOL0     C14619   2.474   8.250   0.967 -0.2323  0.1321  0.5050
  850MOL0     C14620   2.526   8.135   1.040 -0.2404 -0.2378  0.7756
  850MOL0     C14621   2.626   8.055   0.966 -1.5665  0.0164  0.4629
  850MOL0     C14622   2.670   8.084   0.838  0.1803 -0.4425 -0.5083
  850MOL0     O14623   2.747   7.989   0.773 -0.5811  0.1181  0.0388
  850MOL0     C14624   2.707   7.961   0.638  0.1355 -0.3330 -0.6142
  850MOL0     C14625   2.762   7.833   0.575  0.3686  0.0861  0.0543
  850MOL0     C14626   2.902   7.848   0.519  0.3062  0.4860  0.1699
  850MOL0     C14627   2.992   7.721   0.526  1.0406 -0.5229  0.2716
  850MOL0     C14628   2.957   7.608   0.428 -0.6212 -0.4965  0.1874
  850MOL0     C14629   3.050   7.488   0.450  0.3405 -0.2019  0.5880
  850MOL0     C14630   2.971   7.361   0.395  0.4356 -0.7723  0.4368
  850MOL0     C14631   3.062   7.227   0.414  0.1140  0.8885  0.1153
  850MOL0     N14632   3.057   7.161   0.543 -0.0583 -0.1474  0.3237
  850MOL0     C14633   3.046   7.214   0.674  0.3980 -0.6259  0.0574
  850MOL0     C14634   3.084   7.109   0.753  0.7827 -0.4781  0.5704
  850MOL0     C14635   3.109   7.105   0.895 -0.1678 -0.0851 -0.3788
  850MOL0     C14636   2.970   7.109   0.966  0.2835  0.6523  0.6462
  850MOL0     C14637   2.963   7.128   1.122  0.3387 -0.5667  1.0490
  850MOL0     C14638   3.010   7.000   1.204 -0.3276 -0.1780 -0.4846
  850MOL0     O14639   2.983   7.016   1.354 -0.6223 -0.4705  0.1147
  850MOL0     C14640   2.992   6.908   1.429  0.3736 -0.9465  0.4542
  850MOL0     C14641   3.018   6.779   1.387  0.3381  0.1875 -0.1412
  850MOL0     C14642   3.011   6.672   1.480 -0.7097 -0.0386 -0.5035
  850MOL0     C14643   2.975   6.701   1.614  0.9101 -0.7273  0.3227
  850MOL0     C14644   2.944   6.587   1.709  0.2156 -0.0772  0.7418
  850MOL0     O14645   2.971   6.462   1.668  0.1428  0.0120 -0.3413
  850MOL0     C14646   3.018   6.385   1.774  0.5941 -0.1429  0.4123
  850MOL0     C14647   3.106   6.421   1.875  0.2880 -0.7191 -0.0782
  850MOL0     C14648   3.129   6.337   1.982  0.1128  0.2339  0.6210
  850MOL0     C14649   3.064   6.207   1.988 -0.0625 -0.4921 -0.4758
  850MOL0     O14650   3.081   6.122   2.088  0.3450 -0.0399 -0.5828
  850MOL0     C14651   3.140   6.183   2.208  0.2259  0.4577 -0.8821
  850MOL0     C14652   3.157   6.082   2.320  0.5046  0.2914  0.1393
  850MOL0     C14653   3.249   5.969   2.282  1.0116  0.0049 -0.1391
  850MOL0     C14654   3.248   5.856   2.388 -0.2738 -0.3109 -0.1948
  850MOL0     C14655   3.302   5.722   2.334 -0.3354  0.3730  0.1863
  850MOL0     C14656   3.292   5.620   2.448 -1.1925  0.0980 -0.3985
  850MOL0     C14657   3.332   5.479   2.412 -0.9443  0.7202  0.7549
  850MOL0     C14658   3.279   5.420   2.285 -0.5545 -0.1572  0.2415
  850MOL0    Cl14659   3.094   5.415   2.278  0.2754  0.1151  0.6832
  850MOL0     C14660   2.970   6.173   1.895 -0.2299 -0.2435 -0.0866
  850MOL0     C14661   2.958   6.257   1.780 -0.0409 -0.3212 -0.4123
  850MOL0     O14662   2.908   6.621   1.818  0.1403 -1.0529 -0.6985
  850MOL0     C14663   2.945   6.828   1.651 -0.2858  0.2431 -0.3660
  850MOL0     C14664   2.958   6.936   1.566  0.9554  1.3632  0.4985
  850MOL0     N14665   3.121   7.000   0.671 -1.2472  0.4540 -0.7030
  850MOL0     N14666   3.098   7.033   0.552 -0.1556  0.7152 -0.4065
  850MOL0     C14667   2.616   8.201   0.779 -0.3876 -0.3781 -0.3538
  850MOL0     C14668   2.525   8.289   0.842 -0.3672 -0.2203 -0.1653
  850MOL0     C14669   2.168   8.453   1.006 -0.7756  0.0835  0.5919
  850MOL0     C14670   2.170   8.482   1.148  0.2814  0.2249 -0.1123
  850MOL0     C14671   2.106   8.597   1.182 -0.1307  0.2106 -0.7676
  850MOL0     C14672   2.031   8.677   1.097 -0.0887  0.3913  1.2829
  850MOL0     O14673   1.981   8.797   1.133 -0.1698 -0.7288 -0.2857
  850MOL0     C14674   1.845   8.783   1.173  1.2106 -0.5507 -0.5095
  850MOL0     C14675   1.805   8.894   1.268 -0.0917  0.5753 -0.1200
  850MOL0     C14676   1.824   9.028   1.205 -0.0684  0.4908  0.0749
  850MOL0     C14677   1.761   9.127   1.300  0.9271 -0.0285  0.0770
  850MOL0     C14678   1.792   9.260   1.248 -1.0043  0.1413  0.4281
  850MOL0     C14679   1.817   9.361   1.191 -0.6716 -0.8711 -0.1156
  850MOL0     C14680   2.005   8.634   0.965  0.6145 -0.2355 -0.2260
  850MOL0     C14681   2.074   8.518   0.921  1.0507 -0.2574  0.1063
  850MOL0     C14682   2.039   8.470   0.783 -0.2042  0.8637  0.8514
  850MOL0     H14683   2.497   8.117   1.143  0.2006 -3.2977  0.4815
  850MOL0     H14684   2.666   7.961   1.003 -1.6575 -0.1091  0.2473
  850MOL0     H14685   2.597   7.963   0.633  0.1109 -0.0851  0.0145
  850MOL0     H14686   2.742   8.047   0.580 -1.3832  1.0969  0.4677
  850MOL0     H14687   2.690   7.807   0.497 -2.2512  0.3367  2.1931
  850MOL0     H14688   2.774   7.745   0.640  0.6952 -2.2088 -2.8804
  850MOL0     H14689   2.950   7.926   0.580  1.0101 -0.7189  1.2140
  850MOL0     H14690   2.883   7.878   0.416 -0.0584 -3.0342 -0.9200
  850MOL0     H14691   3.096   7.749   0.506  0.6239 -0.1236 -1.4897
  850MOL0     H14692   2.986   7.676   0.626  1.3876 -0.1013  0.4860
  850MOL0     H14693   2.852   7.578   0.437 -0.3686 -1.5079 -0.1600
  850MOL0     H14694   2.956   7.648   0.326 -0.1073 -1.0280 -0.0325
  850MOL0     H14695   3.151   7.503   0.409  0.6063  0.6006  1.5117
  850MOL0     H14696   3.065   7.489   0.558  0.9200  1.1329  0.5229
  850MOL0     H14697   2.949   7.364   0.288  2.3209 -3.2558 -0.1171
  850MOL0     H14698   2.874   7.348   0.444  0.9409 -2.1811  1.1367
  850MOL0     H14699   3.022   7.152   0.345 -0.0064 -0.4662  1.6196
  850MOL0     H14700   3.169   7.236   0.393 -0.4098 -0.1844 -3.9105
  850MOL0     H14701   3.018   7.315   0.702 -2.3100 -0.7333 -1.9015
  850MOL0     H14702   3.160   7.009   0.907  0.3551 -0.0409 -1.9501
  850MOL0     H14703   3.156   7.201   0.920 -1.1673  0.7183 -1.4647
  850MOL0     H14704   2.928   7.203   0.929 -1.9020  0.4694  2.4410
  850MOL0     H14705   2.911   7.023   0.931 -0.0650  1.3591 -0.5779
  850MOL0     H14706   2.861   7.149   1.155 -0.1600  1.1196 -1.3744
  850MOL0     H14707   3.017   7.218   1.155  0.7849  1.0573 -3.4708
  850MOL0     H14708   3.116   6.983   1.183 -0.3671  0.2603 -1.0931
  850MOL0     H14709   2.957   6.910   1.172  0.1647  0.0123 -1.9487
  850MOL0     H14710   3.045   6.764   1.283  1.2993  0.3911  0.0696
  850MOL0     H14711   3.023   6.567   1.454  1.9258 -0.7783  2.9288
  850MOL0     H14712   3.158   6.516   1.874  0.8049 -1.0003 -0.2622
  850MOL0     H14713   3.208   6.382   2.040  1.3922 -1.0577 -0.0656
  850MOL0     H14714   3.235   6.230   2.180 -0.3720  1.3908 -1.4218
  850MOL0     H14715   3.075   6.265   2.239  2.3158  3.1693 -3.0907
  850MOL0     H14716   3.201   6.137   2.404 -0.8301 -1.6150  2.2206
  850MOL0     H14717   3.063   6.038   2.355  0.9725  0.5695  1.8499
  850MOL0     H14718   3.217   5.933   2.183 -1.8696  1.8520  0.0221
  850MOL0     H14719   3.352   6.002   2.263  0.0083  2.0496 -2.6234
  850MOL0     H14720   3.150   5.833   2.430  2.1526 -6.3071  3.4656
  850MOL0     H14721   3.305   5.884   2.477 -0.6372  0.0420 -0.0737
  850MOL0     H14722   3.407   5.740   2.308 -0.4568 -0.9974 -1.4498
  850MOL0     H14723   3.251   5.694   2.241  1.6341 -1.0608 -0.5428
  850MOL0     H14724   3.372   5.651   2.515 -0.4304 -2.2512 -0.1476
  850MOL0     H14725   3.198   5.616   2.505  1.2763 -0.6743  4.0415
  850MOL0     H14726   3.314   5.412   2.497 -0.0302 -0.2315  0.2190
  850MOL0     H14727   3.441   5.484   2.398 -0.8521  0.2717  1.2580
  850MOL0     H14728   3.324   5.478   2.204 -0.6579  0.7002  0.7860
  850MOL0     H14729   3.328   5.322   2.289  0.4297  0.3496  3.0280
  850MOL0     H14730   2.916   6.079   1.887  0.3392 -0.6046  0.3265
  850MOL0     H14731   2.900   6.227   1.693  0.6763 -0.3842 -0.8826
  850MOL0     H14732   2.900   6.848   1.748 -0.6804  1.3587 -0.7533
  850MOL0     H14733   2.926   7.035   1.598 -2.0293  1.2736 -1.7356
  850MOL0     H14734   2.643   8.219   0.676 -2.2568 -0.8197 -0.9595
  850MOL0     H14735   2.486   8.378   0.794  0.2264 -0.2281 -0.6831
  850MOL0     H14736   2.244   8.437   1.213 -0.1800 -0.1525  0.1574
  850MOL0     H14737   2.138   8.633   1.280 -0.9322  0.9385 -0.7556
  850MOL0     H14738   1.824   8.687   1.220  0.4162 -1.5535 -2.7541
  850MOL0     H14739   1.774   8.789   1.090 -1.3515 -5.1009  1.0282
  850MOL0     H14740   1.867   8.889   1.358 -2.0961  2.8005  1.5404
  850MOL0     H14741   1.700   8.882   1.297 -0.1710 -1.8616 -1.2290
  850MOL0     H14742   1.776   9.033   1.107  1.0588  1.6551 -0.4414
  850MOL0     H14743   1.932   9.044   1.197  0.2153 -1.1063  0.5016
  850MOL0     H14744   1.652   9.122   1.292  0.7427  1.3406  1.4212
  850MOL0     H14745   1.797   9.124   1.403 -1.6369  1.9318  1.1117
  850MOL0     H14746   1.847   9.455   1.149 -0.0669  0.4133  2.9040
  850MOL0     H14747   1.946   8.694   0.897  3.6670  1.4433 -1.5607
  850MOL0     H14748   2.020   8.363   0.779 -2.5303  1.2624 -2.0112
  850MOL0     H14749   1.945   8.511   0.745 -2.3154 -3.2224  1.2407
  850MOL0     H14750   2.116   8.495   0.708  0.1473  1.5042  1.4106
  851MOL0     O14751  10.546   3.217   6.383  0.0473  0.0558 -0.5639
  851MOL0     C14752  10.627   3.212   6.470 -0.9852 -0.3470 -0.0551
  851MOL0     O14753  10.758   3.253   6.464  0.1784 -0.4959  0.2619
  851MOL0     C14754  10.821   3.285   6.346 -0.0328  0.0223 -0.0078
  851MOL0     C14755  10.886   3.405   6.326  0.5079  0.2598  0.0717
  851MOL0     C14756  10.926   3.445   6.197 -0.0307  0.4091  0.0900
  851MOL0     C14757  10.892   3.371   6.082 -0.2662 -1.0778  0.7142
  851MOL0     O14758  10.941   3.392   5.956  0.3183 -0.1834 -0.3133
  851MOL0     C14759  10.851   3.453   5.865 -0.0850  0.2268  0.0966
  851MOL0     C14760  10.933   3.525   5.771 -0.3847  0.6081  1.0697
  851MOL0     C14761  11.045   3.614   5.842  0.5175  0.0997  1.1561
  851MOL0     C14762  11.103   3.724   5.743 -0.2513 -0.2208  0.2502
  851MOL0     C14763  11.239   3.766   5.802 -1.0578 -0.5484 -0.5290
  851MOL0     C14764  11.291   3.889   5.731 -0.0768  0.2408  0.1237
  851MOL0     C14765  11.442   3.909   5.795 -0.4188 -0.3372  0.2796
  851MOL0     C14766  11.504   4.045   5.732 -0.6017  0.5632 -0.3502
  851MOL0     N14767  11.438   4.165   5.772  0.0039  0.5947  0.5347
  851MOL0     C14768  11.423   4.209   5.903 -0.0507  1.3278  0.3877
  851MOL0     C14769  11.351   4.317   5.902  0.2458 -0.4931 -0.4583
  851MOL0     C14770  11.307   4.402   6.023  0.0170 -0.7534  0.2654
  851MOL0     C14771  11.372   4.542   5.992 -1.4011 -0.2527 -0.2960
  851MOL0     C14772  11.337   4.644   6.102 -0.4463  0.7152  0.4191
  851MOL0     C14773  11.312   4.783   6.047 -0.0631 -0.7055 -0.4804
  851MOL0     O14774  11.306   4.874   6.166  0.5206  0.3704 -0.0515
  851MOL0     C14775  11.425   4.941   6.188  0.3200 -0.3640 -0.2240
  851MOL0     C14776  11.554   4.915   6.136 -0.1407 -0.4222  0.2705
  851MOL0     C14777  11.664   5.000   6.147 -0.1837  0.2722  0.1130
  851MOL0     C14778  11.654   5.125   6.210  0.2148  0.1405  0.4037
  851MOL0     C14779  11.759   5.218   6.209 -0.2885 -0.0803 -0.3050
  851MOL0     O14780  11.753   5.321   6.291 -0.2219  0.1308  0.0124
  851MOL0     C14781  11.863   5.395   6.298 -0.1539 -0.7713  1.1877
  851MOL0     C14782  11.950   5.381   6.401 -0.5478 -1.4849  0.4108
  851MOL0     C14783  12.065   5.468   6.413 -1.0238 -0.2417 -0.5535
  851MOL0     C14784  12.097   5.554   6.312 -0.0578  0.7939 -0.4016
  851MOL0     O14785  12.213   5.621   6.323  0.1154  0.7155  0.7152
  851MOL0     C14786  12.283   5.697   6.221  0.6326  0.5129  0.7607
  851MOL0     C14787  12.332   5.602   6.110 -0.8618  0.2752 -0.3445
  851MOL0     C14788  12.475   5.660   6.057  0.4272 -0.2043  0.0136
  851MOL0     C14789  12.464   5.788   5.985  0.1133 -0.2743 -0.6490
  851MOL0     C14790  12.593   5.832   5.924  0.7663  0.7433  0.3068
  851MOL0     C14791  12.579   5.968   5.860  0.5015  0.4481  1.2603
  851MOL0     C14792  12.699   5.989   5.768  0.6649  0.3088  0.0581
  851MOL0     C14793  12.700   6.127   5.695 -0.0245  1.0655  0.1978
  851MOL0    Cl14794  12.528   6.158   5.634  0.3063  0.3585  0.4937
  851MOL0     C14795  12.011   5.565   6.211 -0.6502 -0.5918 -0.5329
  851MOL0     C14796  11.898   5.486   6.195  0.6186  0.3992 -0.2518
  851MOL0     O14797  11.861   5.176   6.144 -0.1442  0.0761  0.0867
  851MOL0     C14798  11.526   5.152   6.271 -0.3002  0.2971  0.0517
  851MOL0     C14799  11.421   5.059   6.264  0.2325 -1.1562 -0.4565
  851MOL0     N14800  11.298   4.341   5.782  0.6490  0.1773  0.8994
  851MOL0     N14801  11.363   4.252   5.705  0.4199  0.3549  0.4682
  851MOL0     C14802  10.838   3.246   6.113 -0.1219 -0.6774  0.2474
  851MOL0     C14803  10.815   3.203   6.238 -0.3703  0.0678  0.1670
  851MOL0     C14804  10.589   3.179   6.611 -0.2119  0.0061  0.5873
  851MOL0     C14805  10.697   3.163   6.707  0.4263  1.2517 -0.7481
  851MOL0     C14806  10.670   3.131   6.842 -0.6371  0.1733  0.4278
  851MOL0     C14807  10.543   3.119   6.883 -0.1378  0.1796  0.5353
  851MOL0     O14808  10.524   3.102   7.016 -0.1659  0.2250  1.0889
  851MOL0     C14809  10.398   3.054   7.053 -0.1354  0.2001  1.0858
  851MOL0     C14810  10.402   3.034   7.204  0.3623 -0.4505  1.1259
  851MOL0     C14811  10.455   2.898   7.247  0.3247 -0.7948 -0.0867
  851MOL0     C14812  10.489   2.881   7.395  0.4207 -0.5296  0.1461
  851MOL0     C14813  10.373   2.893   7.486  0.6336 -0.6955  0.5516
  851MOL0     C14814  10.273   2.915   7.558  0.7261 -0.8185 -0.3618
  851MOL0     C14815  10.437   3.134   6.788  0.1551  0.6222 -0.0654
  851MOL0     C14816  10.449   3.172   6.658  0.6935  0.2897  0.4901
  851MOL0     C14817  10.327   3.197   6.568 -0.8707 -0.1582 -0.5873
  851MOL0     H14818  10.902   3.467   6.414  1.1430  1.4524 -0.8642
  851MOL0     H14819  10.986   3.531   6.170  1.7622 -1.2092 -1.4083
  851MOL0     H14820  10.798   3.369   5.819 -0.7097 -0.0103  1.2113
  851MOL0     H14821  10.777   3.521   5.909 -1.3875 -1.5883  0.8597
  851MOL0     H14822  10.880   3.581   5.694  0.3172  3.0526  2.2461
  851MOL0     H14823  10.982   3.452   5.706 -1.5921 -0.0694  0.8909
  851MOL0     H14824  11.121   3.547   5.882  1.6456 -0.0952 -1.1407
  851MOL0     H14825  10.998   3.669   5.924  0.5413  0.8675  0.6621
  851MOL0     H14826  11.124   3.695   5.640 -0.4740  0.7601 -0.0845
  851MOL0     H14827  11.026   3.800   5.724 -0.9011 -0.9395 -0.0674
  851MOL0     H14828  11.222   3.775   5.909 -0.5890  1.7097 -0.5829
  851MOL0     H14829  11.316   3.689   5.794 -1.1579 -0.8183  0.8984
  851MOL0     H14830  11.306   3.886   5.623  0.3711  1.4453  0.1344
  851MOL0     H14831  11.228   3.976   5.749  2.7498  2.5223 -0.1740
  851MOL0     H14832  11.506   3.824   5.770 -2.5333 -0.9066 -4.4329
  851MOL0     H14833  11.429   3.915   5.903  0.0768  1.7714  0.2718
  851MOL0     H14834  11.602   4.055   5.779 -1.0508  0.9767  0.5342
  851MOL0     H14835  11.506   4.033   5.623 -2.5523  0.3011 -0.3895
  851MOL0     H14836  11.468   4.155   5.987 -1.9589 -2.3788 -0.7595
  851MOL0     H14837  11.198   4.411   6.031  0.0973 -0.6197  1.2784
  851MOL0     H14838  11.346   4.354   6.112  2.0038 -2.3495 -1.3621
  851MOL0     H14839  11.480   4.529   5.989 -1.3671 -0.1334  0.3295
  851MOL0     H14840  11.345   4.576   5.891 -2.0625  0.5644  0.1401
  851MOL0     H14841  11.416   4.647   6.178 -0.6109  0.9581  0.5798
  851MOL0     H14842  11.251   4.606   6.157  0.3362 -2.9635 -0.6435
  851MOL0     H14843  11.211   4.785   6.004 -0.9385  0.3393  1.4709
  851MOL0     H14844  11.383   4.811   5.969 -2.7711 -1.1239 -3.3007
  851MOL0     H14845  11.571   4.815   6.096 -0.0308 -0.5117  0.5375
  851MOL0     H14846  11.751   4.981   6.086  1.7014 -0.5593  2.8761
  851MOL0     H14847  11.946   5.315   6.488 -1.8791  0.7378  2.1499
  851MOL0     H14848  12.126   5.468   6.502 -2.9500  2.5665  0.9230
  851MOL0     H14849  12.229   5.785   6.184 -0.6828 -0.7851 -0.5397
  851MOL0     H14850  12.373   5.734   6.272  1.0913  0.4246  0.0287
  851MOL0     H14851  12.350   5.503   6.153  0.2383  2.6559  5.7129
  851MOL0     H14852  12.269   5.592   6.022  2.4856  1.0970 -3.0607
  851MOL0     H14853  12.536   5.671   6.147  2.5077  3.5531 -1.6350
  851MOL0     H14854  12.527   5.599   5.982 -1.1270 -0.3234 -1.0199
  851MOL0     H14855  12.426   5.868   6.049  2.0451  1.1027 -1.1173
  851MOL0     H14856  12.389   5.765   5.909  0.5577  4.6780 -3.0263
  851MOL0     H14857  12.620   5.756   5.850 -1.9879  0.8562 -0.9517
  851MOL0     H14858  12.667   5.831   6.004 -0.4045  0.9402  1.4177
  851MOL0     H14859  12.490   5.962   5.797  1.0976 -1.1716  0.5118
  851MOL0     H14860  12.569   6.052   5.929 -0.1575  1.7730 -0.3684
  851MOL0     H14861  12.693   5.913   5.690 -0.1236 -1.2751  1.5943
  851MOL0     H14862  12.793   5.969   5.818  3.1275  2.9363 -3.0451
  851MOL0     H14863  12.728   6.209   5.761  0.8409  1.6340 -0.8509
  851MOL0     H14864  12.766   6.120   5.608  0.3315  0.1610  0.5231
  851MOL0     H14865  12.043   5.643   6.142 -2.0925 -0.3259 -0.9457
  851MOL0     H14866  11.824   5.514   6.121  0.1090  0.9997  0.4612
  851MOL0     H14867  11.521   5.247   6.323 -0.0939  0.7298 -0.7061
  851MOL0     H14868  11.322   5.089   6.296  0.3793  4.4927 -3.9445
  851MOL0     H14869  10.836   3.167   6.038  3.8703 -0.4039 -0.3647
  851MOL0     H14870  10.782   3.102   6.260  0.0144 -0.3795 -1.2436
  851MOL0     H14871  10.802   3.150   6.682  1.0263 -0.1356  1.9626
  851MOL0     H14872  10.750   3.120   6.914  0.2348  0.0774 -0.5361
  851MOL0     H14873  10.380   2.959   7.002 -1.0035  0.2736  1.2448
  851MOL0     H14874  10.326   3.130   7.023  2.4575  1.7616 -1.7578
  851MOL0     H14875  10.298   3.041   7.237  0.1770 -0.1414  0.5049
  851MOL0     H14876  10.457   3.114   7.255 -0.5520  0.4839  0.6836
  851MOL0     H14877  10.549   2.888   7.193  0.3841 -0.6156 -0.0182
  851MOL0     H14878  10.382   2.820   7.222 -1.7388  0.4383  1.7420
  851MOL0     H14879  10.530   2.781   7.408  1.7615 -0.3902 -2.2598
  851MOL0     H14880  10.575   2.942   7.424 -0.2178  1.2442 -1.4839
  851MOL0     H14881  10.183   2.949   7.605  0.6440  1.0249 -1.7638
  851MOL0     H14882  10.334   3.152   6.818  0.3449  0.8159  0.4857
  851MOL0     H14883  10.230   3.183   6.616 -1.0671 -0.7282 -1.1284
  851MOL0     H14884  10.332   3.301   6.535  2.5855  0.3947  1.2524
  851MOL0     H14885  10.329   3.130   6.482 -3.7462 -1.6367  0.3353
  852MOL0     O14886  10.365   4.086   0.379 -0.1470 -0.1227  0.1024
  852MOL0     C14887  10.415   4.195   0.363  0.0905  1.6559  0.5467
  852MOL0     O14888  10.519   4.243   0.443  0.0258 -0.5000  0.2077
  852MOL0     C14889  10.531   4.179   0.557 -1.2992 -0.4617 -0.8613
  852MOL0     C14890  10.635   4.080   0.550  0.7208  0.0554 -0.1875
  852MOL0     C14891  10.670   4.010   0.665 -0.3523 -0.2133 -0.3883
  852MOL0     C14892  10.600   4.035   0.785  0.6470  0.4278 -0.1195
  852MOL0     O14893  10.625   3.979   0.908  0.0622 -0.1024  0.4449
  852MOL0     C14894  10.733   3.883   0.922  0.8541  0.5127  0.2062
  852MOL0     C14895  10.737   3.817   1.049 -0.3928 -0.1256 -0.7632
  852MOL0     C14896  10.863   3.730   1.072  0.6892  0.6183  0.1890
  852MOL0     C14897  10.876   3.679   1.215  0.6404  0.8381  0.3256
  852MOL0     C14898  10.807   3.547   1.226  0.5420 -1.2242 -0.1741
  852MOL0     C14899  10.833   3.488   1.374  0.1895  0.1957  0.9389
  852MOL0     C14900  10.758   3.361   1.388  0.1145 -0.7253 -0.0424
  852MOL0     C14901  10.736   3.329   1.536 -0.5332  0.9022  0.2105
  852MOL0     N14902  10.862   3.305   1.606  0.6371  0.1836  0.2269
  852MOL0     C14903  10.952   3.195   1.603  0.2248 -0.0324  0.0421
  852MOL0     C14904  11.033   3.219   1.706  0.1390 -0.4406 -0.1590
  852MOL0     C14905  11.128   3.137   1.778 -0.4230  0.2075  0.6046
  852MOL0     C14906  11.158   3.011   1.698 -0.2147 -0.3553 -0.2626
  852MOL0     C14907  11.241   2.905   1.779  0.6751  0.1476 -0.7030
  852MOL0     C14908  11.384   2.955   1.811  0.5202  0.5727  0.1558
  852MOL0     O14909  11.477   2.854   1.858  1.3793 -0.4536  0.1451
  852MOL0     C14910  11.434   2.745   1.920  1.1469  0.3326 -0.4630
  852MOL0     C14911  11.466   2.620   1.871 -0.3423  0.3133  0.2029
  852MOL0     C14912  11.414   2.509   1.932  0.6325  0.0852 -0.2647
  852MOL0     C14913  11.319   2.512   2.040 -0.0690 -0.5627 -0.2625
  852MOL0     C14914  11.255   2.395   2.089 -0.3010  0.7283 -0.8159
  852MOL0     O14915  11.171   2.398   2.195 -0.1130  0.8212 -0.5664
  852MOL0     C14916  11.072   2.302   2.201  0.6532 -1.3311 -0.1088
  852MOL0     C14917  11.091   2.169   2.228  0.0407 -0.5500 -0.0630
  852MOL0     C14918  10.977   2.083   2.245 -0.4349 -0.3088  0.1361
  852MOL0     C14919  10.843   2.131   2.230  0.0248 -0.5856 -0.1953
  852MOL0     O14920  10.730   2.055   2.251 -0.8504 -0.2512  0.0941
  852MOL0     C14921  10.741   1.915   2.234  0.2413 -0.1120  0.1981
  852MOL0     C14922  10.664   1.887   2.103 -0.3521 -0.3251 -0.5648
  852MOL0     C14923  10.698   1.964   1.979  0.0722 -1.6153 -0.4285
  852MOL0     C14924  10.826   1.913   1.914 -0.0819 -0.0395  0.7704
  852MOL0     C14925  10.878   2.008   1.810 -0.1027  1.2730  0.4879
  852MOL0     C14926  10.933   2.131   1.869  0.2296 -0.2402  0.1227
  852MOL0     C14927  10.937   2.242   1.761 -0.7967  0.0628  0.2944
  852MOL0     C14928  11.034   2.352   1.806  0.0876  0.3973  0.6037
  852MOL0    Cl14929  11.066   2.481   1.697  0.1201  0.3374 -0.1155
  852MOL0     C14930  10.827   2.266   2.218 -0.3626 -1.0887  1.0350
  852MOL0     C14931  10.937   2.343   2.196 -0.4645 -0.1173 -0.0923
  852MOL0     O14932  11.280   2.293   2.026  0.0020  0.2830  0.8162
  852MOL0     C14933  11.281   2.642   2.094 -0.0304 -1.4488  0.9337
  852MOL0     C14934  11.341   2.761   2.033 -0.7902  0.1455  0.4361
  852MOL0     N14935  11.011   3.340   1.759 -0.4466 -0.2217  0.9989
  852MOL0     N14936  10.909   3.397   1.697 -0.4855 -1.4020  0.0230
  852MOL0     C14937  10.495   4.119   0.791 -0.3506  0.0467 -1.1486
  852MOL0     C14938  10.452   4.191   0.667 -0.3953  0.4801  0.5683
  852MOL0     C14939  10.369   4.278   0.263  0.2807  0.1899  1.0796
  852MOL0     C14940  10.333   4.393   0.308  0.2040 -1.1796 -0.7842
  852MOL0     C14941  10.288   4.496   0.224 -0.2337 -0.4442 -0.0976
  852MOL0     C14942  10.268   4.469   0.088  0.2812 -0.0343  0.7071
  852MOL0     O14943  10.235   4.563  -0.006 -0.2487  0.0292 -0.0136
  852MOL0     C14944  10.098   4.586  -0.027 -0.7853  0.7875 -0.5675
  852MOL0     C14945  10.053   4.486  -0.137 -0.6735  0.2765 -0.6444
  852MOL0     C14946  10.078   4.550  -0.279 -0.1312 -0.3748 -0.7452
  852MOL0     C14947  10.019   4.462  -0.394 -0.0962 -1.2718  0.6430
  852MOL0     C14948  10.105   4.466  -0.506 -0.0479 -0.8762  0.2867
  852MOL0     C14949  10.173   4.482  -0.600 -1.0470 -0.1744  0.2836
  852MOL0     C14950  10.320   4.350   0.035  0.6032 -0.0286 -0.7391
  852MOL0     C14951  10.367   4.252   0.126  0.6350 -0.8106 -0.9067
  852MOL0     C14952  10.428   4.127   0.073  0.5480  0.3373 -0.0584
  852MOL0     H14953  10.701   4.071   0.465 -0.8999 -1.2321 -1.3899
  852MOL0     H14954  10.747   3.934   0.665  0.4954  0.5547  1.7893
  852MOL0     H14955  10.724   3.812   0.840  3.3327  2.9799 -2.4228
  852MOL0     H14956  10.826   3.938   0.907  1.1004 -0.3618 -1.8143
  852MOL0     H14957  10.654   3.746   1.050  0.0005 -0.6333  1.2247
  852MOL0     H14958  10.720   3.884   1.134 -3.8041 -1.7258 -0.0461
  852MOL0     H14959  10.943   3.804   1.055  0.6174  0.7775  0.5381
  852MOL0     H14960  10.861   3.653   0.995  1.6321  3.1206 -2.5251
  852MOL0     H14961  10.983   3.657   1.223  0.4782 -1.5277 -2.4437
  852MOL0     H14962  10.843   3.755   1.286  0.0535 -0.9389  2.0756
  852MOL0     H14963  10.702   3.542   1.198  1.3975 -1.2721 -3.9166
  852MOL0     H14964  10.852   3.477   1.154 -1.4766 -0.3285 -2.4448
  852MOL0     H14965  10.940   3.474   1.393  0.5762  0.5807 -0.7863
  852MOL0     H14966  10.793   3.559   1.448 -1.2968 -0.2251  0.5749
  852MOL0     H14967  10.811   3.278   1.342 -0.6535 -0.8655 -0.7022
  852MOL0     H14968  10.660   3.370   1.340  0.4900  1.1223 -0.5537
  852MOL0     H14969  10.671   3.399   1.589 -1.9866 -1.1308  1.2482
  852MOL0     H14970  10.679   3.236   1.533  1.5463 -0.4197 -0.6808
  852MOL0     H14971  10.930   3.100   1.554 -0.6656 -0.3135  0.9548
  852MOL0     H14972  11.224   3.186   1.795 -0.0400 -0.2452 -0.2399
  852MOL0     H14973  11.093   3.106   1.877  0.6744  0.9444  1.2406
  852MOL0     H14974  11.068   2.956   1.667 -1.5144  1.2476  0.4879
  852MOL0     H14975  11.210   3.041   1.607 -1.6664 -1.8425 -1.6696
  852MOL0     H14976  11.234   2.812   1.720 -3.3087 -1.3156  1.6502
  852MOL0     H14977  11.195   2.884   1.876  0.2197 -0.9144 -1.1270
  852MOL0     H14978  11.384   3.035   1.887  1.9787  0.9895 -0.2526
  852MOL0     H14979  11.416   3.000   1.717 -0.5910  0.1463 -0.4438
  852MOL0     H14980  11.534   2.619   1.786 -2.0467  1.3717 -1.2395
  852MOL0     H14981  11.454   2.416   1.893 -1.6077 -0.8048 -0.5805
  852MOL0     H14982  11.191   2.129   2.242  0.7544  1.6140  1.6483
  852MOL0     H14983  10.998   1.977   2.260 -1.4751 -0.4340  0.8090
  852MOL0     H14984  10.842   1.877   2.220 -0.0310 -0.0680 -2.2354
  852MOL0     H14985  10.686   1.855   2.307 -1.7318 -1.7184 -2.4555
  852MOL0     H14986  10.687   1.782   2.086  0.3341 -0.8963  3.2145
  852MOL0     H14987  10.558   1.898   2.126 -0.4201 -0.5038 -0.7848
  852MOL0     H14988  10.615   1.940   1.911 -1.2804 -1.1661  0.9879
  852MOL0     H14989  10.706   2.073   1.978  1.2358 -1.6368 -3.5558
  852MOL0     H14990  10.811   1.813   1.873 -0.1682  0.0094  0.6811
  852MOL0     H14991  10.905   1.906   1.989  0.4614  1.0576  0.3109
  852MOL0     H14992  10.807   2.022   1.728  0.6712 -0.1711 -0.4679
  852MOL0     H14993  10.967   1.966   1.763  1.2988  1.4282  2.8272
  852MOL0     H14994  10.880   2.161   1.960  3.2387 -0.1601  1.9821
  852MOL0     H14995  11.036   2.121   1.904  0.6101 -0.2612 -0.9820
  852MOL0     H14996  10.838   2.285   1.743  0.5455  3.3427 -0.0095
  852MOL0     H14997  10.985   2.198   1.673  0.2730  0.9389  0.4220
  852MOL0     H14998  10.992   2.386   1.901  0.9983  2.4590  0.3187
  852MOL0     H14999  11.127   2.304   1.835 -0.5092 -1.0087  0.3167
  852MOL0     H15000  10.734   2.322   2.214 -0.0679 -0.6148  0.7663
  852MOL0     H15001  10.905   2.444   2.173 -0.4037 -0.6081 -2.5317
  852MOL0     H15002  11.206   2.656   2.170 -3.1608  0.5058 -2.1892
  852MOL0     H15003  11.329   2.859   2.078  1.6627 -0.0967  1.7704
  852MOL0     H15004  10.443   4.138   0.885  2.2576  2.9562 -0.1251
  852MOL0     H15005  10.364   4.255   0.665 -0.9899 -0.3253  0.4277
  852MOL0     H15006  10.332   4.416   0.414 -0.1676  1.6170 -1.3056
  852MOL0     H15007  10.251   4.582   0.279 -0.3970 -1.1073  0.8469
  852MOL0     H15008  10.081   4.687  -0.066  1.1419  0.9339 -1.0984
  852MOL0     H15009  10.045   4.571   0.068  0.3748  3.9785  0.7069
  852MOL0     H15010   9.948   4.466  -0.116  0.1220 -1.2795  2.4707
  852MOL0     H15011  10.100   4.388  -0.124 -0.6876  0.6884  4.5252
  852MOL0     H15012  10.186   4.554  -0.294 -0.1674 -2.7459 -2.1069
  852MOL0     H15013  10.043   4.652  -0.297 -2.5138 -1.1337 -0.6810
  852MOL0     H15014  10.012   4.357  -0.365  0.6039 -0.9331  2.0953
  852MOL0     H15015   9.923   4.501  -0.430  1.3824 -0.9685 -3.4337
  852MOL0     H15016  10.239   4.501  -0.683 -1.9042 -2.4242 -0.9926
  852MOL0     H15017  10.311   4.335  -0.072  3.5773  0.2890 -1.1212
  852MOL0     H15018  10.357   4.047   0.097 -1.4314  1.4178 -1.9464
  852MOL0     H15019  10.452   4.137  -0.034 -0.0563 -1.2206 -0.3773
  852MOL0     H15020  10.520   4.108   0.129  1.0262  1.8610 -0.3009
  853MOL0     O15021   1.977   8.835  10.095 -0.2064  0.7844  0.2364
  853MOL0     C15022   1.987   8.885   9.983 -0.1554 -1.0775  0.1876
  853MOL0     O15023   1.942   8.823   9.871 -0.4558 -0.0656  0.1429
  853MOL0     C15024   1.875   8.707   9.885  0.4479 -0.3150  1.1642
  853MOL0     C15025   1.940   8.579   9.882  0.5983  0.7326 -0.5022
  853MOL0     C15026   1.871   8.463   9.918  0.2147 -0.9942  0.0478
  853MOL0     C15027   1.737   8.471   9.951  0.7354 -0.0187  0.0053
  853MOL0     O15028   1.675   8.354   9.991  0.5651  0.4885  0.0451
  853MOL0     C15029   1.534   8.349   9.947  0.1434 -0.7362 -1.1554
  853MOL0     C15030   1.445   8.386  10.076 -0.2076 -0.3942  0.4376
  853MOL0     C15031   1.473   8.307  10.203  1.0405 -0.2330 -0.4378
  853MOL0     C15032   1.507   8.161  10.180  0.1757  0.4452  0.0407
  853MOL0     C15033   1.542   8.091  10.317 -0.2026  0.3237 -0.5189
  853MOL0     C15034   1.550   7.941  10.296 -1.4488 -0.2114 -0.1193
  853MOL0     C15035   1.560   7.871  10.429  1.1344 -0.0998 -0.0123
  853MOL0     C15036   1.555   7.720  10.417  0.8549 -0.4125 -0.0613
  853MOL0     N15037   1.610   7.640  10.522 -0.6109 -0.7434  0.2587
  853MOL0     C15038   1.740   7.584  10.510 -0.0107 -0.6671 -0.3572
  853MOL0     C15039   1.753   7.506  10.614  0.5012 -0.2290  0.5078
  853MOL0     C15040   1.872   7.418  10.646  0.5854  0.5526  0.3104
  853MOL0     C15041   1.859   7.299  10.543  0.0360  0.8262  0.1161
  853MOL0     C15042   1.960   7.181  10.561 -0.5659  0.7664  0.2808
  853MOL0     C15043   2.108   7.226  10.602  0.0680  0.2274  0.3592
  853MOL0     O15044   2.110   7.286  10.736 -0.7163  0.1354  0.3184
  853MOL0     C15045   2.224   7.250  10.806  0.7948  0.1452 -0.9101
  853MOL0     C15046   2.337   7.322  10.835  0.1172 -0.1314  0.8813
  853MOL0     C15047   2.431   7.261  10.921 -0.0822  0.4434 -0.3757
  853MOL0     C15048   2.421   7.131  10.974  0.2061  0.3540 -0.4041
  853MOL0     C15049   2.527   7.072  11.059 -0.1171  0.0122  0.0584
  853MOL0     O15050   2.528   6.945  11.079  0.0664 -0.1412 -0.6640
  853MOL0     C15051   2.631   6.898  11.162 -0.4746 -0.4587  0.0906
  853MOL0     C15052   2.619   6.864  11.301  0.3052 -0.1376  0.3602
  853MOL0     C15053   2.719   6.814  11.385 -1.1655 -0.1132  0.4611
  853MOL0     C15054   2.846   6.780  11.322 -0.5982  0.2437 -0.3796
  853MOL0     O15055   2.954   6.727  11.384 -0.1242  0.7000  0.1953
  853MOL0     C15056   2.917   6.615  11.473  0.5215  0.2478  0.6258
  853MOL0     C15057   3.048   6.553  11.515  0.8449 -0.0687  0.5066
  853MOL0     C15058   3.004   6.450  11.626  0.3625  0.2378 -0.5644
  853MOL0     C15059   3.118   6.365  11.668 -0.3576  0.5388  0.6807
  853MOL0     C15060   3.101   6.302  11.808 -1.1721 -0.2851  0.3901
  853MOL0     C15061   3.245   6.276  11.865 -0.0122 -0.0997  0.1219
  853MOL0     C15062   3.323   6.165  11.800  0.7391  1.0469  0.6909
  853MOL0     C15063   3.459   6.153  11.865  0.1270  0.6616  0.6379
  853MOL0    Cl15064   3.553   6.299  11.799 -0.7724 -0.1524 -0.2806
  853MOL0     C15065   2.865   6.834  11.194 -0.2386  0.4217 -1.1097
  853MOL0     C15066   2.760   6.879  11.109 -0.6483  0.2092  0.0980
  853MOL0     O15067   2.608   7.154  11.109 -0.3585 -0.6492 -0.3886
  853MOL0     C15068   2.299   7.059  10.937 -0.5536  0.2696 -0.1055
  853MOL0     C15069   2.202   7.125  10.870  0.7361 -0.0288 -0.4231
  853MOL0     N15070   1.640   7.532  10.694  0.2899 -0.1191  0.0246
  853MOL0     N15071   1.552   7.618  10.644 -0.0918  0.4232  0.7192
  853MOL0     C15072   1.676   8.595   9.964  0.7717  0.1947 -0.0966
  853MOL0     C15073   1.748   8.712   9.935  0.3870  0.3990 -0.2198
  853MOL0     C15074   2.062   9.017   9.970 -0.2188 -0.1715 -0.0387
  853MOL0     C15075   2.143   9.030   9.858 -0.2006 -0.7912  0.7452
  853MOL0     C15076   2.233   9.138   9.847  0.2126  0.2851  1.1786
  853MOL0     C15077   2.225   9.242   9.937 -0.1791  0.2899  0.3589
  853MOL0     O15078   2.289   9.353   9.911 -0.2426 -0.3454  0.3257
  853MOL0     C15079   2.211   9.434   9.820  0.5790 -0.3655  0.1368
  853MOL0     C15080   2.300   9.533   9.740  1.1631  0.1625 -0.3724
  853MOL0     C15081   2.397   9.452   9.653 -0.2627  0.0117  0.0242
  853MOL0     C15082   2.470   9.538   9.538  0.8301 -0.5637  0.1231
  853MOL0     C15083   2.524   9.669   9.581 -0.9044 -0.0563  1.0971
  853MOL0     C15084   2.582   9.776   9.614  0.6586  0.9141  0.7389
  853MOL0     C15085   2.147   9.230  10.051 -0.5074  0.1756 -0.3765
  853MOL0     C15086   2.063   9.118  10.065  1.3263 -0.7879 -0.3481
  853MOL0     C15087   1.967   9.104  10.189  0.0561 -0.1821 -0.1867
  853MOL0     H15088   2.047   8.567   9.869  0.8823 -0.5320  2.2580
  853MOL0     H15089   1.938   8.379   9.937 -2.4851 -3.3169 -0.0368
  853MOL0     H15090   1.523   8.415   9.861  2.8184 -0.8725 -1.6849
  853MOL0     H15091   1.507   8.247   9.918 -0.1615 -0.5805 -1.4229
  853MOL0     H15092   1.344   8.379  10.035  0.3407 -1.9263 -0.7565
  853MOL0     H15093   1.467   8.489  10.106  1.6728 -0.5984 -0.0893
  853MOL0     H15094   1.388   8.311  10.272  0.1677 -0.0014 -1.4940
  853MOL0     H15095   1.554   8.363  10.251 -0.6994  1.9614  0.1113
  853MOL0     H15096   1.425   8.109  10.130 -0.1932  2.3045 -1.4122
  853MOL0     H15097   1.587   8.152  10.106  2.5157 -1.3443  2.6165
  853MOL0     H15098   1.639   8.126  10.354 -1.0108  2.0226  0.1313
  853MOL0     H15099   1.472   8.114  10.398  0.8530  1.8696  0.0034
  853MOL0     H15100   1.466   7.909  10.233  0.1960 -2.1617 -1.4338
  853MOL0     H15101   1.640   7.908  10.244 -2.5427 -0.0632 -2.2505
  853MOL0     H15102   1.480   7.909  10.493  0.8615 -0.2801 -0.2452
  853MOL0     H15103   1.653   7.893  10.483  0.3980  2.5011  0.3459
  853MOL0     H15104   1.449   7.692  10.423  1.1493 -1.3028  1.6712
  853MOL0     H15105   1.602   7.684  10.325  0.9576 -0.7771  0.1304
  853MOL0     H15106   1.806   7.594  10.424 -2.8070  1.0310 -2.5105
  853MOL0     H15107   1.967   7.472  10.638  1.2854 -0.1962  2.7629
  853MOL0     H15108   1.855   7.367  10.741 -2.1583  0.5135 -0.1272
  853MOL0     H15109   1.764   7.245  10.554 -0.0652  0.7235 -1.0947
  853MOL0     H15110   1.861   7.330  10.438  1.0768 -0.3041 -0.2204
  853MOL0     H15111   1.962   7.121  10.471 -3.7912  1.4598 -0.3705
  853MOL0     H15112   1.921   7.108  10.632 -0.4728 -1.6939 -2.0562
  853MOL0     H15113   2.143   7.303  10.533 -1.6190  1.6082  0.9936
  853MOL0     H15114   2.180   7.145  10.584 -1.3737 -1.5632  2.1549
  853MOL0     H15115   2.352   7.424  10.804  2.5438 -1.1173 -1.6201
  853MOL0     H15116   2.527   7.300  10.955  0.0127 -0.7296  0.7759
  853MOL0     H15117   2.518   6.873  11.339 -0.3036 -4.2047  0.1452
  853MOL0     H15118   2.706   6.803  11.492  0.9268 -1.5916  0.6311
  853MOL0     H15119   2.875   6.656  11.565 -2.3372 -1.3077  0.1140
  853MOL0     H15120   2.859   6.535  11.427 -0.2027  1.6054 -0.9338
  853MOL0     H15121   3.081   6.494  11.429  0.3630  1.8123 -1.0360
  853MOL0     H15122   3.124   6.626  11.546  0.3418  0.2439  1.0201
  853MOL0     H15123   2.977   6.510  11.713  2.5737  0.7342 -0.1596
  853MOL0     H15124   2.923   6.382  11.596  1.4925 -1.6663  0.5190
  853MOL0     H15125   3.212   6.421  11.661 -1.4478  2.2418 -1.6427
  853MOL0     H15126   3.119   6.288  11.590 -4.0208  0.5982  0.3799
  853MOL0     H15127   3.043   6.209  11.800 -2.6826  0.4733  1.8517
  853MOL0     H15128   3.057   6.373  11.879  2.1141 -0.1854  2.5030
  853MOL0     H15129   3.300   6.366  11.837  0.6252 -1.3639 -3.1909
  853MOL0     H15130   3.242   6.273  11.974  1.2514  5.0707  0.5177
  853MOL0     H15131   3.334   6.181  11.692 -4.3484  2.5488  0.1229
  853MOL0     H15132   3.261   6.076  11.813  0.9073  0.3705 -2.3507
  853MOL0     H15133   3.444   6.153  11.973 -1.1407 -2.8708  0.5696
  853MOL0     H15134   3.509   6.059  11.842  2.3243  2.2522 -1.7488
  853MOL0     H15135   2.964   6.802  11.162  0.2628  0.4375  0.3786
  853MOL0     H15136   2.769   6.895  11.002 -0.8646  2.2666  0.3520
  853MOL0     H15137   2.282   6.955  10.964 -1.4969 -0.2861 -2.6029
  853MOL0     H15138   2.112   7.069  10.847 -1.4318  0.5488  5.1718
  853MOL0     H15139   1.577   8.611  10.006 -0.2181 -1.1954 -1.7648
  853MOL0     H15140   1.706   8.809   9.957  0.5709 -0.2244  3.5579
  853MOL0     H15141   2.158   8.960   9.777  2.2217 -0.2033  0.5866
  853MOL0     H15142   2.297   9.146   9.760  0.7686 -3.3278  1.0849
  853MOL0     H15143   2.146   9.491   9.888  1.7112  1.3088 -0.1395
  853MOL0     H15144   2.148   9.382   9.747  0.2065  0.9932 -0.5411
  853MOL0     H15145   2.351   9.607   9.803 -1.2575  0.4642  1.3410
  853MOL0     H15146   2.235   9.598   9.680 -0.5439  0.5584  1.7657
  853MOL0     H15147   2.361   9.355   9.617  4.0469 -1.6972 -0.3832
  853MOL0     H15148   2.480   9.422   9.718 -1.0866  1.7081  1.9603
  853MOL0     H15149   2.557   9.484   9.499  0.2629 -1.0434 -0.4879
  853MOL0     H15150   2.394   9.555   9.462  2.7418 -1.1428 -2.0266
  853MOL0     H15151   2.638   9.856   9.658  2.1042  0.4146 -0.1111
  853MOL0     H15152   2.158   9.310  10.123 -1.6356 -1.0694  1.2750
  853MOL0     H15153   2.005   9.030  10.261 -0.5788 -1.0696 -0.7403
  853MOL0     H15154   1.947   9.195  10.246  1.1846 -1.0582  1.7001
  853MOL0     H15155   1.869   9.067  10.155  0.7065  0.6310 -3.1744
  854MOL0     O15156   8.017   8.509   0.406 -0.6256  0.2790  0.2159
  854MOL0     C15157   8.052   8.395   0.369 -0.2645 -0.9776  0.2690
  854MOL0     O15158   8.067   8.286   0.453  0.0202  0.4962  0.2154
  854MOL0     C15159   8.009   8.294   0.576  0.3120 -0.3202 -0.2705
  854MOL0     C15160   7.873   8.277   0.581 -0.1682 -0.7772 -0.1000
  854MOL0     C15161   7.813   8.274   0.704  0.2109  0.6620 -1.6555
  854MOL0     C15162   7.881   8.296   0.821  0.1558  0.0324 -0.9165
  854MOL0     O15163   7.814   8.294   0.948 -0.2554 -0.7166  0.9776
  854MOL0     C15164   7.839   8.188   1.036 -1.2155 -0.6486  0.1214
  854MOL0     C15165   7.790   8.221   1.176  1.0513 -0.1591  0.1156
  854MOL0     C15166   7.657   8.307   1.160  0.4358  0.4539  0.2759
  854MOL0     C15167   7.573   8.320   1.294 -0.1212  0.0769 -0.1024
  854MOL0     C15168   7.520   8.185   1.370 -0.1223 -0.7957  0.4813
  854MOL0     C15169   7.449   8.097   1.269  0.2519  0.4160  0.9631
  854MOL0     C15170   7.388   7.968   1.332  0.5290  0.5676  0.7811
  854MOL0     C15171   7.311   7.887   1.235 -0.0275  0.0948  0.9448
  854MOL0     N15172   7.404   7.814   1.144  0.1917  0.3809 -0.2676
  854MOL0     C15173   7.354   7.724   1.044 -0.5592  0.1905 -1.5443
  854MOL0     C15174   7.468   7.682   0.972 -0.3051 -0.1746  0.1674
  854MOL0     C15175   7.479   7.557   0.896  0.0351  1.0517 -0.3532
  854MOL0     C15176   7.586   7.541   0.799 -0.3443  0.0737  0.6936
  854MOL0     C15177   7.571   7.416   0.713  0.2869 -0.5487 -0.1117
  854MOL0     C15178   7.473   7.421   0.595  0.4776 -0.2506  0.3693
  854MOL0     O15179   7.505   7.532   0.508  0.4958 -0.2411  0.0427
  854MOL0     C15180   7.430   7.538   0.392 -0.3430  0.1290  1.5729
  854MOL0     C15181   7.318   7.460   0.364 -0.7974  0.5764 -0.4292
  854MOL0     C15182   7.252   7.477   0.243 -0.9889  0.0727 -0.3181
  854MOL0     C15183   7.288   7.580   0.146  0.0004  0.3578  0.3321
  854MOL0     C15184   7.210   7.594   0.023  0.6234  0.5200  1.5287
  854MOL0     O15185   7.086   7.534   0.017  0.1824  0.8677  0.2038
  854MOL0     C15186   7.012   7.514  -0.102  0.0220 -0.1174 -0.6414
  854MOL0     C15187   6.905   7.431  -0.088 -0.7189  0.7184 -0.3643
  854MOL0     C15188   6.813   7.404  -0.191  0.5137 -0.5940 -0.4660
  854MOL0     C15189   6.834   7.466  -0.320  0.5499 -0.6422 -0.7098
  854MOL0     O15190   6.732   7.440  -0.408 -0.4312  0.1992  0.0249
  854MOL0     C15191   6.660   7.546  -0.465  0.9575 -0.1714 -0.2524
  854MOL0     C15192   6.583   7.490  -0.590 -0.1788  0.3638 -0.4217
  854MOL0     C15193   6.549   7.610  -0.683 -0.4545 -0.2063  0.0867
  854MOL0     C15194   6.455   7.559  -0.801  0.3699  0.5378 -0.0995
  854MOL0     C15195   6.396   7.677  -0.892  0.5506 -0.7325 -0.3848
  854MOL0     C15196   6.325   7.632  -1.021 -0.2334  0.1693 -0.5121
  854MOL0     C15197   6.369   7.709  -1.148 -0.3326 -1.3748 -0.4795
  854MOL0     C15198   6.403   7.613  -1.259 -0.4550 -1.1356  0.4273
  854MOL0    Cl15199   6.578   7.536  -1.249  0.0881 -0.3507  0.1353
  854MOL0     C15200   6.935   7.563  -0.339  0.2834  0.1945 -0.0170
  854MOL0     C15201   7.023   7.582  -0.229 -0.9092 -0.1172 -0.1364
  854MOL0     O15202   7.259   7.654  -0.068  0.3161 -0.4048  0.0989
  854MOL0     C15203   7.400   7.661   0.184  0.5182  0.7364 -0.0237
  854MOL0     C15204   7.470   7.638   0.296  0.7857  0.4354 -0.7856
  854MOL0     N15205   7.574   7.757   1.021 -0.5205  0.1582  0.2245
  854MOL0     N15206   7.530   7.841   1.115 -0.2214  0.0266 -0.5647
  854MOL0     C15207   8.012   8.335   0.807 -0.2694  0.1414 -0.1352
  854MOL0     C15208   8.078   8.326   0.687  0.3233 -0.2837 -0.1066
  854MOL0     C15209   8.108   8.384   0.233 -0.3747 -0.2344  0.2205
  854MOL0     C15210   8.227   8.314   0.228  0.0775  0.9181  0.2662
  854MOL0     C15211   8.302   8.315   0.109 -1.4032  0.1747  0.9246
  854MOL0     C15212   8.267   8.376  -0.007  0.5309  0.6135  0.1650
  854MOL0     O15213   8.340   8.355  -0.118 -0.2945  0.2909  0.0756
  854MOL0     C15214   8.307   8.430  -0.239  0.7823  0.1346  0.2389
  854MOL0     C15215   8.424   8.430  -0.335  1.1277 -0.7726 -0.0697
  854MOL0     C15216   8.565   8.413  -0.267  0.6889  0.3710  0.0472
  854MOL0     C15217   8.684   8.424  -0.367 -0.7832  0.1060 -0.2051
  854MOL0     C15218   8.702   8.309  -0.466  1.0240  0.1480 -0.5759
  854MOL0     C15219   8.718   8.208  -0.535 -0.2209 -0.3797  0.4736
  854MOL0     C15220   8.147   8.449  -0.005  0.3925  0.0346 -0.4651
  854MOL0     C15221   8.065   8.444   0.109 -0.1404 -0.4531 -0.1320
  854MOL0     C15222   7.921   8.490   0.104  0.5318 -0.1371 -0.2207
  854MOL0     H15223   7.831   8.246   0.486  0.0789 -1.5709  0.0437
  854MOL0     H15224   7.708   8.247   0.701 -0.0660  1.5940 -0.7294
  854MOL0     H15225   7.804   8.093   0.994  0.8801 -0.8411 -1.3909
  854MOL0     H15226   7.949   8.183   1.037 -0.7984  3.6806  2.8334
  854MOL0     H15227   7.871   8.278   1.221 -0.9071  1.1176  2.2428
  854MOL0     H15228   7.759   8.125   1.219 -2.6593 -0.4753 -2.7723
  854MOL0     H15229   7.591   8.269   1.082  1.3741  3.7914 -2.4113
  854MOL0     H15230   7.689   8.409   1.136 -1.4942  1.3132  1.1615
  854MOL0     H15231   7.623   8.376   1.373 -1.2292  0.8437  0.0838
  854MOL0     H15232   7.491   8.386   1.266 -3.1774 -2.6266  1.6384
  854MOL0     H15233   7.602   8.127   1.414  3.7967  4.3887  1.0172
  854MOL0     H15234   7.454   8.215   1.451  1.1418  1.4019  0.7763
  854MOL0     H15235   7.376   8.164   1.223  2.5825  1.6443 -1.1371
  854MOL0     H15236   7.530   8.081   1.198 -0.0155 -1.4299  1.0041
  854MOL0     H15237   7.306   8.000   1.398 -6.2021  0.6019 -6.1809
  854MOL0     H15238   7.452   7.914   1.402 -0.0906  1.0698  1.7602
  854MOL0     H15239   7.252   7.810   1.286 -0.7997 -0.5974 -0.9069
  854MOL0     H15240   7.248   7.955   1.176  3.5248  0.9016 -2.3217
  854MOL0     H15241   7.256   7.678   1.053 -0.4997  0.2933 -0.1070
  854MOL0     H15242   7.481   7.480   0.974  1.3799  0.7043 -0.7116
  854MOL0     H15243   7.389   7.541   0.836 -0.5490 -1.8521  1.1023
  854MOL0     H15244   7.601   7.627   0.733 -1.7372 -0.8214 -0.8611
  854MOL0     H15245   7.682   7.539   0.851  1.0169  2.9891 -1.4673
  854MOL0     H15246   7.549   7.330   0.777  3.6401 -3.3362 -2.3285
  854MOL0     H15247   7.666   7.390   0.665 -0.3565 -0.2128 -1.6438
  854MOL0     H15248   7.372   7.430   0.636 -0.1227  0.7831 -1.2701
  854MOL0     H15249   7.478   7.326   0.541 -2.6872  0.7418 -1.9737
  854MOL0     H15250   7.287   7.387   0.438  1.5501 -0.6272 -0.5354
  854MOL0     H15251   7.166   7.414   0.225  1.3819 -3.5824  0.0599
  854MOL0     H15252   6.884   7.378   0.004 -1.3333  1.0124 -0.3327
  854MOL0     H15253   6.732   7.332  -0.180  0.1907 -0.3817 -1.3811
  854MOL0     H15254   6.598   7.597  -0.391 -5.1335 -2.9015 -2.8170
  854MOL0     H15255   6.727   7.623  -0.504  2.3361 -2.8151 -3.5621
  854MOL0     H15256   6.653   7.418  -0.633  0.2476 -1.3019  2.7827
  854MOL0     H15257   6.494   7.437  -0.556 -0.8267 -0.0348 -2.5810
  854MOL0     H15258   6.493   7.681  -0.622 -0.5668  0.9787 -1.3205
  854MOL0     H15259   6.630   7.676  -0.716  1.4195 -1.4266  2.0274
  854MOL0     H15260   6.377   7.494  -0.759  0.9932 -0.2754 -0.1981
  854MOL0     H15261   6.512   7.501  -0.874  0.2893  0.3612 -0.0217
  854MOL0     H15262   6.483   7.736  -0.923  1.0449  0.0729  2.2949
  854MOL0     H15263   6.321   7.729  -0.831  0.3485  1.3684 -2.2600
  854MOL0     H15264   6.344   7.524  -1.024 -2.1441 -0.3352  2.4757
  854MOL0     H15265   6.216   7.645  -1.019 -0.1495  0.8301  0.2646
  854MOL0     H15266   6.460   7.767  -1.133  1.1017 -3.2666 -1.3705
  854MOL0     H15267   6.287   7.775  -1.177  1.2207  0.9007  0.0920
  854MOL0     H15268   6.322   7.540  -1.248 -1.5395  0.1028  1.0722
  854MOL0     H15269   6.386   7.660  -1.357  1.0437 -1.4057  0.0236
  854MOL0     H15270   6.945   7.614  -0.434  2.0945  0.8699  0.4976
  854MOL0     H15271   7.096   7.660  -0.247 -0.9692 -0.1960 -0.7557
  854MOL0     H15272   7.430   7.751   0.131  1.6013  1.1899  1.3249
  854MOL0     H15273   7.560   7.689   0.328  2.7328 -2.4442 -1.2568
  854MOL0     H15274   8.058   8.364   0.901 -5.3396  1.7546  2.1857
  854MOL0     H15275   8.182   8.355   0.684  1.3480 -3.6011 -2.8249
  854MOL0     H15276   8.260   8.249   0.308  2.2165  1.2622 -0.2762
  854MOL0     H15277   8.397   8.264   0.097 -1.7116 -0.0770 -0.6036
  854MOL0     H15278   8.301   8.534  -0.209  2.7247  0.1328  0.7728
  854MOL0     H15279   8.216   8.392  -0.286  1.1799  1.0334 -1.3249
  854MOL0     H15280   8.420   8.523  -0.392 -0.4107 -0.0056  1.2136
  854MOL0     H15281   8.409   8.342  -0.400  2.9092 -2.2887  1.4547
  854MOL0     H15282   8.564   8.309  -0.232 -1.8815 -0.3701 -1.8909
  854MOL0     H15283   8.557   8.482  -0.183 -1.5594  2.9748 -2.1304
  854MOL0     H15284   8.680   8.518  -0.423  0.5065  0.5693  0.4244
  854MOL0     H15285   8.767   8.430  -0.295 -1.3815  4.0403  0.4180
  854MOL0     H15286   8.728   8.117  -0.592  3.1343  0.0794  0.1205
  854MOL0     H15287   8.093   8.494  -0.087 -1.4711  0.2373  0.7851
  854MOL0     H15288   7.847   8.419   0.143  0.6453 -0.7288 -1.0535
  854MOL0     H15289   7.901   8.588   0.147  1.1328  0.4372 -1.2195
  854MOL0     H15290   7.895   8.501  -0.001  1.2728  3.1512 -0.1671
  855MOL0     O15291  10.293   4.851  10.697 -0.5971 -0.6534  0.8381
  855MOL0     C15292  10.301   4.915  10.805 -0.0459  0.7762  0.7331
  855MOL0     O15293  10.216   5.006  10.847 -0.0340  0.1671 -0.1923
  855MOL0     C15294  10.151   5.088  10.758 -0.0120 -0.0379  0.3116
  855MOL0     C15295  10.027   5.042  10.708  0.4981  0.0123  0.0244
  855MOL0     C15296   9.961   5.127  10.616  0.5556 -0.4606 -1.0006
  855MOL0     C15297  10.002   5.259  10.588  0.4210  0.0780  0.6551
  855MOL0     O15298   9.920   5.325  10.496 -0.9241 -0.4620  1.3426
  855MOL0     C15299   9.929   5.463  10.467 -0.0525 -0.8105 -0.8478
  855MOL0     C15300  10.020   5.495  10.355 -0.5341 -0.1354  0.1631
  855MOL0     C15301   9.989   5.418  10.220  0.4069  0.6392 -0.2155
  855MOL0     C15302  10.011   5.516  10.102  0.2287 -0.7738  0.3579
  855MOL0     C15303  10.018   5.454   9.961 -0.7107  0.1620  0.5341
  855MOL0     C15304   9.892   5.372   9.925  0.1155  0.9019  0.3978
  855MOL0     C15305   9.920   5.272   9.812 -0.4856  0.1354 -0.2412
  855MOL0     C15306   9.798   5.204   9.774  0.4675  1.0369  1.3127
  855MOL0     N15307   9.816   5.101   9.672  1.4809  0.4524  0.7842
  855MOL0     C15308   9.782   5.109   9.538 -0.4957 -0.3671 -0.4913
  855MOL0     C15309   9.794   4.982   9.487  0.5729  0.2558  0.4725
  855MOL0     C15310   9.761   4.941   9.342  0.3849  0.2394  0.8063
  855MOL0     C15311   9.772   4.798   9.305 -0.5924  0.9519  0.1197
  855MOL0     C15312   9.666   4.709   9.358  0.1024 -0.4934 -0.0427
  855MOL0     C15313   9.528   4.760   9.317 -0.4414 -0.0449  0.1723
  855MOL0     O15314   9.519   4.822   9.186  0.7762  0.2733  1.8257
  855MOL0     C15315   9.521   4.745   9.080  0.1067  0.8123 -0.8915
  855MOL0     C15316   9.463   4.816   8.975 -0.7903  0.6603  0.3063
  855MOL0     C15317   9.443   4.755   8.850  1.0350 -0.6821 -0.4945
  855MOL0     C15318   9.481   4.620   8.829 -0.3390 -0.3614  0.9510
  855MOL0     C15319   9.468   4.554   8.699 -0.1797  0.2512 -0.0266
  855MOL0     O15320   9.479   4.418   8.706  0.0849 -0.2945 -0.4023
  855MOL0     C15321   9.418   4.337   8.608 -1.0978  0.3316  0.8271
  855MOL0     C15322   9.334   4.232   8.646 -0.3883  0.5493 -0.7174
  855MOL0     C15323   9.251   4.162   8.553  1.0013 -0.9703  0.2093
  855MOL0     C15324   9.245   4.195   8.412 -0.9778 -0.2494  1.2508
  855MOL0     O15325   9.158   4.138   8.319 -0.2899  0.4217  0.2516
  855MOL0     C15326   9.065   4.033   8.353  0.0570 -1.7563 -1.2267
  855MOL0     C15327   8.932   4.086   8.417 -0.1328  0.0173  0.0032
  855MOL0     C15328   8.927   4.239   8.464  0.4629 -1.1518  0.6486
  855MOL0     C15329   8.800   4.278   8.530  0.4050 -0.3738  0.1905
  855MOL0     C15330   8.804   4.431   8.559  0.1913 -0.5274  0.8659
  855MOL0     C15331   8.661   4.493   8.554 -0.1019 -0.6020 -0.0842
  855MOL0     C15332   8.672   4.647   8.570  0.0035 -0.5177 -0.2152
  855MOL0     C15333   8.530   4.702   8.532 -0.1173 -0.9574 -0.1482
  855MOL0    Cl15334   8.388   4.614   8.604  0.2198  0.1363  0.2644
  855MOL0     C15335   9.343   4.292   8.375  0.7133  0.4266 -0.1242
  855MOL0     C15336   9.423   4.362   8.469  0.8197  0.5091  0.8489
  855MOL0     O15337   9.414   4.624   8.606 -0.0351 -0.0309  0.6518
  855MOL0     C15338   9.536   4.552   8.935 -0.2623 -0.6282 -0.8242
  855MOL0     C15339   9.548   4.612   9.055  0.1472 -0.4561  0.4383
  855MOL0     N15340   9.847   4.902   9.590  0.5040 -0.9462  0.6398
  855MOL0     N15341   9.859   4.970   9.695  0.4181  0.1452  0.1355
  855MOL0     C15342  10.114   5.312  10.654  0.1801  0.3087 -0.0405
  855MOL0     C15343  10.186   5.226  10.739  0.6125 -0.4198 -0.2054
  855MOL0     C15344  10.395   4.870  10.904 -0.0696 -0.1177  0.2409
  855MOL0     C15345  10.355   4.781  10.998  0.4742 -0.3291  0.4556
  855MOL0     C15346  10.433   4.723  11.096  0.6696  0.4686 -0.6873
  855MOL0     C15347  10.569   4.759  11.110  0.2139 -0.0270 -0.5052
  855MOL0     O15348  10.664   4.715  11.201  0.3349  0.3484 -0.7592
  855MOL0     C15349  10.609   4.644  11.314  0.7608 -0.5676  0.3239
  855MOL0     C15350  10.716   4.599  11.411  0.6825 -0.2241 -0.2312
  855MOL0     C15351  10.771   4.458  11.411  0.2065 -0.2295 -0.0697
  855MOL0     C15352  10.699   4.364  11.502 -1.0504  0.1409 -0.0857
  855MOL0     C15353  10.723   4.372  11.642  0.5238  0.1998  0.6125
  855MOL0     C15354  10.746   4.353  11.756 -0.2460 -0.9969 -0.0869
  855MOL0     C15355  10.612   4.874  11.022 -0.6016  0.1718 -0.2863
  855MOL0     C15356  10.532   4.923  10.917  0.8405  0.2411 -0.7820
  855MOL0     C15357  10.575   5.031  10.819 -0.1602  0.4562 -0.4658
  855MOL0     H15358   9.976   4.948  10.724  1.0372 -0.1684  0.7747
  855MOL0     H15359   9.863   5.103  10.574  0.0207  0.4062 -0.2906
  855MOL0     H15360   9.829   5.498  10.437 -0.8467 -0.6426  1.6986
  855MOL0     H15361   9.957   5.523  10.554  0.5044  3.6046 -3.7320
  855MOL0     H15362  10.122   5.464  10.381  0.2033 -0.3099 -2.6424
  855MOL0     H15363  10.020   5.603  10.338 -0.0119 -0.3262 -1.1081
  855MOL0     H15364   9.883   5.397  10.235 -0.2916  4.3522  1.2890
  855MOL0     H15365  10.037   5.321  10.206  0.9820  1.0458 -1.1314
  855MOL0     H15366   9.931   5.590  10.090 -0.1870 -1.4746 -1.5448
  855MOL0     H15367  10.102   5.575  10.114  1.1148 -1.2908 -2.8956
  855MOL0     H15368  10.026   5.533   9.886 -2.2602 -1.0522 -0.9753
  855MOL0     H15369  10.106   5.390   9.943 -0.9377  0.1250 -0.5436
  855MOL0     H15370   9.865   5.308  10.010 -1.1920  1.4519  0.4220
  855MOL0     H15371   9.816   5.447   9.902 -0.7188  0.1498  0.6391
  855MOL0     H15372   9.991   5.196   9.848 -2.0075 -1.4205 -0.3929
  855MOL0     H15373   9.956   5.325   9.723 -5.0264  1.9563 -1.2507
  855MOL0     H15374   9.755   5.157   9.863 -1.1821  0.9871  0.5278
  855MOL0     H15375   9.723   5.277   9.740 -0.2896 -0.2927  0.0118
  855MOL0     H15376   9.737   5.198   9.496  1.8641  1.2680  0.2274
  855MOL0     H15377   9.665   4.987   9.318  0.6360 -1.2908 -4.2156
  855MOL0     H15378   9.829   4.996   9.275 -0.5624 -1.8569 -2.0695
  855MOL0     H15379   9.773   4.780   9.198  0.0897 -1.1823  0.4412
  855MOL0     H15380   9.860   4.747   9.346 -3.0195 -3.4555  0.5179
  855MOL0     H15381   9.679   4.713   9.467 -0.0048  1.3251 -0.0626
  855MOL0     H15382   9.663   4.603   9.331 -2.6110 -1.5688  3.6889
  855MOL0     H15383   9.504   4.843   9.383 -2.3485 -0.2044 -0.2818
  855MOL0     H15384   9.459   4.676   9.322  0.6458 -1.0140 -0.5167
  855MOL0     H15385   9.424   4.915   8.997 -0.8617  0.7689 -0.2872
  855MOL0     H15386   9.391   4.812   8.773 -0.8071  0.1726  1.2864
  855MOL0     H15387   9.324   4.220   8.754  1.0990 -0.3930 -0.6469
  855MOL0     H15388   9.166   4.099   8.577 -1.6194  1.7750 -1.2570
  855MOL0     H15389   9.046   3.985   8.257 -0.5708 -1.9496 -1.0079
  855MOL0     H15390   9.116   3.954   8.409 -0.0348 -1.9384 -1.3990
  855MOL0     H15391   8.863   4.093   8.333 -0.8025  0.4828  0.5766
  855MOL0     H15392   8.889   4.014   8.486  0.8069 -0.4999  0.0644
  855MOL0     H15393   9.000   4.283   8.532 -0.2711  1.3774 -0.1121
  855MOL0     H15394   8.929   4.302   8.375 -0.6428 -1.2776  0.5191
  855MOL0     H15395   8.783   4.208   8.613 -0.7445 -1.1812 -0.6904
  855MOL0     H15396   8.716   4.267   8.460 -0.2231  1.7711  0.5408
  855MOL0     H15397   8.843   4.481   8.471 -0.1418  2.8642  2.4813
  855MOL0     H15398   8.864   4.454   8.647 -0.3348 -1.4232  1.4795
  855MOL0     H15399   8.609   4.464   8.462  1.1263 -0.0866 -0.9745
  855MOL0     H15400   8.616   4.455   8.646 -0.3014  1.0132  0.5060
  855MOL0     H15401   8.758   4.687   8.516 -0.0470 -0.8600 -0.5543
  855MOL0     H15402   8.691   4.666   8.676  0.8972 -1.2100 -0.2317
  855MOL0     H15403   8.514   4.810   8.541  2.1964 -0.4476 -1.2217
  855MOL0     H15404   8.499   4.684   8.428 -3.9121 -0.7264  0.7834
  855MOL0     H15405   9.355   4.311   8.268  2.9496  1.5361  0.2511
  855MOL0     H15406   9.484   4.448   8.442  1.8806 -0.0301  1.4482
  855MOL0     H15407   9.571   4.449   8.934  4.2311  0.7087 -0.9757
  855MOL0     H15408   9.572   4.539   9.132 -0.9354 -1.9505 -0.5747
  855MOL0     H15409  10.153   5.413  10.644 -1.7440  1.2350  1.1844
  855MOL0     H15410  10.259   5.278  10.801  0.9435 -0.8041 -0.2722
  855MOL0     H15411  10.250   4.753  10.998 -0.0087  1.2941  2.0616
  855MOL0     H15412  10.382   4.658  11.167 -0.8028  1.5079 -0.7331
  855MOL0     H15413  10.555   4.551  11.294  2.6884 -1.6548 -0.1010
  855MOL0     H15414  10.547   4.721  11.361  2.1124  0.7986 -0.0555
  855MOL0     H15415  10.676   4.611  11.512  1.6894 -0.3779  0.1977
  855MOL0     H15416  10.791   4.678  11.396  0.2809 -0.0607 -1.4645
  855MOL0     H15417  10.879   4.462  11.429  0.1756 -2.7265  1.0272
  855MOL0     H15418  10.757   4.431  11.306  0.1355  1.4745 -0.5272
  855MOL0     H15419  10.590   4.365  11.487 -1.0733 -0.4119 -0.0055
  855MOL0     H15420  10.745   4.272  11.466  0.4458  0.2847  1.3372
  855MOL0     H15421  10.787   4.340  11.854 -0.0324 -1.9450 -0.2910
  855MOL0     H15422  10.711   4.919  11.030 -1.0780  1.3007 -0.6068
  855MOL0     H15423  10.621   4.970  10.740  1.5061 -0.9237  1.4776
  855MOL0     H15424  10.496   5.092  10.774  1.7716  2.5771 -1.1672
  855MOL0     H15425  10.659   5.089  10.858 -1.4600  0.7466  2.0694
  856MOL0     O15426   9.085   3.874   2.495 -0.0916  0.1048  0.0154
  856MOL0     C15427   8.994   3.856   2.581  0.0672  0.0986 -0.3980
  856MOL0     O15428   9.010   3.885   2.714  0.1239  0.4597  0.4626
  856MOL0     C15429   9.098   3.976   2.747 -0.3019  0.1191  0.7142
  856MOL0     C15430   9.076   4.117   2.730  0.6194  0.5746  1.3375
  856MOL0     C15431   9.173   4.203   2.770 -0.3081 -0.2949  0.0314
  856MOL0     C15432   9.302   4.167   2.810 -0.4719 -0.5498  0.1283
  856MOL0     O15433   9.388   4.264   2.858  0.1552  0.4724 -0.4407
  856MOL0     C15434   9.484   4.238   2.966  0.2653  0.5909 -0.9224
  856MOL0     C15435   9.531   4.376   3.024 -0.1251  1.1029  0.5223
  856MOL0     C15436   9.671   4.377   3.092  0.4196 -0.2156  0.3272
  856MOL0     C15437   9.687   4.491   3.181  0.1399 -0.8985  0.6714
  856MOL0     C15438   9.719   4.633   3.115  1.0715 -0.0721  0.1528
  856MOL0     C15439   9.705   4.750   3.203 -0.0504 -0.3497 -0.3743
  856MOL0     C15440   9.580   4.847   3.193 -0.5834  0.1335 -0.4227
  856MOL0     C15441   9.438   4.781   3.169 -0.8321  0.1328  0.6526
  856MOL0     N15442   9.369   4.711   3.277 -0.0090 -0.3487  0.1897
  856MOL0     C15443   9.407   4.686   3.405  0.2323 -0.4575 -0.6581
  856MOL0     C15444   9.339   4.577   3.445 -0.0851  0.2545 -1.0138
  856MOL0     C15445   9.351   4.498   3.569 -1.0109  0.5119  0.3436
  856MOL0     C15446   9.239   4.524   3.670 -0.2717 -0.1084 -0.1096
  856MOL0     C15447   9.246   4.430   3.789  0.9345  0.2221 -0.9203
  856MOL0     C15448   9.110   4.403   3.856 -0.1640  0.0753 -0.0264
  856MOL0     O15449   9.053   4.538   3.874  0.0575  0.1231 -0.7009
  856MOL0     C15450   9.079   4.594   3.996 -0.4803  0.5509 -0.2672
  856MOL0     C15451   9.075   4.526   4.119 -0.5399  0.3062  1.0410
  856MOL0     C15452   9.087   4.593   4.247 -0.8025 -0.5100 -0.0306
  856MOL0     C15453   9.126   4.733   4.251  0.1749  0.6647  0.1469
  856MOL0     C15454   9.143   4.803   4.379  0.0615  0.6805 -0.3053
  856MOL0     O15455   9.119   4.934   4.386  0.2024 -0.5558 -0.6100
  856MOL0     C15456   9.118   5.001   4.506 -0.3081  0.6669 -0.6977
  856MOL0     C15457   9.022   4.988   4.604 -0.6206  0.3875  0.8938
  856MOL0     C15458   9.023   5.086   4.702 -0.2286 -0.4232 -0.5692
  856MOL0     C15459   9.130   5.176   4.719 -0.5873  0.4606 -0.4920
  856MOL0     O15460   9.126   5.260   4.825  0.0276  0.7398 -0.4894
  856MOL0     C15461   9.005   5.337   4.854  0.3450  0.0467  0.7109
  856MOL0     C15462   8.965   5.416   4.727  1.1466 -0.7432 -1.1280
  856MOL0     C15463   8.854   5.519   4.751  0.5401  0.6419 -0.3908
  856MOL0     C15464   8.724   5.465   4.696  0.1566 -0.4990 -1.1022
  856MOL0     C15465   8.626   5.589   4.684  0.0842  0.2585  0.3836
  856MOL0     C15466   8.494   5.539   4.616 -0.4544 -0.5057  0.4960
  856MOL0     C15467   8.425   5.671   4.571 -0.6029  0.6378  0.7019
  856MOL0     C15468   8.282   5.628   4.556  0.2988  0.5175 -0.2682
  856MOL0    Cl15469   8.189   5.774   4.505  0.0317 -0.4085  0.4380
  856MOL0     C15470   9.234   5.173   4.622  0.1451  0.4761 -0.8659
  856MOL0     C15471   9.219   5.092   4.513  0.5413 -0.1970  0.5216
  856MOL0     O15472   9.146   4.730   4.479 -0.5068  0.2365 -0.3193
  856MOL0     C15473   9.131   4.800   4.133 -0.0263 -0.4892 -0.6228
  856MOL0     C15474   9.102   4.733   4.009  0.2621 -0.1947  0.2543
  856MOL0     N15475   9.260   4.537   3.340 -0.0910  1.1338 -0.7617
  856MOL0     N15476   9.271   4.623   3.247  0.6741 -0.5194  0.4279
  856MOL0     C15477   9.331   4.031   2.799  0.2831 -0.9108  0.7181
  856MOL0     C15478   9.229   3.937   2.776  0.0922  0.2035  0.2132
  856MOL0     C15479   8.862   3.795   2.537  0.1593 -0.2243  0.7246
  856MOL0     C15480   8.774   3.747   2.641  0.2151 -0.4948  0.3191
  856MOL0     C15481   8.636   3.717   2.615  0.0484  0.0915 -0.5127
  856MOL0     C15482   8.588   3.696   2.494  0.5028  0.0053  0.5169
  856MOL0     O15483   8.462   3.674   2.475 -0.6517  0.7685 -0.2014
  856MOL0     C15484   8.403   3.697   2.355 -0.1483  0.8629  0.5193
  856MOL0     C15485   8.252   3.679   2.359  0.3902  0.6534  0.8187
  856MOL0     C15486   8.205   3.537   2.377  0.1284  0.2659 -0.5089
  856MOL0     C15487   8.093   3.540   2.477 -0.0544 -0.0784  0.2510
  856MOL0     C15488   8.021   3.413   2.478 -0.8735  0.3592  0.0913
  856MOL0     C15489   7.946   3.313   2.482  0.4336  0.6099 -0.3308
  856MOL0     C15490   8.676   3.742   2.384  0.3235  0.5012  0.1497
  856MOL0     C15491   8.807   3.790   2.402 -0.8097 -0.2808 -0.2592
  856MOL0     C15492   8.872   3.851   2.289 -0.1676 -0.5450 -0.2354
  856MOL0     H15493   8.983   4.159   2.692  1.1595 -0.6101 -1.5072
  856MOL0     H15494   9.154   4.309   2.755 -1.7289 -0.8793 -3.2123
  856MOL0     H15495   9.432   4.183   3.046  0.7378  2.0395  0.4335
  856MOL0     H15496   9.575   4.192   2.927 -0.3116  0.6982 -2.4576
  856MOL0     H15497   9.447   4.398   3.091 -0.1361  1.2786  0.4498
  856MOL0     H15498   9.536   4.438   2.935  2.1146 -1.8174 -1.5979
  856MOL0     H15499   9.749   4.378   3.015  1.9742 -5.2849  1.4690
  856MOL0     H15500   9.688   4.284   3.146 -0.2536 -0.6867 -0.2600
  856MOL0     H15501   9.601   4.510   3.246  1.6152  1.6433  2.0547
  856MOL0     H15502   9.779   4.462   3.234 -0.0388 -4.1245 -0.5325
  856MOL0     H15503   9.818   4.641   3.069  0.6310  2.2485 -0.5394
  856MOL0     H15504   9.651   4.653   3.031  2.9881  1.0180 -1.2242
  856MOL0     H15505   9.724   4.714   3.304  1.7643 -4.0007 -1.8261
  856MOL0     H15506   9.796   4.810   3.188  0.6236 -1.6937 -2.0987
  856MOL0     H15507   9.607   4.927   3.123 -0.5308  1.0212  0.5837
  856MOL0     H15508   9.581   4.895   3.291  1.9565  0.8828 -0.7361
  856MOL0     H15509   9.374   4.867   3.146 -2.6115 -1.6607 -1.5974
  856MOL0     H15510   9.448   4.722   3.077  3.4123 -1.3233  1.8073
  856MOL0     H15511   9.486   4.739   3.458 -2.2496  2.2941  0.5664
  856MOL0     H15512   9.344   4.392   3.544  0.4413  0.9510 -2.3947
  856MOL0     H15513   9.447   4.516   3.618 -0.2129 -0.0973 -0.9306
  856MOL0     H15514   9.239   4.629   3.703 -2.0330  1.0181 -3.2673
  856MOL0     H15515   9.143   4.513   3.620 -0.8510  4.7260 -0.5449
  856MOL0     H15516   9.313   4.471   3.865  2.0042 -2.5271 -0.2815
  856MOL0     H15517   9.288   4.331   3.770  1.0708 -0.4361  2.2496
  856MOL0     H15518   9.133   4.344   3.945 -0.7300  1.4803  1.0840
  856MOL0     H15519   9.048   4.334   3.798  0.8693 -0.5303 -0.4331
  856MOL0     H15520   9.021   4.432   4.129 -0.2419  0.3409  3.6203
  856MOL0     H15521   9.060   4.528   4.330  1.1200  0.0714  1.1123
  856MOL0     H15522   8.945   4.914   4.584  0.4825 -0.4789 -0.3597
  856MOL0     H15523   8.946   5.098   4.778 -0.6535  1.3950 -1.2231
  856MOL0     H15524   8.927   5.268   4.888 -0.4476  1.0910  1.0594
  856MOL0     H15525   9.024   5.405   4.937  2.0824 -0.4220  0.7286
  856MOL0     H15526   9.051   5.477   4.699  1.9872 -2.0997 -1.6087
  856MOL0     H15527   8.942   5.341   4.651  0.5211 -1.5041 -0.2164
  856MOL0     H15528   8.840   5.543   4.857 -3.2690 -1.0330 -0.3457
  856MOL0     H15529   8.879   5.612   4.700  0.5582 -0.4547 -2.5122
  856MOL0     H15530   8.684   5.396   4.771  2.1882 -0.1303  0.4023
  856MOL0     H15531   8.741   5.406   4.606 -0.8347 -2.6822  0.0448
  856MOL0     H15532   8.667   5.664   4.616 -1.4584  0.2873 -0.5564
  856MOL0     H15533   8.608   5.642   4.778 -1.9319 -0.1685  0.2729
  856MOL0     H15534   8.523   5.483   4.526 -0.2881  0.4882 -0.0784
  856MOL0     H15535   8.445   5.475   4.690  3.8051 -2.5793  1.8672
  856MOL0     H15536   8.478   5.703   4.481 -0.0411  1.1221  1.1927
  856MOL0     H15537   8.428   5.755   4.642  0.7134  1.3288 -0.1286
  856MOL0     H15538   8.278   5.554   4.475 -0.1358 -0.0060  0.2333
  856MOL0     H15539   8.228   5.591   4.643 -5.6500 -1.4660 -4.1974
  856MOL0     H15540   9.308   5.252   4.629 -0.2306  0.8400 -1.0443
  856MOL0     H15541   9.281   5.095   4.425  0.5482  1.7220  0.5601
  856MOL0     H15542   9.154   4.906   4.129  0.7064 -0.5929  0.3973
  856MOL0     H15543   9.100   4.805   3.928 -1.1218 -1.2129 -0.6617
  856MOL0     H15544   9.431   3.994   2.819  1.1492  0.4100 -0.8516
  856MOL0     H15545   9.248   3.831   2.791 -2.3161 -0.2871  0.2226
  856MOL0     H15546   8.810   3.751   2.743  3.0526 -1.6219 -0.5556
  856MOL0     H15547   8.572   3.711   2.703  1.8534  0.2339  0.8688
  856MOL0     H15548   8.445   3.623   2.286 -2.6082 -1.4511  1.3178
  856MOL0     H15549   8.435   3.799   2.332  3.5350 -0.5052 -1.2465
  856MOL0     H15550   8.208   3.712   2.264  1.2443  0.5555  0.3810
  856MOL0     H15551   8.206   3.741   2.436 -1.6774 -0.5297  0.6036
  856MOL0     H15552   8.289   3.475   2.410  1.8151  0.7898 -3.4798
  856MOL0     H15553   8.171   3.496   2.281  0.8963 -2.5191  0.3088
  856MOL0     H15554   8.142   3.553   2.574  1.7133 -1.6041 -0.3707
  856MOL0     H15555   8.025   3.625   2.465  0.4322  0.2990  0.1240
  856MOL0     H15556   7.895   3.219   2.487 -0.6666  1.2560  2.5283
  856MOL0     H15557   8.645   3.719   2.283  1.7276 -2.4025  0.2658
  856MOL0     H15558   8.819   3.825   2.197  0.0468 -0.5413 -0.3612
  856MOL0     H15559   8.862   3.959   2.304 -2.6539 -0.5945 -1.2026
  856MOL0     H15560   8.976   3.816   2.289  0.3210  0.7905 -1.3273
  857MOL0     O15561   8.336   3.642   0.343 -0.0722  0.2747 -0.1716
  857MOL0     C15562   8.241   3.672   0.417  0.0026 -0.1522 -0.7405
  857MOL0     O15563   8.168   3.584   0.502  0.2035  0.3011 -0.0788
  857MOL0     C15564   8.173   3.449   0.482 -0.0345  0.3525 -0.2200
  857MOL0     C15565   8.154   3.369   0.590  0.0155  0.1354 -0.2800
  857MOL0     C15566   8.161   3.226   0.578  0.5000  0.3885  0.1239
  857MOL0     C15567   8.186   3.163   0.446 -0.1186 -0.3219  0.1079
  857MOL0     O15568   8.189   3.030   0.450 -0.8050  0.5817 -0.2308
  857MOL0     C15569   8.169   2.945   0.333 -0.5801 -0.4251 -0.3439
  857MOL0     C15570   8.182   2.803   0.372 -0.5624 -0.6775 -0.0534
  857MOL0     C15571   8.160   2.717   0.248  0.1667  0.2223 -0.1629
  857MOL0     C15572   8.294   2.716   0.160  0.3536 -0.5940 -0.0564
  857MOL0     C15573   8.266   2.650   0.025  0.3254 -0.4476  0.0593
  857MOL0     C15574   8.374   2.677  -0.076  1.1085  0.5278 -0.4411
  857MOL0     C15575   8.335   2.638  -0.218 -0.9486  0.4175 -0.5932
  857MOL0     C15576   8.304   2.487  -0.238 -0.2158  0.6407 -0.2289
  857MOL0     N15577   8.167   2.443  -0.259  0.2245  0.2349  0.6296
  857MOL0     C15578   8.115   2.423  -0.384 -1.1845 -0.1426 -0.0597
  857MOL0     C15579   7.994   2.364  -0.354  0.5321 -0.3871  0.9361
  857MOL0     C15580   7.889   2.315  -0.455 -0.0807 -0.0580 -0.0771
  857MOL0     C15581   7.950   2.195  -0.526  0.0995  0.6881 -0.5730
  857MOL0     C15582   7.852   2.130  -0.619 -0.0472  0.5141  0.3488
  857MOL0     C15583   7.894   1.992  -0.672  0.2030  0.5170  0.6157
  857MOL0     O15584   7.769   1.926  -0.698 -0.4960 -0.8251 -0.7261
  857MOL0     C15585   7.769   1.812  -0.766 -0.1650 -0.5934 -0.8890
  857MOL0     C15586   7.871   1.758  -0.835  0.1336  0.6409  0.1241
  857MOL0     C15587   7.852   1.647  -0.916  0.1382 -0.9547  0.1992
  857MOL0     C15588   7.730   1.575  -0.916  0.0619 -0.8242 -0.4195
  857MOL0     C15589   7.717   1.455  -0.980 -0.1817  0.4203 -0.3735
  857MOL0     O15590   7.821   1.411  -1.052  0.1110  0.3485 -0.3401
  857MOL0     C15591   7.826   1.279  -1.093 -0.2624  0.1029 -0.4358
  857MOL0     C15592   7.918   1.247  -1.207 -0.0430  0.1683  0.2741
  857MOL0     C15593   7.929   1.122  -1.266  0.8868 -0.4040 -0.7437
  857MOL0     C15594   7.867   1.006  -1.210  0.8480 -1.4559 -0.1699
  857MOL0     O15595   7.873   0.878  -1.261 -0.9289 -0.1884 -0.0303
  857MOL0     C15596   7.964   0.781  -1.202  0.8960 -0.5200  0.2111
  857MOL0     C15597   7.906   0.733  -1.065  0.7627 -0.8564  1.0516
  857MOL0     C15598   7.980   0.803  -0.952  1.0014  0.1268  0.3275
  857MOL0     C15599   7.961   0.725  -0.822  0.6700  0.6469 -0.4431
  857MOL0     C15600   8.039   0.794  -0.714 -0.2494  0.8414  0.2222
  857MOL0     C15601   7.988   0.941  -0.673  0.7009 -0.3778 -0.9707
  857MOL0     C15602   7.848   0.952  -0.629 -0.3735  0.0306 -0.1754
  857MOL0     C15603   7.821   0.868  -0.500  0.7267  0.3715  0.2548
  857MOL0    Cl15604   7.645   0.889  -0.452  0.0927 -0.4309  0.0789
  857MOL0     C15605   7.772   1.031  -1.095  0.9957 -1.0724  1.3395
  857MOL0     C15606   7.759   1.161  -1.042 -0.5887  0.6341 -0.5170
  857MOL0     O15607   7.608   1.398  -0.973 -0.2761 -0.3499  0.4295
  857MOL0     C15608   7.627   1.638  -0.840 -0.3212  0.0147 -0.4773
  857MOL0     C15609   7.639   1.755  -0.771  0.1201  0.2521 -0.1404
  857MOL0     N15610   7.974   2.360  -0.219 -0.6551  0.3249  0.8144
  857MOL0     N15611   8.080   2.408  -0.161  0.3576  0.6125 -0.3154
  857MOL0     C15612   8.194   3.252   0.332  0.6777  0.0951  0.3591
  857MOL0     C15613   8.185   3.390   0.352 -0.8193 -0.6655 -0.0266
  857MOL0     C15614   8.199   3.825   0.419  0.3132  0.5289 -1.0807
  857MOL0     C15615   8.282   3.919   0.359 -0.6731  0.2570  0.8354
  857MOL0     C15616   8.267   4.064   0.366 -0.9326 -0.0203  0.1658
  857MOL0     C15617   8.177   4.116   0.455 -1.1443  0.6172  0.2126
  857MOL0     O15618   8.185   4.256   0.468  0.7457 -0.4064 -0.3336
  857MOL0     C15619   8.071   4.328   0.527 -0.3772  1.0001 -0.6230
  857MOL0     C15620   7.943   4.328   0.452 -0.2714 -0.1575 -0.9472
  857MOL0     C15621   7.944   4.401   0.318 -0.1380 -0.6370  0.4979
  857MOL0     C15622   7.815   4.394   0.243  0.5169  0.1272  0.9563
  857MOL0     C15623   7.801   4.482   0.127  0.2782  0.5591  0.0685
  857MOL0     C15624   7.784   4.570   0.041 -0.0408 -0.3696 -0.4352
  857MOL0     C15625   8.093   4.023   0.523 -0.8773 -0.5154  0.5784
  857MOL0     C15626   8.101   3.883   0.506  0.4716 -0.2110 -0.1108
  857MOL0     C15627   8.006   3.810   0.600  0.4141  0.2462 -0.7510
  857MOL0     H15628   8.132   3.405   0.690 -0.2749  0.8752 -0.6014
  857MOL0     H15629   8.151   3.158   0.663 -0.8189  1.6805  1.0610
  857MOL0     H15630   8.070   2.968   0.293 -1.3842  0.9547  2.1663
  857MOL0     H15631   8.240   2.971   0.254 -1.2895 -2.3029 -1.6528
  857MOL0     H15632   8.101   2.785   0.443 -0.6664  1.2021  0.3633
  857MOL0     H15633   8.283   2.773   0.403 -1.0659 -2.5810 -0.1103
  857MOL0     H15634   8.078   2.756   0.188  0.9929  1.5845 -0.4515
  857MOL0     H15635   8.138   2.611   0.261  0.0012  0.0762 -1.5309
  857MOL0     H15636   8.324   2.819   0.140  0.0054 -0.2888  0.9508
  857MOL0     H15637   8.373   2.654   0.203  1.8894 -0.8711 -3.0117
  857MOL0     H15638   8.249   2.542   0.024 -0.1298 -0.4138  1.9974
  857MOL0     H15639   8.172   2.690  -0.015  1.7511  1.2689 -1.8142
  857MOL0     H15640   8.397   2.784  -0.078  1.1578  0.6433  2.2588
  857MOL0     H15641   8.464   2.624  -0.043  1.5522  0.8434 -1.1320
  857MOL0     H15642   8.422   2.665  -0.278 -2.3309 -0.4180 -3.1188
  857MOL0     H15643   8.248   2.693  -0.256 -0.9904  0.3193 -0.6375
  857MOL0     H15644   8.361   2.460  -0.328  0.8009  2.9542 -0.3814
  857MOL0     H15645   8.352   2.439  -0.153  1.3857  1.7644 -0.4321
  857MOL0     H15646   8.156   2.449  -0.480 -0.7073  2.0663  0.6988
  857MOL0     H15647   7.802   2.286  -0.396 -0.3747  0.6852 -0.1376
  857MOL0     H15648   7.857   2.386  -0.532  4.4227 -0.0002 -2.1971
  857MOL0     H15649   8.033   2.227  -0.589 -0.4411  1.1353 -1.0772
  857MOL0     H15650   7.986   2.115  -0.460 -2.3851 -0.2160 -0.1817
  857MOL0     H15651   7.832   2.195  -0.705  0.0831  0.9793  0.6610
  857MOL0     H15652   7.762   2.111  -0.561  1.2071 -0.5736  2.0234
  857MOL0     H15653   7.941   1.923  -0.602  1.8184 -0.3288 -1.2317
  857MOL0     H15654   7.962   2.021  -0.752  1.8032 -0.9012  1.4106
  857MOL0     H15655   7.969   1.802  -0.823  1.0672 -1.1921 -0.3167
  857MOL0     H15656   7.942   1.616  -0.969  1.6886  2.1577  0.7792
  857MOL0     H15657   7.993   1.317  -1.244  1.2179 -3.2033 -4.4628
  857MOL0     H15658   8.000   1.125  -1.349  3.1129  1.0089  1.1041
  857MOL0     H15659   7.961   0.703  -1.279 -1.7924 -0.1436 -0.1418
  857MOL0     H15660   8.070   0.808  -1.200  1.0959 -1.2930  0.3651
  857MOL0     H15661   7.800   0.758  -1.056  1.2039  1.4121  0.6585
  857MOL0     H15662   7.925   0.626  -1.058  0.5341 -0.8833  1.2884
  857MOL0     H15663   8.087   0.810  -0.973  0.6345  2.5674 -1.0139
  857MOL0     H15664   7.954   0.907  -0.932  2.1048  0.4848 -0.0249
  857MOL0     H15665   7.990   0.624  -0.851 -2.1400  0.4053 -2.9428
  857MOL0     H15666   7.855   0.723  -0.796  0.3216  0.0273 -1.8235
  857MOL0     H15667   8.143   0.796  -0.749 -1.8888  2.6823 -5.7901
  857MOL0     H15668   8.036   0.718  -0.636 -3.8781 -1.0828 -1.5481
  857MOL0     H15669   8.053   0.973  -0.591  0.5969 -3.6936  0.5739
  857MOL0     H15670   7.998   1.017  -0.751 -0.2347 -0.5578 -1.2684
  857MOL0     H15671   7.788   0.921  -0.715 -1.2164 -0.0281  0.4122
  857MOL0     H15672   7.826   1.059  -0.622 -0.0879  0.0709  0.1255
  857MOL0     H15673   7.847   0.764  -0.521  2.0396  0.5773  0.7717
  857MOL0     H15674   7.884   0.889  -0.413 -0.9180 -2.8173  2.4265
  857MOL0     H15675   7.717   0.950  -1.049 -0.0529 -1.4741 -0.5207
  857MOL0     H15676   7.676   1.167  -0.972 -2.4425 -2.2703 -2.2430
  857MOL0     H15677   7.527   1.598  -0.846 -1.0462  1.8476 -1.4619
  857MOL0     H15678   7.553   1.775  -0.707  0.2585 -0.3328  0.2461
  857MOL0     H15679   8.200   3.218   0.229 -0.6174  0.0567  0.2799
  857MOL0     H15680   8.184   3.449   0.261  1.4729 -1.4016 -0.5966
  857MOL0     H15681   8.367   3.881   0.303  0.2060 -0.5650  2.6500
  857MOL0     H15682   8.350   4.114   0.315  0.3802 -0.6361  1.6087
  857MOL0     H15683   8.096   4.435   0.535 -1.7221  1.2484  0.7164
  857MOL0     H15684   8.061   4.313   0.635 -3.2523  1.9237 -0.6809
  857MOL0     H15685   7.859   4.369   0.508  0.0897 -0.8732  0.1426
  857MOL0     H15686   7.926   4.223   0.427 -2.2889 -0.1438  0.1394
  857MOL0     H15687   8.023   4.352   0.261 -0.6535 -3.9954  2.4114
  857MOL0     H15688   7.969   4.504   0.346 -1.5863  0.0854 -0.6962
  857MOL0     H15689   7.810   4.291   0.207  2.8396 -0.0391  0.9924
  857MOL0     H15690   7.727   4.408   0.306 -1.7770  1.0293 -2.1775
  857MOL0     H15691   7.754   4.650  -0.024  1.1115  1.7253  1.4910
  857MOL0     H15692   8.021   4.070   0.589 -1.3946  0.6874 -0.7655
  857MOL0     H15693   8.046   3.797   0.701 -0.3184 -0.0093 -0.4801
  857MOL0     H15694   7.917   3.873   0.612 -1.6243 -2.2604 -1.6668
  857MOL0     H15695   7.984   3.708   0.567  3.2788 -0.7695  0.1578
  858MOL0     O15696   4.620   1.699   2.561  0.1702  0.0315  0.4007
  858MOL0     C15697   4.717   1.703   2.490  0.3561 -0.6656  0.4488
  858MOL0     O15698   4.847   1.703   2.534 -0.0352  0.1169 -0.5819
  858MOL0     C15699   4.876   1.727   2.668  1.0972 -1.5982  0.1081
  858MOL0     C15700   4.825   1.832   2.749 -0.3228 -0.4542  0.5686
  858MOL0     C15701   4.874   1.860   2.872  0.8439 -0.3513 -0.2786
  858MOL0     C15702   4.975   1.777   2.917 -0.8748 -0.5740  0.4543
  858MOL0     O15703   5.028   1.814   3.038  0.5015  0.2394 -0.7333
  858MOL0     C15704   5.160   1.767   3.077  0.3459 -0.5003  0.9331
  858MOL0     C15705   5.257   1.872   3.027 -0.2199 -0.2117  0.0212
  858MOL0     C15706   5.296   1.862   2.882 -0.2913  0.1386  0.5602
  858MOL0     C15707   5.411   1.963   2.854 -0.0002 -0.0157 -0.2581
  858MOL0     C15708   5.480   1.940   2.716  0.3011  0.3679 -0.5227
  858MOL0     C15709   5.597   2.041   2.693  0.7815  0.2620 -0.2610
  858MOL0     C15710   5.573   2.139   2.575  0.5136  0.6480 -0.1183
  858MOL0     C15711   5.496   2.261   2.626  0.7317 -0.6409  0.2836
  858MOL0     N15712   5.503   2.373   2.531  0.0564  0.1988  0.6723
  858MOL0     C15713   5.470   2.497   2.573  0.1222 -0.2905  0.2940
  858MOL0     C15714   5.460   2.558   2.453 -0.5431 -0.5456 -0.7087
  858MOL0     C15715   5.417   2.696   2.433  0.9458 -1.1612  0.5323
  858MOL0     C15716   5.487   2.792   2.530  0.3308  0.3738  0.0131
  858MOL0     C15717   5.432   2.937   2.536 -0.2094 -0.5275 -0.5616
  858MOL0     C15718   5.529   3.024   2.624 -0.2054  0.9858 -1.0978
  858MOL0     O15719   5.465   3.141   2.657  0.2002  0.0874  0.3717
  858MOL0     C15720   5.523   3.241   2.722 -0.6097  0.3923  0.0170
  858MOL0     C15721   5.467   3.365   2.726  0.0618 -0.7959  0.2164
  858MOL0     C15722   5.527   3.483   2.769 -0.3451 -0.0312  0.1473
  858MOL0     C15723   5.654   3.472   2.831  0.5176 -0.9727  0.2070
  858MOL0     C15724   5.729   3.601   2.877 -0.3983 -0.5959 -0.1325
  858MOL0     O15725   5.675   3.730   2.869 -0.4582  0.9000  0.1486
  858MOL0     C15726   5.747   3.828   2.930  0.0029  0.4647 -0.4633
  858MOL0     C15727   5.847   3.898   2.869  0.0442  0.0609 -0.0250
  858MOL0     C15728   5.915   3.996   2.937 -0.6227  0.0827 -1.1747
  858MOL0     C15729   5.881   4.035   3.076 -0.5260 -0.2885  0.8206
  858MOL0     O15730   5.926   4.150   3.143 -0.5197  0.2894  0.0954
  858MOL0     C15731   6.024   4.221   3.071  0.1548 -0.0605  0.0040
  858MOL0     C15732   6.042   4.365   3.143  0.9134  1.3463 -0.0170
  858MOL0     C15733   6.138   4.456   3.071 -0.3029  0.9745  0.3734
  858MOL0     C15734   6.133   4.610   3.106  0.2894  0.8753 -0.0948
  858MOL0     C15735   6.210   4.642   3.224 -0.4350 -0.4110 -0.6052
  858MOL0     C15736   6.233   4.787   3.240  0.7997  0.1812 -0.0046
  858MOL0     C15737   6.336   4.858   3.134 -0.4812  0.5892 -0.0041
  858MOL0     C15738   6.474   4.806   3.168 -0.3352  0.3678  0.4767
  858MOL0    Cl15739   6.588   4.930   3.117 -0.1195  0.3750  0.1583
  858MOL0     C15740   5.787   3.958   3.136 -0.5668  0.0543  0.0507
  858MOL0     C15741   5.725   3.858   3.071 -0.1052 -0.1829  0.0563
  858MOL0     O15742   5.838   3.574   2.920 -1.3155 -0.3486 -0.1637
  858MOL0     C15743   5.709   3.347   2.837  0.6223 -0.6335 -0.1153
  858MOL0     C15744   5.652   3.235   2.777 -1.0138 -0.1316 -0.2787
  858MOL0     N15745   5.503   2.482   2.348  0.0777 -0.2554 -0.3381
  858MOL0     N15746   5.527   2.366   2.396  0.0045 -0.9610  0.8453
  858MOL0     C15747   5.033   1.670   2.842  1.6966 -1.0256  0.2189
  858MOL0     C15748   4.979   1.648   2.715  0.1413  0.1567 -0.3933
  858MOL0     C15749   4.690   1.701   2.342  0.2094  0.3901  0.7494
  858MOL0     C15750   4.789   1.635   2.264  0.4203 -0.6337  0.1046
  858MOL0     C15751   4.774   1.619   2.129 -0.7107 -0.1583 -0.3453
  858MOL0     C15752   4.662   1.661   2.061  0.2440  0.6298 -1.0422
  858MOL0     O15753   4.660   1.634   1.932  0.3163 -0.2968  0.0374
  858MOL0     C15754   4.534   1.644   1.871 -0.6973 -0.6629  0.0385
  858MOL0     C15755   4.529   1.588   1.729 -0.0296 -0.1082 -0.3854
  858MOL0     C15756   4.617   1.663   1.631 -0.3053  0.4358 -0.2447
  858MOL0     C15757   4.660   1.578   1.518 -0.3721 -0.3989 -0.0195
  858MOL0     C15758   4.734   1.659   1.421 -0.2839 -0.2588  1.2105
  858MOL0     C15759   4.801   1.682   1.320 -0.3891 -0.9830 -0.1739
  858MOL0     C15760   4.564   1.727   2.135  0.5851  0.0894  1.1281
  858MOL0     C15761   4.578   1.751   2.271 -0.9097 -0.2707 -0.2982
  858MOL0     C15762   4.458   1.815   2.341  1.0991  0.1178 -0.0937
  858MOL0     H15763   4.746   1.895   2.709  1.0692 -1.2236 -3.9739
  858MOL0     H15764   4.845   1.947   2.930  3.9053  0.5479  0.0601
  858MOL0     H15765   5.172   1.770   3.186  0.1693 -0.5577  0.9543
  858MOL0     H15766   5.185   1.666   3.042  1.8359  1.0217 -2.9486
  858MOL0     H15767   5.349   1.862   3.085  0.1975 -3.1609 -0.9595
  858MOL0     H15768   5.221   1.974   3.043  1.4562  0.6073 -1.0527
  858MOL0     H15769   5.210   1.894   2.823 -0.5843 -0.8895  0.4139
  858MOL0     H15770   5.320   1.764   2.842 -2.3871  0.7710 -2.6488
  858MOL0     H15771   5.372   2.065   2.846  0.4159  0.2828  1.3171
  858MOL0     H15772   5.486   1.974   2.933 -3.3328 -0.5880  3.2446
  858MOL0     H15773   5.530   1.843   2.726 -0.3756  0.2656  4.9145
  858MOL0     H15774   5.416   1.936   2.628 -0.3490  2.2628 -0.1710
  858MOL0     H15775   5.608   2.095   2.787 -1.2602 -2.7787  1.9027
  858MOL0     H15776   5.689   1.987   2.667  0.5928  0.1666 -0.7362
  858MOL0     H15777   5.513   2.107   2.490 -1.8006  2.3964  0.7548
  858MOL0     H15778   5.672   2.173   2.542  0.4519 -0.4655 -1.5547
  858MOL0     H15779   5.399   2.212   2.641  0.6834 -0.3321  1.0179
  858MOL0     H15780   5.533   2.299   2.722  1.3359 -0.2072 -0.1166
  858MOL0     H15781   5.420   2.530   2.664 -1.9816 -1.9963 -0.1514
  858MOL0     H15782   5.436   2.726   2.330  4.3584  2.7467  1.9833
  858MOL0     H15783   5.311   2.713   2.452  0.9466  0.6035 -0.7948
  858MOL0     H15784   5.486   2.750   2.631  1.1014 -0.0694 -0.1521
  858MOL0     H15785   5.589   2.801   2.492  0.0093 -0.9071 -1.2273
  858MOL0     H15786   5.334   2.936   2.585  0.4594 -1.7873  0.8285
  858MOL0     H15787   5.408   2.958   2.432  0.7591  1.5410 -0.4101
  858MOL0     H15788   5.629   3.043   2.583  2.3563 -1.2326  3.3200
  858MOL0     H15789   5.554   2.967   2.715  4.0621  2.1537 -1.2947
  858MOL0     H15790   5.371   3.382   2.677 -1.3921  0.5360  3.2228
  858MOL0     H15791   5.477   3.577   2.748  2.0495  0.8778 -2.0896
  858MOL0     H15792   5.865   3.872   2.765  0.7013  1.3229 -0.2455
  858MOL0     H15793   5.986   4.059   2.886  2.2234 -0.5131  1.7388
  858MOL0     H15794   6.116   4.162   3.069  0.5470  0.5354  0.1350
  858MOL0     H15795   5.994   4.234   2.966 -2.4214 -2.3074  0.3686
  858MOL0     H15796   5.942   4.410   3.133 -0.7558 -2.1335 -0.4386
  858MOL0     H15797   6.071   4.348   3.247  0.2551 -0.0075 -0.0358
  858MOL0     H15798   6.244   4.428   3.075 -0.2549  0.9784 -0.6163
  858MOL0     H15799   6.118   4.453   2.963 -1.7682  1.2452  0.6118
  858MOL0     H15800   6.030   4.646   3.111  1.0187  2.9308  1.5555
  858MOL0     H15801   6.185   4.661   3.024 -2.5943 -0.1045 -2.7340
  858MOL0     H15802   6.308   4.593   3.229 -0.0696  0.3169  3.7978
  858MOL0     H15803   6.152   4.609   3.311 -1.2225  2.4567  0.0583
  858MOL0     H15804   6.131   4.825   3.226  0.0245 -1.1208  1.6641
  858MOL0     H15805   6.260   4.803   3.345  0.7706 -2.2125  0.4250
  858MOL0     H15806   6.353   4.963   3.159  4.7691 -0.6478  3.4339
  858MOL0     H15807   6.310   4.835   3.030 -0.7921 -2.0415  0.5824
  858MOL0     H15808   6.485   4.806   3.277  0.9029  1.4078  0.3877
  858MOL0     H15809   6.503   4.707   3.133  3.7178  0.9549  1.6506
  858MOL0     H15810   5.754   3.989   3.235 -3.2962  2.0628 -1.3617
  858MOL0     H15811   5.644   3.805   3.120  0.7306 -1.8555 -0.2553
  858MOL0     H15812   5.797   3.340   2.899 -1.1098 -0.1730  2.5668
  858MOL0     H15813   5.694   3.136   2.788  0.8519  0.7457  1.1117
  858MOL0     H15814   5.109   1.596   2.863 -0.4088 -2.6340  2.7310
  858MOL0     H15815   5.017   1.571   2.649  0.7677  0.6736 -0.6452
  858MOL0     H15816   4.882   1.604   2.311 -1.1066 -3.8077  1.3376
  858MOL0     H15817   4.862   1.586   2.075  0.2672  0.4498  0.8190
  858MOL0     H15818   4.509   1.750   1.860  2.3802  0.1604 -0.0491
  858MOL0     H15819   4.460   1.582   1.922 -2.8871  1.8135  0.0740
  858MOL0     H15820   4.428   1.602   1.690  0.2219  1.6214 -0.5178
  858MOL0     H15821   4.544   1.480   1.728 -0.1785 -0.1930  1.7332
  858MOL0     H15822   4.708   1.684   1.689  0.3671  0.7780 -1.3982
  858MOL0     H15823   4.564   1.754   1.601 -0.2600  1.3787  2.2504
  858MOL0     H15824   4.732   1.505   1.556  1.1132  1.7302  1.4926
  858MOL0     H15825   4.587   1.528   1.453  2.0469 -1.2161 -2.2744
  858MOL0     H15826   4.860   1.706   1.235  0.1996  0.0861  0.5111
  858MOL0     H15827   4.479   1.771   2.083  0.0712 -1.0824  0.9590
  858MOL0     H15828   4.505   1.869   2.423  3.4073 -3.6522  1.2868
  858MOL0     H15829   4.404   1.882   2.273  1.7952 -2.0497 -3.0189
  858MOL0     H15830   4.379   1.746   2.372  1.4382 -1.6259 -2.7165
  859MOL0     O15831   5.932   4.864   2.296  0.6463 -0.7135  0.5070
  859MOL0     C15832   6.010   4.896   2.201  0.3582  0.3062 -0.6388
  859MOL0     O15833   6.135   4.945   2.215 -0.0219  0.3687 -0.2932
  859MOL0     C15834   6.183   4.949   2.344 -0.0294  0.3721 -0.4242
  859MOL0     C15835   6.300   4.890   2.380  0.4530  1.6052  0.1097
  859MOL0     C15836   6.353   4.903   2.508  0.0978 -0.1694 -0.1071
  859MOL0     C15837   6.285   4.981   2.605 -1.2948 -0.5181 -0.5283
  859MOL0     O15838   6.335   4.994   2.732 -0.7809  0.1905 -0.4819
  859MOL0     C15839   6.477   5.016   2.746 -0.6546 -0.7166  0.5998
  859MOL0     C15840   6.510   5.174   2.767 -0.7670  0.4999 -0.6731
  859MOL0     C15841   6.475   5.269   2.653 -0.7812 -1.5987  0.4465
  859MOL0     C15842   6.324   5.323   2.665 -0.4588  0.9771 -0.5427
  859MOL0     C15843   6.316   5.473   2.706  0.4714  0.1230 -0.1523
  859MOL0     C15844   6.171   5.526   2.717 -0.0376  0.3331 -0.1197
  859MOL0     C15845   6.098   5.534   2.596 -0.5461  0.1813  0.0514
  859MOL0     C15846   5.955   5.574   2.624 -0.7201  0.0461 -0.3410
  859MOL0     N15847   5.890   5.644   2.509  0.2247  1.0411 -0.2958
  859MOL0     C15848   5.850   5.575   2.403  0.6269  0.6000  0.5530
  859MOL0     C15849   5.798   5.681   2.320  0.0603  0.4743  0.6110
  859MOL0     C15850   5.761   5.678   2.171 -0.5716  0.4107 -0.3547
  859MOL0     C15851   5.832   5.771   2.075 -0.1217  0.3213 -0.4447
  859MOL0     C15852   5.827   5.924   2.106 -0.0107  0.4178  0.1947
  859MOL0     C15853   5.873   6.016   1.988  0.1651  0.1825 -0.3591
  859MOL0     O15854   5.776   6.079   1.911  0.3853  0.4987 -0.6545
  859MOL0     C15855   5.671   6.142   1.966  0.4140  0.4835 -0.4786
  859MOL0     C15856   5.556   6.144   1.885 -0.5111 -0.0637 -0.0667
  859MOL0     C15857   5.439   6.193   1.935  1.1116 -0.7003  0.4871
  859MOL0     C15858   5.431   6.260   2.059  0.0455 -0.2871 -0.1401
  859MOL0     C15859   5.305   6.299   2.110 -1.2997  0.5224 -0.3119
  859MOL0     O15860   5.202   6.272   2.029 -0.2130  0.2116  0.5889
  859MOL0     C15861   5.076   6.241   2.070 -0.4706 -0.0114 -0.9639
  859MOL0     C15862   5.009   6.128   2.017 -0.1539 -0.3802  0.5545
  859MOL0     C15863   4.891   6.090   2.076  0.0767  0.0423 -0.0624
  859MOL0     C15864   4.831   6.160   2.183  0.4107 -0.3708  1.2342
  859MOL0     O15865   4.707   6.144   2.240  0.2279 -0.5703 -0.8224
  859MOL0     C15866   4.612   6.076   2.166  0.8478  0.0279 -0.7934
  859MOL0     C15867   4.524   6.153   2.080  0.0686  0.0510  0.0996
  859MOL0     C15868   4.580   6.179   1.939 -0.0224  0.8140  0.8366
  859MOL0     C15869   4.573   6.047   1.857  0.0854  0.0409 -1.0748
  859MOL0     C15870   4.505   6.064   1.721  0.0050 -0.6702  0.2463
  859MOL0     C15871   4.518   5.940   1.629  0.8625 -1.1589  0.7054
  859MOL0     C15872   4.658   5.910   1.578  0.7413 -0.0785  0.1620
  859MOL0     C15873   4.656   5.798   1.466  0.5519 -0.1991 -0.0504
  859MOL0    Cl15874   4.573   5.651   1.522  0.4588 -0.1705  0.5305
  859MOL0     C15875   4.896   6.268   2.230 -0.4541 -0.3428  0.1943
  859MOL0     C15876   5.013   6.317   2.169  0.0330 -0.6346 -0.3294
  859MOL0     O15877   5.295   6.325   2.232 -0.1881 -0.6982  0.6557
  859MOL0     C15878   5.553   6.259   2.141  0.1969 -0.7833 -0.4500
  859MOL0     C15879   5.668   6.197   2.095  0.2829  0.4197 -0.3469
  859MOL0     N15880   5.827   5.798   2.388  0.5401  0.2757  0.5042
  859MOL0     N15881   5.878   5.775   2.500  0.8037  0.3783 -0.2558
  859MOL0     C15882   6.177   5.047   2.570 -0.3501  0.8990  0.6221
  859MOL0     C15883   6.134   5.047   2.436  0.4790  0.5440  0.8765
  859MOL0     C15884   5.975   4.869   2.054  1.3859 -0.4058  0.5251
  859MOL0     C15885   6.042   4.943   1.953  0.1498  0.3834 -0.6467
  859MOL0     C15886   6.010   4.909   1.821  0.6571  1.0615 -0.3102
  859MOL0     C15887   5.920   4.814   1.780 -0.7527  0.4253 -0.2996
  859MOL0     O15888   5.907   4.791   1.641 -0.2254  0.6948 -1.0088
  859MOL0     C15889   5.829   4.683   1.583 -0.5155  0.4889  1.0568
  859MOL0     C15890   5.812   4.755   1.456  0.9998  0.4912  0.1594
  859MOL0     C15891   5.726   4.661   1.367  0.7013  1.3960  0.1498
  859MOL0     C15892   5.673   4.718   1.236 -0.1153 -1.5359  0.3147
  859MOL0     C15893   5.789   4.761   1.143 -0.0100 -0.6323 -1.2070
  859MOL0     C15894   5.876   4.783   1.068 -0.9007  0.2991 -0.4997
  859MOL0     C15895   5.865   4.737   1.876 -0.2740  0.3437 -0.3242
  859MOL0     C15896   5.895   4.759   2.010  0.5956 -0.1188 -0.2076
  859MOL0     C15897   5.838   4.652   2.101  0.3775 -0.7063  0.2936
  859MOL0     H15898   6.334   4.816   2.309 -0.7392  1.0131  0.1323
  859MOL0     H15899   6.448   4.851   2.523  0.9229  1.0075 -1.0511
  859MOL0     H15900   6.517   4.961   2.832  0.6769  3.5141  3.0009
  859MOL0     H15901   6.536   5.007   2.655 -0.2093  1.4645  0.6080
  859MOL0     H15902   6.617   5.174   2.789 -0.5396 -3.2589 -1.1032
  859MOL0     H15903   6.475   5.213   2.864 -2.2518 -2.0993 -0.0502
  859MOL0     H15904   6.495   5.226   2.554 -1.4990  2.7606 -1.7998
  859MOL0     H15905   6.551   5.347   2.653 -1.9155 -0.4693  0.8783
  859MOL0     H15906   6.277   5.303   2.568 -4.2130 -0.9344  1.4653
  859MOL0     H15907   6.277   5.271   2.749 -0.9640  1.4966 -0.4955
  859MOL0     H15908   6.365   5.476   2.803 -1.3637 -0.1254  0.8212
  859MOL0     H15909   6.388   5.518   2.636  2.5984 -2.1876  0.3847
  859MOL0     H15910   6.127   5.462   2.794  0.1814  1.2530  0.8003
  859MOL0     H15911   6.174   5.623   2.768  0.4711  1.1469 -1.6307
  859MOL0     H15912   6.086   5.433   2.556 -3.4806 -0.1431  1.5267
  859MOL0     H15913   6.133   5.606   2.520  0.7672  0.4074  0.8389
  859MOL0     H15914   5.899   5.482   2.646 -0.4800 -0.1816 -0.6583
  859MOL0     H15915   5.940   5.631   2.715 -1.8355 -1.6171  0.5756
  859MOL0     H15916   5.874   5.472   2.381  1.3879  0.8293  0.2804
  859MOL0     H15917   5.783   5.576   2.137 -0.6388 -0.7257  2.6938
  859MOL0     H15918   5.653   5.691   2.160 -0.8615 -1.6485 -0.3796
  859MOL0     H15919   5.939   5.764   2.096 -0.1893  3.7301  1.7865
  859MOL0     H15920   5.819   5.754   1.968  0.7472 -2.6716 -0.1593
  859MOL0     H15921   5.887   5.940   2.196 -1.0918 -2.7414  1.6308
  859MOL0     H15922   5.724   5.951   2.129 -0.8964 -1.6131 -1.0072
  859MOL0     H15923   5.940   5.957   1.925  2.1673  0.6778  1.1810
  859MOL0     H15924   5.928   6.101   2.029  1.3709 -0.3933 -0.7429
  859MOL0     H15925   5.572   6.118   1.781 -0.8816 -0.4015 -0.0403
  859MOL0     H15926   5.356   6.195   1.864  0.8208 -1.3705  0.8027
  859MOL0     H15927   5.048   6.076   1.931  0.5722 -1.3241  1.4357
  859MOL0     H15928   4.841   6.000   2.042  0.2478  0.1789 -0.6849
  859MOL0     H15929   4.648   5.985   2.116  0.6046 -1.5897  1.7517
  859MOL0     H15930   4.544   6.035   2.242  3.2355 -0.2977  1.3019
  859MOL0     H15931   4.434   6.092   2.069  0.7391 -1.4619  2.3624
  859MOL0     H15932   4.503   6.252   2.123  2.3997  0.6716 -0.0457
  859MOL0     H15933   4.528   6.262   1.890 -1.5988 -1.9178 -2.4865
  859MOL0     H15934   4.681   6.221   1.946 -0.3213  1.3544  2.5591
  859MOL0     H15935   4.540   5.957   1.908  0.9675  2.3396  4.1875
  859MOL0     H15936   4.676   6.017   1.839 -0.1737 -0.1891 -2.2324
  859MOL0     H15937   4.524   6.159   1.670 -1.6720 -0.0356  0.7392
  859MOL0     H15938   4.400   6.085   1.741  0.1794  1.3152 -0.6265
  859MOL0     H15939   4.476   5.856   1.686 -0.5938 -2.1945 -1.7291
  859MOL0     H15940   4.454   5.965   1.543  0.3759  1.3856  1.7084
  859MOL0     H15941   4.729   5.873   1.652  0.8896  0.1663  0.1428
  859MOL0     H15942   4.688   6.001   1.526 -0.3132  0.8584  1.1733
  859MOL0     H15943   4.595   5.831   1.382  0.3410 -0.8666 -0.1571
  859MOL0     H15944   4.753   5.784   1.417 -0.1217  0.0087 -1.4802
  859MOL0     H15945   4.850   6.320   2.313  0.5764  2.2370 -0.7396
  859MOL0     H15946   5.054   6.407   2.215  1.3609  0.0116 -2.5941
  859MOL0     H15947   5.550   6.286   2.246 -0.2277 -3.2185  0.2252
  859MOL0     H15948   5.745   6.197   2.170 -0.2398 -1.8048  0.2563
  859MOL0     H15949   6.113   5.095   2.643 -4.2375 -1.3414 -0.9828
  859MOL0     H15950   6.044   5.104   2.418  1.6934  3.0348  2.2203
  859MOL0     H15951   6.114   5.019   1.982  1.8772 -0.6365 -2.0545
  859MOL0     H15952   6.049   4.972   1.742 -0.9099  0.2287 -1.8205
  859MOL0     H15953   5.737   4.650   1.631 -1.5005 -0.2629 -1.2315
  859MOL0     H15954   5.894   4.597   1.563  2.4213  2.8262 -0.1360
  859MOL0     H15955   5.908   4.778   1.410  1.3892 -1.0327  0.1678
  859MOL0     H15956   5.748   4.841   1.477  2.0580  1.3999 -0.2646
  859MOL0     H15957   5.638   4.617   1.416  0.8044  2.0264  0.9367
  859MOL0     H15958   5.790   4.578   1.339  0.1274  0.6284  1.0562
  859MOL0     H15959   5.614   4.646   1.178  1.3623  0.3171 -3.8875
  859MOL0     H15960   5.611   4.806   1.255 -0.0716 -1.1250 -1.3576
  859MOL0     H15961   5.949   4.792   0.990 -1.6886 -1.7281 -1.5408
  859MOL0     H15962   5.816   4.645   1.846  1.5271 -0.6315 -0.3916
  859MOL0     H15963   5.778   4.692   2.184  1.8540 -1.2626  1.6585
  859MOL0     H15964   5.791   4.574   2.040 -0.6462 -0.3389  0.5865
  859MOL0     H15965   5.925   4.603   2.145  1.9231  1.7765  0.1732
  860MOL0     O15966   3.589   2.208  10.740  0.7315 -0.1647  0.1933
  860MOL0     C15967   3.529   2.284  10.660 -0.4878  0.1251  0.0109
  860MOL0     O15968   3.428   2.370  10.697  0.0493 -0.0721  0.2770
  860MOL0     C15969   3.433   2.433  10.814 -0.1861 -0.3325 -0.3542
  860MOL0     C15970   3.548   2.508  10.851 -0.0038 -0.4471 -0.6269
  860MOL0     C15971   3.550   2.568  10.981 -0.4810 -0.0996  1.0119
  860MOL0     C15972   3.444   2.557  11.071  0.1331  0.7012  0.4635
  860MOL0     O15973   3.441   2.604  11.194 -0.4718 -0.2572  0.2744
  860MOL0     C15974   3.566   2.655  11.259 -0.5751 -0.0659  0.2227
  860MOL0     C15975   3.673   2.547  11.274  0.1347  0.4812  0.6537
  860MOL0     C15976   3.815   2.594  11.267  0.4174  0.0753  0.0291
  860MOL0     C15977   3.898   2.468  11.275  0.3005  0.2500  0.4971
  860MOL0     C15978   4.045   2.501  11.305  0.5481  0.3146  0.1561
  860MOL0     C15979   4.119   2.383  11.376 -0.0188 -0.2713 -0.4225
  860MOL0     C15980   4.149   2.255  11.296  0.3622 -1.1453 -0.5188
  860MOL0     C15981   4.261   2.170  11.341 -0.4767  0.6981 -0.5896
  860MOL0     N15982   4.257   2.032  11.276 -0.4772  0.6071  0.0625
  860MOL0     C15983   4.216   1.913  11.328  0.6408  0.3077 -0.1889
  860MOL0     C15984   4.235   1.816  11.232  0.3722 -0.0937 -0.1821
  860MOL0     C15985   4.196   1.668  11.237 -0.0422 -0.1725  0.9777
  860MOL0     C15986   4.048   1.660  11.275 -0.6956  0.1448 -0.0138
  860MOL0     C15987   4.002   1.516  11.250 -0.2329  0.5207 -0.5547
  860MOL0     C15988   3.856   1.486  11.307  0.3422  1.0359 -0.8604
  860MOL0     O15989   3.753   1.550  11.239 -0.2466 -0.2214  0.0482
  860MOL0     C15990   3.620   1.500  11.240 -0.2011 -0.5926 -0.2335
  860MOL0     C15991   3.558   1.471  11.356 -0.6677  0.0177  0.8285
  860MOL0     C15992   3.425   1.431  11.353 -0.4208  0.5275 -0.5868
  860MOL0     C15993   3.351   1.408  11.239 -0.2664  0.1668  0.2724
  860MOL0     C15994   3.208   1.371  11.233 -0.2365  0.7732 -0.4806
  860MOL0     O15995   3.117   1.424  11.313 -0.6536  0.0008  0.0545
  860MOL0     C15996   2.991   1.418  11.259  0.2874  0.1951  0.4994
  860MOL0     C15997   2.902   1.306  11.285 -0.6678 -0.3481 -0.7402
  860MOL0     C15998   2.774   1.295  11.224  0.3863 -0.5280 -0.6018
  860MOL0     C15999   2.733   1.400  11.132 -1.0944  0.3080  0.5900
  860MOL0     O16000   2.608   1.396  11.073 -0.8088  0.1778  0.6345
  860MOL0     C16001   2.500   1.449  11.147  0.1714 -0.0055  0.8144
  860MOL0     C16002   2.378   1.359  11.138 -0.4322 -0.7029 -0.7507
  860MOL0     C16003   2.402   1.209  11.182 -0.4962  0.0979  0.0700
  860MOL0     C16004   2.410   1.212  11.336  0.6568  0.2231 -0.1692
  860MOL0     C16005   2.353   1.079  11.398 -0.0897  0.1186  0.5897
  860MOL0     C16006   2.360   1.076  11.548  0.3461  0.2055 -0.9564
  860MOL0     C16007   2.326   0.946  11.612  0.7164 -0.2921 -0.8571
  860MOL0     C16008   2.335   0.955  11.770 -0.5826  0.1450 -0.9581
  860MOL0    Cl16009   2.507   0.970  11.819  0.1236 -0.2401  0.1166
  860MOL0     C16010   2.816   1.512  11.110 -0.2458 -0.0557  0.0431
  860MOL0     C16011   2.940   1.523  11.181  0.5993  0.1868 -0.5682
  860MOL0     O16012   3.179   1.279  11.152 -1.2446  0.0196 -0.6244
  860MOL0     C16013   3.420   1.442  11.118  0.4295 -0.2574  0.1232
  860MOL0     C16014   3.556   1.482  11.119  1.1469 -1.2752  0.3363
  860MOL0     N16015   4.295   1.887  11.125  0.2829  0.4056 -1.0425
  860MOL0     N16016   4.312   2.012  11.160 -0.1361  0.1285  0.5190
  860MOL0     C16017   3.328   2.491  11.026 -0.2830 -0.0371  0.9863
  860MOL0     C16018   3.325   2.429  10.899  0.0637 -0.4858  0.2256
  860MOL0     C16019   3.539   2.270  10.517  0.0472 -0.2892  0.2793
  860MOL0     C16020   3.444   2.336  10.437  0.4043 -0.1713 -0.0067
  860MOL0     C16021   3.450   2.317  10.292  0.0204 -0.7654 -0.9058
  860MOL0     C16022   3.560   2.245  10.235 -0.0651 -0.6588  0.5067
  860MOL0     O16023   3.563   2.228  10.101 -0.1066 -0.5498  0.4432
  860MOL0     C16024   3.689   2.229  10.034  0.2567  0.9254  1.0288
  860MOL0     C16025   3.670   2.302   9.900  0.2297 -0.2785  0.2898
  860MOL0     C16026   3.565   2.419   9.888 -1.1717  0.3214 -0.4217
  860MOL0     C16027   3.593   2.510   9.771 -0.8797 -0.4311  0.2004
  860MOL0     C16028   3.720   2.577   9.788  0.0553  0.2990  0.0109
  860MOL0     C16029   3.811   2.659   9.808  0.7444 -0.8582 -0.7351
  860MOL0     C16030   3.653   2.184  10.316  1.1421 -0.1594 -0.3301
  860MOL0     C16031   3.646   2.202  10.456  1.1850 -0.6991 -0.6837
  860MOL0     C16032   3.765   2.141  10.531 -0.2923  0.2344  0.1941
  860MOL0     H16033   3.630   2.524  10.781 -0.9962  1.1287 -1.4731
  860MOL0     H16034   3.640   2.624  11.004 -0.7902  0.2354  1.4136
  860MOL0     H16035   3.612   2.732  11.196  2.1959 -1.4514  0.3670
  860MOL0     H16036   3.531   2.696  11.354 -0.2164  3.1382 -0.9052
  860MOL0     H16037   3.659   2.476  11.193 -1.8415  1.3325  0.1917
  860MOL0     H16038   3.660   2.510  11.377 -2.9607  0.3503  0.3049
  860MOL0     H16039   3.823   2.662  11.352 -3.0119 -0.8215  1.2248
  860MOL0     H16040   3.837   2.647  11.174  2.9416  1.9609  1.5572
  860MOL0     H16041   3.861   2.411  11.361  2.2780 -0.7290  0.7593
  860MOL0     H16042   3.887   2.393  11.196  0.9428 -1.0257  1.5811
  860MOL0     H16043   4.101   2.516  11.212  0.7596 -2.0874 -0.1595
  860MOL0     H16044   4.057   2.592  11.365 -1.1492  0.1065  0.8729
  860MOL0     H16045   4.213   2.423  11.417  0.8273 -0.7780 -1.8109
  860MOL0     H16046   4.050   2.353  11.455 -2.5073  2.0450 -1.5584
  860MOL0     H16047   4.177   2.293  11.198  2.3095 -0.7140  0.1666
  860MOL0     H16048   4.060   2.191  11.299  0.1002 -0.7735 -0.3479
  860MOL0     H16049   4.349   2.229  11.316 -0.6108  2.0467  1.8140
  860MOL0     H16050   4.254   2.177  11.450  0.8628  3.3395 -0.6072
  860MOL0     H16051   4.152   1.894  11.413  0.4655  1.3416 -0.0808
  860MOL0     H16052   4.200   1.618  11.140 -2.4217 -3.1552  2.2776
  860MOL0     H16053   4.262   1.620  11.310  0.8769 -0.9097 -0.2872
  860MOL0     H16054   4.044   1.689  11.380 -1.4441 -0.0359  0.0167
  860MOL0     H16055   3.983   1.739  11.235  1.8533  1.9266 -0.9346
  860MOL0     H16056   4.077   1.453  11.299 -1.1141 -0.1785 -0.0649
  860MOL0     H16057   3.998   1.491  11.144 -1.1768 -1.2892 -0.1465
  860MOL0     H16058   3.849   1.525  11.410 -0.4922  1.1404 -0.9478
  860MOL0     H16059   3.855   1.377  11.304  1.6067  1.0210 -1.1446
  860MOL0     H16060   3.607   1.480  11.453 -0.1859 -2.4067  0.8723
  860MOL0     H16061   3.378   1.423  11.451  1.8274 -0.8012  0.4896
  860MOL0     H16062   2.936   1.228  11.352  2.1616  0.8653 -0.6210
  860MOL0     H16063   2.704   1.220  11.261 -0.4224  0.9388  0.9809
  860MOL0     H16064   2.536   1.466  11.249 -2.6680  1.6395  1.6275
  860MOL0     H16065   2.477   1.542  11.094  0.9908 -2.1557 -3.8200
  860MOL0     H16066   2.297   1.398  11.201  1.8856 -1.9566  3.4108
  860MOL0     H16067   2.333   1.356  11.038 -0.6001  2.5763 -0.8642
  860MOL0     H16068   2.319   1.147  11.147 -0.1070  0.1710 -1.0366
  860MOL0     H16069   2.502   1.182  11.145  0.5282  2.1813  1.1149
  860MOL0     H16070   2.366   1.301  11.381  1.1294  0.1744  0.3987
  860MOL0     H16071   2.512   1.225  11.373 -0.1516  1.5983  1.7169
  860MOL0     H16072   2.399   0.993  11.348  1.4613  1.5565 -0.6191
  860MOL0     H16073   2.247   1.070  11.376  0.3748 -1.3366 -1.3314
  860MOL0     H16074   2.458   1.105  11.588 -0.9386  0.0055  2.7391
  860MOL0     H16075   2.297   1.154  11.593 -0.3187 -2.2803  2.9604
  860MOL0     H16076   2.397   0.867  11.583 -0.3023 -0.6194 -2.5980
  860MOL0     H16077   2.224   0.920  11.584  1.1458  0.0287 -2.9153
  860MOL0     H16078   2.290   1.048  11.805 -4.7883 -2.2637  0.7638
  860MOL0     H16079   2.284   0.867  11.811 -0.1989  0.0327 -0.7159
  860MOL0     H16080   2.781   1.590  11.043  1.7756  0.7732 -0.1278
  860MOL0     H16081   3.005   1.610  11.183 -1.4168  1.7650  0.6382
  860MOL0     H16082   3.378   1.420  11.020  1.6677  0.2594 -0.5489
  860MOL0     H16083   3.617   1.508  11.033  1.4796 -0.3362  0.8388
  860MOL0     H16084   3.247   2.464  11.094  1.6806 -1.9816  2.7361
  860MOL0     H16085   3.243   2.364  10.872  1.2440 -1.6663 -0.6584
  860MOL0     H16086   3.360   2.386  10.483  0.2411 -1.0946  0.7402
  860MOL0     H16087   3.376   2.356  10.223  0.0499 -0.9362 -1.0339
  860MOL0     H16088   3.707   2.121  10.024  0.2883  0.8981  1.3649
  860MOL0     H16089   3.764   2.280  10.095  0.4546  0.0169  1.5729
  860MOL0     H16090   3.646   2.221   9.830  1.3848 -0.8148  0.4836
  860MOL0     H16091   3.770   2.344   9.884  0.1109 -0.3985 -0.8624
  860MOL0     H16092   3.573   2.481   9.978  0.4050 -2.7987  1.7880
  860MOL0     H16093   3.462   2.384   9.874 -0.8107 -2.7995  3.0835
  860MOL0     H16094   3.607   2.449   9.682 -0.7354 -1.4625  0.9049
  860MOL0     H16095   3.507   2.577   9.762 -0.9796 -0.6619 -0.5571
  860MOL0     H16096   3.890   2.725   9.834  1.9920 -2.8608  0.8857
  860MOL0     H16097   3.720   2.112  10.271 -1.8393 -1.9568 -2.2553
  860MOL0     H16098   3.828   2.084  10.463  0.9899 -0.8420  2.1741
  860MOL0     H16099   3.818   2.230  10.566 -1.3427  1.3397 -0.9298
  860MOL0     H16100   3.736   2.078  10.617 -2.6504  1.0257  0.0710
  861MOL0     O16101  10.693   6.771  11.018 -0.2828  0.2957  0.1393
  861MOL0     C16102  10.724   6.692  10.930  0.0719 -0.9376 -0.3601
  861MOL0     O16103  10.760   6.735  10.803 -0.0236  0.4152 -0.5568
  861MOL0     C16104  10.704   6.861  10.765 -0.3398  0.1090  0.2414
  861MOL0     C16105  10.778   6.939  10.670  1.0458 -0.0984  0.2017
  861MOL0     C16106  10.718   7.064  10.629  0.8929 -0.0603  0.0534
  861MOL0     C16107  10.594   7.109  10.667  0.1424  0.3089 -0.8510
  861MOL0     O16108  10.546   7.231  10.616  0.0515  0.3709 -0.8798
  861MOL0     C16109  10.422   7.288  10.677  0.1727  0.0570 -0.0010
  861MOL0     C16110  10.386   7.425  10.619 -0.7812 -0.7271  0.2564
  861MOL0     C16111  10.259   7.495  10.674  0.0827 -0.7453  0.1311
  861MOL0     C16112  10.225   7.628  10.608 -0.7977  0.2484 -1.0889
  861MOL0     C16113  10.151   7.719  10.698  0.4510 -0.3066 -0.5315
  861MOL0     C16114  10.096   7.844  10.635 -0.8284  1.0375 -0.0922
  861MOL0     C16115  10.196   7.958  10.609  0.2966 -0.0809  0.4265
  861MOL0     C16116  10.129   8.085  10.541  0.5220  0.2464  0.0418
  861MOL0     N16117  10.164   8.089  10.400 -1.3589 -0.5419  0.0025
  861MOL0     C16118  10.093   8.028  10.299 -0.3501  0.0149 -0.8132
  861MOL0     C16119  10.180   8.031  10.195  0.5840 -0.3776 -0.1399
  861MOL0     C16120  10.150   7.996  10.050  0.2831 -0.5472 -0.0149
  861MOL0     C16121  10.027   8.074   9.997 -0.4038  0.1968  0.5580
  861MOL0     C16122  10.004   8.040   9.846 -0.1318 -0.1729 -0.1816
  861MOL0     C16123   9.948   7.895   9.829  0.0955 -0.3547  1.0150
  861MOL0     O16124   9.928   7.867   9.691  0.0381  0.1544  0.2172
  861MOL0     C16125   9.809   7.895   9.626 -0.2839 -0.3926  0.3297
  861MOL0     C16126   9.689   7.951   9.679  0.1149 -0.2255 -0.5134
  861MOL0     C16127   9.570   7.945   9.599  0.4044 -0.0775  0.1674
  861MOL0     C16128   9.561   7.905   9.470  0.3092  0.0228 -0.9825
  861MOL0     C16129   9.434   7.913   9.402 -0.2910  0.9580  0.8149
  861MOL0     O16130   9.340   7.989   9.462  0.2779 -0.0322 -0.2116
  861MOL0     C16131   9.208   7.992   9.428 -0.2215 -0.1021  0.0723
  861MOL0     C16132   9.151   8.107   9.488  0.0677 -0.1949 -0.1768
  861MOL0     C16133   9.013   8.133   9.463 -0.3910 -0.1629 -0.2592
  861MOL0     C16134   8.927   8.032   9.406 -0.3209  0.4075 -0.0771
  861MOL0     O16135   8.783   8.045   9.383 -0.3286  0.3230 -0.5823
  861MOL0     C16136   8.720   8.106   9.496 -0.2211  0.6502  0.3744
  861MOL0     C16137   8.754   8.045   9.641 -0.3085  0.6443 -0.5627
  861MOL0     C16138   8.750   8.144   9.758 -1.0567  0.4681  0.4814
  861MOL0     C16139   8.768   8.078   9.898  0.7051  0.6204 -0.1332
  861MOL0     C16140   8.645   7.998   9.940  0.6211 -1.6050 -0.0175
  861MOL0     C16141   8.582   8.061  10.066 -0.7643  1.0375 -0.0905
  861MOL0     C16142   8.678   8.034  10.193 -0.2994 -0.2348  0.0523
  861MOL0     C16143   8.611   8.102  10.321 -0.2120 -0.0825 -0.1485
  861MOL0    Cl16144   8.741   8.079  10.451 -0.5001  0.3126  0.1425
  861MOL0     C16145   8.991   7.920   9.351  0.1157 -1.3104  0.2930
  861MOL0     C16146   9.134   7.899   9.352  0.1075  0.0771 -0.2176
  861MOL0     O16147   9.422   7.852   9.295  0.6192 -0.0198 -0.2409
  861MOL0     C16148   9.676   7.848   9.414  0.1647  0.1538 -0.4342
  861MOL0     C16149   9.794   7.853   9.485 -0.3050 -0.5579  0.1989
  861MOL0     N16150  10.284   8.100  10.237  0.0014  0.7682 -0.0898
  861MOL0     N16151  10.287   8.126  10.360  0.9402 -0.6940  0.7563
  861MOL0     C16152  10.520   7.032  10.751  0.6461  0.2588 -0.2838
  861MOL0     C16153  10.571   6.910  10.789 -0.1738  2.3792 -0.9664
  861MOL0     C16154  10.737   6.546  10.967 -0.7353  0.8747  0.9228
  861MOL0     C16155  10.763   6.503  11.106  0.4487 -0.3351 -0.1456
  861MOL0     C16156  10.754   6.370  11.138  0.8032  0.7323 -0.7570
  861MOL0     C16157  10.737   6.264  11.043 -0.1683  0.3965  0.2613
  861MOL0     O16158  10.754   6.136  11.091  0.0650 -1.1459  0.0819
  861MOL0     C16159  10.836   6.055  11.012  0.4030  0.2024  1.0395
  861MOL0     C16160  10.902   5.951  11.103 -0.3273  0.7527 -0.1397
  861MOL0     C16161  10.849   5.808  11.105  0.2442 -0.3601  0.6528
  861MOL0     C16162  10.893   5.742  11.232  0.4330 -0.5150  0.3883
  861MOL0     C16163  11.034   5.699  11.222  0.8245 -0.6867 -0.0941
  861MOL0     C16164  11.151   5.676  11.205 -0.1647 -0.0389 -0.2324
  861MOL0     C16165  10.717   6.298  10.909 -0.0184  0.2398 -0.1284
  861MOL0     C16166  10.711   6.439  10.873 -0.5616  1.2160 -0.0620
  861MOL0     C16167  10.654   6.476  10.739 -0.5720 -0.5823  0.4455
  861MOL0     H16168  10.873   6.902  10.634  1.7874  0.6822  1.2896
  861MOL0     H16169  10.774   7.116  10.552  1.6609 -2.2916 -0.9941
  861MOL0     H16170  10.340   7.220  10.656  0.9153 -0.5638 -0.9938
  861MOL0     H16171  10.436   7.309  10.783 -1.2784  2.5812 -0.2184
  861MOL0     H16172  10.356   7.409  10.515 -1.3308  3.6822 -0.4463
  861MOL0     H16173  10.464   7.501  10.627 -0.7016 -0.9574  1.8746
  861MOL0     H16174  10.265   7.509  10.782  0.7979 -0.3212  0.0412
  861MOL0     H16175  10.178   7.426  10.647 -2.2414  1.3688  1.3227
  861MOL0     H16176  10.318   7.678  10.581 -0.0512 -1.5739 -2.1063
  861MOL0     H16177  10.157   7.612  10.523 -0.3560 -0.9251 -1.2434
  861MOL0     H16178  10.061   7.662  10.725 -1.1013  2.7792  1.3422
  861MOL0     H16179  10.208   7.750  10.786 -0.1631 -0.8983  0.0950
  861MOL0     H16180  10.057   7.805  10.541  2.3491 -1.6874 -0.4699
  861MOL0     H16181  10.032   7.883  10.714 -2.4325  3.8885 -2.5580
  861MOL0     H16182  10.288   7.919  10.564 -0.2570 -2.8029  1.4434
  861MOL0     H16183  10.226   7.998  10.706 -1.6632 -2.9862  2.3892
  861MOL0     H16184  10.020   8.089  10.538  0.5468  3.3410 -3.0442
  861MOL0     H16185  10.163   8.180  10.583  0.0136 -0.4347  2.1571
  861MOL0     H16186   9.995   7.984  10.285 -0.4957 -0.8741  2.3219
  861MOL0     H16187  10.235   8.010   9.983  2.0619  1.1805  2.4124
  861MOL0     H16188  10.134   7.888  10.056  0.4027 -0.5034  2.1679
  861MOL0     H16189   9.940   8.063  10.063  0.5514 -0.0820  1.7954
  861MOL0     H16190  10.057   8.179   9.999 -0.3224  0.2166 -0.7514
  861MOL0     H16191  10.094   8.058   9.787 -0.2640  0.2300 -0.2668
  861MOL0     H16192   9.936   8.119   9.812 -0.9488 -0.9212 -0.3357
  861MOL0     H16193   9.853   7.883   9.882 -1.4595  0.2219 -1.5268
  861MOL0     H16194  10.019   7.821   9.868  3.9532  0.7444 -3.0907
  861MOL0     H16195   9.688   8.010   9.770  0.6346  1.6178 -1.6400
  861MOL0     H16196   9.493   8.004   9.646  1.0760  0.5809  0.4569
  861MOL0     H16197   9.211   8.177   9.544  0.7142 -1.6034  0.9682
  861MOL0     H16198   8.972   8.222   9.509 -0.5362 -0.2799 -0.1621
  861MOL0     H16199   8.725   8.215   9.497 -1.4518  0.7976 -1.9982
  861MOL0     H16200   8.619   8.068   9.473 -0.6612  0.9893  1.7030
  861MOL0     H16201   8.688   7.961   9.667  0.8087  0.1324  0.7771
  861MOL0     H16202   8.856   8.004   9.637  0.5088  2.2588  1.6084
  861MOL0     H16203   8.834   8.212   9.743 -0.5075 -0.3872 -0.4511
  861MOL0     H16204   8.648   8.182   9.744 -1.0144 -0.0163 -1.3765
  861MOL0     H16205   8.783   8.158   9.970 -4.8077  2.2343 -0.2592
  861MOL0     H16206   8.859   8.018   9.908 -0.4257 -0.9259  1.6107
  861MOL0     H16207   8.663   7.894   9.970 -2.6696 -3.0843 -2.5101
  861MOL0     H16208   8.569   8.005   9.862 -1.4283 -2.9243  1.7319
  861MOL0     H16209   8.563   8.169  10.056  0.4324  1.6047  2.6269
  861MOL0     H16210   8.494   7.996  10.073  0.3945 -0.5117  0.6651
  861MOL0     H16211   8.776   8.074  10.163  0.1515 -2.9007 -2.5033
  861MOL0     H16212   8.692   7.927  10.211  0.4884 -0.4148 -1.5051
  861MOL0     H16213   8.594   8.210  10.310  3.6910  1.0569  2.7736
  861MOL0     H16214   8.529   8.045  10.364 -0.6553 -0.1034 -1.0003
  861MOL0     H16215   8.928   7.846   9.302 -1.3327  0.6732 -1.0194
  861MOL0     H16216   9.176   7.810   9.306  1.8279  0.3414  0.7225
  861MOL0     H16217   9.682   7.818   9.310  2.0186 -0.0203 -0.3156
  861MOL0     H16218   9.882   7.815   9.435  0.1236 -0.2598  0.7160
  861MOL0     H16219  10.422   7.060  10.787  1.9435  3.4420  1.1642
  861MOL0     H16220  10.497   6.846  10.836  0.6790  0.3010 -2.3080
  861MOL0     H16221  10.786   6.572  11.186 -0.2369 -0.9390  0.5881
  861MOL0     H16222  10.763   6.345  11.244 -1.3083 -1.0109 -0.9311
  861MOL0     H16223  10.902   6.110  10.945  2.3573  0.0763  2.7498
  861MOL0     H16224  10.786   5.990  10.940  1.5603 -2.6612  2.6331
  861MOL0     H16225  10.913   5.994  11.203  1.5064 -3.5118  1.7451
  861MOL0     H16226  11.011   5.944  11.088 -0.0335  2.0446  1.0929
  861MOL0     H16227  10.872   5.747  11.017 -2.9130  0.5633 -0.9661
  861MOL0     H16228  10.739   5.808  11.108 -0.1150 -4.9008 -2.4425
  861MOL0     H16229  10.869   5.813  11.312 -1.6416  1.5852 -1.9491
  861MOL0     H16230  10.823   5.659  11.250 -1.2887  1.2889  2.7680
  861MOL0     H16231  11.248   5.638  11.181 -0.3604 -2.6831  2.5645
  861MOL0     H16232  10.701   6.215  10.841  0.8099  0.1922 -0.2799
  861MOL0     H16233  10.576   6.551  10.756 -0.5596 -0.7881  1.5255
  861MOL0     H16234  10.729   6.516  10.671 -1.9574  0.4742 -0.5142
  861MOL0     H16235  10.607   6.395  10.683  0.4758 -2.1538  1.7509
  862MOL0     O16236   3.488   7.935   6.654  0.5761  0.1892 -0.4586
  862MOL0     C16237   3.499   8.056   6.632  0.9325  0.2057 -0.3271
  862MOL0     O16238   3.606   8.114   6.585  0.3369 -0.3893  0.6397
  862MOL0     C16239   3.697   8.030   6.522 -0.5672  0.2352  0.7183
  862MOL0     C16240   3.777   7.938   6.585 -0.0426  0.7221 -0.1454
  862MOL0     C16241   3.857   7.847   6.523 -0.7850  1.1808 -0.1846
  862MOL0     C16242   3.857   7.835   6.385 -0.6805  0.1928 -0.0920
  862MOL0     O16243   3.941   7.741   6.336  0.1620 -0.2750 -0.1674
  862MOL0     C16244   3.963   7.719   6.191  0.2801  0.4082  0.1383
  862MOL0     C16245   4.057   7.590   6.170 -0.7674  0.3247  0.3200
  862MOL0     C16246   4.011   7.469   6.257 -0.2960 -0.3101 -0.2759
  862MOL0     C16247   3.959   7.362   6.161  0.6354 -0.3651 -0.8825
  862MOL0     C16248   3.930   7.236   6.235  0.0836  0.2680  0.9001
  862MOL0     C16249   3.885   7.114   6.152 -0.6634  0.9063  1.1446
  862MOL0     C16250   3.993   7.054   6.060 -0.2464  0.2450  0.7978
  862MOL0     C16251   3.969   6.917   6.000 -0.7596  0.3756  0.4186
  862MOL0     N16252   4.098   6.867   5.930  0.6613  0.2275 -0.1275
  862MOL0     C16253   4.184   6.775   5.980  0.1192  0.0423 -0.0685
  862MOL0     C16254   4.267   6.755   5.874  0.8000  0.7175 -0.6094
  862MOL0     C16255   4.381   6.656   5.861  0.1545 -0.1094 -0.1604
  862MOL0     C16256   4.328   6.512   5.853  0.2455  0.4863  0.2880
  862MOL0     C16257   4.417   6.423   5.771  0.2588 -1.2680 -0.1429
  862MOL0     C16258   4.379   6.273   5.781 -0.2863 -0.2350 -0.1548
  862MOL0     O16259   4.272   6.251   5.684  1.2203 -0.7580  0.1474
  862MOL0     C16260   4.274   6.141   5.601  0.5672  0.3964 -1.1177
  862MOL0     C16261   4.314   6.011   5.641  0.5288  0.0763 -0.2527
  862MOL0     C16262   4.313   5.909   5.551 -0.3187  0.0599 -0.3175
  862MOL0     C16263   4.271   5.925   5.418  0.3806  0.4167  0.7343
  862MOL0     C16264   4.263   5.809   5.325  0.6880  0.8623  0.8442
  862MOL0     O16265   4.295   5.688   5.379 -0.2465  0.3667 -0.1993
  862MOL0     C16266   4.326   5.578   5.303 -0.2595 -0.0987 -0.7946
  862MOL0     C16267   4.386   5.596   5.177  0.1821 -0.0036 -0.3462
  862MOL0     C16268   4.450   5.476   5.115  0.5422  0.1777 -0.0008
  862MOL0     C16269   4.420   5.349   5.165 -0.6394  0.5699  0.1588
  862MOL0     O16270   4.473   5.257   5.087 -0.1030  0.9146  0.5318
  862MOL0     C16271   4.404   5.128   5.096  0.1693  0.2329  0.0380
  862MOL0     C16272   4.464   5.026   5.000 -0.7375 -0.2319 -0.8693
  862MOL0     C16273   4.408   5.065   4.858 -0.7224  0.8413 -0.3425
  862MOL0     C16274   4.482   5.008   4.742 -0.3150  0.3317  0.9308
  862MOL0     C16275   4.443   4.860   4.747 -0.3643  0.5777  0.5636
  862MOL0     C16276   4.511   4.775   4.633  0.1866  0.2060  0.6008
  862MOL0     C16277   4.489   4.851   4.491 -0.5231  0.7362  0.1377
  862MOL0     C16278   4.358   4.842   4.443  0.4531 -0.4264 -0.2163
  862MOL0    Cl16279   4.347   4.887   4.266 -0.3799  0.2964  0.2004
  862MOL0     C16280   4.341   5.339   5.281  0.6708  0.3751  0.0274
  862MOL0     C16281   4.307   5.450   5.357  0.2084  0.4170  0.2388
  862MOL0     O16282   4.208   5.827   5.213  0.2711  0.1627 -0.1287
  862MOL0     C16283   4.221   6.058   5.382  0.5034  1.0052  0.2309
  862MOL0     C16284   4.221   6.164   5.476  0.3795 -0.1725 -0.4064
  862MOL0     N16285   4.217   6.834   5.770 -0.5248  0.0816 -0.4977
  862MOL0     N16286   4.127   6.907   5.809 -0.5825 -0.2009  0.1459
  862MOL0     C16287   3.778   7.931   6.317  0.7424 -0.1264 -0.2943
  862MOL0     C16288   3.695   8.035   6.381 -0.2599 -0.0935  0.9237
  862MOL0     C16289   3.394   8.152   6.687 -0.5096  1.0485  0.0289
  862MOL0     C16290   3.366   8.136   6.821  0.3436  0.1143  0.0561
  862MOL0     C16291   3.291   8.234   6.890  0.4288 -0.3971  1.1414
  862MOL0     C16292   3.236   8.341   6.809  0.6160 -0.5914 -0.2886
  862MOL0     O16293   3.153   8.428   6.886 -0.0020  0.5244 -0.7963
  862MOL0     C16294   3.072   8.513   6.800  0.2967  0.7520  0.2257
  862MOL0     C16295   2.949   8.461   6.750  0.2023  0.5376  0.0159
  862MOL0     C16296   2.868   8.561   6.668 -0.2740  0.7757 -0.2935
  862MOL0     C16297   2.751   8.635   6.735 -0.1989 -0.6654 -0.3666
  862MOL0     C16298   2.646   8.541   6.769  0.5332 -0.4520  0.5553
  862MOL0     C16299   2.569   8.447   6.805 -0.4292 -0.2853  1.4379
  862MOL0     C16300   3.245   8.337   6.675 -0.4926 -1.0700 -0.2027
  862MOL0     C16301   3.333   8.252   6.614  0.2184 -0.5268  0.1728
  862MOL0     C16302   3.351   8.268   6.462  0.4417  0.4272 -0.1063
  862MOL0     H16303   3.777   7.943   6.693 -3.0799  2.7086 -0.1234
  862MOL0     H16304   3.927   7.777   6.568 -0.8967  0.4972 -1.0463
  862MOL0     H16305   3.863   7.695   6.154 -0.5297 -0.6918  2.7531
  862MOL0     H16306   3.997   7.808   6.138 -3.2143  0.3294 -2.5615
  862MOL0     H16307   4.159   7.609   6.202 -0.9692  0.3429  0.9630
  862MOL0     H16308   4.051   7.556   6.066 -2.9980 -1.2451  0.8697
  862MOL0     H16309   3.927   7.498   6.321  1.7140  2.3788  1.3380
  862MOL0     H16310   4.091   7.443   6.326  1.4722  1.7137 -1.4255
  862MOL0     H16311   3.868   7.399   6.113 -0.3087  3.3891  3.1692
  862MOL0     H16312   4.034   7.346   6.082  2.3352  2.2303  0.0717
  862MOL0     H16313   4.016   7.202   6.293  1.6263  1.5859 -0.4939
  862MOL0     H16314   3.860   7.254   6.318  0.9553  0.2687  1.6434
  862MOL0     H16315   3.856   7.025   6.209 -3.3533  0.6871 -0.4223
  862MOL0     H16316   3.800   7.145   6.092 -0.7156  0.1193  0.8019
  862MOL0     H16317   4.082   7.038   6.121 -0.7978 -0.7597  1.3674
  862MOL0     H16318   4.009   7.132   5.985 -3.0407 -0.1268 -0.3370
  862MOL0     H16319   3.953   6.839   6.076 -0.8972  0.1127  0.1225
  862MOL0     H16320   3.882   6.930   5.936 -1.4683 -1.0309  1.0422
  862MOL0     H16321   4.200   6.735   6.080 -1.1745 -0.4246 -0.0332
  862MOL0     H16322   4.445   6.692   5.779  0.4373 -0.0703  0.0749
  862MOL0     H16323   4.442   6.657   5.952  1.4653 -1.6249 -0.9638
  862MOL0     H16324   4.325   6.462   5.951  2.8228  0.0827  0.2260
  862MOL0     H16325   4.232   6.501   5.802  1.5205  1.5343 -2.5296
  862MOL0     H16326   4.520   6.436   5.804  0.6490 -0.3183 -1.6291
  862MOL0     H16327   4.420   6.460   5.668 -0.3997  1.3230  0.6920
  862MOL0     H16328   4.358   6.255   5.887  4.6853  1.4474  1.4291
  862MOL0     H16329   4.466   6.212   5.756 -2.0191 -2.6266 -0.7381
  862MOL0     H16330   4.360   5.997   5.738  1.4496 -0.7761 -0.7899
  862MOL0     H16331   4.342   5.815   5.596 -1.4078 -2.3505 -4.1276
  862MOL0     H16332   4.393   5.693   5.128 -0.6808 -0.1408 -0.7564
  862MOL0     H16333   4.501   5.477   5.019  0.4413 -2.4235 -0.1334
  862MOL0     H16334   4.426   5.084   5.194  0.4533 -1.4538 -0.7415
  862MOL0     H16335   4.298   5.154   5.092  0.1773  1.5764  3.8480
  862MOL0     H16336   4.572   5.033   5.011 -0.8670  0.6885 -0.1127
  862MOL0     H16337   4.420   4.931   5.033 -2.2235 -0.9470 -4.4166
  862MOL0     H16338   4.300   5.048   4.854 -0.6901 -0.1001  1.7082
  862MOL0     H16339   4.433   5.171   4.851  3.1614  0.1718  0.8901
  862MOL0     H16340   4.587   5.036   4.743 -0.7465  2.0717  1.2303
  862MOL0     H16341   4.444   5.061   4.654 -1.3180  0.2829  1.3226
  862MOL0     H16342   4.334   4.860   4.736 -0.1912 -0.0619 -1.5074
  862MOL0     H16343   4.469   4.817   4.844  0.7449 -2.0395 -0.8054
  862MOL0     H16344   4.618   4.776   4.655 -0.0491 -1.0756  1.9338
  862MOL0     H16345   4.480   4.671   4.632 -0.3837  0.3692  0.7097
  862MOL0     H16346   4.553   4.790   4.426  2.5452 -0.6810  4.0010
  862MOL0     H16347   4.518   4.957   4.491  0.9153  0.4020 -2.0158
  862MOL0     H16348   4.330   4.737   4.455  2.4394 -0.7701  2.5266
  862MOL0     H16349   4.284   4.896   4.503 -0.3323 -2.0449  0.3361
  862MOL0     H16350   4.326   5.240   5.322  0.0276  0.6325  0.4303
  862MOL0     H16351   4.285   5.438   5.463 -1.9964 -2.9273 -0.4353
  862MOL0     H16352   4.185   6.059   5.279  0.0597  4.8176  0.2694
  862MOL0     H16353   4.184   6.264   5.454 -0.6190 -0.4578 -0.0821
  862MOL0     H16354   3.785   7.949   6.210  0.6491 -1.4552 -0.5424
  862MOL0     H16355   3.628   8.099   6.325 -0.3400 -2.0591 -1.3886
  862MOL0     H16356   3.405   8.060   6.888  2.5144  1.7842  0.7877
  862MOL0     H16357   3.279   8.237   6.998  3.3005  0.6737  1.5198
  862MOL0     H16358   3.125   8.555   6.715 -2.6518 -2.1709 -3.4388
  862MOL0     H16359   3.040   8.597   6.863 -2.3294 -0.0648  0.1192
  862MOL0     H16360   2.883   8.436   6.833 -2.1317  0.6007 -1.7021
  862MOL0     H16361   2.961   8.363   6.703  2.0518  0.6952  0.0974
  862MOL0     H16362   2.835   8.504   6.581 -1.1709  0.9885 -0.1091
  862MOL0     H16363   2.936   8.638   6.631  1.1610  1.1024  2.6811
  862MOL0     H16364   2.786   8.692   6.821 -0.1722 -1.9995  0.5337
  862MOL0     H16365   2.705   8.693   6.655 -0.2784  0.5710  0.5532
  862MOL0     H16366   2.482   8.386   6.821 -1.9290  0.7034 -1.9868
  862MOL0     H16367   3.192   8.409   6.613 -0.1629 -0.5506  0.1163
  862MOL0     H16368   3.416   8.189   6.423  3.2631  2.4597  0.1183
  862MOL0     H16369   3.252   8.260   6.417 -0.0191 -2.6889  1.1909
  862MOL0     H16370   3.411   8.358   6.444  1.8096 -0.7890 -2.1003
  863MOL0     O16371  10.436  10.440   3.668 -0.7159  0.8980 -0.1046
  863MOL0     C16372  10.434  10.547   3.621  0.2249  0.6401  0.0480
  863MOL0     O16373  10.311  10.613   3.593 -0.5602 -0.1925 -0.9089
  863MOL0     C16374  10.193  10.565   3.631  0.5146 -0.3514  0.2036
  863MOL0     C16375  10.158  10.491   3.747  0.2558  0.3237  0.4085
  863MOL0     C16376  10.026  10.488   3.783  0.5340 -0.8756 -0.9084
  863MOL0     C16377   9.920  10.556   3.718  0.6080  0.1483 -0.4001
  863MOL0     O16378   9.788  10.559   3.768 -0.4424 -0.3000 -0.2868
  863MOL0     C16379   9.738  10.436   3.826 -0.4957 -0.7041  0.8818
  863MOL0     C16380   9.728  10.314   3.736 -0.6406  0.2052  0.5389
  863MOL0     C16381   9.665  10.203   3.808  0.2854  0.3661 -0.3176
  863MOL0     C16382   9.673  10.073   3.720  0.5222  0.4393 -0.2444
  863MOL0     C16383   9.570   9.969   3.761 -1.1077 -0.8459  0.4552
  863MOL0     C16384   9.600   9.827   3.718 -0.0142  0.1402  0.0185
  863MOL0     C16385   9.487   9.722   3.750  0.4753 -0.9761 -0.9383
  863MOL0     C16386   9.524   9.587   3.684  0.3623  0.6100 -0.5842
  863MOL0     N16387   9.491   9.477   3.780 -0.9106 -0.5718  0.5305
  863MOL0     C16388   9.369   9.403   3.767 -0.5870  0.5246  0.1800
  863MOL0     C16389   9.400   9.287   3.826  0.3829  0.4723  0.8426
  863MOL0     C16390   9.327   9.160   3.859 -0.5749 -0.0002 -0.1735
  863MOL0     C16391   9.325   9.027   3.775 -0.5448 -0.3680  0.9652
  863MOL0     C16392   9.205   8.936   3.797  0.1779  0.5605 -0.2763
  863MOL0     C16393   9.199   8.871   3.936  0.5095  0.2663  0.5005
  863MOL0     O16394   9.074   8.809   3.940  0.0616  0.3425  0.0522
  863MOL0     C16395   9.035   8.722   4.039 -0.9365 -0.5164 -0.1864
  863MOL0     C16396   8.939   8.629   4.008 -1.4352  0.3693 -0.4157
  863MOL0     C16397   8.903   8.540   4.102  0.2707  0.2802 -0.0581
  863MOL0     C16398   8.944   8.550   4.233 -0.5399  0.4682 -0.8217
  863MOL0     C16399   8.898   8.441   4.327 -0.1807  0.4900  0.3207
  863MOL0     O16400   8.824   8.341   4.271 -0.5704 -0.3097  0.3351
  863MOL0     C16401   8.800   8.244   4.364  0.0417  0.3863  0.5707
  863MOL0     C16402   8.892   8.159   4.429 -0.5598 -0.4423  0.6679
  863MOL0     C16403   8.851   8.068   4.520  0.1198 -0.7212  0.1755
  863MOL0     C16404   8.712   8.059   4.559  0.0579 -0.6630  0.3176
  863MOL0     O16405   8.644   7.964   4.628  0.1117  0.1539 -0.7771
  863MOL0     C16406   8.708   7.925   4.752 -0.5276 -0.5108 -0.3593
  863MOL0     C16407   8.613   7.859   4.850 -0.9401  0.1058  0.3441
  863MOL0     C16408   8.665   7.868   4.996  0.0013  0.1155  0.4803
  863MOL0     C16409   8.754   7.746   5.037  0.2893  0.9635 -0.4300
  863MOL0     C16410   8.853   7.782   5.150 -0.2190 -0.4929 -0.2998
  863MOL0     C16411   8.782   7.817   5.282 -0.0844  1.5867 -0.2784
  863MOL0     C16412   8.739   7.679   5.349  0.7618  0.1375  0.6008
  863MOL0     C16413   8.663   7.695   5.479  0.2260  0.4560  0.2912
  863MOL0    Cl16414   8.567   7.548   5.522 -0.6846  0.3430  0.1450
  863MOL0     C16415   8.627   8.151   4.500 -0.4227  1.0420  0.0600
  863MOL0     C16416   8.673   8.239   4.405  0.1603 -0.4861 -0.6430
  863MOL0     O16417   8.921   8.455   4.451 -0.0601 -0.8469 -0.5741
  863MOL0     C16418   9.050   8.630   4.266 -0.0198 -1.4444  0.8067
  863MOL0     C16419   9.097   8.718   4.166 -0.5142  0.2584 -0.5765
  863MOL0     N16420   9.534   9.300   3.875  0.8612 -0.5337 -0.4532
  863MOL0     N16421   9.591   9.409   3.842  0.0222 -0.6531 -0.5031
  863MOL0     C16422   9.956  10.616   3.605  0.6834  0.2723  0.0064
  863MOL0     C16423  10.087  10.618   3.563  0.1821  0.8312  1.2228
  863MOL0     C16424  10.556  10.622   3.579  0.4016 -0.4675 -0.2239
  863MOL0     C16425  10.533  10.757   3.535 -0.8152 -0.4758 -0.6734
  863MOL0     C16426  10.637  10.845   3.504  0.2617 -0.4277  0.2685
  863MOL0     C16427  10.767  10.802   3.507 -0.0863  0.4446  0.4122
  863MOL0     O16428  10.885  10.876   3.493 -0.4775 -0.1588  0.1997
  863MOL0     C16429  10.886  10.988   3.579 -0.2271 -0.2851 -0.5613
  863MOL0     C16430  10.868  10.935   3.725  1.0398 -0.2525  0.4137
  863MOL0     C16431  10.931  11.025   3.829  0.3862 -0.3779 -0.0424
  863MOL0     C16432  10.919  10.982   3.979  0.9370 -1.0267  1.4273
  863MOL0     C16433  11.030  11.012   4.067  0.1398  0.1930  0.6164
  863MOL0     C16434  11.110  11.028   4.153 -0.0848  0.6383 -0.6995
  863MOL0     C16435  10.787  10.666   3.551 -0.3305 -0.4067 -0.1772
  863MOL0     C16436  10.690  10.575   3.584 -0.0818 -0.6484 -0.6826
  863MOL0     C16437  10.721  10.438   3.632  0.3456  0.2899  0.0804
  863MOL0     H16438  10.232  10.452   3.817  0.1869 -0.9149 -0.1917
  863MOL0     H16439  10.002  10.426   3.869 -1.6806  2.0509  0.7946
  863MOL0     H16440   9.806  10.414   3.909 -1.2124  2.1121  2.3429
  863MOL0     H16441   9.643  10.450   3.877  0.0917 -2.6589  2.6449
  863MOL0     H16442   9.824  10.288   3.692 -1.3107  0.3185 -1.0720
  863MOL0     H16443   9.668  10.348   3.651  2.5753  3.4938 -0.6610
  863MOL0     H16444   9.561  10.233   3.820  0.2132  0.7594 -1.7437
  863MOL0     H16445   9.714  10.187   3.904  1.8669 -1.0431 -1.2922
  863MOL0     H16446   9.662  10.093   3.613 -0.1952  1.6234  0.0330
  863MOL0     H16447   9.767  10.017   3.725 -0.9676 -2.1272  1.7898
  863MOL0     H16448   9.560   9.976   3.870 -3.0541 -2.8823  0.4813
  863MOL0     H16449   9.474  10.009   3.725  0.2099  1.0970 -1.0990
  863MOL0     H16450   9.612   9.826   3.610  0.1049 -1.0677  0.0365
  863MOL0     H16451   9.699   9.808   3.761  1.2249  1.9539 -1.8477
  863MOL0     H16452   9.383   9.752   3.730  1.6309  3.8469 -0.8638
  863MOL0     H16453   9.495   9.713   3.859 -1.5187 -0.6620 -0.7156
  863MOL0     H16454   9.461   9.571   3.596  1.1930 -1.1901 -0.8929
  863MOL0     H16455   9.628   9.562   3.663 -0.1847 -2.1137 -0.3469
  863MOL0     H16456   9.276   9.415   3.714 -0.4205  3.4040  0.3700
  863MOL0     H16457   9.359   9.150   3.964 -0.0949  3.6126  0.1826
  863MOL0     H16458   9.220   9.182   3.857 -0.4474  0.6555 -2.6207
  863MOL0     H16459   9.312   9.060   3.671 -0.6555 -2.9262  0.0947
  863MOL0     H16460   9.415   8.966   3.783 -0.6688 -0.6787  0.1679
  863MOL0     H16461   9.210   8.854   3.723 -2.3078 -0.4699  0.5870
  863MOL0     H16462   9.110   8.990   3.794  0.4575  1.0682  0.0761
  863MOL0     H16463   9.201   8.949   4.012 -0.0027  1.3213 -0.5271
  863MOL0     H16464   9.272   8.791   3.949  0.3892 -0.2485 -1.5674
  863MOL0     H16465   8.883   8.637   3.915  0.8060 -0.5463 -1.9431
  863MOL0     H16466   8.829   8.466   4.072  3.1442 -3.4537  1.1861
  863MOL0     H16467   8.998   8.153   4.408 -1.3753 -1.6495 -4.4288
  863MOL0     H16468   8.917   7.999   4.571  0.6139  0.8500  1.7567
  863MOL0     H16469   8.798   7.865   4.738  0.4968  0.9068 -0.0813
  863MOL0     H16470   8.750   8.012   4.803  0.6841 -1.5546  0.4791
  863MOL0     H16471   8.509   7.891   4.843 -2.1387 -3.2455  0.9595
  863MOL0     H16472   8.606   7.753   4.827  1.2534 -0.1694  0.7378
  863MOL0     H16473   8.708   7.967   5.015 -2.7122  1.7787 -1.3074
  863MOL0     H16474   8.579   7.856   5.062 -1.9092 -0.4879 -1.9598
  863MOL0     H16475   8.815   7.702   4.957 -0.6532  0.1634 -0.7297
  863MOL0     H16476   8.692   7.662   5.067 -0.9796  2.4454  1.2790
  863MOL0     H16477   8.902   7.875   5.119  1.4094 -2.1605 -3.1353
  863MOL0     H16478   8.936   7.711   5.160 -0.5708 -0.8092  0.4593
  863MOL0     H16479   8.854   7.857   5.354  0.1965 -0.5070  0.6551
  863MOL0     H16480   8.699   7.887   5.265 -1.2871  0.6435  1.4219
  863MOL0     H16481   8.820   7.608   5.368  0.3646 -0.3378  0.5307
  863MOL0     H16482   8.668   7.638   5.277  1.6883 -0.1381 -0.1735
  863MOL0     H16483   8.725   7.731   5.562 -0.9838 -1.6789  2.2404
  863MOL0     H16484   8.586   7.772   5.475 -0.0399  0.2885  1.6967
  863MOL0     H16485   8.525   8.159   4.537 -0.5398 -2.2848  0.7828
  863MOL0     H16486   8.602   8.315   4.374  2.8938  2.5368 -0.0209
  863MOL0     H16487   9.087   8.629   4.368 -1.7280  1.3046  1.5372
  863MOL0     H16488   9.183   8.779   4.191 -1.8976  1.4350  1.6562
  863MOL0     H16489   9.874  10.658   3.549  1.0572 -1.9858 -2.4285
  863MOL0     H16490  10.098  10.657   3.462 -4.1611 -0.2995  0.1143
  863MOL0     H16491  10.439  10.807   3.518 -0.9368  0.8702  3.1485
  863MOL0     H16492  10.634  10.948   3.468  1.1757 -1.8779 -4.6945
  863MOL0     H16493  10.803  11.056   3.556  1.4857  1.9741 -0.3695
  863MOL0     H16494  10.979  11.044   3.574 -2.2399  3.1999 -2.8838
  863MOL0     H16495  10.930  10.846   3.736  1.4485  0.3134  3.4984
  863MOL0     H16496  10.763  10.911   3.746 -0.5234 -1.8979 -6.5427
  863MOL0     H16497  10.866  11.113   3.837 -2.0648 -1.9368 -1.3388
  863MOL0     H16498  11.032  11.048   3.795 -0.3045 -0.4589 -2.3011
  863MOL0     H16499  10.822  11.020   4.012 -0.0570 -1.5127 -0.7491
  863MOL0     H16500  10.903  10.874   3.993 -0.4847 -0.8940  0.8730
  863MOL0     H16501  11.182  11.027   4.233  1.3195 -0.8430 -1.9148
  863MOL0     H16502  10.893  10.644   3.551  0.0241  1.1308 -0.3094
  863MOL0     H16503  10.827  10.414   3.619 -0.2930 -3.7895  1.2453
  863MOL0     H16504  10.690  10.424   3.736  1.0507 -1.2103  0.1113
  863MOL0     H16505  10.671  10.370   3.563  1.8667  1.5613 -2.4192
  864MOL0     O16506   2.672   5.273   4.062 -0.0498 -0.1835 -0.4811
  864MOL0     C16507   2.675   5.394   4.055 -1.2221 -0.0199 -0.6093
  864MOL0     O16508   2.734   5.471   4.149  0.3456  0.9465 -0.2834
  864MOL0     C16509   2.796   5.422   4.259 -0.1600 -0.4392  0.4011
  864MOL0     C16510   2.735   5.441   4.391  0.5239 -0.0173 -0.2925
  864MOL0     C16511   2.810   5.416   4.506  0.2776 -0.6259 -0.5778
  864MOL0     C16512   2.941   5.365   4.497  0.3628 -0.2026  0.0333
  864MOL0     O16513   2.991   5.344   4.619  0.3751 -0.3660  0.2159
  864MOL0     C16514   3.128   5.358   4.629 -0.7806  0.0229 -0.6857
  864MOL0     C16515   3.162   5.385   4.776  0.3109 -0.2680  0.0302
  864MOL0     C16516   3.079   5.511   4.827 -0.5979 -0.0267  0.2337
  864MOL0     C16517   3.113   5.636   4.745  0.7967  0.2760  0.9609
  864MOL0     C16518   3.039   5.746   4.812  0.3159 -1.1784  0.0919
  864MOL0     C16519   3.060   5.876   4.737  0.4133 -0.1804 -0.6249
  864MOL0     C16520   2.974   5.984   4.798 -0.5484 -0.8768  0.2544
  864MOL0     C16521   2.896   6.068   4.693  0.0594  0.0127  0.1549
  864MOL0     N16522   2.971   6.184   4.645 -0.7588 -0.5467  0.3635
  864MOL0     C16523   2.946   6.251   4.528  0.0807  0.7488 -0.0458
  864MOL0     C16524   3.044   6.341   4.523 -0.5447  0.1638  0.2302
  864MOL0     C16525   3.067   6.447   4.422 -0.0602  0.1494  0.7598
  864MOL0     C16526   3.172   6.415   4.304  1.2347  0.1833 -0.1345
  864MOL0     C16527   3.139   6.282   4.225  0.3113 -0.5812  0.2230
  864MOL0     C16528   3.015   6.294   4.138 -0.6188  0.2872  0.4494
  864MOL0     O16529   3.013   6.166   4.076 -0.3247  0.1486  0.4823
  864MOL0     C16530   2.928   6.132   3.972 -0.2913 -1.6149  0.0273
  864MOL0     C16531   2.814   6.217   3.954 -0.0461 -0.3225  0.4579
  864MOL0     C16532   2.739   6.205   3.836  0.5176 -0.2828 -0.0128
  864MOL0     C16533   2.749   6.083   3.754  0.4005 -1.3076 -0.1798
  864MOL0     C16534   2.648   6.054   3.652 -0.0086 -0.6361  0.2806
  864MOL0     O16535   2.537   6.133   3.642 -0.6022 -0.3321  0.6627
  864MOL0     C16536   2.408   6.084   3.623 -0.1716 -1.2784  0.3581
  864MOL0     C16537   2.358   5.978   3.699  0.6461  1.0709  0.5515
  864MOL0     C16538   2.228   5.932   3.680 -0.1767 -0.1023  0.1481
  864MOL0     C16539   2.141   6.009   3.606 -0.0162  0.7882  0.5879
  864MOL0     O16540   2.018   5.952   3.587  0.0955 -0.5917 -1.1733
  864MOL0     C16541   1.910   6.045   3.579 -0.4364 -0.2824  0.0268
  864MOL0     C16542   1.778   5.975   3.540 -0.6300  0.2827  0.6263
  864MOL0     C16543   1.651   6.062   3.544 -1.0374 -0.8854 -0.1754
  864MOL0     C16544   1.534   5.965   3.513  0.4319 -0.3886  0.0016
  864MOL0     C16545   1.414   6.009   3.594  0.4262  0.3181  0.3025
  864MOL0     C16546   1.325   5.890   3.603  0.0028 -0.2318 -1.0049
  864MOL0     C16547   1.207   5.923   3.683  0.0413 -0.3755  0.5362
  864MOL0     C16548   1.155   5.798   3.758  1.4127 -0.1564  0.3540
  864MOL0    Cl16549   1.091   5.673   3.636 -0.6399  0.3120  0.3957
  864MOL0     C16550   2.186   6.124   3.531 -0.5529 -0.5504 -0.0557
  864MOL0     C16551   2.324   6.160   3.545  0.0459 -0.2332  0.1470
  864MOL0     O16552   2.658   5.958   3.585 -0.2050  0.1592  1.5374
  864MOL0     C16553   2.849   5.992   3.780  0.6940 -0.3460  0.7619
  864MOL0     C16554   2.941   6.020   3.889  0.2350  1.0356  0.3019
  864MOL0     N16555   3.125   6.331   4.626 -0.0418 -0.3216 -0.6365
  864MOL0     N16556   3.071   6.245   4.709 -0.6764  0.1125  0.1031
  864MOL0     C16557   3.004   5.346   4.376  0.4983 -0.4517 -0.4590
  864MOL0     C16558   2.935   5.382   4.257  0.6845 -0.1427  0.0760
  864MOL0     C16559   2.589   5.445   3.942 -0.5078 -1.2494  0.6359
  864MOL0     C16560   2.519   5.357   3.858 -0.6719 -0.4566 -0.8232
  864MOL0     C16561   2.434   5.410   3.762 -0.7502 -0.1128 -0.4661
  864MOL0     C16562   2.428   5.545   3.739  0.8983 -0.1177  0.0450
  864MOL0     O16563   2.368   5.610   3.638 -0.3920 -0.2585 -0.3936
  864MOL0     C16564   2.273   5.535   3.554  0.2392  0.4452  0.4805
  864MOL0     C16565   2.149   5.629   3.534 -0.0723  0.5561 -0.6289
  864MOL0     C16566   2.053   5.580   3.436  1.1056  0.1919  0.2291
  864MOL0     C16567   1.949   5.697   3.401 -0.8331 -0.1027  0.4505
  864MOL0     C16568   1.856   5.637   3.306  1.0944  0.8468 -0.8297
  864MOL0     C16569   1.808   5.594   3.205 -0.1355 -0.1895 -0.5662
  864MOL0     C16570   2.511   5.627   3.814 -0.6216  0.2737 -0.3714
  864MOL0     C16571   2.581   5.582   3.921  0.1374  0.0634 -0.6299
  864MOL0     C16572   2.656   5.687   3.995  0.6613 -0.0583 -0.2952
  864MOL0     H16573   2.633   5.478   4.401  1.4297  1.8730  3.9014
  864MOL0     H16574   2.769   5.445   4.602  1.3767 -2.7329  0.5828
  864MOL0     H16575   3.149   5.256   4.596 -1.2662  0.3771 -2.2030
  864MOL0     H16576   3.182   5.421   4.558 -0.6788 -0.9859 -1.5240
  864MOL0     H16577   3.270   5.402   4.781  0.0388  1.9781 -0.7310
  864MOL0     H16578   3.134   5.297   4.834 -2.8268  0.1711 -0.6205
  864MOL0     H16579   3.104   5.520   4.933 -1.7738  0.4292  0.4825
  864MOL0     H16580   2.972   5.498   4.807 -0.6092  0.0507  0.2449
  864MOL0     H16581   3.219   5.660   4.733  0.6392  0.0700 -1.4133
  864MOL0     H16582   3.074   5.626   4.643  1.2204 -1.7807  0.9708
  864MOL0     H16583   2.931   5.737   4.823 -0.3225  4.6881  2.0167
  864MOL0     H16584   3.076   5.766   4.913  0.4361  0.6174 -0.2791
  864MOL0     H16585   3.161   5.917   4.733 -0.8202  3.8341  2.5043
  864MOL0     H16586   3.031   5.871   4.632 -2.8483  4.1039 -0.1854
  864MOL0     H16587   3.036   6.049   4.860  0.0901 -0.6599 -0.5910
  864MOL0     H16588   2.896   5.939   4.860 -2.0525  0.0530 -0.8885
  864MOL0     H16589   2.853   6.007   4.613 -4.7422  1.0095  1.5979
  864MOL0     H16590   2.820   6.122   4.751  0.0627  0.8543 -0.5968
  864MOL0     H16591   2.863   6.240   4.460 -2.2118 -0.3000  2.7364
  864MOL0     H16592   2.971   6.474   4.377  0.8870 -2.9024 -3.8050
  864MOL0     H16593   3.105   6.536   4.473 -0.8553  1.2909 -0.5892
  864MOL0     H16594   3.176   6.498   4.233  2.5593  0.4502  0.2202
  864MOL0     H16595   3.273   6.414   4.347  0.5201 -1.2619  1.6561
  864MOL0     H16596   3.134   6.203   4.300 -0.3181  2.1506  3.3048
  864MOL0     H16597   3.229   6.265   4.164  1.6012  1.2809  1.5007
  864MOL0     H16598   3.015   6.377   4.067 -1.9252 -1.4050 -1.6693
  864MOL0     H16599   2.929   6.304   4.205 -0.0723 -4.8265  2.3291
  864MOL0     H16600   2.789   6.311   4.002  0.1328  0.1324 -0.3193
  864MOL0     H16601   2.662   6.275   3.807 -1.0144 -0.9548  2.1337
  864MOL0     H16602   2.433   5.920   3.752  2.5980  0.4350 -2.6529
  864MOL0     H16603   2.194   5.840   3.726 -1.5014  1.9407  3.7221
  864MOL0     H16604   1.898   6.093   3.677 -0.1398 -0.1131 -0.0189
  864MOL0     H16605   1.933   6.123   3.505  0.1551 -0.1892  0.3104
  864MOL0     H16606   1.783   5.940   3.436  0.6834 -0.3262  0.8767
  864MOL0     H16607   1.770   5.890   3.609 -3.1515 -0.6475 -0.6640
  864MOL0     H16608   1.633   6.108   3.642  0.4376  1.0971 -0.7836
  864MOL0     H16609   1.655   6.141   3.469 -2.2196  0.0420  0.6937
  864MOL0     H16610   1.568   5.869   3.554 -1.9642 -1.0606  0.5490
  864MOL0     H16611   1.510   5.963   3.406 -4.1828 -0.3514  0.8523
  864MOL0     H16612   1.367   6.101   3.557 -1.2303 -0.3638  0.6379
  864MOL0     H16613   1.445   6.038   3.695 -1.6230 -1.4643  1.5380
  864MOL0     H16614   1.301   5.873   3.497 -1.3822 -0.0559 -0.7362
  864MOL0     H16615   1.369   5.795   3.636 -0.8086  0.0323  0.9525
  864MOL0     H16616   1.127   5.961   3.619  0.8596  2.6442  1.1522
  864MOL0     H16617   1.208   6.004   3.755 -2.7855  0.6825 -0.4876
  864MOL0     H16618   1.228   5.762   3.832  0.9426  0.0204  0.9094
  864MOL0     H16619   1.067   5.838   3.809  1.8078 -0.0923  1.0033
  864MOL0     H16620   2.130   6.182   3.459  2.6680  1.1993 -1.3570
  864MOL0     H16621   2.365   6.248   3.497 -0.1677 -0.6810 -0.8727
  864MOL0     H16622   2.855   5.903   3.718 -2.1467 -1.0396  1.3490
  864MOL0     H16623   3.025   5.954   3.907 -0.2525 -0.3687 -2.2182
  864MOL0     H16624   3.109   5.318   4.373  1.0571  1.4536 -2.7199
  864MOL0     H16625   2.981   5.369   4.160 -0.1945 -2.5352 -0.0855
  864MOL0     H16626   2.535   5.251   3.876  2.8310  0.5508  3.7867
  864MOL0     H16627   2.373   5.331   3.718 -1.7036 -1.0590  2.3776
  864MOL0     H16628   2.228   5.446   3.600  1.7590 -0.4762  0.2378
  864MOL0     H16629   2.314   5.499   3.460 -0.4963  1.3040 -0.1815
  864MOL0     H16630   2.195   5.725   3.511  0.2503  0.6694  0.4395
  864MOL0     H16631   2.109   5.635   3.636 -0.0283 -0.9144 -0.5038
  864MOL0     H16632   1.990   5.498   3.473  0.1557  0.1014 -1.4855
  864MOL0     H16633   2.098   5.542   3.344  1.4317  3.2882 -1.0243
  864MOL0     H16634   1.910   5.736   3.495  3.1519  3.0259  1.0864
  864MOL0     H16635   1.996   5.783   3.352 -0.4219  0.8570  2.4429
  864MOL0     H16636   1.765   5.565   3.111 -0.4871 -0.1776 -0.4104
  864MOL0     H16637   2.511   5.733   3.789 -2.2776  0.7438  1.3345
  864MOL0     H16638   2.760   5.689   3.962  0.5303  0.4050 -0.6824
  864MOL0     H16639   2.608   5.784   3.977  3.5614  1.6109  0.2947
  864MOL0     H16640   2.656   5.675   4.104  1.2336  1.6279 -0.0726
  865MOL0     O16641   7.002   9.167   5.422 -0.2948  0.6735 -0.8058
  865MOL0     C16642   7.117   9.199   5.448 -1.1258  0.1340  0.2844
  865MOL0     O16643   7.232   9.188   5.363 -0.1749  0.0559 -0.0127
  865MOL0     C16644   7.210   9.116   5.251 -0.6332  0.0276  0.4048
  865MOL0     C16645   7.205   8.977   5.261 -0.4217  0.1904  0.1707
  865MOL0     C16646   7.186   8.888   5.148 -0.5835  0.8235 -0.5101
  865MOL0     C16647   7.155   8.958   5.024 -0.4972 -0.2090  0.9452
  865MOL0     O16648   7.132   8.902   4.900  0.7335 -1.0798  0.0354
  865MOL0     C16649   7.154   8.761   4.870  0.6172  0.3119  0.4321
  865MOL0     C16650   7.121   8.732   4.720 -0.4558  1.1839  1.0438
  865MOL0     C16651   7.184   8.594   4.684  0.8576  0.1303  0.4398
  865MOL0     C16652   7.122   8.458   4.732  0.7847  0.1231  0.1325
  865MOL0     C16653   7.199   8.346   4.670 -0.4793  0.7537 -0.1186
  865MOL0     C16654   7.172   8.217   4.753  0.0849  0.3817  0.5165
  865MOL0     C16655   7.272   8.100   4.723 -0.2776  0.0642 -0.6300
  865MOL0     C16656   7.403   8.135   4.803  0.4348  0.2317 -0.2273
  865MOL0     N16657   7.473   8.012   4.847 -0.8511 -0.4233  0.0173
  865MOL0     C16658   7.432   7.911   4.926 -0.2916 -0.3812 -0.5934
  865MOL0     C16659   7.534   7.822   4.930 -0.4107 -0.6628  0.5257
  865MOL0     C16660   7.540   7.701   5.012 -0.4810 -0.3665  0.1638
  865MOL0     C16661   7.654   7.723   5.114 -0.5434  0.0148  0.1663
  865MOL0     C16662   7.606   7.802   5.231  0.6007 -1.0175  0.1082
  865MOL0     C16663   7.709   7.793   5.344 -0.3886 -0.0603  0.3169
  865MOL0     O16664   7.655   7.864   5.458 -0.5586  0.4596 -0.0344
  865MOL0     C16665   7.737   7.908   5.564 -0.1409  0.2270  0.2031
  865MOL0     C16666   7.686   7.982   5.673 -0.3816  0.2593  1.1899
  865MOL0     C16667   7.762   8.040   5.771 -0.0610 -0.8053 -0.3833
  865MOL0     C16668   7.907   8.026   5.773  1.1420 -0.1564  0.3413
  865MOL0     C16669   7.994   8.088   5.873  0.7699 -0.1950 -0.0381
  865MOL0     O16670   8.092   8.010   5.922  0.3090  0.0161 -0.2154
  865MOL0     C16671   8.204   8.053   5.988 -0.0608 -0.2169  0.7663
  865MOL0     C16672   8.256   7.978   6.100  0.0173 -0.3343 -0.1440
  865MOL0     C16673   8.355   8.025   6.178  0.3019 -0.7829 -0.3384
  865MOL0     C16674   8.411   8.151   6.148 -0.6944 -0.3353  0.0155
  865MOL0     O16675   8.504   8.214   6.220 -0.2316  0.7295  0.0795
  865MOL0     C16676   8.461   8.222   6.364 -0.1725  0.0188  0.2541
  865MOL0     C16677   8.580   8.284   6.451  0.5660  0.4352 -0.2797
  865MOL0     C16678   8.526   8.366   6.567 -1.3050  0.0543 -1.2697
  865MOL0     C16679   8.651   8.405   6.653 -0.0796 -0.1251  0.3020
  865MOL0     C16680   8.687   8.287   6.740 -0.2512  0.3606 -0.7013
  865MOL0     C16681   8.794   8.334   6.843  0.2199 -0.7549 -0.4457
  865MOL0     C16682   8.862   8.221   6.904 -0.3426  0.2143  0.2941
  865MOL0     C16683   8.765   8.133   6.984  0.5354 -0.0833 -0.2101
  865MOL0    Cl16684   8.868   8.038   7.108  0.2944 -0.0896  0.0496
  865MOL0     C16685   8.367   8.223   6.033  0.3591  0.0436  0.3090
  865MOL0     C16686   8.268   8.168   5.956 -0.3052  0.4001  0.4143
  865MOL0     O16687   7.955   8.195   5.920 -0.1950 -0.3270 -0.4603
  865MOL0     C16688   7.955   7.936   5.680  0.3284  0.8609  0.5383
  865MOL0     C16689   7.878   7.883   5.570  0.4653 -0.0577  0.2658
  865MOL0     N16690   7.629   7.873   4.843 -0.4345 -0.3302 -0.6325
  865MOL0     N16691   7.597   7.994   4.797  1.0008  0.1137  0.2728
  865MOL0     C16692   7.140   9.096   5.027  0.2821  0.4752  0.3226
  865MOL0     C16693   7.170   9.176   5.134 -0.8078  0.1168  0.6824
  865MOL0     C16694   7.138   9.272   5.584  0.3331  0.6413 -0.3541
  865MOL0     C16695   7.265   9.341   5.608 -0.0408  0.5402  0.6746
  865MOL0     C16696   7.273   9.418   5.717  0.1673 -0.3437 -1.2135
  865MOL0     C16697   7.168   9.444   5.802  0.6535 -0.4590 -0.4543
  865MOL0     O16698   7.182   9.539   5.898  0.1523  0.0277  0.4662
  865MOL0     C16699   7.245   9.659   5.852  0.5634 -0.2601 -0.0397
  865MOL0     C16700   7.168   9.768   5.924 -0.7295 -0.4866  0.6659
  865MOL0     C16701   7.232   9.907   5.918  0.4671  1.1324  0.1927
  865MOL0     C16702   7.213   9.991   5.782 -0.2025  0.5438 -0.4514
  865MOL0     C16703   7.326  10.086   5.757 -0.6272 -0.4733 -0.6780
  865MOL0     C16704   7.417  10.163   5.780  1.4288 -0.6509 -0.1186
  865MOL0     C16705   7.049   9.382   5.784 -0.0432  0.1260  0.2762
  865MOL0     C16706   7.031   9.282   5.686  0.6599 -0.0865  0.4052
  865MOL0     C16707   6.913   9.195   5.698  0.7281  1.2723  0.2076
  865MOL0     H16708   7.235   8.944   5.360 -0.0598  1.9801  0.6863
  865MOL0     H16709   7.204   8.782   5.164 -0.5340  0.8777 -0.2144
  865MOL0     H16710   7.258   8.736   4.894 -0.2872 -0.7148  3.7936
  865MOL0     H16711   7.096   8.699   4.940  0.8081 -0.0984  0.2277
  865MOL0     H16712   7.168   8.810   4.660  1.8468 -1.0322 -0.2529
  865MOL0     H16713   7.012   8.720   4.710 -0.2176 -1.1721  0.5498
  865MOL0     H16714   7.284   8.608   4.726  0.7518  1.7571  0.2028
  865MOL0     H16715   7.187   8.583   4.575  2.8221 -1.2061  0.5644
  865MOL0     H16716   7.113   8.441   4.840 -1.3632 -2.6627 -0.3692
  865MOL0     H16717   7.019   8.463   4.695  0.6851  4.8770  0.3307
  865MOL0     H16718   7.178   8.346   4.563  1.0890  0.6577 -0.4499
  865MOL0     H16719   7.305   8.367   4.690 -0.1494 -2.4851  2.4590
  865MOL0     H16720   7.177   8.235   4.860  2.7000  0.5215  0.4366
  865MOL0     H16721   7.065   8.196   4.746  0.2216  0.0199 -0.6525
  865MOL0     H16722   7.296   8.102   4.616 -0.7333 -0.5408 -0.7455
  865MOL0     H16723   7.227   8.005   4.752 -2.7109  1.2817 -0.2153
  865MOL0     H16724   7.476   8.195   4.748 -0.1503  2.1786  0.9933
  865MOL0     H16725   7.388   8.191   4.896  1.2036  2.8444 -1.5790
  865MOL0     H16726   7.338   7.902   4.979 -0.4313 -3.1410 -1.1379
  865MOL0     H16727   7.445   7.683   5.064  0.3238 -1.1820  1.4131
  865MOL0     H16728   7.572   7.627   4.938 -0.6372  1.9456 -2.3691
  865MOL0     H16729   7.675   7.623   5.153 -2.0976 -2.1317 -3.8958
  865MOL0     H16730   7.754   7.751   5.079  0.8102 -2.8378  1.3924
  865MOL0     H16731   7.516   7.749   5.262  0.9643 -2.1148 -0.6715
  865MOL0     H16732   7.587   7.907   5.205 -0.3608 -0.7650  1.6829
  865MOL0     H16733   7.798   7.849   5.313  0.8995 -2.5442 -0.7555
  865MOL0     H16734   7.738   7.688   5.353  0.0968 -0.1714 -1.9397
  865MOL0     H16735   7.578   7.988   5.683 -0.4734 -0.1376  0.4800
  865MOL0     H16736   7.719   8.102   5.849  0.6218  0.2997 -0.8585
  865MOL0     H16737   8.214   7.883   6.129 -1.5164  0.6209  0.9205
  865MOL0     H16738   8.377   7.972   6.269 -0.5756 -1.4338 -0.4874
  865MOL0     H16739   8.384   8.300   6.362  1.3261  1.5400  0.1664
  865MOL0     H16740   8.436   8.126   6.412  2.8406  0.5335  3.1972
  865MOL0     H16741   8.635   8.195   6.482  3.7137  1.6930 -1.7709
  865MOL0     H16742   8.649   8.350   6.398  2.8993 -0.0826  1.9421
  865MOL0     H16743   8.483   8.457   6.525 -0.8910  1.3671  0.9419
  865MOL0     H16744   8.456   8.308   6.628 -2.1182 -1.4993 -3.5680
  865MOL0     H16745   8.619   8.493   6.709  0.2658  0.0367  0.2513
  865MOL0     H16746   8.735   8.426   6.587 -1.1162  1.9024 -0.4461
  865MOL0     H16747   8.723   8.209   6.672 -0.1013  0.3698 -0.6333
  865MOL0     H16748   8.601   8.256   6.801 -1.3888 -0.4549 -2.6052
  865MOL0     H16749   8.870   8.392   6.791 -0.1198  2.0260  1.8520
  865MOL0     H16750   8.760   8.415   6.909  1.2465 -1.3580  0.8866
  865MOL0     H16751   8.953   8.248   6.959 -0.6635  3.1574 -0.4296
  865MOL0     H16752   8.898   8.160   6.820  0.1415  0.4348  0.3393
  865MOL0     H16753   8.694   8.194   7.040  0.9048  2.3275 -2.1592
  865MOL0     H16754   8.723   8.058   6.917  0.3289 -1.9817  1.9437
  865MOL0     H16755   8.423   8.310   6.000 -0.2197  1.3093  2.4360
  865MOL0     H16756   8.234   8.231   5.874  2.6224 -0.3457 -1.5343
  865MOL0     H16757   8.061   7.916   5.687  0.2100 -0.1142 -0.1891
  865MOL0     H16758   7.923   7.812   5.501  0.9656  1.9534 -1.5731
  865MOL0     H16759   7.100   9.133   4.934  1.1964  1.4283  0.2947
  865MOL0     H16760   7.163   9.284   5.122  0.6724  0.3868  1.9770
  865MOL0     H16761   7.354   9.329   5.548 -1.8529 -2.2810 -1.8049
  865MOL0     H16762   7.375   9.455   5.726 -0.0075  0.8635 -3.3848
  865MOL0     H16763   7.267   9.683   5.748  1.8733 -3.1514 -0.5165
  865MOL0     H16764   7.348   9.661   5.888  0.3464  2.4866  0.6911
  865MOL0     H16765   7.171   9.744   6.030 -1.4557 -0.8103  0.6245
  865MOL0     H16766   7.061   9.774   5.903 -1.1599 -0.3498  2.6812
  865MOL0     H16767   7.334   9.872   5.936 -0.1045 -2.1047 -1.8961
  865MOL0     H16768   7.194   9.973   5.996 -3.1132  1.3287 -1.5209
  865MOL0     H16769   7.201   9.919   5.700  0.6411  1.7730 -1.7026
  865MOL0     H16770   7.122  10.051   5.781  2.1604  4.5011 -1.9707
  865MOL0     H16771   7.488  10.242   5.795  0.0485  0.6151 -0.0153
  865MOL0     H16772   6.973   9.404   5.858 -2.0175  3.3493 -2.4600
  865MOL0     H16773   6.821   9.235   5.654  0.1655  0.1932  0.3708
  865MOL0     H16774   6.928   9.098   5.651  2.1673  2.1920 -1.3203
  865MOL0     H16775   6.880   9.175   5.801 -0.5136  1.1996 -0.1913
  866MOL0     O16776   1.379   2.287   8.187 -0.4326  0.7981 -0.8452
  866MOL0     C16777   1.338   2.391   8.133 -0.1631 -0.5974 -0.5462
  866MOL0     O16778   1.382   2.443   8.013 -0.0250  0.3443 -0.0575
  866MOL0     C16779   1.446   2.339   7.939  0.6154 -0.2404 -0.0096
  866MOL0     C16780   1.383   2.229   7.890  0.0764 -0.5315  0.3101
  866MOL0     C16781   1.451   2.136   7.812  0.9606 -0.4743 -0.0624
  866MOL0     C16782   1.589   2.137   7.785  0.7507  0.7071  0.4007
  866MOL0     O16783   1.641   2.042   7.707 -0.0154  0.2366  0.1660
  866MOL0     C16784   1.785   2.027   7.720  0.0861 -0.0982 -0.4504
  866MOL0     C16785   1.853   2.093   7.608 -0.5879 -0.2859  1.1833
  866MOL0     C16786   1.793   2.049   7.474 -0.0945  0.3224  0.2917
  866MOL0     C16787   1.840   2.142   7.364  0.2040  0.2722  0.2988
  866MOL0     C16788   1.781   2.121   7.227  0.4248  0.4325  0.6188
  866MOL0     C16789   1.810   1.989   7.172  0.5135  0.3278  0.1393
  866MOL0     C16790   1.775   2.001   7.022 -0.9217 -0.1588  0.1893
  866MOL0     C16791   1.779   1.875   6.953  0.1477  0.8547  0.1082
  866MOL0     N16792   1.913   1.839   6.901 -0.3395  0.0138  0.4904
  866MOL0     C16793   2.003   1.773   6.977  0.6078  0.0274  0.7614
  866MOL0     C16794   2.086   1.715   6.899 -0.9306  0.7261  0.0668
  866MOL0     C16795   2.204   1.632   6.941 -0.0646  0.0040 -0.5409
  866MOL0     C16796   2.342   1.667   6.888 -0.3824 -0.7312 -0.0077
  866MOL0     C16797   2.393   1.569   6.790 -0.2170 -0.4094 -0.0541
  866MOL0     C16798   2.523   1.618   6.725  0.8292  0.5498 -1.1076
  866MOL0     O16799   2.556   1.542   6.604  0.1979  0.3331 -0.6463
  866MOL0     C16800   2.631   1.425   6.612 -0.1876 -0.6569  0.5184
  866MOL0     C16801   2.659   1.352   6.497 -0.8753 -0.9170  0.0850
  866MOL0     C16802   2.755   1.253   6.502  0.4037 -0.0774 -0.1786
  866MOL0     C16803   2.800   1.206   6.620 -0.0348 -0.0230  1.6406
  866MOL0     C16804   2.908   1.106   6.627  0.1405  0.2415 -0.1777
  866MOL0     O16805   2.973   1.085   6.744 -0.0445 -0.6350 -0.4155
  866MOL0     C16806   3.089   1.013   6.753  0.7113 -0.3487  0.9107
  866MOL0     C16807   3.131   0.914   6.675  0.5812 -0.6118 -0.0190
  866MOL0     C16808   3.247   0.851   6.690 -0.0791  0.1603  0.3380
  866MOL0     C16809   3.333   0.892   6.790  0.2510 -0.4377 -0.2578
  866MOL0     O16810   3.449   0.826   6.813 -0.2524 -0.6228 -0.1263
  866MOL0     C16811   3.551   0.884   6.887 -0.2053  0.7674 -0.1691
  866MOL0     C16812   3.663   0.779   6.921 -0.0949 -0.1711  0.3420
  866MOL0     C16813   3.625   0.716   7.053 -0.3111 -0.7979 -0.0532
  866MOL0     C16814   3.725   0.605   7.083  0.8750  0.3708 -0.4720
  866MOL0     C16815   3.660   0.511   7.191  0.1190 -0.0845 -0.1356
  866MOL0     C16816   3.777   0.460   7.275 -0.2468 -0.6113 -0.5333
  866MOL0     C16817   3.746   0.329   7.339 -0.3082 -0.1155  0.1945
  866MOL0     C16818   3.857   0.283   7.435 -0.0219 -0.3081 -0.5386
  866MOL0    Cl16819   3.797   0.125   7.491 -0.2587 -0.1287 -0.1564
  866MOL0     C16820   3.291   0.996   6.872  0.1066  0.4612 -0.6441
  866MOL0     C16821   3.172   1.053   6.853 -0.6587  0.1569 -0.3348
  866MOL0     O16822   2.918   1.037   6.526  0.8825 -0.8009 -0.4605
  866MOL0     C16823   2.749   1.260   6.742 -0.6192 -0.1520  0.2458
  866MOL0     C16824   2.675   1.377   6.728 -1.3538 -0.2690 -0.0982
  866MOL0     N16825   2.057   1.755   6.769 -0.6954  0.2118 -0.0495
  866MOL0     N16826   1.948   1.817   6.773  0.2671 -0.2716  0.4777
  866MOL0     C16827   1.655   2.251   7.830  0.3731  0.8483  0.1417
  866MOL0     C16828   1.581   2.351   7.896 -0.4874 -0.1018 -0.4069
  866MOL0     C16829   1.254   2.477   8.222  0.3153  0.3701 -0.0111
  866MOL0     C16830   1.207   2.594   8.162  0.2961 -0.5336  0.0321
  866MOL0     C16831   1.134   2.694   8.228 -0.2414 -0.6196  0.4152
  866MOL0     C16832   1.091   2.669   8.357  0.3392  0.1320  0.4437
  866MOL0     O16833   1.008   2.751   8.424  0.5434  0.1895 -0.1850
  866MOL0     C16834   0.867   2.705   8.415 -0.5015 -0.6689  0.7187
  866MOL0     C16835   0.803   2.736   8.555 -1.0738  0.3920 -0.4995
  866MOL0     C16836   0.662   2.683   8.564  0.0827 -0.2403 -0.4679
  866MOL0     C16837   0.628   2.633   8.699 -0.2113  0.7392  0.3990
  866MOL0     C16838   0.656   2.723   8.805  0.6441 -0.0636 -0.1407
  866MOL0     C16839   0.686   2.799   8.888 -0.0021 -0.0002 -0.1480
  866MOL0     C16840   1.126   2.548   8.419  0.3467  0.6990  0.3446
  866MOL0     C16841   1.210   2.454   8.354  0.0012 -0.3381  0.3734
  866MOL0     C16842   1.232   2.328   8.432  0.7200 -0.1840 -0.6614
  866MOL0     H16843   1.276   2.235   7.908  0.2857  2.7173  1.0171
  866MOL0     H16844   1.376   2.069   7.774 -1.1473  0.6174  1.9351
  866MOL0     H16845   1.819   2.064   7.817 -4.2346 -0.6659  1.5367
  866MOL0     H16846   1.801   1.919   7.722 -1.0559 -0.3713  3.7863
  866MOL0     H16847   1.962   2.084   7.604 -0.7029 -1.3710 -1.0511
  866MOL0     H16848   1.825   2.197   7.627 -0.9205 -0.2711  0.6316
  866MOL0     H16849   1.684   2.046   7.463 -0.1663 -0.2688  1.1086
  866MOL0     H16850   1.830   1.949   7.450 -0.8167  0.4355 -1.4423
  866MOL0     H16851   1.839   2.245   7.402 -0.7566  0.9460 -1.4278
  866MOL0     H16852   1.948   2.123   7.360 -0.3427 -3.3938  0.0952
  866MOL0     H16853   1.674   2.145   7.227  0.4776  0.7546 -0.9432
  866MOL0     H16854   1.812   2.202   7.161 -0.5494  1.9071  1.9044
  866MOL0     H16855   1.916   1.966   7.183  1.0580  2.5304 -0.0662
  866MOL0     H16856   1.750   1.916   7.226  2.4921  0.9264  3.4107
  866MOL0     H16857   1.848   2.065   6.972 -0.0756  0.0704  1.6583
  866MOL0     H16858   1.689   2.067   7.006  2.1278  4.1770 -0.1260
  866MOL0     H16859   1.741   1.797   7.018  0.5451  2.0660  1.8774
  866MOL0     H16860   1.707   1.879   6.871 -1.0528 -0.8672  1.0296
  866MOL0     H16861   1.992   1.774   7.085  2.6841  2.4258  1.0373
  866MOL0     H16862   2.190   1.645   7.049  3.3797 -0.5494  0.0954
  866MOL0     H16863   2.178   1.529   6.914 -0.2152  0.0997 -0.7662
  866MOL0     H16864   2.338   1.770   6.851 -1.0790 -1.3777 -1.8280
  866MOL0     H16865   2.405   1.666   6.977  1.0956  1.5183 -0.9506
  866MOL0     H16866   2.316   1.557   6.714 -2.8057  0.4195  2.2535
  866MOL0     H16867   2.415   1.477   6.844 -3.0522 -0.6133  0.9538
  866MOL0     H16868   2.606   1.628   6.797 -0.3293  1.9481  0.1004
  866MOL0     H16869   2.495   1.718   6.690 -2.9523  0.5264  1.3042
  866MOL0     H16870   2.627   1.381   6.397  2.5884  1.5544 -0.4787
  866MOL0     H16871   2.793   1.213   6.409 -0.0330 -0.7537 -0.0765
  866MOL0     H16872   3.068   0.888   6.590 -0.6583  2.3093 -0.1073
  866MOL0     H16873   3.278   0.774   6.619  0.7634 -1.3584  2.2675
  866MOL0     H16874   3.593   0.957   6.817  4.8083 -2.0287 -0.5989
  866MOL0     H16875   3.511   0.920   6.983 -0.5795 -0.1099  0.0145
  866MOL0     H16876   3.685   0.711   6.838  1.8805 -1.6381  1.9630
  866MOL0     H16877   3.756   0.837   6.927 -0.2877  0.1827 -0.0431
  866MOL0     H16878   3.627   0.791   7.133  3.7549 -2.2292  1.3876
  866MOL0     H16879   3.525   0.672   7.045  1.0074 -3.7545 -1.2592
  866MOL0     H16880   3.821   0.647   7.113  1.9984 -1.3555 -1.5072
  866MOL0     H16881   3.756   0.538   7.002  2.1978 -0.0756  0.3786
  866MOL0     H16882   3.615   0.423   7.144 -1.0966  1.5913 -2.3113
  866MOL0     H16883   3.590   0.559   7.260 -0.8862 -0.7884 -0.6410
  866MOL0     H16884   3.861   0.439   7.208 -0.6141  0.7477 -1.4811
  866MOL0     H16885   3.820   0.529   7.347 -2.5758  0.1131  0.2745
  866MOL0     H16886   3.721   0.252   7.266 -0.3776  1.4791 -1.5596
  866MOL0     H16887   3.660   0.346   7.405  1.5823  0.4287  2.6961
  866MOL0     H16888   3.954   0.266   7.387  0.0544 -0.7880 -0.2268
  866MOL0     H16889   3.864   0.353   7.518  2.5468 -0.8877 -0.1819
  866MOL0     H16890   3.354   1.029   6.954  0.1908 -0.2609 -0.4046
  866MOL0     H16891   3.141   1.134   6.918 -0.1036 -0.0183  0.1566
  866MOL0     H16892   2.784   1.223   6.838  1.3931 -1.3237 -0.8647
  866MOL0     H16893   2.656   1.432   6.820  1.1393  0.1108  0.2664
  866MOL0     H16894   1.762   2.249   7.811  0.0264 -0.4629 -2.0991
  866MOL0     H16895   1.629   2.445   7.919 -0.9767  0.1171 -0.2716
  866MOL0     H16896   1.224   2.619   8.058 -0.8041  1.1338  0.2157
  866MOL0     H16897   1.104   2.789   8.184  2.7509  0.4769  0.4865
  866MOL0     H16898   0.842   2.599   8.402 -1.8341 -0.2722 -0.1769
  866MOL0     H16899   0.813   2.743   8.327 -0.6697 -1.5173  0.4474
  866MOL0     H16900   0.800   2.844   8.572 -3.4440  1.0348 -3.9286
  866MOL0     H16901   0.860   2.691   8.637 -2.0283  4.2807  2.6227
  866MOL0     H16902   0.651   2.601   8.493 -2.3663  0.9409 -1.6001
  866MOL0     H16903   0.594   2.765   8.538 -0.2737 -1.1844 -2.7240
  866MOL0     H16904   0.524   2.601   8.706  0.4313 -1.1805  2.4288
  866MOL0     H16905   0.691   2.544   8.713  1.4368  1.5261 -1.5231
  866MOL0     H16906   0.717   2.864   8.968 -3.3193 -2.2665  3.3365
  866MOL0     H16907   1.104   2.525   8.523 -0.3921 -1.4229 -0.2239
  866MOL0     H16908   1.338   2.302   8.429  0.9914  0.8213 -0.2740
  866MOL0     H16909   1.208   2.352   8.536  1.0596  2.1349 -1.0724
  866MOL0     H16910   1.178   2.242   8.390  0.0556  0.0222 -0.2508
  867MOL0     O16911   4.325   5.080   1.539 -0.1483  0.0495  0.0406
  867MOL0     C16912   4.221   5.103   1.482 -0.1221 -0.4535  0.4286
  867MOL0     O16913   4.130   5.002   1.450  0.1510 -0.9493  1.3124
  867MOL0     C16914   4.175   4.873   1.457 -0.5204  0.7938  0.4130
  867MOL0     C16915   4.179   4.781   1.351 -0.5885 -0.2668 -0.4242
  867MOL0     C16916   4.186   4.639   1.372  1.2082  0.4073  0.0433
  867MOL0     C16917   4.200   4.597   1.504  0.3589 -0.1154  0.4362
  867MOL0     O16918   4.241   4.470   1.529  0.5506  0.2978 -0.1029
  867MOL0     C16919   4.353   4.398   1.456  0.5022 -0.2851  0.0944
  867MOL0     C16920   4.452   4.382   1.575  0.4685  0.9699 -0.3074
  867MOL0     C16921   4.526   4.516   1.594  0.2717  0.4484  0.0458
  867MOL0     C16922   4.665   4.502   1.666  0.0341  0.2024 -0.5701
  867MOL0     C16923   4.730   4.641   1.697  0.0980  0.2147  0.9279
  867MOL0     C16924   4.671   4.713   1.818 -0.3114  0.1752 -0.6374
  867MOL0     C16925   4.533   4.779   1.802  0.2615 -0.1972  0.2455
  867MOL0     C16926   4.495   4.909   1.861 -1.0871  0.7901  0.1576
  867MOL0     N16927   4.601   5.005   1.863 -0.4686 -0.1419 -0.7636
  867MOL0     C16928   4.602   5.111   1.771  0.5557  0.5636 -0.6084
  867MOL0     C16929   4.681   5.203   1.828 -0.2311 -0.0406  0.0104
  867MOL0     C16930   4.704   5.344   1.787  0.3913 -0.4820 -1.6924
  867MOL0     C16931   4.847   5.371   1.740  0.2582 -0.9455  0.4189
  867MOL0     C16932   4.855   5.515   1.689  0.0977  0.8570 -0.5091
  867MOL0     C16933   4.996   5.567   1.644  0.2744  0.0178 -0.7523
  867MOL0     O16934   5.058   5.481   1.552  0.3002  0.5472  0.1932
  867MOL0     C16935   5.187   5.476   1.550  0.2757  1.2205 -0.3672
  867MOL0     C16936   5.274   5.576   1.581 -0.4152 -0.2021 -0.3959
  867MOL0     C16937   5.408   5.565   1.579 -0.1223  1.1231 -0.0567
  867MOL0     C16938   5.465   5.445   1.536 -0.5766 -0.1041 -0.0898
  867MOL0     C16939   5.608   5.437   1.529  0.2754  1.0985  0.0940
  867MOL0     O16940   5.672   5.516   1.616 -0.1845  0.0072  0.0499
  867MOL0     C16941   5.761   5.460   1.711 -1.3976 -1.2025 -0.4307
  867MOL0     C16942   5.777   5.328   1.737 -0.0487 -0.6062  0.8431
  867MOL0     C16943   5.861   5.277   1.831 -1.4880  0.0478  0.0523
  867MOL0     C16944   5.948   5.358   1.901 -0.7650 -0.5744 -0.1374
  867MOL0     O16945   6.038   5.322   1.996 -0.0610 -0.1633  0.5941
  867MOL0     C16946   6.014   5.364   2.134  0.6170 -0.4117 -0.3239
  867MOL0     C16947   6.125   5.314   2.218 -0.0872  0.7993  0.5593
  867MOL0     C16948   6.251   5.387   2.185 -0.0900 -0.4178  0.0788
  867MOL0     C16949   6.284   5.505   2.272 -0.3839  0.2204 -0.6918
  867MOL0     C16950   6.233   5.651   2.247  0.2737  1.1681  0.2062
  867MOL0     C16951   6.301   5.744   2.341 -0.4095 -0.6400 -0.6444
  867MOL0     C16952   6.211   5.854   2.392 -1.4375 -1.7390  0.2870
  867MOL0     C16953   6.187   5.957   2.281  0.2919 -0.2072  0.5046
  867MOL0    Cl16954   6.096   6.093   2.349  0.4019 -0.4108 -0.2197
  867MOL0     C16955   5.933   5.505   1.878  0.5750  0.0223 -0.1724
  867MOL0     C16956   5.835   5.551   1.788  0.0991  0.0004  0.8296
  867MOL0     O16957   5.663   5.346   1.458  0.2972 -0.3857 -0.3254
  867MOL0     C16958   5.388   5.340   1.508 -0.1403 -0.2937  0.9466
  867MOL0     C16959   5.248   5.351   1.508 -0.2533  0.2140 -0.0768
  867MOL0     N16960   4.729   5.161   1.950  0.1068  0.3187 -0.0002
  867MOL0     N16961   4.678   5.039   1.970 -0.5231 -0.4876 -0.1943
  867MOL0     C16962   4.215   4.684   1.614 -0.2164  0.1272 -0.6379
  867MOL0     C16963   4.195   4.818   1.587 -0.6259 -0.2737  0.2465
  867MOL0     C16964   4.205   5.238   1.415  0.7870 -0.0245 -0.4622
  867MOL0     C16965   4.284   5.341   1.462  0.4950 -0.6271  1.0691
  867MOL0     C16966   4.276   5.465   1.401  0.7396 -0.1402 -0.1690
  867MOL0     C16967   4.179   5.492   1.310  0.5719  0.4074  0.6360
  867MOL0     O16968   4.141   5.618   1.275 -0.2017  0.3549  0.2580
  867MOL0     C16969   4.226   5.670   1.178 -0.1582 -0.0217  0.1021
  867MOL0     C16970   4.151   5.759   1.075  0.5271 -0.5866  0.0416
  867MOL0     C16971   4.054   5.672   0.990  0.0200 -0.3849  0.5784
  867MOL0     C16972   3.960   5.737   0.894  0.4486 -0.5824  0.1674
  867MOL0     C16973   4.036   5.822   0.796 -0.5627 -0.2520 -0.1611
  867MOL0     C16974   4.115   5.859   0.714 -0.6202 -0.6045 -0.9310
  867MOL0     C16975   4.091   5.395   1.263 -0.4658 -0.6355 -0.2318
  867MOL0     C16976   4.104   5.268   1.311  0.5480  0.9435 -0.2358
  867MOL0     C16977   4.006   5.166   1.253 -0.7199  0.0121 -0.7756
  867MOL0     H16978   4.165   4.815   1.248 -2.1672  2.7947  0.6650
  867MOL0     H16979   4.178   4.569   1.289 -0.6731  0.4379  0.1526
  867MOL0     H16980   4.311   4.304   1.418 -0.3688  0.1712 -0.1262
  867MOL0     H16981   4.401   4.438   1.366 -1.2600  0.0447 -0.7547
  867MOL0     H16982   4.524   4.302   1.556 -0.7415 -1.4793  3.9490
  867MOL0     H16983   4.401   4.350   1.667 -1.1637  1.5381 -0.9625
  867MOL0     H16984   4.457   4.580   1.651 -0.1235 -0.7900  0.9879
  867MOL0     H16985   4.538   4.563   1.496  1.7883 -3.8599 -2.0906
  867MOL0     H16986   4.645   4.455   1.762  0.9921  1.1216  0.1025
  867MOL0     H16987   4.735   4.446   1.603 -1.7895 -0.6290 -1.9595
  867MOL0     H16988   4.836   4.632   1.719  0.1665  0.0833  0.5465
  867MOL0     H16989   4.719   4.700   1.605  1.1429  0.2600  0.8214
  867MOL0     H16990   4.676   4.661   1.915  0.0145  3.9185  1.5188
  867MOL0     H16991   4.736   4.798   1.839  2.4384 -1.7947 -0.4827
  867MOL0     H16992   4.469   4.702   1.845  2.2244 -1.6319  0.7549
  867MOL0     H16993   4.515   4.792   1.695  2.2705 -1.2768 -0.2752
  867MOL0     H16994   4.414   4.952   1.802  0.5947  2.9782 -0.7260
  867MOL0     H16995   4.464   4.890   1.964  1.4508 -1.4247  0.6346
  867MOL0     H16996   4.548   5.111   1.677 -0.5204 -2.0248 -0.0703
  867MOL0     H16997   4.645   5.359   1.697  0.1447  2.3601 -1.1695
  867MOL0     H16998   4.672   5.415   1.864  2.1665  0.5213 -1.8340
  867MOL0     H16999   4.916   5.346   1.821 -1.5322 -2.6717  1.4996
  867MOL0     H17000   4.875   5.299   1.663 -0.1369 -0.9789  0.3044
  867MOL0     H17001   4.798   5.584   1.751 -0.7259  0.2244 -0.5477
  867MOL0     H17002   4.804   5.516   1.592  2.0717 -1.6857 -1.6982
  867MOL0     H17003   5.056   5.584   1.735  0.5095  0.8848 -1.0638
  867MOL0     H17004   4.979   5.657   1.584  5.3395  0.8733 -1.3934
  867MOL0     H17005   5.251   5.676   1.617 -0.2757 -0.1936 -0.3277
  867MOL0     H17006   5.462   5.657   1.604 -0.1872  0.9487  0.7459
  867MOL0     H17007   5.737   5.244   1.681  1.5901 -1.7441  1.3102
  867MOL0     H17008   5.879   5.172   1.854  1.9527 -0.0555 -2.3092
  867MOL0     H17009   6.012   5.473   2.134 -1.6845 -0.4191 -0.8254
  867MOL0     H17010   5.913   5.332   2.161 -0.3853  2.6237 -0.1552
  867MOL0     H17011   6.104   5.325   2.325 -1.2068 -0.8891  0.5617
  867MOL0     H17012   6.138   5.206   2.204 -2.5813  0.5859 -0.6993
  867MOL0     H17013   6.338   5.323   2.202  1.3702  2.1526  3.3233
  867MOL0     H17014   6.250   5.418   2.080  0.2558 -1.9039 -0.3942
  867MOL0     H17015   6.392   5.522   2.271  0.1850 -2.8020 -1.3709
  867MOL0     H17016   6.268   5.468   2.374  0.2091 -2.6248 -1.5408
  867MOL0     H17017   6.124   5.650   2.254  0.2176  0.4566 -0.5616
  867MOL0     H17018   6.244   5.679   2.141 -0.8047  0.5684 -0.0756
  867MOL0     H17019   6.335   5.689   2.429  2.1767  1.7176 -0.0184
  867MOL0     H17020   6.381   5.782   2.277 -0.8322 -1.1516 -1.4895
  867MOL0     H17021   6.271   5.900   2.471 -2.1200 -0.7028  0.2216
  867MOL0     H17022   6.118   5.810   2.429 -0.5224 -1.9986  2.4066
  867MOL0     H17023   6.283   5.994   2.244 -0.9708 -1.3073 -4.7745
  867MOL0     H17024   6.135   5.912   2.196  1.7128 -1.2870  0.1600
  867MOL0     H17025   5.997   5.582   1.918  1.3643  0.2290 -1.7683
  867MOL0     H17026   5.828   5.658   1.771  1.3332  0.5823  3.4016
  867MOL0     H17027   5.449   5.253   1.484  0.2757  0.5356 -1.1126
  867MOL0     H17028   5.194   5.265   1.469 -4.3020  3.1018 -1.5705
  867MOL0     H17029   4.253   4.661   1.713 -2.3149 -2.3536 -0.3244
  867MOL0     H17030   4.205   4.885   1.672  0.9632  0.2174 -0.2807
  867MOL0     H17031   4.341   5.325   1.553 -1.8139 -0.5794  2.6070
  867MOL0     H17032   4.333   5.538   1.457  0.3214  0.0829 -0.0367
  867MOL0     H17033   4.280   5.595   1.120  1.5668  0.4836  0.9461
  867MOL0     H17034   4.317   5.715   1.221  0.7882  1.8148 -3.4492
  867MOL0     H17035   4.226   5.809   1.014  0.2327  1.6023  1.3897
  867MOL0     H17036   4.096   5.840   1.123  0.0374  0.1062 -1.6213
  867MOL0     H17037   3.989   5.620   1.061 -0.1256 -0.1583  0.6083
  867MOL0     H17038   4.110   5.602   0.927 -0.6020  1.6903 -2.5280
  867MOL0     H17039   3.896   5.670   0.837 -1.1895  1.2678 -0.2678
  867MOL0     H17040   3.894   5.810   0.941 -1.8163 -2.4553  0.0642
  867MOL0     H17041   4.202   5.875   0.653  1.7673 -0.4875  2.2734
  867MOL0     H17042   4.011   5.427   1.197  0.4482 -2.8077 -2.5548
  867MOL0     H17043   3.925   5.211   1.196 -1.7956 -2.9105 -1.7743
  867MOL0     H17044   4.059   5.105   1.180 -1.0914 -0.0348 -1.0116
  867MOL0     H17045   3.953   5.118   1.336 -5.2203  1.9859 -2.1743
  868MOL0     O17046   8.939   3.263   2.424  0.2424 -0.5940  0.3398
  868MOL0     C17047   8.984   3.364   2.365  0.4968 -0.2520  0.0089
  868MOL0     O17048   8.911   3.450   2.283  0.1065  0.0916  0.3501
  868MOL0     C17049   8.783   3.414   2.247  1.1818  0.3252  0.3381
  868MOL0     C17050   8.753   3.407   2.109 -0.7803  1.1541  0.2343
  868MOL0     C17051   8.624   3.378   2.074  0.0324  0.3561  0.2680
  868MOL0     C17052   8.526   3.339   2.168 -0.3665  0.3152 -0.6598
  868MOL0     O17053   8.396   3.320   2.131  0.1041  0.4623  0.9073
  868MOL0     C17054   8.353   3.221   2.030 -0.2166  0.1131  0.3426
  868MOL0     C17055   8.328   3.095   2.096 -0.6910 -0.0014 -0.4499
  868MOL0     C17056   8.221   3.102   2.211  0.5431  0.2927 -0.6272
  868MOL0     C17057   8.257   2.988   2.301 -0.2959 -0.3706  0.6564
  868MOL0     C17058   8.162   2.965   2.413  0.5410  0.2162 -0.8166
  868MOL0     C17059   8.023   2.898   2.354  1.1853  0.1345  0.0301
  868MOL0     C17060   8.019   2.761   2.278  0.0006 -1.1107  0.3173
  868MOL0     C17061   8.088   2.652   2.360 -0.7761 -0.8263  1.0846
  868MOL0     N17062   8.090   2.534   2.273 -0.2401  0.5138 -0.3005
  868MOL0     C17063   7.987   2.445   2.233 -0.1021  0.0342 -1.1784
  868MOL0     C17064   8.047   2.359   2.156  0.9666 -0.3966  0.0993
  868MOL0     C17065   7.992   2.253   2.065 -0.3920  0.1464  0.0823
  868MOL0     C17066   7.942   2.318   1.932 -0.6712  0.1371 -0.1323
  868MOL0     C17067   7.906   2.212   1.827  0.5478 -0.4144  0.0017
  868MOL0     C17068   7.876   2.281   1.694 -0.2496 -0.8899  0.3966
  868MOL0     O17069   7.999   2.281   1.614 -0.1877 -0.5409 -0.6429
  868MOL0     C17070   7.997   2.310   1.479 -0.2156  0.3836 -0.3955
  868MOL0     C17071   8.109   2.315   1.414 -0.0674 -0.1567  0.1964
  868MOL0     C17072   8.113   2.317   1.271  1.0431  0.3091  0.2701
  868MOL0     C17073   7.999   2.323   1.196  0.6157  0.2420 -0.2410
  868MOL0     C17074   8.008   2.333   1.055  0.0249 -0.4117  0.7819
  868MOL0     O17075   8.114   2.399   1.006 -0.0097 -0.1098 -0.3459
  868MOL0     C17076   8.130   2.411   0.867 -0.2185 -0.2189 -0.6861
  868MOL0     C17077   8.237   2.343   0.806  0.2925 -0.2753 -0.7059
  868MOL0     C17078   8.232   2.330   0.663 -0.2794 -0.6342 -0.3609
  868MOL0     C17079   8.138   2.396   0.588 -0.5273 -1.1825  0.3426
  868MOL0     O17080   8.147   2.390   0.445 -0.3862 -1.0330 -0.8451
  868MOL0     C17081   8.151   2.259   0.395 -0.6162 -0.1377 -0.5319
  868MOL0     C17082   8.084   2.269   0.258 -0.1212  0.6577  0.4423
  868MOL0     C17083   8.069   2.127   0.209 -0.7682  0.1305 -0.5258
  868MOL0     C17084   8.051   2.136   0.062  0.0166 -0.0083 -0.4246
  868MOL0     C17085   8.027   1.995   0.016  0.0166  0.3650  0.3519
  868MOL0     C17086   7.965   1.979  -0.119 -0.0860  0.2261  0.3723
  868MOL0     C17087   7.896   1.838  -0.134 -0.1419  0.0579  0.4920
  868MOL0     C17088   7.747   1.834  -0.198 -0.8360 -0.9024  0.1361
  868MOL0    Cl17089   7.717   1.936  -0.333  0.4452 -0.0463  0.3256
  868MOL0     C17090   8.037   2.477   0.657  1.0389  0.7486  0.5949
  868MOL0     C17091   8.034   2.480   0.794  0.9873  0.0284 -0.3182
  868MOL0     O17092   7.914   2.291   0.991  0.7277 -0.4542 -0.0751
  868MOL0     C17093   7.877   2.327   1.264 -0.3704 -1.2650 -0.3128
  868MOL0     C17094   7.876   2.316   1.408 -0.7186 -0.3661  0.0346
  868MOL0     N17095   8.180   2.403   2.138  0.7352  0.0952  0.2994
  868MOL0     N17096   8.209   2.501   2.213  0.2419  0.3608 -0.0916
  868MOL0     C17097   8.558   3.340   2.294  0.2932 -0.5536 -0.4917
  868MOL0     C17098   8.680   3.377   2.345  0.3960  0.7917  0.1468
  868MOL0     C17099   9.125   3.404   2.393  0.6856 -0.0125  0.7266
  868MOL0     C17100   9.158   3.540   2.391 -0.8087  0.8610  0.8536
  868MOL0     C17101   9.282   3.589   2.407  0.7129  1.4840 -0.1316
  868MOL0     C17102   9.380   3.506   2.444 -0.0597  0.2290 -0.2808
  868MOL0     O17103   9.498   3.565   2.478 -0.3901 -0.2616 -0.2087
  868MOL0     C17104   9.614   3.485   2.494  0.3729 -0.1406 -0.0869
  868MOL0     C17105   9.729   3.578   2.462  0.2944  0.7575 -0.2939
  868MOL0     C17106   9.864   3.510   2.445 -0.8059  1.4903 -0.5264
  868MOL0     C17107   9.988   3.605   2.444 -0.4310  0.9453  0.5791
  868MOL0     C17108   9.987   3.693   2.325 -0.2241  0.9543  0.1737
  868MOL0     C17109  10.019   3.762   2.233  0.0185  0.0456  0.6144
  868MOL0     C17110   9.349   3.367   2.460  0.4198  0.9270  0.4118
  868MOL0     C17111   9.223   3.317   2.432 -0.7030  0.3363 -0.2255
  868MOL0     C17112   9.201   3.167   2.453  0.0949  0.5153  0.3840
  868MOL0     H17113   8.831   3.437   2.040  0.9241 -1.0259  1.0981
  868MOL0     H17114   8.589   3.384   1.971 -2.5319 -1.5675  0.9362
  868MOL0     H17115   8.266   3.266   1.982  0.4429 -0.0738 -1.0792
  868MOL0     H17116   8.433   3.215   1.956 -0.1758 -3.1923  0.5145
  868MOL0     H17117   8.421   3.047   2.130 -1.2896 -1.0327 -0.2502
  868MOL0     H17118   8.283   3.027   2.024  0.7166 -0.6805 -0.7255
  868MOL0     H17119   8.127   3.074   2.164 -0.1178  0.7269  0.4146
  868MOL0     H17120   8.213   3.198   2.262  1.0939  0.4509 -0.8230
  868MOL0     H17121   8.268   2.900   2.238 -0.3570 -0.9741  1.4823
  868MOL0     H17122   8.351   3.011   2.352  0.8406 -2.5856 -0.3062
  868MOL0     H17123   8.204   2.899   2.489 -0.0378 -0.2479 -0.8843
  868MOL0     H17124   8.131   3.053   2.470  0.1117  0.7392 -1.8398
  868MOL0     H17125   7.967   2.885   2.448  0.6382 -0.8637 -0.4182
  868MOL0     H17126   7.967   2.969   2.293 -3.5211 -0.6282  2.9078
  868MOL0     H17127   8.089   2.788   2.198 -2.1641 -0.1019 -1.3382
  868MOL0     H17128   7.920   2.751   2.233 -0.0354  0.3194  0.0316
  868MOL0     H17129   8.187   2.662   2.405 -1.0119  0.0026  1.4391
  868MOL0     H17130   8.018   2.634   2.442 -0.2540  2.8974  2.5062
  868MOL0     H17131   7.880   2.459   2.246  0.1359  1.1880 -0.3479
  868MOL0     H17132   8.073   2.179   2.064 -0.7351 -0.3048  2.0884
  868MOL0     H17133   7.915   2.190   2.111  0.0399 -1.8122 -1.7049
  868MOL0     H17134   7.865   2.394   1.946 -0.1317  0.3268  2.2351
  868MOL0     H17135   8.034   2.364   1.895 -0.9341 -0.8987 -2.1932
  868MOL0     H17136   7.819   2.165   1.875  1.6821 -0.0710  2.5825
  868MOL0     H17137   7.989   2.143   1.806 -1.2676 -1.7756 -3.5418
  868MOL0     H17138   7.819   2.373   1.713 -0.2606 -0.4034 -1.8247
  868MOL0     H17139   7.814   2.206   1.643 -1.0985 -1.7911  2.6117
  868MOL0     H17140   8.207   2.305   1.461  0.5454  0.5137 -0.8802
  868MOL0     H17141   8.211   2.303   1.227  1.1660 -2.4535  1.2441
  868MOL0     H17142   8.310   2.288   0.864  0.3374 -0.5268 -0.9964
  868MOL0     H17143   8.313   2.276   0.614  1.5715  2.3738 -0.8553
  868MOL0     H17144   8.252   2.221   0.378 -1.0550 -0.3691 -3.0281
  868MOL0     H17145   8.099   2.190   0.463  1.6559  0.2697  1.7539
  868MOL0     H17146   7.985   2.313   0.273  0.3600  2.2818 -0.9401
  868MOL0     H17147   8.151   2.327   0.194  2.1233 -0.1015  1.9917
  868MOL0     H17148   8.159   2.068   0.231 -1.6217 -0.9826  0.0497
  868MOL0     H17149   7.987   2.079   0.263 -1.1828  0.6410 -0.6944
  868MOL0     H17150   8.128   2.192   0.010  2.2541  0.0320  2.6662
  868MOL0     H17151   7.957   2.189   0.044  0.2317 -0.5769 -3.8638
  868MOL0     H17152   7.949   1.961   0.085  0.9474 -1.3501  0.6143
  868MOL0     H17153   8.118   1.939   0.038  0.2160  0.6443  0.2490
  868MOL0     H17154   7.893   2.059  -0.139 -0.6056 -0.6453 -1.4538
  868MOL0     H17155   8.044   1.990  -0.194 -0.0178  1.7424  0.6318
  868MOL0     H17156   7.897   1.781  -0.041  5.2036 -3.3161 -1.2159
  868MOL0     H17157   7.956   1.791  -0.211 -2.1062  1.5820 -2.1337
  868MOL0     H17158   7.722   1.732  -0.225  2.1205 -2.1487  1.6399
  868MOL0     H17159   7.688   1.865  -0.111 -4.0131 -4.1955 -0.6023
  868MOL0     H17160   7.963   2.531   0.598  0.6973 -0.0225  0.3027
  868MOL0     H17161   7.945   2.520   0.842  1.6724  0.2008  0.8465
  868MOL0     H17162   7.780   2.348   1.222 -1.0242  0.4612  1.8616
  868MOL0     H17163   7.775   2.316   1.447 -0.9509 -0.8283 -0.5465
  868MOL0     H17164   8.482   3.318   2.368  1.2267  2.9561  1.7424
  868MOL0     H17165   8.685   3.376   2.453  0.4969 -2.9550  0.2337
  868MOL0     H17166   9.080   3.607   2.354 -0.4717  0.4394 -0.6797
  868MOL0     H17167   9.286   3.697   2.398 -7.3547  2.2088 -3.8986
  868MOL0     H17168   9.617   3.392   2.437 -0.8106 -0.5594  0.5055
  868MOL0     H17169   9.602   3.451   2.597 -0.7123 -1.3291 -0.5806
  868MOL0     H17170   9.732   3.655   2.540  0.3342 -0.5072  1.0041
  868MOL0     H17171   9.698   3.618   2.365  0.3874  0.6259 -0.3792
  868MOL0     H17172   9.860   3.452   2.352  3.3165  4.7146 -3.0362
  868MOL0     H17173   9.880   3.446   2.533 -1.1615  1.5352 -0.4249
  868MOL0     H17174   9.991   3.671   2.531  2.7606  0.4334  0.9705
  868MOL0     H17175  10.080   3.547   2.454 -1.0272  0.1166  1.3627
  868MOL0     H17176  10.030   3.831   2.152  2.1505  1.7875  2.2489
  868MOL0     H17177   9.412   3.291   2.506 -1.4488 -1.2091 -0.3398
  868MOL0     H17178   9.129   3.154   2.534  1.6232 -1.5702  1.5173
  868MOL0     H17179   9.168   3.132   2.355 -0.2029 -1.7049  1.2068
  868MOL0     H17180   9.294   3.111   2.471  0.2444  0.3689 -0.8006
  869MOL0     O17181   3.446  10.193   2.948 -0.6733  0.0382  0.4151
  869MOL0     C17182   3.550  10.230   2.901  0.0120 -0.5455 -0.0875
  869MOL0     O17183   3.674  10.183   2.921  0.3190  0.7381  0.9030
  869MOL0     C17184   3.698  10.112   3.040  0.4293 -0.3094 -0.7809
  869MOL0     C17185   3.697   9.973   3.042  0.2722  0.2424  0.2919
  869MOL0     C17186   3.728   9.907   3.165 -0.2322 -1.2410 -0.5155
  869MOL0     C17187   3.744   9.975   3.282  0.1071 -0.2706  0.1104
  869MOL0     O17188   3.754   9.916   3.406  0.1227  0.1099  0.3324
  869MOL0     C17189   3.740   9.779   3.400 -0.3023  1.5138  0.5639
  869MOL0     C17190   3.730   9.702   3.541 -0.2451 -0.7308  0.1557
  869MOL0     C17191   3.843   9.756   3.641 -0.0184 -0.0208  0.3829
  869MOL0     C17192   3.982   9.730   3.582 -0.6280  0.4726  0.0422
  869MOL0     C17193   4.078   9.726   3.704  1.2464  0.1110  0.6991
  869MOL0     C17194   4.223   9.742   3.678 -0.3390 -0.3231  0.4972
  869MOL0     C17195   4.292   9.790   3.804  0.4475  0.0591 -0.5482
  869MOL0     C17196   4.442   9.814   3.789  0.6205 -0.3249  0.1377
  869MOL0     N17197   4.522   9.690   3.811  0.1949  0.1823  0.4796
  869MOL0     C17198   4.564   9.647   3.938 -0.1662  0.0042  0.6705
  869MOL0     C17199   4.620   9.525   3.910 -0.2081 -1.2186  0.5501
  869MOL0     C17200   4.661   9.413   4.004 -0.5467 -0.0030 -0.7296
  869MOL0     C17201   4.553   9.320   4.053  0.8601  0.5034  0.2906
  869MOL0     C17202   4.469   9.253   3.935 -1.0167  0.4742 -0.3025
  869MOL0     C17203   4.363   9.156   3.991 -0.9642  0.0211  0.4878
  869MOL0     O17204   4.234   9.229   3.994 -0.1701  0.0227  0.1645
  869MOL0     C17205   4.162   9.222   3.873  0.0392  0.5211 -0.3097
  869MOL0     C17206   4.122   9.103   3.813  0.5380 -0.0519  0.1113
  869MOL0     C17207   4.038   9.109   3.699  0.2275  1.0869 -0.2986
  869MOL0     C17208   3.984   9.226   3.644  0.7299 -0.4864  0.0851
  869MOL0     C17209   3.887   9.236   3.537 -0.4116 -0.2476  0.2217
  869MOL0     O17210   3.873   9.364   3.479 -0.2676 -0.0206  0.1579
  869MOL0     C17211   3.770   9.381   3.397  0.2390 -0.7760 -0.7471
  869MOL0     C17212   3.794   9.452   3.279 -0.4122 -0.4398  0.3082
  869MOL0     C17213   3.690   9.484   3.189  0.2216 -0.0192 -0.2059
  869MOL0     C17214   3.561   9.433   3.217 -0.5922 -0.2348  0.4553
  869MOL0     O17215   3.461   9.462   3.121  0.2340  0.5623 -0.7879
  869MOL0     C17216   3.346   9.369   3.112 -0.0680  0.3582 -0.0039
  869MOL0     C17217   3.232   9.454   3.074  0.6190 -0.2585  0.7294
  869MOL0     C17218   3.091   9.373   3.086 -0.3530  0.6378  0.3554
  869MOL0     C17219   2.967   9.451   3.109  0.3504  0.3107  0.0853
  869MOL0     C17220   2.965   9.554   3.218  0.2038 -0.2715 -0.4922
  869MOL0     C17221   2.824   9.608   3.261 -0.3030  1.3076 -0.6057
  869MOL0     C17222   2.756   9.507   3.346 -0.9543  0.7949  0.3253
  869MOL0     C17223   2.610   9.540   3.360  0.3682  0.6106  0.1066
  869MOL0    Cl17224   2.522   9.411   3.435  0.1449  0.3959  0.3218
  869MOL0     C17225   3.529   9.369   3.338 -0.0621  0.1478 -0.4981
  869MOL0     C17226   3.637   9.346   3.430  0.2774 -0.0570  0.2762
  869MOL0     O17227   3.830   9.134   3.506  1.0684  1.1287  0.1771
  869MOL0     C17228   4.026   9.344   3.706  0.0047  0.6785  0.1505
  869MOL0     C17229   4.110   9.339   3.814  0.2527  0.6390 -0.2408
  869MOL0     N17230   4.606   9.499   3.770 -0.7669 -0.6016  0.2428
  869MOL0     N17231   4.546   9.605   3.719  0.0345 -0.1738 -0.3380
  869MOL0     C17232   3.760  10.118   3.274  0.3275  1.0977  0.1495
  869MOL0     C17233   3.731  10.183   3.154 -0.3275 -0.4123  0.1433
  869MOL0     C17234   3.553  10.330   2.795 -0.4515  1.7016  0.0919
  869MOL0     C17235   3.492  10.456   2.815  0.7553 -0.6622 -0.0748
  869MOL0     C17236   3.491  10.535   2.706  0.3302 -0.2446 -0.3799
  869MOL0     C17237   3.549  10.502   2.581  0.0887 -0.6580  0.2702
  869MOL0     O17238   3.569  10.586   2.466 -0.4542 -0.0151 -0.0554
  869MOL0     C17239   3.529  10.725   2.487 -0.0143 -0.4486 -0.0979
  869MOL0     C17240   3.560  10.814   2.356  0.8311  0.2565  0.0256
  869MOL0     C17241   3.707  10.829   2.333 -0.7782 -0.3026 -0.1091
  869MOL0     C17242   3.778  10.963   2.350  0.2997  1.8217 -1.8196
  869MOL0     C17243   3.763  10.998   2.495  0.6157 -0.3006 -0.7833
  869MOL0     C17244   3.732  11.040   2.605  0.8861 -0.0805 -0.3207
  869MOL0     C17245   3.603  10.383   2.561 -0.4982 -0.1461 -0.0364
  869MOL0     C17246   3.616  10.291   2.663  0.3697 -0.9408 -0.8465
  869MOL0     C17247   3.669  10.149   2.618  0.7687 -1.1648 -0.7074
  869MOL0     H17248   3.668   9.913   2.956  2.7406  0.4155 -0.7407
  869MOL0     H17249   3.734   9.801   3.143 -2.6097 -1.7821  1.0549
  869MOL0     H17250   3.642   9.760   3.357  0.7301 -0.0591 -1.2753
  869MOL0     H17251   3.823   9.728   3.349 -1.2167  0.1821  0.3632
  869MOL0     H17252   3.754   9.597   3.523  0.8107 -0.5302  0.3547
  869MOL0     H17253   3.625   9.709   3.572 -1.5201  0.1837 -3.7628
  869MOL0     H17254   3.832   9.715   3.743  2.8036  0.8524  1.1271
  869MOL0     H17255   3.828   9.861   3.668  0.8847  0.0758  0.5396
  869MOL0     H17256   4.001   9.642   3.520 -3.3029  0.0837 -0.3578
  869MOL0     H17257   3.988   9.817   3.516 -2.1077 -0.5172 -1.4861
  869MOL0     H17258   4.043   9.813   3.762  0.9193 -1.2453  2.6325
  869MOL0     H17259   4.067   9.634   3.762 -0.1673 -1.3797 -1.7971
  869MOL0     H17260   4.260   9.653   3.627 -0.0458 -1.0135  1.8892
  869MOL0     H17261   4.234   9.821   3.603  2.1730  0.4257  1.5479
  869MOL0     H17262   4.275   9.710   3.876  1.9156 -1.0079 -1.3393
  869MOL0     H17263   4.248   9.886   3.833 -0.6042 -1.2746  2.6956
  869MOL0     H17264   4.471   9.847   3.689  2.5402 -0.1483  0.7162
  869MOL0     H17265   4.465   9.895   3.860  4.6497 -0.7223 -0.4802
  869MOL0     H17266   4.574   9.697   4.034  1.9383 -1.7659  1.4696
  869MOL0     H17267   4.738   9.358   3.950 -0.7123  1.4699 -2.5895
  869MOL0     H17268   4.711   9.456   4.091  0.4988 -0.9462 -0.8453
  869MOL0     H17269   4.597   9.248   4.122 -1.9281 -1.8028 -0.1974
  869MOL0     H17270   4.483   9.375   4.117  1.1466 -0.9814  1.9661
  869MOL0     H17271   4.532   9.201   3.862 -0.8289 -1.0569  0.9130
  869MOL0     H17272   4.416   9.318   3.865 -3.3115 -1.5691 -0.6006
  869MOL0     H17273   4.383   9.125   4.094  1.6603 -5.4253 -1.2954
  869MOL0     H17274   4.346   9.070   3.926  0.0044  1.6751 -2.1021
  869MOL0     H17275   4.143   9.004   3.853 -3.3450 -0.4908  1.5147
  869MOL0     H17276   4.013   9.009   3.664 -1.3209  0.7178  1.6889
  869MOL0     H17277   3.889   9.500   3.257 -0.0508 -1.0177  0.5780
  869MOL0     H17278   3.706   9.549   3.104  0.9722  0.4762  0.2946
  869MOL0     H17279   3.369   9.291   3.039 -1.7727  0.7405 -1.0036
  869MOL0     H17280   3.322   9.324   3.208  1.8650 -0.4846  0.1330
  869MOL0     H17281   3.215   9.537   3.142  2.6818 -0.0677  1.0611
  869MOL0     H17282   3.251   9.492   2.973  3.0010 -1.7888  0.5129
  869MOL0     H17283   3.075   9.321   2.991  0.4423  0.3761  0.3627
  869MOL0     H17284   3.106   9.306   3.171  1.2591 -1.3186 -1.3607
  869MOL0     H17285   2.890   9.373   3.110  0.4197  0.2353 -0.3829
  869MOL0     H17286   2.943   9.504   3.017  1.6422  0.7974  0.0154
  869MOL0     H17287   3.025   9.645   3.205  0.2844  0.2363  2.6188
  869MOL0     H17288   3.020   9.516   3.305 -0.1487  0.4511  0.0563
  869MOL0     H17289   2.847   9.698   3.320 -1.5448  1.8411 -0.9122
  869MOL0     H17290   2.768   9.625   3.169  2.0078 -1.3802 -2.6952
  869MOL0     H17291   2.810   9.509   3.441 -2.4191 -1.5961  1.2907
  869MOL0     H17292   2.769   9.411   3.296 -2.1001  1.0173 -0.4379
  869MOL0     H17293   2.609   9.639   3.405  1.8672  1.3360 -1.3915
  869MOL0     H17294   2.553   9.567   3.270 -1.2582  1.5880  1.3690
  869MOL0     H17295   3.428   9.344   3.367  0.2523  0.6420  1.0799
  869MOL0     H17296   3.601   9.303   3.523 -0.3624 -0.6553 -0.2427
  869MOL0     H17297   3.983   9.441   3.686 -1.1897  0.7546  2.7116
  869MOL0     H17298   4.120   9.435   3.863 -0.9039  1.5714 -1.7475
  869MOL0     H17299   3.779  10.178   3.362  1.5571 -0.9503  1.3545
  869MOL0     H17300   3.726  10.291   3.167 -0.5767 -0.7125  3.0035
  869MOL0     H17301   3.437  10.485   2.904 -0.7405  0.7571 -1.3947
  869MOL0     H17302   3.442  10.630   2.725  0.6280  0.0555 -1.0877
  869MOL0     H17303   3.573  10.769   2.577  0.3188  1.3988 -1.1057
  869MOL0     H17304   3.421  10.721   2.499 -0.4436  2.8171 -1.6771
  869MOL0     H17305   3.516  10.914   2.363 -2.2060 -0.9804  0.2195
  869MOL0     H17306   3.515  10.758   2.274 -3.3836 -0.3908  2.4797
  869MOL0     H17307   3.717  10.811   2.225 -2.1296 -1.2222 -0.0954
  869MOL0     H17308   3.761  10.750   2.386 -1.6483 -0.1856  0.9898
  869MOL0     H17309   3.879  10.938   2.315  0.6120 -1.2140  0.8327
  869MOL0     H17310   3.738  11.047   2.294 -0.2157  3.6634  1.1145
  869MOL0     H17311   3.710  11.082   2.701  0.2484 -2.5514  0.6974
  869MOL0     H17312   3.642  10.356   2.463 -0.6041  0.5404 -0.2728
  869MOL0     H17313   3.588  10.103   2.561 -1.8994  0.2697  1.6492
  869MOL0     H17314   3.765  10.157   2.565  0.9482  1.9145 -0.0946
  869MOL0     H17315   3.702  10.085   2.701  4.3816  0.3614 -0.7771
  870MOL0     O17316  10.996   0.482   4.449 -0.6744  0.1076  0.1879
  870MOL0     C17317  10.954   0.421   4.352  0.0456  1.0093  0.0366
  870MOL0     O17318  10.948   0.286   4.335 -0.2870  0.0549 -0.4257
  870MOL0     C17319  10.955   0.206   4.447 -0.2566  0.6897 -0.0553
  870MOL0     C17320  11.021   0.088   4.426 -0.8083 -1.0162 -0.0308
  870MOL0     C17321  11.063   0.006   4.534 -0.2652 -0.3364  0.2339
  870MOL0     C17322  11.040   0.039   4.667  0.5654  0.4266  0.0662
  870MOL0     O17323  11.079  -0.041   4.774  0.2197  0.8648  0.4236
  870MOL0     C17324  11.088  -0.186   4.750  0.0919  0.2109 -0.1679
  870MOL0     C17325  11.147  -0.242   4.879 -1.1425 -0.6353  0.7225
  870MOL0     C17326  11.127  -0.398   4.890 -0.4208  0.8007  0.5860
  870MOL0     C17327  11.191  -0.443   5.016 -0.0054  0.2533  0.6129
  870MOL0     C17328  11.138  -0.589   5.038 -0.7120  0.7633  0.2606
  870MOL0     C17329  10.993  -0.604   5.082  0.2059 -0.0812  0.5420
  870MOL0     C17330  10.940  -0.749   5.090  0.3899  0.1994  0.5563
  870MOL0     C17331  11.000  -0.830   5.205  0.3822  0.3209 -0.1741
  870MOL0     N17332  10.932  -0.954   5.235  1.5275  0.2498  1.0505
  870MOL0     C17333  10.899  -1.046   5.139  0.3811  0.1092  0.0418
  870MOL0     C17334  10.837  -1.145   5.211 -0.3215  0.2418 -0.5390
  870MOL0     C17335  10.782  -1.273   5.157 -0.2167  0.0567 -0.1763
  870MOL0     C17336  10.890  -1.382   5.184  0.3373 -0.5533 -0.7342
  870MOL0     C17337  10.860  -1.519   5.124  0.9410  0.1663 -0.8128
  870MOL0     C17338  10.781  -1.607   5.226 -0.6498 -0.2180  0.5454
  870MOL0     O17339  10.660  -1.540   5.274 -0.2102 -0.1326  0.2250
  870MOL0     C17340  10.566  -1.614   5.341  0.4794  0.2071 -0.6520
  870MOL0     C17341  10.574  -1.748   5.346  0.8876  0.3114  0.6220
  870MOL0     C17342  10.478  -1.825   5.416  0.5832  0.0111  0.0276
  870MOL0     C17343  10.371  -1.757   5.485 -0.0226 -0.0325 -0.4542
  870MOL0     C17344  10.254  -1.837   5.546 -1.3670 -0.5462  0.9381
  870MOL0     O17345  10.144  -1.773   5.582 -0.7864  1.3257 -0.5687
  870MOL0     C17346  10.056  -1.856   5.647  0.7653  0.0753 -0.8053
  870MOL0     C17347   9.989  -1.961   5.583  0.3778  0.3067 -0.1187
  870MOL0     C17348   9.895  -2.036   5.655  0.5289  0.1136  0.1434
  870MOL0     C17349   9.859  -2.007   5.786 -0.2340 -0.0908 -0.6150
  870MOL0     O17350   9.786  -2.091   5.871  0.2019 -0.0446 -0.2430
  870MOL0     C17351   9.764  -2.228   5.832  0.6063 -0.1460 -0.4149
  870MOL0     C17352   9.661  -2.283   5.928  0.0267  0.6429 -0.1553
  870MOL0     C17353   9.722  -2.300   6.066 -0.2091 -0.1741  0.5195
  870MOL0     C17354   9.637  -2.384   6.176  0.1928 -0.7312 -0.0339
  870MOL0     C17355   9.708  -2.433   6.304 -0.4755 -0.3540 -0.0808
  870MOL0     C17356   9.624  -2.534   6.383  0.3386  0.3349 -0.6019
  870MOL0     C17357   9.630  -2.683   6.329  0.8198 -0.7885 -0.5634
  870MOL0     C17358   9.542  -2.787   6.393 -1.4014 -0.6817 -0.4888
  870MOL0    Cl17359   9.362  -2.733   6.384  0.0044  0.0682 -0.1898
  870MOL0     C17360   9.918  -1.894   5.843 -0.2771 -0.2319  0.2053
  870MOL0     C17361  10.008  -1.815   5.778 -0.0239 -1.0098 -0.3251
  870MOL0     O17362  10.280  -1.957   5.558 -0.3027  0.6645 -0.4983
  870MOL0     C17363  10.383  -1.621   5.500 -0.5815 -0.9687 -0.3988
  870MOL0     C17364  10.479  -1.550   5.424  1.0650 -0.2411  0.0043
  870MOL0     N17365  10.837  -1.108   5.345 -0.1375  0.0645  0.6904
  870MOL0     N17366  10.876  -0.989   5.352  0.8958 -0.6813 -0.5972
  870MOL0     C17367  10.971   0.158   4.692 -0.1690  0.2786 -0.1484
  870MOL0     C17368  10.925   0.240   4.582 -0.1078 -0.3031 -0.5665
  870MOL0     C17369  10.928   0.498   4.238 -0.5771  0.0784  0.2947
  870MOL0     C17370  11.023   0.602   4.192  0.6651  0.0939 -0.1018
  870MOL0     C17371  11.018   0.675   4.078  0.4791  0.7735  0.8152
  870MOL0     C17372  10.929   0.634   3.982  0.4467 -0.4911  0.3562
  870MOL0     O17373  10.901   0.695   3.862 -0.2458 -0.5457  0.1762
  870MOL0     C17374  10.991   0.782   3.797 -0.8344  0.3925  0.2034
  870MOL0     C17375  11.092   0.678   3.740  0.3088  0.4198  0.8989
  870MOL0     C17376  11.209   0.725   3.660  0.6446  0.4048 -0.5701
  870MOL0     C17377  11.194   0.836   3.554 -0.5542 -0.0635  0.1122
  870MOL0     C17378  11.070   0.816   3.478  0.5215 -0.1552  0.0168
  870MOL0     C17379  10.973   0.834   3.407  0.1518 -0.4293 -0.0928
  870MOL0     C17380  10.839   0.524   4.011  0.4107  0.1758  0.2359
  870MOL0     C17381  10.839   0.460   4.139 -0.8576  0.1339  0.0551
  870MOL0     C17382  10.737   0.352   4.152  0.4038  0.7108  0.9632
  870MOL0     H17383  11.054   0.064   4.326 -2.0534 -0.4769 -0.5988
  870MOL0     H17384  11.133  -0.071   4.504  0.5463  0.9666 -1.3768
  870MOL0     H17385  10.984  -0.220   4.744 -0.9021  2.8897  0.2737
  870MOL0     H17386  11.138  -0.212   4.656  0.6403  2.1807 -0.4668
  870MOL0     H17387  11.102  -0.190   4.964 -4.9733  0.2880 -1.6274
  870MOL0     H17388  11.252  -0.212   4.884 -1.5382  1.4744 -1.6887
  870MOL0     H17389  11.175  -0.450   4.806 -1.6032 -0.2583  0.5485
  870MOL0     H17390  11.020  -0.418   4.891 -0.4998  1.2592  1.3675
  870MOL0     H17391  11.300  -0.442   5.007 -0.1712 -1.2321 -3.5767
  870MOL0     H17392  11.174  -0.375   5.099  2.8985  3.1295 -0.9090
  870MOL0     H17393  11.142  -0.652   4.948 -3.9078 -1.8123  1.6996
  870MOL0     H17394  11.196  -0.638   5.117 -2.6288 -0.4851  0.9786
  870MOL0     H17395  10.970  -0.559   5.179 -2.5642 -2.3614  1.0737
  870MOL0     H17396  10.926  -0.556   5.009 -0.2382 -0.2480  0.8374
  870MOL0     H17397  10.948  -0.799   4.993  0.8713  0.8371  0.2533
  870MOL0     H17398  10.833  -0.738   5.107  0.3253  2.1381 -0.8240
  870MOL0     H17399  11.108  -0.846   5.190 -0.0071 -0.4708 -2.4485
  870MOL0     H17400  11.008  -0.773   5.298  1.6837 -0.5347  0.2847
  870MOL0     H17401  10.916  -1.026   5.034  0.2034  2.3139  0.3876
  870MOL0     H17402  10.693  -1.294   5.218  0.3299  3.3474  2.0715
  870MOL0     H17403  10.765  -1.278   5.049  3.8749 -1.1226 -0.9420
  870MOL0     H17404  10.987  -1.351   5.143  0.1787  0.5878 -0.2907
  870MOL0     H17405  10.909  -1.392   5.291  4.7768  0.1036 -1.2423
  870MOL0     H17406  10.955  -1.564   5.092  0.8233 -1.8368  1.4034
  870MOL0     H17407  10.799  -1.496   5.036 -1.2558  0.6947  0.7644
  870MOL0     H17408  10.851  -1.619   5.309  0.6818 -3.1290 -0.8663
  870MOL0     H17409  10.771  -1.706   5.181  2.8108 -1.6478  2.5728
  870MOL0     H17410  10.643  -1.814   5.294 -3.9947 -2.9804 -2.4741
  870MOL0     H17411  10.468  -1.932   5.402  1.0313 -0.0896  0.4409
  870MOL0     H17412  10.000  -1.990   5.479 -1.1672 -1.1695  0.0830
  870MOL0     H17413   9.845  -2.115   5.600 -1.7384  1.7982 -0.3911
  870MOL0     H17414   9.729  -2.230   5.728  1.6559  0.9330 -0.8161
  870MOL0     H17415   9.861  -2.275   5.814  0.4959 -0.6489  0.2802
  870MOL0     H17416   9.578  -2.211   5.935 -2.0696 -1.4023 -1.9694
  870MOL0     H17417   9.629  -2.383   5.896  0.9429 -0.2816  1.6923
  870MOL0     H17418   9.813  -2.361   6.060  0.0984  0.3845 -0.6481
  870MOL0     H17419   9.743  -2.207   6.120  2.1885 -0.6644  0.5363
  870MOL0     H17420   9.595  -2.473   6.129  1.8662 -1.1846 -0.7486
  870MOL0     H17421   9.559  -2.321   6.218 -0.9227 -0.7273 -2.0206
  870MOL0     H17422   9.727  -2.353   6.376 -1.1143 -0.7538  0.5477
  870MOL0     H17423   9.795  -2.481   6.258 -0.4949  0.5201 -1.0698
  870MOL0     H17424   9.668  -2.549   6.482  1.0661 -0.8114 -1.0778
  870MOL0     H17425   9.524  -2.492   6.398  0.9152  0.6558  3.3298
  870MOL0     H17426   9.732  -2.717   6.350  0.2862 -1.4273  1.2865
  870MOL0     H17427   9.618  -2.676   6.221 -3.8029 -3.0514 -0.4514
  870MOL0     H17428   9.563  -2.881   6.341  0.0454  0.7587 -2.6395
  870MOL0     H17429   9.584  -2.797   6.494  0.0811 -2.1317 -1.1860
  870MOL0     H17430   9.883  -1.859   5.940 -2.2427  0.8229 -0.8282
  870MOL0     H17431  10.057  -1.731   5.827 -1.4086  0.1926 -0.9375
  870MOL0     H17432  10.307  -1.564   5.553 -1.3569 -2.6944  0.4235
  870MOL0     H17433  10.478  -1.443   5.437  1.3842  0.0717 -2.1657
  870MOL0     H17434  10.938   0.183   4.792 -4.1805 -1.5065 -0.8039
  870MOL0     H17435  10.876   0.328   4.621 -1.6911 -1.4181  0.0228
  870MOL0     H17436  11.109   0.626   4.253 -0.9127  2.4401  1.3869
  870MOL0     H17437  11.102   0.741   4.058  0.5731  0.3843 -0.1166
  870MOL0     H17438  11.053   0.847   3.859  2.1583 -3.1969  1.3604
  870MOL0     H17439  10.949   0.843   3.717 -0.4373 -2.0968 -2.0543
  870MOL0     H17440  11.044   0.620   3.661  3.9695  2.0719 -2.8833
  870MOL0     H17441  11.124   0.615   3.823  1.1005  0.3800  0.5744
  870MOL0     H17442  11.268   0.643   3.617  1.4454  1.5943 -1.8707
  870MOL0     H17443  11.279   0.769   3.732 -1.0744  1.9747  0.2175
  870MOL0     H17444  11.188   0.928   3.614 -4.1262  1.7027 -2.6102
  870MOL0     H17445  11.285   0.841   3.495 -0.0181 -2.4035  0.6561
  870MOL0     H17446  10.887   0.847   3.345 -0.2894 -0.7861  0.4373
  870MOL0     H17447  10.762   0.499   3.939  0.1559 -1.5576  1.0405
  870MOL0     H17448  10.784   0.255   4.171 -3.1433 -1.1175  1.3106
  870MOL0     H17449  10.668   0.372   4.235  2.1572  1.6093  2.2571
  870MOL0     H17450  10.677   0.342   4.061  2.5141 -1.3924 -0.2834
  871MOL0     O17451   5.217   1.055   1.153 -0.1014  0.1288 -0.2525
  871MOL0     C17452   5.234   0.932   1.189  0.4595 -1.0551  0.7713
  871MOL0     O17453   5.320   0.847   1.126 -0.3040  0.2430  1.2529
  871MOL0     C17454   5.433   0.885   1.052 -0.1659 -0.2671  0.1394
  871MOL0     C17455   5.487   1.019   1.070  0.5068  0.4877 -0.1182
  871MOL0     C17456   5.600   1.054   1.000  0.4988  0.2394  0.1095
  871MOL0     C17457   5.679   0.962   0.926 -0.2385 -0.5574  0.5133
  871MOL0     O17458   5.798   0.990   0.861 -0.9009  0.0468  0.3463
  871MOL0     C17459   5.858   1.120   0.880 -0.1843 -0.3590  0.6350
  871MOL0     C17460   5.970   1.153   0.777  0.5822 -0.0110 -0.0198
  871MOL0     C17461   5.892   1.221   0.657 -0.9955 -1.0862 -0.5681
  871MOL0     C17462   5.980   1.222   0.527  0.5400 -0.7799  0.0177
  871MOL0     C17463   5.904   1.282   0.409 -0.6725  0.0096 -0.4535
  871MOL0     C17464   5.975   1.312   0.287 -0.1767  0.3755 -1.5050
  871MOL0     C17465   6.027   1.180   0.229  0.3974  0.7231  0.2711
  871MOL0     C17466   6.091   1.204   0.093 -0.0826  0.1770 -0.3604
  871MOL0     N17467   6.227   1.268   0.086  0.4819 -0.6057 -0.5282
  871MOL0     C17468   6.346   1.198   0.087  0.0306 -0.8194  0.0853
  871MOL0     C17469   6.443   1.292   0.079  0.5044  0.5839  0.0629
  871MOL0     C17470   6.596   1.275   0.078  0.3079  0.5814  0.8235
  871MOL0     C17471   6.657   1.308   0.220  0.6187  0.6162  0.5531
  871MOL0     C17472   6.665   1.190   0.323  0.2289  0.0551  0.0850
  871MOL0     C17473   6.766   1.228   0.434 -0.5426 -0.3436 -0.0542
  871MOL0     O17474   6.781   1.100   0.499 -1.4231 -0.5618  0.0383
  871MOL0     C17475   6.914   1.060   0.504 -0.9580  0.2097  0.4419
  871MOL0     C17476   7.027   1.133   0.537  0.6509 -0.2961 -1.3926
  871MOL0     C17477   7.148   1.079   0.553  0.5127  0.8114  0.3231
  871MOL0     C17478   7.175   0.942   0.551 -0.2470 -0.0199 -0.0671
  871MOL0     C17479   7.305   0.878   0.576 -0.3824  0.0277  0.0245
  871MOL0     O17480   7.402   0.958   0.624 -0.2039  0.0835  0.7943
  871MOL0     C17481   7.535   0.908   0.658  0.4720 -0.1466 -0.5026
  871MOL0     C17482   7.588   0.936   0.786  0.5902 -0.7509  0.2007
  871MOL0     C17483   7.715   0.904   0.810  0.2690  0.4972 -0.4214
  871MOL0     C17484   7.801   0.838   0.720  0.2424  0.3305 -0.6755
  871MOL0     O17485   7.932   0.813   0.744 -0.3167 -0.2853 -0.6154
  871MOL0     C17486   7.981   0.686   0.714  0.8071 -0.1631 -0.4607
  871MOL0     C17487   7.929   0.578   0.816 -0.1153 -1.4323 -0.1084
  871MOL0     C17488   8.008   0.452   0.818 -0.3422 -0.0113  0.5096
  871MOL0     C17489   8.151   0.471   0.864  0.3932 -0.0632 -1.0322
  871MOL0     C17490   8.176   0.522   1.013 -0.6180 -0.0076  1.1753
  871MOL0     C17491   8.196   0.673   1.021 -1.2872 -0.2162  0.8578
  871MOL0     C17492   8.343   0.719   0.984  0.3236 -0.8381  0.7327
  871MOL0     C17493   8.351   0.859   0.934  0.0805  0.4041 -0.9385
  871MOL0    Cl17494   8.258   0.898   0.778 -0.1997 -0.1048 -0.3962
  871MOL0     C17495   7.754   0.822   0.591  0.5248  0.4532 -0.2930
  871MOL0     C17496   7.622   0.861   0.563  0.6562  0.6196 -0.2088
  871MOL0     O17497   7.318   0.759   0.544 -0.4000  0.3823  0.1133
  871MOL0     C17498   7.060   0.865   0.532  0.5968 -0.4294 -0.1258
  871MOL0     C17499   6.936   0.926   0.491 -0.1640  0.1876  0.4041
  871MOL0     N17500   6.383   1.414   0.085 -0.7056  1.5205  0.0523
  871MOL0     N17501   6.253   1.405   0.106 -0.0737  0.7962  0.8202
  871MOL0     C17502   5.634   0.834   0.922  0.1499  0.3590 -0.4143
  871MOL0     C17503   5.512   0.786   0.976  0.7529  0.0592 -0.0646
  871MOL0     C17504   5.148   0.892   1.304 -0.7261  1.1703  0.1444
  871MOL0     C17505   5.158   0.757   1.339  0.4336  0.3718 -0.1246
  871MOL0     C17506   5.103   0.700   1.457  0.2876  0.5964  0.2450
  871MOL0     C17507   5.030   0.778   1.547 -0.7936 -0.5668 -0.3058
  871MOL0     O17508   4.969   0.727   1.654  0.4997 -0.4347 -0.0366
  871MOL0     C17509   4.954   0.584   1.654  0.2665  0.0289 -0.4735
  871MOL0     C17510   4.858   0.540   1.765 -0.3388 -0.2948  1.2926
  871MOL0     C17511   4.918   0.433   1.857  1.0406 -1.1283 -0.2463
  871MOL0     C17512   4.820   0.381   1.963 -1.2491  0.1593 -0.4920
  871MOL0     C17513   4.720   0.288   1.905 -0.2270 -0.3309 -0.1128
  871MOL0     C17514   4.637   0.223   1.852  0.8173  0.0463 -0.4862
  871MOL0     C17515   5.023   0.913   1.511  0.3805 -0.1275  0.5211
  871MOL0     C17516   5.087   0.976   1.401 -0.1906  0.5972 -0.0759
  871MOL0     C17517   5.077   1.128   1.402  0.0110 -0.5071 -0.2147
  871MOL0     H17518   5.436   1.087   1.138  0.2321  1.3334 -1.1486
  871MOL0     H17519   5.620   1.161   0.995 -1.8602  0.6829 -3.1603
  871MOL0     H17520   5.790   1.206   0.880 -1.6465 -1.4694  0.0433
  871MOL0     H17521   5.916   1.120   0.973 -0.7542 -0.7013  0.9965
  871MOL0     H17522   6.027   1.071   0.734 -1.0222 -1.9236  1.3535
  871MOL0     H17523   6.040   1.222   0.826  1.2872 -1.7664  1.5573
  871MOL0     H17524   5.855   1.320   0.685 -0.4805 -1.3045  0.9546
  871MOL0     H17525   5.809   1.150   0.642  0.1625 -2.5710 -0.1959
  871MOL0     H17526   6.071   1.276   0.554 -1.7387  3.6758 -0.1870
  871MOL0     H17527   6.003   1.116   0.515 -2.9278 -1.4349 -2.1733
  871MOL0     H17528   5.823   1.213   0.382  0.2955 -0.3684 -2.6582
  871MOL0     H17529   5.863   1.377   0.443  1.8312  1.0505 -0.1142
  871MOL0     H17530   5.902   1.359   0.222 -1.4310 -0.4700 -0.7583
  871MOL0     H17531   6.066   1.370   0.304  1.8189 -2.1089 -3.0668
  871MOL0     H17532   5.941   1.115   0.211  1.6361 -1.4061  1.6948
  871MOL0     H17533   6.095   1.128   0.297 -0.5765 -2.1175 -0.7589
  871MOL0     H17534   6.092   1.104   0.048 -2.4937 -0.1368  0.1293
  871MOL0     H17535   6.024   1.268   0.035 -1.3500 -1.4145 -0.7298
  871MOL0     H17536   6.358   1.090   0.095  1.2704 -0.5759  4.1280
  871MOL0     H17537   6.610   1.167   0.066 -1.8355  0.3231  0.2163
  871MOL0     H17538   6.652   1.323  -0.003  0.0556  1.1857  1.0042
  871MOL0     H17539   6.758   1.348   0.211  0.8066 -0.2444 -1.6506
  871MOL0     H17540   6.593   1.388   0.260  1.6852  2.3287 -1.0187
  871MOL0     H17541   6.705   1.099   0.276 -0.7377 -0.3187 -0.0310
  871MOL0     H17542   6.564   1.168   0.359  0.5143  0.7647  1.3925
  871MOL0     H17543   6.724   1.295   0.510  0.4797  2.0334 -1.5170
  871MOL0     H17544   6.851   1.275   0.386 -0.4838  2.5873  2.5877
  871MOL0     H17545   7.013   1.240   0.531  1.5627 -0.1714 -1.5679
  871MOL0     H17546   7.225   1.154   0.568  0.8387  1.0660 -2.2875
  871MOL0     H17547   7.536   0.988   0.866  2.7437  0.5672  0.8377
  871MOL0     H17548   7.768   0.916   0.905  2.6309 -1.0707 -1.4471
  871MOL0     H17549   7.959   0.649   0.614 -2.2733 -0.4099  0.2347
  871MOL0     H17550   8.089   0.704   0.727  1.2986 -1.2894 -2.5597
  871MOL0     H17551   7.937   0.625   0.914  1.5689  1.9720 -1.7361
  871MOL0     H17552   7.826   0.562   0.782  0.3267 -0.0687 -2.2332
  871MOL0     H17553   7.969   0.375   0.886 -1.6711  0.6137  0.4943
  871MOL0     H17554   8.009   0.408   0.718 -1.2039 -0.6693  0.7692
  871MOL0     H17555   8.200   0.533   0.790  0.1242 -0.3355 -1.4439
  871MOL0     H17556   8.199   0.374   0.848  1.7463  0.6948 -1.6717
  871MOL0     H17557   8.265   0.483   1.064  1.5604  2.5104 -0.4734
  871MOL0     H17558   8.093   0.479   1.071 -1.6297 -2.0845 -1.5733
  871MOL0     H17559   8.123   0.719   0.953 -0.3235  0.8056  0.4828
  871MOL0     H17560   8.179   0.709   1.122 -0.6501 -1.7477  1.5468
  871MOL0     H17561   8.388   0.650   0.912 -1.3498 -1.9094  0.6692
  871MOL0     H17562   8.407   0.712   1.073  2.9289  0.8572 -0.8566
  871MOL0     H17563   8.325   0.936   1.007 -0.3472 -0.4686 -0.1536
  871MOL0     H17564   8.457   0.885   0.930  1.1016 -0.4491  6.2937
  871MOL0     H17565   7.821   0.790   0.512  0.5990  1.2894 -0.5768
  871MOL0     H17566   7.589   0.849   0.460  1.3733  2.1678 -0.6589
  871MOL0     H17567   7.058   0.756   0.536  0.2292 -0.4800 -1.2944
  871MOL0     H17568   6.852   0.863   0.465 -1.6088  0.9519  2.9455
  871MOL0     H17569   5.698   0.763   0.870 -0.9820 -1.2696  0.3043
  871MOL0     H17570   5.465   0.689   0.963 -2.0612  1.1398  1.2871
  871MOL0     H17571   5.202   0.688   1.267  1.3261  0.3909  0.3758
  871MOL0     H17572   5.109   0.593   1.476 -2.3429  0.0536 -1.4340
  871MOL0     H17573   5.053   0.543   1.676  0.5499  0.4548 -0.9389
  871MOL0     H17574   4.923   0.531   1.564  2.5152  1.8131 -2.4223
  871MOL0     H17575   4.773   0.502   1.709  0.6178 -0.5192 -0.0606
  871MOL0     H17576   4.830   0.629   1.823  2.0475 -0.1861  2.3791
  871MOL0     H17577   5.007   0.481   1.899  2.6670 -1.1633 -3.3836
  871MOL0     H17578   4.953   0.345   1.802 -0.6584 -0.5004 -2.4683
  871MOL0     H17579   4.884   0.329   2.034  0.8682 -2.5041 -4.0324
  871MOL0     H17580   4.769   0.468   2.007  1.1702  1.4654 -0.0651
  871MOL0     H17581   4.556   0.168   1.808 -0.4218  0.3885  1.2584
  871MOL0     H17582   4.982   0.978   1.588  2.0392  1.2922  0.2838
  871MOL0     H17583   5.176   1.170   1.422  0.0935 -1.4585  1.6362
  871MOL0     H17584   5.049   1.193   1.319  0.5086  0.7782  0.5911
  871MOL0     H17585   5.004   1.157   1.479 -2.5743  0.4546 -2.8399
  872MOL0     O17586   5.978   5.356   3.180 -0.2187  0.5862 -0.6887
  872MOL0     C17587   5.927   5.419   3.273 -0.5236 -0.7474 -0.8729
  872MOL0     O17588   5.856   5.528   3.260 -0.3881  0.3424  0.1403
  872MOL0     C17589   5.789   5.545   3.138  0.0806 -0.3510  0.8174
  872MOL0     C17590   5.729   5.437   3.074 -1.2018 -0.0465  0.6642
  872MOL0     C17591   5.636   5.452   2.969  0.1818 -0.2490  0.0278
  872MOL0     C17592   5.601   5.585   2.937  0.3902 -0.8483 -0.2457
  872MOL0     O17593   5.504   5.604   2.846  0.1946 -0.3082  0.1808
  872MOL0     C17594   5.507   5.727   2.763 -1.4907  0.7126 -0.4158
  872MOL0     C17595   5.432   5.714   2.641 -0.3327  0.4257  0.1195
  872MOL0     C17596   5.442   5.833   2.552 -0.3755  0.3758  0.2314
  872MOL0     C17597   5.389   5.803   2.411 -0.1205  0.3534  0.1831
  872MOL0     C17598   5.376   5.930   2.318  0.0983  0.6121 -1.0308
  872MOL0     C17599   5.304   5.920   2.186  0.0476 -0.6084 -1.4194
  872MOL0     C17600   5.367   5.806   2.102  0.7186 -0.4127  0.9595
  872MOL0     C17601   5.308   5.801   1.960 -0.4902  0.4378  0.2827
  872MOL0     N17602   5.163   5.775   1.963  0.1806 -0.0487 -0.6267
  872MOL0     C17603   5.102   5.690   2.048  0.1096 -0.4525  0.0905
  872MOL0     C17604   4.975   5.679   2.015  1.5126 -0.6380  0.1210
  872MOL0     C17605   4.881   5.574   2.064 -0.1245  0.7406  0.0692
  872MOL0     C17606   4.740   5.626   2.079  0.2037 -0.4648 -0.1773
  872MOL0     C17607   4.643   5.532   2.146 -0.7500 -0.8742  0.3082
  872MOL0     C17608   4.505   5.588   2.180 -0.2857 -0.3659  0.6310
  872MOL0     O17609   4.414   5.486   2.236  0.0209  0.9294  0.4473
  872MOL0     C17610   4.357   5.380   2.169  0.3214  0.2413  0.6340
  872MOL0     C17611   4.299   5.278   2.246  0.4874 -0.1506 -0.7499
  872MOL0     C17612   4.230   5.178   2.190  0.1871  0.1556 -0.4760
  872MOL0     C17613   4.239   5.154   2.049  0.6868 -0.4939 -1.0523
  872MOL0     C17614   4.165   5.037   1.990 -0.1140 -0.2087 -0.2480
  872MOL0     O17615   4.170   4.931   2.076  0.1187 -0.1996 -0.6216
  872MOL0     C17616   4.112   4.817   2.023  0.0534  1.0279  0.0230
  872MOL0     C17617   4.185   4.694   2.009  0.5268  0.0884 -0.4320
  872MOL0     C17618   4.123   4.582   1.954 -0.0943  0.7462 -0.1553
  872MOL0     C17619   3.995   4.594   1.890  0.0240 -0.5098  0.9048
  872MOL0     O17620   3.925   4.498   1.827 -0.4986 -0.1267 -0.2788
  872MOL0     C17621   3.933   4.369   1.871 -0.7308 -1.3601  0.2163
  872MOL0     C17622   3.797   4.304   1.900 -0.0391  0.0773 -0.8430
  872MOL0     C17623   3.712   4.303   1.770  0.0767 -0.7470 -0.0907
  872MOL0     C17624   3.640   4.443   1.753 -1.3719  0.3731  0.2984
  872MOL0     C17625   3.507   4.425   1.674 -0.4574 -0.4225 -0.0552
  872MOL0     C17626   3.399   4.526   1.722 -0.0629  0.1035 -0.0960
  872MOL0     C17627   3.262   4.491   1.663  0.8572  0.0805  0.4529
  872MOL0     C17628   3.224   4.347   1.685  0.7883 -0.3504  0.1486
  872MOL0    Cl17629   3.037   4.337   1.685  0.3253  0.1582  0.0026
  872MOL0     C17630   3.922   4.716   1.903 -0.5700  0.8242 -0.4232
  872MOL0     C17631   3.978   4.815   1.981 -0.2377 -0.0791  0.6465
  872MOL0     O17632   4.142   5.025   1.871 -0.2665 -0.0859  0.0142
  872MOL0     C17633   4.317   5.241   1.975  0.6166 -0.0895 -0.1537
  872MOL0     C17634   4.372   5.356   2.031  0.1954  0.4686 -0.0270
  872MOL0     N17635   4.951   5.763   1.912  1.2716 -0.6004  0.0232
  872MOL0     N17636   5.057   5.827   1.883 -0.8448  0.0718 -0.0455
  872MOL0     C17637   5.687   5.692   2.981 -0.3628 -0.0120  0.4846
  872MOL0     C17638   5.766   5.676   3.092 -0.4557 -0.1104  1.1339
  872MOL0     C17639   5.954   5.354   3.409  0.4333 -0.7855  0.1568
  872MOL0     C17640   5.977   5.215   3.423  0.9457  0.1387 -0.7001
  872MOL0     C17641   5.986   5.144   3.545 -0.7475 -0.8888  0.1207
  872MOL0     C17642   5.983   5.219   3.664  1.8491  0.3394  0.2783
  872MOL0     O17643   5.990   5.147   3.776  0.5060  0.1011  0.3592
  872MOL0     C17644   6.094   5.188   3.867  0.6329  0.6589 -0.1779
  872MOL0     C17645   6.037   5.261   3.987 -0.6913 -1.2781  0.4694
  872MOL0     C17646   6.148   5.325   4.082  0.0800  0.2962 -0.6169
  872MOL0     C17647   6.200   5.461   4.041  0.0155 -0.1465 -0.7905
  872MOL0     C17648   6.095   5.553   3.990 -1.0319 -0.2992  0.2202
  872MOL0     C17649   6.008   5.621   3.939 -0.1389  0.3688  0.3568
  872MOL0     C17650   5.970   5.360   3.655  0.3597  0.2380  0.0025
  872MOL0     C17651   5.942   5.426   3.529  0.1379  0.2585  0.0664
  872MOL0     C17652   5.914   5.573   3.530  0.8257 -0.5887 -0.3123
  872MOL0     H17653   5.747   5.335   3.106 -0.7286  0.3901  1.8417
  872MOL0     H17654   5.573   5.366   2.947 -1.3744  0.5984  0.9265
  872MOL0     H17655   5.480   5.816   2.820 -2.9312 -0.3285  0.6146
  872MOL0     H17656   5.611   5.738   2.730 -0.8546 -1.3794  0.6969
  872MOL0     H17657   5.331   5.679   2.660 -0.0656  0.2419  1.2630
  872MOL0     H17658   5.476   5.637   2.576  0.1929  1.6586 -1.0451
  872MOL0     H17659   5.544   5.872   2.541 -1.0379  2.7474  1.7765
  872MOL0     H17660   5.384   5.915   2.594  3.6831  3.1555  1.0277
  872MOL0     H17661   5.457   5.731   2.366 -1.7961 -0.9743 -0.3417
  872MOL0     H17662   5.286   5.765   2.418 -0.9518  2.3848 -0.1741
  872MOL0     H17663   5.315   5.996   2.382  1.0158 -0.1450  0.7022
  872MOL0     H17664   5.472   5.981   2.310 -0.6445  2.5016  0.8139
  872MOL0     H17665   5.198   5.911   2.214  0.6984  1.5970  2.4379
  872MOL0     H17666   5.308   6.009   2.122  0.3639  1.6410  1.5039
  872MOL0     H17667   5.350   5.704   2.139 -2.7578 -0.7157 -1.0004
  872MOL0     H17668   5.475   5.820   2.095  1.0198 -2.6329  0.3483
  872MOL0     H17669   5.333   5.896   1.911  3.0968 -1.2966 -1.6307
  872MOL0     H17670   5.360   5.722   1.906  0.5948 -1.3251  3.6003
  872MOL0     H17671   5.141   5.636   2.134  0.4600  0.5572  0.5846
  872MOL0     H17672   4.887   5.483   2.004 -1.3524  0.9675 -0.4430
  872MOL0     H17673   4.922   5.537   2.158  0.3810 -1.7423 -1.0347
  872MOL0     H17674   4.744   5.715   2.142 -0.4276 -0.2090 -0.4924
  872MOL0     H17675   4.699   5.673   1.989  1.4516  0.9388 -0.0623
  872MOL0     H17676   4.688   5.488   2.236  0.6870 -2.6581 -1.2057
  872MOL0     H17677   4.624   5.441   2.088 -1.0618 -1.2555  0.9908
  872MOL0     H17678   4.461   5.642   2.096 -0.9469  1.1286  1.8936
  872MOL0     H17679   4.527   5.663   2.256  3.1994  1.5357 -1.9623
  872MOL0     H17680   4.308   5.291   2.354  0.2768 -0.6261 -0.6747
  872MOL0     H17681   4.161   5.119   2.248  0.0301 -0.6480 -1.4540
  872MOL0     H17682   4.285   4.689   2.050  0.2583 -3.7520  0.1094
  872MOL0     H17683   4.179   4.490   1.943 -1.5193 -0.1869  0.1762
  872MOL0     H17684   3.974   4.323   1.781 -3.1993  0.9250 -2.2631
  872MOL0     H17685   4.005   4.354   1.953  0.2508  1.8343  0.0599
  872MOL0     H17686   3.811   4.203   1.940  0.5752  1.0473  1.5748
  872MOL0     H17687   3.766   4.359   1.989  1.8600  2.2819 -1.4349
  872MOL0     H17688   3.761   4.256   1.684  0.0314 -1.8286  0.4580
  872MOL0     H17689   3.632   4.236   1.799 -0.6440  0.4728  0.8294
  872MOL0     H17690   3.705   4.515   1.703  1.5256 -0.4444  2.6390
  872MOL0     H17691   3.608   4.481   1.851 -1.4437  0.3985  0.2654
  872MOL0     H17692   3.476   4.321   1.675  0.6761 -0.7783  0.7517
  872MOL0     H17693   3.530   4.448   1.569  0.3043 -0.4805  0.0945
  872MOL0     H17694   3.396   4.523   1.831 -0.9659  2.7783  0.0156
  872MOL0     H17695   3.428   4.624   1.683  1.4170 -0.2026  0.1837
  872MOL0     H17696   3.264   4.505   1.555  1.2827  1.5748  0.6396
  872MOL0     H17697   3.184   4.553   1.708 -1.3554 -2.8099  0.9614
  872MOL0     H17698   3.268   4.285   1.606  0.3856  1.6096 -1.7109
  872MOL0     H17699   3.261   4.316   1.783 -0.4935  0.3489  0.8990
  872MOL0     H17700   3.818   4.717   1.871 -1.4355 -1.5312  1.9625
  872MOL0     H17701   3.925   4.908   1.995  0.1799  1.0705 -3.8125
  872MOL0     H17702   4.329   5.212   1.872 -0.7329  0.3721 -0.4638
  872MOL0     H17703   4.422   5.426   1.965 -2.4321 -0.4271 -3.2219
  872MOL0     H17704   5.681   5.792   2.939 -2.2053 -0.1160  0.4231
  872MOL0     H17705   5.812   5.759   3.143 -0.2896 -0.6313  1.8390
  872MOL0     H17706   5.962   5.169   3.326 -0.8114 -0.8182 -0.0275
  872MOL0     H17707   5.991   5.037   3.534 -1.7645 -0.9291 -0.0281
  872MOL0     H17708   6.175   5.244   3.819  1.8961  0.3298  1.4548
  872MOL0     H17709   6.141   5.105   3.920 -1.9374 -2.0703 -1.8884
  872MOL0     H17710   5.978   5.186   4.042 -0.3550 -0.3942  2.1012
  872MOL0     H17711   5.964   5.329   3.944 -1.2889 -2.8908 -1.1960
  872MOL0     H17712   6.229   5.252   4.071 -0.2464  0.1010 -1.8566
  872MOL0     H17713   6.117   5.307   4.186 -0.3894 -0.2501 -0.8446
  872MOL0     H17714   6.252   5.502   4.127  1.0824  0.9625 -1.9276
  872MOL0     H17715   6.280   5.455   3.966  1.4136 -2.8461  0.7443
  872MOL0     H17716   5.932   5.686   3.898 -1.2901 -0.0224  1.7919
  872MOL0     H17717   5.973   5.426   3.741 -0.8462  0.8810 -0.4289
  872MOL0     H17718   5.814   5.572   3.485  0.3375 -4.2525  0.5641
  872MOL0     H17719   5.897   5.608   3.632 -1.2374 -0.7298 -0.5643
  872MOL0     H17720   5.985   5.643   3.485 -1.9925  1.6942 -1.5302
  873MOL0     O17721   9.372   9.897   6.310  0.7244  0.3455  0.6376
  873MOL0     C17722   9.394   9.913   6.433  0.1548 -0.4593 -0.0008
  873MOL0     O17723   9.517   9.933   6.482  0.1636  0.4887 -0.1150
  873MOL0     C17724   9.645   9.941   6.420 -0.1107 -0.0722  0.3756
  873MOL0     C17725   9.663   9.969   6.283 -0.0918 -0.4076 -0.1700
  873MOL0     C17726   9.794   9.960   6.223 -0.0377 -0.0161  0.5530
  873MOL0     C17727   9.907   9.927   6.299 -0.1303 -0.0028 -0.1651
  873MOL0     O17728  10.029   9.900   6.250  0.2472  0.7211  0.5261
  873MOL0     C17729  10.065   9.940   6.120 -0.0072  1.0708 -0.2843
  873MOL0     C17730  10.070  10.089   6.111  1.3010 -0.8403 -0.0326
  873MOL0     C17731  10.167  10.153   6.207  1.1064 -0.3466  1.2165
  873MOL0     C17732  10.315  10.130   6.169  0.7345 -0.0408  0.9731
  873MOL0     C17733  10.416  10.194   6.249  0.2895 -0.0634 -0.3702
  873MOL0     C17734  10.557  10.162   6.222  0.9886  0.4263  0.4832
  873MOL0     C17735  10.664  10.222   6.313 -0.3739  0.7222  0.2395
  873MOL0     C17736  10.802  10.167   6.275 -0.5419 -0.0670 -0.2102
  873MOL0     N17737  10.810  10.027   6.306 -0.2892 -0.4124 -0.5970
  873MOL0     C17738  10.819   9.989   6.438  0.6982  0.3300  0.0401
  873MOL0     C17739  10.824   9.850   6.431 -0.6390 -0.2889 -0.5783
  873MOL0     C17740  10.812   9.745   6.550  0.0244 -0.1597 -0.2084
  873MOL0     C17741  10.682   9.671   6.539 -0.4821 -0.2472  0.0902
  873MOL0     C17742  10.551   9.750   6.556  0.3107  0.3002  0.3122
  873MOL0     C17743  10.439   9.659   6.620  0.0684 -0.4792  0.1781
  873MOL0     O17744  10.336   9.761   6.643 -0.5170  0.2214  0.6216
  873MOL0     C17745  10.214   9.717   6.688  0.7520 -0.5036 -0.1382
  873MOL0     C17746  10.151   9.599   6.682  0.4986 -0.6455  0.6511
  873MOL0     C17747  10.015   9.581   6.716 -0.3757 -0.4421 -1.3563
  873MOL0     C17748   9.942   9.685   6.780 -0.1178  0.6199  0.1885
  873MOL0     C17749   9.804   9.655   6.817  0.8517 -0.3765 -0.2380
  873MOL0     O17750   9.774   9.529   6.869 -0.6496 -0.0670  0.5915
  873MOL0     C17751   9.673   9.525   6.965  0.0735  0.2129  0.0875
  873MOL0     C17752   9.685   9.580   7.097  1.0942  1.2446 -0.4656
  873MOL0     C17753   9.589   9.564   7.187 -0.7671  0.1878 -0.7616
  873MOL0     C17754   9.472   9.489   7.155  0.1057  0.1931 -0.2624
  873MOL0     O17755   9.371   9.509   7.248 -0.7983  0.5593 -0.2118
  873MOL0     C17756   9.268   9.413   7.249  0.1255 -1.0064 -1.0362
  873MOL0     C17757   9.186   9.431   7.376  0.3841 -0.3906  0.4056
  873MOL0     C17758   9.277   9.434   7.507  0.8795  0.8814  0.7472
  873MOL0     C17759   9.242   9.335   7.616 -0.5511  0.6698  0.2022
  873MOL0     C17760   9.355   9.324   7.715 -0.9066  0.5763 -1.1769
  873MOL0     C17761   9.301   9.277   7.848  0.0429  0.3539  0.0202
  873MOL0     C17762   9.395   9.267   7.975 -0.1934  0.0442  0.1764
  873MOL0     C17763   9.439   9.402   8.047  0.5290  0.2118  0.2019
  873MOL0    Cl17764   9.531   9.505   7.941 -0.1760 -0.4684  0.8474
  873MOL0     C17765   9.458   9.423   7.033 -0.3208  0.5952  0.2909
  873MOL0     C17766   9.561   9.443   6.931  0.3398  0.0640  0.4615
  873MOL0     O17767   9.724   9.748   6.820  0.4802 -0.0442 -1.5810
  873MOL0     C17768  10.012   9.804   6.800  1.3920  0.6026 -1.4611
  873MOL0     C17769  10.139   9.816   6.757 -0.8469  0.1664  0.1353
  873MOL0     N17770  10.846   9.817   6.301  0.5180 -0.5807  0.0273
  873MOL0     N17771  10.829   9.914   6.220  0.2055  0.3233  0.0011
  873MOL0     C17772   9.884   9.893   6.434  0.2178  0.4105 -0.0723
  873MOL0     C17773   9.751   9.897   6.492  0.0957 -0.3279  0.4316
  873MOL0     C17774   9.301   9.892   6.540  0.4061  0.0423  0.0625
  873MOL0     C17775   9.351   9.835   6.655 -0.6407 -0.4613  0.1847
  873MOL0     C17776   9.265   9.801   6.762 -0.4907 -1.2430 -0.4197
  873MOL0     C17777   9.124   9.826   6.750  0.1948 -0.5178 -0.0503
  873MOL0     O17778   9.033   9.788   6.845 -0.9181 -0.8540 -0.2542
  873MOL0     C17779   9.091   9.749   6.969  0.4038 -0.5981 -0.3307
  873MOL0     C17780   8.986   9.711   7.059  0.4134 -0.4903 -0.7590
  873MOL0     C17781   8.912   9.606   6.985  0.7504  1.1810  0.2971
  873MOL0     C17782   8.830   9.523   7.083 -0.5314  0.4801  0.3502
  873MOL0     C17783   8.748   9.600   7.168  0.9378  0.2083  0.1867
  873MOL0     C17784   8.686   9.676   7.239 -0.2688  0.9605  0.7720
  873MOL0     C17785   9.071   9.879   6.622 -1.1590 -0.7924 -0.1100
  873MOL0     C17786   9.157   9.913   6.519 -0.8687  0.3185 -0.3866
  873MOL0     C17787   9.095   9.953   6.392 -0.3971  0.3809  0.5573
  873MOL0     H17788   9.581  10.003   6.220 -1.8331  0.5851  2.4713
  873MOL0     H17789   9.789   9.966   6.115  0.3700 -0.0943  0.5287
  873MOL0     H17790  10.166   9.904   6.101 -0.8888 -1.5723 -0.4102
  873MOL0     H17791   9.996   9.909   6.041 -0.0972 -0.4123  0.3504
  873MOL0     H17792   9.967  10.117   6.134  2.3216 -0.2205  5.1897
  873MOL0     H17793  10.090  10.118   6.007 -0.6910 -0.6921 -0.4118
  873MOL0     H17794  10.157  10.120   6.311  0.3193 -4.6881 -0.0383
  873MOL0     H17795  10.148  10.261   6.206  0.2353 -0.4922  1.5898
  873MOL0     H17796  10.337  10.023   6.172  0.7985 -0.0354  4.1301
  873MOL0     H17797  10.329  10.162   6.066 -1.5878  0.6579  0.8196
  873MOL0     H17798  10.405  10.301   6.267  1.6019  0.2913 -1.4662
  873MOL0     H17799  10.402  10.145   6.346 -1.9117 -0.7619 -0.9878
  873MOL0     H17800  10.566  10.053   6.227  2.0447  0.0912 -4.1082
  873MOL0     H17801  10.586  10.185   6.119  2.1770  0.3773  0.7855
  873MOL0     H17802  10.650  10.183   6.414 -0.6880 -0.5993 -0.2952
  873MOL0     H17803  10.639  10.329   6.305 -2.6136  0.3759  1.7361
  873MOL0     H17804  10.824  10.175   6.168  0.4196 -2.7256 -0.2823
  873MOL0     H17805  10.879  10.231   6.320 -0.0174 -1.4424  0.9261
  873MOL0     H17806  10.796  10.048   6.526 -1.6403 -1.9056  1.0631
  873MOL0     H17807  10.893   9.671   6.547  0.3082  0.1720 -1.1288
  873MOL0     H17808  10.809   9.802   6.644 -0.2574 -1.8240  0.8297
  873MOL0     H17809  10.688   9.633   6.436  1.9710  2.7704 -1.0298
  873MOL0     H17810  10.683   9.591   6.613  2.8048 -1.9649 -1.5774
  873MOL0     H17811  10.530   9.799   6.461 -3.7912  0.6690  1.2236
  873MOL0     H17812  10.560   9.842   6.614  1.3498  0.4642 -0.0947
  873MOL0     H17813  10.459   9.616   6.718  2.2254 -0.6777 -0.3116
  873MOL0     H17814  10.410   9.578   6.552  0.6383 -0.0731 -0.5587
  873MOL0     H17815  10.202   9.509   6.649  1.2548  0.3356 -1.0265
  873MOL0     H17816   9.974   9.480   6.715 -0.1087 -0.6975  1.7180
  873MOL0     H17817   9.775   9.627   7.135 -0.2572  2.8350  0.8979
  873MOL0     H17818   9.602   9.609   7.285 -1.5356 -2.3356  0.5751
  873MOL0     H17819   9.205   9.427   7.160 -0.2190 -0.2555 -0.6840
  873MOL0     H17820   9.307   9.311   7.249  3.7104  0.2087  0.7940
  873MOL0     H17821   9.137   9.527   7.356  0.9160 -0.3499 -0.7602
  873MOL0     H17822   9.105   9.357   7.383 -0.4648  0.4870  0.1393
  873MOL0     H17823   9.380   9.420   7.474  0.9465  3.0709 -0.1339
  873MOL0     H17824   9.267   9.533   7.552  0.7028  0.6971  1.1220
  873MOL0     H17825   9.231   9.234   7.574  0.7060  0.5908  0.0401
  873MOL0     H17826   9.147   9.371   7.658 -0.7885 -0.7465  0.9395
  873MOL0     H17827   9.399   9.419   7.746  0.8347 -1.0615  1.7845
  873MOL0     H17828   9.441   9.264   7.686  0.4493  0.7044  2.1877
  873MOL0     H17829   9.223   9.353   7.860  0.8233  1.6891 -2.6362
  873MOL0     H17830   9.263   9.175   7.836 -0.5741  0.7092 -1.1896
  873MOL0     H17831   9.481   9.200   7.966 -0.1456 -1.3086  6.2942
  873MOL0     H17832   9.343   9.207   8.051  0.2689  0.4089  0.7920
  873MOL0     H17833   9.355   9.457   8.089  1.3386  1.1817  0.5820
  873MOL0     H17834   9.501   9.364   8.128  0.5358 -3.7895 -1.4184
  873MOL0     H17835   9.367   9.366   7.018  0.4631 -1.4348  2.4473
  873MOL0     H17836   9.546   9.402   6.832  1.3692  0.0204  0.3143
  873MOL0     H17837   9.965   9.890   6.848 -1.6647 -1.5006 -0.3763
  873MOL0     H17838  10.179   9.916   6.771  1.7335 -1.0903  3.1078
  873MOL0     H17839   9.957   9.859   6.506 -3.5023  0.1452  4.0413
  873MOL0     H17840   9.726   9.863   6.592 -1.0135 -0.5226  0.0990
  873MOL0     H17841   9.451   9.793   6.665 -1.0162 -1.5499 -0.4241
  873MOL0     H17842   9.312   9.744   6.842  0.1703 -0.2834 -0.1098
  873MOL0     H17843   9.140   9.839   7.008 -2.7813  1.4554 -0.6992
  873MOL0     H17844   9.153   9.662   6.945 -1.2657 -1.3805 -2.0298
  873MOL0     H17845   8.915   9.795   7.065 -0.4774 -1.3241  2.9893
  873MOL0     H17846   9.024   9.691   7.160  2.8814 -0.2392 -1.5586
  873MOL0     H17847   8.972   9.526   6.942 -0.6737  0.3423 -0.2287
  873MOL0     H17848   8.843   9.642   6.908  0.6013 -1.2083 -0.7914
  873MOL0     H17849   8.781   9.441   7.030  2.3097  0.9153 -3.3822
  873MOL0     H17850   8.896   9.469   7.153 -1.3321 -0.3857  0.4593
  873MOL0     H17851   8.631   9.743   7.303 -1.1569  1.7676 -0.7845
  873MOL0     H17852   8.967   9.905   6.606  0.0091  2.9561 -3.5479
  873MOL0     H17853   9.065   9.861   6.340  5.2992  0.2344 -3.3080
  873MOL0     H17854   9.012  10.021   6.413 -0.3830  0.3709  0.6453
  873MOL0     H17855   9.154  10.016   6.326 -2.4138  1.4271 -0.3117
  874MOL0     O17856   0.802   5.276   4.377  0.9945 -0.5842 -0.2656
  874MOL0     C17857   0.905   5.320   4.416  0.6322  0.4661 -0.3355
  874MOL0     O17858   0.932   5.457   4.448  0.1577  1.0967  0.0228
  874MOL0     C17859   0.824   5.546   4.441 -0.1768 -0.2075 -0.2313
  874MOL0     C17860   0.693   5.522   4.487  0.0140  0.0752  0.3520
  874MOL0     C17861   0.598   5.624   4.479  0.4106 -0.1567 -0.4898
  874MOL0     C17862   0.626   5.753   4.427 -0.6768  0.1080 -1.0565
  874MOL0     O17863   0.528   5.845   4.425 -0.1343 -0.1683 -0.8368
  874MOL0     C17864   0.552   5.977   4.374 -0.6609  0.6151 -0.4860
  874MOL0     C17865   0.597   6.082   4.474  0.5917 -0.0035 -1.6324
  874MOL0     C17866   0.704   6.192   4.433  0.5089 -0.1233 -0.5101
  874MOL0     C17867   0.640   6.303   4.345 -0.4325  0.8825 -0.6727
  874MOL0     C17868   0.750   6.377   4.268  0.1105 -0.3326  0.0856
  874MOL0     C17869   0.867   6.435   4.347 -0.1166 -0.5154  0.4935
  874MOL0     C17870   0.984   6.493   4.265  0.1264 -0.7583  0.5859
  874MOL0     C17871   1.100   6.527   4.364 -0.6544  0.6765  1.0183
  874MOL0     N17872   1.195   6.607   4.284 -0.0246  0.3834  0.4954
  874MOL0     C17873   1.194   6.747   4.278  0.1115  0.6303 -0.5937
  874MOL0     C17874   1.298   6.767   4.196  0.3115  0.4432 -0.7927
  874MOL0     C17875   1.346   6.911   4.173  1.0178 -0.7144 -0.4378
  874MOL0     C17876   1.237   7.016   4.174  0.5244  0.3475  0.7861
  874MOL0     C17877   1.301   7.144   4.121  0.7158  0.2482  0.1560
  874MOL0     C17878   1.187   7.244   4.124 -0.2779  0.5354 -1.2377
  874MOL0     O17879   1.230   7.378   4.108 -0.0515 -0.0183 -0.0043
  874MOL0     C17880   1.282   7.423   3.995 -0.1732  0.2826  0.9543
  874MOL0     C17881   1.281   7.363   3.870  0.1106  1.2075  0.6338
  874MOL0     C17882   1.333   7.430   3.762 -0.2685 -0.4678  1.4254
  874MOL0     C17883   1.395   7.554   3.778 -0.2441  0.0743 -0.9334
  874MOL0     C17884   1.439   7.630   3.660  0.4243  0.5007 -0.2533
  874MOL0     O17885   1.510   7.737   3.673  0.6353  0.3397 -0.7835
  874MOL0     C17886   1.573   7.784   3.562  0.1097  0.0919  0.2834
  874MOL0     C17887   1.705   7.779   3.577  0.2933 -0.3340  0.2895
  874MOL0     C17888   1.789   7.851   3.490  0.1069 -0.0717 -0.2198
  874MOL0     C17889   1.734   7.902   3.376 -0.5911  0.8088  0.6082
  874MOL0     O17890   1.808   7.956   3.271  0.3231  0.0906 -0.1502
  874MOL0     C17891   1.876   7.857   3.200  0.3653  0.1685  0.2313
  874MOL0     C17892   1.936   7.910   3.067 -0.1826 -0.1062  0.3305
  874MOL0     C17893   2.043   8.011   3.107 -1.1226 -0.1704  0.5481
  874MOL0     C17894   2.134   8.056   2.995  0.1882  1.0521 -0.0213
  874MOL0     C17895   2.265   8.125   3.026 -0.2212 -0.4375 -0.2748
  874MOL0     C17896   2.246   8.245   3.120 -0.3028  0.6196  0.6661
  874MOL0     C17897   2.205   8.378   3.055  0.1667  0.1041  0.4862
  874MOL0     C17898   2.226   8.506   3.147 -0.1655  0.0775  0.2066
  874MOL0    Cl17899   2.106   8.631   3.109 -0.5737  0.6321 -0.0608
  874MOL0     C17900   1.594   7.902   3.361  0.4311  0.3701 -0.2263
  874MOL0     C17901   1.513   7.844   3.460 -0.0188 -0.6359  0.0066
  874MOL0     O17902   1.412   7.575   3.552 -0.2330  0.1596 -0.2137
  874MOL0     C17903   1.397   7.611   3.899  0.8809 -0.2280 -0.6954
  874MOL0     C17904   1.325   7.554   4.009 -0.1333 -0.2967  0.4968
  874MOL0     N17905   1.359   6.650   4.151  1.0610 -0.2792 -0.1654
  874MOL0     N17906   1.301   6.555   4.218  0.3461  0.0390  0.2058
  874MOL0     C17907   0.760   5.783   4.405  0.2003  0.8691  0.0718
  874MOL0     C17908   0.858   5.683   4.402  0.4163 -0.8587 -0.3904
  874MOL0     C17909   1.010   5.212   4.443  0.3815 -0.9244  0.4771
  874MOL0     C17910   0.963   5.080   4.458  0.3778 -1.0145  0.1319
  874MOL0     C17911   1.043   4.977   4.501  0.6061  0.3419 -0.4757
  874MOL0     C17912   1.175   5.005   4.536 -0.5516 -0.3330  0.1067
  874MOL0     O17913   1.261   4.902   4.556 -0.2770  0.3941 -0.0605
  874MOL0     C17914   1.407   4.919   4.559  1.2777  0.8931  0.9864
  874MOL0     C17915   1.471   4.787   4.581 -0.2067 -0.4295  0.2531
  874MOL0     C17916   1.409   4.712   4.699 -0.1919 -0.7435  0.3022
  874MOL0     C17917   1.510   4.613   4.765 -0.0483 -0.3663 -0.9140
  874MOL0     C17918   1.617   4.696   4.835 -0.3353 -0.1465  0.4067
  874MOL0     C17919   1.699   4.765   4.893  0.0619  0.2538  0.0066
  874MOL0     C17920   1.225   5.133   4.508  0.1462  0.6043 -0.6015
  874MOL0     C17921   1.146   5.231   4.454 -0.6815 -0.4119  0.4131
  874MOL0     C17922   1.224   5.357   4.428  0.3028  0.1166 -0.0584
  874MOL0     H17923   0.665   5.425   4.528 -3.1046  1.4046  1.6685
  874MOL0     H17924   0.492   5.621   4.503 -0.1784  1.5749 -2.5478
  874MOL0     H17925   0.631   5.976   4.299  2.1143  1.1955  2.1996
  874MOL0     H17926   0.461   6.003   4.319  0.0651 -0.6137 -2.3327
  874MOL0     H17927   0.645   6.030   4.558 -1.2888 -0.6969 -0.9283
  874MOL0     H17928   0.511   6.122   4.527  1.4638 -1.3883  1.0326
  874MOL0     H17929   0.786   6.138   4.385  0.1852 -0.8432 -0.2731
  874MOL0     H17930   0.746   6.246   4.518 -1.1597  0.8318 -0.2406
  874MOL0     H17931   0.579   6.255   4.268 -2.0828  1.9455 -0.0763
  874MOL0     H17932   0.577   6.372   4.402 -1.2795 -0.5036  0.1256
  874MOL0     H17933   0.800   6.305   4.203  1.5195  1.0517 -0.4243
  874MOL0     H17934   0.695   6.454   4.212 -5.0884 -2.4445  1.6568
  874MOL0     H17935   0.826   6.514   4.409  0.9748  0.8607 -0.4704
  874MOL0     H17936   0.919   6.359   4.406  3.6520  1.2445 -0.2562
  874MOL0     H17937   0.945   6.577   4.207  1.2677 -1.9143 -2.0398
  874MOL0     H17938   1.012   6.419   4.189 -3.0386 -3.7095  1.9997
  874MOL0     H17939   1.062   6.578   4.453  2.6698  3.2212  1.1964
  874MOL0     H17940   1.145   6.432   4.395 -0.6861  0.5510  0.6845
  874MOL0     H17941   1.114   6.807   4.319  0.2940  1.6658 -1.6910
  874MOL0     H17942   1.416   6.937   4.252 -0.4125 -2.6923  1.6198
  874MOL0     H17943   1.403   6.919   4.080 -0.7183  0.1042 -1.4821
  874MOL0     H17944   1.158   6.973   4.111  1.2440 -0.5554  0.4809
  874MOL0     H17945   1.194   7.041   4.271  2.0224  0.3375  1.4760
  874MOL0     H17946   1.343   7.139   4.020  1.4661 -1.9600  0.5139
  874MOL0     H17947   1.383   7.183   4.183 -0.7938  2.5456  0.8233
  874MOL0     H17948   1.139   7.242   4.222  0.1120 -2.6709 -1.0043
  874MOL0     H17949   1.112   7.223   4.047 -0.9408 -0.8506 -0.2453
  874MOL0     H17950   1.243   7.262   3.852  2.9367  0.1223  0.2956
  874MOL0     H17951   1.335   7.381   3.666  1.9025 -2.0696  2.2137
  874MOL0     H17952   1.748   7.734   3.666  0.4404  1.4535  1.1769
  874MOL0     H17953   1.895   7.848   3.515 -0.2211  0.0243  1.2354
  874MOL0     H17954   1.958   7.811   3.255 -0.0801 -2.2839 -0.9757
  874MOL0     H17955   1.805   7.782   3.162  3.0521 -1.5000 -1.9028
  874MOL0     H17956   1.974   7.818   3.021  1.8389  1.9436 -2.3385
  874MOL0     H17957   1.863   7.945   2.994 -0.8553 -1.1810  0.4593
  874MOL0     H17958   2.000   8.098   3.157 -3.2217 -0.0560 -1.2854
  874MOL0     H17959   2.108   7.949   3.168 -0.3027 -2.6056 -2.5019
  874MOL0     H17960   2.066   8.115   2.933 -2.8418 -1.3636  0.7452
  874MOL0     H17961   2.164   7.982   2.920 -2.6420  3.6913 -4.1511
  874MOL0     H17962   2.319   8.160   2.937 -1.6017  1.3288 -0.4520
  874MOL0     H17963   2.319   8.039   3.068 -1.7700 -2.2048 -1.6968
  874MOL0     H17964   2.172   8.231   3.200 -0.0321  0.9233  0.9737
  874MOL0     H17965   2.341   8.271   3.168  0.8193 -2.7851  0.5615
  874MOL0     H17966   2.100   8.386   3.026  0.4327 -0.8293 -0.8314
  874MOL0     H17967   2.257   8.382   2.959 -1.1484  0.9389 -0.2250
  874MOL0     H17968   2.208   8.478   3.251  1.6890 -3.5828 -0.2895
  874MOL0     H17969   2.330   8.539   3.139 -1.5278  5.3965  0.7607
  874MOL0     H17970   1.547   7.951   3.276  0.9736  1.8041  0.2612
  874MOL0     H17971   1.405   7.844   3.456 -0.1138 -3.7409  0.7234
  874MOL0     H17972   1.424   7.715   3.914  1.6027 -0.4762 -0.2234
  874MOL0     H17973   1.303   7.613   4.097  0.1006  1.9713 -0.8923
  874MOL0     H17974   0.782   5.886   4.380  1.0796  0.4434 -0.9477
  874MOL0     H17975   0.961   5.696   4.368  1.6352 -3.4679  1.8543
  874MOL0     H17976   0.863   5.069   4.418  0.0295  0.8629  0.3973
  874MOL0     H17977   1.022   4.873   4.483  2.1618  0.2762 -2.2052
  874MOL0     H17978   1.435   4.983   4.643 -0.7562 -2.0548  4.1608
  874MOL0     H17979   1.436   4.960   4.462 -2.6332 -0.2794 -0.8924
  874MOL0     H17980   1.579   4.802   4.577 -0.3380  0.2779 -1.8175
  874MOL0     H17981   1.441   4.723   4.497 -1.6238 -1.1709  1.2834
  874MOL0     H17982   1.321   4.658   4.663 -1.3027  0.1577  1.5837
  874MOL0     H17983   1.364   4.784   4.767 -0.9515 -0.9541  0.0308
  874MOL0     H17984   1.456   4.564   4.846 -0.3842  0.8333 -0.3856
  874MOL0     H17985   1.546   4.543   4.689 -1.4135 -1.9948 -0.1137
  874MOL0     H17986   1.771   4.806   4.961  0.7042 -2.4886  1.1358
  874MOL0     H17987   1.331   5.153   4.521 -0.0140  2.2676 -1.5953
  874MOL0     H17988   1.331   5.357   4.403  0.0975 -2.6357 -1.2590
  874MOL0     H17989   1.175   5.382   4.333  1.4473 -1.0050 -0.9914
  874MOL0     H17990   1.206   5.427   4.510 -0.4289 -2.2709  1.9263
  875MOL0     O17991   1.533   0.809   4.444  0.3259 -0.1724  0.1252
  875MOL0     C17992   1.658   0.825   4.452  0.3244 -0.1469  0.2962
  875MOL0     O17993   1.737   0.791   4.554  0.1689  0.3059 -1.0396
  875MOL0     C17994   1.685   0.759   4.677  0.4443  0.5755  0.4805
  875MOL0     C17995   1.761   0.683   4.774 -0.1052  0.2464  0.1707
  875MOL0     C17996   1.714   0.661   4.913  0.0898 -0.4231 -0.3427
  875MOL0     C17997   1.601   0.734   4.955  1.2367  0.6739 -0.3916
  875MOL0     O17998   1.565   0.720   5.090 -0.2363 -0.0469  0.4780
  875MOL0     C17999   1.428   0.733   5.113 -0.5093  0.1091 -0.7808
  875MOL0     C18000   1.410   0.695   5.262 -0.4628 -0.8303  0.6336
  875MOL0     C18001   1.258   0.666   5.300  0.2487 -0.2590 -0.1018
  875MOL0     C18002   1.175   0.794   5.290 -0.2889 -0.8567  0.0201
  875MOL0     C18003   1.040   0.789   5.369 -0.5077 -0.3962 -0.2534
  875MOL0     C18004   1.054   0.771   5.516 -0.3893  0.3252 -0.4884
  875MOL0     C18005   1.171   0.840   5.590  0.0756 -0.2071 -0.0662
  875MOL0     C18006   1.180   0.989   5.584 -0.0481 -0.6526 -0.0909
  875MOL0     N18007   1.056   1.046   5.644  0.7084 -0.4306 -1.1285
  875MOL0     C18008   1.049   1.077   5.776 -0.3223 -0.1223  0.1113
  875MOL0     C18009   0.935   1.152   5.785  0.5800 -0.1880  0.9745
  875MOL0     C18010   0.872   1.205   5.907 -0.3370 -0.7027 -0.5375
  875MOL0     C18011   0.803   1.336   5.888  0.2642 -0.4779  0.3166
  875MOL0     C18012   0.790   1.436   6.005  0.4090 -0.3015  0.1629
  875MOL0     C18013   0.708   1.553   5.960  0.7056 -0.2341  0.2338
  875MOL0     O18014   0.787   1.639   5.890  0.2645  0.1623  0.4761
  875MOL0     C18015   0.871   1.734   5.943 -0.8735 -0.5191 -0.0314
  875MOL0     C18016   0.878   1.767   6.085 -0.8073 -0.3616  0.7444
  875MOL0     C18017   0.965   1.863   6.123  0.5093  0.1784 -0.1582
  875MOL0     C18018   1.031   1.944   6.029 -0.6723 -0.3898  0.7551
  875MOL0     C18019   1.127   2.051   6.076 -0.0715  0.2339 -0.1982
  875MOL0     O18020   1.159   2.145   5.994  0.5387 -0.1424  0.2061
  875MOL0     C18021   1.247   2.233   6.038 -0.3160 -0.0755 -0.7351
  875MOL0     C18022   1.365   2.239   5.977 -0.9786  0.4268  0.3737
  875MOL0     C18023   1.469   2.311   6.031 -0.1129 -0.7767 -0.7425
  875MOL0     C18024   1.453   2.386   6.150  0.8027 -0.3349  0.3551
  875MOL0     O18025   1.553   2.455   6.213 -0.0763 -0.4054 -0.0314
  875MOL0     C18026   1.682   2.464   6.160 -0.2834 -0.4123  0.1743
  875MOL0     C18027   1.783   2.552   6.250  0.1719 -0.0069  0.3566
  875MOL0     C18028   1.923   2.558   6.189 -0.5275 -0.9390 -0.2193
  875MOL0     C18029   1.986   2.699   6.186 -0.6286 -0.4470 -0.6541
  875MOL0     C18030   1.908   2.822   6.125  0.2333 -0.0768 -0.6745
  875MOL0     C18031   1.853   2.778   5.985 -0.0576 -0.4130  0.3581
  875MOL0     C18032   1.832   2.907   5.895 -0.4385 -0.1496 -0.3995
  875MOL0     C18033   1.774   2.886   5.751  0.2299 -0.7168 -0.3826
  875MOL0    Cl18034   1.601   2.852   5.779  0.1708  0.0606  0.3015
  875MOL0     C18035   1.324   2.401   6.207 -0.1128 -0.6108  0.5157
  875MOL0     C18036   1.221   2.326   6.141 -0.8475  0.6921  0.7538
  875MOL0     O18037   1.173   2.039   6.191  0.2403  0.0004  0.3048
  875MOL0     C18038   1.013   1.923   5.900  0.6355  0.9456  1.4256
  875MOL0     C18039   0.945   1.807   5.855  0.9673 -0.5745  0.5696
  875MOL0     N18040   0.880   1.161   5.665  0.0247  0.8786  0.6504
  875MOL0     N18041   0.956   1.110   5.578  0.2333  0.0327 -0.2270
  875MOL0     C18042   1.544   0.824   4.865  1.1021  0.4556 -0.4605
  875MOL0     C18043   1.580   0.836   4.731 -0.2503 -0.0598 -0.6847
  875MOL0     C18044   1.731   0.881   4.337  0.4253  0.0933  0.2508
  875MOL0     C18045   1.827   0.981   4.370 -0.3606  1.1451  0.1717
  875MOL0     C18046   1.907   1.041   4.273 -0.4464 -0.1457  0.0221
  875MOL0     C18047   1.887   1.013   4.143 -0.0179  0.2919 -0.6590
  875MOL0     O18048   1.961   1.088   4.053 -0.1274  0.0165 -0.4242
  875MOL0     C18049   1.946   1.055   3.908 -0.0857  0.5354 -0.4392
  875MOL0     C18050   2.067   1.118   3.838  0.1471  0.2481 -1.0603
  875MOL0     C18051   2.052   1.275   3.816  0.3036  0.1157  0.4137
  875MOL0     C18052   2.049   1.376   3.933 -0.8007 -0.2264 -1.1815
  875MOL0     C18053   2.003   1.510   3.902 -0.0406 -0.0192  0.8821
  875MOL0     C18054   1.961   1.623   3.868 -0.2190  0.1221  0.5534
  875MOL0     C18055   1.795   0.912   4.103 -0.2655  0.3182 -0.3125
  875MOL0     C18056   1.712   0.850   4.202  1.0065 -0.4154  1.0990
  875MOL0     C18057   1.615   0.745   4.163  0.3462  0.4561  0.3539
  875MOL0     H18058   1.846   0.626   4.738 -0.6683 -0.8047  0.4559
  875MOL0     H18059   1.768   0.604   4.987  0.5828  2.5670  1.7666
  875MOL0     H18060   1.381   0.830   5.095  1.4097  1.2398 -0.0787
  875MOL0     H18061   1.373   0.660   5.054 -1.6461 -1.2098  1.7501
  875MOL0     H18062   1.456   0.777   5.318  3.4223 -1.8301 -0.7997
  875MOL0     H18063   1.461   0.600   5.279 -3.3691 -2.2193  2.4188
  875MOL0     H18064   1.254   0.626   5.402 -1.1345 -0.1369 -0.0803
  875MOL0     H18065   1.217   0.589   5.235  2.3109  0.7905 -2.8303
  875MOL0     H18066   1.233   0.880   5.325 -3.8414  1.0350  1.7382
  875MOL0     H18067   1.164   0.820   5.184  1.2428 -3.7721 -0.9493
  875MOL0     H18068   0.982   0.880   5.356 -0.8458 -0.2202  2.1272
  875MOL0     H18069   0.976   0.706   5.336 -2.2830  0.7681  0.1192
  875MOL0     H18070   0.962   0.807   5.564 -0.6973 -4.4070  3.2083
  875MOL0     H18071   1.060   0.665   5.541  1.4673  0.1174 -1.6766
  875MOL0     H18072   1.267   0.802   5.554  2.7763  4.6325  1.1427
  875MOL0     H18073   1.153   0.823   5.697 -3.0438 -0.3295 -0.5057
  875MOL0     H18074   1.273   1.009   5.637  1.2034  1.5383 -2.8410
  875MOL0     H18075   1.181   1.028   5.482 -0.5646  1.3016  0.6175
  875MOL0     H18076   1.121   1.047   5.852 -0.8500 -0.2718  0.5588
  875MOL0     H18077   0.798   1.139   5.953  0.7778 -1.0870  0.7607
  875MOL0     H18078   0.949   1.218   5.983 -1.1580 -1.8983  0.5330
  875MOL0     H18079   0.840   1.398   5.805 -0.5858  0.1311  0.3782
  875MOL0     H18080   0.702   1.315   5.852  0.5605 -3.0483  0.8057
  875MOL0     H18081   0.889   1.477   6.024  0.7567  0.3920 -2.6000
  875MOL0     H18082   0.728   1.402   6.088 -1.6770 -1.2623 -1.6727
  875MOL0     H18083   0.656   1.601   6.043  1.2525 -1.2432  1.1885
  875MOL0     H18084   0.632   1.521   5.888 -0.5268 -3.8508  2.8318
  875MOL0     H18085   0.808   1.717   6.152 -0.0466 -0.4341  1.4959
  875MOL0     H18086   0.968   1.884   6.229 -1.2781 -0.5468  0.0841
  875MOL0     H18087   1.379   2.179   5.888 -2.1177  0.3164  0.2578
  875MOL0     H18088   1.569   2.305   5.989  1.3863  3.1530  1.6722
  875MOL0     H18089   1.722   2.363   6.143  0.7958  0.2853 -1.8501
  875MOL0     H18090   1.686   2.506   6.059 -0.6222 -1.2835 -0.2111
  875MOL0     H18091   1.741   2.651   6.268 -0.7034 -0.5581  1.5267
  875MOL0     H18092   1.793   2.497   6.344 -0.8546 -0.7894  0.0379
  875MOL0     H18093   1.974   2.487   6.254 -0.2428 -0.5586 -0.0246
  875MOL0     H18094   1.916   2.517   6.087 -1.7481 -3.5826  0.8179
  875MOL0     H18095   2.090   2.699   6.150 -0.6757 -1.3639 -0.8123
  875MOL0     H18096   1.998   2.735   6.288  2.1252  1.5524 -1.5590
  875MOL0     H18097   1.947   2.924   6.119 -0.6004  0.3208  0.2919
  875MOL0     H18098   1.818   2.832   6.187  1.2907 -0.9291  1.0974
  875MOL0     H18099   1.909   2.701   5.932  0.5167 -0.5872  1.1960
  875MOL0     H18100   1.752   2.737   5.998  0.0437 -0.5958  0.5616
  875MOL0     H18101   1.928   2.958   5.883 -0.6332  0.1410 -0.7496
  875MOL0     H18102   1.762   2.972   5.948 -0.3605 -1.0235  0.7976
  875MOL0     H18103   1.784   2.970   5.682 -0.0508 -0.6518 -0.3494
  875MOL0     H18104   1.821   2.800   5.702 -2.0786 -3.6257  2.1002
  875MOL0     H18105   1.309   2.452   6.301 -0.4948  0.0367  0.1123
  875MOL0     H18106   1.122   2.323   6.185 -2.0181  1.6022 -1.6568
  875MOL0     H18107   1.054   1.986   5.822 -2.6168  2.4907  0.7867
  875MOL0     H18108   0.935   1.779   5.751  0.7966 -1.2492  0.7641
  875MOL0     H18109   1.488   0.909   4.901  2.2641  1.4954 -1.0444
  875MOL0     H18110   1.532   0.914   4.672  0.2467  3.7897  3.5193
  875MOL0     H18111   1.840   1.002   4.475  2.0990  0.7246 -0.0009
  875MOL0     H18112   1.981   1.119   4.288 -0.7180  0.4947 -1.7071
  875MOL0     H18113   1.847   1.080   3.870 -0.4971  0.3775  0.5027
  875MOL0     H18114   1.952   0.946   3.895  5.6229  0.2286  2.0134
  875MOL0     H18115   2.082   1.092   3.733  1.7752 -0.6512 -0.6417
  875MOL0     H18116   2.153   1.092   3.900 -1.8268  0.7001  2.1191
  875MOL0     H18117   1.974   1.306   3.745  0.1904  3.0407  1.6977
  875MOL0     H18118   2.139   1.296   3.753  3.3621 -3.0302  3.1708
  875MOL0     H18119   2.004   1.332   4.022 -0.9852 -1.9334 -2.0780
  875MOL0     H18120   2.153   1.393   3.963 -1.5432  1.5864  0.5556
  875MOL0     H18121   1.926   1.718   3.833 -1.1260 -1.4014 -3.1509
  875MOL0     H18122   1.799   0.888   3.998  2.6947  5.2066 -1.6259
  875MOL0     H18123   1.634   0.662   4.232  0.0131 -1.5443 -1.8682
  875MOL0     H18124   1.509   0.766   4.180  0.0616  0.0458 -0.8179
  875MOL0     H18125   1.628   0.707   4.062 -1.6336 -2.1765  0.9894
  876MOL0     O18126   5.054  10.552   4.780  0.0671  0.0760 -0.4765
  876MOL0     C18127   5.050  10.543   4.663  1.2802  0.1822 -0.7577
  876MOL0     O18128   5.002  10.638   4.576 -0.5151  0.1823 -0.4093
  876MOL0     C18129   4.949  10.750   4.627 -0.5551  0.2711 -0.1818
  876MOL0     C18130   4.815  10.774   4.601 -0.4569  0.7513  0.4586
  876MOL0     C18131   4.754  10.887   4.656 -0.4687  0.4427  0.7551
  876MOL0     C18132   4.821  10.985   4.736  0.1829 -0.0412 -1.4564
  876MOL0     O18133   4.734  11.080   4.783  0.1156  0.1655  0.0164
  876MOL0     C18134   4.776  11.214   4.816  0.2682 -0.6024  0.2195
  876MOL0     C18135   4.826  11.292   4.696  0.6182  0.6247 -0.1498
  876MOL0     C18136   4.931  11.395   4.759 -0.1016  0.1759  0.5018
  876MOL0     C18137   5.010  11.478   4.652  0.9576  0.3714  0.5492
  876MOL0     C18138   5.107  11.576   4.703 -0.5525 -1.3125 -0.8965
  876MOL0     C18139   5.212  11.613   4.598 -0.2899  0.2660 -0.3937
  876MOL0     C18140   5.322  11.694   4.652  0.1066 -0.2367  0.5241
  876MOL0     C18141   5.421  11.747   4.544  0.4245  0.1637  0.1863
  876MOL0     N18142   5.512  11.852   4.587  1.1768  0.0473 -0.1090
  876MOL0     C18143   5.549  11.862   4.716  0.0314 -0.4412  0.5629
  876MOL0     C18144   5.619  11.981   4.727  0.8818  0.8073 -0.0618
  876MOL0     C18145   5.687  12.019   4.861  0.1266 -0.3212  0.3027
  876MOL0     C18146   5.768  12.145   4.865 -0.1033  0.9031 -0.3047
  876MOL0     C18147   5.876  12.153   4.757 -0.1557  0.1294 -0.1224
  876MOL0     C18148   5.961  12.277   4.773  1.1549 -0.1255  0.5630
  876MOL0     O18149   5.868  12.382   4.768 -0.8217 -0.5256 -0.5646
  876MOL0     C18150   5.915  12.492   4.715 -0.0445 -0.6576  0.2217
  876MOL0     C18151   6.047  12.541   4.724  0.8829  0.2883 -0.4578
  876MOL0     C18152   6.089  12.655   4.657  0.4505 -0.7035 -0.1110
  876MOL0     C18153   6.002  12.747   4.588  1.9889  0.7178  0.3329
  876MOL0     C18154   6.048  12.869   4.521 -0.1520  0.4079  0.3396
  876MOL0     O18155   5.963  12.953   4.464 -0.0956 -0.1521 -0.2962
  876MOL0     C18156   6.003  13.081   4.432 -0.1335  0.9727 -0.3441
  876MOL0     C18157   6.019  13.123   4.296 -0.1837  0.2380 -0.9064
  876MOL0     C18158   6.084  13.239   4.272 -0.0589 -0.7742 -0.8174
  876MOL0     C18159   6.118  13.334   4.379 -0.2212 -0.4072  0.4782
  876MOL0     O18160   6.174  13.455   4.357  0.9877 -0.4781 -0.4082
  876MOL0     C18161   6.172  13.519   4.230  0.2491  0.0255 -0.9148
  876MOL0     C18162   6.251  13.645   4.246  0.4495  0.3247 -0.0174
  876MOL0     C18163   6.195  13.736   4.142  0.2251 -0.8194  0.4810
  876MOL0     C18164   6.294  13.845   4.102 -0.1115  0.0857 -0.4572
  876MOL0     C18165   6.218  13.957   4.032 -0.2588 -1.0127  0.1852
  876MOL0     C18166   6.297  14.089   4.028  0.3797 -0.1675  0.5728
  876MOL0     C18167   6.439  14.091   3.976 -0.2655 -0.6763  0.5640
  876MOL0     C18168   6.474  14.224   3.915 -0.4929 -0.2100  0.6290
  876MOL0    Cl18169   6.447  14.220   3.739 -0.0823 -0.5028  0.3053
  876MOL0     C18170   6.101  13.291   4.515  0.0293  0.4341  0.0299
  876MOL0     C18171   6.034  13.171   4.543 -0.8604 -0.0701 -0.6941
  876MOL0     O18172   6.171  12.876   4.521  0.0720 -1.2777  0.2092
  876MOL0     C18173   5.867  12.710   4.599  0.3619  0.6840  0.4923
  876MOL0     C18174   5.824  12.583   4.654  0.6958 -0.0600  0.4500
  876MOL0     N18175   5.614  12.033   4.595 -0.8489  0.0352  0.6263
  876MOL0     N18176   5.551  11.956   4.513 -0.4309 -0.0043 -0.2276
  876MOL0     C18177   4.959  10.970   4.750  0.3884 -0.6272  0.4961
  876MOL0     C18178   5.016  10.856   4.689 -0.1607 -0.7341 -0.4698
  876MOL0     C18179   5.097  10.424   4.587  0.8169  1.0677 -0.7393
  876MOL0     C18180   5.113  10.441   4.447 -0.3566  0.5579  0.2385
  876MOL0     C18181   5.159  10.332   4.363 -0.4354  0.2288  0.0603
  876MOL0     C18182   5.154  10.198   4.417  0.9790 -0.5574  0.1406
  876MOL0     O18183   5.190  10.088   4.349  0.2328  0.2196  0.5951
  876MOL0     C18184   5.261  10.103   4.223 -0.2050  0.0416  1.0659
  876MOL0     C18185   5.331   9.979   4.186 -0.1171  0.8464  0.7586
  876MOL0     C18186   5.234   9.893   4.107 -0.4531  0.4805 -0.2560
  876MOL0     C18187   5.308   9.776   4.046  0.9772 -0.6598 -0.5322
  876MOL0     C18188   5.397   9.699   4.131  0.9380  1.0051 -0.6167
  876MOL0     C18189   5.472   9.634   4.209 -0.9446 -0.7097 -0.5277
  876MOL0     C18190   5.111  10.179   4.544  0.7559  0.3264  1.0033
  876MOL0     C18191   5.093  10.286   4.638  0.1634 -0.2298  0.8034
  876MOL0     C18192   5.043  10.264   4.774  0.8401  0.6987 -0.4671
  876MOL0     H18193   4.750  10.703   4.550 -0.7726  1.0628  0.4229
  876MOL0     H18194   4.646  10.902   4.660 -0.2607  3.9283 -1.9491
  876MOL0     H18195   4.684  11.264   4.849 -0.5602 -0.5466 -1.9751
  876MOL0     H18196   4.850  11.210   4.896 -0.1095 -1.0535  0.5569
  876MOL0     H18197   4.750  11.355   4.647  3.5781  1.8574 -3.5896
  876MOL0     H18198   4.871  11.227   4.620  0.5129 -0.4773  0.7085
  876MOL0     H18199   5.000  11.350   4.831  0.0442  0.3074  0.4448
  876MOL0     H18200   4.885  11.466   4.828 -0.9018  0.7271 -0.5693
  876MOL0     H18201   5.060  11.402   4.592  2.7508  0.8295  1.4102
  876MOL0     H18202   4.937  11.526   4.586 -1.7057 -2.0089  1.5331
  876MOL0     H18203   5.051  11.665   4.733  0.5703 -0.4946 -1.1477
  876MOL0     H18204   5.164  11.529   4.784 -1.0435 -0.3221  0.0493
  876MOL0     H18205   5.247  11.520   4.552  1.3815  1.2790 -1.2854
  876MOL0     H18206   5.163  11.671   4.518 -0.5939  0.3452 -0.1536
  876MOL0     H18207   5.370  11.619   4.715 -0.2892 -1.7874 -0.9220
  876MOL0     H18208   5.290  11.780   4.711 -0.2379  1.6190 -2.1612
  876MOL0     H18209   5.481  11.667   4.499 -0.5341 -1.1298  1.1303
  876MOL0     H18210   5.367  11.787   4.457 -0.2415  1.4023  1.1495
  876MOL0     H18211   5.542  11.788   4.795  2.9827  0.0187  1.3561
  876MOL0     H18212   5.611  12.016   4.940  0.1938  1.1696  0.4501
  876MOL0     H18213   5.766  11.945   4.878  2.8337  2.2203 -0.5289
  876MOL0     H18214   5.701  12.228   4.845 -1.5917 -0.2880 -0.4550
  876MOL0     H18215   5.804  12.146   4.969 -1.7071 -3.5076  0.5309
  876MOL0     H18216   5.833  12.155   4.657  0.3024  0.5517 -0.3115
  876MOL0     H18217   5.935  12.061   4.755 -2.6364 -1.5886  0.2755
  876MOL0     H18218   6.033  12.284   4.690 -1.2295 -0.8955 -1.7014
  876MOL0     H18219   6.008  12.265   4.871  0.6965 -1.4555  0.6320
  876MOL0     H18220   6.122  12.486   4.780  1.1940  1.4960  0.3390
  876MOL0     H18221   6.191  12.689   4.665  0.5277 -0.3724 -2.0668
  876MOL0     H18222   6.008  13.048   4.218  1.2668 -1.2057  0.2268
  876MOL0     H18223   6.124  13.269   4.175  1.3008 -0.0507 -0.0763
  876MOL0     H18224   6.211  13.458   4.147 -0.7856 -1.1839 -0.5451
  876MOL0     H18225   6.066  13.546   4.226 -0.0187 -0.6285  0.8790
  876MOL0     H18226   6.237  13.686   4.346 -1.1178  0.3810 -0.2447
  876MOL0     H18227   6.357  13.620   4.230  0.8230  1.6822  0.1930
  876MOL0     H18228   6.161  13.679   4.054  0.5308 -0.1378 -0.0916
  876MOL0     H18229   6.110  13.786   4.190 -1.6940 -2.7438 -0.7436
  876MOL0     H18230   6.368  13.792   4.042  1.4240 -0.3833  1.7388
  876MOL0     H18231   6.338  13.883   4.194 -2.1018  0.3274  0.4580
  876MOL0     H18232   6.131  13.987   4.091  1.1993  0.7166  1.5842
  876MOL0     H18233   6.179  13.934   3.933  0.6842  0.8773 -0.6700
  876MOL0     H18234   6.233  14.152   3.965 -2.6263 -0.4453  3.1095
  876MOL0     H18235   6.296  14.136   4.127 -1.0616 -2.6462  1.8259
  876MOL0     H18236   6.443  14.025   3.889  0.5961 -1.0582  0.8860
  876MOL0     H18237   6.508  14.059   4.054  0.1326  1.3926  1.1414
  876MOL0     H18238   6.404  14.295   3.960 -2.2412 -1.4524 -0.0271
  876MOL0     H18239   6.578  14.254   3.932  0.1831 -1.0089 -1.7481
  876MOL0     H18240   6.121  13.360   4.596 -1.1476  0.3859  0.3855
  876MOL0     H18241   6.010  13.136   4.643  0.5378  4.6417  1.5706
  876MOL0     H18242   5.790  12.778   4.563 -1.2460 -0.8142  0.9447
  876MOL0     H18243   5.722  12.551   4.635  0.6309  0.2646  0.2466
  876MOL0     H18244   5.019  11.047   4.797 -1.5921 -0.1678  2.4259
  876MOL0     H18245   5.125  10.855   4.685  0.0062  2.7754 -0.1194
  876MOL0     H18246   5.131  10.539   4.405 -1.0918  1.2862  1.5522
  876MOL0     H18247   5.193  10.343   4.261 -1.3087 -1.3194 -0.4320
  876MOL0     H18248   5.334  10.181   4.245 -2.1484  2.0167  0.9477
  876MOL0     H18249   5.198  10.142   4.142  1.0559  3.5405  1.5939
  876MOL0     H18250   5.354   9.921   4.276  0.8305  0.1319  0.0794
  876MOL0     H18251   5.419  10.010   4.129  2.4949 -2.6175  2.5090
  876MOL0     H18252   5.196   9.958   4.028 -1.0196  0.8803  0.3346
  876MOL0     H18253   5.148   9.872   4.172  0.5983  1.6951  1.6155
  876MOL0     H18254   5.229   9.706   4.014  0.9170  0.0833 -2.0777
  876MOL0     H18255   5.361   9.810   3.957 -1.1310 -0.3752 -1.7514
  876MOL0     H18256   5.539   9.591   4.280 -0.4445  1.1274  0.1721
  876MOL0     H18257   5.092  10.076   4.573  0.8522 -0.6965 -2.1187
  876MOL0     H18258   5.135  10.269   4.833  0.5821 -1.3061  0.1954
  876MOL0     H18259   4.961  10.333   4.797  0.4100  0.7008 -1.9420
  876MOL0     H18260   4.990  10.168   4.786  0.4098  1.0531  0.6225
  877MOL0     O18261   8.457   6.378   3.775 -0.4436  0.3168 -0.1634
  877MOL0     C18262   8.464   6.485   3.719 -0.4225 -0.7683  0.1593
  877MOL0     O18263   8.453   6.512   3.581  0.2563  0.0612 -0.6922
  877MOL0     C18264   8.471   6.419   3.478 -0.5012 -0.1396  0.8659
  877MOL0     C18265   8.533   6.299   3.501 -0.3413 -0.2513  0.2371
  877MOL0     C18266   8.537   6.204   3.394 -0.3655 -0.3480  0.4997
  877MOL0     C18267   8.493   6.233   3.265 -0.1374  0.2051 -0.2993
  877MOL0     O18268   8.516   6.150   3.154 -0.2496 -0.1935 -0.0456
  877MOL0     C18269   8.531   6.012   3.159  0.5350  0.3877 -0.2877
  877MOL0     C18270   8.515   5.953   3.020  0.7192 -0.7460  0.2565
  877MOL0     C18271   8.635   5.966   2.917 -0.4262  0.2957 -0.2278
  877MOL0     C18272   8.666   6.106   2.856 -0.1408 -0.6630  0.4848
  877MOL0     C18273   8.789   6.108   2.756  0.2434 -0.6837  0.5042
  877MOL0     C18274   8.786   6.232   2.657  0.2129 -1.0201 -0.0268
  877MOL0     C18275   8.879   6.249   2.535  0.3720  1.2262 -0.6135
  877MOL0     C18276   9.031   6.274   2.583  0.1593  0.8068 -0.0400
  877MOL0     N18277   9.048   6.399   2.645 -0.2380  0.6080 -0.9040
  877MOL0     C18278   9.000   6.520   2.606 -0.1254 -0.1139  0.6968
  877MOL0     C18279   9.034   6.600   2.700 -0.3601 -0.3990 -0.0824
  877MOL0     C18280   9.003   6.744   2.717 -0.6860 -0.7666  0.3175
  877MOL0     C18281   9.122   6.828   2.762  0.9047 -0.1095  0.4354
  877MOL0     C18282   9.251   6.802   2.693  0.4904  0.1986 -0.1218
  877MOL0     C18283   9.379   6.838   2.759 -0.1271 -0.4822  0.2029
  877MOL0     O18284   9.388   6.971   2.803  0.2055 -0.4115 -0.5733
  877MOL0     C18285   9.509   7.044   2.807 -0.0463  1.0793 -0.6969
  877MOL0     C18286   9.640   6.978   2.801  0.6325 -0.4170 -0.2995
  877MOL0     C18287   9.755   7.051   2.829  0.4572  0.4666  0.5888
  877MOL0     C18288   9.752   7.180   2.862 -0.3881  0.6257  0.3418
  877MOL0     C18289   9.880   7.241   2.897  0.3841  0.1063 -0.3680
  877MOL0     O18290   9.984   7.159   2.878 -1.0242 -0.7900  0.1099
  877MOL0     C18291  10.106   7.213   2.916 -1.0484  0.1289 -0.3752
  877MOL0     C18292  10.179   7.311   2.853 -0.4789 -0.6130  0.3529
  877MOL0     C18293  10.306   7.357   2.892 -0.0628  0.5467 -0.1750
  877MOL0     C18294  10.366   7.308   3.004  0.4069  0.7659  0.8033
  877MOL0     O18295  10.486   7.356   3.046 -0.4656 -0.0567  0.2662
  877MOL0     C18296  10.507   7.493   3.030 -0.1028  0.2481 -0.2906
  877MOL0     C18297  10.413   7.583   3.114  0.8074 -0.2008  0.1888
  877MOL0     C18298  10.426   7.738   3.090  0.1732  0.1560  0.5388
  877MOL0     C18299  10.332   7.815   3.187 -0.3116  0.2710 -0.2788
  877MOL0     C18300  10.311   7.957   3.119 -1.0489  0.4840  1.1481
  877MOL0     C18301  10.218   7.947   2.995  0.1794 -0.6965 -0.0423
  877MOL0     C18302  10.272   8.002   2.863 -0.3910  0.1084 -0.0483
  877MOL0     C18303  10.170   8.000   2.741 -0.2502 -0.0987 -0.6069
  877MOL0    Cl18304  10.275   8.034   2.610  0.4533 -0.0685 -0.1696
  877MOL0     C18305  10.300   7.210   3.077  1.0602  0.1743 -0.2668
  877MOL0     C18306  10.174   7.162   3.032 -0.5691 -0.2486 -0.0350
  877MOL0     O18307   9.880   7.343   2.963 -0.1081 -0.0434 -0.6511
  877MOL0     C18308   9.627   7.249   2.867 -0.2502 -0.7382  0.4168
  877MOL0     C18309   9.509   7.177   2.840  0.0889 -0.1136 -1.0144
  877MOL0     N18310   9.090   6.525   2.802 -0.3800 -0.1045  0.6485
  877MOL0     N18311   9.114   6.403   2.761  0.2932  0.2109 -0.0046
  877MOL0     C18312   8.419   6.355   3.254  0.2180  0.5368 -0.5442
  877MOL0     C18313   8.409   6.445   3.356  0.1604  0.1276 -0.5303
  877MOL0     C18314   8.483   6.602   3.809  0.1959  1.1525 -0.1709
  877MOL0     C18315   8.600   6.607   3.896 -0.0490  0.6889 -0.8401
  877MOL0     C18316   8.638   6.721   3.965 -0.3425  0.2780 -0.1113
  877MOL0     C18317   8.555   6.834   3.962  0.0489  0.0721  0.5375
  877MOL0     O18318   8.584   6.943   4.038  0.0738 -0.3631 -0.0816
  877MOL0     C18319   8.551   7.065   3.970  0.2181  0.0802 -0.2486
  877MOL0     C18320   8.654   7.177   4.005  0.1857  0.2365  0.7906
  877MOL0     C18321   8.794   7.129   3.951  0.6423 -0.2371 -1.0555
  877MOL0     C18322   8.902   7.239   3.978  0.0396 -0.1071  0.4607
  877MOL0     C18323   8.875   7.363   3.909 -0.0518 -0.4519 -0.1321
  877MOL0     C18324   8.855   7.463   3.841 -0.1814 -0.4783 -0.1898
  877MOL0     C18325   8.441   6.829   3.885  0.7057  0.9302 -0.8677
  877MOL0     C18326   8.404   6.715   3.802  0.4503 -0.7367 -0.0894
  877MOL0     C18327   8.287   6.723   3.708 -0.6185  0.9262 -0.5805
  877MOL0     H18328   8.587   6.267   3.590  0.3979 -1.3219 -0.5657
  877MOL0     H18329   8.578   6.105   3.408 -1.7995 -0.8484  1.4394
  877MOL0     H18330   8.632   5.985   3.191  0.6071  0.6336 -0.3106
  877MOL0     H18331   8.456   5.965   3.224 -1.3883 -0.9119 -3.2561
  877MOL0     H18332   8.427   5.998   2.973  0.3175 -1.3069  0.4679
  877MOL0     H18333   8.483   5.849   3.031  0.6121 -0.6869  0.5181
  877MOL0     H18334   8.622   5.886   2.844 -0.6968  0.6314 -0.5503
  877MOL0     H18335   8.728   5.937   2.966  0.3316  0.5581 -1.4683
  877MOL0     H18336   8.585   6.131   2.787 -0.4778 -5.9632 -1.5034
  877MOL0     H18337   8.676   6.185   2.931 -0.4978  1.9650 -2.0819
  877MOL0     H18338   8.886   6.111   2.804  0.9992  0.8345 -0.9847
  877MOL0     H18339   8.780   6.016   2.697 -0.3747 -0.6411  0.5180
  877MOL0     H18340   8.683   6.237   2.621 -0.9677  0.6270  3.1706
  877MOL0     H18341   8.809   6.321   2.717  0.8801 -1.5659  0.5460
  877MOL0     H18342   8.842   6.328   2.470 -0.3749 -0.3395 -2.1844
  877MOL0     H18343   8.875   6.158   2.474 -0.1521 -0.0481  1.2071
  877MOL0     H18344   9.068   6.182   2.628  0.0763 -0.9358 -3.2501
  877MOL0     H18345   9.087   6.279   2.490  1.5297 -2.3890  0.4979
  877MOL0     H18346   8.940   6.548   2.520  0.8364  1.9516  0.6447
  877MOL0     H18347   8.970   6.782   2.620  2.2446  2.2135  0.3056
  877MOL0     H18348   8.929   6.750   2.797 -0.7398 -1.1757  0.3003
  877MOL0     H18349   9.097   6.934   2.749 -1.5415 -0.3433  2.5529
  877MOL0     H18350   9.133   6.815   2.870 -3.5582  0.6312  1.1715
  877MOL0     H18351   9.242   6.860   2.601  0.7592 -1.1605 -1.0406
  877MOL0     H18352   9.254   6.700   2.653 -2.9115 -0.1870  0.3342
  877MOL0     H18353   9.450   6.813   2.679  0.3740  0.8926  0.1962
  877MOL0     H18354   9.399   6.774   2.845 -0.2122 -0.4533  0.2444
  877MOL0     H18355   9.640   6.874   2.771  2.4327  0.0415 -2.0874
  877MOL0     H18356   9.839   6.984   2.842 -0.3343 -0.1847  2.8955
  877MOL0     H18357  10.128   7.358   2.769  1.8601  0.1749 -0.7081
  877MOL0     H18358  10.352   7.424   2.819  1.2608  0.4810  0.5844
  877MOL0     H18359  10.607   7.518   3.064  1.0331 -2.0818 -1.7130
  877MOL0     H18360  10.508   7.524   2.924  2.2380  0.1549 -0.3368
  877MOL0     H18361  10.308   7.554   3.107  1.2074 -2.3207  1.9962
  877MOL0     H18362  10.439   7.564   3.218  0.6764  0.6685  0.3873
  877MOL0     H18363  10.528   7.774   3.105 -0.8482  3.4593  0.3553
  877MOL0     H18364  10.421   7.757   2.983  1.5062  0.7364  0.5638
  877MOL0     H18365  10.377   7.827   3.286 -1.7391  0.0468  0.4129
  877MOL0     H18366  10.235   7.765   3.194  1.3535 -3.0643  1.2646
  877MOL0     H18367  10.410   7.998   3.098 -0.8012 -0.3331  0.6926
  877MOL0     H18368  10.255   8.018   3.191 -2.4081 -0.3795  0.8611
  877MOL0     H18369  10.187   7.846   2.966 -0.8434  0.7417 -4.8000
  877MOL0     H18370  10.125   8.000   3.015  1.9138  2.3615  0.4674
  877MOL0     H18371  10.358   7.939   2.837  0.4064  1.5372 -0.9838
  877MOL0     H18372  10.314   8.103   2.869 -0.2362  0.0259  0.2766
  877MOL0     H18373  10.125   7.901   2.729  0.8230 -0.7364  0.3596
  877MOL0     H18374  10.094   8.077   2.751 -2.0818 -1.8253 -0.6920
  877MOL0     H18375  10.355   7.173   3.163  0.3465  0.4929  0.3351
  877MOL0     H18376  10.121   7.097   3.100 -2.6984 -0.2820 -1.6517
  877MOL0     H18377   9.629   7.355   2.890 -5.0469  0.1975 -2.1868
  877MOL0     H18378   9.417   7.233   2.853  1.3138  2.2054 -1.8287
  877MOL0     H18379   8.368   6.377   3.161 -3.2579  0.9498  1.2848
  877MOL0     H18380   8.344   6.529   3.334 -0.0391  0.4337  1.0821
  877MOL0     H18381   8.673   6.527   3.902  0.7521  1.4731  0.2731
  877MOL0     H18382   8.728   6.735   4.024 -1.2528  1.0933  1.1493
  877MOL0     H18383   8.458   7.103   4.014  0.2806 -1.4260  1.3113
  877MOL0     H18384   8.540   7.067   3.861  0.1485  0.2138 -0.2398
  877MOL0     H18385   8.666   7.186   4.114  0.6597 -0.5015  0.8066
  877MOL0     H18386   8.624   7.269   3.954  0.6250 -0.9258 -1.6980
  877MOL0     H18387   8.777   7.114   3.844  0.4269  0.2353 -1.0884
  877MOL0     H18388   8.830   7.050   4.017 -0.6621  2.3259  3.1180
  877MOL0     H18389   8.899   7.267   4.083 -1.1952 -0.5590  0.5666
  877MOL0     H18390   9.000   7.200   3.952 -0.2758  0.1414 -1.2267
  877MOL0     H18391   8.831   7.558   3.797  0.9030  0.4801  1.1833
  877MOL0     H18392   8.365   6.907   3.880 -1.8018 -1.3683 -1.3030
  877MOL0     H18393   8.212   6.794   3.745  0.3943  1.7110  0.0373
  877MOL0     H18394   8.310   6.777   3.616 -2.9696 -0.5697 -2.1492
  877MOL0     H18395   8.249   6.626   3.674  1.6323  0.7292 -2.7854
  878MOL0     O18396   1.194   5.007   1.120 -0.8042 -0.3408 -0.7658
  878MOL0     C18397   1.132   4.907   1.141  0.4038  0.0742 -0.4920
  878MOL0     O18398   1.157   4.820   1.237 -0.0832  0.8120 -0.4189
  878MOL0     C18399   1.274   4.805   1.302 -0.4030  0.6800  0.5039
  878MOL0     C18400   1.397   4.815   1.242 -0.5100 -0.2358  0.1320
  878MOL0     C18401   1.519   4.796   1.306  0.6969  0.5939 -0.3451
  878MOL0     C18402   1.515   4.757   1.439  0.4115  0.2626  0.6483
  878MOL0     O18403   1.627   4.713   1.498  0.1197 -0.5811  0.2217
  878MOL0     C18404   1.732   4.812   1.479 -0.1240 -0.5719 -0.9038
  878MOL0     C18405   1.839   4.776   1.577  0.0368 -1.0766  0.2061
  878MOL0     C18406   1.961   4.868   1.563 -0.3890 -0.2949  0.0066
  878MOL0     C18407   2.066   4.830   1.663 -0.8877  0.7702 -0.4175
  878MOL0     C18408   2.192   4.914   1.626  0.3976 -0.3482  0.8369
  878MOL0     C18409   2.291   4.923   1.738  0.0970  0.8887 -0.0826
  878MOL0     C18410   2.386   5.045   1.718 -1.1007 -0.2267 -0.0391
  878MOL0     C18411   2.496   5.031   1.607  0.6703  0.5668  0.2673
  878MOL0     N18412   2.596   4.920   1.632  0.0481 -0.1922 -0.1289
  878MOL0     C18413   2.598   4.806   1.561  0.0895 -0.0299  0.3143
  878MOL0     C18414   2.684   4.721   1.630  0.3650 -0.3330 -0.5492
  878MOL0     C18415   2.715   4.579   1.598 -0.2968 -0.8390  0.4822
  878MOL0     C18416   2.780   4.552   1.458  0.1343  0.4566 -0.0605
  878MOL0     C18417   2.915   4.596   1.461  0.4962  0.4388 -0.9174
  878MOL0     C18418   2.968   4.565   1.320 -0.2638 -0.8937  0.0601
  878MOL0     O18419   2.971   4.420   1.304 -0.0103  0.0920 -0.3885
  878MOL0     C18420   3.078   4.368   1.219  0.7093 -1.5673 -0.5068
  878MOL0     C18421   3.114   4.238   1.251  0.0050 -0.3720  0.8396
  878MOL0     C18422   3.213   4.178   1.175 -0.2878  0.5095  1.3184
  878MOL0     C18423   3.285   4.243   1.068  0.4356 -0.2141 -1.2323
  878MOL0     C18424   3.388   4.182   0.985 -0.5184  0.5658 -0.2273
  878MOL0     O18425   3.455   4.259   0.899  0.6561  0.1203 -0.1863
  878MOL0     C18426   3.521   4.192   0.794  0.2132  0.2585 -0.4961
  878MOL0     C18427   3.463   4.158   0.676 -0.0102  0.3058  0.4535
  878MOL0     C18428   3.520   4.067   0.587 -0.8302  0.0513 -0.0213
  878MOL0     C18429   3.653   4.010   0.601 -0.2820 -0.1037 -0.4864
  878MOL0     O18430   3.729   3.938   0.516 -0.0592  0.0137 -0.0619
  878MOL0     C18431   3.712   3.963   0.377 -1.1769  0.3049  0.4757
  878MOL0     C18432   3.815   4.070   0.333  0.1640  1.2207  0.1218
  878MOL0     C18433   3.952   4.007   0.310 -0.4957 -0.2201 -0.2337
  878MOL0     C18434   4.056   4.115   0.262  1.4173  0.2272 -0.6278
  878MOL0     C18435   4.175   4.044   0.205 -0.3270  0.3640 -0.4035
  878MOL0     C18436   4.257   4.142   0.123  0.0671 -0.0754  0.8583
  878MOL0     C18437   4.395   4.079   0.080 -1.0044 -0.7998 -0.3821
  878MOL0     C18438   4.469   4.153  -0.034  0.1664  0.3589 -0.0683
  878MOL0    Cl18439   4.393   4.079  -0.180 -0.3139 -0.0874  0.1630
  878MOL0     C18440   3.717   4.054   0.724 -0.0881  0.5063  0.1188
  878MOL0     C18441   3.647   4.135   0.820 -0.4065  0.0769  0.8841
  878MOL0     O18442   3.389   4.060   0.992  0.2749  0.4328  0.5356
  878MOL0     C18443   3.245   4.376   1.036  0.0798 -0.4291  1.1250
  878MOL0     C18444   3.144   4.440   1.115  0.4096 -0.6090  0.0266
  878MOL0     N18445   2.735   4.795   1.733 -0.1856 -0.3501 -0.2378
  878MOL0     N18446   2.683   4.917   1.738  0.9717  0.9447 -0.7346
  878MOL0     C18447   1.388   4.754   1.505 -0.3234  0.6668 -0.1647
  878MOL0     C18448   1.272   4.779   1.435  0.8210 -0.2215 -0.1357
  878MOL0     C18449   0.997   4.902   1.083 -0.2597 -0.1942 -0.1845
  878MOL0     C18450   0.891   4.867   1.171 -0.1831  0.0613  0.7668
  878MOL0     C18451   0.759   4.867   1.132 -0.1314 -0.6236 -0.0908
  878MOL0     C18452   0.723   4.909   1.001 -0.3079  0.2679 -0.9558
  878MOL0     O18453   0.598   4.918   0.956  0.2877  0.1022 -0.1564
  878MOL0     C18454   0.482   4.886   1.030  0.2086  0.3185  1.4006
  878MOL0     C18455   0.374   4.989   1.006  0.0658  0.2847  0.2214
  878MOL0     C18456   0.228   4.956   1.033 -0.9159 -1.1072  0.3324
  878MOL0     C18457   0.142   5.084   1.050  0.2644  1.0010  0.5039
  878MOL0     C18458   0.007   5.053   1.104  0.2898  0.6470  0.0147
  878MOL0     C18459  -0.111   5.037   1.137 -0.1901 -0.0290  0.3994
  878MOL0     C18460   0.831   4.942   0.914  0.0682  0.2789  0.0714
  878MOL0     C18461   0.968   4.939   0.955 -0.2798  0.0832 -0.6397
  878MOL0     C18462   1.061   4.983   0.855 -0.8881  0.7331  0.2815
  878MOL0     H18463   1.396   4.845   1.138  1.5618 -1.2935 -0.2473
  878MOL0     H18464   1.610   4.786   1.246  1.5834 -1.0316  1.1733
  878MOL0     H18465   1.771   4.824   1.378  0.2778 -0.0943 -0.6962
  878MOL0     H18466   1.709   4.914   1.511  0.5812  0.0140 -2.1718
  878MOL0     H18467   1.875   4.673   1.564 -1.6073 -1.5945 -0.6192
  878MOL0     H18468   1.799   4.764   1.678 -0.4228  0.6099  0.2517
  878MOL0     H18469   1.924   4.969   1.582  1.0541  0.2595  0.0334
  878MOL0     H18470   2.004   4.862   1.462  2.2687  1.6837  0.8926
  878MOL0     H18471   2.027   4.852   1.762 -0.8720 -0.3145 -0.1531
  878MOL0     H18472   2.094   4.724   1.656 -0.7176  0.8109 -0.3343
  878MOL0     H18473   2.232   4.870   1.534 -0.8855 -1.2566  0.6888
  878MOL0     H18474   2.160   5.015   1.598  0.3603  0.1520  2.5396
  878MOL0     H18475   2.230   4.933   1.828 -0.6373 -0.2586 -0.4263
  878MOL0     H18476   2.344   4.827   1.745 -3.0487 -0.8833  2.0584
  878MOL0     H18477   2.450   5.050   1.807 -1.3683 -0.5345  0.1742
  878MOL0     H18478   2.331   5.139   1.704  3.0430  3.0024  2.9931
  878MOL0     H18479   2.441   5.024   1.512 -0.8409 -1.2164  1.2185
  878MOL0     H18480   2.553   5.124   1.592 -2.1796  2.4525  0.2885
  878MOL0     H18481   2.530   4.774   1.482  0.4541 -1.4268  0.5378
  878MOL0     H18482   2.777   4.544   1.681 -1.8523 -0.6834  1.7501
  878MOL0     H18483   2.622   4.523   1.610  0.0684 -0.9714  3.4443
  878MOL0     H18484   2.766   4.444   1.449  0.1825  0.2602  1.7061
  878MOL0     H18485   2.721   4.601   1.380 -0.5182  0.8730  0.6764
  878MOL0     H18486   2.977   4.540   1.531 -2.0387 -0.6072  0.6213
  878MOL0     H18487   2.919   4.704   1.478  0.0622  0.6942 -2.3292
  878MOL0     H18488   3.069   4.607   1.311 -1.0221  0.9454 -0.4698
  878MOL0     H18489   2.908   4.615   1.243 -3.3366 -0.8478  2.2969
  878MOL0     H18490   3.061   4.184   1.329  1.1042 -1.1780  1.0503
  878MOL0     H18491   3.239   4.073   1.188 -1.3822  0.2720  1.6902
  878MOL0     H18492   3.371   4.208   0.647  1.4572  1.8763 -1.7584
  878MOL0     H18493   3.473   4.053   0.490 -1.4824  4.1476 -0.4503
  878MOL0     H18494   3.726   3.865   0.330  1.4978  0.4126  0.9096
  878MOL0     H18495   3.613   3.994   0.344 -1.1662  0.1842  0.3260
  878MOL0     H18496   3.783   4.120   0.241 -0.9691  2.9391  1.3876
  878MOL0     H18497   3.826   4.147   0.409 -5.1435  0.9418  1.6102
  878MOL0     H18498   3.986   3.973   0.408 -2.2566  1.1820  0.9279
  878MOL0     H18499   3.941   3.923   0.241  0.3316 -1.3376  0.9267
  878MOL0     H18500   4.086   4.173   0.349 -1.1233 -2.3278  2.1716
  878MOL0     H18501   4.009   4.178   0.186  2.7186  1.2556 -0.6222
  878MOL0     H18502   4.137   3.965   0.140  0.8310  0.8063 -1.6750
  878MOL0     H18503   4.232   4.007   0.291 -1.5272  1.2980  0.8390
  878MOL0     H18504   4.205   4.173   0.031  2.7742 -1.2700 -1.2002
  878MOL0     H18505   4.268   4.236   0.178 -2.8547 -0.7583  2.8347
  878MOL0     H18506   4.364   3.979   0.047 -0.1835 -0.6365 -1.7153
  878MOL0     H18507   4.463   4.056   0.162 -1.2443 -4.0128 -0.9532
  878MOL0     H18508   4.456   4.261  -0.041 -1.8240  0.5136  3.6681
  878MOL0     H18509   4.576   4.133  -0.030 -0.2102 -1.7168  0.9332
  878MOL0     H18510   3.818   4.025   0.750  0.4143  2.8656  1.0569
  878MOL0     H18511   3.699   4.167   0.910  1.5390 -0.9431  0.1957
  878MOL0     H18512   3.299   4.422   0.955  1.7031 -3.9177  0.0189
  878MOL0     H18513   3.116   4.545   1.103  1.6239  0.5065  4.8062
  878MOL0     H18514   1.375   4.751   1.613 -1.1711  0.0269 -0.2770
  878MOL0     H18515   1.184   4.777   1.499  1.1617 -0.4480  0.3388
  878MOL0     H18516   0.902   4.839   1.276 -0.1488 -2.4047  0.1660
  878MOL0     H18517   0.689   4.833   1.208 -4.1076  1.1426 -2.5859
  878MOL0     H18518   0.496   4.881   1.139 -0.6711  1.1366  1.5657
  878MOL0     H18519   0.442   4.790   0.998 -1.3286  2.1450 -3.0230
  878MOL0     H18520   0.368   5.019   0.901 -0.4726 -0.4950  0.0211
  878MOL0     H18521   0.410   5.069   1.072 -1.8136 -0.2699  2.0666
  878MOL0     H18522   0.230   4.897   1.125  1.9120  0.7653  1.6316
  878MOL0     H18523   0.189   4.905   0.945  2.8319 -3.0332 -0.4278
  878MOL0     H18524   0.192   5.151   1.120 -0.2190  3.9143 -1.7765
  878MOL0     H18525   0.125   5.149   0.965 -0.8727 -0.0587 -0.1196
  878MOL0     H18526  -0.211   5.035   1.175  0.1373  3.9730  1.9704
  878MOL0     H18527   0.801   4.972   0.814  0.4062  2.6953  0.6344
  878MOL0     H18528   1.064   5.092   0.852 -0.6579  0.7228  0.1248
  878MOL0     H18529   1.162   4.944   0.868 -0.7417  0.5805 -1.2175
  878MOL0     H18530   1.040   4.945   0.755 -0.6199 -1.4821  0.9946
  879MOL0     O18531   3.613   5.295   2.716 -0.6251 -0.3858  0.0103
  879MOL0     C18532   3.679   5.364   2.794  0.6987 -0.2749  0.2286
  879MOL0     O18533   3.816   5.363   2.807 -0.1112  0.2188 -0.0274
  879MOL0     C18534   3.894   5.279   2.727 -0.1860 -0.6828 -0.1259
  879MOL0     C18535   3.866   5.144   2.703  0.9658 -0.1980 -0.2387
  879MOL0     C18536   3.954   5.055   2.642 -0.2718 -0.1182  0.2229
  879MOL0     C18537   4.076   5.107   2.597 -0.5419 -0.0735 -1.0820
  879MOL0     O18538   4.159   5.035   2.521  0.0975 -0.1296  0.0616
  879MOL0     C18539   4.142   4.890   2.516 -0.0552 -0.0912  0.3431
  879MOL0     C18540   4.257   4.827   2.435 -0.6907 -0.1829  0.1011
  879MOL0     C18541   4.393   4.863   2.494  0.3023  1.0428  0.7512
  879MOL0     C18542   4.521   4.800   2.437  0.6933  0.9828 -0.8409
  879MOL0     C18543   4.654   4.848   2.494 -0.0163  0.5170  0.3812
  879MOL0     C18544   4.679   4.799   2.633 -0.4994  0.5845  0.3823
  879MOL0     C18545   4.783   4.865   2.715  0.1515  0.3285  0.4321
  879MOL0     C18546   4.930   4.844   2.685 -0.4169 -0.5440 -0.2344
  879MOL0     N18547   4.985   4.718   2.718  1.5326 -0.0559 -0.3610
  879MOL0     C18548   4.995   4.661   2.848 -0.6674 -1.0921 -0.4404
  879MOL0     C18549   5.026   4.527   2.829 -0.1223 -0.4872  0.2291
  879MOL0     C18550   5.058   4.411   2.924 -0.0067  0.4680 -0.0272
  879MOL0     C18551   4.928   4.324   2.963 -1.4426 -1.0842  0.6351
  879MOL0     C18552   4.936   4.244   3.092 -0.3475 -0.4545 -0.9250
  879MOL0     C18553   5.013   4.109   3.076 -0.0371 -1.4091 -0.1420
  879MOL0     O18554   4.995   4.035   3.195 -0.6437  0.3952  0.3390
  879MOL0     C18555   5.038   3.904   3.184  0.2576 -0.2244  0.0308
  879MOL0     C18556   5.146   3.855   3.109 -0.9566  0.0327 -0.2361
  879MOL0     C18557   5.175   3.714   3.105 -0.4916  0.5023 -0.6622
  879MOL0     C18558   5.098   3.628   3.182 -0.2205  1.0176 -0.1903
  879MOL0     C18559   5.138   3.479   3.197 -0.1178  0.2727  0.2295
  879MOL0     O18560   5.102   3.418   3.317  0.0849 -0.0024 -0.7891
  879MOL0     C18561   5.136   3.284   3.336  0.6209 -0.7873  0.0784
  879MOL0     C18562   5.247   3.239   3.411  0.0915 -0.2036  0.2897
  879MOL0     C18563   5.266   3.099   3.429  0.0462  0.2494  0.3641
  879MOL0     C18564   5.167   3.002   3.389 -0.5218  0.6072 -0.1533
  879MOL0     O18565   5.177   2.871   3.411  0.0769  0.3345 -0.6450
  879MOL0     C18566   5.294   2.819   3.477  0.4812  0.4401  0.0805
  879MOL0     C18567   5.308   2.666   3.478 -0.3507  0.3968 -0.6102
  879MOL0     C18568   5.196   2.590   3.555 -0.5486  0.3148 -0.9278
  879MOL0     C18569   5.209   2.613   3.712 -0.7760  0.2411  1.6632
  879MOL0     C18570   5.141   2.732   3.776  0.6483 -0.3498 -0.3250
  879MOL0     C18571   5.095   2.688   3.923  0.4259  1.0582 -0.5331
  879MOL0     C18572   5.044   2.809   4.002 -0.1181  0.2191  0.0334
  879MOL0     C18573   4.976   2.773   4.129  0.1391  0.3808 -0.1562
  879MOL0    Cl18574   5.085   2.672   4.234  0.0513 -0.4662 -0.0908
  879MOL0     C18575   5.052   3.046   3.331  0.6519 -0.2564 -0.1953
  879MOL0     C18576   5.042   3.186   3.306  0.1360 -0.0948  0.1363
  879MOL0     O18577   5.193   3.419   3.101  0.4818 -0.7731 -0.1561
  879MOL0     C18578   4.983   3.680   3.251  0.1540  0.6831  0.2390
  879MOL0     C18579   4.961   3.814   3.253  0.7520  0.3223 -0.4065
  879MOL0     N18580   5.024   4.509   2.687 -0.2651 -0.0521  0.1834
  879MOL0     N18581   5.013   4.622   2.630  0.3697  0.1736  0.9224
  879MOL0     C18582   4.108   5.237   2.614 -0.0269 -0.2289 -1.3318
  879MOL0     C18583   4.018   5.323   2.678 -0.0427 -0.6142  0.7751
  879MOL0     C18584   3.608   5.466   2.880  0.6528 -0.1745 -0.1136
  879MOL0     C18585   3.672   5.522   2.994  0.9132  0.6077  1.1530
  879MOL0     C18586   3.609   5.610   3.086 -0.7941 -0.7545 -0.4718
  879MOL0     C18587   3.475   5.647   3.068  1.3913 -0.2309 -0.1602
  879MOL0     O18588   3.393   5.736   3.142  1.1490  0.1369  0.6319
  879MOL0     C18589   3.460   5.855   3.191  0.1805  0.0173 -0.1604
  879MOL0     C18590   3.502   5.942   3.065 -0.4951 -1.1303 -0.2213
  879MOL0     C18591   3.385   5.997   2.981 -0.6145 -0.3689  0.4451
  879MOL0     C18592   3.435   6.075   2.860  0.2674 -1.0368 -0.8613
  879MOL0     C18593   3.503   6.202   2.905 -0.0468 -0.1377 -0.2199
  879MOL0     C18594   3.560   6.290   2.959 -0.2752 -0.3243 -0.1082
  879MOL0     C18595   3.401   5.590   2.954 -0.2566 -0.6574 -1.1423
  879MOL0     C18596   3.463   5.496   2.867 -0.2652  0.5417 -0.5615
  879MOL0     C18597   3.383   5.453   2.762 -0.6571  0.1786  0.6348
  879MOL0     H18598   3.771   5.104   2.736  0.9877  0.1418  0.2492
  879MOL0     H18599   3.926   4.951   2.625 -3.5619  0.6077  0.5752
  879MOL0     H18600   4.147   4.848   2.617  2.2090 -1.7668 -0.3963
  879MOL0     H18601   4.046   4.870   2.469  2.0576  0.8553 -5.0919
  879MOL0     H18602   4.256   4.865   2.333 -1.5269  3.3372  1.2944
  879MOL0     H18603   4.247   4.718   2.424  1.0924 -0.1634 -3.0466
  879MOL0     H18604   4.395   4.839   2.600 -4.2828  1.8329  1.1996
  879MOL0     H18605   4.411   4.970   2.479  0.3131  0.9642  0.1773
  879MOL0     H18606   4.513   4.693   2.459  0.4931  0.8201 -1.6952
  879MOL0     H18607   4.523   4.815   2.329 -1.2854  0.3559 -0.9958
  879MOL0     H18608   4.737   4.811   2.433 -1.1125  0.3280 -1.0652
  879MOL0     H18609   4.655   4.957   2.503  1.2472  0.3927  2.2445
  879MOL0     H18610   4.590   4.798   2.697 -0.9721 -1.7184 -0.2227
  879MOL0     H18611   4.703   4.694   2.613 -2.7598  0.0917  0.0030
  879MOL0     H18612   4.780   4.825   2.817  1.2181  1.3520  0.8874
  879MOL0     H18613   4.767   4.973   2.711  4.3062  1.0551 -1.0657
  879MOL0     H18614   4.949   4.854   2.578 -0.8092  2.0487 -0.1105
  879MOL0     H18615   4.988   4.926   2.727 -1.0884 -0.4990  0.6334
  879MOL0     H18616   4.996   4.712   2.943  2.0648 -0.1819 -0.8499
  879MOL0     H18617   5.134   4.355   2.869 -2.1645 -0.7556 -1.9345
  879MOL0     H18618   5.099   4.438   3.022  2.5390 -3.5205  0.2356
  879MOL0     H18619   4.843   4.393   2.970  0.6653  2.3609 -3.2674
  879MOL0     H18620   4.905   4.260   2.877 -3.2656 -0.1195  0.3494
  879MOL0     H18621   4.832   4.231   3.125  0.3586 -0.1163  1.7116
  879MOL0     H18622   4.984   4.307   3.168 -2.1505 -2.8017  2.4421
  879MOL0     H18623   5.118   4.131   3.055 -0.5302 -1.5579 -3.2262
  879MOL0     H18624   4.975   4.057   2.988 -0.2989  1.0794 -1.5682
  879MOL0     H18625   5.211   3.927   3.061 -0.9876  0.5715  0.5001
  879MOL0     H18626   5.250   3.675   3.037 -1.5170 -0.5902 -1.2008
  879MOL0     H18627   5.321   3.306   3.456 -0.9592  0.1450  1.5802
  879MOL0     H18628   5.350   3.064   3.488 -0.0493 -0.1272  0.2815
  879MOL0     H18629   5.389   2.867   3.452  0.6750  0.1176  0.1957
  879MOL0     H18630   5.273   2.842   3.582 -1.7829 -2.4352  0.3705
  879MOL0     H18631   5.302   2.639   3.372 -2.4071  1.0063 -0.6883
  879MOL0     H18632   5.402   2.638   3.528  0.7856  2.4902 -1.4552
  879MOL0     H18633   5.104   2.634   3.515 -0.1169  0.2298 -2.0545
  879MOL0     H18634   5.204   2.482   3.538 -1.0148  0.0444  0.4658
  879MOL0     H18635   5.315   2.606   3.738 -0.0573  4.4892  0.7118
  879MOL0     H18636   5.154   2.524   3.743 -2.2928  0.3288 -0.5580
  879MOL0     H18637   5.049   2.764   3.726  0.5674 -1.3048 -0.8261
  879MOL0     H18638   5.214   2.812   3.788  2.1003 -1.8100  1.0700
  879MOL0     H18639   5.014   2.614   3.922  0.0087  1.5130 -0.6961
  879MOL0     H18640   5.187   2.655   3.971 -0.5525  0.3031  0.9298
  879MOL0     H18641   4.969   2.859   3.939 -1.9321 -0.0682  1.8733
  879MOL0     H18642   5.122   2.881   4.028  0.0703  0.7978 -1.9410
  879MOL0     H18643   4.946   2.861   4.186 -2.6933 -0.6239  0.0312
  879MOL0     H18644   4.887   2.717   4.098  0.2568 -2.0389  3.2903
  879MOL0     H18645   4.974   2.972   3.319  1.7449 -1.2481 -1.5027
  879MOL0     H18646   4.944   3.207   3.266 -0.3065 -0.9995  0.7231
  879MOL0     H18647   4.917   3.624   3.315 -0.3260  0.3927 -0.4911
  879MOL0     H18648   4.879   3.846   3.315 -0.2558  2.0236 -2.4806
  879MOL0     H18649   4.200   5.274   2.570 -0.1991 -0.0257 -1.5234
  879MOL0     H18650   4.060   5.422   2.690  2.2252 -1.3130 -0.8378
  879MOL0     H18651   3.773   5.486   3.010 -0.3085 -4.4649 -0.6215
  879MOL0     H18652   3.672   5.648   3.166  4.6422 -1.1296 -4.0197
  879MOL0     H18653   3.544   5.821   3.253 -0.6542 -2.9863 -0.5366
  879MOL0     H18654   3.398   5.916   3.258  2.6069  2.2160  0.2545
  879MOL0     H18655   3.567   5.886   2.998  1.0089  1.2022 -0.8331
  879MOL0     H18656   3.570   6.023   3.092  0.0434 -1.4843 -0.5165
  879MOL0     H18657   3.326   6.062   3.046 -2.4420 -4.7159  3.5955
  879MOL0     H18658   3.314   5.917   2.957  0.2916 -1.6903  2.0269
  879MOL0     H18659   3.496   6.032   2.781 -0.1611 -1.0137 -1.2126
  879MOL0     H18660   3.341   6.100   2.809 -1.9595 -4.3473  1.1825
  879MOL0     H18661   3.615   6.357   3.022  4.7332 -3.8645 -0.1064
  879MOL0     H18662   3.296   5.615   2.947  0.3925  3.2712  0.3918
  879MOL0     H18663   3.436   5.456   2.667 -0.4724 -2.6735  0.5533
  879MOL0     H18664   3.359   5.349   2.789  0.6471  0.2688  2.3134
  879MOL0     H18665   3.296   5.519   2.751  0.1502  1.4114  1.3419
  880MOL0     O18666   7.543   9.279   2.782  0.2401 -0.0764  0.3964
  880MOL0     C18667   7.561   9.355   2.875  0.4822 -0.3212  0.3771
  880MOL0     O18668   7.669   9.426   2.905 -0.3240 -0.0008  0.2840
  880MOL0     C18669   7.784   9.399   2.841 -0.0301  0.3503  0.7942
  880MOL0     C18670   7.873   9.288   2.891  0.1093  0.1818  0.8183
  880MOL0     C18671   7.979   9.257   2.804  0.2850 -0.1830  0.4252
  880MOL0     C18672   8.010   9.323   2.683  0.1451 -0.7381  0.7566
  880MOL0     O18673   8.114   9.288   2.607  0.0692  0.3316 -0.5587
  880MOL0     C18674   8.238   9.325   2.674 -0.0414  0.2914 -0.0174
  880MOL0     C18675   8.338   9.208   2.675 -0.4897  0.3888 -0.9239
  880MOL0     C18676   8.448   9.218   2.788 -0.4337  0.0273  0.2680
  880MOL0     C18677   8.550   9.103   2.791  0.4793 -0.7136  0.0826
  880MOL0     C18678   8.654   9.126   2.911  0.5570  0.1634  1.2797
  880MOL0     C18679   8.596   9.113   3.051 -0.4829  0.5805 -0.4876
  880MOL0     C18680   8.544   8.977   3.092  0.1683 -0.0908  0.2212
  880MOL0     C18681   8.663   8.881   3.100 -0.1330  0.5580 -0.4381
  880MOL0     N18682   8.638   8.779   3.206  0.7212 -0.2063  0.0122
  880MOL0     C18683   8.694   8.772   3.333  0.4292 -0.9269 -0.7126
  880MOL0     C18684   8.643   8.661   3.384 -0.7875  0.4000  0.1728
  880MOL0     C18685   8.664   8.597   3.519 -0.2271 -0.3164 -0.1732
  880MOL0     C18686   8.750   8.472   3.508  0.9385 -0.1297  0.0351
  880MOL0     C18687   8.785   8.423   3.653 -0.7004  0.1744  0.7216
  880MOL0     C18688   8.680   8.414   3.757  0.9064  0.0672 -0.1687
  880MOL0     O18689   8.721   8.347   3.869 -0.5045 -0.2317  0.4817
  880MOL0     C18690   8.689   8.220   3.899 -0.2828  0.2638 -0.0018
  880MOL0     C18691   8.759   8.172   4.013 -0.5299  0.0210  0.7758
  880MOL0     C18692   8.733   8.039   4.048  1.3511  0.5441 -1.5238
  880MOL0     C18693   8.641   7.958   3.979  0.9063 -0.2159 -0.1193
  880MOL0     C18694   8.616   7.821   4.014  0.7983  0.2362  1.1168
  880MOL0     O18695   8.584   7.796   4.145 -0.1630 -0.1146 -0.1281
  880MOL0     C18696   8.580   7.670   4.178  0.1239  0.2724 -0.0757
  880MOL0     C18697   8.689   7.579   4.177  0.0546  0.1868 -0.1119
  880MOL0     C18698   8.668   7.448   4.220 -0.2708  0.3790  0.5396
  880MOL0     C18699   8.540   7.405   4.265  1.0209  0.1370 -0.5549
  880MOL0     O18700   8.519   7.273   4.302 -0.1164 -0.6291 -0.4112
  880MOL0     C18701   8.416   7.243   4.408  0.5305 -0.0992 -0.3652
  880MOL0     C18702   8.400   7.090   4.433 -0.8968 -0.1025  0.3732
  880MOL0     C18703   8.323   7.028   4.315 -0.1397  0.2253  1.1940
  880MOL0     C18704   8.346   6.875   4.310  0.0282  0.5634 -0.4245
  880MOL0     C18705   8.255   6.806   4.202  0.0578 -0.5598 -0.2933
  880MOL0     C18706   8.275   6.658   4.201  0.3313  0.7842  0.2299
  880MOL0     C18707   8.203   6.587   4.081 -0.1079  0.1390  0.0374
  880MOL0     C18708   8.263   6.448   4.040  0.4853  0.2238  0.3225
  880MOL0    Cl18709   8.284   6.343   4.192 -0.0381  0.0982  0.2589
  880MOL0     C18710   8.430   7.493   4.259 -0.0811  0.1840  0.0104
  880MOL0     C18711   8.450   7.621   4.214  0.4761  0.8699  0.6973
  880MOL0     O18712   8.640   7.738   3.927  0.7163  0.2723 -0.2494
  880MOL0     C18713   8.574   8.015   3.870 -0.1076  0.5355 -0.3703
  880MOL0     C18714   8.587   8.146   3.830  0.4609 -0.1928 -0.2428
  880MOL0     N18715   8.566   8.597   3.291 -0.9197 -0.8807  0.5155
  880MOL0     N18716   8.564   8.670   3.187  0.2586  0.1741 -0.0464
  880MOL0     C18717   7.929   9.424   2.646  0.0634 -0.0931  0.6322
  880MOL0     C18718   7.811   9.470   2.721 -0.2404  0.7801 -0.2896
  880MOL0     C18719   7.436   9.384   2.953 -0.3108  1.0742 -0.1515
  880MOL0     C18720   7.403   9.515   2.976  0.0262 -0.4617  0.1236
  880MOL0     C18721   7.284   9.548   3.036  0.3636 -0.2705 -0.0893
  880MOL0     C18722   7.195   9.445   3.083 -0.2278 -0.5134  0.6838
  880MOL0     O18723   7.092   9.465   3.172  0.0258  0.0452 -0.0146
  880MOL0     C18724   6.984   9.561   3.143 -0.3958  0.4919 -0.0623
  880MOL0     C18725   6.889   9.538   3.260 -0.4553  0.1502  0.1525
  880MOL0     C18726   6.762   9.623   3.256  0.4196  0.2112 -0.0955
  880MOL0     C18727   6.696   9.610   3.394  0.9102 -1.3714 -0.7453
  880MOL0     C18728   6.578   9.694   3.388  1.1790 -0.1479 -0.1177
  880MOL0     C18729   6.493   9.773   3.396  0.2341 -0.2607 -0.4388
  880MOL0     C18730   7.219   9.312   3.045 -0.6100 -0.1480 -0.0531
  880MOL0     C18731   7.337   9.284   2.978 -0.0104  0.4426  0.7403
  880MOL0     C18732   7.350   9.130   2.950 -0.4075  0.3019 -0.6055
  880MOL0     H18733   7.854   9.242   2.987  2.3046  0.3304  1.3617
  880MOL0     H18734   8.061   9.196   2.841  0.8336  0.5468  0.4278
  880MOL0     H18735   8.283   9.406   2.617 -1.2919 -0.0544 -1.5438
  880MOL0     H18736   8.213   9.364   2.773  0.8025  1.1472 -0.1242
  880MOL0     H18737   8.372   9.199   2.571 -1.2090 -2.1738 -1.0093
  880MOL0     H18738   8.285   9.116   2.700  3.2264 -1.2975  1.7241
  880MOL0     H18739   8.398   9.219   2.886 -1.3686 -1.5509 -0.1639
  880MOL0     H18740   8.498   9.314   2.770  0.3928 -0.1082  1.6930
  880MOL0     H18741   8.495   9.011   2.811 -0.3129 -0.0519  1.0767
  880MOL0     H18742   8.609   9.109   2.699  0.6750 -1.3196  0.1618
  880MOL0     H18743   8.734   9.054   2.897 -1.8864 -2.4088 -0.6676
  880MOL0     H18744   8.694   9.225   2.885  2.5677 -1.2525 -1.6196
  880MOL0     H18745   8.677   9.150   3.116 -0.6730  1.4099 -0.7092
  880MOL0     H18746   8.516   9.186   3.066  0.2955  1.3037  0.3150
  880MOL0     H18747   8.483   8.944   3.008  1.0899  0.3874 -0.6483
  880MOL0     H18748   8.492   9.001   3.186  2.5885  2.2183  1.1075
  880MOL0     H18749   8.682   8.833   3.004 -0.5321  1.3461 -0.9276
  880MOL0     H18750   8.750   8.940   3.132 -1.0596  0.5615  2.3088
  880MOL0     H18751   8.756   8.838   3.393 -0.6301 -0.3970 -0.1691
  880MOL0     H18752   8.705   8.670   3.589 -1.4246  1.6089 -1.3968
  880MOL0     H18753   8.564   8.566   3.553 -0.2087  0.7516  0.9117
  880MOL0     H18754   8.682   8.397   3.466  0.8282  0.7908 -1.5008
  880MOL0     H18755   8.841   8.478   3.447  0.3149  0.1914 -0.8905
  880MOL0     H18756   8.869   8.477   3.698 -2.5151  1.9535  2.1542
  880MOL0     H18757   8.826   8.323   3.634  0.7241  0.6770  1.0208
  880MOL0     H18758   8.582   8.380   3.723  1.7576 -1.5122 -1.1174
  880MOL0     H18759   8.659   8.517   3.788 -0.8540 -0.3640  0.2151
  880MOL0     H18760   8.835   8.239   4.051 -1.2198  1.1739  0.1831
  880MOL0     H18761   8.789   7.987   4.124  0.9024 -0.2221 -1.7035
  880MOL0     H18762   8.784   7.606   4.130 -0.3202  0.9500 -0.4413
  880MOL0     H18763   8.753   7.381   4.227 -1.7708 -1.7094 -0.2268
  880MOL0     H18764   8.458   7.302   4.490  1.7448 -0.0711 -0.9808
  880MOL0     H18765   8.315   7.281   4.392 -0.8661 -1.5064  3.7541
  880MOL0     H18766   8.502   7.050   4.440  0.2773  2.0758 -2.2375
  880MOL0     H18767   8.351   7.059   4.525  1.0752  1.5363  2.0919
  880MOL0     H18768   8.216   7.044   4.324 -0.1237  0.3021  1.2410
  880MOL0     H18769   8.350   7.079   4.223 -1.8972  0.2205  0.6601
  880MOL0     H18770   8.340   6.842   4.414  1.8161  2.1895  0.2596
  880MOL0     H18771   8.447   6.851   4.278  0.7836  2.9615 -0.0749
  880MOL0     H18772   8.284   6.855   4.109 -0.7261  4.1236  1.6672
  880MOL0     H18773   8.152   6.840   4.214  0.6105  2.2616 -2.3795
  880MOL0     H18774   8.383   6.644   4.190  0.1020 -1.7328  0.7022
  880MOL0     H18775   8.243   6.622   4.299 -0.3121  1.3368  0.2299
  880MOL0     H18776   8.214   6.653   3.995  1.9387 -1.0712 -0.7157
  880MOL0     H18777   8.095   6.576   4.098  0.0512 -3.1966 -0.4130
  880MOL0     H18778   8.215   6.407   3.951 -2.3256  1.3120  1.2052
  880MOL0     H18779   8.364   6.464   4.001  0.6216 -1.7247 -0.2073
  880MOL0     H18780   8.333   7.452   4.287 -0.6226 -1.1020 -3.3201
  880MOL0     H18781   8.371   7.695   4.217 -1.0774 -0.5962 -1.3536
  880MOL0     H18782   8.503   7.953   3.816 -1.0549  0.6002  0.7839
  880MOL0     H18783   8.517   8.186   3.757  0.7258 -0.0947 -0.4433
  880MOL0     H18784   7.950   9.472   2.551  1.8258 -0.9669  0.5372
  880MOL0     H18785   7.752   9.547   2.672  0.5441  0.1830 -2.2415
  880MOL0     H18786   7.471   9.591   2.941 -0.1564 -0.6802 -0.7085
  880MOL0     H18787   7.246   9.650   3.044 -0.4544 -0.6144  0.4728
  880MOL0     H18788   6.932   9.533   3.051 -1.8373 -0.3822  0.9742
  880MOL0     H18789   7.017   9.665   3.138 -1.3891  0.7769 -1.3694
  880MOL0     H18790   6.945   9.575   3.347  0.7160  0.8027 -0.8571
  880MOL0     H18791   6.871   9.431   3.275  1.9206 -0.3209 -0.0503
  880MOL0     H18792   6.703   9.575   3.176  2.1267  0.4888 -1.5883
  880MOL0     H18793   6.775   9.726   3.223  0.5668 -0.3343 -1.8373
  880MOL0     H18794   6.656   9.514   3.429  1.1872 -0.7883  1.3032
  880MOL0     H18795   6.769   9.648   3.466  0.2638  2.0078 -1.7102
  880MOL0     H18796   6.412   9.843   3.396  0.1613 -0.3466 -1.1403
  880MOL0     H18797   7.153   9.239   3.089  1.9644 -1.7980  1.2956
  880MOL0     H18798   7.446   9.082   2.974 -1.5502 -1.5882  0.4086
  880MOL0     H18799   7.284   9.082   3.022  2.7140 -3.7711 -0.0798
  880MOL0     H18800   7.326   9.106   2.846  1.8804 -1.2246 -0.8549
  881MOL0     O18801   4.114   5.770   8.636 -0.7925  0.1898  0.2084
  881MOL0     C18802   4.032   5.771   8.717 -0.2685 -0.1532 -0.9731
  881MOL0     O18803   3.919   5.695   8.712 -0.0263 -0.4942 -0.4395
  881MOL0     C18804   3.887   5.607   8.617  0.6786  0.0131 -0.0276
  881MOL0     C18805   3.967   5.544   8.521  0.5634 -0.0741  0.1425
  881MOL0     C18806   3.920   5.462   8.419  0.4542 -0.0619  0.0326
  881MOL0     C18807   3.783   5.426   8.416 -0.8821 -0.7619  0.8377
  881MOL0     O18808   3.738   5.340   8.318  0.1220 -0.3294  0.4008
  881MOL0     C18809   3.603   5.290   8.314 -1.2047 -0.1203  0.6635
  881MOL0     C18810   3.563   5.231   8.178 -0.0572  0.0061 -0.0293
  881MOL0     C18811   3.576   5.337   8.061 -0.2467 -0.4012  0.6193
  881MOL0     C18812   3.518   5.288   7.924 -0.9804  0.2143  0.3668
  881MOL0     C18813   3.531   5.401   7.827 -0.1005 -1.0457 -0.2043
  881MOL0     C18814   3.672   5.428   7.774  0.4011 -0.5285 -0.4584
  881MOL0     C18815   3.720   5.322   7.677  0.4948 -0.6063 -0.7155
  881MOL0     C18816   3.864   5.341   7.626  1.3024  0.9166  0.0022
  881MOL0     N18817   3.906   5.233   7.533 -0.0804  0.3296  0.9385
  881MOL0     C18818   3.922   5.100   7.566  1.1116 -0.2578  0.7324
  881MOL0     C18819   3.960   5.040   7.453  0.2992  0.0222 -0.5534
  881MOL0     C18820   3.995   4.898   7.423  0.0050  0.1950 -0.1812
  881MOL0     C18821   4.128   4.895   7.337  0.5868 -0.1024 -0.1430
  881MOL0     C18822   4.165   4.764   7.277 -0.1655 -0.3409  0.3598
  881MOL0     C18823   4.266   4.773   7.157 -0.1032 -0.2520 -0.0092
  881MOL0     O18824   4.326   4.646   7.146  0.0286  0.7165  0.6335
  881MOL0     C18825   4.453   4.640   7.092 -0.2180  0.1683  0.3204
  881MOL0     C18826   4.498   4.729   6.992 -0.4351 -0.2406 -0.1028
  881MOL0     C18827   4.629   4.732   6.950  0.1793 -0.2484  0.8620
  881MOL0     C18828   4.728   4.640   6.999  0.5750 -0.6560 -0.3328
  881MOL0     C18829   4.865   4.629   6.966 -0.6338  0.4010  0.3681
  881MOL0     O18830   4.908   4.727   6.884  0.0113 -0.6062  0.5244
  881MOL0     C18831   5.017   4.719   6.807  0.9392  0.2011  1.0394
  881MOL0     C18832   5.149   4.681   6.863  1.2254 -0.8766 -0.3675
  881MOL0     C18833   5.258   4.690   6.778 -0.1471  0.0456  0.1603
  881MOL0     C18834   5.241   4.717   6.640 -0.6017 -0.0470  0.1392
  881MOL0     O18835   5.348   4.713   6.553 -0.2766  0.4852  0.5744
  881MOL0     C18836   5.460   4.614   6.586  1.4790  0.2709  0.3918
  881MOL0     C18837   5.404   4.468   6.586  0.5653 -0.5373 -0.4757
  881MOL0     C18838   5.334   4.412   6.455 -0.4409 -1.3405 -0.0458
  881MOL0     C18839   5.429   4.419   6.338  0.0566 -0.4270 -0.7202
  881MOL0     C18840   5.370   4.378   6.202  0.6203 -0.4462 -0.1150
  881MOL0     C18841   5.271   4.487   6.146 -0.3093 -0.4624 -0.1634
  881MOL0     C18842   5.227   4.447   6.014 -0.3728  1.4454  0.0922
  881MOL0     C18843   5.123   4.541   5.946  0.4743  0.9489 -0.4473
  881MOL0    Cl18844   5.117   4.489   5.786  0.1387 -0.3594  0.3092
  881MOL0     C18845   5.112   4.733   6.586 -0.0373 -0.6874  0.5103
  881MOL0     C18846   4.995   4.748   6.666 -0.0907 -0.3326 -0.1414
  881MOL0     O18847   4.925   4.527   6.994  0.5503  0.0630  0.1440
  881MOL0     C18848   4.683   4.554   7.097  0.0963 -0.2818 -0.6303
  881MOL0     C18849   4.549   4.543   7.131 -0.4354 -0.3891  0.6746
  881MOL0     N18850   3.966   5.132   7.347 -0.9905  0.1047  0.0114
  881MOL0     N18851   3.947   5.248   7.402 -0.0296  0.2650  0.0099
  881MOL0     C18852   3.706   5.478   8.521  0.5501  0.4004  1.0969
  881MOL0     C18853   3.754   5.565   8.618 -0.7800 -0.5074 -1.2634
  881MOL0     C18854   4.032   5.874   8.834 -0.0419 -0.8820  0.0448
  881MOL0     C18855   3.920   5.885   8.926  0.0927 -0.1798 -0.5206
  881MOL0     C18856   3.931   5.978   9.034  0.3189  0.0873 -0.2309
  881MOL0     C18857   4.037   6.057   9.049 -0.3394 -0.4615 -1.2432
  881MOL0     O18858   4.054   6.137   9.163  0.1472 -1.1664 -0.2883
  881MOL0     C18859   4.016   6.093   9.292 -0.0210  0.9431 -0.4405
  881MOL0     C18860   4.110   6.154   9.408 -0.3921 -0.1223  0.8411
  881MOL0     C18861   4.256   6.092   9.406  0.2535 -0.1053  0.3588
  881MOL0     C18862   4.367   6.198   9.441  0.5240 -0.4558 -0.2173
  881MOL0     C18863   4.420   6.278   9.329 -0.4687  0.1773  0.2158
  881MOL0     C18864   4.495   6.343   9.249  0.0517 -0.3583 -0.6883
  881MOL0     C18865   4.142   6.057   8.961 -0.7937  0.4657 -0.5966
  881MOL0     C18866   4.144   5.967   8.853  0.3020  0.0700  0.5096
  881MOL0     C18867   4.254   5.988   8.755 -0.1853 -0.1650 -0.3133
  881MOL0     H18868   4.073   5.559   8.511  0.5189  0.8495  0.9464
  881MOL0     H18869   3.981   5.410   8.345 -0.1528  0.3315 -0.7628
  881MOL0     H18870   3.573   5.213   8.386 -3.4537 -2.9140 -2.8938
  881MOL0     H18871   3.535   5.373   8.334  0.3893  1.4664 -0.2287
  881MOL0     H18872   3.459   5.198   8.190  1.1521 -4.8378 -0.8210
  881MOL0     H18873   3.637   5.153   8.159 -0.0761 -0.5283  1.8541
  881MOL0     H18874   3.682   5.355   8.040 -0.7621 -1.6895 -4.0358
  881MOL0     H18875   3.528   5.433   8.084  0.0839 -0.1664  0.3362
  881MOL0     H18876   3.569   5.198   7.889 -0.2017  1.4984 -1.9806
  881MOL0     H18877   3.412   5.267   7.940 -1.5723  2.5878 -0.0022
  881MOL0     H18878   3.469   5.378   7.740 -0.3842 -0.4840 -0.1548
  881MOL0     H18879   3.507   5.500   7.867  1.0625 -0.1636 -1.5976
  881MOL0     H18880   3.674   5.522   7.718  5.1371  0.2287  0.5107
  881MOL0     H18881   3.738   5.438   7.861 -1.5830 -1.9653  1.3226
  881MOL0     H18882   3.656   5.334   7.589  1.0044 -1.7016 -1.2491
  881MOL0     H18883   3.704   5.222   7.719 -1.4876  1.1931  3.4042
  881MOL0     H18884   3.878   5.439   7.580  2.1257  2.1433  2.6398
  881MOL0     H18885   3.928   5.347   7.715 -2.3252 -0.0106  2.8947
  881MOL0     H18886   3.913   5.035   7.653 -1.5658 -2.4880 -1.0585
  881MOL0     H18887   4.011   4.824   7.501  1.7878 -0.0117 -0.7083
  881MOL0     H18888   3.909   4.855   7.369 -1.5847 -0.5974  2.7773
  881MOL0     H18889   4.117   4.968   7.256  2.2875  0.8498  0.4370
  881MOL0     H18890   4.207   4.930   7.404 -0.7374  0.2376  1.2928
  881MOL0     H18891   4.074   4.706   7.258 -0.0445 -0.4577  0.1385
  881MOL0     H18892   4.224   4.706   7.348  0.4789 -0.5434 -0.3348
  881MOL0     H18893   4.333   4.858   7.174 -0.0448 -0.3048  0.0231
  881MOL0     H18894   4.219   4.801   7.062 -0.9191  1.9345  0.9611
  881MOL0     H18895   4.443   4.816   6.958 -1.0461 -0.3321  0.6249
  881MOL0     H18896   4.643   4.801   6.867 -0.7661 -0.1988  0.7303
  881MOL0     H18897   5.147   4.684   6.972 -1.5180 -3.3305 -0.2185
  881MOL0     H18898   5.346   4.664   6.836 -1.2610 -0.5565  1.6532
  881MOL0     H18899   5.540   4.620   6.513 -0.2699 -1.6519 -1.8270
  881MOL0     H18900   5.496   4.633   6.688  1.0383 -1.4742  0.9195
  881MOL0     H18901   5.491   4.409   6.613 -1.5682 -3.6999 -0.0189
  881MOL0     H18902   5.328   4.454   6.663  1.0416 -0.5489 -0.0021
  881MOL0     H18903   5.318   4.304   6.456  0.4762 -1.4892  0.0925
  881MOL0     H18904   5.246   4.473   6.434  1.6001  2.1024  0.5811
  881MOL0     H18905   5.505   4.344   6.359  1.8633  1.2533 -0.9659
  881MOL0     H18906   5.469   4.521   6.343  1.4635 -1.0197  0.9918
  881MOL0     H18907   5.317   4.285   6.229  2.7080 -1.6044  0.2105
  881MOL0     H18908   5.444   4.355   6.126 -0.8063  0.1518 -1.7466
  881MOL0     H18909   5.184   4.497   6.212  0.4183 -2.8632  1.3226
  881MOL0     H18910   5.324   4.581   6.130 -1.6794 -0.1743 -3.8013
  881MOL0     H18911   5.186   4.346   6.026  0.8121  1.1175  1.6527
  881MOL0     H18912   5.317   4.425   5.958 -1.3195 -1.3422 -0.4954
  881MOL0     H18913   5.024   4.542   5.993 -0.1430 -0.0791 -1.6671
  881MOL0     H18914   5.151   4.647   5.943  2.2478  0.5264 -4.2200
  881MOL0     H18915   5.096   4.741   6.478  4.1132  1.5621 -0.1313
  881MOL0     H18916   4.898   4.759   6.620  1.5814  2.7390 -3.4623
  881MOL0     H18917   4.743   4.492   7.163  0.6239  0.8457 -0.0046
  881MOL0     H18918   4.510   4.481   7.211 -1.6413  1.0032  1.2134
  881MOL0     H18919   3.602   5.448   8.530  1.0359 -1.3053  1.3445
  881MOL0     H18920   3.690   5.591   8.702  1.1607  1.2529 -0.2507
  881MOL0     H18921   3.819   5.844   8.929 -0.1752  0.5334  1.2486
  881MOL0     H18922   3.846   5.991   9.100 -0.5109  0.3042 -1.3072
  881MOL0     H18923   4.022   5.984   9.297  0.2924  0.9535 -0.5637
  881MOL0     H18924   3.916   6.129   9.315  0.1106 -0.1844  2.1937
  881MOL0     H18925   4.064   6.133   9.505 -0.4594 -0.3751  0.7559
  881MOL0     H18926   4.102   6.263   9.403 -0.3530 -0.1679 -0.7457
  881MOL0     H18927   4.272   6.048   9.307  0.8629  4.0516 -1.5718
  881MOL0     H18928   4.253   6.007   9.475 -0.1812 -0.8431 -0.5473
  881MOL0     H18929   4.317   6.257   9.519 -1.4925 -0.4729 -1.4341
  881MOL0     H18930   4.460   6.155   9.478  0.0778 -1.8553 -0.6638
  881MOL0     H18931   4.547   6.408   9.180  4.2190 -0.4611  2.0054
  881MOL0     H18932   4.219   6.133   8.964 -1.0101  0.7212 -1.2775
  881MOL0     H18933   4.323   6.069   8.780 -0.1386 -0.0989 -0.6517
  881MOL0     H18934   4.308   5.894   8.740  1.0936  0.9105 -3.4188
  881MOL0     H18935   4.216   6.026   8.660  2.4180  1.0166 -0.9736
  882MOL0     O18936   4.747  10.417   5.656 -0.8936 -1.0776  0.5669
  882MOL0     C18937   4.673  10.332   5.685 -0.0063  0.4869 -0.1616
  882MOL0     O18938   4.701  10.242   5.788 -0.1110 -1.0682  0.5131
  882MOL0     C18939   4.817  10.177   5.790 -0.5046  0.4066 -0.4071
  882MOL0     C18940   4.912  10.188   5.678  0.2115  0.0357  0.0481
  882MOL0     C18941   5.033  10.127   5.690  0.7902 -0.4242  1.1037
  882MOL0     C18942   5.066  10.044   5.797  0.0221 -0.2985  0.2314
  882MOL0     O18943   5.175   9.973   5.825  0.0197  0.0936 -0.0837
  882MOL0     C18944   5.287   9.972   5.731  0.4490  1.1346 -0.4004
  882MOL0     C18945   5.274   9.860   5.627  1.0876 -1.3679  0.1243
  882MOL0     C18946   5.266   9.721   5.702  0.5013  0.1093 -0.2909
  882MOL0     C18947   5.266   9.592   5.616  0.9232 -0.1314 -0.9289
  882MOL0     C18948   5.252   9.468   5.703  0.5325 -0.2171  0.4687
  882MOL0     C18949   5.274   9.337   5.628 -0.4232  0.2264  0.0128
  882MOL0     C18950   5.290   9.227   5.725  0.4388 -0.3879 -0.4869
  882MOL0     C18951   5.442   9.191   5.755  0.7617 -0.1274 -0.2120
  882MOL0     N18952   5.527   9.155   5.639  0.7385 -0.1910  0.2520
  882MOL0     C18953   5.611   9.236   5.561 -0.3610  0.7194 -0.3770
  882MOL0     C18954   5.631   9.160   5.448 -0.9070 -0.8439  0.0693
  882MOL0     C18955   5.715   9.203   5.335  0.0240 -0.0538  0.3360
  882MOL0     C18956   5.650   9.316   5.244  0.3519 -0.4815  0.9313
  882MOL0     C18957   5.516   9.266   5.191 -0.4053  0.0816  0.6287
  882MOL0     C18958   5.444   9.365   5.104  0.7032  0.5601 -0.8176
  882MOL0     O18959   5.406   9.468   5.194  0.0679  0.2074 -0.0756
  882MOL0     C18960   5.338   9.573   5.130 -0.4874 -0.3773  0.4088
  882MOL0     C18961   5.263   9.651   5.219 -0.3459 -0.2324 -0.7497
  882MOL0     C18962   5.182   9.757   5.172 -0.5727 -0.6376 -0.4607
  882MOL0     C18963   5.188   9.799   5.040  0.2260  0.8700  0.2813
  882MOL0     C18964   5.115   9.923   4.994  0.3955 -0.2178 -0.4350
  882MOL0     O18965   5.020   9.967   5.083 -0.6042  0.2463  0.0980
  882MOL0     C18966   4.969  10.092   5.070  0.8185  0.8059 -0.2351
  882MOL0     C18967   5.042  10.212   5.096 -0.1845  0.1857 -0.2482
  882MOL0     C18968   4.972  10.340   5.115  0.7418  0.5205 -0.1729
  882MOL0     C18969   4.835  10.350   5.086 -0.3537 -0.3023  0.6551
  882MOL0     O18970   4.770  10.467   5.080  0.3436 -0.0692  0.4194
  882MOL0     C18971   4.830  10.578   5.013 -0.3535 -0.1660  0.3321
  882MOL0     C18972   4.720  10.689   4.994 -0.2086  0.1075  0.1012
  882MOL0     C18973   4.619  10.661   4.877  0.6864 -0.1468  0.1316
  882MOL0     C18974   4.504  10.562   4.925  0.0144 -0.4842  1.2311
  882MOL0     C18975   4.382  10.578   4.821 -0.6671 -0.1927 -0.2338
  882MOL0     C18976   4.280  10.458   4.855  0.6137 -0.5148 -0.4999
  882MOL0     C18977   4.246  10.435   5.009 -0.7465  0.2690 -0.1808
  882MOL0     C18978   4.124  10.358   5.055 -1.8841  0.0901 -0.2626
  882MOL0    Cl18979   4.145  10.291   5.227 -0.5447  0.2800  0.3905
  882MOL0     C18980   4.769  10.234   5.060 -0.2223  0.9359  0.3843
  882MOL0     C18981   4.829  10.111   5.062  0.2245  0.9000 -0.0213
  882MOL0     O18982   5.138   9.974   4.884 -0.0598  0.2492 -0.9861
  882MOL0     C18983   5.267   9.726   4.953 -0.0009  0.2643  0.2048
  882MOL0     C18984   5.335   9.608   4.998  0.9150 -0.6546 -0.4897
  882MOL0     N18985   5.559   9.041   5.458 -0.9069 -0.1227  0.7895
  882MOL0     N18986   5.511   9.041   5.575 -0.5335 -0.7355  0.4863
  882MOL0     C18987   4.978  10.040   5.906  1.0277  0.5377  0.1512
  882MOL0     C18988   4.849  10.098   5.904 -0.0628  0.7715 -0.1217
  882MOL0     C18989   4.531  10.326   5.646  0.1243 -0.1846  0.3735
  882MOL0     C18990   4.440  10.241   5.714 -0.7544 -0.0002 -0.5036
  882MOL0     C18991   4.304  10.236   5.692 -0.2510 -0.4700  0.7337
  882MOL0     C18992   4.239  10.322   5.605  0.8563  0.2257  0.5642
  882MOL0     O18993   4.099  10.313   5.573 -0.4595  0.5846  0.1676
  882MOL0     C18994   4.015  10.343   5.690 -0.4450  0.5813  0.0544
  882MOL0     C18995   3.905  10.436   5.641  0.1071  0.2967  1.2174
  882MOL0     C18996   3.786  10.378   5.558  0.7792 -0.6383 -0.8259
  882MOL0     C18997   3.822  10.337   5.426 -0.0439 -0.3030  0.0436
  882MOL0     C18998   3.695  10.339   5.353  0.7105  0.2770  1.0721
  882MOL0     C18999   3.598  10.376   5.287  1.0466  0.6452  0.3906
  882MOL0     C19000   4.323  10.417   5.539  0.1530 -1.2934  0.3071
  882MOL0     C19001   4.467  10.414   5.551 -0.0801 -0.6591 -0.2385
  882MOL0     C19002   4.549  10.486   5.454 -0.8281 -0.7382  0.5121
  882MOL0     H19003   4.900  10.245   5.587 -0.8048  1.1279  0.8314
  882MOL0     H19004   5.093  10.141   5.601 -2.0503  1.8337 -0.6070
  882MOL0     H19005   5.304  10.072   5.691  2.0204  1.7370  1.5680
  882MOL0     H19006   5.379   9.961   5.789 -1.3560  2.6633  2.9961
  882MOL0     H19007   5.360   9.863   5.560 -0.4848  0.9100 -1.9994
  882MOL0     H19008   5.181   9.892   5.578  1.7474  2.6539  1.1834
  882MOL0     H19009   5.174   9.728   5.760  1.9174 -0.0011  2.0945
  882MOL0     H19010   5.344   9.720   5.779  0.4100 -0.2357 -0.2004
  882MOL0     H19011   5.174   9.602   5.558 -0.2897  2.4938  1.1948
  882MOL0     H19012   5.351   9.581   5.548 -0.1793 -1.7189 -2.1227
  882MOL0     H19013   5.323   9.468   5.787 -0.6392  0.6253  1.4978
  882MOL0     H19014   5.156   9.468   5.756  1.6929 -0.6989  2.7013
  882MOL0     H19015   5.180   9.319   5.576 -0.6703  1.7057 -0.0922
  882MOL0     H19016   5.349   9.337   5.549  0.3420  1.0872  0.7204
  882MOL0     H19017   5.246   9.138   5.679 -0.4016 -1.3310  1.9880
  882MOL0     H19018   5.238   9.252   5.818  2.3947  4.5957 -0.4420
  882MOL0     H19019   5.482   9.282   5.800  0.1370  0.4834 -0.8708
  882MOL0     H19020   5.445   9.117   5.835  1.7303  2.3363  2.1589
  882MOL0     H19021   5.643   9.336   5.586 -0.0529  1.2425 -2.6207
  882MOL0     H19022   5.808   9.246   5.373  0.9225  0.2210 -2.0120
  882MOL0     H19023   5.740   9.113   5.278  3.1668  0.7276  0.2990
  882MOL0     H19024   5.627   9.403   5.306 -2.8165 -1.5016  1.4057
  882MOL0     H19025   5.720   9.341   5.164 -1.0305  0.5978  0.0185
  882MOL0     H19026   5.446   9.255   5.274 -1.5370 -0.4992 -0.3815
  882MOL0     H19027   5.527   9.167   5.145 -0.2884 -0.8236  2.5187
  882MOL0     H19028   5.363   9.311   5.054 -0.8119  1.4824  0.5536
  882MOL0     H19029   5.515   9.409   5.033  2.7395  2.8932  2.3878
  882MOL0     H19030   5.269   9.629   5.325  0.8743  2.2818 -0.2251
  882MOL0     H19031   5.123   9.815   5.243 -3.4591 -0.9762 -2.3945
  882MOL0     H19032   5.142  10.179   5.123 -1.7781 -1.3944  5.0730
  882MOL0     H19033   5.018  10.433   5.144  1.3752  0.0700  0.2798
  882MOL0     H19034   4.908  10.624   5.076 -1.7383  2.2283  0.4369
  882MOL0     H19035   4.875  10.536   4.923 -2.2461 -1.9971  0.1909
  882MOL0     H19036   4.665  10.700   5.088 -0.9831 -1.3049 -0.1427
  882MOL0     H19037   4.774  10.783   4.978  2.1422 -1.1215  0.3643
  882MOL0     H19038   4.560  10.752   4.866  0.6913 -0.4521 -3.9107
  882MOL0     H19039   4.647  10.632   4.775 -2.4195 -1.9778 -0.3328
  882MOL0     H19040   4.479  10.579   5.030 -1.2916  0.4706  0.7823
  882MOL0     H19041   4.543  10.459   4.925 -1.1485 -1.1153  5.5290
  882MOL0     H19042   4.410  10.558   4.718 -0.7930 -0.9742 -0.1187
  882MOL0     H19043   4.334  10.676   4.832 -3.4592 -1.2481 -2.1441
  882MOL0     H19044   4.185  10.481   4.805 -0.3108 -0.6158  1.1561
  882MOL0     H19045   4.328  10.369   4.813  0.0261 -1.7046  1.2476
  882MOL0     H19046   4.248  10.529   5.066  0.1433 -1.6058  3.2151
  882MOL0     H19047   4.329  10.377   5.051 -1.2272 -1.8105 -1.9289
  882MOL0     H19048   4.035  10.422   5.054 -1.1791  1.1103 -1.2949
  882MOL0     H19049   4.113  10.278   4.980  1.4833 -0.3354 -0.4552
  882MOL0     H19050   4.662  10.241   5.046 -0.0848  2.0983 -0.2482
  882MOL0     H19051   4.774  10.018   5.046  0.9909  0.4137  0.1382
  882MOL0     H19052   5.280   9.748   4.847  0.2716  1.1187  0.4071
  882MOL0     H19053   5.368   9.552   4.911 -0.2891 -0.0977 -1.3314
  882MOL0     H19054   5.007   9.997   6.002  1.0770  0.3611  0.0577
  882MOL0     H19055   4.785  10.096   5.992  2.5636 -1.3273  1.9227
  882MOL0     H19056   4.473  10.173   5.792 -3.7347  0.3518  1.2019
  882MOL0     H19057   4.230  10.174   5.742 -3.2250  2.8930  0.8578
  882MOL0     H19058   4.071  10.395   5.769  0.0827 -1.0976  0.8251
  882MOL0     H19059   3.979  10.250   5.735 -1.4347  1.1464  0.4517
  882MOL0     H19060   3.959  10.500   5.571  0.0124 -0.6211  0.2837
  882MOL0     H19061   3.871  10.489   5.730  0.2440 -0.9139  2.0146
  882MOL0     H19062   3.703  10.449   5.564 -0.4623 -2.0741 -0.4655
  882MOL0     H19063   3.742  10.288   5.602 -0.9524  0.3516 -0.4586
  882MOL0     H19064   3.890  10.412   5.386 -3.2689  1.3880 -2.8126
  882MOL0     H19065   3.864  10.236   5.422 -1.6623 -0.9791 -1.1536
  882MOL0     H19066   3.525  10.416   5.220 -0.8851 -1.4843  1.0804
  882MOL0     H19067   4.272  10.496   5.485  1.8146 -0.2701  0.1467
  882MOL0     H19068   4.611  10.562   5.503  1.1070 -0.9223 -1.4693
  882MOL0     H19069   4.610  10.409   5.405  0.7833 -1.1938  3.0588
  882MOL0     H19070   4.503  10.535   5.368  5.2354  0.2192 -2.7539
  883MOL0     O19071   0.898   9.413   5.379  0.5141 -0.6439  0.0503
  883MOL0     C19072   0.784   9.464   5.367 -0.6082  0.4250 -0.6902
  883MOL0     O19073   0.743   9.540   5.257  0.1003  0.5817  0.6606
  883MOL0     C19074   0.846   9.558   5.171 -0.3137  0.8106  0.8529
  883MOL0     C19075   0.921   9.667   5.178  0.2953  0.0352  0.1700
  883MOL0     C19076   1.034   9.680   5.094  0.4587 -0.5893 -0.5444
  883MOL0     C19077   1.083   9.576   5.014 -0.0763  0.3553 -0.3358
  883MOL0     O19078   1.206   9.584   4.961 -1.2797  0.5872 -0.2167
  883MOL0     C19079   1.296   9.501   5.029  0.5558 -0.0847  0.0285
  883MOL0     C19080   1.369   9.422   4.914  0.1862  0.3920 -0.5742
  883MOL0     C19081   1.491   9.492   4.881  0.3530  0.0440 -0.2033
  883MOL0     C19082   1.497   9.540   4.734 -0.4251  0.2996 -0.5686
  883MOL0     C19083   1.637   9.586   4.684 -0.0935  1.0843  0.7372
  883MOL0     C19084   1.743   9.487   4.644 -0.3753  0.1711  0.0926
  883MOL0     C19085   1.857   9.553   4.570 -0.5867 -0.0720 -0.4748
  883MOL0     C19086   1.806   9.580   4.428 -0.1675 -0.3143  1.0067
  883MOL0     N19087   1.916   9.558   4.327  0.0553 -0.2330 -0.3195
  883MOL0     C19088   2.033   9.638   4.315  0.7113  0.0804 -0.2094
  883MOL0     C19089   2.097   9.575   4.213 -1.3383 -0.4074 -0.0875
  883MOL0     C19090   2.233   9.606   4.158 -0.4051 -0.1128  0.4859
  883MOL0     C19091   2.239   9.745   4.087 -0.2373 -0.2503 -0.0725
  883MOL0     C19092   2.388   9.783   4.062  0.2347  0.0059 -0.7979
  883MOL0     C19093   2.417   9.932   4.025  0.0187  0.1527 -0.0730
  883MOL0     O19094   2.550   9.944   3.968  0.5235 -0.2873  0.5401
  883MOL0     C19095   2.651   9.967   4.049 -0.6076 -0.3179 -0.0712
  883MOL0     C19096   2.730   9.860   4.098  0.0517 -0.7695 -0.7005
  883MOL0     C19097   2.831   9.885   4.197  0.4059 -0.2969 -0.6448
  883MOL0     C19098   2.859  10.020   4.236 -0.1740  0.4571  0.6058
  883MOL0     C19099   2.966  10.048   4.334 -0.1549  0.2398 -0.2413
  883MOL0     O19100   3.036   9.931   4.365  0.5847 -0.0873 -0.3703
  883MOL0     C19101   3.133   9.935   4.466  0.8470 -0.0337  0.1572
  883MOL0     C19102   3.262   9.997   4.447 -0.4125 -0.0060 -0.2913
  883MOL0     C19103   3.362   9.976   4.540 -0.0968 -0.0224 -0.4216
  883MOL0     C19104   3.341   9.910   4.659 -0.0013 -0.3814  0.6568
  883MOL0     O19105   3.448   9.890   4.752 -0.1965  0.2483 -0.3338
  883MOL0     C19106   3.412   9.856   4.895 -0.5794 -0.2775  0.1902
  883MOL0     C19107   3.350   9.969   4.966  0.1205 -0.4107 -0.1092
  883MOL0     C19108   3.348   9.924   5.112 -0.1457  0.3132 -0.0607
  883MOL0     C19109   3.375  10.045   5.214 -0.4191  1.0584 -1.2290
  883MOL0     C19110   3.393   9.990   5.366 -0.4747 -0.1454 -0.3876
  883MOL0     C19111   3.256   9.960   5.438  1.3560  0.9296 -1.2299
  883MOL0     C19112   3.276   9.909   5.583  0.6742  0.5418  0.3443
  883MOL0     C19113   3.143   9.881   5.642  0.7390 -0.0168 -0.1230
  883MOL0    Cl19114   3.114   9.711   5.585  0.0850 -0.0357  0.1696
  883MOL0     C19115   3.217   9.846   4.676 -0.4532 -0.8335 -0.2146
  883MOL0     C19116   3.114   9.859   4.576 -0.2689 -0.6431  0.2622
  883MOL0     O19117   2.989  10.160   4.375 -0.0648 -0.0389 -0.9719
  883MOL0     C19118   2.783  10.118   4.179 -0.1567 -0.8845 -0.2098
  883MOL0     C19119   2.673  10.097   4.094  0.4142 -0.3825 -0.4791
  883MOL0     N19120   2.025   9.469   4.164 -0.1610  0.5137  0.4207
  883MOL0     N19121   1.924   9.452   4.243 -0.4103  0.1810 -0.4656
  883MOL0     C19122   0.998   9.465   5.009 -0.1493  0.6049  1.0485
  883MOL0     C19123   0.878   9.461   5.075  0.1897 -0.3858  0.0898
  883MOL0     C19124   0.693   9.450   5.474  0.6261  0.4029 -0.4605
  883MOL0     C19125   0.575   9.532   5.483 -0.3551  0.5151 -0.2285
  883MOL0     C19126   0.491   9.532   5.590  0.6721 -0.3508 -0.2782
  883MOL0     C19127   0.512   9.448   5.698  0.5510 -0.1342 -0.3304
  883MOL0     O19128   0.425   9.458   5.804 -0.7756  0.6345 -0.6666
  883MOL0     C19129   0.471   9.481   5.941 -0.0399 -0.5911  0.2318
  883MOL0     C19130   0.456   9.627   5.985 -0.1237  0.6585  0.3995
  883MOL0     C19131   0.562   9.727   5.944  0.5126  0.2674 -0.1115
  883MOL0     C19132   0.514   9.874   5.977 -0.4230  0.9632  0.1417
  883MOL0     C19133   0.604   9.967   5.918  0.4392  0.6483  0.5692
  883MOL0     C19134   0.645  10.056   5.850  0.2184  0.2229  0.1912
  883MOL0     C19135   0.608   9.348   5.686  0.1573 -0.0809  0.1923
  883MOL0     C19136   0.709   9.357   5.583  0.6041 -0.2639 -0.3817
  883MOL0     C19137   0.826   9.258   5.585 -0.6710 -0.5780  0.9694
  883MOL0     H19138   0.892   9.743   5.250 -0.8962 -1.4977  1.3795
  883MOL0     H19139   1.086   9.775   5.107 -1.8412  0.7408 -0.5132
  883MOL0     H19140   1.368   9.549   5.097  0.8176 -1.8021  0.9965
  883MOL0     H19141   1.248   9.423   5.088  1.1707 -0.2853  0.2715
  883MOL0     H19142   1.301   9.409   4.830 -2.2714  1.0023  1.2159
  883MOL0     H19143   1.406   9.326   4.949 -1.9340 -0.3238 -0.1590
  883MOL0     H19144   1.568   9.415   4.892 -2.0381 -2.6643 -1.1064
  883MOL0     H19145   1.508   9.574   4.952 -3.4122  1.3647 -0.5607
  883MOL0     H19146   1.462   9.452   4.680 -0.2935 -0.6240  0.7945
  883MOL0     H19147   1.428   9.625   4.732 -1.3508 -0.1312  3.6140
  883MOL0     H19148   1.621   9.649   4.596  0.1259 -0.0680 -0.1506
  883MOL0     H19149   1.681   9.642   4.767  1.0889  0.5542  0.4920
  883MOL0     H19150   1.782   9.435   4.732  0.7171  1.2535  0.2792
  883MOL0     H19151   1.704   9.407   4.580 -0.2588  1.0931 -1.1581
  883MOL0     H19152   1.945   9.489   4.557 -0.1708  0.1479  1.0828
  883MOL0     H19153   1.893   9.648   4.609  0.1744  0.9817 -3.4681
  883MOL0     H19154   1.729   9.512   4.392  0.8834 -0.7788 -0.4399
  883MOL0     H19155   1.773   9.684   4.428 -0.2784 -0.2736 -2.0065
  883MOL0     H19156   2.049   9.720   4.384  0.7963  0.1924 -0.3618
  883MOL0     H19157   2.304   9.594   4.240  2.5389  1.1824 -1.7034
  883MOL0     H19158   2.259   9.535   4.079  1.1973  1.0467 -0.0863
  883MOL0     H19159   2.186   9.758   3.993 -1.5667  1.3698  0.8490
  883MOL0     H19160   2.204   9.823   4.155 -0.3201  0.2949 -0.7336
  883MOL0     H19161   2.415   9.720   3.977 -0.2486 -0.8421 -0.3473
  883MOL0     H19162   2.436   9.769   4.160 -2.7237  0.6576  0.8710
  883MOL0     H19163   2.416   9.997   4.113  1.0588  0.9314 -0.6195
  883MOL0     H19164   2.341   9.971   3.956 -2.8156  0.4986  3.0139
  883MOL0     H19165   2.709   9.757   4.073  0.8142 -0.5090 -2.5482
  883MOL0     H19166   2.881   9.801   4.243 -0.0978  0.4300  1.3164
  883MOL0     H19167   3.282  10.055   4.357 -3.9640 -0.1263 -1.3315
  883MOL0     H19168   3.451  10.038   4.529 -0.3488  0.2868 -0.7269
  883MOL0     H19169   3.345   9.770   4.905 -4.6346  2.6500  1.3281
  883MOL0     H19170   3.514   9.835   4.926  0.3834  1.6168 -1.4689
  883MOL0     H19171   3.419  10.054   4.961  1.0390 -1.1446 -0.2709
  883MOL0     H19172   3.250   9.994   4.928 -1.1339 -2.3368  1.7249
  883MOL0     H19173   3.248   9.882   5.125 -1.3450  3.1884  0.9251
  883MOL0     H19174   3.423   9.845   5.121 -1.1640 -0.6862 -0.0809
  883MOL0     H19175   3.304  10.127   5.204  0.7515  1.7734 -5.5920
  883MOL0     H19176   3.468  10.098   5.193  0.8228 -0.4259  0.2027
  883MOL0     H19177   3.440  10.061   5.434 -0.5994 -0.3149 -0.1220
  883MOL0     H19178   3.465   9.907   5.367  2.5795  2.2938  1.0721
  883MOL0     H19179   3.209  10.059   5.439  1.9248  1.1972 -0.5951
  883MOL0     H19180   3.189   9.892   5.384 -2.7077  2.1580  1.7750
  883MOL0     H19181   3.324   9.993   5.634 -1.3121  0.7266  2.0622
  883MOL0     H19182   3.345   9.824   5.589  1.4834  1.2562  1.6480
  883MOL0     H19183   3.146   9.893   5.751 -1.1310  2.5160 -0.2453
  883MOL0     H19184   3.060   9.946   5.612 -0.7533 -1.6105  0.3704
  883MOL0     H19185   3.204   9.769   4.751  1.5275 -1.6495 -0.6621
  883MOL0     H19186   3.022   9.805   4.597  0.2721 -2.0328 -0.7752
  883MOL0     H19187   2.809  10.218   4.213  1.2433  0.1287 -3.7797
  883MOL0     H19188   2.592  10.160   4.060 -1.3470 -2.1064  0.3496
  883MOL0     H19189   1.020   9.395   4.929 -2.0477  0.4501  0.6210
  883MOL0     H19190   0.801   9.385   5.066 -0.2300  0.1161 -0.8534
  883MOL0     H19191   0.551   9.618   5.422 -3.0460  0.0644  0.0512
  883MOL0     H19192   0.405   9.598   5.591 -1.8849 -3.1588 -4.3179
  883MOL0     H19193   0.572   9.442   5.953 -0.2259 -1.6796 -1.3969
  883MOL0     H19194   0.401   9.419   5.998 -1.9637 -0.6994 -2.0452
  883MOL0     H19195   0.425   9.629   6.090  1.2389 -2.4799  0.9754
  883MOL0     H19196   0.372   9.655   5.921 -0.3103 -1.1274 -0.1924
  883MOL0     H19197   0.583   9.718   5.837  2.6267  2.0557  0.0778
  883MOL0     H19198   0.654   9.706   6.000 -0.2193  0.7021  1.2968
  883MOL0     H19199   0.412   9.887   5.939 -1.1691  0.5388  1.8835
  883MOL0     H19200   0.505   9.875   6.086  0.9870 -1.7455  0.3581
  883MOL0     H19201   0.677  10.135   5.785 -0.8411 -1.2263 -2.2446
  883MOL0     H19202   0.623   9.276   5.766  1.1058 -1.3827 -1.1022
  883MOL0     H19203   0.843   9.202   5.493  3.7360  3.6360 -1.2342
  883MOL0     H19204   0.911   9.323   5.606  0.4071 -0.1152 -3.6211
  883MOL0     H19205   0.816   9.193   5.672 -5.1653  1.1088  2.0316
  884MOL0     O19206   2.985   8.902   9.710  0.3453  0.2145  0.2960
  884MOL0     C19207   3.013   8.786   9.727  0.0575 -0.2684  0.7109
  884MOL0     O19208   3.091   8.710   9.637  0.5691 -0.7003 -0.5675
  884MOL0     C19209   3.092   8.728   9.497 -1.4341 -0.8638 -0.7960
  884MOL0     C19210   3.192   8.648   9.437  0.8332 -0.2219 -0.2504
  884MOL0     C19211   3.196   8.638   9.296  0.3600 -0.3685  0.3875
  884MOL0     C19212   3.103   8.706   9.220  0.3584  0.5415 -0.3154
  884MOL0     O19213   3.094   8.675   9.078  0.5046 -0.0012 -0.0925
  884MOL0     C19214   2.981   8.734   8.996  0.0528  0.1632 -1.4579
  884MOL0     C19215   3.006   8.708   8.855 -0.5135  0.6184  0.0290
  884MOL0     C19216   3.102   8.794   8.772  0.4732 -0.3572 -0.6459
  884MOL0     C19217   3.201   8.875   8.854 -0.0397  0.4166 -0.3672
  884MOL0     C19218   3.293   8.964   8.776 -0.9824 -0.0631  0.5758
  884MOL0     C19219   3.426   8.897   8.724 -0.5387  0.2906 -0.6513
  884MOL0     C19220   3.506   8.979   8.616  1.1746  0.4244 -0.5203
  884MOL0     C19221   3.576   9.114   8.648  0.4037  0.1700 -0.3155
  884MOL0     N19222   3.467   9.215   8.668  0.0458 -0.0537 -0.5341
  884MOL0     C19223   3.450   9.299   8.776 -0.9454 -0.2352  0.1712
  884MOL0     C19224   3.329   9.349   8.755 -0.6596 -1.1969 -0.3128
  884MOL0     C19225   3.264   9.436   8.865  0.7576  0.4414 -0.2825
  884MOL0     C19226   3.189   9.359   8.978  0.8254 -0.1522 -0.8044
  884MOL0     C19227   3.089   9.264   8.932 -0.0184  0.1490  0.1113
  884MOL0     C19228   3.048   9.181   9.039  0.1452 -0.8621  0.0029
  884MOL0     O19229   2.935   9.095   9.001 -0.1149  0.1990  0.0108
  884MOL0     C19230   2.806   9.135   9.032 -0.0692 -0.1864  0.4040
  884MOL0     C19231   2.711   9.037   9.035 -0.4651  0.8299 -0.8753
  884MOL0     C19232   2.590   9.060   9.089 -0.2126 -0.6257  0.0560
  884MOL0     C19233   2.547   9.186   9.126 -0.4226  0.6349  0.6411
  884MOL0     C19234   2.408   9.210   9.169  0.8539 -0.4080 -0.2900
  884MOL0     O19235   2.336   9.110   9.221 -0.8575  0.1344  0.0267
  884MOL0     C19236   2.224   9.139   9.289  0.6586  1.9624  0.5853
  884MOL0     C19237   2.234   9.160   9.424  0.4667 -0.0621  0.5749
  884MOL0     C19238   2.116   9.162   9.492  0.9800  1.0321  0.1682
  884MOL0     C19239   1.993   9.139   9.432 -0.1155 -0.8043  0.1439
  884MOL0     O19240   1.872   9.129   9.496  0.5974 -0.0809  0.6968
  884MOL0     C19241   1.884   9.141   9.635  0.2590  0.4693 -0.2474
  884MOL0     C19242   1.756   9.140   9.727  0.7142  0.7403  0.9477
  884MOL0     C19243   1.685   9.009   9.707  1.0133  0.1916 -0.5604
  884MOL0     C19244   1.545   8.994   9.779 -0.9897 -0.0600 -0.6701
  884MOL0     C19245   1.473   8.865   9.760 -0.3490  0.2358  0.0393
  884MOL0     C19246   1.350   8.847   9.851  0.3858  0.1953  0.0431
  884MOL0     C19247   1.300   8.706   9.840 -0.5862 -0.0697  0.0853
  884MOL0     C19248   1.164   8.691   9.916 -0.4221  0.4393 -0.3582
  884MOL0    Cl19249   1.216   8.666  10.076 -0.1903 -0.0131  0.4205
  884MOL0     C19250   1.983   9.126   9.297  0.2776  0.4721 -0.0474
  884MOL0     C19251   2.097   9.121   9.223 -0.3311 -0.4629  0.1801
  884MOL0     O19252   2.366   9.327   9.175 -0.3695  1.4069 -0.1785
  884MOL0     C19253   2.637   9.296   9.100 -1.1092  0.1364 -0.1989
  884MOL0     C19254   2.767   9.270   9.059 -1.0651 -0.1411 -0.3241
  884MOL0     N19255   3.269   9.297   8.638 -0.7693 -0.0517 -0.8233
  884MOL0     N19256   3.362   9.230   8.584 -0.1546 -0.9708  0.3822
  884MOL0     C19257   3.006   8.789   9.289 -1.5301 -0.6893  0.7666
  884MOL0     C19258   3.001   8.805   9.427 -0.0432  0.8014  0.5526
  884MOL0     C19259   2.987   8.722   9.863  0.0639  0.0700 -0.9656
  884MOL0     C19260   3.007   8.588   9.883 -0.7633  0.0308 -0.0811
  884MOL0     C19261   2.981   8.529  10.000  0.8226  0.0089 -0.7092
  884MOL0     C19262   2.939   8.597  10.119 -0.2682 -0.4901  0.3804
  884MOL0     O19263   2.912   8.525  10.236 -0.4783  0.0996 -0.1075
  884MOL0     C19264   2.881   8.598  10.355  0.1876 -0.3918  0.1053
  884MOL0     C19265   2.857   8.503  10.471  0.4064  0.7449 -0.8019
  884MOL0     C19266   2.869   8.576  10.601  0.6224 -0.6195 -0.0996
  884MOL0     C19267   3.017   8.571  10.643 -0.1268 -0.1467  0.2604
  884MOL0     C19268   3.071   8.438  10.678  0.4833  0.0754  0.4777
  884MOL0     C19269   3.127   8.338  10.707  1.4579  0.4858  0.0557
  884MOL0     C19270   2.924   8.737  10.105 -0.0819  0.3330  0.0687
  884MOL0     C19271   2.942   8.800   9.979  0.0057  0.2606  0.4637
  884MOL0     C19272   2.879   8.937   9.965  0.3045 -0.3953 -0.0220
  884MOL0     H19273   3.268   8.604   9.501  1.5873 -0.0922 -1.0343
  884MOL0     H19274   3.276   8.581   9.249  3.1732  1.4057  2.6598
  884MOL0     H19275   2.883   8.695   9.025 -0.2475  2.1482  0.4219
  884MOL0     H19276   2.981   8.840   9.023  0.1374 -0.4100  0.9869
  884MOL0     H19277   2.906   8.729   8.815  0.1446 -0.6132 -2.4239
  884MOL0     H19278   3.025   8.601   8.843 -2.2167  0.0584  1.7034
  884MOL0     H19279   3.054   8.850   8.692  2.3199  2.8006  0.2997
  884MOL0     H19280   3.155   8.718   8.712  0.6328 -2.2273  1.7023
  884MOL0     H19281   3.139   8.937   8.919 -1.6047 -0.2974 -1.1261
  884MOL0     H19282   3.259   8.817   8.926  1.0330 -0.2320 -1.7270
  884MOL0     H19283   3.239   8.997   8.686 -1.1373 -1.3812  0.1523
  884MOL0     H19284   3.333   9.042   8.840 -0.1737  0.9166 -1.0655
  884MOL0     H19285   3.480   8.881   8.818 -1.6850 -0.9609 -0.1652
  884MOL0     H19286   3.395   8.799   8.687 -1.6618 -0.3968  1.8920
  884MOL0     H19287   3.432   8.993   8.538 -0.2381 -0.3203  0.6385
  884MOL0     H19288   3.585   8.916   8.574 -0.7596 -1.7537 -1.0971
  884MOL0     H19289   3.642   9.106   8.735  0.2313  1.1734 -0.0789
  884MOL0     H19290   3.641   9.141   8.565  1.2001 -3.4364 -1.0392
  884MOL0     H19291   3.507   9.336   8.861 -2.0917 -0.6690  1.1509
  884MOL0     H19292   3.340   9.496   8.916  0.2708 -0.5701  1.6859
  884MOL0     H19293   3.208   9.522   8.826  2.6736  1.1990 -1.5318
  884MOL0     H19294   3.263   9.310   9.042 -1.5527 -2.6381  0.3008
  884MOL0     H19295   3.140   9.435   9.039  2.6934 -0.7920  1.6371
  884MOL0     H19296   3.137   9.189   8.867  1.3949 -0.5577  1.8590
  884MOL0     H19297   3.005   9.310   8.881 -0.1686 -1.1722 -0.8997
  884MOL0     H19298   3.024   9.244   9.125  2.8766  2.5871 -1.5222
  884MOL0     H19299   3.129   9.115   9.069 -1.5129 -1.7949  2.8182
  884MOL0     H19300   2.733   8.934   9.008 -2.4650 -0.1978  1.0833
  884MOL0     H19301   2.529   8.972   9.107 -1.5445 -0.1268 -1.6678
  884MOL0     H19302   2.335   9.178   9.460  1.0382 -2.7234  0.5216
  884MOL0     H19303   2.125   9.165   9.600 -3.0994 -2.3770  0.8788
  884MOL0     H19304   1.932   9.051   9.674 -0.4948  0.0132 -0.3353
  884MOL0     H19305   1.932   9.231   9.673 -2.2760  1.1665  1.5377
  884MOL0     H19306   1.790   9.157   9.830  1.8960 -3.7321  1.4981
  884MOL0     H19307   1.688   9.220   9.697  1.5264  0.7616 -0.9787
  884MOL0     H19308   1.658   8.990   9.603 -1.1211 -0.0638 -0.0076
  884MOL0     H19309   1.745   8.923   9.739  0.1170 -0.8297 -1.5601
  884MOL0     H19310   1.492   9.084   9.744  0.6789  1.2692  0.0938
  884MOL0     H19311   1.558   8.999   9.887  2.8798 -0.5613 -0.9740
  884MOL0     H19312   1.547   8.789   9.787  0.6620  0.8102 -1.0493
  884MOL0     H19313   1.446   8.867   9.654  3.9223 -1.5457 -1.3023
  884MOL0     H19314   1.384   8.860   9.954 -0.5190  0.2625  0.3453
  884MOL0     H19315   1.270   8.915   9.818  3.6825  3.1309 -2.7798
  884MOL0     H19316   1.380   8.635   9.862 -0.7592 -0.1780  0.3659
  884MOL0     H19317   1.285   8.683   9.734  1.2637  0.2197 -0.2772
  884MOL0     H19318   1.105   8.783   9.906  0.7201  1.6708  3.0861
  884MOL0     H19319   1.117   8.596   9.890 -2.1131  0.9350  0.7525
  884MOL0     H19320   1.885   9.123   9.251 -0.6912 -3.6237  1.7471
  884MOL0     H19321   2.079   9.118   9.116 -2.1702 -1.9622  0.4844
  884MOL0     H19322   2.603   9.397   9.122 -3.1005 -0.8309  1.4485
  884MOL0     H19323   2.838   9.349   9.036 -2.6805  1.1110 -1.1690
  884MOL0     H19324   2.924   8.844   9.243 -1.8475 -0.6640  1.3570
  884MOL0     H19325   2.916   8.862   9.462 -1.0771 -1.3166  1.6255
  884MOL0     H19326   3.031   8.532   9.793  0.2300 -0.6809  0.6033
  884MOL0     H19327   2.971   8.421   9.998 -2.9725  0.2396 -0.6503
  884MOL0     H19328   2.788   8.651  10.332  0.4234 -1.2439 -3.4496
  884MOL0     H19329   2.961   8.671  10.370 -4.1762  5.1680 -0.5670
  884MOL0     H19330   2.921   8.415  10.467  1.2381  0.8864  4.0779
  884MOL0     H19331   2.756   8.463  10.461  0.6052 -0.3760  1.2284
  884MOL0     H19332   2.812   8.522  10.677  1.9494 -1.0209  0.6536
  884MOL0     H19333   2.838   8.681  10.597  0.0185 -0.7609  0.5274
  884MOL0     H19334   3.066   8.613  10.555 -3.9267  0.1516 -1.9498
  884MOL0     H19335   3.037   8.634  10.730  2.3196  0.9921 -1.0360
  884MOL0     H19336   3.162   8.241  10.737  2.2238  1.4615  2.6330
  884MOL0     H19337   2.890   8.790  10.194 -3.2543 -0.5875 -0.4504
  884MOL0     H19338   2.814   8.936   9.877  0.5410 -4.0606 -0.3306
  884MOL0     H19339   2.826   8.987  10.047 -0.7978  2.0565 -2.1012
  884MOL0     H19340   2.967   8.996   9.938 -1.4742  2.5274  0.1109
  885MOL0     O19341  10.089   1.354   7.619 -0.0483  0.6208 -0.3534
  885MOL0     C19342  10.176   1.299   7.681 -0.4296  0.1661  0.3509
  885MOL0     O19343  10.158   1.184   7.749  0.0124 -0.0952  0.5629
  885MOL0     C19344  10.035   1.154   7.795 -0.5648 -0.4111 -0.2392
  885MOL0     C19345   9.925   1.131   7.713 -0.6775  1.6869  0.7730
  885MOL0     C19346   9.795   1.111   7.750 -0.1578  0.0240 -0.7304
  885MOL0     C19347   9.761   1.110   7.886  0.4338 -0.2085  0.9159
  885MOL0     O19348   9.629   1.083   7.909 -0.4269  0.1099  0.2845
  885MOL0     C19349   9.593   1.026   8.044 -0.4550  0.5192  0.2837
  885MOL0     C19350   9.459   0.940   8.041  0.0773 -0.3825 -0.5239
  885MOL0     C19351   9.445   0.845   8.167 -0.3509  0.5077  0.0614
  885MOL0     C19352   9.306   0.785   8.158  0.9874  0.6020  0.4797
  885MOL0     C19353   9.243   0.734   8.295  0.1760  0.7342  0.1208
  885MOL0     C19354   9.148   0.622   8.266  0.3151  1.3291  0.0899
  885MOL0     C19355   9.083   0.549   8.388  0.1274  0.7116 -0.2680
  885MOL0     C19356   8.993   0.437   8.351  0.4712  0.8358  0.0997
  885MOL0     N19357   8.890   0.491   8.266  0.4642  0.9621  0.0725
  885MOL0     C19358   8.801   0.574   8.320  0.0111 -0.0538  0.4496
  885MOL0     C19359   8.709   0.590   8.216 -0.2164 -0.5867  0.3635
  885MOL0     C19360   8.587   0.681   8.218 -1.0544 -0.5892  0.9986
  885MOL0     C19361   8.470   0.630   8.132 -0.1320 -0.4614  0.3923
  885MOL0     C19362   8.332   0.707   8.163  0.2733  0.3182 -0.5756
  885MOL0     C19363   8.309   0.826   8.061  0.8190  0.3915 -0.2600
  885MOL0     O19364   8.178   0.895   8.086 -0.5310  1.5275 -0.6225
  885MOL0     C19365   8.073   0.871   8.007  0.3247 -0.5783 -0.0881
  885MOL0     C19366   8.055   0.749   7.928 -1.7042 -1.4080  0.1814
  885MOL0     C19367   7.941   0.727   7.865  0.6384 -0.9947  0.2254
  885MOL0     C19368   7.827   0.818   7.890  0.0786 -0.1103  0.0539
  885MOL0     C19369   7.697   0.767   7.835  0.8131 -0.6741  0.7595
  885MOL0     O19370   7.687   0.641   7.769 -0.0038 -0.3420 -0.2665
  885MOL0     C19371   7.694   0.623   7.632 -0.8456  0.1659 -0.3907
  885MOL0     C19372   7.754   0.722   7.551 -0.5912  0.5441 -0.0275
  885MOL0     C19373   7.740   0.708   7.411  0.1906  0.0707  0.3440
  885MOL0     C19374   7.663   0.602   7.356  0.3894 -0.1430 -0.2103
  885MOL0     O19375   7.654   0.612   7.225  0.0331  0.5021  0.3563
  885MOL0     C19376   7.707   0.498   7.146  0.1516 -0.5022 -0.1325
  885MOL0     C19377   7.865   0.491   7.146  0.6861 -0.7094  0.8554
  885MOL0     C19378   7.935   0.599   7.058  0.1857  0.5691 -0.5801
  885MOL0     C19379   8.078   0.653   7.076 -0.4606 -0.1973 -0.1596
  885MOL0     C19380   8.192   0.551   7.055  0.6511  0.9712 -0.4857
  885MOL0     C19381   8.321   0.626   7.042 -1.5156 -0.5084 -0.5143
  885MOL0     C19382   8.435   0.524   7.020  0.2372  0.3714 -0.8756
  885MOL0     C19383   8.498   0.451   7.141 -1.1197  0.2331 -0.1823
  885MOL0    Cl19384   8.649   0.373   7.059  0.3830  0.3801  0.4724
  885MOL0     C19385   7.598   0.509   7.432 -0.3414  0.1430 -0.3106
  885MOL0     C19386   7.618   0.517   7.575 -0.3005  0.9304 -0.5265
  885MOL0     O19387   7.597   0.850   7.850 -0.0758 -0.0978  1.3678
  885MOL0     C19388   7.842   0.934   7.972  0.7571  0.7107 -0.1039
  885MOL0     C19389   7.967   0.961   8.029 -0.1461 -0.1337 -0.7077
  885MOL0     N19390   8.754   0.529   8.098  0.0672 -0.0303  0.0757
  885MOL0     N19391   8.869   0.477   8.127 -0.9399  1.0732 -0.0947
  885MOL0     C19392   9.869   1.127   7.980 -0.2273  0.0774 -1.6921
  885MOL0     C19393  10.005   1.150   7.938  0.0079 -0.4895  0.2633
  885MOL0     C19394  10.318   1.338   7.659 -0.2778 -0.2883  0.0302
  885MOL0     C19395  10.425   1.253   7.706 -0.1876 -0.7348  0.9102
  885MOL0     C19396  10.561   1.271   7.680 -1.1908 -0.6669  0.2190
  885MOL0     C19397  10.602   1.386   7.607 -0.2031  0.8457 -0.5838
  885MOL0     O19398  10.740   1.405   7.605 -0.6256  0.1045 -0.4830
  885MOL0     C19399  10.793   1.511   7.530 -0.5691  0.4761  1.1039
  885MOL0     C19400  10.948   1.492   7.527 -0.5990 -0.3150  0.4826
  885MOL0     C19401  10.993   1.605   7.428 -0.2582 -0.2702  0.0672
  885MOL0     C19402  11.145   1.592   7.395  0.6357 -0.2057 -0.1470
  885MOL0     C19403  11.180   1.502   7.287  0.3482  0.5570  0.1429
  885MOL0     C19404  11.190   1.435   7.191  0.0871 -0.3916  1.1679
  885MOL0     C19405  10.504   1.471   7.562  0.4048 -0.9007  0.1592
  885MOL0     C19406  10.362   1.448   7.581 -0.3190  0.1783 -1.2608
  885MOL0     C19407  10.281   1.563   7.516 -0.5930  0.1349 -0.8363
  885MOL0     H19408   9.954   1.128   7.609  2.5791 -0.0421  1.5886
  885MOL0     H19409   9.715   1.098   7.678 -0.7223  2.7100 -0.6900
  885MOL0     H19410   9.673   0.956   8.068  2.2841  2.6988 -1.7621
  885MOL0     H19411   9.593   1.106   8.118 -0.1607  1.9208 -1.1819
  885MOL0     H19412   9.471   0.880   7.950 -0.3524  1.7343 -2.0760
  885MOL0     H19413   9.374   1.009   8.033  1.1832  1.1755  0.4388
  885MOL0     H19414   9.459   0.899   8.261  1.3296 -0.7434  0.5933
  885MOL0     H19415   9.516   0.762   8.164 -0.9057 -0.0205  1.0436
  885MOL0     H19416   9.230   0.857   8.129 -0.5701 -1.4964 -0.9731
  885MOL0     H19417   9.311   0.700   8.089 -1.3895  1.1572 -0.4910
  885MOL0     H19418   9.321   0.705   8.365  1.8907 -1.6190 -2.5520
  885MOL0     H19419   9.186   0.818   8.337 -3.0494 -1.4610  0.4353
  885MOL0     H19420   9.064   0.655   8.205  0.0824  1.6671  0.5824
  885MOL0     H19421   9.200   0.545   8.209 -1.8306 -0.0147 -0.1396
  885MOL0     H19422   9.035   0.622   8.454 -0.0876  1.8006 -1.5915
  885MOL0     H19423   9.165   0.516   8.452  0.6568  0.2008 -1.1866
  885MOL0     H19424   9.049   0.360   8.298  3.0297  1.9507  0.9985
  885MOL0     H19425   8.955   0.393   8.444 -1.1725  1.5232 -0.2177
  885MOL0     H19426   8.800   0.614   8.421  0.1048 -2.0379  1.2944
  885MOL0     H19427   8.545   0.694   8.318 -4.4368 -0.9985 -0.2628
  885MOL0     H19428   8.618   0.782   8.187 -3.3860 -0.7956 -2.5923
  885MOL0     H19429   8.485   0.641   8.024 -0.2142  0.1030  0.4343
  885MOL0     H19430   8.468   0.521   8.144  2.1435 -0.7428 -0.9852
  885MOL0     H19431   8.327   0.748   8.264 -0.2749  0.2353 -0.5701
  885MOL0     H19432   8.243   0.644   8.158 -0.0990  0.8467 -0.6696
  885MOL0     H19433   8.322   0.796   7.956  3.6195  2.8486 -0.7565
  885MOL0     H19434   8.381   0.908   8.073  2.7532 -1.0620 -1.1878
  885MOL0     H19435   8.133   0.676   7.906  1.3746  1.3894  0.9512
  885MOL0     H19436   7.931   0.646   7.794 -1.9576  1.1597 -2.0973
  885MOL0     H19437   7.803   0.813   7.582 -3.1030  1.3456  1.9411
  885MOL0     H19438   7.791   0.762   7.332 -1.1060  0.6248 -0.1461
  885MOL0     H19439   7.670   0.408   7.193 -1.6181  1.3173  2.1711
  885MOL0     H19440   7.665   0.493   7.045 -3.3946 -2.1311  1.2626
  885MOL0     H19441   7.898   0.488   7.250  1.6978  0.9689  0.6266
  885MOL0     H19442   7.891   0.392   7.109  1.7412 -0.2722  0.3897
  885MOL0     H19443   7.919   0.562   6.957 -0.3372  0.8453 -0.6026
  885MOL0     H19444   7.875   0.691   7.065 -2.9280 -1.4243  1.2705
  885MOL0     H19445   8.079   0.687   7.179  2.2942 -1.0703  0.2005
  885MOL0     H19446   8.098   0.737   7.008  0.5909 -0.1458  0.1902
  885MOL0     H19447   8.176   0.489   6.966  1.1610  0.0960  0.0266
  885MOL0     H19448   8.189   0.484   7.141 -0.7775  0.3753 -0.9677
  885MOL0     H19449   8.317   0.694   6.956 -1.0570 -0.2902 -0.3661
  885MOL0     H19450   8.328   0.673   7.141 -1.2889  0.5063 -0.9936
  885MOL0     H19451   8.519   0.580   6.977 -0.3016  0.6864 -1.5351
  885MOL0     H19452   8.407   0.449   6.946 -0.8404 -1.3020  1.1121
  885MOL0     H19453   8.537   0.519   7.217  3.3181 -2.1084 -0.0645
  885MOL0     H19454   8.433   0.374   7.181  1.2605 -2.4757 -1.1807
  885MOL0     H19455   7.532   0.433   7.391 -0.1833 -1.5461  2.3598
  885MOL0     H19456   7.562   0.458   7.647  2.7140 -1.3805  0.1432
  885MOL0     H19457   7.751   0.991   7.989  1.2371  1.2024  0.8636
  885MOL0     H19458   7.969   1.056   8.081 -2.1762  1.9493 -4.0675
  885MOL0     H19459   9.834   1.117   8.082  0.1214 -1.3847 -1.6888
  885MOL0     H19460  10.091   1.175   8.000  1.5193  3.1275 -2.8815
  885MOL0     H19461  10.401   1.161   7.758 -0.5061  0.5475  3.1611
  885MOL0     H19462  10.641   1.200   7.698  1.1884  1.8671  0.3959
  885MOL0     H19463  10.774   1.607   7.578 -0.8665  0.5664  0.8101
  885MOL0     H19464  10.754   1.500   7.428  1.1064 -3.7272  0.6982
  885MOL0     H19465  10.970   1.392   7.487  1.2380 -0.1340  0.9690
  885MOL0     H19466  10.989   1.500   7.628  0.3581  1.9902 -0.0351
  885MOL0     H19467  10.990   1.705   7.472  1.8206  0.3121 -0.9619
  885MOL0     H19468  10.940   1.612   7.333  0.1389  2.1610 -0.0434
  885MOL0     H19469  11.178   1.691   7.363 -0.7477  0.6177  0.8399
  885MOL0     H19470  11.203   1.571   7.485  1.1627  2.4533  0.2118
  885MOL0     H19471  11.194   1.366   7.109 -1.5292 -0.8057  1.4071
  885MOL0     H19472  10.527   1.565   7.513  1.6045  0.7389  3.5077
  885MOL0     H19473  10.178   1.564   7.552  0.6453  0.2976  3.3498
  885MOL0     H19474  10.326   1.655   7.556  1.7092 -0.3892 -2.0805
  885MOL0     H19475  10.285   1.557   7.407 -0.7954 -1.2282 -0.7833
  886MOL0     O19476   4.965  10.546   2.892 -0.1513 -0.0087 -0.4576
  886MOL0     C19477   4.992  10.469   2.801 -0.7819  0.2387  0.7199
  886MOL0     O19478   4.946  10.338   2.797 -1.0972 -0.1444  0.0900
  886MOL0     C19479   4.957  10.274   2.920 -0.1346 -1.1128  1.2123
  886MOL0     C19480   5.080  10.262   2.982 -0.5997  0.3802 -1.5777
  886MOL0     C19481   5.075  10.220   3.124  0.8496 -0.0102  0.4078
  886MOL0     C19482   4.955  10.184   3.190  0.1632  0.1880  0.6053
  886MOL0     O19483   4.948  10.152   3.321 -0.0728 -0.0362  0.0001
  886MOL0     C19484   5.065  10.110   3.392 -0.4257  0.6794  0.2559
  886MOL0     C19485   5.025  10.042   3.520 -0.0165 -0.3665  0.3371
  886MOL0     C19486   4.955   9.905   3.503  0.1610  0.5260 -1.5710
  886MOL0     C19487   4.940   9.834   3.646 -0.5902  0.0243 -0.0001
  886MOL0     C19488   4.875   9.696   3.630 -0.0454 -1.6915  0.4932
  886MOL0     C19489   4.983   9.594   3.585  0.6347  0.8665 -0.5982
  886MOL0     C19490   4.900   9.454   3.564  0.6732 -0.2838 -0.4549
  886MOL0     C19491   4.800   9.457   3.452  0.3596  0.0231  0.1238
  886MOL0     N19492   4.734   9.328   3.437 -0.4557  0.1508  0.0735
  886MOL0     C19493   4.620   9.290   3.505  1.0051 -0.8519 -0.2804
  886MOL0     C19494   4.625   9.155   3.493 -0.5136 -0.3136  0.0281
  886MOL0     C19495   4.533   9.063   3.576  0.1091  0.0527  0.0876
  886MOL0     C19496   4.610   8.959   3.658  0.7631  0.6123 -0.3559
  886MOL0     C19497   4.536   8.829   3.700  0.4837 -0.0102 -0.4594
  886MOL0     C19498   4.398   8.834   3.767 -1.0699 -0.4577 -0.1592
  886MOL0     O19499   4.291   8.778   3.692 -0.5481  0.8948 -0.2589
  886MOL0     C19500   4.194   8.703   3.759 -0.3253 -0.5585  0.4451
  886MOL0     C19501   4.125   8.602   3.691 -0.5464 -1.1555  0.0137
  886MOL0     C19502   4.037   8.518   3.761  0.1888 -0.2572  0.4250
  886MOL0     C19503   3.990   8.550   3.895 -0.1371 -0.9171  1.1903
  886MOL0     C19504   3.878   8.473   3.962 -0.4702  1.1856 -0.5515
  886MOL0     O19505   3.847   8.509   4.089  0.3779 -0.8397  0.5425
  886MOL0     C19506   3.716   8.472   4.135  0.1043  0.0883  0.2697
  886MOL0     C19507   3.604   8.538   4.089 -0.1297 -0.0730 -0.3877
  886MOL0     C19508   3.468   8.501   4.131 -0.1970 -1.2949 -0.2588
  886MOL0     C19509   3.449   8.392   4.213  0.0047  0.3382 -0.0367
  886MOL0     O19510   3.328   8.347   4.239  0.7383  0.8431  0.7556
  886MOL0     C19511   3.210   8.428   4.242 -0.3433 -0.5193  0.2729
  886MOL0     C19512   3.120   8.350   4.334  0.2461 -0.0888 -0.4072
  886MOL0     C19513   2.999   8.442   4.354  0.1262 -0.6529  0.7509
  886MOL0     C19514   2.916   8.455   4.228 -0.1489 -0.1290  0.1352
  886MOL0     C19515   2.784   8.530   4.254 -0.0523  0.6529 -1.0681
  886MOL0     C19516   2.676   8.485   4.151  0.2266 -0.0815 -1.4070
  886MOL0     C19517   2.616   8.350   4.162 -0.2404  0.1253  0.3781
  886MOL0     C19518   2.562   8.316   4.299 -0.1513  0.2375  0.6336
  886MOL0    Cl19519   2.458   8.451   4.363 -0.0888 -0.0230  0.1749
  886MOL0     C19520   3.563   8.306   4.242  0.4120  0.0531 -0.7740
  886MOL0     C19521   3.689   8.349   4.211 -0.6406  0.8182 -0.2039
  886MOL0     O19522   3.824   8.385   3.899  0.7311  0.7534 -0.0067
  886MOL0     C19523   4.064   8.654   3.962  1.0625 -0.1020 -0.3545
  886MOL0     C19524   4.170   8.719   3.898 -0.8582  0.3804 -0.8656
  886MOL0     N19525   4.726   9.121   3.403  0.2120 -0.4608  0.2187
  886MOL0     N19526   4.791   9.226   3.369  1.3416  0.1554  0.2030
  886MOL0     C19527   4.838  10.210   3.114 -0.5287  0.1275 -1.0120
  886MOL0     C19528   4.839  10.241   2.979 -0.1374  0.2580  0.1867
  886MOL0     C19529   5.060  10.517   2.675  0.7084 -0.3889 -1.5480
  886MOL0     C19530   5.137  10.428   2.598  0.0409  1.5251  0.0603
  886MOL0     C19531   5.213  10.463   2.484  0.3215 -0.6793  0.2893
  886MOL0     C19532   5.221  10.599   2.439 -0.5200  0.2023  0.7225
  886MOL0     O19533   5.280  10.638   2.320  0.4106 -0.2136 -0.3402
  886MOL0     C19534   5.350  10.538   2.245 -0.3164 -0.5279 -0.2038
  886MOL0     C19535   5.379  10.577   2.103  0.1924  0.7521 -0.4699
  886MOL0     C19536   5.504  10.662   2.106  0.3144 -0.1825  0.9378
  886MOL0     C19537   5.539  10.726   1.975 -0.1780 -0.0429 -0.8836
  886MOL0     C19538   5.548  10.619   1.879  0.3525  0.6325 -0.5113
  886MOL0     C19539   5.568  10.527   1.803 -0.8179  0.1002  0.0055
  886MOL0     C19540   5.142  10.680   2.517 -0.1392 -0.8298 -0.3703
  886MOL0     C19541   5.067  10.655   2.633 -0.1251  0.3920 -1.1807
  886MOL0     C19542   4.983  10.763   2.686 -0.0537  0.1377 -0.0810
  886MOL0     H19543   5.174  10.280   2.930 -1.3196  0.0035 -3.0789
  886MOL0     H19544   5.172  10.216   3.175  0.4780 -0.6144  1.0959
  886MOL0     H19545   5.121  10.043   3.327  0.1391  0.4088  1.0038
  886MOL0     H19546   5.138  10.190   3.405 -0.7333  0.7561  1.7315
  886MOL0     H19547   4.954  10.105   3.573  0.1942  0.0162  0.1646
  886MOL0     H19548   5.121  10.032   3.573  0.3217  0.8768 -0.0241
  886MOL0     H19549   4.994   9.841   3.423 -1.4530 -0.0229 -1.9563
  886MOL0     H19550   4.852   9.930   3.478 -0.8461  1.5356  2.8607
  886MOL0     H19551   5.034   9.819   3.699  0.8093 -0.0146 -2.3282
  886MOL0     H19552   4.877   9.900   3.706  1.5361  0.3677  1.9996
  886MOL0     H19553   4.841   9.665   3.730  3.5093  1.6043  2.9587
  886MOL0     H19554   4.786   9.698   3.565  0.8082 -2.2820 -0.7297
  886MOL0     H19555   5.015   9.615   3.483 -0.5247 -0.9510 -1.3872
  886MOL0     H19556   5.072   9.591   3.649  0.3561  3.2870  0.0033
  886MOL0     H19557   4.852   9.435   3.660 -0.3460  1.6128 -0.5385
  886MOL0     H19558   4.972   9.373   3.550  0.5404 -0.8583  1.9159
  886MOL0     H19559   4.719   9.518   3.492  0.9678  0.2814  0.9968
  886MOL0     H19560   4.840   9.503   3.361  2.2832 -2.0284 -0.1526
  886MOL0     H19561   4.544   9.341   3.564 -0.9378 -1.4250 -2.1769
  886MOL0     H19562   4.484   9.132   3.645  1.2133  0.5048  0.4338
  886MOL0     H19563   4.453   9.021   3.514 -2.8202  2.0861  2.1768
  886MOL0     H19564   4.698   8.929   3.600 -0.5792 -0.3789 -1.9572
  886MOL0     H19565   4.645   9.015   3.745  0.5089  0.8467 -0.4012
  886MOL0     H19566   4.605   8.776   3.766  1.3583  2.7950  1.0794
  886MOL0     H19567   4.530   8.768   3.610  3.5042 -0.4836 -0.4600
  886MOL0     H19568   4.371   8.936   3.794 -0.6405 -1.2106  3.7555
  886MOL0     H19569   4.413   8.779   3.860 -0.0698 -0.3609 -0.2564
  886MOL0     H19570   4.138   8.591   3.584  1.2814 -0.4423  0.1272
  886MOL0     H19571   3.984   8.437   3.713 -2.8992  1.2948  0.9618
  886MOL0     H19572   3.625   8.623   4.024 -0.1298  1.3679  1.4256
  886MOL0     H19573   3.388   8.551   4.078 -0.7216 -1.1179  0.6814
  886MOL0     H19574   3.246   8.524   4.281 -0.5572  0.8107 -2.5800
  886MOL0     H19575   3.167   8.434   4.142 -2.5010 -2.5294  0.9872
  886MOL0     H19576   3.085   8.253   4.296 -1.7461  0.1829  0.5811
  886MOL0     H19577   3.182   8.329   4.421 -0.3001 -3.4653 -0.7105
  886MOL0     H19578   2.937   8.394   4.430 -0.9580 -1.9478 -0.8781
  886MOL0     H19579   3.035   8.542   4.381 -0.4060 -0.2802  0.1140
  886MOL0     H19580   2.895   8.360   4.179 -3.2183  0.7562 -0.4791
  886MOL0     H19581   2.970   8.511   4.151  3.0526 -3.0357  0.0398
  886MOL0     H19582   2.801   8.637   4.236 -1.2726  1.3176  1.3217
  886MOL0     H19583   2.753   8.516   4.358  1.3757  0.6698 -0.6245
  886MOL0     H19584   2.595   8.556   4.168  0.1731 -0.7353  1.5137
  886MOL0     H19585   2.715   8.502   4.050 -0.4782  3.5295 -1.2152
  886MOL0     H19586   2.675   8.262   4.135 -2.5906 -0.2413 -4.6880
  886MOL0     H19587   2.540   8.365   4.085  0.0281 -0.1810  0.0486
  886MOL0     H19588   2.510   8.220   4.298 -0.3449  0.2697  2.9272
  886MOL0     H19589   2.638   8.294   4.374 -0.5274 -2.2613  0.3660
  886MOL0     H19590   3.555   8.213   4.297 -0.2755  0.6744  0.1967
  886MOL0     H19591   3.778   8.297   4.244  0.9608  3.1363 -0.6018
  886MOL0     H19592   4.040   8.668   4.067  0.1041 -1.0930 -0.4235
  886MOL0     H19593   4.227   8.797   3.946  1.7656 -2.1824  0.5298
  886MOL0     H19594   4.741  10.189   3.158  0.6520 -2.4901  0.5807
  886MOL0     H19595   4.739  10.249   2.939 -0.4690 -1.7693  0.4925
  886MOL0     H19596   5.135  10.323   2.627 -0.1906  1.9786  1.8419
  886MOL0     H19597   5.283  10.393   2.440  1.3191  2.4698 -3.7644
  886MOL0     H19598   5.278  10.457   2.226 -2.2890  1.1850 -0.3576
  886MOL0     H19599   5.431  10.490   2.302  1.0292  1.0556 -0.7096
  886MOL0     H19600   5.294  10.634   2.065  0.3675  1.9565  0.8330
  886MOL0     H19601   5.401  10.487   2.045 -3.4425 -0.0010 -0.9230
  886MOL0     H19602   5.599  10.614   2.133  0.9707  1.1058  1.0037
  886MOL0     H19603   5.489  10.738   2.184 -2.7064  0.0106  0.3036
  886MOL0     H19604   5.452  10.785   1.945 -0.0610  1.4196  1.4019
  886MOL0     H19605   5.631  10.786   1.974  0.6930 -1.1534  1.7336
  886MOL0     H19606   5.577  10.453   1.726  2.2086  0.8551 -0.5050
  886MOL0     H19607   5.139  10.783   2.482 -0.3428 -0.9536 -0.7226
  886MOL0     H19608   4.956  10.847   2.621 -0.2621  1.7842  2.0402
  886MOL0     H19609   4.883  10.724   2.704 -1.2766  3.5542  1.4116
  886MOL0     H19610   5.027  10.819   2.770  1.6929  1.1710 -1.5903
  887MOL0     O19611   0.887   2.705   9.202  0.8274  0.0049 -0.4393
  887MOL0     C19612   0.803   2.617   9.166  0.0022 -0.7711  0.6649
  887MOL0     O19613   0.829   2.525   9.063  0.0344 -0.0714 -0.8985
  887MOL0     C19614   0.956   2.512   9.021 -0.7193 -0.3848 -0.0092
  887MOL0     C19615   0.985   2.531   8.884 -0.2445 -0.5022  0.5661
  887MOL0     C19616   1.115   2.542   8.845  0.1494 -0.5595 -1.3190
  887MOL0     C19617   1.221   2.520   8.930  0.0975 -0.8202 -0.1733
  887MOL0     O19618   1.343   2.510   8.865 -0.2945 -0.0708  0.0268
  887MOL0     C19619   1.456   2.553   8.938  0.8930  0.9037  0.0801
  887MOL0     C19620   1.569   2.596   8.844  1.1256  0.3364 -0.4272
  887MOL0     C19621   1.610   2.477   8.762 -0.4218 -0.0793 -0.8287
  887MOL0     C19622   1.708   2.529   8.646 -0.6940 -0.0410 -0.3249
  887MOL0     C19623   1.758   2.419   8.556 -0.1149 -0.3881 -0.1224
  887MOL0     C19624   1.668   2.338   8.459  1.0833 -0.1905 -0.3184
  887MOL0     C19625   1.742   2.243   8.370 -0.2130  0.1223  0.2870
  887MOL0     C19626   1.677   2.216   8.236  0.7041  0.0324 -0.5093
  887MOL0     N19627   1.726   2.093   8.168  0.4333  0.3370  0.5999
  887MOL0     C19628   1.657   1.988   8.104 -0.0767 -0.3429  0.8598
  887MOL0     C19629   1.751   1.903   8.060 -0.6762  1.1414  1.0303
  887MOL0     C19630   1.727   1.774   7.990 -0.4590  0.2831  0.0820
  887MOL0     C19631   1.701   1.654   8.095 -0.8226 -0.4174 -0.3624
  887MOL0     C19632   1.652   1.523   8.011  0.4310  0.4337 -0.7012
  887MOL0     C19633   1.755   1.472   7.918  0.0318 -0.2191  0.2823
  887MOL0     O19634   1.879   1.445   7.993 -0.2337 -0.0744  0.5355
  887MOL0     C19635   1.984   1.459   7.904  0.7631  0.9377  0.6558
  887MOL0     C19636   1.991   1.391   7.775 -0.0607  0.0878 -0.6169
  887MOL0     C19637   2.117   1.391   7.714  0.6452 -0.0642 -0.5365
  887MOL0     C19638   2.232   1.450   7.770  0.2268 -0.7854  0.5792
  887MOL0     C19639   2.367   1.458   7.707  0.2017 -0.2923 -0.7829
  887MOL0     O19640   2.454   1.559   7.742  0.4011 -0.6672 -0.0176
  887MOL0     C19641   2.582   1.547   7.691  0.1871  0.4027  0.1517
  887MOL0     C19642   2.667   1.435   7.720  0.0088  0.6896  0.6336
  887MOL0     C19643   2.789   1.427   7.653  0.5796 -0.2455 -0.2719
  887MOL0     C19644   2.830   1.532   7.563 -0.1100 -0.3424 -0.0194
  887MOL0     O19645   2.956   1.522   7.499  0.1912  0.4076 -0.5266
  887MOL0     C19646   3.059   1.429   7.561 -0.4025 -0.0737 -0.4854
  887MOL0     C19647   3.189   1.447   7.480  0.4731  0.1391 -0.8441
  887MOL0     C19648   3.305   1.353   7.515 -0.4506 -0.1780 -0.0211
  887MOL0     C19649   3.428   1.413   7.440  0.1104  0.2173 -0.3804
  887MOL0     C19650   3.535   1.300   7.457  0.4634  0.2255  0.1103
  887MOL0     C19651   3.606   1.292   7.595 -1.0684 -0.2925 -0.3928
  887MOL0     C19652   3.725   1.192   7.585  0.1863 -0.3154 -0.3713
  887MOL0     C19653   3.839   1.188   7.691 -0.7245  0.1451  0.7481
  887MOL0    Cl19654   3.804   1.086   7.826 -0.0729  0.5179 -0.3993
  887MOL0     C19655   2.743   1.640   7.541  0.1753  0.2944  0.8294
  887MOL0     C19656   2.620   1.640   7.605 -0.1746 -1.0007  0.0432
  887MOL0     O19657   2.388   1.356   7.648  0.3282  0.2773 -0.5331
  887MOL0     C19658   2.221   1.506   7.896  0.2014 -0.5455 -0.0019
  887MOL0     C19659   2.096   1.501   7.965 -0.0165 -0.6010 -0.5746
  887MOL0     N19660   1.873   1.958   8.097 -1.3798  0.1693  0.1123
  887MOL0     N19661   1.863   2.063   8.164  0.3461 -0.5601 -0.0344
  887MOL0     C19662   1.189   2.497   9.068 -0.0248  0.1278  2.3491
  887MOL0     C19663   1.055   2.475   9.106 -0.2273  0.9901 -0.0983
  887MOL0     C19664   0.670   2.613   9.237 -0.2996 -0.3115 -0.3426
  887MOL0     C19665   0.559   2.554   9.180  0.6033  0.2791 -0.7961
  887MOL0     C19666   0.444   2.528   9.249 -0.0217  1.0003  0.3164
  887MOL0     C19667   0.433   2.566   9.382 -0.9944 -0.4584  0.0467
  887MOL0     O19668   0.313   2.557   9.438  0.5240  0.2255 -0.0168
  887MOL0     C19669   0.298   2.503   9.569 -0.2258  0.3431 -0.0778
  887MOL0     C19670   0.319   2.354   9.587 -0.0408  0.3135  0.0243
  887MOL0     C19671   0.235   2.271   9.492  0.1030  0.3308 -0.2696
  887MOL0     C19672   0.087   2.253   9.518  0.0209 -0.2811  0.5263
  887MOL0     C19673   0.054   2.165   9.624 -0.5324 -0.2199 -0.2795
  887MOL0     C19674   0.032   2.104   9.725  0.2057  0.9592  1.2845
  887MOL0     C19675   0.537   2.629   9.442 -1.0484  0.1078  0.3410
  887MOL0     C19676   0.652   2.658   9.368 -0.5925  0.8584 -0.6972
  887MOL0     C19677   0.767   2.702   9.461  0.4331  0.1060  0.1058
  887MOL0     H19678   0.917   2.564   8.806  1.7205  1.3185 -0.4688
  887MOL0     H19679   1.144   2.556   8.742 -0.6813 -3.6728 -2.0753
  887MOL0     H19680   1.449   2.623   9.022  2.0560  0.4535  0.5879
  887MOL0     H19681   1.465   2.459   8.993 -5.6809 -1.0656 -1.4099
  887MOL0     H19682   1.660   2.637   8.888  1.9531 -1.2382 -0.5838
  887MOL0     H19683   1.533   2.668   8.770 -1.0901 -0.2090  0.0446
  887MOL0     H19684   1.537   2.424   8.700  0.6080 -1.5867 -0.8060
  887MOL0     H19685   1.645   2.407   8.839  0.1470  0.6838 -0.3801
  887MOL0     H19686   1.641   2.594   8.588  0.5575  2.5454  0.9243
  887MOL0     H19687   1.794   2.579   8.690 -1.2353  2.2081 -1.6558
  887MOL0     H19688   1.826   2.470   8.487  3.9245 -1.5882  2.6127
  887MOL0     H19689   1.812   2.359   8.630 -2.6614  0.6761  2.8375
  887MOL0     H19690   1.597   2.282   8.521  4.5182 -1.3559  2.9559
  887MOL0     H19691   1.620   2.410   8.392  0.6381  1.3388  1.5457
  887MOL0     H19692   1.764   2.155   8.430 -0.2653 -0.7032 -0.8776
  887MOL0     H19693   1.840   2.287   8.346  0.4325 -2.0436 -1.2581
  887MOL0     H19694   1.577   2.175   8.252  1.8570 -2.8955 -0.1088
  887MOL0     H19695   1.672   2.302   8.170  0.0517  1.1820  0.9762
  887MOL0     H19696   1.550   1.983   8.091 -1.1685  4.2931  5.1520
  887MOL0     H19697   1.640   1.788   7.926  2.1121  0.0938 -3.8252
  887MOL0     H19698   1.807   1.739   7.924 -1.6172 -0.4492 -0.9813
  887MOL0     H19699   1.798   1.643   8.145 -0.5117  2.1561 -0.2625
  887MOL0     H19700   1.626   1.683   8.169 -0.3791 -1.0192  0.3338
  887MOL0     H19701   1.560   1.546   7.957 -0.9910 -1.7851  0.5702
  887MOL0     H19702   1.622   1.435   8.070 -2.8519 -1.0573 -4.1891
  887MOL0     H19703   1.763   1.546   7.838  1.0245 -1.2284 -0.5823
  887MOL0     H19704   1.712   1.382   7.872 -1.7876  1.0522 -0.6290
  887MOL0     H19705   1.902   1.343   7.735 -0.2488 -0.2967  0.2397
  887MOL0     H19706   2.132   1.356   7.612  4.6495 -1.5422  0.3844
  887MOL0     H19707   2.635   1.343   7.767 -0.3329 -0.7910 -2.3270
  887MOL0     H19708   2.844   1.336   7.675 -1.2169 -1.4406 -0.5866
  887MOL0     H19709   3.066   1.458   7.666 -3.5483 -0.8510  0.0148
  887MOL0     H19710   3.032   1.323   7.558 -1.5672  0.2149 -0.6876
  887MOL0     H19711   3.152   1.444   7.377  0.5596  0.0776 -0.8732
  887MOL0     H19712   3.223   1.549   7.495  1.3763  0.1873 -2.9131
  887MOL0     H19713   3.329   1.353   7.622  0.9954  0.3645 -0.3328
  887MOL0     H19714   3.274   1.254   7.481  0.6771 -1.7412  3.0669
  887MOL0     H19715   3.465   1.505   7.487 -0.2853 -0.0893  0.5547
  887MOL0     H19716   3.406   1.431   7.335 -2.6174 -0.9438 -0.0754
  887MOL0     H19717   3.597   1.319   7.368 -0.0351  0.4231 -0.1973
  887MOL0     H19718   3.486   1.203   7.443 -2.5783  1.4374  1.5188
  887MOL0     H19719   3.653   1.386   7.623  0.5746 -0.7642 -1.4273
  887MOL0     H19720   3.533   1.250   7.665 -1.2644 -1.1818 -1.1147
  887MOL0     H19721   3.771   1.206   7.487  0.7336  0.6235  0.0091
  887MOL0     H19722   3.699   1.087   7.593  0.9259 -0.6562 -1.9026
  887MOL0     H19723   3.922   1.136   7.642  0.6417  0.6573  2.4227
  887MOL0     H19724   3.858   1.289   7.728  0.7644  0.5115 -0.9079
  887MOL0     H19725   2.773   1.730   7.487  1.1974  0.2264  1.2593
  887MOL0     H19726   2.562   1.721   7.565 -0.7864 -2.1646 -1.5362
  887MOL0     H19727   2.314   1.552   7.929  0.5483  1.3609 -3.2183
  887MOL0     H19728   2.086   1.533   8.068  1.6778 -0.4818 -0.4174
  887MOL0     H19729   1.261   2.471   9.145  0.2276  0.0609  2.0899
  887MOL0     H19730   1.034   2.452   9.210  2.5539  3.3729  1.1231
  887MOL0     H19731   0.568   2.507   9.082  0.8836 -0.9298 -0.2094
  887MOL0     H19732   0.365   2.477   9.194  0.7998 -0.9104  0.8398
  887MOL0     H19733   0.195   2.530   9.594 -0.7035 -2.6761  1.6510
  887MOL0     H19734   0.358   2.561   9.640  2.3506 -1.4731 -0.6012
  887MOL0     H19735   0.307   2.333   9.694 -0.6445  4.1231  0.8316
  887MOL0     H19736   0.424   2.328   9.571  0.5783  2.0320  1.0238
  887MOL0     H19737   0.278   2.171   9.480 -0.1585  0.4020 -2.1756
  887MOL0     H19738   0.260   2.317   9.396  4.1511  2.4118  1.5420
  887MOL0     H19739   0.041   2.344   9.556  1.8535 -0.2829  3.0633
  887MOL0     H19740   0.038   2.213   9.429 -1.5979  0.7516  0.9147
  887MOL0     H19741   0.031   2.047   9.815 -1.9826 -1.5150 -0.1589
  887MOL0     H19742   0.539   2.643   9.550 -2.8866 -1.4785  0.6361
  887MOL0     H19743   0.783   2.809   9.444 -1.8851  0.5213  0.2352
  887MOL0     H19744   0.736   2.690   9.566 -1.4886  2.2799 -0.1206
  887MOL0     H19745   0.857   2.644   9.441  0.6177 -0.7147  2.9248
  888MOL0     O19746   3.474   4.257   7.888  0.4063 -0.0059 -0.9785
  888MOL0     C19747   3.395   4.233   7.797  0.3009 -1.5272  0.0344
  888MOL0     O19748   3.257   4.248   7.813 -0.5230 -0.0981 -1.2316
  888MOL0     C19749   3.204   4.285   7.930 -0.5766  0.5183  0.4265
  888MOL0     C19750   3.095   4.207   7.970 -0.3477 -0.0558 -0.8216
  888MOL0     C19751   3.031   4.217   8.095  0.2720  0.4091 -0.3591
  888MOL0     C19752   3.086   4.300   8.192  0.1218  0.0639 -0.2453
  888MOL0     O19753   3.026   4.301   8.321  0.4005  0.7949 -0.1295
  888MOL0     C19754   2.975   4.419   8.369 -0.4813  0.1000 -0.0214
  888MOL0     C19755   2.843   4.391   8.456  0.1565 -0.7862  0.0950
  888MOL0     C19756   2.860   4.306   8.581  0.8717  0.3008 -1.2066
  888MOL0     C19757   2.730   4.317   8.668  0.0509  0.6374 -0.0228
  888MOL0     C19758   2.605   4.245   8.604 -0.3747  1.0454  0.8597
  888MOL0     C19759   2.492   4.226   8.712 -0.2506  0.4996  0.5284
  888MOL0     C19760   2.388   4.114   8.703  0.4378 -0.2155 -1.1644
  888MOL0     C19761   2.311   4.121   8.568  0.1620  0.6271 -0.1142
  888MOL0     N19762   2.231   4.003   8.554  0.3186  0.1999 -0.0861
  888MOL0     C19763   2.265   3.921   8.452 -0.3999  0.8833 -0.0243
  888MOL0     C19764   2.149   3.860   8.418  0.1908  0.5625  0.5521
  888MOL0     C19765   2.111   3.770   8.300  0.0242  0.3167  0.2671
  888MOL0     C19766   2.056   3.855   8.181 -0.2087  0.4613 -0.1658
  888MOL0     C19767   1.946   3.790   8.090 -0.4569 -0.2379 -0.1169
  888MOL0     C19768   1.825   3.749   8.170  0.7305  0.8249 -1.0204
  888MOL0     O19769   1.718   3.738   8.073  0.7206 -0.1104  0.7980
  888MOL0     C19770   1.594   3.696   8.108  0.0541 -1.4572  0.8293
  888MOL0     C19771   1.568   3.571   8.157 -0.5154 -0.4478  0.1666
  888MOL0     C19772   1.430   3.535   8.184 -0.3816 -0.5896  0.7468
  888MOL0     C19773   1.323   3.621   8.191 -0.8620 -1.2373  0.5769
  888MOL0     C19774   1.189   3.585   8.226 -0.2118 -0.5448 -0.4481
  888MOL0     O19775   1.085   3.670   8.192 -0.6852  0.6464  0.2182
  888MOL0     C19776   0.968   3.629   8.242 -0.7391 -0.3660 -0.6055
  888MOL0     C19777   0.957   3.596   8.378  0.0587  0.3144 -0.5484
  888MOL0     C19778   0.832   3.578   8.438 -0.2225 -0.6083 -0.7822
  888MOL0     C19779   0.711   3.579   8.364  0.3143  0.1610  0.5053
  888MOL0     O19780   0.592   3.562   8.416 -0.5936  0.0993 -0.0797
  888MOL0     C19781   0.564   3.444   8.500  0.1050 -0.4279  0.2563
  888MOL0     C19782   0.417   3.476   8.547  0.7170  0.1023  0.3931
  888MOL0     C19783   0.395   3.590   8.651  0.6985 -0.4637 -0.9630
  888MOL0     C19784   0.261   3.571   8.725 -0.8415 -0.9258 -0.0385
  888MOL0     C19785   0.147   3.589   8.628 -0.4858  0.6928  0.2406
  888MOL0     C19786   0.131   3.734   8.593 -0.0532 -0.1561  1.0513
  888MOL0     C19787  -0.010   3.761   8.519 -0.0325  0.0524 -0.7541
  888MOL0     C19788  -0.028   3.900   8.473 -0.3769  0.1526  0.0666
  888MOL0    Cl19789   0.065   3.947   8.331  0.0820  0.2293  0.5372
  888MOL0     C19790   0.720   3.609   8.228  0.9345  0.2070 -0.6630
  888MOL0     C19791   0.848   3.638   8.167 -0.0456  0.0587  0.0627
  888MOL0     O19792   1.176   3.472   8.274  0.0817 -0.0267  1.1002
  888MOL0     C19793   1.359   3.762   8.153 -0.3373 -0.1230  0.5093
  888MOL0     C19794   1.495   3.788   8.105 -0.5537 -0.3700 -0.6795
  888MOL0     N19795   2.056   3.892   8.514 -0.2398 -0.4840 -0.6502
  888MOL0     N19796   2.099   3.982   8.588 -0.2841 -0.2646 -0.6094
  888MOL0     C19797   3.199   4.374   8.153 -1.0263 -0.4502 -0.6272
  888MOL0     C19798   3.251   4.375   8.021 -0.4914  0.1452  0.6219
  888MOL0     C19799   3.441   4.174   7.672  0.2601  0.5298  1.9129
  888MOL0     C19800   3.350   4.129   7.585  0.2207  1.1059  0.2863
  888MOL0     C19801   3.381   4.070   7.460 -0.2052  0.1190  0.0282
  888MOL0     C19802   3.514   4.065   7.416 -0.0267 -0.7574 -0.7156
  888MOL0     O19803   3.555   4.007   7.298  0.4031  0.1740  0.1645
  888MOL0     C19804   3.469   3.915   7.236 -0.4425 -0.3469  0.4619
  888MOL0     C19805   3.537   3.837   7.128 -0.0096  0.0863 -0.0458
  888MOL0     C19806   3.611   3.935   7.031  0.4060 -0.2452 -0.4611
  888MOL0     C19807   3.685   3.864   6.910  0.7828 -0.1150 -0.0322
  888MOL0     C19808   3.590   3.808   6.813 -0.2403  0.2352  0.6059
  888MOL0     C19809   3.517   3.764   6.726  0.5546  0.5239 -0.5341
  888MOL0     C19810   3.610   4.121   7.507 -0.0063  0.2286  1.2411
  888MOL0     C19811   3.579   4.173   7.633  0.7888 -0.3974 -0.0254
  888MOL0     C19812   3.701   4.215   7.715 -0.0629  1.0539 -0.7275
  888MOL0     H19813   3.063   4.126   7.905 -1.1738  1.7272 -2.7379
  888MOL0     H19814   2.951   4.149   8.120  1.4713 -0.4626  1.3110
  888MOL0     H19815   3.041   4.466   8.443  0.6602  0.2421 -1.0899
  888MOL0     H19816   2.964   4.486   8.284 -0.2481  1.0639  0.6947
  888MOL0     H19817   2.771   4.338   8.394  1.2777 -0.3777 -1.6030
  888MOL0     H19818   2.816   4.494   8.483  6.6142  0.9888  1.7309
  888MOL0     H19819   2.948   4.347   8.631  0.2484  1.2163 -0.8409
  888MOL0     H19820   2.885   4.203   8.551  0.7363  0.0989 -0.6504
  888MOL0     H19821   2.756   4.287   8.770  0.0898  3.4698  0.8914
  888MOL0     H19822   2.703   4.423   8.667  2.2516  1.2550 -0.2506
  888MOL0     H19823   2.567   4.303   8.520 -1.4081 -0.2861  0.3735
  888MOL0     H19824   2.617   4.141   8.572 -1.8122  1.2622 -0.4796
  888MOL0     H19825   2.539   4.209   8.810  2.9606  0.2547 -0.9114
  888MOL0     H19826   2.428   4.314   8.721 -2.5207 -1.2281  2.4852
  888MOL0     H19827   2.328   4.130   8.793  2.4114  2.9252 -0.2488
  888MOL0     H19828   2.431   4.013   8.710 -0.4057 -0.5349 -0.5440
  888MOL0     H19829   2.249   4.212   8.562 -3.2226 -1.5123 -0.3416
  888MOL0     H19830   2.382   4.137   8.486 -0.1078  1.9928 -0.1094
  888MOL0     H19831   2.358   3.910   8.397  1.5723 -1.5235  3.3934
  888MOL0     H19832   2.198   3.707   8.280 -0.9611 -0.8577 -0.4307
  888MOL0     H19833   2.040   3.691   8.326  0.5735 -0.6599 -1.1080
  888MOL0     H19834   2.014   3.949   8.217 -0.8389 -0.8170  2.7667
  888MOL0     H19835   2.143   3.885   8.123 -0.1473 -0.7689 -0.7542
  888MOL0     H19836   1.993   3.708   8.036  2.4254  2.7688 -2.5990
  888MOL0     H19837   1.910   3.862   8.016  1.4162  0.8726 -0.0273
  888MOL0     H19838   1.785   3.817   8.245  1.8416 -1.3646  1.7199
  888MOL0     H19839   1.852   3.654   8.217  0.2268  0.8546 -0.6684
  888MOL0     H19840   1.649   3.498   8.162 -0.1854 -0.0301  2.6441
  888MOL0     H19841   1.422   3.430   8.209  3.7752 -1.6226 -1.2981
  888MOL0     H19842   1.047   3.592   8.438  1.9178  0.9157 -3.1005
  888MOL0     H19843   0.835   3.552   8.543 -1.9810  0.2543 -0.4659
  888MOL0     H19844   0.560   3.361   8.429 -1.7436  1.4191 -2.0050
  888MOL0     H19845   0.636   3.418   8.577  1.5106 -4.2479 -2.1009
  888MOL0     H19846   0.348   3.491   8.463  1.9264  2.2832 -0.2744
  888MOL0     H19847   0.391   3.385   8.603  2.4104  0.2900  1.5563
  888MOL0     H19848   0.466   3.602   8.734  1.8181  0.4501 -2.0200
  888MOL0     H19849   0.394   3.681   8.591 -0.2653 -0.3345 -0.7542
  888MOL0     H19850   0.263   3.645   8.806  0.6645  1.3254 -1.9768
  888MOL0     H19851   0.250   3.474   8.773 -1.6356 -0.9190 -0.2014
  888MOL0     H19852   0.056   3.550   8.675 -2.2498 -0.5335 -3.7286
  888MOL0     H19853   0.151   3.535   8.533  1.0321  1.9762 -0.4664
  888MOL0     H19854   0.132   3.790   8.687  1.2783  0.2619  0.8071
  888MOL0     H19855   0.203   3.760   8.515 -0.5218 -1.5841  0.1040
  888MOL0     H19856  -0.082   3.735   8.597 -0.1911  0.0914 -0.8875
  888MOL0     H19857  -0.030   3.696   8.433 -0.3819  0.0598 -0.6804
  888MOL0     H19858  -0.134   3.903   8.445  0.0405 -2.1747 -2.1364
  888MOL0     H19859  -0.016   3.966   8.559 -3.5777 -1.1205  1.6646
  888MOL0     H19860   0.622   3.614   8.183  0.5071 -2.4616 -0.1923
  888MOL0     H19861   0.841   3.673   8.065 -0.1464  0.3378  0.1620
  888MOL0     H19862   1.280   3.837   8.152  1.1405  1.5681  2.3894
  888MOL0     H19863   1.514   3.890   8.071 -0.0695  0.4410  1.7761
  888MOL0     H19864   3.228   4.448   8.227 -2.3424 -0.5373  0.0208
  888MOL0     H19865   3.331   4.440   7.990  1.2598 -1.2773  1.9408
  888MOL0     H19866   3.246   4.109   7.610 -0.0368 -3.0904 -3.0436
  888MOL0     H19867   3.311   4.026   7.389 -2.3233  1.1303  1.3845
  888MOL0     H19868   3.381   3.962   7.190 -1.6042 -2.0674  0.7942
  888MOL0     H19869   3.431   3.845   7.312 -0.7549 -2.5035 -1.5490
  888MOL0     H19870   3.465   3.772   7.076  1.3520  1.1354 -3.5555
  888MOL0     H19871   3.610   3.773   7.179  0.4433 -0.3111 -1.1420
  888MOL0     H19872   3.679   4.005   7.080  0.7501  1.0256 -2.5941
  888MOL0     H19873   3.533   4.003   6.996  2.1117  1.6263 -0.8348
  888MOL0     H19874   3.740   3.945   6.861  2.4331 -0.0210  1.8605
  888MOL0     H19875   3.753   3.792   6.957  2.3819  1.6573  0.5129
  888MOL0     H19876   3.440   3.719   6.666 -0.4142 -1.2663  1.8772
  888MOL0     H19877   3.712   4.126   7.470 -0.4874  1.0891 -0.0214
  888MOL0     H19878   3.686   4.184   7.819  0.0989 -0.3880 -1.1114
  888MOL0     H19879   3.792   4.163   7.686  0.7427  0.4961  2.4602
  888MOL0     H19880   3.719   4.323   7.713  0.0058  1.0515 -0.3442
  889MOL0     O19881   4.777   3.818   7.681 -0.6086  0.6213  0.2995
  889MOL0     C19882   4.849   3.911   7.658  0.8397 -0.0175 -0.4331
  889MOL0     O19883   4.866   4.019   7.737 -0.0052 -0.4058  0.5216
  889MOL0     C19884   4.809   4.017   7.861  0.4180 -0.1334  0.8079
  889MOL0     C19885   4.722   4.118   7.902 -0.1169  0.4444  0.3320
  889MOL0     C19886   4.660   4.101   8.023  0.0128 -0.7768 -0.4194
  889MOL0     C19887   4.677   3.984   8.100  0.5589 -0.6503  0.9464
  889MOL0     O19888   4.605   3.977   8.217 -0.3971 -0.6953  0.2491
  889MOL0     C19889   4.667   3.943   8.338 -0.4632  0.8926 -0.7381
  889MOL0     C19890   4.557   3.894   8.439  0.0927  0.2291  0.6638
  889MOL0     C19891   4.617   3.866   8.572 -0.2228  0.2349 -0.6487
  889MOL0     C19892   4.514   3.899   8.690  0.0957  0.5488  0.9718
  889MOL0     C19893   4.567   3.857   8.830 -0.4080 -0.1510 -0.0045
  889MOL0     C19894   4.664   3.961   8.889 -0.5107  0.4293  0.4526
  889MOL0     C19895   4.605   4.078   8.966 -0.9635 -0.0379  1.0222
  889MOL0     C19896   4.702   4.155   9.060 -0.0136  0.5059  0.1311
  889MOL0     N19897   4.823   4.187   8.985  0.0925 -0.2352 -0.6743
  889MOL0     C19898   4.841   4.303   8.910 -0.2364  1.1506 -0.4513
  889MOL0     C19899   4.950   4.258   8.836  0.8155 -1.0688  0.0165
  889MOL0     C19900   5.020   4.332   8.729  0.0760  0.8637  0.4355
  889MOL0     C19901   4.947   4.325   8.594 -0.1543  0.3703  0.1795
  889MOL0     C19902   5.030   4.380   8.475 -0.3087  0.3233 -0.9239
  889MOL0     C19903   5.135   4.283   8.444 -0.0770  0.2549 -0.7378
  889MOL0     O19904   5.222   4.323   8.334 -0.2867  0.4466  0.3933
  889MOL0     C19905   5.170   4.337   8.208  0.8625 -0.7410 -0.6832
  889MOL0     C19906   5.051   4.283   8.169 -0.3394 -0.1194  0.0104
  889MOL0     C19907   5.014   4.313   8.039 -0.0280  0.1236  0.1320
  889MOL0     C19908   5.088   4.398   7.951 -1.1219 -0.2697 -1.1380
  889MOL0     C19909   5.053   4.420   7.807  0.4798 -0.6506  0.0162
  889MOL0     O19910   5.151   4.465   7.723  0.1026 -0.9720  0.2562
  889MOL0     C19911   5.129   4.506   7.598 -0.6127  0.4958 -0.0406
  889MOL0     C19912   5.252   4.520   7.522 -0.5213 -1.0536 -0.1978
  889MOL0     C19913   5.237   4.572   7.388 -0.0493  0.0603 -0.4658
  889MOL0     C19914   5.123   4.620   7.332 -0.0995  1.2329 -0.9383
  889MOL0     O19915   5.101   4.688   7.221 -0.1126  0.6907 -0.1186
  889MOL0     C19916   5.201   4.792   7.199 -0.3802 -0.1869  0.7973
  889MOL0     C19917   5.141   4.917   7.131  0.1147  0.7050  0.5418
  889MOL0     C19918   5.254   5.006   7.066 -0.0040  0.0496  0.0077
  889MOL0     C19919   5.208   5.148   7.025  0.4711 -0.8224 -0.0129
  889MOL0     C19920   5.080   5.154   6.939  0.0940 -0.6974  0.6880
  889MOL0     C19921   5.034   5.295   6.905 -0.7743 -0.1954  0.0133
  889MOL0     C19922   4.889   5.292   6.865  0.2828  0.3008 -0.4529
  889MOL0     C19923   4.843   5.427   6.794  0.7932  0.2944  1.0375
  889MOL0    Cl19924   4.657   5.442   6.752  0.1460  0.2564 -0.0078
  889MOL0     C19925   5.010   4.607   7.406 -0.0815  0.4297 -0.3521
  889MOL0     C19926   5.007   4.547   7.537 -0.2946 -0.2070  1.0717
  889MOL0     O19927   4.933   4.399   7.777  0.1063 -0.1337  0.2184
  889MOL0     C19928   5.213   4.446   7.999  0.0708 -0.6045  0.2966
  889MOL0     C19929   5.245   4.429   8.133  0.1830 -0.2068 -0.6171
  889MOL0     N19930   4.982   4.124   8.867  0.6939 -0.6423 -0.1866
  889MOL0     N19931   4.913   4.086   8.959  0.2639 -0.3259 -0.3140
  889MOL0     C19932   4.772   3.887   8.065  0.3940  0.2561  0.6914
  889MOL0     C19933   4.836   3.908   7.944  0.6358  0.7745  0.1307
  889MOL0     C19934   4.899   3.924   7.515 -0.3227  0.9365 -0.1919
  889MOL0     C19935   4.895   3.807   7.435  0.0767 -1.0013 -0.9378
  889MOL0     C19936   4.906   3.806   7.298  1.4944  0.2573  0.1928
  889MOL0     C19937   4.940   3.921   7.227  0.3529 -0.3892 -0.6081
  889MOL0     O19938   4.974   3.935   7.099 -0.0194  0.5023 -0.8396
  889MOL0     C19939   4.981   3.823   7.006 -0.2262  0.2169 -0.1785
  889MOL0     C19940   5.040   3.870   6.869 -0.6680 -0.1666  0.2002
  889MOL0     C19941   5.044   3.751   6.776 -0.5449  1.1846  0.1541
  889MOL0     C19942   5.072   3.782   6.629  0.3357 -0.6431 -0.4360
  889MOL0     C19943   4.967   3.849   6.557  0.6027 -0.2239  0.0552
  889MOL0     C19944   4.876   3.892   6.476 -0.4933  0.4829  1.0046
  889MOL0     C19945   4.951   4.039   7.302  1.2169  0.0356 -0.3599
  889MOL0     C19946   4.925   4.041   7.441  0.8771  0.2421 -0.4602
  889MOL0     C19947   4.930   4.176   7.511  0.7467 -0.1521  0.2401
  889MOL0     H19948   4.704   4.200   7.834  1.6807  0.4227 -0.2402
  889MOL0     H19949   4.579   4.163   8.060 -0.7087 -2.0601  0.2242
  889MOL0     H19950   4.734   3.857   8.329  1.9114  2.7887 -2.4030
  889MOL0     H19951   4.726   4.021   8.387  2.8809 -2.0259  0.2665
  889MOL0     H19952   4.494   3.815   8.398 -0.5274 -0.9190  3.5474
  889MOL0     H19953   4.486   3.974   8.461  1.0718  1.3678 -0.2051
  889MOL0     H19954   4.712   3.918   8.589 -0.3423  0.3475 -0.3343
  889MOL0     H19955   4.646   3.760   8.574  2.6856  0.9363  2.5302
  889MOL0     H19956   4.504   4.008   8.691 -3.5777  0.4409 -1.4910
  889MOL0     H19957   4.417   3.851   8.671 -1.2240  2.7727  1.7420
  889MOL0     H19958   4.485   3.843   8.900  1.0812  0.1720  1.9142
  889MOL0     H19959   4.616   3.760   8.820  1.8941  0.7450  1.5624
  889MOL0     H19960   4.724   3.898   8.956 -1.1058  0.3585  0.9285
  889MOL0     H19961   4.728   3.992   8.806 -3.0560  2.6533 -0.8604
  889MOL0     H19962   4.523   4.041   9.028  0.4359 -2.0742  1.7362
  889MOL0     H19963   4.578   4.157   8.895 -0.4560 -2.4773 -2.1277
  889MOL0     H19964   4.653   4.248   9.089  0.5298  1.1201 -0.8572
  889MOL0     H19965   4.720   4.093   9.148  1.5385  1.0163  0.1970
  889MOL0     H19966   4.781   4.393   8.913 -3.8591 -1.0528  2.7841
  889MOL0     H19967   5.043   4.429   8.775 -0.4293 -0.0320  2.7020
  889MOL0     H19968   5.118   4.285   8.730 -0.0002  0.6413  2.9994
  889MOL0     H19969   4.924   4.219   8.583  1.3053 -0.1577  1.8362
  889MOL0     H19970   4.852   4.379   8.590 -1.8902 -2.2213  2.5768
  889MOL0     H19971   5.057   4.483   8.500 -3.3519  0.9568  0.2891
  889MOL0     H19972   4.962   4.384   8.389 -1.4374  2.0805 -0.0262
  889MOL0     H19973   5.093   4.186   8.416  1.3062  0.6936 -4.9639
  889MOL0     H19974   5.199   4.277   8.532 -0.2923  1.5038 -0.4799
  889MOL0     H19975   5.008   4.203   8.228 -0.1759 -2.1594 -2.4556
  889MOL0     H19976   4.931   4.251   8.006  0.7920 -0.9461  0.0420
  889MOL0     H19977   5.341   4.495   7.578 -0.9902  2.4122  2.4660
  889MOL0     H19978   5.327   4.560   7.329  1.8624 -2.6597  2.6970
  889MOL0     H19979   5.232   4.845   7.290  1.3186  1.2802 -0.5497
  889MOL0     H19980   5.289   4.752   7.148 -0.9797  0.2049 -0.5767
  889MOL0     H19981   5.073   4.890   7.049 -0.8830  0.7690  1.3333
  889MOL0     H19982   5.082   4.975   7.203 -1.8963 -0.6099  0.0535
  889MOL0     H19983   5.337   5.003   7.137 -1.2570 -1.1789  1.4736
  889MOL0     H19984   5.294   4.949   6.981 -0.9632  1.6400 -1.5889
  889MOL0     H19985   5.287   5.196   6.967 -0.5040 -1.4003 -1.8868
  889MOL0     H19986   5.198   5.210   7.115 -2.8157  2.1587 -2.1930
  889MOL0     H19987   5.006   5.109   7.005 -1.1470  1.4527  0.8278
  889MOL0     H19988   5.087   5.099   6.844 -0.4621  0.6598 -0.1805
  889MOL0     H19989   5.052   5.361   6.990  0.6943 -0.5174 -0.0342
  889MOL0     H19990   5.101   5.332   6.828 -0.0890 -0.1249  0.6340
  889MOL0     H19991   4.831   5.280   6.957 -1.3224  3.5183 -0.8948
  889MOL0     H19992   4.866   5.214   6.793 -3.1243 -0.6800  1.4779
  889MOL0     H19993   4.873   5.509   6.860  5.3500 -1.1808  1.1651
  889MOL0     H19994   4.900   5.448   6.703  0.1399 -0.1162  0.5293
  889MOL0     H19995   4.920   4.657   7.370 -0.7721 -0.9207 -0.5460
  889MOL0     H19996   4.909   4.549   7.585  0.6370  1.2218  3.0641
  889MOL0     H19997   5.276   4.508   7.937  2.1268 -1.1351  1.7550
  889MOL0     H19998   5.327   4.492   8.167 -0.7209  1.3315 -1.1717
  889MOL0     H19999   4.796   3.793   8.114  1.5613 -0.0572 -0.4392
  889MOL0     H20000   4.911   3.837   7.911  1.6728  0.3577  3.1445
  889MOL0     H20001   4.880   3.717   7.494  0.8316 -1.6437 -1.7037
  889MOL0     H20002   4.900   3.723   7.227 -0.2853  0.3846  0.1502
  889MOL0     H20003   4.887   3.767   6.998  0.3549 -1.0109  1.1693
  889MOL0     H20004   5.055   3.752   7.045 -0.9447  0.2920  1.4079
  889MOL0     H20005   5.132   3.929   6.879 -1.2790  0.5668  1.7537
  889MOL0     H20006   4.964   3.932   6.822  1.8417  2.8918 -0.1351
  889MOL0     H20007   4.955   3.690   6.789 -0.0968  0.2161 -1.1356
  889MOL0     H20008   5.116   3.676   6.809 -3.3209 -0.2412  3.6506
  889MOL0     H20009   5.160   3.848   6.626  1.9443 -2.6769 -3.5980
  889MOL0     H20010   5.099   3.690   6.576 -0.5395 -1.0830 -0.1285
  889MOL0     H20011   4.789   3.928   6.425 -1.5005 -1.4693  1.2606
  889MOL0     H20012   4.989   4.127   7.251 -2.2217  0.6562 -2.1732
  889MOL0     H20013   4.954   4.257   7.441 -0.9167  0.0140 -0.1765
  889MOL0     H20014   4.838   4.204   7.563  0.9100 -1.2934  1.1939
  889MOL0     H20015   5.009   4.178   7.586 -0.2418  1.8398  1.2869
  890MOL0     O20016   6.893   3.453   6.224  0.1905  0.4025  0.7687
  890MOL0     C20017   6.851   3.364   6.145  0.4611 -0.0881 -0.3707
  890MOL0     O20018   6.727   3.336   6.117  0.0493  0.2674 -0.0297
  890MOL0     C20019   6.621   3.376   6.198  0.6981  0.7958 -0.5289
  890MOL0     C20020   6.558   3.276   6.273 -0.4496  0.1783 -0.1747
  890MOL0     C20021   6.455   3.324   6.356 -0.0428  0.9041 -0.5787
  890MOL0     C20022   6.414   3.452   6.377 -0.1370  1.1529  0.4260
  890MOL0     O20023   6.301   3.488   6.442  0.4849  0.0583 -0.6939
  890MOL0     C20024   6.302   3.610   6.517 -0.3283 -0.7182  0.0225
  890MOL0     C20025   6.176   3.611   6.598 -0.2353 -0.7390 -0.8521
  890MOL0     C20026   6.177   3.722   6.698 -0.0820  0.6514 -0.1464
  890MOL0     C20027   6.038   3.740   6.767  2.0010 -0.6471 -0.1553
  890MOL0     C20028   6.048   3.793   6.909  0.4582 -0.0560  0.2650
  890MOL0     C20029   6.107   3.679   7.000 -0.6360 -0.9549  0.4316
  890MOL0     C20030   6.026   3.676   7.128 -0.0407  0.0558  0.2717
  890MOL0     C20031   5.888   3.614   7.104  0.2305  0.1473  0.6283
  890MOL0     N20032   5.801   3.648   7.219 -0.7703  0.1755  0.4646
  890MOL0     C20033   5.827   3.638   7.350 -0.6398 -0.8739 -0.7054
  890MOL0     C20034   5.729   3.708   7.414  0.1045 -0.0193  0.2582
  890MOL0     C20035   5.725   3.760   7.554  0.1781 -0.1767 -0.0145
  890MOL0     C20036   5.721   3.638   7.643  0.5520  0.6467 -0.0886
  890MOL0     C20037   5.750   3.675   7.790 -0.0501  0.5478 -0.8826
  890MOL0     C20038   5.733   3.545   7.878  0.5205  0.2370  0.5244
  890MOL0     O20039   5.798   3.570   8.004  0.4455 -0.4049  0.6183
  890MOL0     C20040   5.737   3.640   8.104 -0.7549 -0.7786 -0.0827
  890MOL0     C20041   5.611   3.695   8.096 -0.7218  0.2691  0.9859
  890MOL0     C20042   5.565   3.775   8.201  0.3642 -0.6581 -0.6637
  890MOL0     C20043   5.654   3.807   8.307 -0.3349  0.0270  0.1492
  890MOL0     C20044   5.612   3.903   8.416 -0.4187  0.0910  0.2775
  890MOL0     O20045   5.488   3.944   8.417  0.3089  0.4804 -0.3563
  890MOL0     C20046   5.450   4.036   8.515 -0.6748 -1.1380  1.2776
  890MOL0     C20047   5.515   4.159   8.542 -0.0012  0.5529 -0.3518
  890MOL0     C20048   5.483   4.227   8.657  0.0819 -1.2219  0.1045
  890MOL0     C20049   5.391   4.169   8.742  0.5984 -0.9200  0.4844
  890MOL0     O20050   5.340   4.223   8.861  1.3744  1.1448  0.6294
  890MOL0     C20051   5.374   4.359   8.876 -0.2421 -0.0417 -0.6128
  890MOL0     C20052   5.338   4.422   9.018 -0.5286  0.4363 -0.0339
  890MOL0     C20053   5.196   4.399   9.074  0.0191  0.7212  1.0722
  890MOL0     C20054   5.154   4.493   9.183  0.2412 -0.1061 -0.6245
  890MOL0     C20055   5.126   4.636   9.121  0.3288  0.6269  0.6403
  890MOL0     C20056   5.098   4.752   9.226  0.3589  0.5843  0.7937
  890MOL0     C20057   4.983   4.718   9.322 -0.6003 -1.3439 -0.8522
  890MOL0     C20058   4.926   4.841   9.389 -0.5579 -0.0217 -0.0260
  890MOL0    Cl20059   5.049   4.885   9.519  0.0119 -0.2031 -0.5794
  890MOL0     C20060   5.315   4.056   8.709 -0.0627 -0.0773  0.0771
  890MOL0     C20061   5.351   3.987   8.589  0.2332 -0.3733  0.6471
  890MOL0     O20062   5.688   3.920   8.509  0.0251 -0.6917 -1.1799
  890MOL0     C20063   5.784   3.753   8.311 -0.3535 -0.6601  0.6458
  890MOL0     C20064   5.822   3.667   8.211  0.7113  0.8931 -0.3228
  890MOL0     N20065   5.646   3.760   7.325 -0.0323  0.3706 -0.3814
  890MOL0     N20066   5.683   3.720   7.204 -0.1919  0.7651  0.8023
  890MOL0     C20067   6.480   3.545   6.293 -0.8230  0.0662  0.3671
  890MOL0     C20068   6.583   3.509   6.206  1.0639  0.4493  0.3696
  890MOL0     C20069   6.961   3.292   6.072  1.2467 -0.7889  0.2215
  890MOL0     C20070   7.082   3.285   6.137 -0.3321  0.2046 -0.9792
  890MOL0     C20071   7.192   3.214   6.086 -0.3133 -0.6658 -0.5253
  890MOL0     C20072   7.174   3.153   5.960 -0.4032 -0.7439  0.7061
  890MOL0     O20073   7.278   3.079   5.905  0.1354  0.2044  0.9736
  890MOL0     C20074   7.270   2.977   5.803 -0.7944 -0.2585  0.2380
  890MOL0     C20075   7.403   2.895   5.809  0.1531  1.3808  0.0905
  890MOL0     C20076   7.376   2.769   5.891 -0.0764  0.1663  0.3631
  890MOL0     C20077   7.481   2.656   5.884  0.5892 -0.4305  0.3964
  890MOL0     C20078   7.441   2.546   5.961 -0.5782 -0.2438  0.2229
  890MOL0     C20079   7.398   2.447   6.026 -0.2500 -0.1025  0.1104
  890MOL0     C20080   7.051   3.155   5.896 -0.0607 -0.0810 -0.4672
  890MOL0     C20081   6.948   3.226   5.948  0.5271  1.2016 -0.2851
  890MOL0     C20082   6.823   3.236   5.865  0.9514 -0.3506 -0.8338
  890MOL0     H20083   6.594   3.176   6.256  2.3119  1.2605 -1.1014
  890MOL0     H20084   6.406   3.246   6.413 -0.3127 -0.4503 -2.5631
  890MOL0     H20085   6.377   3.625   6.595 -1.5503 -2.3611  1.5805
  890MOL0     H20086   6.300   3.698   6.452  2.2847  2.7302  4.0470
  890MOL0     H20087   6.173   3.524   6.664 -2.0406 -0.4166 -0.4573
  890MOL0     H20088   6.098   3.599   6.522  1.8442 -1.7801 -2.9913
  890MOL0     H20089   6.224   3.817   6.672 -1.5840  1.8649  1.3449
  890MOL0     H20090   6.240   3.695   6.783 -2.7036 -1.1117  1.3733
  890MOL0     H20091   5.973   3.806   6.709 -0.4785 -1.5848  1.3828
  890MOL0     H20092   5.977   3.650   6.753  0.1581  0.8658 -2.7686
  890MOL0     H20093   6.115   3.879   6.914  1.0868 -0.0003 -4.7578
  890MOL0     H20094   5.951   3.830   6.943 -0.5802 -2.9120  0.6888
  890MOL0     H20095   6.110   3.591   6.936 -0.9759  1.5641 -3.3319
  890MOL0     H20096   6.210   3.694   7.036 -0.6705 -0.5847  0.3766
  890MOL0     H20097   6.020   3.780   7.163  2.5008  0.3415  0.0260
  890MOL0     H20098   6.074   3.615   7.204  0.6235 -0.4708 -0.5457
  890MOL0     H20099   5.847   3.650   7.009  1.1331 -2.4352 -0.8371
  890MOL0     H20100   5.889   3.506   7.087  0.4118  0.3015 -0.4224
  890MOL0     H20101   5.919   3.602   7.395 -1.8550 -0.7257  2.1653
  890MOL0     H20102   5.819   3.810   7.578 -0.7581  1.3318  0.6563
  890MOL0     H20103   5.646   3.834   7.573  1.8088  1.0641  2.4231
  890MOL0     H20104   5.631   3.579   7.621  3.4014 -3.7199 -1.4135
  890MOL0     H20105   5.802   3.568   7.622 -0.6227 -0.4380 -1.2153
  890MOL0     H20106   5.678   3.754   7.815 -1.7629 -1.2089  0.0360
  890MOL0     H20107   5.854   3.708   7.790  0.1374  0.0215 -2.0139
  890MOL0     H20108   5.783   3.464   7.825 -1.5623 -0.9260  0.2034
  890MOL0     H20109   5.626   3.529   7.898  0.1942 -1.4493 -2.0335
  890MOL0     H20110   5.546   3.688   8.009 -0.7821  2.5619  0.7972
  890MOL0     H20111   5.462   3.808   8.206 -0.0392 -1.7567 -1.3798
  890MOL0     H20112   5.596   4.203   8.484 -0.4011  1.8524  0.0477
  890MOL0     H20113   5.529   4.325   8.657 -2.2598 -0.0274 -0.4328
  890MOL0     H20114   5.482   4.366   8.864 -0.3858  0.7847 -1.5124
  890MOL0     H20115   5.328   4.427   8.803 -1.4035  1.5834  1.5029
  890MOL0     H20116   5.407   4.378   9.091 -0.1826  1.4152  0.2362
  890MOL0     H20117   5.360   4.529   9.018 -3.5626  1.1756  1.1515
  890MOL0     H20118   5.124   4.400   8.991 -3.4742 -0.5830  3.8732
  890MOL0     H20119   5.183   4.296   9.106 -1.7829  0.4274 -0.4254
  890MOL0     H20120   5.236   4.496   9.255 -2.5691  0.4857  2.8508
  890MOL0     H20121   5.073   4.455   9.247  1.4481  0.3192  1.2381
  890MOL0     H20122   5.048   4.619   9.046 -0.5440  1.8448  1.2407
  890MOL0     H20123   5.211   4.673   9.065  0.4154 -2.6399 -1.6716
  890MOL0     H20124   5.187   4.772   9.286  1.5909  1.9425 -1.3552
  890MOL0     H20125   5.073   4.846   9.176 -2.5949 -1.2857 -1.5350
  890MOL0     H20126   5.023   4.647   9.395  0.1921 -1.2805 -1.2225
  890MOL0     H20127   4.906   4.661   9.269 -2.8675  1.4007 -0.7299
  890MOL0     H20128   4.917   4.931   9.327 -0.1689 -0.9734 -1.5138
  890MOL0     H20129   4.827   4.819   9.431 -0.2633  0.4744  0.9850
  890MOL0     H20130   5.224   4.033   8.763 -0.3265 -2.5053 -1.2726
  890MOL0     H20131   5.291   3.899   8.567 -1.2366  0.0208  2.7898
  890MOL0     H20132   5.849   3.787   8.392 -1.1685  0.8637  0.6880
  890MOL0     H20133   5.920   3.621   8.210 -0.3214 -1.4732 -0.0748
  890MOL0     H20134   6.469   3.652   6.307 -1.9923 -0.0226  0.2818
  890MOL0     H20135   6.627   3.592   6.152  0.9780  1.9089  2.4423
  890MOL0     H20136   7.105   3.345   6.225  1.3832  2.2125 -2.6895
  890MOL0     H20137   7.288   3.224   6.135 -0.7072 -1.9967  0.5954
  890MOL0     H20138   7.282   3.031   5.708 -2.3996 -2.8160 -1.5510
  890MOL0     H20139   7.181   2.914   5.797 -1.1519  0.2098  0.5672
  890MOL0     H20140   7.481   2.962   5.846  3.5418 -2.8980  1.4663
  890MOL0     H20141   7.413   2.873   5.702  0.0962  3.6049 -0.4231
  890MOL0     H20142   7.286   2.734   5.840 -0.5210  0.9278  0.5987
  890MOL0     H20143   7.347   2.798   5.993  1.0142  1.4397  0.3457
  890MOL0     H20144   7.498   2.621   5.782  1.8439  2.2886 -0.4378
  890MOL0     H20145   7.573   2.698   5.926  0.1618 -2.3426  3.5754
  890MOL0     H20146   7.362   2.367   6.089  1.8673 -0.8095  0.5011
  890MOL0     H20147   7.052   3.105   5.800  0.2214 -1.0232  0.0112
  890MOL0     H20148   6.832   3.185   5.768  3.9308 -2.8686  0.5701
  890MOL0     H20149   6.738   3.195   5.919  1.1800  0.5060  0.2022
  890MOL0     H20150   6.791   3.338   5.842  2.4271  0.2207 -0.4702
  891MOL0     O20151   8.635   7.319   3.544  0.9831  0.7734  0.8045
  891MOL0     C20152   8.555   7.396   3.600  0.7078  0.8906 -0.7472
  891MOL0     O20153   8.548   7.527   3.592  0.0518 -0.5598  0.4166
  891MOL0     C20154   8.630   7.604   3.505  0.1517 -0.3484  0.3262
  891MOL0     C20155   8.642   7.744   3.537  0.3216 -0.6297 -0.8616
  891MOL0     C20156   8.711   7.821   3.445 -0.4127 -0.3873  0.1697
  891MOL0     C20157   8.762   7.777   3.325  0.6110 -0.2652  0.8449
  891MOL0     O20158   8.836   7.860   3.246  0.1949 -0.3708  0.3328
  891MOL0     C20159   8.872   7.800   3.122 -0.2316 -0.3431  0.1655
  891MOL0     C20160   8.958   7.900   3.037  1.2436  0.2887 -0.2150
  891MOL0     C20161   9.049   7.986   3.112 -0.4558 -0.3954 -0.2330
  891MOL0     C20162   9.131   8.069   3.008 -0.0381  0.8452 -0.8597
  891MOL0     C20163   9.221   8.166   3.096 -0.2928  0.3573 -0.4764
  891MOL0     C20164   9.328   8.243   3.022 -0.2385  0.6630  0.4820
  891MOL0     C20165   9.397   8.333   3.125 -0.3880  0.3769  1.2355
  891MOL0     C20166   9.541   8.360   3.086 -0.4565 -0.8087 -0.4467
  891MOL0     N20167   9.559   8.493   3.020  0.1321  0.2823 -0.4275
  891MOL0     C20168   9.574   8.493   2.887  0.0732  0.4868  0.2882
  891MOL0     C20169   9.575   8.626   2.850  0.2576  0.1654  0.0408
  891MOL0     C20170   9.600   8.677   2.707  0.0783  0.4176  0.1148
  891MOL0     C20171   9.736   8.754   2.691 -0.1008  0.1135 -1.2242
  891MOL0     C20172   9.854   8.662   2.669 -0.8258  0.4411 -0.2484
  891MOL0     C20173   9.931   8.631   2.803  0.3175  0.5041 -0.3893
  891MOL0     O20174  10.046   8.572   2.773  0.0312  0.7828  0.0991
  891MOL0     C20175  10.121   8.511   2.877 -1.0976 -0.2403 -0.2961
  891MOL0     C20176  10.233   8.434   2.842  0.5827  0.8255  0.8394
  891MOL0     C20177  10.320   8.384   2.940  0.2991 -0.5699  0.7550
  891MOL0     C20178  10.289   8.395   3.075  0.8437  0.6486 -0.1170
  891MOL0     C20179  10.373   8.329   3.178  0.3717  0.6764 -0.0430
  891MOL0     O20180  10.307   8.303   3.295  0.3117  0.2196  0.7347
  891MOL0     C20181  10.385   8.251   3.399  0.0281  0.3808 -0.0811
  891MOL0     C20182  10.502   8.304   3.451 -0.4599  1.2575 -0.1536
  891MOL0     C20183  10.540   8.269   3.582  0.4650 -0.0709 -0.4746
  891MOL0     C20184  10.466   8.186   3.659  0.3602  1.0095  0.1598
  891MOL0     O20185  10.492   8.164   3.795  0.2942 -0.0251  1.3866
  891MOL0     C20186  10.594   8.220   3.864  0.0113  0.3617  0.6551
  891MOL0     C20187  10.730   8.162   3.858  0.8285  0.3831  0.3654
  891MOL0     C20188  10.744   8.013   3.898 -0.4635  0.1919 -0.2649
  891MOL0     C20189  10.845   7.981   3.999 -0.2150  0.3799 -0.7532
  891MOL0     C20190  10.891   7.833   4.003 -0.3381 -0.3537 -0.5715
  891MOL0     C20191  10.786   7.732   4.046  0.7955 -0.3834  1.0651
  891MOL0     C20192  10.839   7.584   4.054  0.5136 -0.3946  0.5598
  891MOL0     C20193  10.729   7.492   4.085 -0.7166 -0.3040 -0.0856
  891MOL0    Cl20194  10.795   7.327   4.059  0.2902  0.1496 -0.2427
  891MOL0     C20195  10.363   8.110   3.601  0.2501  0.5735  0.2438
  891MOL0     C20196  10.319   8.148   3.472 -0.1037  0.2653 -0.5908
  891MOL0     O20197  10.495   8.305   3.150  0.0247 -0.2829 -0.3950
  891MOL0     C20198  10.172   8.469   3.109 -0.3493 -0.7102 -1.0414
  891MOL0     C20199  10.095   8.527   3.016  0.9718 -0.4418  0.0831
  891MOL0     N20200   9.564   8.698   2.971 -0.8802  0.0840  1.3269
  891MOL0     N20201   9.547   8.618   3.074 -0.8249 -0.1403 -0.3938
  891MOL0     C20202   8.753   7.640   3.295  0.7385  0.5347  0.0943
  891MOL0     C20203   8.701   7.550   3.391 -0.3321  0.5508 -0.8184
  891MOL0     C20204   8.452   7.327   3.695 -1.1497  0.4515 -0.8160
  891MOL0     C20205   8.421   7.386   3.816 -0.8121  0.7834  0.3112
  891MOL0     C20206   8.312   7.340   3.887 -0.3551 -0.7742 -0.4445
  891MOL0     C20207   8.241   7.227   3.854 -0.5747 -0.1388 -0.4244
  891MOL0     O20208   8.131   7.186   3.926 -0.6020 -0.5090 -0.4514
  891MOL0     C20209   8.097   7.250   4.051  0.2745  0.0518  0.1666
  891MOL0     C20210   7.979   7.197   4.139  0.1598 -0.5025 -0.3851
  891MOL0     C20211   7.833   7.240   4.088  0.1322 -0.3246  0.4416
  891MOL0     C20212   7.721   7.193   4.174  0.5535  0.0926 -0.0555
  891MOL0     C20213   7.679   7.290   4.278 -0.7112  0.1559 -0.4999
  891MOL0     C20214   7.658   7.372   4.372  0.1025  1.0794  0.6539
  891MOL0     C20215   8.280   7.160   3.743  0.7584 -0.0863 -0.5201
  891MOL0     C20216   8.382   7.209   3.658 -0.2411  0.0776 -0.3781
  891MOL0     C20217   8.391   7.145   3.525  0.0595 -0.4526  0.0454
  891MOL0     H20218   8.598   7.791   3.624 -0.1665 -1.2671 -0.7632
  891MOL0     H20219   8.734   7.925   3.468 -2.2639  0.6625 -2.2613
  891MOL0     H20220   8.942   7.723   3.155 -0.2323  0.5301  2.3921
  891MOL0     H20221   8.789   7.766   3.059  1.1121  0.6574 -2.2960
  891MOL0     H20222   8.899   7.968   2.975  1.7580  1.0450  0.1038
  891MOL0     H20223   9.010   7.846   2.957  2.0610 -1.7730  1.6114
  891MOL0     H20224   9.112   7.928   3.181 -0.0983  1.4690  1.0838
  891MOL0     H20225   8.988   8.060   3.164  0.2753 -0.8675  1.3467
  891MOL0     H20226   9.197   7.999   2.955  2.4559  3.1117 -0.9799
  891MOL0     H20227   9.067   8.120   2.936 -2.8697 -1.7577 -0.4092
  891MOL0     H20228   9.160   8.242   3.146 -5.9530 -1.3180 -3.8551
  891MOL0     H20229   9.266   8.113   3.180 -1.2235  0.7651  0.3005
  891MOL0     H20230   9.402   8.182   2.968  0.2055 -0.8369  2.6620
  891MOL0     H20231   9.280   8.308   2.948 -2.4124 -1.2394  0.1186
  891MOL0     H20232   9.394   8.288   3.224  1.1382  1.3006  1.7293
  891MOL0     H20233   9.345   8.430   3.132 -1.6541 -0.2779  1.1684
  891MOL0     H20234   9.602   8.364   3.176 -0.0616 -2.4489 -0.6115
  891MOL0     H20235   9.586   8.277   3.030 -1.6423 -3.1283  1.8571
  891MOL0     H20236   9.574   8.404   2.825 -1.0372  0.8596 -0.2810
  891MOL0     H20237   9.587   8.596   2.635 -0.1049 -0.3783  1.0174
  891MOL0     H20238   9.517   8.746   2.688  0.4525  0.9677  0.4172
  891MOL0     H20239   9.731   8.800   2.592 -1.0544  2.6607 -0.0815
  891MOL0     H20240   9.744   8.821   2.777 -3.5612 -2.0524  1.0532
  891MOL0     H20241   9.928   8.708   2.603 -2.1905  3.1294 -0.0236
  891MOL0     H20242   9.819   8.573   2.617  2.2634 -1.5885  0.8249
  891MOL0     H20243   9.878   8.562   2.870  1.6043  0.3429  0.5190
  891MOL0     H20244   9.967   8.721   2.855  2.1426 -2.1147  3.4328
  891MOL0     H20245  10.258   8.409   2.739 -1.3810 -0.6253  0.6526
  891MOL0     H20246  10.407   8.325   2.914  2.3202  2.5079 -0.0724
  891MOL0     H20247  10.565   8.376   3.400 -0.9602  0.0860 -2.5481
  891MOL0     H20248  10.635   8.312   3.613  0.4398 -1.4530  1.7084
  891MOL0     H20249  10.601   8.328   3.849 -2.6576  0.6936  1.4075
  891MOL0     H20250  10.564   8.211   3.969  1.1907 -0.2828  0.9550
  891MOL0     H20251  10.766   8.181   3.757 -3.8415  2.2224 -1.2249
  891MOL0     H20252  10.785   8.228   3.926  2.0214 -1.3289  1.1231
  891MOL0     H20253  10.651   7.969   3.936  0.5627  1.4716  4.2405
  891MOL0     H20254  10.770   7.954   3.810 -0.9817  1.3017 -1.1914
  891MOL0     H20255  10.804   8.010   4.096 -0.2448 -2.8168  0.2778
  891MOL0     H20256  10.933   8.043   3.982  1.3022 -0.6223  2.6292
  891MOL0     H20257  10.965   7.812   4.081 -0.7502 -0.6959 -0.2659
  891MOL0     H20258  10.933   7.809   3.905 -1.2823 -1.6162 -0.6905
  891MOL0     H20259  10.745   7.770   4.140 -2.3116  0.2275 -0.4297
  891MOL0     H20260  10.699   7.731   3.981 -0.2560  0.0459  2.4193
  891MOL0     H20261  10.921   7.570   4.125 -0.4051 -1.9790  1.3622
  891MOL0     H20262  10.868   7.571   3.949 -1.9365  0.6297 -0.3125
  891MOL0     H20263  10.708   7.511   4.191  1.7321  3.7118 -0.1036
  891MOL0     H20264  10.643   7.520   4.024  0.2540  1.9859 -0.5152
  891MOL0     H20265  10.309   8.043   3.666 -1.4496  0.6930 -0.9714
  891MOL0     H20266  10.233   8.106   3.421 -1.3355  1.9752 -0.0101
  891MOL0     H20267  10.149   8.481   3.215  0.9514  1.9565 -0.9667
  891MOL0     H20268  10.009   8.586   3.046 -0.3237 -1.9534 -0.5092
  891MOL0     H20269   8.802   7.592   3.211 -1.1158  0.7960 -1.2010
  891MOL0     H20270   8.704   7.447   3.356  2.1629  0.6102 -0.9905
  891MOL0     H20271   8.467   7.477   3.853 -2.5860  1.4140  1.1297
  891MOL0     H20272   8.290   7.400   3.974  2.3881 -0.7784  0.3592
  891MOL0     H20273   8.098   7.359   4.045 -1.2727  0.0863  0.2015
  891MOL0     H20274   8.180   7.212   4.111 -0.5794 -3.3599 -0.6116
  891MOL0     H20275   7.981   7.240   4.239  1.8194  1.5152 -1.2235
  891MOL0     H20276   7.972   7.087   4.139  0.1656 -0.6430  3.7807
  891MOL0     H20277   7.815   7.187   3.994 -0.0372 -0.1183  0.3588
  891MOL0     H20278   7.824   7.345   4.061 -0.3784 -0.3523  0.4865
  891MOL0     H20279   7.638   7.161   4.111 -1.3230  4.9624 -0.4571
  891MOL0     H20280   7.757   7.106   4.230  0.0619  0.5276  0.9534
  891MOL0     H20281   7.649   7.446   4.449 -0.8759  0.0870  1.5250
  891MOL0     H20282   8.227   7.069   3.716  0.9788 -0.2103 -0.5332
  891MOL0     H20283   8.493   7.128   3.490  0.5941 -2.0627  2.1736
  891MOL0     H20284   8.339   7.049   3.523  1.5221 -1.2939  0.9072
  891MOL0     H20285   8.339   7.215   3.459 -0.8047 -0.2394  0.9350
  892MOL0     O20286  10.768   1.047   8.567  1.1818  0.3060  0.1311
  892MOL0     C20287  10.652   1.041   8.517 -0.2753 -0.9505 -0.0319
  892MOL0     O20288  10.624   1.076   8.382  0.2439 -0.1087 -0.8759
  892MOL0     C20289  10.708   1.135   8.295 -0.2012  0.0467  0.1875
  892MOL0     C20290  10.683   1.129   8.157 -0.2025 -0.2220 -0.6419
  892MOL0     C20291  10.753   1.209   8.061 -0.1272 -0.2797  0.2585
  892MOL0     C20292  10.862   1.291   8.110  0.5115  0.7746 -0.1513
  892MOL0     O20293  10.936   1.379   8.032 -0.3501  0.3134 -0.2003
  892MOL0     C20294  10.964   1.371   7.891  0.3459  1.1647 -0.0773
  892MOL0     C20295  11.001   1.223   7.849 -0.1862 -0.1601 -0.3029
  892MOL0     C20296  11.112   1.158   7.936 -0.0018 -0.2687 -0.2803
  892MOL0     C20297  11.245   1.232   7.909 -0.6068 -0.7130 -0.9632
  892MOL0     C20298  11.354   1.203   8.016  0.1170 -0.2102 -0.2387
  892MOL0     C20299  11.408   1.056   8.027  0.0963 -0.2384 -0.0312
  892MOL0     C20300  11.562   1.050   7.991  0.3453  0.6531  0.0417
  892MOL0     C20301  11.608   0.906   8.038 -0.5426 -0.1570  0.0379
  892MOL0     N20302  11.723   0.907   8.136 -0.2618  0.2530  0.2157
  892MOL0     C20303  11.852   0.904   8.091  0.1862 -0.3495  0.3883
  892MOL0     C20304  11.927   0.910   8.208  0.1509 -0.0556  0.0072
  892MOL0     C20305  12.073   0.882   8.240 -1.0524  0.5003 -0.4391
  892MOL0     C20306  12.167   0.991   8.180  0.3761 -0.0275 -0.3789
  892MOL0     C20307  12.308   0.931   8.187 -0.4832 -0.2222 -0.6579
  892MOL0     C20308  12.364   0.916   8.330 -0.6225  0.1472 -0.5056
  892MOL0     O20309  12.349   0.779   8.380  0.1374 -0.7653  0.2695
  892MOL0     C20310  12.400   0.760   8.504 -0.8681  0.0720 -0.5311
  892MOL0     C20311  12.367   0.638   8.568  0.3276  0.6308 -0.1353
  892MOL0     C20312  12.400   0.611   8.703  0.3648 -0.2164  0.5563
  892MOL0     C20313  12.477   0.699   8.780 -0.1765 -0.0795  0.2050
  892MOL0     C20314  12.535   0.664   8.907 -0.0542 -0.0446 -0.8959
  892MOL0     O20315  12.537   0.532   8.931  0.5419 -0.6252 -0.3246
  892MOL0     C20316  12.592   0.487   9.050 -1.1384  0.4080  0.4303
  892MOL0     C20317  12.516   0.455   9.164  0.4666 -1.3957 -0.4609
  892MOL0     C20318  12.584   0.410   9.273 -0.1611 -0.7103 -0.1234
  892MOL0     C20319  12.724   0.384   9.279  0.0702 -0.4591 -1.3906
  892MOL0     O20320  12.797   0.319   9.377 -0.0144 -0.8948  0.1022
  892MOL0     C20321  12.732   0.314   9.504 -0.5090  0.0239 -0.1723
  892MOL0     C20322  12.825   0.269   9.607 -0.7010 -0.3249  0.0146
  892MOL0     C20323  12.787   0.325   9.750 -0.0657  0.4726  1.0464
  892MOL0     C20324  12.908   0.306   9.843 -0.6811 -0.1600 -0.3312
  892MOL0     C20325  12.878   0.378   9.980 -0.0003  0.2456 -0.2544
  892MOL0     C20326  12.979   0.344  10.093  0.2034  0.2288  0.8580
  892MOL0     C20327  12.962   0.448  10.207  0.5920 -1.4035  0.4288
  892MOL0     C20328  13.042   0.412  10.331  0.5424 -1.0062 -0.2412
  892MOL0    Cl20329  12.962   0.272  10.421 -0.2535  0.0527 -0.5227
  892MOL0     C20330  12.795   0.410   9.164 -0.4503 -1.6717  0.3246
  892MOL0     C20331  12.730   0.466   9.053 -0.0303  0.7159 -0.4475
  892MOL0     O20332  12.579   0.750   8.979  0.1937 -0.7582  0.0514
  892MOL0     C20333  12.512   0.819   8.719  0.1120 -1.1155 -0.1520
  892MOL0     C20334  12.468   0.851   8.588 -1.1726 -1.1558 -0.2017
  892MOL0     N20335  11.844   0.937   8.312 -0.1434  0.1683  0.1210
  892MOL0     N20336  11.720   0.934   8.269 -0.5058  0.0842  0.6529
  892MOL0     C20337  10.898   1.284   8.242  1.1278 -0.4488 -0.5730
  892MOL0     C20338  10.824   1.209   8.336 -0.0615  0.5354 -0.1447
  892MOL0     C20339  10.537   0.967   8.591  0.0641  0.0786  0.5031
  892MOL0     C20340  10.407   0.972   8.539  0.4934 -0.5501 -1.3431
  892MOL0     C20341  10.299   0.901   8.597 -0.0848 -0.0154 -0.3680
  892MOL0     C20342  10.306   0.825   8.714  0.0200 -0.5684  0.7281
  892MOL0     O20343  10.208   0.747   8.768 -0.4659  0.5185  0.7756
  892MOL0     C20344  10.154   0.645   8.683  0.5465  0.3268 -0.4868
  892MOL0     C20345  10.040   0.564   8.745 -0.0294  0.1655 -0.2570
  892MOL0     C20346   9.911   0.653   8.730  0.2755  0.5125 -0.4647
  892MOL0     C20347   9.791   0.599   8.802 -0.2680 -0.9396 -0.7107
  892MOL0     C20348   9.785   0.463   8.766  0.0756  0.4303  0.0878
  892MOL0     C20349   9.803   0.343   8.773 -0.2069 -0.0002 -0.3226
  892MOL0     C20350  10.437   0.822   8.766 -0.2110 -0.1999  1.3587
  892MOL0     C20351  10.552   0.895   8.715 -0.2299 -0.9927 -1.0052
  892MOL0     C20352  10.682   0.872   8.793  0.0016 -0.0496  0.1368
  892MOL0     H20353  10.594   1.081   8.118 -2.6754  1.1085  2.9017
  892MOL0     H20354  10.732   1.207   7.955  2.7511  2.5858 -0.5154
  892MOL0     H20355  10.874   1.401   7.837  1.5122  0.8353 -2.3509
  892MOL0     H20356  11.032   1.444   7.848 -1.5279  2.6787 -0.6105
  892MOL0     H20357  11.036   1.231   7.746  0.7854 -1.8352 -0.1346
  892MOL0     H20358  10.906   1.169   7.849 -1.7001  2.3039  0.9365
  892MOL0     H20359  11.117   1.053   7.906  0.9174 -0.1764 -0.4841
  892MOL0     H20360  11.103   1.168   8.044 -0.5792  2.9428 -0.5128
  892MOL0     H20361  11.294   1.203   7.815  1.1798 -4.1550  0.8589
  892MOL0     H20362  11.233   1.340   7.908  0.1789 -0.6235 -1.3358
  892MOL0     H20363  11.434   1.274   7.997  1.2060 -1.5299 -0.7493
  892MOL0     H20364  11.307   1.221   8.113  0.9832  0.2432  0.1103
  892MOL0     H20365  11.380   1.004   8.120 -0.6126  0.0116 -0.1006
  892MOL0     H20366  11.357   0.993   7.953 -0.1692 -1.0177  0.7926
  892MOL0     H20367  11.616   1.126   8.048 -0.4506 -0.9306  3.1297
  892MOL0     H20368  11.566   1.059   7.882 -1.2810  1.7465  0.0345
  892MOL0     H20369  11.524   0.873   8.098 -2.2008  0.8136 -1.6538
  892MOL0     H20370  11.636   0.844   7.952 -2.9321  0.8764 -1.5989
  892MOL0     H20371  11.875   0.903   7.984  1.1800  0.6925  0.5667
  892MOL0     H20372  12.090   0.873   8.348  1.6327  1.1490 -0.7361
  892MOL0     H20373  12.110   0.786   8.203 -1.8565  1.4346 -3.9984
  892MOL0     H20374  12.134   1.014   8.078 -1.7422  0.1352  0.2902
  892MOL0     H20375  12.163   1.079   8.245  1.3060 -2.6540  3.5760
  892MOL0     H20376  12.380   0.998   8.138  2.1615  0.5763  3.8362
  892MOL0     H20377  12.317   0.830   8.146  0.9726 -0.8109  1.0138
  892MOL0     H20378  12.316   0.989   8.395 -2.0348  1.1737 -2.5961
  892MOL0     H20379  12.467   0.952   8.334 -0.6148  0.6398  6.4213
  892MOL0     H20380  12.311   0.561   8.515 -1.2605 -2.0442  4.7803
  892MOL0     H20381  12.374   0.512   8.739 -0.3314 -0.9281 -1.7118
  892MOL0     H20382  12.411   0.478   9.146  0.9427  1.0275 -0.5766
  892MOL0     H20383  12.522   0.403   9.361 -0.8690  0.0332 -0.5516
  892MOL0     H20384  12.705   0.418   9.526  0.0387 -0.0836  1.0849
  892MOL0     H20385  12.643   0.252   9.501  0.6250 -1.7399  0.6812
  892MOL0     H20386  12.826   0.160   9.612  2.7814 -0.6679 -3.2214
  892MOL0     H20387  12.928   0.300   9.583 -0.4994 -1.6737 -0.9825
  892MOL0     H20388  12.752   0.429   9.746  1.2477  1.0593  3.2767
  892MOL0     H20389  12.703   0.264   9.784 -0.9517  1.1903  0.1980
  892MOL0     H20390  12.994   0.349   9.791  0.0085 -0.4176  0.5730
  892MOL0     H20391  12.935   0.201   9.860  0.1235 -0.3680 -2.5255
  892MOL0     H20392  12.781   0.346  10.021  0.5247 -2.9991 -1.2522
  892MOL0     H20393  12.886   0.485   9.961  0.0785 -0.0086 -1.7624
  892MOL0     H20394  12.966   0.242  10.131  1.0131 -0.8471 -1.5498
  892MOL0     H20395  13.077   0.351  10.044  0.6643 -3.8215  0.8706
  892MOL0     H20396  12.854   0.452  10.224 -0.5232  4.4250 -4.4912
  892MOL0     H20397  13.004   0.545  10.177 -1.0192 -0.2291  1.7365
  892MOL0     H20398  13.146   0.406  10.299  0.4568  1.8248 -1.2782
  892MOL0     H20399  13.041   0.497  10.399 -2.6399 -0.0352 -1.2888
  892MOL0     H20400  12.900   0.385   9.152 -0.3508 -3.6796  3.8359
  892MOL0     H20401  12.778   0.498   8.961  0.7749  3.4838  0.8458
  892MOL0     H20402  12.574   0.892   8.770  1.5072 -0.4720 -2.5900
  892MOL0     H20403  12.494   0.953   8.560  0.9263 -2.5044 -3.7745
  892MOL0     H20404  10.989   1.331   8.280  0.2150  1.9962 -1.2420
  892MOL0     H20405  10.843   1.223   8.442 -1.8558 -0.1830  0.2971
  892MOL0     H20406  10.386   1.025   8.446 -1.1638  2.4025  0.5588
  892MOL0     H20407  10.195   0.915   8.568 -0.1016  1.3495  0.2568
  892MOL0     H20408  10.227   0.568   8.655 -0.9155 -0.0941 -3.5742
  892MOL0     H20409  10.134   0.678   8.581  0.6580  0.8498 -0.3449
  892MOL0     H20410  10.068   0.533   8.846  3.2645  1.3405 -0.6716
  892MOL0     H20411  10.034   0.472   8.687  0.5991  1.6255 -2.8245
  892MOL0     H20412   9.885   0.667   8.625 -1.9675  2.0783  0.2373
  892MOL0     H20413   9.927   0.757   8.759  0.1446  0.5962 -0.6864
  892MOL0     H20414   9.818   0.607   8.908  4.4898 -1.2105 -1.6521
  892MOL0     H20415   9.702   0.655   8.774 -0.7813 -0.4208  1.7422
  892MOL0     H20416   9.816   0.237   8.778 -2.5641 -0.4675 -2.2409
  892MOL0     H20417  10.436   0.755   8.852  0.7038 -1.9249  0.0859
  892MOL0     H20418  10.728   0.969   8.813 -0.2070  0.4214 -1.4725
  892MOL0     H20419  10.662   0.827   8.891 -0.1325  2.6406  1.4321
  892MOL0     H20420  10.751   0.808   8.737 -0.3697  0.1839 -0.6034
  893MOL0     O20421  11.185   1.891   3.085 -0.1079 -0.6192 -0.6098
  893MOL0     C20422  11.136   1.787   3.087  0.6463  0.1575  0.5818
  893MOL0     O20423  11.198   1.668   3.071  0.5136  0.5186 -0.1254
  893MOL0     C20424  11.327   1.646   3.088  0.1989 -0.3251 -0.3017
  893MOL0     C20425  11.390   1.705   3.199  1.4446 -0.5901 -0.1377
  893MOL0     C20426  11.519   1.659   3.225 -0.8142  0.2931  0.5163
  893MOL0     C20427  11.587   1.561   3.146 -0.3143 -0.1880 -0.3689
  893MOL0     O20428  11.706   1.510   3.179  0.0070  0.3019 -0.1628
  893MOL0     C20429  11.756   1.515   3.312 -0.5675  0.1435 -0.1186
  893MOL0     C20430  11.894   1.454   3.318 -0.2561  0.7074  1.4745
  893MOL0     C20431  12.007   1.555   3.289  0.0682  1.2837  0.1691
  893MOL0     C20432  12.036   1.658   3.411 -0.0246  0.5428  0.5436
  893MOL0     C20433  12.134   1.773   3.387  0.0614 -0.5948 -0.6364
  893MOL0     C20434  12.143   1.883   3.498  0.0218  0.1799  0.1097
  893MOL0     C20435  12.247   1.990   3.490 -0.6989  0.7622 -0.2448
  893MOL0     C20436  12.399   1.940   3.472 -0.0540  0.2882  0.0530
  893MOL0     N20437  12.491   2.048   3.495 -0.8645 -0.5954  0.4268
  893MOL0     C20438  12.573   2.111   3.397 -0.1072 -0.1997  1.6605
  893MOL0     C20439  12.637   2.212   3.469  0.7581 -0.0854 -0.3067
  893MOL0     C20440  12.735   2.313   3.408  0.6565 -0.3224  0.0944
  893MOL0     C20441  12.676   2.410   3.303 -0.6992  0.4951  0.7272
  893MOL0     C20442  12.541   2.459   3.345  0.6459 -0.3864 -0.3187
  893MOL0     C20443  12.529   2.502   3.496  0.1908 -0.5533  0.2496
  893MOL0     O20444  12.503   2.649   3.495  0.2864  0.6926  0.5345
  893MOL0     C20445  12.413   2.703   3.582  0.2814 -0.1647 -0.2424
  893MOL0     C20446  12.317   2.794   3.532  0.3221  0.0116 -1.0233
  893MOL0     C20447  12.235   2.858   3.621  0.0340 -0.4010 -0.6387
  893MOL0     C20448  12.241   2.849   3.763  0.2362  0.8219  0.2829
  893MOL0     C20449  12.152   2.922   3.862 -0.4022 -0.1361  0.4547
  893MOL0     O20450  12.154   2.894   4.002  0.5792 -0.5178 -0.8639
  893MOL0     C20451  12.042   2.917   4.084 -0.5006  0.4977 -0.1143
  893MOL0     C20452  12.067   2.902   4.220  0.5628  0.3955 -0.0616
  893MOL0     C20453  11.958   2.920   4.309 -0.2680  0.6289  0.5139
  893MOL0     C20454  11.824   2.927   4.257 -1.1297  0.4480  0.0773
  893MOL0     O20455  11.714   2.929   4.335  0.3780  1.2060 -0.1407
  893MOL0     C20456  11.720   2.951   4.475 -0.0232  0.9014 -0.1532
  893MOL0     C20457  11.772   3.084   4.532  0.0803 -0.0045  0.3448
  893MOL0     C20458  11.659   3.190   4.486 -0.1319 -0.2374 -1.1426
  893MOL0     C20459  11.699   3.329   4.525  0.1752  0.0455  0.1134
  893MOL0     C20460  11.705   3.358   4.675 -0.5006 -0.1681  0.0671
  893MOL0     C20461  11.550   3.373   4.720 -0.1119  0.4554 -0.2158
  893MOL0     C20462  11.527   3.404   4.878  0.0555  0.0532 -0.1419
  893MOL0     C20463  11.378   3.417   4.892 -0.0760 -0.7152 -0.5201
  893MOL0    Cl20464  11.303   3.261   4.847  0.0797  0.5784  0.1259
  893MOL0     C20465  11.808   2.927   4.113 -0.7993  0.7692 -1.2829
  893MOL0     C20466  11.915   2.932   4.030  0.1611 -0.8257 -0.4140
  893MOL0     O20467  12.086   3.011   3.806  0.3410  0.4131  0.2456
  893MOL0     C20468  12.347   2.766   3.814  0.6999 -0.7051  0.5435
  893MOL0     C20469  12.424   2.682   3.722  0.1883  0.5159  0.2193
  893MOL0     N20470  12.596   2.211   3.598 -0.5200  0.0409  0.1706
  893MOL0     N20471  12.515   2.112   3.618  0.5676 -0.8175 -0.4357
  893MOL0     C20472  11.521   1.506   3.040 -0.6055  0.5004 -0.3772
  893MOL0     C20473  11.389   1.548   3.009 -0.0021 -0.3422  0.1437
  893MOL0     C20474  10.980   1.779   3.080  0.0041 -0.4186 -0.6110
  893MOL0     C20475  10.911   1.699   2.986  0.0562  0.4314 -0.9464
  893MOL0     C20476  10.771   1.695   2.991 -0.7262 -0.1222  0.0937
  893MOL0     C20477  10.705   1.766   3.087  0.0753 -0.4658 -0.3117
  893MOL0     O20478  10.568   1.750   3.091  0.1600  0.3703 -0.0258
  893MOL0     C20479  10.493   1.880   3.069 -0.4807  0.0304 -0.8288
  893MOL0     C20480  10.347   1.844   3.046  0.9096  0.2196 -0.1764
  893MOL0     C20481  10.326   1.769   2.921 -0.3314  0.9373 -0.5072
  893MOL0     C20482  10.177   1.776   2.868  0.0806 -0.3933 -0.9264
  893MOL0     C20483  10.160   1.706   2.737 -0.6617 -0.3801 -0.2788
  893MOL0     C20484  10.137   1.650   2.635 -0.4665  0.3427  1.2525
  893MOL0     C20485  10.771   1.834   3.188  0.0845  0.4585 -0.2776
  893MOL0     C20486  10.908   1.845   3.182 -0.2994 -0.1945 -0.0216
  893MOL0     C20487  10.979   1.919   3.285  0.4493  0.1333 -0.7233
  893MOL0     H20488  11.330   1.769   3.263 -2.1943 -3.0372 -0.8093
  893MOL0     H20489  11.565   1.695   3.317  2.9647 -0.7603 -0.7776
  893MOL0     H20490  11.772   1.619   3.340  2.4569 -0.3744  0.4039
  893MOL0     H20491  11.684   1.475   3.383 -0.2761  0.7300  0.5158
  893MOL0     H20492  11.902   1.361   3.262  2.0910  1.1591  0.9581
  893MOL0     H20493  11.909   1.434   3.424 -2.4877  0.2165  1.7515
  893MOL0     H20494  11.981   1.612   3.199  0.4112  2.2405  0.6588
  893MOL0     H20495  12.091   1.489   3.264 -1.1140 -0.0068 -0.5270
  893MOL0     H20496  11.940   1.696   3.445 -0.8888 -3.3324  3.1243
  893MOL0     H20497  12.078   1.594   3.490 -0.3465 -0.4544 -0.0777
  893MOL0     H20498  12.232   1.724   3.390  0.9047  0.9114  3.4630
  893MOL0     H20499  12.110   1.826   3.294  0.7422 -2.8126 -2.1612
  893MOL0     H20500  12.049   1.938   3.494 -1.7018 -2.4348  1.6758
  893MOL0     H20501  12.149   1.829   3.593  2.7995  2.1957  1.2200
  893MOL0     H20502  12.238   2.056   3.577 -5.7753 -1.9243  1.7064
  893MOL0     H20503  12.225   2.053   3.403 -1.1377 -1.1496 -1.5757
  893MOL0     H20504  12.432   1.859   3.537  3.6663  2.1469  0.7186
  893MOL0     H20505  12.398   1.926   3.363 -1.1665  2.0548 -0.2123
  893MOL0     H20506  12.599   2.091   3.293  1.8279 -1.5383  2.3368
  893MOL0     H20507  12.778   2.379   3.483  0.7530 -1.1808  0.8216
  893MOL0     H20508  12.821   2.268   3.357  0.9191 -0.1415  0.3755
  893MOL0     H20509  12.731   2.503   3.288 -1.9175  0.9838 -0.8194
  893MOL0     H20510  12.670   2.373   3.201 -0.0695 -0.4644  1.0213
  893MOL0     H20511  12.467   2.383   3.318 -2.8358  2.4681  0.4971
  893MOL0     H20512  12.516   2.552   3.294  1.2407 -0.5106 -0.8596
  893MOL0     H20513  12.620   2.479   3.554  0.8975 -0.5307 -0.8239
  893MOL0     H20514  12.440   2.457   3.542 -2.8424  5.0341  0.6171
  893MOL0     H20515  12.307   2.820   3.427  0.6955  0.6966 -0.8953
  893MOL0     H20516  12.172   2.933   3.573 -0.1896 -0.3725 -0.3035
  893MOL0     H20517  12.168   2.898   4.260 -1.0211  2.1639  4.8690
  893MOL0     H20518  11.973   2.924   4.417 -2.0300 -2.8364  1.0555
  893MOL0     H20519  11.621   2.927   4.515  1.1685  0.1721  2.5716
  893MOL0     H20520  11.776   2.868   4.521 -1.1094  0.4901  0.4744
  893MOL0     H20521  11.766   3.082   4.641  1.0873 -0.5464  0.4039
  893MOL0     H20522  11.874   3.101   4.496 -0.6160 -0.7490 -2.1465
  893MOL0     H20523  11.621   3.170   4.386 -0.7358 -1.4331 -0.7005
  893MOL0     H20524  11.572   3.174   4.550  0.4634  3.4924  0.8801
  893MOL0     H20525  11.632   3.403   4.481 -2.5027 -1.9901  0.5538
  893MOL0     H20526  11.797   3.344   4.478 -0.1554  2.6102  0.1261
  893MOL0     H20527  11.759   3.451   4.694  3.1132 -1.7515 -1.4928
  893MOL0     H20528  11.757   3.279   4.730  0.6633  0.1339 -0.5673
  893MOL0     H20529  11.494   3.440   4.654 -0.5835  1.0532  0.7595
  893MOL0     H20530  11.500   3.280   4.691  3.3813 -0.8440 -2.7136
  893MOL0     H20531  11.586   3.491   4.908 -1.5233  1.6498 -1.4549
  893MOL0     H20532  11.569   3.325   4.941  2.1525  0.5436 -0.8573
  893MOL0     H20533  11.354   3.430   4.997  1.1286 -1.9944 -0.0480
  893MOL0     H20534  11.338   3.501   4.834  1.9495  2.3390  2.1424
  893MOL0     H20535  11.714   2.936   4.060 -0.5101  3.5118 -1.4659
  893MOL0     H20536  11.899   2.936   3.923 -4.0640 -2.3528 -0.0003
  893MOL0     H20537  12.339   2.749   3.921 -1.3711  0.6248  0.6523
  893MOL0     H20538  12.498   2.610   3.757 -2.3687 -1.4431  2.0453
  893MOL0     H20539  11.554   1.416   2.987 -0.1253  0.0604  0.6323
  893MOL0     H20540  11.339   1.487   2.936  2.5241 -1.0417 -1.1210
  893MOL0     H20541  10.965   1.652   2.904  0.3911  0.2218 -0.6124
  893MOL0     H20542  10.741   1.640   2.903  0.3769  3.2386 -2.6303
  893MOL0     H20543  10.534   1.935   2.984  1.4424 -0.5654 -0.3198
  893MOL0     H20544  10.493   1.938   3.161 -3.2402  0.3033 -0.9073
  893MOL0     H20545  10.290   1.937   3.034  2.8076  1.2301 -1.8930
  893MOL0     H20546  10.315   1.783   3.131  2.3815 -0.8172 -0.3317
  893MOL0     H20547  10.333   1.661   2.939 -1.0280  1.2465  2.0399
  893MOL0     H20548  10.390   1.798   2.838 -0.7631 -0.8961 -1.5510
  893MOL0     H20549  10.098   1.743   2.935  0.5904 -0.0970 -0.1683
  893MOL0     H20550  10.160   1.883   2.856 -1.0480 -0.6643 -2.0034
  893MOL0     H20551  10.125   1.590   2.547 -0.8535 -1.3881  2.4288
  893MOL0     H20552  10.713   1.867   3.274 -3.0688 -2.6063 -1.0227
  893MOL0     H20553  10.911   1.933   3.370  1.6116  2.4416 -0.1055
  893MOL0     H20554  11.062   1.872   3.339 -0.8051  1.3985  2.5108
  893MOL0     H20555  11.024   2.014   3.257  2.4320 -0.0986  1.3960
  894MOL0     O20556   8.220  10.743   2.102  0.2804 -1.0336 -0.3216
  894MOL0     C20557   8.194  10.848   2.174  0.1845  0.1749  0.1516
  894MOL0     O20558   8.265  10.968   2.156 -0.2119 -0.7993  0.6180
  894MOL0     C20559   8.388  10.962   2.103 -1.1252 -1.3573  1.5191
  894MOL0     C20560   8.481  10.857   2.083  1.1396 -0.3158  0.5697
  894MOL0     C20561   8.605  10.881   2.026  0.1371  0.2888 -0.1993
  894MOL0     C20562   8.648  11.007   1.988 -0.0797  0.4572  0.7886
  894MOL0     O20563   8.775  11.023   1.938  0.6901  0.1667  0.3246
  894MOL0     C20564   8.807  11.164   1.897 -0.1866 -0.6671 -0.7837
  894MOL0     C20565   8.962  11.177   1.876 -0.2607  0.5473  0.1775
  894MOL0     C20566   8.995  11.325   1.896  0.9089 -0.4427  0.0117
  894MOL0     C20567   9.145  11.352   1.883  1.0629 -0.9889 -0.3770
  894MOL0     C20568   9.182  11.486   1.951  1.1827 -0.6434 -0.1988
  894MOL0     C20569   9.332  11.526   1.938 -1.0468 -0.3695  0.4741
  894MOL0     C20570   9.390  11.611   2.056  0.4614 -0.2529  1.0097
  894MOL0     C20571   9.530  11.662   2.027 -1.2244 -0.2198  0.2597
  894MOL0     N20572   9.520  11.783   1.938  0.2137 -1.1718 -0.1133
  894MOL0     C20573   9.513  11.910   1.981  1.1320 -0.4781 -0.3788
  894MOL0     C20574   9.561  11.978   1.873 -0.6200  0.0283  0.3360
  894MOL0     C20575   9.585  12.123   1.872 -0.0838  0.8426  0.3333
  894MOL0     C20576   9.533  12.197   1.749  0.1019 -1.0491  0.9895
  894MOL0     C20577   9.514  12.350   1.760  0.5404 -0.3436 -0.2580
  894MOL0     C20578   9.661  12.406   1.737  0.9007  0.6065 -0.0330
  894MOL0     O20579   9.693  12.381   1.600  0.1971  0.4339 -0.3216
  894MOL0     C20580   9.813  12.439   1.559  0.5215 -0.2068 -0.5242
  894MOL0     C20581   9.891  12.527   1.636  0.3220 -0.1100  1.1775
  894MOL0     C20582  10.005  12.590   1.587 -0.5633 -0.4095  0.6406
  894MOL0     C20583  10.065  12.554   1.464  0.6103 -0.3841 -0.5271
  894MOL0     C20584  10.189  12.623   1.417 -1.2318 -0.0916  0.6656
  894MOL0     O20585  10.221  12.747   1.470 -0.8157  0.8464  0.6659
  894MOL0     C20586  10.350  12.796   1.461 -0.4852  0.8167  0.6503
  894MOL0     C20587  10.400  12.854   1.576  0.3701 -0.2903  1.2018
  894MOL0     C20588  10.510  12.936   1.568 -0.2456 -0.8005  0.3752
  894MOL0     C20589  10.592  12.943   1.456 -0.4170 -0.9260 -0.5163
  894MOL0     O20590  10.717  13.010   1.447  0.2210 -0.2947  0.3983
  894MOL0     C20591  10.771  13.057   1.570  0.1105 -0.2489 -0.3619
  894MOL0     C20592  10.904  13.139   1.520 -0.9445 -0.3032 -0.0820
  894MOL0     C20593  10.988  13.198   1.635  1.0647 -0.6168 -0.7683
  894MOL0     C20594  11.079  13.100   1.696 -0.7807 -0.5068  0.5698
  894MOL0     C20595  11.139  13.150   1.836 -0.5881  0.5824 -0.6729
  894MOL0     C20596  11.233  13.273   1.822  0.5366  0.6029  0.7364
  894MOL0     C20597  11.317  13.313   1.945 -0.3726 -0.5247  0.6239
  894MOL0     C20598  11.454  13.232   1.950 -0.0847 -0.3287 -0.6109
  894MOL0    Cl20599  11.536  13.309   2.081 -0.6792  0.5190 -0.4928
  894MOL0     C20600  10.539  12.886   1.339  0.2555  0.0717  0.7549
  894MOL0     C20601  10.414  12.814   1.337 -0.7067 -0.1525  1.3114
  894MOL0     O20602  10.257  12.555   1.342 -0.0397 -0.3544 -0.9188
  894MOL0     C20603   9.993  12.452   1.392 -0.0133 -0.8490 -0.5698
  894MOL0     C20604   9.874  12.396   1.437  0.5208 -0.0676 -0.9563
  894MOL0     N20605   9.576  11.887   1.763 -0.6746 -0.5075 -0.4341
  894MOL0     N20606   9.541  11.771   1.802 -0.6524  0.9630 -0.6956
  894MOL0     C20607   8.561  11.116   2.017  0.1205 -0.7608 -0.3825
  894MOL0     C20608   8.431  11.090   2.069 -0.1666  0.6975  0.1302
  894MOL0     C20609   8.081  10.856   2.268  0.3327  0.0655 -0.0948
  894MOL0     C20610   7.997  10.977   2.266 -0.0687 -0.4858  0.0760
  894MOL0     C20611   7.873  10.977   2.338  0.1213 -1.1115  1.2587
  894MOL0     C20612   7.839  10.871   2.423 -0.5445 -0.5658  0.3702
  894MOL0     O20613   7.710  10.852   2.472  0.0806  0.1048 -0.5888
  894MOL0     C20614   7.641  10.957   2.542 -0.3099  0.2602 -0.4256
  894MOL0     C20615   7.702  10.996   2.681  1.1549  0.0676 -0.2514
  894MOL0     C20616   7.714  10.866   2.764 -0.0332 -1.4844 -0.6035
  894MOL0     C20617   7.799  10.898   2.891 -0.2572  0.2860  0.4506
  894MOL0     C20618   7.795  10.781   2.978 -0.0445 -0.7587 -0.0163
  894MOL0     C20619   7.803  10.681   3.049 -1.0129  0.9078  0.5281
  894MOL0     C20620   7.931  10.765   2.437 -0.6932 -0.3914 -0.0708
  894MOL0     C20621   8.050  10.754   2.358  0.4907  0.4250  0.6069
  894MOL0     C20622   8.129  10.624   2.363 -0.0964 -0.0981 -0.1088
  894MOL0     H20623   8.459  10.755   2.112 -3.2233 -0.6060 -2.6890
  894MOL0     H20624   8.669  10.798   1.995 -0.1260  0.5238 -1.4090
  894MOL0     H20625   8.750  11.194   1.809 -0.1820  1.6824 -0.0515
  894MOL0     H20626   8.770  11.231   1.975 -1.3116 -1.0628 -0.9610
  894MOL0     H20627   8.995  11.131   1.783 -1.3320 -1.4249  0.7137
  894MOL0     H20628   9.003  11.118   1.959 -0.7590  0.7227  0.5519
  894MOL0     H20629   8.948  11.351   1.992 -2.4102  1.0437 -1.8180
  894MOL0     H20630   8.947  11.400   1.832 -0.1837  1.0076  2.3583
  894MOL0     H20631   9.201  11.267   1.923  0.4750 -2.0040 -1.6432
  894MOL0     H20632   9.176  11.364   1.779  0.7906 -1.4892 -0.5153
  894MOL0     H20633   9.127  11.568   1.905  4.0776  2.5447  1.5480
  894MOL0     H20634   9.159  11.480   2.058  0.7435 -0.4690 -0.2825
  894MOL0     H20635   9.395  11.436   1.938 -0.2854  0.1033  2.9880
  894MOL0     H20636   9.335  11.581   1.843 -0.4028 -1.6101 -0.2587
  894MOL0     H20637   9.404  11.551   2.146 -0.8416  0.8474  1.9888
  894MOL0     H20638   9.328  11.695   2.090  1.5159  0.9130  0.1670
  894MOL0     H20639   9.585  11.680   2.120  1.4873  1.7429 -1.5443
  894MOL0     H20640   9.597  11.592   1.977 -0.8628 -0.2471  0.7848
  894MOL0     H20641   9.482  11.951   2.077  0.6885 -2.5569  0.4269
  894MOL0     H20642   9.561  12.166   1.970  2.4734 -0.2519  1.5235
  894MOL0     H20643   9.694  12.128   1.860 -0.3271  0.1308 -3.1976
  894MOL0     H20644   9.586  12.160   1.661 -0.9481  1.3696 -0.7889
  894MOL0     H20645   9.431  12.164   1.728  1.0063 -2.9449 -0.7433
  894MOL0     H20646   9.468  12.380   1.855  2.7891  0.1170  0.7727
  894MOL0     H20647   9.443  12.380   1.682 -0.2193 -1.7731 -0.1367
  894MOL0     H20648   9.737  12.358   1.800  1.3997 -0.4761 -1.4097
  894MOL0     H20649   9.656  12.511   1.764 -0.6535  0.6038 -0.2109
  894MOL0     H20650   9.859  12.562   1.734 -0.1297 -1.7210  1.6435
  894MOL0     H20651  10.062  12.648   1.660  0.8292 -0.2371 -0.5333
  894MOL0     H20652  10.346  12.829   1.667 -1.4734 -1.8975 -0.2391
  894MOL0     H20653  10.552  12.970   1.662 -0.5812 -3.3880  1.5534
  894MOL0     H20654  10.699  13.126   1.616  3.9334  2.8347  1.6040
  894MOL0     H20655  10.792  12.972   1.634 -1.2917 -2.3924 -2.5768
  894MOL0     H20656  10.969  13.076   1.459 -1.7919 -1.5547  0.2682
  894MOL0     H20657  10.879  13.223   1.455 -1.5523 -2.2055 -2.4316
  894MOL0     H20658  11.047  13.283   1.597 -0.9847 -0.1401 -3.1886
  894MOL0     H20659  10.925  13.225   1.720 -0.8575 -4.1033 -0.9038
  894MOL0     H20660  11.161  13.076   1.628 -3.1041 -1.6891 -2.0268
  894MOL0     H20661  11.025  13.005   1.694  2.2233 -2.3594 -1.7983
  894MOL0     H20662  11.195  13.068   1.881  1.2935  1.4677 -1.3171
  894MOL0     H20663  11.066  13.185   1.910  0.6118 -2.4282  2.2148
  894MOL0     H20664  11.306  13.255   1.743  0.2292 -1.3925  0.8550
  894MOL0     H20665  11.168  13.359   1.800 -0.5253 -0.1008  1.0302
  894MOL0     H20666  11.255  13.306   2.036  0.9092 -1.5656  1.4567
  894MOL0     H20667  11.350  13.417   1.934 -0.7444 -0.5109 -0.4700
  894MOL0     H20668  11.438  13.125   1.965 -0.2476 -0.2598 -0.2848
  894MOL0     H20669  11.515  13.247   1.860  0.9588  2.3342  0.4091
  894MOL0     H20670  10.599  12.910   1.252 -1.8163 -2.4814 -1.5636
  894MOL0     H20671  10.371  12.780   1.244  1.6744 -1.3837  0.5941
  894MOL0     H20672  10.041  12.416   1.302  4.5314 -1.4258  1.7835
  894MOL0     H20673   9.815  12.323   1.383 -0.4680  0.0624 -0.0818
  894MOL0     H20674   8.580  11.220   1.997 -1.9296  0.2567  2.3584
  894MOL0     H20675   8.369  11.178   2.088 -0.6903  0.4945 -0.5881
  894MOL0     H20676   8.018  11.056   2.194  2.5526  0.3954  1.6668
  894MOL0     H20677   7.797  11.054   2.325  0.3836 -1.0046  0.2888
  894MOL0     H20678   7.544  10.908   2.554  1.1600 -2.9155 -0.5663
  894MOL0     H20679   7.635  11.046   2.479 -2.4240 -1.1468 -2.3943
  894MOL0     H20680   7.636  11.066   2.731  1.1927 -1.4235  2.0410
  894MOL0     H20681   7.801  11.042   2.677  2.0395 -1.1769  3.3580
  894MOL0     H20682   7.767  10.792   2.703  3.3761 -1.2545  1.7958
  894MOL0     H20683   7.614  10.833   2.794 -0.4794 -1.3668 -1.9082
  894MOL0     H20684   7.897  10.931   2.857 -1.6458  0.1933 -4.3245
  894MOL0     H20685   7.756  10.979   2.951 -1.3406 -1.3943  2.0697
  894MOL0     H20686   7.816  10.591   3.107  0.7778 -0.0283 -1.1795
  894MOL0     H20687   7.911  10.681   2.502  1.0338 -0.5374  0.3327
  894MOL0     H20688   8.096  10.546   2.294 -3.9743  0.4156  0.9573
  894MOL0     H20689   8.237  10.637   2.371 -0.1055 -0.6119  0.9706
  894MOL0     H20690   8.104  10.568   2.454  3.5351 -1.7069  0.0719
  895MOL0     O20691   1.989   4.901   1.149  0.0237 -0.0365 -0.1260
  895MOL0     C20692   1.970   4.937   1.033 -0.1953 -0.2197  0.8729
  895MOL0     O20693   2.023   4.879   0.915  0.7261  0.1909 -0.0871
  895MOL0     C20694   2.154   4.833   0.919 -0.0745 -0.6675  0.9940
  895MOL0     C20695   2.259   4.908   0.870 -0.7019 -0.4861  0.0559
  895MOL0     C20696   2.392   4.865   0.872 -0.4169 -0.1404 -1.0633
  895MOL0     C20697   2.430   4.742   0.936 -0.1344 -0.4684  0.0474
  895MOL0     O20698   2.558   4.709   0.949  0.0006  0.3693  0.5983
  895MOL0     C20699   2.607   4.643   1.064 -0.4740 -0.3288 -1.3401
  895MOL0     C20700   2.650   4.503   1.029  0.0191 -0.1247  0.6408
  895MOL0     C20701   2.743   4.501   0.908  0.3099 -0.3800 -0.0375
  895MOL0     C20702   2.769   4.361   0.846  0.6310  0.3665  0.8033
  895MOL0     C20703   2.916   4.343   0.817 -0.3643  0.0170 -0.6644
  895MOL0     C20704   2.937   4.193   0.799  0.7137 -0.0755 -0.5583
  895MOL0     C20705   3.070   4.144   0.782 -0.1979  0.3289 -0.0287
  895MOL0     C20706   3.058   3.988   0.791 -0.1312  0.9007  0.5442
  895MOL0     N20707   3.169   3.918   0.735  0.1812  0.2506 -0.2019
  895MOL0     C20708   3.232   3.813   0.801  0.6751  0.0493 -0.1590
  895MOL0     C20709   3.314   3.759   0.711 -0.1710 -0.1518 -0.9793
  895MOL0     C20710   3.419   3.655   0.752  0.4059  0.5484 -0.5849
  895MOL0     C20711   3.526   3.628   0.639 -0.7945 -0.4069  0.3224
  895MOL0     C20712   3.602   3.503   0.682  0.8420 -0.1282  0.2726
  895MOL0     C20713   3.671   3.457   0.558 -0.2050 -1.1132  0.9777
  895MOL0     O20714   3.736   3.339   0.577  0.2712 -0.5042 -0.1533
  895MOL0     C20715   3.858   3.342   0.642  0.4839  0.7244  0.4465
  895MOL0     C20716   3.892   3.223   0.707  0.4308  0.5654 -0.4224
  895MOL0     C20717   4.007   3.223   0.785 -0.8937  0.7688 -0.7049
  895MOL0     C20718   4.095   3.335   0.803  0.4080  0.6891  0.0292
  895MOL0     C20719   4.221   3.333   0.878  1.2058  0.5553  0.6197
  895MOL0     O20720   4.293   3.456   0.869 -0.1428  0.1800  0.7129
  895MOL0     C20721   4.406   3.467   0.943 -0.9464  0.6912 -0.1261
  895MOL0     C20722   4.409   3.550   1.053  0.2829 -0.1295  0.1476
  895MOL0     C20723   4.522   3.560   1.139  0.7054  1.0270  1.1001
  895MOL0     C20724   4.644   3.504   1.099 -0.0562  0.1953  0.5812
  895MOL0     O20725   4.768   3.520   1.165 -0.5680  0.1732  0.3085
  895MOL0     C20726   4.784   3.632   1.251  0.7583 -0.5118  0.3918
  895MOL0     C20727   4.922   3.634   1.307 -0.3297  0.2443  0.7362
  895MOL0     C20728   4.952   3.746   1.410  0.2088 -0.0669  0.9858
  895MOL0     C20729   5.080   3.705   1.475  0.7301  0.3704  0.7046
  895MOL0     C20730   5.120   3.814   1.568  0.3797  0.0641  0.4480
  895MOL0     C20731   5.247   3.767   1.654  0.2429 -0.4085  0.0040
  895MOL0     C20732   5.381   3.747   1.573  0.7840  0.3925 -0.0403
  895MOL0     C20733   5.503   3.706   1.660 -0.9714  0.2154  0.2859
  895MOL0    Cl20734   5.464   3.557   1.759 -0.5602 -0.1986  0.3608
  895MOL0     C20735   4.637   3.419   0.984 -0.0988  0.2317 -0.5437
  895MOL0     C20736   4.520   3.390   0.909 -0.1754 -0.6768 -0.3429
  895MOL0     O20737   4.253   3.236   0.941 -0.1621 -0.0110 -0.2321
  895MOL0     C20738   4.053   3.446   0.741  1.5237  0.4536  0.8772
  895MOL0     C20739   3.934   3.456   0.667 -0.1697  0.2102 -0.0111
  895MOL0     N20740   3.318   3.829   0.595  0.0851 -0.4872 -0.2671
  895MOL0     N20741   3.241   3.933   0.617 -0.5063  0.3989  0.2069
  895MOL0     C20742   2.325   4.663   0.989  0.4347 -0.0910 -0.0846
  895MOL0     C20743   2.194   4.713   0.977  0.0246 -0.4094 -0.1503
  895MOL0     C20744   1.870   5.036   1.019  0.6783 -0.0036 -0.0314
  895MOL0     C20745   1.776   5.056   1.122  1.0376  0.9450  0.5058
  895MOL0     C20746   1.658   5.129   1.081 -0.3427  0.4325  0.5249
  895MOL0     C20747   1.640   5.187   0.956  0.9861  0.4158  0.4477
  895MOL0     O20748   1.535   5.262   0.917 -0.1213  0.1126 -0.6114
  895MOL0     C20749   1.417   5.269   1.001  0.9235  0.5110 -0.3245
  895MOL0     C20750   1.313   5.366   0.942  0.3368 -1.0168 -0.5947
  895MOL0     C20751   1.275   5.343   0.801 -1.0203 -0.3350  0.5542
  895MOL0     C20752   1.170   5.443   0.759  0.5121 -1.2664  0.1185
  895MOL0     C20753   1.081   5.408   0.648  0.2153  0.6842 -0.4644
  895MOL0     C20754   1.007   5.364   0.562 -0.7059 -0.5503 -0.3979
  895MOL0     C20755   1.757   5.191   0.883  0.6140  0.1656  0.6637
  895MOL0     C20756   1.869   5.114   0.906  0.5458  0.6762  0.7089
  895MOL0     C20757   1.974   5.132   0.799 -1.0827 -0.1927 -0.7707
  895MOL0     H20758   2.254   5.001   0.815  1.3657 -1.4829 -1.9924
  895MOL0     H20759   2.466   4.934   0.832 -1.8220  2.3375  0.3293
  895MOL0     H20760   2.696   4.687   1.110 -1.0322  0.0835 -0.6243
  895MOL0     H20761   2.521   4.637   1.132 -0.3754  0.4704 -1.1356
  895MOL0     H20762   2.560   4.446   1.004  0.5916 -0.1367 -1.5626
  895MOL0     H20763   2.696   4.455   1.116  0.1501  0.5581  0.9524
  895MOL0     H20764   2.821   4.578   0.913 -0.4764  0.5826 -1.7049
  895MOL0     H20765   2.676   4.538   0.830  0.1460  0.0763  0.3164
  895MOL0     H20766   2.728   4.289   0.918 -1.0117  1.5946  1.1825
  895MOL0     H20767   2.711   4.340   0.755  0.3563  1.7430  0.6400
  895MOL0     H20768   2.944   4.400   0.728 -1.2580  2.6734  0.6754
  895MOL0     H20769   2.978   4.382   0.898  0.6513 -1.0529 -0.8886
  895MOL0     H20770   2.906   4.144   0.891  0.3757  1.5402  0.2196
  895MOL0     H20771   2.872   4.156   0.719  0.8514  2.3933 -1.9195
  895MOL0     H20772   3.151   4.192   0.838  1.9328  0.1269 -2.7121
  895MOL0     H20773   3.096   4.168   0.678  2.5901  1.8299  0.8949
  895MOL0     H20774   3.048   3.965   0.897  1.7122 -0.1086  0.5403
  895MOL0     H20775   2.966   3.961   0.738  1.6970  0.8020 -2.9146
  895MOL0     H20776   3.221   3.774   0.902  0.9714 -0.3154 -0.2602
  895MOL0     H20777   3.466   3.686   0.846 -0.5203 -1.0116  0.4264
  895MOL0     H20778   3.374   3.564   0.792  3.1487  0.0875  1.7881
  895MOL0     H20779   3.476   3.609   0.544  0.4545  1.9388 -0.9025
  895MOL0     H20780   3.590   3.715   0.621  4.6090 -4.1611 -1.5185
  895MOL0     H20781   3.539   3.420   0.716  0.0005 -0.2250 -1.3888
  895MOL0     H20782   3.669   3.522   0.766 -1.3897 -1.3841  2.4894
  895MOL0     H20783   3.733   3.540   0.522  0.5742 -1.4629  1.4745
  895MOL0     H20784   3.597   3.438   0.481 -0.0658  2.2784 -0.1614
  895MOL0     H20785   3.826   3.138   0.695  2.8383 -1.4727  0.1335
  895MOL0     H20786   4.037   3.138   0.845  2.3624  1.5932 -0.9828
  895MOL0     H20787   4.320   3.608   1.071  0.1313 -1.2390  4.0027
  895MOL0     H20788   4.513   3.622   1.228 -0.5371 -0.9242  2.4374
  895MOL0     H20789   4.756   3.714   1.184 -0.3833 -2.8308 -2.1826
  895MOL0     H20790   4.717   3.629   1.337  1.0872  1.5232  0.7673
  895MOL0     H20791   4.941   3.537   1.354  3.9374  0.3700 -0.3325
  895MOL0     H20792   4.995   3.647   1.226  1.7153  1.4329  2.6804
  895MOL0     H20793   4.962   3.836   1.349  0.1952 -0.2633  0.6907
  895MOL0     H20794   4.872   3.760   1.483 -0.7802  2.3783 -0.4407
  895MOL0     H20795   5.152   3.699   1.393  0.7785  4.0366  0.3299
  895MOL0     H20796   5.072   3.606   1.521 -0.8075 -1.0863 -2.3981
  895MOL0     H20797   5.037   3.836   1.636 -2.2136  0.6557 -2.6579
  895MOL0     H20798   5.138   3.900   1.504 -0.9537 -1.8631 -2.8094
  895MOL0     H20799   5.272   3.840   1.732 -2.5964  0.5999  0.0597
  895MOL0     H20800   5.210   3.681   1.711 -0.8630  0.7711  1.1407
  895MOL0     H20801   5.399   3.842   1.523 -1.7723  1.2627  0.5332
  895MOL0     H20802   5.358   3.673   1.496 -2.8077  2.0450 -0.7909
  895MOL0     H20803   5.595   3.680   1.607 -2.3210 -1.3742 -1.4064
  895MOL0     H20804   5.524   3.795   1.720 -2.4714  1.3899 -0.8522
  895MOL0     H20805   4.722   3.357   0.955 -0.9054  0.0634 -2.7243
  895MOL0     H20806   4.511   3.321   0.825 -1.2352 -0.6688 -0.2472
  895MOL0     H20807   4.094   3.543   0.765  1.0107  0.5399  1.4132
  895MOL0     H20808   3.906   3.557   0.640 -2.5633 -0.7337 -1.4120
  895MOL0     H20809   2.343   4.567   1.036 -0.5321 -0.0625  0.3773
  895MOL0     H20810   2.109   4.667   1.027  0.4727 -1.2229 -0.1230
  895MOL0     H20811   1.781   5.014   1.222 -1.3030  1.1767  0.7716
  895MOL0     H20812   1.582   5.145   1.156 -0.4313  0.6605  0.3869
  895MOL0     H20813   1.448   5.316   1.096  2.8119 -0.9815 -0.1508
  895MOL0     H20814   1.374   5.172   1.028 -0.3683  1.1954  0.2106
  895MOL0     H20815   1.365   5.463   0.945 -1.9681  0.5000 -3.7692
  895MOL0     H20816   1.229   5.370   1.012 -0.2603  0.9110 -1.3443
  895MOL0     H20817   1.248   5.238   0.791 -1.2710 -0.1118 -1.5508
  895MOL0     H20818   1.356   5.352   0.728 -2.1530  3.4048 -0.5063
  895MOL0     H20819   1.112   5.484   0.842 -0.0598 -1.0720 -0.3700
  895MOL0     H20820   1.220   5.528   0.713  2.5855 -2.1423  0.6352
  895MOL0     H20821   0.949   5.314   0.488  0.5962  0.6200 -2.2904
  895MOL0     H20822   1.761   5.243   0.788 -0.6577  0.1784  0.6026
  895MOL0     H20823   1.999   5.042   0.742 -0.2559  1.5400 -3.3294
  895MOL0     H20824   1.947   5.201   0.718 -1.7472 -0.2187 -0.5749
  895MOL0     H20825   2.066   5.172   0.842 -1.3409 -1.3282  0.9105
  896MOL0     O20826   5.270  11.236   9.113  0.3490  0.9576  0.2068
  896MOL0     C20827   5.367  11.163   9.116  0.6204 -1.1454  0.2416
  896MOL0     O20828   5.454  11.157   9.218 -0.7344 -0.3615  0.4140
  896MOL0     C20829   5.409  11.218   9.335 -0.6620 -1.0869  0.9845
  896MOL0     C20830   5.316  11.161   9.428 -0.2908 -0.3764 -0.6958
  896MOL0     C20831   5.271  11.240   9.529  0.3969 -0.0286 -0.3878
  896MOL0     C20832   5.316  11.364   9.565  0.4620  0.8491 -0.0270
  896MOL0     O20833   5.274  11.439   9.672  0.6236  1.0317 -0.7264
  896MOL0     C20834   5.264  11.375   9.798 -1.0338 -0.2890 -0.0094
  896MOL0     C20835   5.304  11.477   9.908  0.8119 -0.1929 -0.1255
  896MOL0     C20836   5.180  11.566   9.954 -0.6081 -0.4210  0.6931
  896MOL0     C20837   5.093  11.493  10.047 -0.3248  0.1709 -0.2537
  896MOL0     C20838   5.011  11.597  10.127 -0.1571 -0.1896  0.2411
  896MOL0     C20839   4.898  11.526  10.186  0.2844  0.4841  0.0327
  896MOL0     C20840   4.825  11.624  10.277  0.3486  0.0277 -0.3215
  896MOL0     C20841   4.712  11.708  10.218  0.0359 -0.4986 -0.3040
  896MOL0     N20842   4.589  11.632  10.183 -0.1195  0.2618 -0.3362
  896MOL0     C20843   4.465  11.649  10.252  0.0768  0.6498  0.6493
  896MOL0     C20844   4.382  11.566  10.179  0.0333  0.4106 -0.4543
  896MOL0     C20845   4.239  11.534  10.214  0.1364 -0.6154 -0.1964
  896MOL0     C20846   4.222  11.462  10.348  1.0710 -0.2169 -0.1873
  896MOL0     C20847   4.081  11.483  10.404  0.2574  0.0432 -1.0083
  896MOL0     C20848   4.057  11.397  10.532 -0.8944  0.0000  0.3579
  896MOL0     O20849   3.945  11.454  10.600 -0.3642 -0.3323  1.4479
  896MOL0     C20850   3.875  11.372  10.688 -0.1511 -0.2384  0.4294
  896MOL0     C20851   3.764  11.425  10.749 -0.1899 -0.1792 -0.0715
  896MOL0     C20852   3.691  11.358  10.844 -0.0656 -1.0091  0.1322
  896MOL0     C20853   3.728  11.222  10.876 -0.5811  0.6367 -0.6806
  896MOL0     C20854   3.637  11.139  10.958 -0.0913 -0.0775 -1.1013
  896MOL0     O20855   3.686  11.017  10.987 -0.3880  0.0710  0.4322
  896MOL0     C20856   3.613  10.939  11.075  0.7635 -0.5627  0.2566
  896MOL0     C20857   3.691  10.880  11.172  0.0893  0.2847  0.5550
  896MOL0     C20858   3.626  10.790  11.255  0.1957  0.0779 -0.9345
  896MOL0     C20859   3.500  10.742  11.236  0.0672  0.1217  0.1629
  896MOL0     O20860   3.439  10.641  11.305 -0.3584 -0.7436  0.1648
  896MOL0     C20861   3.374  10.694  11.422 -0.8323  0.2491 -0.1690
  896MOL0     C20862   3.315  10.576  11.500  0.7991  0.8192  0.3731
  896MOL0     C20863   3.247  10.620  11.628 -0.1057 -0.3177 -0.2945
  896MOL0     C20864   3.235  10.506  11.718  0.7974  1.4618 -0.6564
  896MOL0     C20865   3.182  10.534  11.856 -0.8508  0.4093 -0.1217
  896MOL0     C20866   3.150  10.406  11.945  0.5172  0.1617 -0.6485
  896MOL0     C20867   3.008  10.351  11.901  0.5555 -0.2517  0.2111
  896MOL0     C20868   2.983  10.220  11.964  0.2515 -0.0251  0.0398
  896MOL0    Cl20869   3.046  10.091  11.856  0.1752  0.3048 -0.6085
  896MOL0     C20870   3.430  10.793  11.129  0.1159  0.6407  0.0678
  896MOL0     C20871   3.485  10.896  11.046  0.0080 -0.1680 -0.4869
  896MOL0     O20872   3.544  11.191  11.019 -0.1807 -0.1395 -0.0492
  896MOL0     C20873   3.844  11.177  10.815  0.3755  0.9106 -0.2887
  896MOL0     C20874   3.909  11.246  10.720  0.3317  0.2813  0.3148
  896MOL0     N20875   4.446  11.517  10.069 -0.3846  0.6774  0.1715
  896MOL0     N20876   4.562  11.556  10.069 -1.2644  0.3045 -0.3096
  896MOL0     C20877   5.420  11.414   9.485 -0.7753  1.5252  0.0355
  896MOL0     C20878   5.475  11.342   9.369 -0.0111 -0.6067  0.0857
  896MOL0     C20879   5.376  11.062   9.002 -0.3396  0.8191 -0.9872
  896MOL0     C20880   5.481  10.965   9.000  0.2814  0.7766 -0.3602
  896MOL0     C20881   5.491  10.871   8.902  0.1049  0.7182 -0.1438
  896MOL0     C20882   5.408  10.876   8.794  0.7623  0.8022  0.8267
  896MOL0     O20883   5.449  10.797   8.685 -0.1657 -0.0828 -0.7102
  896MOL0     C20884   5.366  10.805   8.572  0.3596  0.0329 -0.3680
  896MOL0     C20885   5.408  10.698   8.468 -0.4337 -0.6416 -1.1613
  896MOL0     C20886   5.309  10.700   8.351 -0.2345 -1.3178  0.9971
  896MOL0     C20887   5.385  10.638   8.230 -0.0176  0.4480 -1.0910
  896MOL0     C20888   5.410  10.489   8.236  0.3283 -0.5509 -0.3691
  896MOL0     C20889   5.432  10.372   8.228  1.8808 -0.2039 -0.3004
  896MOL0     C20890   5.290  10.956   8.799  0.3256  0.4620 -0.4508
  896MOL0     C20891   5.272  11.051   8.899 -0.5555  0.1862  0.1140
  896MOL0     C20892   5.146  11.138   8.884 -0.3338 -0.1071 -0.6169
  896MOL0     H20893   5.278  11.061   9.411  0.0874 -0.4659 -1.0045
  896MOL0     H20894   5.196  11.200   9.597  0.4786  1.9208  0.9671
  896MOL0     H20895   5.167  11.332   9.824 -1.5214 -0.7691 -2.3792
  896MOL0     H20896   5.336  11.293   9.811 -1.7411 -1.1664 -1.4193
  896MOL0     H20897   5.379  11.551   9.880 -0.4502  2.3770  2.7111
  896MOL0     H20898   5.334  11.417   9.994  0.1500 -0.4479 -0.0606
  896MOL0     H20899   5.127  11.605   9.867 -2.2378 -3.8372 -0.0164
  896MOL0     H20900   5.223  11.652  10.005  0.0574  1.8277 -3.2991
  896MOL0     H20901   5.019  11.430   9.997  1.0522 -0.4908 -1.5384
  896MOL0     H20902   5.141  11.435  10.126  2.6094  2.7890  0.1363
  896MOL0     H20903   5.070  11.652  10.200 -1.5075  1.4139  0.1859
  896MOL0     H20904   4.970  11.669  10.056 -1.3924 -0.7494  0.3537
  896MOL0     H20905   4.830  11.476  10.116 -1.7356 -0.2370  2.3305
  896MOL0     H20906   4.930  11.437  10.241 -1.4757 -0.5259 -0.4722
  896MOL0     H20907   4.894  11.696  10.322  0.6197  0.1834 -0.9809
  896MOL0     H20908   4.776  11.567  10.357 -2.9442  1.6019 -1.0263
  896MOL0     H20909   4.684  11.785  10.290 -1.9644 -2.6769  1.4428
  896MOL0     H20910   4.757  11.748  10.127 -2.5269  0.4633 -1.2227
  896MOL0     H20911   4.452  11.699  10.347 -0.0682  0.3877  0.7671
  896MOL0     H20912   4.192  11.633  10.220  1.0849 -0.0869 -1.0293
  896MOL0     H20913   4.204  11.475  10.129 -0.8300 -0.4245  0.0551
  896MOL0     H20914   4.233  11.355  10.326 -1.2887 -0.2671 -1.4107
  896MOL0     H20915   4.290  11.496  10.427  2.2794 -0.8831 -0.9129
  896MOL0     H20916   4.018  11.461  10.318  2.4554 -0.0965 -2.6910
  896MOL0     H20917   4.063  11.583  10.443 -0.4500 -0.4216 -0.1169
  896MOL0     H20918   4.142  11.408  10.600  0.1028  2.0882 -1.1202
  896MOL0     H20919   4.049  11.294  10.498  0.4831 -0.1167  0.3492
  896MOL0     H20920   3.726  11.525  10.731 -1.2344 -0.7860 -1.4760
  896MOL0     H20921   3.605  11.393  10.900  0.3799 -2.2752  1.7037
  896MOL0     H20922   3.793  10.908  11.196  1.1238 -1.1071 -1.8559
  896MOL0     H20923   3.684  10.734  11.328 -2.4809 -1.0781  0.4163
  896MOL0     H20924   3.434  10.753  11.492 -3.6355 -0.0795  2.7198
  896MOL0     H20925   3.292  10.758  11.389 -2.5861 -1.4331  0.7562
  896MOL0     H20926   3.251  10.521  11.430  1.1878  3.5844 -2.3680
  896MOL0     H20927   3.402  10.512  11.519 -1.2262 -2.3783 -0.3277
  896MOL0     H20928   3.305  10.704  11.668  0.0577 -1.0015  0.9832
  896MOL0     H20929   3.148  10.664  11.616  0.4053  1.2850  0.9641
  896MOL0     H20930   3.332  10.455  11.719  0.4911  0.8547 -0.9512
  896MOL0     H20931   3.158  10.444  11.671 -3.2977  3.6690  2.5142
  896MOL0     H20932   3.089  10.589  11.840 -0.7931  0.1572 -1.4399
  896MOL0     H20933   3.255  10.591  11.915  2.0361 -1.7968 -1.3273
  896MOL0     H20934   3.231  10.334  11.933  1.6344  1.5475 -1.9349
  896MOL0     H20935   3.149  10.437  12.049 -3.1028 -2.9685  0.4784
  896MOL0     H20936   2.992  10.350  11.793 -0.6451 -1.8382  0.3702
  896MOL0     H20937   2.935  10.416  11.951 -2.2618  0.0671 -3.8462
  896MOL0     H20938   3.040  10.208  12.057 -0.7137 -3.1077  0.3431
  896MOL0     H20939   2.878  10.204  11.992  0.7375 -3.0333  0.5043
  896MOL0     H20940   3.331  10.752  11.113  0.2478  0.4524 -0.2756
  896MOL0     H20941   3.430  10.938  10.963 -0.6783  0.2584  0.1715
  896MOL0     H20942   3.874  11.077  10.846  0.5018  0.9455 -0.2987
  896MOL0     H20943   3.999  11.201  10.680  1.9167  2.5095  1.2313
  896MOL0     H20944   5.452  11.513   9.515  1.1229  1.0039 -0.1752
  896MOL0     H20945   5.557  11.386   9.313  0.7704  1.2259  2.4956
  896MOL0     H20946   5.549  10.955   9.084 -1.7894 -1.6624  1.2292
  896MOL0     H20947   5.579  10.807   8.905 -1.2358 -1.1931  0.6849
  896MOL0     H20948   5.370  10.905   8.527 -0.0889 -0.8960 -2.6180
  896MOL0     H20949   5.263  10.782   8.600  0.9438 -2.9745 -0.3038
  896MOL0     H20950   5.403  10.602   8.521 -2.1217 -1.6820 -3.0632
  896MOL0     H20951   5.507  10.721   8.429 -0.4250 -1.7229 -1.8188
  896MOL0     H20952   5.282  10.801   8.318  0.8921 -0.9537  1.1570
  896MOL0     H20953   5.218  10.643   8.373 -0.6375 -1.1003 -0.0674
  896MOL0     H20954   5.333  10.664   8.138 -0.5246  0.1294 -0.8976
  896MOL0     H20955   5.482  10.686   8.214  0.5014 -0.3416 -0.4601
  896MOL0     H20956   5.443  10.266   8.223 -2.4741 -1.0449  2.5719
  896MOL0     H20957   5.208  10.948   8.728 -2.1056  5.7592  1.2004
  896MOL0     H20958   5.063  11.113   8.951  0.0225  1.6486  0.5380
  896MOL0     H20959   5.168  11.245   8.891 -3.2126  0.4734  1.8982
  896MOL0     H20960   5.113  11.118   8.782  0.7570 -1.4010 -0.7553
  897MOL0     O20961   1.901   5.850   5.548 -0.4651  0.4923 -0.5426
  897MOL0     C20962   1.939   5.893   5.449 -0.2126 -0.8907  0.2830
  897MOL0     O20963   1.862   5.922   5.344  0.2876 -0.2937  0.1183
  897MOL0     C20964   1.721   5.934   5.356  0.4641  0.1072 -0.2326
  897MOL0     C20965   1.658   5.977   5.470 -0.2039 -0.4710  0.0890
  897MOL0     C20966   1.521   5.981   5.469  0.3963 -0.1997 -0.4625
  897MOL0     C20967   1.440   5.939   5.364  1.1181  1.2496 -0.1707
  897MOL0     O20968   1.303   5.953   5.371 -0.2817 -0.1692  0.0568
  897MOL0     C20969   1.213   5.887   5.275  0.0165 -0.0099 -1.1412
  897MOL0     C20970   1.073   5.880   5.325  0.5274 -0.6660 -0.1164
  897MOL0     C20971   1.055   5.761   5.414 -0.5745  0.2856  1.4264
  897MOL0     C20972   0.917   5.763   5.487  0.2583  0.0469  0.0626
  897MOL0     C20973   0.871   5.629   5.535 -0.5682  0.4788 -0.0439
  897MOL0     C20974   0.945   5.590   5.663 -0.2642  0.3747  0.2740
  897MOL0     C20975   0.943   5.444   5.697  0.2157  0.2148  0.4398
  897MOL0     C20976   0.791   5.398   5.698  0.0923 -0.1437  0.4986
  897MOL0     N20977   0.767   5.278   5.780  0.3212 -0.2712  0.0807
  897MOL0     C20978   0.725   5.276   5.909  0.1093  0.1151  0.4852
  897MOL0     C20979   0.727   5.149   5.946  0.0036  0.0466  0.2414
  897MOL0     C20980   0.719   5.112   6.093 -0.8065  0.4205 -0.0342
  897MOL0     C20981   0.844   5.144   6.172 -0.3720 -0.0385 -0.0598
  897MOL0     C20982   0.823   5.104   6.321 -0.3431 -0.2174  0.1129
  897MOL0     C20983   0.957   5.097   6.403 -0.7871 -0.9258  0.2167
  897MOL0     O20984   1.054   5.001   6.350 -0.4248 -0.4822 -0.5979
  897MOL0     C20985   1.035   4.872   6.383 -0.5678  0.4671 -0.1018
  897MOL0     C20986   0.942   4.800   6.306 -0.0138  0.6151  0.5931
  897MOL0     C20987   0.928   4.664   6.338 -0.3099 -0.4472  0.1479
  897MOL0     C20988   1.010   4.593   6.434  0.2909 -0.0534  0.9481
  897MOL0     C20989   1.007   4.447   6.448 -0.0063 -0.3329  0.3097
  897MOL0     O20990   1.103   4.390   6.532  0.4864 -0.2936 -0.3472
  897MOL0     C20991   1.091   4.248   6.547  0.6629 -0.7884 -0.6382
  897MOL0     C20992   1.204   4.171   6.542  0.6897 -0.1930  0.3061
  897MOL0     C20993   1.193   4.030   6.556  0.7427  0.0047 -0.6140
  897MOL0     C20994   1.066   3.969   6.594 -0.9629 -0.3670  0.5090
  897MOL0     O20995   1.078   3.830   6.614  0.2599 -0.8451 -0.9539
  897MOL0     C20996   0.999   3.744   6.703 -0.8509 -0.3811  0.2317
  897MOL0     C20997   0.983   3.599   6.664 -0.4096  0.0546 -0.4063
  897MOL0     C20998   0.889   3.521   6.755  0.2289  0.3869  0.0071
  897MOL0     C20999   0.878   3.373   6.719  1.6719  0.0689 -0.4735
  897MOL0     C21000   0.796   3.295   6.818  0.2874  0.6155  0.3125
  897MOL0     C21001   0.768   3.149   6.765 -0.1682 -0.3791 -0.9962
  897MOL0     C21002   0.710   3.042   6.856  1.1594 -0.6424  0.6056
  897MOL0     C21003   0.712   3.083   7.006  0.1269  0.2844 -0.5900
  897MOL0    Cl21004   0.868   3.068   7.084 -0.5568  0.0725 -0.0775
  897MOL0     C21005   0.956   4.053   6.612 -1.2719  1.3965  0.4560
  897MOL0     C21006   0.969   4.193   6.590 -0.1515 -0.3910  0.6267
  897MOL0     O21007   0.930   4.396   6.375 -0.5913 -0.3165 -0.2480
  897MOL0     C21008   1.082   4.678   6.519 -0.6738 -0.0042  0.5988
  897MOL0     C21009   1.100   4.817   6.491  0.8863  0.3675  0.1298
  897MOL0     N21010   0.755   5.065   5.837  0.3226  0.0297  0.1727
  897MOL0     N21011   0.780   5.148   5.741 -0.5563 -0.2733 -0.5379
  897MOL0     C21012   1.507   5.898   5.247 -0.6842 -0.0974  0.8877
  897MOL0     C21013   1.650   5.892   5.244  0.3698 -0.8714 -0.3273
  897MOL0     C21014   2.088   5.895   5.439  0.2285 -1.4409  0.0513
  897MOL0     C21015   2.143   5.911   5.305 -0.0135 -0.5472 -0.9671
  897MOL0     C21016   2.284   5.928   5.280  0.4746  0.7290  0.2230
  897MOL0     C21017   2.373   5.909   5.389  0.5923 -0.3690  0.9210
  897MOL0     O21018   2.510   5.922   5.389  0.4079  0.4063  0.4224
  897MOL0     C21019   2.559   5.996   5.270 -0.2868 -0.1755 -0.2093
  897MOL0     C21020   2.694   6.061   5.312  0.0825  0.1427 -0.1033
  897MOL0     C21021   2.757   6.177   5.232 -0.1158 -0.1502 -0.4269
  897MOL0     C21022   2.811   6.129   5.096  0.2382 -0.4917 -0.6582
  897MOL0     C21023   2.852   6.233   5.001  0.2487 -0.2692  0.3732
  897MOL0     C21024   2.871   6.329   4.927 -0.6074 -0.0521 -0.3469
  897MOL0     C21025   2.323   5.895   5.517  1.1276 -0.7948  0.4646
  897MOL0     C21026   2.179   5.898   5.551 -0.3919  0.3038  0.0231
  897MOL0     C21027   2.152   5.913   5.699  0.1263 -0.1526  1.1591
  897MOL0     H21028   1.709   5.995   5.565  3.8754  0.5229 -2.0702
  897MOL0     H21029   1.477   6.018   5.561  0.6822  1.3765 -0.9162
  897MOL0     H21030   1.207   5.956   5.190 -1.0675 -0.1252 -1.1657
  897MOL0     H21031   1.248   5.786   5.254 -2.6481 -1.8188  2.2383
  897MOL0     H21032   1.008   5.865   5.238 -0.2644  0.3214  0.2872
  897MOL0     H21033   1.045   5.976   5.369  0.6307 -1.6302  2.2033
  897MOL0     H21034   1.137   5.752   5.487  0.6629  0.8025  0.1341
  897MOL0     H21035   1.056   5.673   5.349  0.5790 -1.1065  3.2127
  897MOL0     H21036   0.923   5.831   5.572 -0.4921 -0.4381  0.5288
  897MOL0     H21037   0.847   5.805   5.414  0.1340 -1.2768 -0.6271
  897MOL0     H21038   0.764   5.632   5.561 -0.6970 -2.2289  0.0220
  897MOL0     H21039   0.895   5.561   5.453  0.0083  2.4214 -1.5561
  897MOL0     H21040   1.045   5.633   5.671  0.2232 -0.7498  0.4801
  897MOL0     H21041   0.892   5.640   5.745  1.6557  1.4858  0.8917
  897MOL0     H21042   0.984   5.444   5.798  0.8871 -1.0057  0.1874
  897MOL0     H21043   0.999   5.378   5.629  1.4191  0.6703  0.9666
  897MOL0     H21044   0.730   5.481   5.735  0.0119 -0.9860  2.3214
  897MOL0     H21045   0.759   5.374   5.596 -0.3368  1.8788  0.1116
  897MOL0     H21046   0.711   5.363   5.973 -0.0513  0.4200  0.0459
  897MOL0     H21047   0.633   5.170   6.128 -1.5949 -0.4416 -0.5209
  897MOL0     H21048   0.685   5.009   6.096 -0.7169  0.3987  0.2407
  897MOL0     H21049   0.921   5.074   6.139  0.7500  0.6654  0.9745
  897MOL0     H21050   0.875   5.247   6.149 -2.8250  0.9988  0.9845
  897MOL0     H21051   0.779   5.005   6.311  1.7595 -0.9868 -3.0558
  897MOL0     H21052   0.756   5.181   6.361  1.2876  0.6038  1.3394
  897MOL0     H21053   0.936   5.070   6.507 -0.0844  1.4533  1.0468
  897MOL0     H21054   1.012   5.190   6.390 -0.2318 -1.3947 -0.9346
  897MOL0     H21055   0.871   4.851   6.241 -1.2801  1.5812  2.6248
  897MOL0     H21056   0.851   4.620   6.275  0.0292  1.3076 -1.5734
  897MOL0     H21057   1.297   4.219   6.513  1.3250 -1.7280 -0.2595
  897MOL0     H21058   1.282   3.974   6.528  0.6909  0.5419 -1.8960
  897MOL0     H21059   1.051   3.742   6.800  1.7878 -0.9938 -1.1215
  897MOL0     H21060   0.899   3.788   6.716 -0.8584  0.8840 -3.2790
  897MOL0     H21061   0.943   3.572   6.566  0.2510  0.7034 -0.8665
  897MOL0     H21062   1.074   3.538   6.663 -1.2344 -1.2087 -0.6350
  897MOL0     H21063   0.926   3.527   6.858 -1.6284  3.9788  0.6399
  897MOL0     H21064   0.797   3.578   6.742  0.4731  0.6085 -0.7953
  897MOL0     H21065   0.975   3.322   6.713  2.3779  1.3151  0.0117
  897MOL0     H21066   0.847   3.368   6.615 -1.7650  3.1921  0.2162
  897MOL0     H21067   0.697   3.341   6.826 -0.9585 -1.8464  0.0542
  897MOL0     H21068   0.855   3.300   6.910  2.5077 -0.4547 -0.9968
  897MOL0     H21069   0.703   3.150   6.677 -0.4095  0.9850 -0.8230
  897MOL0     H21070   0.866   3.111   6.737  1.0235  1.8296 -0.0443
  897MOL0     H21071   0.765   2.948   6.860  5.7195  1.7840  2.8298
  897MOL0     H21072   0.608   3.023   6.823  0.9062  0.7149  0.5511
  897MOL0     H21073   0.667   3.182   7.021 -1.9170 -1.0312  2.9847
  897MOL0     H21074   0.648   3.012   7.058 -0.9015  0.4143 -1.6339
  897MOL0     H21075   0.854   4.014   6.620 -0.1669 -2.3013 -1.2590
  897MOL0     H21076   0.872   4.241   6.592 -0.7485 -1.5337  0.0876
  897MOL0     H21077   1.143   4.645   6.602 -0.7678 -0.6903  0.3961
  897MOL0     H21078   1.154   4.890   6.552 -0.9954  2.5143 -0.6385
  897MOL0     H21079   1.439   5.880   5.165 -0.3446  0.5779  0.4457
  897MOL0     H21080   1.700   5.850   5.157  1.5982  0.5041 -0.3238
  897MOL0     H21081   2.077   5.929   5.220  0.3614  2.3699 -0.7294
  897MOL0     H21082   2.323   5.955   5.183 -0.3538  0.9258 -0.0648
  897MOL0     H21083   2.484   6.072   5.247 -1.0023 -0.5150  0.9234
  897MOL0     H21084   2.575   5.929   5.185 -0.7945 -1.2528  0.5167
  897MOL0     H21085   2.764   5.977   5.314  0.2201  0.2133 -1.1450
  897MOL0     H21086   2.686   6.097   5.415  2.8926  1.7237 -0.3577
  897MOL0     H21087   2.835   6.223   5.293  0.8404 -1.9949 -0.1793
  897MOL0     H21088   2.679   6.253   5.222  0.5337  0.4738 -0.8654
  897MOL0     H21089   2.903   6.074   5.121  1.5000  0.9900 -1.8627
  897MOL0     H21090   2.733   6.065   5.053  0.4829 -2.1040  1.1480
  897MOL0     H21091   2.887   6.410   4.859  0.0597  1.5780  1.6550
  897MOL0     H21092   2.402   5.902   5.591 -0.7388  1.4105  2.3876
  897MOL0     H21093   2.066   5.980   5.712  1.7219  2.6119 -1.1733
  897MOL0     H21094   2.130   5.815   5.743 -2.8645 -0.4649 -0.7268
  897MOL0     H21095   2.243   5.954   5.743 -0.3502  3.4753 -0.8187
  898MOL0     O21096   9.499   5.971   2.537  0.0740 -0.1592 -0.9852
  898MOL0     C21097   9.414   6.043   2.589 -0.2519  0.3483  0.0546
  898MOL0     O21098   9.296   6.058   2.532  0.2617 -0.5997  0.0206
  898MOL0     C21099   9.269   5.997   2.413 -0.3920  0.1178 -0.3185
  898MOL0     C21100   9.274   5.865   2.385 -0.2517 -0.5653 -0.4836
  898MOL0     C21101   9.248   5.820   2.253  0.4578 -0.2735 -0.1231
  898MOL0     C21102   9.220   5.915   2.155 -0.2068  0.1040 -0.4440
  898MOL0     O21103   9.199   5.882   2.035 -0.0140 -0.4172  0.6268
  898MOL0     C21104   9.325   5.889   1.964 -0.0933 -0.1325  0.0018
  898MOL0     C21105   9.317   5.791   1.854  0.2378  0.0479  0.0604
  898MOL0     C21106   9.186   5.809   1.771 -1.3066  0.5344  0.0060
  898MOL0     C21107   9.155   5.674   1.696 -0.2535 -0.5698 -0.2591
  898MOL0     C21108   9.055   5.669   1.583 -0.4917  0.7462  1.2371
  898MOL0     C21109   8.910   5.702   1.602  0.0462 -0.2632 -0.5525
  898MOL0     C21110   8.815   5.602   1.682 -0.1117 -0.0836  0.1640
  898MOL0     C21111   8.668   5.612   1.651  0.5030 -0.0350  0.3658
  898MOL0     N21112   8.619   5.738   1.689 -0.2341 -0.9012 -0.3520
  898MOL0     C21113   8.567   5.769   1.816  0.7464  0.7459 -0.0679
  898MOL0     C21114   8.507   5.884   1.804  0.1190 -0.0819  0.3224
  898MOL0     C21115   8.449   5.958   1.922  0.3056  0.3217 -0.5742
  898MOL0     C21116   8.322   6.032   1.882 -0.1284  0.2097 -0.6761
  898MOL0     C21117   8.337   6.174   1.827 -0.1058  0.8934  0.2453
  898MOL0     C21118   8.356   6.276   1.930  0.2444 -0.2235 -0.0350
  898MOL0     O21119   8.483   6.276   1.988  0.4048  0.5046 -0.8259
  898MOL0     C21120   8.496   6.341   2.112 -0.0055  0.0525  0.1797
  898MOL0     C21121   8.386   6.367   2.199  0.8163 -0.0434  0.0102
  898MOL0     C21122   8.410   6.418   2.327  0.1254  0.2724 -0.7373
  898MOL0     C21123   8.545   6.442   2.373  0.7863 -0.0176  0.3095
  898MOL0     C21124   8.569   6.490   2.513 -0.0282 -0.1572 -0.2695
  898MOL0     O21125   8.453   6.545   2.575 -0.0055  0.1581 -0.2596
  898MOL0     C21126   8.476   6.577   2.707  0.1878 -0.5174  0.6008
  898MOL0     C21127   8.485   6.474   2.792 -0.4468 -1.1250  1.0621
  898MOL0     C21128   8.506   6.497   2.927  0.2188  0.3119 -0.0952
  898MOL0     C21129   8.533   6.624   2.980 -0.3476 -0.2714  0.2577
  898MOL0     O21130   8.571   6.635   3.111  0.3573 -0.0520 -0.1530
  898MOL0     C21131   8.627   6.764   3.157  0.8987 -0.0924  0.4534
  898MOL0     C21132   8.629   6.761   3.312  0.6393 -0.3220  0.0697
  898MOL0     C21133   8.677   6.897   3.363 -0.4188  0.7978 -0.0148
  898MOL0     C21134   8.671   6.897   3.512 -1.0169 -0.4778  0.0948
  898MOL0     C21135   8.746   7.010   3.583 -0.0929  0.0056  0.0594
  898MOL0     C21136   8.897   7.003   3.591 -0.0951  1.3520  0.0484
  898MOL0     C21137   8.962   7.136   3.587 -0.5890 -0.4004 -0.2705
  898MOL0     C21138   9.110   7.117   3.613 -0.6880 -0.3280  0.9629
  898MOL0    Cl21139   9.155   7.023   3.766  0.0449  0.2338  0.3017
  898MOL0     C21140   8.528   6.732   2.886  0.7710 -0.1547  0.2073
  898MOL0     C21141   8.497   6.709   2.753 -0.0867 -1.1641  0.6003
  898MOL0     O21142   8.683   6.495   2.554 -0.3558 -0.8111  0.2047
  898MOL0     C21143   8.656   6.414   2.285 -0.5793 -0.3338  0.0805
  898MOL0     C21144   8.630   6.373   2.151  0.3206 -0.4799 -0.7461
  898MOL0     N21145   8.525   5.934   1.675 -0.5971 -0.6643  0.4466
  898MOL0     N21146   8.598   5.847   1.617 -0.1130  1.0883  0.5642
  898MOL0     C21147   9.196   6.043   2.184 -0.9363  0.7424 -0.0135
  898MOL0     C21148   9.229   6.088   2.312 -0.1445  0.7011 -0.4794
  898MOL0     C21149   9.432   6.093   2.726  0.2622 -1.3093 -1.0441
  898MOL0     C21150   9.320   6.104   2.815  0.0352 -0.6534  0.4389
  898MOL0     C21151   9.315   6.162   2.943 -0.6695  0.0033 -0.0162
  898MOL0     C21152   9.437   6.216   2.986 -0.1237  0.1539  0.7101
  898MOL0     O21153   9.438   6.272   3.112 -0.3529  0.5057 -0.0067
  898MOL0     C21154   9.541   6.363   3.165  0.7360  0.6798  0.3474
  898MOL0     C21155   9.661   6.304   3.226 -1.0951 -1.0358 -0.4084
  898MOL0     C21156   9.656   6.156   3.286  0.2170  0.8281  1.0041
  898MOL0     C21157   9.618   6.153   3.433  0.1136  0.4419  0.2870
  898MOL0     C21158   9.729   6.203   3.513  0.3144 -0.3360 -0.1439
  898MOL0     C21159   9.823   6.242   3.579  0.0363  1.9074  0.0476
  898MOL0     C21160   9.553   6.206   2.904 -0.1131  0.3757 -0.5052
  898MOL0     C21161   9.556   6.141   2.777  1.0229 -0.6981 -0.6232
  898MOL0     C21162   9.684   6.159   2.701 -0.7425 -0.9171 -0.5576
  898MOL0     H21163   9.299   5.794   2.463  0.1740  0.3657  0.2559
  898MOL0     H21164   9.247   5.718   2.214 -0.7646 -0.4390  0.2981
  898MOL0     H21165   9.341   5.993   1.934 -0.2996  0.0066  0.3753
  898MOL0     H21166   9.413   5.861   2.022  1.2708  2.1336 -0.8814
  898MOL0     H21167   9.328   5.691   1.897  2.7622 -0.5880 -1.8380
  898MOL0     H21168   9.406   5.803   1.791  0.4743 -0.2193  0.3416
  898MOL0     H21169   9.217   5.888   1.702 -0.0229 -1.1148 -1.4107
  898MOL0     H21170   9.102   5.838   1.835 -2.3122 -0.6807 -0.7049
  898MOL0     H21171   9.244   5.625   1.655  0.9116  0.5818  0.7816
  898MOL0     H21172   9.107   5.616   1.775 -0.0581  0.8796  0.9701
  898MOL0     H21173   9.111   5.735   1.515  0.3516 -1.8571 -0.7506
  898MOL0     H21174   9.064   5.570   1.539  0.2162  2.3072 -2.5597
  898MOL0     H21175   8.896   5.805   1.638  1.5091 -0.7748  1.6918
  898MOL0     H21176   8.857   5.697   1.507 -2.5064  0.0866  0.7660
  898MOL0     H21177   8.839   5.615   1.788  1.8310  2.5627 -0.4726
  898MOL0     H21178   8.842   5.499   1.659 -0.0075  0.5442 -3.0668
  898MOL0     H21179   8.649   5.596   1.545 -2.6433 -2.4453  1.1407
  898MOL0     H21180   8.612   5.533   1.701  1.9704 -0.8272  0.8046
  898MOL0     H21181   8.563   5.711   1.908  0.3310  0.1296 -0.4724
  898MOL0     H21182   8.435   5.885   2.002  0.2000 -0.2731 -1.1258
  898MOL0     H21183   8.530   6.026   1.951  1.5829 -0.5175 -2.0227
  898MOL0     H21184   8.259   5.975   1.813  0.3966  0.8093 -1.6731
  898MOL0     H21185   8.263   6.040   1.974 -2.6974  0.3249 -2.2461
  898MOL0     H21186   8.244   6.200   1.776 -1.1064 -0.5692  1.2579
  898MOL0     H21187   8.412   6.169   1.747 -0.2351 -1.3488  0.2110
  898MOL0     H21188   8.285   6.262   2.011  2.6870  1.0552  2.5076
  898MOL0     H21189   8.340   6.373   1.881 -0.0756  0.3287  1.1288
  898MOL0     H21190   8.282   6.349   2.171  0.2110  1.9241  0.7692
  898MOL0     H21191   8.333   6.421   2.404  0.3091  0.5336 -0.5626
  898MOL0     H21192   8.460   6.373   2.760 -3.8791  0.4757 -1.9940
  898MOL0     H21193   8.504   6.404   2.984 -2.2415  0.5115  0.2309
  898MOL0     H21194   8.729   6.786   3.124  0.3140 -0.7273 -1.9851
  898MOL0     H21195   8.558   6.844   3.129  2.4796  2.1435  2.5428
  898MOL0     H21196   8.524   6.741   3.331 -0.5250  1.9531 -3.0719
  898MOL0     H21197   8.705   6.691   3.348  1.5376  1.4003  1.7357
  898MOL0     H21198   8.776   6.922   3.323 -0.6332  1.4290 -0.1652
  898MOL0     H21199   8.621   6.982   3.322  1.7346  3.7563  2.6961
  898MOL0     H21200   8.718   6.806   3.553 -2.7118  0.3431  4.2699
  898MOL0     H21201   8.569   6.894   3.551 -1.2894  0.7363 -0.4910
  898MOL0     H21202   8.699   7.023   3.680 -0.8501  3.3813 -0.6319
  898MOL0     H21203   8.716   7.100   3.527 -3.5384 -1.2582 -0.3607
  898MOL0     H21204   8.916   6.960   3.690  0.4904  2.9739  0.6788
  898MOL0     H21205   8.940   6.938   3.514 -1.1825 -2.6138  2.4782
  898MOL0     H21206   8.922   7.208   3.659 -0.9019  1.6062 -2.3355
  898MOL0     H21207   8.938   7.190   3.495  1.8568  0.4359 -0.4751
  898MOL0     H21208   9.157   7.076   3.523  0.4697 -1.8060  2.1973
  898MOL0     H21209   9.154   7.215   3.632 -2.7686  0.8760 -0.0292
  898MOL0     H21210   8.524   6.832   2.927 -3.4238 -0.4299  0.9061
  898MOL0     H21211   8.508   6.780   2.672 -0.5288  0.4354  1.8807
  898MOL0     H21212   8.757   6.432   2.319  0.3722 -4.1905 -0.2357
  898MOL0     H21213   8.712   6.357   2.082  3.0020  3.3392  1.2153
  898MOL0     H21214   9.160   6.109   2.106 -0.4773  0.0752 -0.7913
  898MOL0     H21215   9.211   6.185   2.358  1.1851 -0.5324  2.9926
  898MOL0     H21216   9.229   6.065   2.770  1.2431 -1.2348 -1.6538
  898MOL0     H21217   9.229   6.181   3.006 -0.4089  3.2175 -0.4750
  898MOL0     H21218   9.487   6.416   3.244  0.0599  1.0715 -0.3634
  898MOL0     H21219   9.571   6.435   3.089 -3.9101  0.9726 -1.5502
  898MOL0     H21220   9.686   6.363   3.314 -1.2987 -0.6906 -0.5778
  898MOL0     H21221   9.738   6.311   3.148 -4.0769  3.4541 -3.5254
  898MOL0     H21222   9.754   6.110   3.272  0.8726  2.8485 -1.8156
  898MOL0     H21223   9.584   6.106   3.221  0.1372  2.5176 -0.2743
  898MOL0     H21224   9.533   6.219   3.449 -1.8983 -2.3679  2.1588
  898MOL0     H21225   9.593   6.048   3.450 -0.6464  0.4444 -0.6980
  898MOL0     H21226   9.908   6.244   3.645 -0.4620  0.3269  0.7860
  898MOL0     H21227   9.643   6.251   2.945 -1.2226  0.1300  2.3999
  898MOL0     H21228   9.670   6.197   2.600 -0.7297 -1.5808 -0.8113
  898MOL0     H21229   9.760   6.225   2.743  0.2537 -2.0954 -0.4695
  898MOL0     H21230   9.734   6.063   2.693  0.3622 -0.2110 -2.7605
  899MOL0     O21231   6.331   1.561   7.027  0.1864 -0.3882  0.2897
  899MOL0     C21232   6.294   1.446   7.051 -0.4594 -0.2511  0.3072
  899MOL0     O21233   6.319   1.333   6.977  0.1549 -0.2141  0.1399
  899MOL0     C21234   6.374   1.355   6.850 -0.1441  0.3404 -0.7992
  899MOL0     C21235   6.300   1.357   6.727 -0.3370 -0.3469 -0.7240
  899MOL0     C21236   6.372   1.377   6.605  0.3091 -0.0830 -0.7832
  899MOL0     C21237   6.513   1.398   6.611 -0.4731  0.3196 -0.2655
  899MOL0     O21238   6.582   1.419   6.495 -0.5543  0.7209  0.9860
  899MOL0     C21239   6.600   1.555   6.450  0.3349 -0.2340  1.0429
  899MOL0     C21240   6.723   1.549   6.361  0.0032  0.5211 -0.2094
  899MOL0     C21241   6.857   1.526   6.434 -0.6412  0.2488  0.5301
  899MOL0     C21242   6.972   1.566   6.347 -0.3151  0.1625  0.3695
  899MOL0     C21243   7.103   1.586   6.422  0.3655 -0.9006 -0.2192
  899MOL0     C21244   7.096   1.705   6.523 -0.8643 -0.5720 -0.9987
  899MOL0     C21245   7.221   1.792   6.566 -0.5156 -0.1336 -0.6429
  899MOL0     C21246   7.328   1.695   6.619  0.4324  0.2668 -0.4441
  899MOL0     N21247   7.426   1.746   6.708 -0.2909 -0.3919 -0.3754
  899MOL0     C21248   7.411   1.787   6.843  0.4572  0.3725 -0.4076
  899MOL0     C21249   7.522   1.853   6.880  0.4085  0.5149  0.3859
  899MOL0     C21250   7.546   1.928   7.011  0.4489  0.6090  0.0638
  899MOL0     C21251   7.668   2.011   7.010 -0.1823 -0.0464 -0.5432
  899MOL0     C21252   7.720   2.049   7.151  1.2388 -0.2750  0.0714
  899MOL0     C21253   7.862   2.085   7.152  0.9810  0.1315 -0.3475
  899MOL0     O21254   7.955   1.977   7.136 -0.2447  0.8823 -0.2399
  899MOL0     C21255   8.090   2.008   7.152 -0.7039  0.2279 -0.2196
  899MOL0     C21256   8.158   2.105   7.077  0.0667 -0.2520  0.7778
  899MOL0     C21257   8.294   2.123   7.090 -0.3787  0.1713  0.3423
  899MOL0     C21258   8.375   2.035   7.163 -0.3115  0.2020  1.3480
  899MOL0     C21259   8.528   2.059   7.162 -1.1197 -0.4088 -0.6268
  899MOL0     O21260   8.580   2.155   7.092 -0.4083 -0.4464  0.5456
  899MOL0     C21261   8.701   2.213   7.119  0.1037 -0.5295  0.5294
  899MOL0     C21262   8.782   2.213   7.235  0.4874  1.1585  0.3025
  899MOL0     C21263   8.912   2.262   7.236  0.0138 -0.2835  0.3207
  899MOL0     C21264   8.968   2.304   7.115 -0.4529 -0.4470  0.2257
  899MOL0     O21265   9.104   2.338   7.117 -0.2120 -0.3772 -0.8629
  899MOL0     C21266   9.170   2.368   6.999 -0.1443  0.6713  0.9242
  899MOL0     C21267   9.324   2.383   7.011  1.4615  0.4814 -0.5013
  899MOL0     C21268   9.396   2.505   6.945 -0.6226 -0.3161  0.7015
  899MOL0     C21269   9.440   2.601   7.046 -0.7343 -1.1102  0.1793
  899MOL0     C21270   9.326   2.644   7.140  1.1070  0.0875  0.8024
  899MOL0     C21271   9.378   2.723   7.258 -0.4899  0.1133 -0.8232
  899MOL0     C21272   9.270   2.759   7.359  0.2596 -0.6000  0.2928
  899MOL0     C21273   9.310   2.873   7.451  0.3571 -0.5341 -0.3939
  899MOL0    Cl21274   9.470   2.833   7.529 -0.0138  0.1092 -0.6627
  899MOL0     C21275   8.885   2.312   6.999  0.2048  0.9690 -0.7516
  899MOL0     C21276   8.753   2.265   7.007 -0.7385 -1.0511  0.6594
  899MOL0     O21277   8.586   2.006   7.255  0.1454 -0.5440  0.1609
  899MOL0     C21278   8.312   1.927   7.226 -0.4574  0.1657  1.1562
  899MOL0     C21279   8.171   1.918   7.225 -0.0012 -0.3033  1.0161
  899MOL0     N21280   7.612   1.825   6.777  0.3516  0.1576  0.3308
  899MOL0     N21281   7.552   1.770   6.673 -0.1440 -0.0142  0.2973
  899MOL0     C21282   6.582   1.406   6.740  0.8891  1.5483  0.2037
  899MOL0     C21283   6.508   1.376   6.859 -0.2800 -0.6861  0.0115
  899MOL0     C21284   6.223   1.428   7.179  0.3861  0.5622  0.8181
  899MOL0     C21285   6.272   1.327   7.266  0.1510  0.7288  0.8164
  899MOL0     C21286   6.210   1.302   7.386 -0.9981 -0.4514 -0.1389
  899MOL0     C21287   6.124   1.396   7.434  1.6742 -1.6955  1.3173
  899MOL0     O21288   6.056   1.390   7.554  0.0966 -0.3593 -0.0964
  899MOL0     C21289   6.098   1.305   7.667 -0.0351  0.6463  0.1681
  899MOL0     C21290   6.021   1.179   7.678 -0.3166 -0.1869  0.1862
  899MOL0     C21291   5.902   1.207   7.783 -0.1743  0.5253 -0.3087
  899MOL0     C21292   5.841   1.071   7.830 -0.2096  1.0732 -0.9571
  899MOL0     C21293   5.764   1.086   7.954  0.0247  0.6847 -0.4802
  899MOL0     C21294   5.694   1.111   8.052  0.2127 -0.1653 -0.2813
  899MOL0     C21295   6.074   1.500   7.350 -0.5792 -0.3602 -1.1694
  899MOL0     C21296   6.131   1.522   7.222 -0.0547  0.2014 -0.2722
  899MOL0     C21297   6.078   1.632   7.141  0.2313 -0.7152  0.5547
  899MOL0     H21298   6.193   1.341   6.727 -0.3263 -0.7005  1.4583
  899MOL0     H21299   6.324   1.375   6.508 -1.1318  1.6971 -0.1590
  899MOL0     H21300   6.521   1.598   6.388  0.0283  0.8429  2.1309
  899MOL0     H21301   6.612   1.635   6.524  0.2365 -0.4037  1.2433
  899MOL0     H21302   6.718   1.642   6.305 -1.6937  0.5897  0.0122
  899MOL0     H21303   6.706   1.472   6.285  1.1531 -2.2671  2.1278
  899MOL0     H21304   6.867   1.421   6.465 -0.0395 -0.6761 -2.4780
  899MOL0     H21305   6.857   1.580   6.529 -0.3771  2.1577 -0.5019
  899MOL0     H21306   6.984   1.481   6.278 -2.0982 -0.1697  0.4359
  899MOL0     H21307   6.945   1.655   6.289 -1.3028 -0.8881 -0.8537
  899MOL0     H21308   7.133   1.496   6.476  0.0523  0.9934  3.3759
  899MOL0     H21309   7.184   1.610   6.352  2.8441 -2.2476  1.9910
  899MOL0     H21310   7.029   1.783   6.485  2.1008  3.2794  1.0285
  899MOL0     H21311   7.047   1.668   6.613 -1.9641 -0.5572 -1.5746
  899MOL0     H21312   7.213   1.871   6.641 -0.6548 -0.9464  0.2132
  899MOL0     H21313   7.256   1.843   6.475 -1.7012 -0.1716 -1.1433
  899MOL0     H21314   7.284   1.599   6.649 -1.2736 -0.1694 -3.8177
  899MOL0     H21315   7.387   1.677   6.528 -1.1494 -0.2673 -1.3955
  899MOL0     H21316   7.320   1.787   6.902  1.8815 -2.1750  2.0742
  899MOL0     H21317   7.461   1.992   7.037 -3.0066 -4.1117  1.8804
  899MOL0     H21318   7.560   1.854   7.090 -3.3323  2.7343  3.1052
  899MOL0     H21319   7.752   1.959   6.962 -1.8774 -1.0445 -2.6338
  899MOL0     H21320   7.656   2.101   6.949 -0.2018  0.9549  0.9179
  899MOL0     H21321   7.698   1.974   7.228  1.1672  1.9125  2.3089
  899MOL0     H21322   7.661   2.138   7.175 -2.2866 -2.1684 -0.9014
  899MOL0     H21323   7.887   2.143   7.242 -2.7362 -0.0537  0.9941
  899MOL0     H21324   7.865   2.161   7.074  0.2702  1.7833  1.1632
  899MOL0     H21325   8.106   2.162   7.000  1.5856  0.0285 -0.0677
  899MOL0     H21326   8.341   2.202   7.031 -0.1828  0.1824  0.5126
  899MOL0     H21327   8.750   2.152   7.318  1.6953 -0.2613 -0.2293
  899MOL0     H21328   8.971   2.272   7.327  1.3140  3.7742 -0.7228
  899MOL0     H21329   9.153   2.294   6.920  4.0204 -1.2736  1.6206
  899MOL0     H21330   9.128   2.463   6.965 -1.9310 -0.7689 -1.1663
  899MOL0     H21331   9.359   2.367   7.113  0.2230  1.0009  0.0144
  899MOL0     H21332   9.363   2.297   6.954 -0.8935 -0.8858 -0.1708
  899MOL0     H21333   9.476   2.470   6.879 -1.0723  1.1995 -0.7475
  899MOL0     H21334   9.329   2.553   6.873  1.4343  0.8042 -0.5805
  899MOL0     H21335   9.476   2.692   6.997 -0.3883 -1.0087  0.6121
  899MOL0     H21336   9.530   2.571   7.100 -0.7566  2.3875  2.4729
  899MOL0     H21337   9.255   2.563   7.162 -0.8885  0.8135 -2.2675
  899MOL0     H21338   9.246   2.698   7.088  2.8713 -1.0971 -3.6954
  899MOL0     H21339   9.456   2.663   7.306  0.5085  3.1695  1.7068
  899MOL0     H21340   9.419   2.816   7.219 -0.4202  0.5791  0.3257
  899MOL0     H21341   9.249   2.664   7.409 -0.0391 -1.3671 -1.2565
  899MOL0     H21342   9.176   2.796   7.317  0.0224  0.8197  1.9189
  899MOL0     H21343   9.310   2.970   7.402 -3.3509 -1.4788 -2.6407
  899MOL0     H21344   9.229   2.872   7.525 -0.1705 -0.0693 -0.9645
  899MOL0     H21345   8.931   2.336   6.903 -0.1905  0.7991 -0.9842
  899MOL0     H21346   8.693   2.263   6.917  0.5552  1.2276 -0.3666
  899MOL0     H21347   8.369   1.853   7.280 -4.0744 -1.7938  2.6877
  899MOL0     H21348   8.124   1.831   7.269  0.0711  0.4480  2.6790
  899MOL0     H21349   6.690   1.413   6.737  0.9140  1.2680  0.3479
  899MOL0     H21350   6.557   1.382   6.956  1.4129  3.6963 -0.8689
  899MOL0     H21351   6.350   1.261   7.230 -0.1825  0.2969  0.8843
  899MOL0     H21352   6.238   1.211   7.439 -0.7502 -0.0809  0.3728
  899MOL0     H21353   6.123   1.361   7.758 -0.1339  1.6995 -0.4421
  899MOL0     H21354   6.199   1.280   7.632  0.7452  1.3848  1.7406
  899MOL0     H21355   6.089   1.106   7.721 -0.1867 -0.7042 -0.8490
  899MOL0     H21356   5.983   1.150   7.579 -1.3707 -1.6878  0.9826
  899MOL0     H21357   5.825   1.264   7.731  0.3140  1.6011  0.1254
  899MOL0     H21358   5.930   1.268   7.869  0.1757 -1.0797  0.7704
  899MOL0     H21359   5.770   1.040   7.752 -0.9084  1.9679 -0.6914
  899MOL0     H21360   5.908   0.985   7.829 -3.1478 -1.3754 -0.2166
  899MOL0     H21361   5.639   1.137   8.141 -0.5339 -2.2864 -0.0792
  899MOL0     H21362   5.996   1.552   7.405 -0.8542 -1.8365 -0.1068
  899MOL0     H21363   6.131   1.718   7.183 -0.3383 -0.8820  1.6543
  899MOL0     H21364   6.089   1.630   7.032 -1.2690  0.7292  0.3322
  899MOL0     H21365   5.973   1.656   7.159 -0.0877 -1.5635 -0.1107
  900MOL0     O21366   8.025   8.926   0.029 -0.2975 -0.2912 -0.1100
  900MOL0     C21367   7.925   8.985   0.085 -0.3139 -0.2321 -0.4257
  900MOL0     O21368   7.828   9.064   0.021 -0.2837 -0.2843 -0.3689
  900MOL0     C21369   7.831   9.075  -0.115  0.6073 -0.5509  0.1442
  900MOL0     C21370   7.757   8.991  -0.199  0.9782  0.4998  0.5362
  900MOL0     C21371   7.769   8.988  -0.346  0.3463  0.1248 -0.8839
  900MOL0     C21372   7.849   9.086  -0.404 -0.2072 -0.1128 -0.3001
  900MOL0     O21373   7.869   9.101  -0.539 -0.2797 -0.1216  0.7636
  900MOL0     C21374   7.785   9.025  -0.633 -0.5867  0.4004  0.0952
  900MOL0     C21375   7.836   9.063  -0.777  0.4326  0.7712 -0.1978
  900MOL0     C21376   7.842   9.213  -0.813 -0.3062  0.2566  0.6076
  900MOL0     C21377   7.860   9.222  -0.967 -0.2001 -0.4550 -0.2193
  900MOL0     C21378   7.888   9.363  -1.018  0.1275  0.3910  0.2925
  900MOL0     C21379   7.763   9.448  -0.993  0.2870 -0.7615 -0.3586
  900MOL0     C21380   7.797   9.590  -1.048  0.6918  0.8193  0.0129
  900MOL0     C21381   7.719   9.704  -0.980  0.2875  0.5953  1.1729
  900MOL0     N21382   7.579   9.709  -1.012 -0.4683  0.1237  0.0998
  900MOL0     C21383   7.524   9.736  -1.136 -0.9407  0.1627 -0.9793
  900MOL0     C21384   7.401   9.780  -1.111  0.1595 -0.6949  0.5151
  900MOL0     C21385   7.309   9.855  -1.217 -0.4608  0.2581  0.0753
  900MOL0     C21386   7.335  10.010  -1.229  0.1175  0.0194 -0.8790
  900MOL0     C21387   7.266  10.073  -1.350 -0.5323  0.1131 -0.0495
  900MOL0     C21388   7.311  10.008  -1.477 -0.0715 -0.4950 -0.2920
  900MOL0     O21389   7.459  10.034  -1.483 -0.1380 -0.7123  0.4502
  900MOL0     C21390   7.530   9.972  -1.576  0.3928  0.3001  0.3279
  900MOL0     C21391   7.499   9.856  -1.642  0.8902 -0.5259  0.2623
  900MOL0     C21392   7.578   9.786  -1.733 -0.4726 -0.9194 -0.0321
  900MOL0     C21393   7.697   9.848  -1.768 -0.4674  0.7168 -0.2116
  900MOL0     C21394   7.783   9.782  -1.874 -0.8289  0.5499 -0.3701
  900MOL0     O21395   7.894   9.859  -1.921  0.1466 -0.6130  0.2511
  900MOL0     C21396   7.959   9.832  -2.040  0.3186 -0.2024 -0.0073
  900MOL0     C21397   7.957   9.719  -2.129  0.8116 -0.0824 -0.2700
  900MOL0     C21398   8.055   9.699  -2.234  0.4318  0.6027  0.0687
  900MOL0     C21399   8.158   9.797  -2.259  0.4762  0.7994 -0.1968
  900MOL0     O21400   8.235   9.781  -2.369  0.0733 -0.0587  1.1097
  900MOL0     C21401   8.299   9.897  -2.433 -0.3690 -0.2400  0.4387
  900MOL0     C21402   8.386   9.847  -2.546  0.6971  0.2958 -0.3020
  900MOL0     C21403   8.457   9.966  -2.615  0.5464  0.2680 -0.0883
  900MOL0     C21404   8.572   9.910  -2.700  0.1162  0.3142 -0.2126
  900MOL0     C21405   8.636  10.027  -2.777 -0.3225 -0.2256 -0.1007
  900MOL0     C21406   8.738   9.982  -2.886 -0.1228  0.0958 -0.4544
  900MOL0     C21407   8.870   9.916  -2.835  0.3050 -0.5468 -0.0038
  900MOL0     C21408   8.970   9.899  -2.941  0.0692  0.2245  0.4184
  900MOL0    Cl21409   8.917   9.755  -3.046  0.2716  0.0170  0.0760
  900MOL0     C21410   8.164   9.898  -2.155 -0.9777 -0.6979 -0.2495
  900MOL0     C21411   8.069   9.917  -2.056  1.1112  0.0888 -0.0755
  900MOL0     O21412   7.732   9.685  -1.929  0.2304  0.3988 -0.6719
  900MOL0     C21413   7.738   9.971  -1.710  1.1320 -0.2197 -0.2323
  900MOL0     C21414   7.649  10.031  -1.616 -0.1814  0.3133 -1.0787
  900MOL0     N21415   7.378   9.784  -0.975 -0.2347 -0.4601  0.3724
  900MOL0     N21416   7.482   9.743  -0.924 -1.1125 -0.0379 -0.7623
  900MOL0     C21417   7.922   9.170  -0.324  0.0165 -0.7534 -0.5606
  900MOL0     C21418   7.910   9.176  -0.186  0.4217  0.6493  0.4267
  900MOL0     C21419   7.926   8.970   0.235  0.3121 -0.6313 -0.6281
  900MOL0     C21420   8.010   8.866   0.284 -1.1916 -0.3795  0.0911
  900MOL0     C21421   8.017   8.832   0.423  0.1724 -0.1214  0.5946
  900MOL0     C21422   7.935   8.902   0.511  1.4207  0.6878  0.1259
  900MOL0     O21423   7.906   8.884   0.642  0.1841  0.3590  0.1577
  900MOL0     C21424   7.938   8.754   0.702 -0.2972  0.6950  0.3830
  900MOL0     C21425   7.815   8.655   0.674 -0.2213  0.7340 -0.0911
  900MOL0     C21426   7.690   8.711   0.746 -0.1511 -0.3537 -0.8982
  900MOL0     C21427   7.562   8.637   0.709  0.2694  0.4555 -0.8782
  900MOL0     C21428   7.443   8.716   0.730  0.0376  0.0630 -0.3742
  900MOL0     C21429   7.344   8.783   0.732  0.7502  0.0791  1.0340
  900MOL0     C21430   7.872   9.022   0.460  0.5420  0.6159  0.4846
  900MOL0     C21431   7.853   9.050   0.321 -0.1658  0.4051 -0.0060
  900MOL0     C21432   7.750   9.155   0.288 -0.6586 -0.7461  0.0008
  900MOL0     H21433   7.691   8.911  -0.169 -0.2654  0.4597 -2.0665
  900MOL0     H21434   7.722   8.912  -0.408  0.9046 -1.6345  0.7340
  900MOL0     H21435   7.798   8.918  -0.617 -0.5834  0.1180 -1.5890
  900MOL0     H21436   7.681   9.061  -0.630 -0.0280  2.0496  1.1433
  900MOL0     H21437   7.758   9.017  -0.838  2.2624 -2.0366 -0.5892
  900MOL0     H21438   7.928   9.010  -0.804 -1.2670 -1.3192 -2.1679
  900MOL0     H21439   7.923   9.263  -0.760  0.0695 -2.3869  2.7601
  900MOL0     H21440   7.754   9.267  -0.777 -1.0781  0.1382 -1.0155
  900MOL0     H21441   7.944   9.155  -0.986  1.3142  0.6114  2.2381
  900MOL0     H21442   7.768   9.179  -1.007 -0.0352  0.0406 -1.1684
  900MOL0     H21443   7.974   9.400  -0.961 -0.0204  0.8766  0.2033
  900MOL0     H21444   7.914   9.359  -1.124 -0.7030  3.0976 -0.0803
  900MOL0     H21445   7.675   9.410  -1.046  0.7164 -0.3537 -1.3915
  900MOL0     H21446   7.737   9.454  -0.887 -2.5375  1.4969 -1.0370
  900MOL0     H21447   7.796   9.587  -1.157  2.2489 -0.9826 -0.0032
  900MOL0     H21448   7.899   9.600  -1.011  0.2962 -1.6766  2.1319
  900MOL0     H21449   7.735   9.702  -0.872 -0.0068 -1.1796  1.2094
  900MOL0     H21450   7.768   9.794  -1.018 -0.1173  0.7194  0.9340
  900MOL0     H21451   7.564   9.736  -1.237  0.1132 -2.5261 -0.6613
  900MOL0     H21452   7.341   9.810  -1.312  1.6266 -0.9629  1.2725
  900MOL0     H21453   7.202   9.842  -1.197  0.1137 -3.6033  1.5115
  900MOL0     H21454   7.285  10.068  -1.151  0.6856  1.7669 -1.7606
  900MOL0     H21455   7.441  10.033  -1.214  0.1715 -0.7782  0.0604
  900MOL0     H21456   7.290  10.180  -1.355  0.8787  0.0770  3.4060
  900MOL0     H21457   7.157  10.078  -1.338 -0.5875 -0.3184 -0.3542
  900MOL0     H21458   7.261  10.065  -1.556 -0.2153 -0.8969 -0.4989
  900MOL0     H21459   7.277   9.904  -1.477 -2.2478  0.1528 -1.1889
  900MOL0     H21460   7.411   9.795  -1.621  0.1419  0.3113 -0.3589
  900MOL0     H21461   7.539   9.693  -1.772  2.5361 -3.6507  2.8160
  900MOL0     H21462   7.886   9.640  -2.108  1.0647 -0.4979 -0.9485
  900MOL0     H21463   8.042   9.623  -2.310 -2.4223  0.6758  0.3595
  900MOL0     H21464   8.230   9.980  -2.453  1.0056  0.9809  0.6302
  900MOL0     H21465   8.369   9.951  -2.369 -0.3211 -1.1798  1.2134
  900MOL0     H21466   8.458   9.772  -2.512  1.6398  1.4026  0.2161
  900MOL0     H21467   8.326   9.791  -2.619  2.0374 -1.2721 -0.2737
  900MOL0     H21468   8.376  10.006  -2.677 -1.9053 -1.9505  1.4658
  900MOL0     H21469   8.489  10.044  -2.545 -1.0606  0.6100  0.3111
  900MOL0     H21470   8.534   9.841  -2.776 -0.7717  3.2268 -2.6102
  900MOL0     H21471   8.652   9.875  -2.634  2.0235  2.7900 -1.0135
  900MOL0     H21472   8.675  10.105  -2.711 -0.0091  0.6793 -1.3181
  900MOL0     H21473   8.562  10.081  -2.837 -2.9784 -0.2988  2.8119
  900MOL0     H21474   8.683   9.924  -2.960 -0.2528 -0.4988  0.1011
  900MOL0     H21475   8.769  10.075  -2.935  0.3676 -0.0966 -0.5156
  900MOL0     H21476   8.850   9.815  -2.798  0.3483 -0.1657  1.0891
  900MOL0     H21477   8.914   9.977  -2.756  0.9828  0.3734 -1.0545
  900MOL0     H21478   8.982   9.989  -3.001 -2.1049  0.3354  0.0619
  900MOL0     H21479   9.057   9.869  -2.881 -0.1530 -0.1752  0.5447
  900MOL0     H21480   8.256   9.954  -2.169 -0.6155 -0.3676  2.7931
  900MOL0     H21481   8.073   9.998  -1.983  4.9333  1.0565 -1.1286
  900MOL0     H21482   7.837  10.016  -1.722  0.2258  1.8752 -0.2459
  900MOL0     H21483   7.675  10.126  -1.572 -1.9351 -0.1323  1.0905
  900MOL0     H21484   7.983   9.244  -0.376  0.7825 -0.9121  0.1062
  900MOL0     H21485   7.968   9.237  -0.118 -0.9152  0.3171  1.9450
  900MOL0     H21486   8.067   8.799   0.222 -2.3281  0.0920 -1.5274
  900MOL0     H21487   8.094   8.757   0.437  0.8376 -0.3629 -3.1185
  900MOL0     H21488   7.951   8.780   0.808 -1.5014 -3.0358  1.5900
  900MOL0     H21489   8.039   8.724   0.673 -0.4048 -0.9866  1.5981
  900MOL0     H21490   7.837   8.565   0.731  0.9093  0.4973 -0.8775
  900MOL0     H21491   7.786   8.635   0.570 -1.5051  2.4980 -0.1166
  900MOL0     H21492   7.680   8.812   0.706 -0.9060 -0.7360 -1.7091
  900MOL0     H21493   7.698   8.722   0.855 -2.6535 -1.9646 -0.4595
  900MOL0     H21494   7.565   8.608   0.604 -2.0102  0.9749 -1.1377
  900MOL0     H21495   7.563   8.546   0.769  0.9685 -2.6269 -5.1300
  900MOL0     H21496   7.257   8.844   0.745 -0.8007 -1.8398  0.0296
  900MOL0     H21497   7.807   9.073   0.531 -1.2881 -0.6989 -0.1689
  900MOL0     H21498   7.800   9.239   0.239  0.9666  0.3004  3.2039
  900MOL0     H21499   7.668   9.113   0.228 -2.3710  2.0862  0.1686
  900MOL0     H21500   7.711   9.192   0.383 -0.0138  0.9074 -0.3506
  901MOL0     O21501   3.963   7.061   0.986 -0.8989 -0.5879  0.2689
  901MOL0     C21502   4.008   6.989   0.898  0.3032  0.1286  1.0160
  901MOL0     O21503   4.071   6.875   0.917 -0.2170  0.9668  0.2084
  901MOL0     C21504   4.155   6.869   1.027  0.0639 -0.0935 -0.5601
  901MOL0     C21505   4.143   6.756   1.105  0.0471  0.9601 -0.2111
  901MOL0     C21506   4.236   6.741   1.208  0.5799  1.0211  0.2566
  901MOL0     C21507   4.333   6.829   1.246 -0.6101  0.1384  0.9737
  901MOL0     O21508   4.414   6.819   1.360  0.7754  0.8605  0.3005
  901MOL0     C21509   4.349   6.796   1.486  0.4062  0.0518 -0.3761
  901MOL0     C21510   4.410   6.873   1.600 -0.0983  0.5309  0.4085
  901MOL0     C21511   4.555   6.839   1.620 -0.1533 -0.3834 -0.6892
  901MOL0     C21512   4.637   6.967   1.642 -0.4473  0.0275  0.7187
  901MOL0     C21513   4.589   7.058   1.761 -0.1779  0.7554 -0.5228
  901MOL0     C21514   4.686   7.171   1.772  0.6153 -0.1249  0.8875
  901MOL0     C21515   4.639   7.259   1.893  0.7394 -0.0205 -0.3469
  901MOL0     C21516   4.685   7.409   1.880 -0.0695  0.3062 -0.5998
  901MOL0     N21517   4.643   7.473   2.009 -1.0076 -0.0282  0.1722
  901MOL0     C21518   4.676   7.434   2.141  0.7006  0.1674  0.7302
  901MOL0     C21519   4.618   7.527   2.222 -0.0042  0.0792  0.3613
  901MOL0     C21520   4.635   7.542   2.365 -0.3981  0.8970  0.9983
  901MOL0     C21521   4.774   7.609   2.403 -0.8602 -1.7394 -0.2512
  901MOL0     C21522   4.759   7.768   2.409  0.2458 -0.5832  0.3083
  901MOL0     C21523   4.676   7.793   2.542  0.5642 -0.2547  0.1011
  901MOL0     O21524   4.640   7.931   2.546 -0.0978 -0.9152 -0.0358
  901MOL0     C21525   4.536   7.990   2.469  0.1321 -0.4891 -0.5770
  901MOL0     C21526   4.456   7.918   2.376  0.3447  0.7809 -0.0984
  901MOL0     C21527   4.355   7.980   2.302 -0.5464  0.7836 -0.0171
  901MOL0     C21528   4.339   8.119   2.318 -0.7124 -1.0469  0.1054
  901MOL0     C21529   4.244   8.189   2.221  0.5280 -0.5964  0.0759
  901MOL0     O21530   4.258   8.325   2.205 -0.3148 -0.5182 -0.4864
  901MOL0     C21531   4.165   8.387   2.138 -0.0633 -0.0534 -0.8721
  901MOL0     C21532   4.027   8.399   2.175 -0.2226  0.0475  0.4935
  901MOL0     C21533   3.939   8.471   2.104  0.5323  0.4277 -0.1219
  901MOL0     C21534   3.981   8.553   2.003  0.2193 -0.2606  0.1495
  901MOL0     O21535   3.893   8.616   1.928 -0.2508  0.4760  0.3956
  901MOL0     C21536   3.758   8.625   1.953 -0.5611  0.2893  0.5301
  901MOL0     C21537   3.694   8.676   1.825 -0.0450 -0.1196  0.1504
  901MOL0     C21538   3.694   8.580   1.714  0.7531  0.1734  1.2490
  901MOL0     C21539   3.585   8.603   1.613 -0.2978 -0.0511  0.2716
  901MOL0     C21540   3.557   8.487   1.520  0.2655 -1.5885 -0.1312
  901MOL0     C21541   3.490   8.364   1.585  0.7183 -0.3697 -0.0156
  901MOL0     C21542   3.416   8.275   1.481 -0.0005 -0.8675 -0.2512
  901MOL0     C21543   3.309   8.179   1.525  0.1091 -0.8643  0.4365
  901MOL0    Cl21544   3.348   8.121   1.697 -0.0215 -0.4621 -0.0959
  901MOL0     C21545   4.108   8.557   1.963 -0.7039 -1.5567  0.2488
  901MOL0     C21546   4.207   8.472   2.031 -0.4565 -1.0791  0.2535
  901MOL0     O21547   4.167   8.116   2.159  1.2263  0.3418  0.3603
  901MOL0     C21548   4.431   8.191   2.398 -0.8572 -0.9416 -0.3441
  901MOL0     C21549   4.522   8.131   2.473 -0.4313  0.9898 -0.1078
  901MOL0     N21550   4.544   7.614   2.148  0.2749 -0.4113  0.8672
  901MOL0     N21551   4.565   7.586   2.022  0.5405 -0.1473 -0.4139
  901MOL0     C21552   4.344   6.943   1.170  0.0827  0.4258  0.2569
  901MOL0     C21553   4.259   6.964   1.060 -0.5244 -0.3875  0.2851
  901MOL0     C21554   3.985   7.034   0.748 -0.6150  0.1995 -0.4879
  901MOL0     C21555   3.995   6.927   0.649  0.2078 -1.0136  0.9370
  901MOL0     C21556   3.971   6.964   0.516  0.7815  0.3673  0.4045
  901MOL0     C21557   3.946   7.095   0.471  0.4814  0.1514 -0.3200
  901MOL0     O21558   3.932   7.124   0.336  0.4773  0.3081 -0.0181
  901MOL0     C21559   3.809   7.189   0.291 -0.2883 -0.2356  0.8626
  901MOL0     C21560   3.803   7.217   0.133  0.4729  0.2358 -0.0427
  901MOL0     C21561   3.804   7.090   0.048  0.1471 -0.1165  0.4525
  901MOL0     C21562   3.783   7.116  -0.099  0.4789 -0.1350  0.3812
  901MOL0     C21563   3.797   6.993  -0.184 -0.8977  0.3923 -0.0844
  901MOL0     C21564   3.805   6.882  -0.240  0.7308  0.1202  0.1715
  901MOL0     C21565   3.954   7.200   0.570  0.1341 -0.4774  0.0435
  901MOL0     C21566   3.966   7.169   0.707 -0.6132 -0.4851 -0.5227
  901MOL0     C21567   3.947   7.280   0.809  0.0389 -0.7889  0.2086
  901MOL0     H21568   4.061   6.685   1.101 -1.3867  2.4291  1.5842
  901MOL0     H21569   4.235   6.641   1.250  0.5535  0.7881 -0.2894
  901MOL0     H21570   4.245   6.830   1.490 -0.2055 -1.7932  1.9931
  901MOL0     H21571   4.346   6.690   1.512 -1.2224  0.0436 -0.5010
  901MOL0     H21572   4.353   6.865   1.693  1.1128 -2.4717  1.0176
  901MOL0     H21573   4.410   6.979   1.575  4.2670  0.5135 -0.5123
  901MOL0     H21574   4.606   6.799   1.531 -0.9154  3.3089 -3.0056
  901MOL0     H21575   4.553   6.787   1.716  0.9283  1.1257  0.1956
  901MOL0     H21576   4.736   6.922   1.655 -0.5483  0.3405  2.9857
  901MOL0     H21577   4.637   7.025   1.549 -2.3491 -0.3063  0.4684
  901MOL0     H21578   4.485   7.084   1.741 -1.1709 -2.1706  0.3829
  901MOL0     H21579   4.587   7.010   1.859 -2.1696 -0.6511 -1.1792
  901MOL0     H21580   4.790   7.137   1.780  1.0875  1.5025  2.0491
  901MOL0     H21581   4.680   7.225   1.677  0.4943 -3.6606 -1.3113
  901MOL0     H21582   4.680   7.223   1.988 -2.5917 -0.7849  0.9343
  901MOL0     H21583   4.531   7.258   1.910  0.6337  0.5516 -0.9385
  901MOL0     H21584   4.794   7.412   1.886 -0.0500  3.0715 -0.9540
  901MOL0     H21585   4.655   7.473   1.796 -0.1388  1.7835  0.4980
  901MOL0     H21586   4.747   7.358   2.171  0.2297 -1.7219 -2.4730
  901MOL0     H21587   4.552   7.597   2.411  0.6240  2.7680  0.7022
  901MOL0     H21588   4.628   7.433   2.379  1.9633  0.6511  0.5908
  901MOL0     H21589   4.816   7.562   2.492 -2.0357 -4.4326 -0.9966
  901MOL0     H21590   4.844   7.568   2.329  1.0369  1.3816 -0.3481
  901MOL0     H21591   4.706   7.805   2.320  0.6944 -0.8784 -0.0841
  901MOL0     H21592   4.849   7.826   2.431  0.7911 -1.4867  0.5020
  901MOL0     H21593   4.724   7.774   2.638  0.8263  1.0412  0.2519
  901MOL0     H21594   4.586   7.730   2.545  3.0846 -4.1630  0.0092
  901MOL0     H21595   4.472   7.811   2.370 -3.2877  0.1465 -0.7621
  901MOL0     H21596   4.301   7.923   2.227 -0.4559 -1.2139  1.3780
  901MOL0     H21597   3.993   8.333   2.255  2.7199 -0.8472  1.1330
  901MOL0     H21598   3.831   8.464   2.114  0.1309  0.6950 -3.2047
  901MOL0     H21599   3.715   8.527   1.975 -1.1702  0.2106 -0.9232
  901MOL0     H21600   3.725   8.689   2.036  0.4527 -0.1542  1.3033
  901MOL0     H21601   3.588   8.688   1.846 -0.4540  1.2657 -2.3097
  901MOL0     H21602   3.735   8.772   1.792 -3.4403  1.0533 -1.1220
  901MOL0     H21603   3.792   8.578   1.667  1.1676  4.7569  1.4842
  901MOL0     H21604   3.673   8.479   1.751  1.3363 -0.3249  0.2460
  901MOL0     H21605   3.601   8.690   1.550 -0.9040  1.9890  2.7906
  901MOL0     H21606   3.492   8.617   1.668 -1.0612 -3.7714  0.2315
  901MOL0     H21607   3.644   8.460   1.459  1.5253 -1.2323  1.4445
  901MOL0     H21608   3.495   8.537   1.444  1.8633  0.6183 -0.0841
  901MOL0     H21609   3.566   8.300   1.632 -0.6122 -0.6677  1.8420
  901MOL0     H21610   3.420   8.394   1.664  1.1025 -0.9136  0.5411
  901MOL0     H21611   3.493   8.217   1.429  1.6460 -0.0703  1.1898
  901MOL0     H21612   3.376   8.332   1.396  3.3721  0.4522 -1.1220
  901MOL0     H21613   3.211   8.229   1.524 -1.1051 -2.9759  2.8489
  901MOL0     H21614   3.293   8.098   1.454 -2.7200  2.1657 -2.7945
  901MOL0     H21615   4.124   8.621   1.877 -0.4236 -0.7897  0.8538
  901MOL0     H21616   4.313   8.476   2.006 -0.7250 -0.9486 -0.9490
  901MOL0     H21617   4.422   8.299   2.409 -2.0680 -0.9356 -1.1881
  901MOL0     H21618   4.589   8.187   2.537  0.1048 -0.5117  0.6954
  901MOL0     H21619   4.423   7.014   1.194 -1.3121  1.7780  1.0069
  901MOL0     H21620   4.286   7.053   1.005  0.8033  0.6252  2.4617
  901MOL0     H21621   4.025   6.829   0.685 -1.5647 -0.9648  2.7066
  901MOL0     H21622   3.983   6.893   0.434  1.5619  3.3578 -2.2832
  901MOL0     H21623   3.799   7.287   0.340  3.2543  0.9239 -0.4072
  901MOL0     H21624   3.726   7.121   0.312 -2.0675  1.7298  0.4807
  901MOL0     H21625   3.882   7.286   0.101  1.9019 -0.9862  0.7080
  901MOL0     H21626   3.711   7.269   0.108  0.3673 -0.7488 -1.9171
  901MOL0     H21627   3.714   7.037   0.082 -1.7542  1.9050 -1.0727
  901MOL0     H21628   3.897   7.045   0.081 -1.3515 -2.1748  2.1430
  901MOL0     H21629   3.690   7.169  -0.118  2.3573  2.4281 -2.8443
  901MOL0     H21630   3.866   7.178  -0.134 -0.9546  0.5828 -2.0256
  901MOL0     H21631   3.817   6.783  -0.280 -1.5947  1.0469 -3.2001
  901MOL0     H21632   3.941   7.305   0.547 -3.0900 -1.0810 -1.5563
  901MOL0     H21633   4.027   7.288   0.883 -0.5212  0.8090  0.6812
  901MOL0     H21634   3.925   7.373   0.756  3.7732 -0.8142 -1.7184
  901MOL0     H21635   3.856   7.255   0.864 -2.2651  2.9714 -1.5189
  902MOL0     O21636   6.125   4.444   0.355 -0.0961 -0.5592 -1.1126
  902MOL0     C21637   6.057   4.470   0.450  0.3160 -0.5847  0.5180
  902MOL0     O21638   5.927   4.418   0.463 -0.8676 -1.4168 -0.1983
  902MOL0     C21639   5.873   4.326   0.377 -0.6008 -0.4731  0.2849
  902MOL0     C21640   5.750   4.347   0.317  0.3265  0.6212 -0.6514
  902MOL0     C21641   5.691   4.271   0.212 -0.2278  0.1532  0.3254
  902MOL0     C21642   5.770   4.159   0.159  0.2973  0.6986  0.3298
  902MOL0     O21643   5.746   4.087   0.044  0.7446  0.1126  0.4959
  902MOL0     C21644   5.624   4.096  -0.028  0.8491  0.5472 -0.7279
  902MOL0     C21645   5.527   4.001   0.033  0.0402 -0.3650 -0.9183
  902MOL0     C21646   5.395   4.012  -0.035  0.4610 -0.2812  0.0138
  902MOL0     C21647   5.324   4.152  -0.021  0.0304 -0.1056 -1.0840
  902MOL0     C21648   5.183   4.156  -0.071 -0.6202  1.4660 -0.7003
  902MOL0     C21649   5.120   4.294  -0.065 -0.2507 -0.1760 -0.8252
  902MOL0     C21650   5.181   4.387  -0.171 -0.5692  0.7011  0.5300
  902MOL0     C21651   5.085   4.491  -0.225 -0.1760  0.0102  0.4228
  902MOL0     N21652   4.972   4.430  -0.297 -0.3837  0.5201 -0.1304
  902MOL0     C21653   4.843   4.445  -0.265 -0.7345  1.3874  0.5723
  902MOL0     C21654   4.783   4.347  -0.338 -0.3699 -0.4624 -0.4780
  902MOL0     C21655   4.636   4.314  -0.342 -0.2257  0.0474 -0.9802
  902MOL0     C21656   4.580   4.310  -0.480 -0.6635 -0.5605  0.1498
  902MOL0     C21657   4.432   4.258  -0.500 -0.1010  0.8557 -0.0267
  902MOL0     C21658   4.331   4.364  -0.458  0.8717  0.1491 -0.2239
  902MOL0     O21659   4.311   4.358  -0.320  0.5699  0.0452 -0.9887
  902MOL0     C21660   4.183   4.376  -0.282 -0.3542 -0.1254 -0.6240
  902MOL0     C21661   4.113   4.262  -0.250  0.1171  0.6015 -1.0635
  902MOL0     C21662   3.974   4.265  -0.208 -0.7368 -0.0051 -0.1847
  902MOL0     C21663   3.901   4.384  -0.221  0.6865  0.3175  0.1780
  902MOL0     C21664   3.748   4.376  -0.202 -0.0284 -1.0288  0.1794
  902MOL0     O21665   3.668   4.466  -0.279  0.0982 -0.1184 -0.0149
  902MOL0     C21666   3.538   4.448  -0.300 -0.7660 -0.5660 -0.4790
  902MOL0     C21667   3.486   4.328  -0.344  0.0834  0.4785  0.2287
  902MOL0     C21668   3.348   4.306  -0.358 -0.3505  0.6321  0.4201
  902MOL0     C21669   3.259   4.410  -0.314 -1.5459 -1.2361  0.2096
  902MOL0     O21670   3.127   4.401  -0.315 -0.3858  0.7642 -0.3410
  902MOL0     C21671   3.064   4.298  -0.392  0.7332  0.4159  0.0678
  902MOL0     C21672   2.914   4.338  -0.394  1.0161 -0.0897 -0.4006
  902MOL0     C21673   2.841   4.282  -0.523  0.9835 -0.0834 -0.8276
  902MOL0     C21674   2.702   4.217  -0.474  0.1222 -1.1256 -0.5367
  902MOL0     C21675   2.618   4.167  -0.585  0.6175  0.1279  0.3352
  902MOL0     C21676   2.663   4.026  -0.637 -0.0477 -0.2920 -0.9318
  902MOL0     C21677   2.558   3.970  -0.730  0.6031  0.7307 -0.0978
  902MOL0     C21678   2.577   3.983  -0.886 -1.1215  0.6542 -1.0694
  902MOL0    Cl21679   2.532   3.837  -0.979  0.1203 -0.2678  0.1827
  902MOL0     C21680   3.315   4.529  -0.282  0.9339 -0.4009 -0.9028
  902MOL0     C21681   3.453   4.547  -0.272  0.6768 -0.1961  0.2053
  902MOL0     O21682   3.706   4.306  -0.115  0.0535 -0.1066  0.1388
  902MOL0     C21683   3.975   4.501  -0.248  0.1512 -0.6805 -0.5149
  902MOL0     C21684   4.120   4.493  -0.267  0.0407 -0.2395  0.7087
  902MOL0     N21685   4.873   4.269  -0.404  0.6014  0.6425  0.3959
  902MOL0     N21686   4.987   4.317  -0.375  0.0863  0.0092 -0.5433
  902MOL0     C21687   5.897   4.139   0.216 -0.6732 -0.7604 -0.5360
  902MOL0     C21688   5.943   4.215   0.334 -0.0459  0.0592 -0.2007
  902MOL0     C21689   6.116   4.556   0.559 -0.5216  0.0917 -0.2926
  902MOL0     C21690   6.028   4.652   0.608 -0.3840  0.5314 -0.0242
  902MOL0     C21691   6.057   4.726   0.719 -0.2979  0.2353 -0.1849
  902MOL0     C21692   6.183   4.722   0.774  0.0398 -0.4101 -0.5351
  902MOL0     O21693   6.185   4.798   0.890  0.5232 -1.1036  0.0881
  902MOL0     C21694   6.281   4.790   0.997  0.2729 -0.4235  0.6778
  902MOL0     C21695   6.414   4.844   0.940 -0.8412 -0.8042 -0.0075
  902MOL0     C21696   6.399   4.986   0.866  0.5779  0.4505  0.2176
  902MOL0     C21697   6.532   5.014   0.795  0.4850  0.1717 -0.5403
  902MOL0     C21698   6.570   4.932   0.686  0.2034  0.0752 -0.6485
  902MOL0     C21699   6.611   4.858   0.599 -0.1906  0.3307 -0.1403
  902MOL0     C21700   6.271   4.620   0.742 -0.5158  0.2175 -0.0056
  902MOL0     C21701   6.241   4.537   0.626 -0.3449 -0.4976  0.1579
  902MOL0     C21702   6.357   4.461   0.570 -0.1440  0.5511 -0.8699
  902MOL0     H21703   5.692   4.435   0.345 -1.6207 -0.3229 -1.5339
  902MOL0     H21704   5.597   4.287   0.159  0.5189  2.6903 -0.3644
  902MOL0     H21705   5.584   4.196  -0.013 -1.6422 -0.8045  3.3048
  902MOL0     H21706   5.638   4.073  -0.134  3.4676 -2.2771  0.0645
  902MOL0     H21707   5.518   4.025   0.139  0.0894  0.3071 -1.0583
  902MOL0     H21708   5.563   3.898   0.023 -1.2664 -1.1061  1.2973
  902MOL0     H21709   5.333   3.934   0.012  3.1998 -1.5524  1.7643
  902MOL0     H21710   5.406   3.985  -0.141 -2.3957  0.3561 -0.5286
  902MOL0     H21711   5.316   4.185   0.083  3.0326  2.3079 -1.4600
  902MOL0     H21712   5.381   4.225  -0.079  0.3577  0.7771  0.2996
  902MOL0     H21713   5.177   4.118  -0.173  6.9116  0.0149 -1.1536
  902MOL0     H21714   5.126   4.086  -0.009  3.0002 -1.1418 -0.0081
  902MOL0     H21715   5.013   4.274  -0.066 -0.3497 -0.3457  2.5809
  902MOL0     H21716   5.137   4.337   0.034 -1.7121 -2.3260  0.4505
  902MOL0     H21717   5.221   4.324  -0.251 -1.0497  0.5018  0.4465
  902MOL0     H21718   5.270   4.437  -0.132  0.9482 -0.4296 -1.2709
  902MOL0     H21719   5.042   4.535  -0.135  1.1880  0.2157  0.9959
  902MOL0     H21720   5.129   4.557  -0.300 -1.7774 -0.1505 -0.6917
  902MOL0     H21721   4.804   4.523  -0.201 -3.5464  0.7518 -0.1930
  902MOL0     H21722   4.620   4.222  -0.286 -0.3522 -1.0605 -2.7460
  902MOL0     H21723   4.592   4.386  -0.272 -1.8517 -1.7710 -0.0449
  902MOL0     H21724   4.584   4.410  -0.522 -2.5787  0.6242  2.5385
  902MOL0     H21725   4.648   4.246  -0.538 -0.4607 -3.4399  3.2379
  902MOL0     H21726   4.418   4.164  -0.446  1.3404  0.3567 -0.4554
  902MOL0     H21727   4.418   4.243  -0.607  1.3676  2.2030 -0.4585
  902MOL0     H21728   4.238   4.348  -0.513  0.5513  0.6945  0.1553
  902MOL0     H21729   4.365   4.465  -0.484  1.6154  0.8324  3.0089
  902MOL0     H21730   4.164   4.167  -0.258  0.1045  0.1637  2.4167
  902MOL0     H21731   3.929   4.169  -0.185  0.3202 -0.2280  1.1115
  902MOL0     H21732   3.548   4.241  -0.363 -0.9945 -2.2484  6.6284
  902MOL0     H21733   3.320   4.211  -0.401  0.1849  1.0278 -0.8622
  902MOL0     H21734   3.100   4.301  -0.496  1.3946 -2.3280  0.1540
  902MOL0     H21735   3.083   4.193  -0.369  1.8045  0.0203 -2.2720
  902MOL0     H21736   2.868   4.301  -0.302  0.9390 -3.5286 -1.6703
  902MOL0     H21737   2.881   4.442  -0.394 -4.9477 -1.6024 -0.6352
  902MOL0     H21738   2.825   4.368  -0.589 -0.6418 -0.9901 -1.6995
  902MOL0     H21739   2.903   4.204  -0.568 -2.8482 -3.4030 -1.0681
  902MOL0     H21740   2.638   4.293  -0.428  0.3267 -1.0648 -0.3518
  902MOL0     H21741   2.714   4.140  -0.398  1.5066 -1.6520 -1.2656
  902MOL0     H21742   2.604   4.234  -0.670 -0.7932  1.9397  1.9224
  902MOL0     H21743   2.516   4.153  -0.550  0.3494  1.0938 -0.0270
  902MOL0     H21744   2.758   4.029  -0.691  0.4053 -0.5271 -0.1523
  902MOL0     H21745   2.670   3.960  -0.550 -1.9682 -0.8932 -1.1837
  902MOL0     H21746   2.453   3.996  -0.715  0.4504  0.4262 -0.6164
  902MOL0     H21747   2.576   3.863  -0.716 -1.4045  0.6104  1.9708
  902MOL0     H21748   2.536   4.080  -0.916 -1.1461  1.1270  0.3959
  902MOL0     H21749   2.685   3.995  -0.892 -1.0124  0.8144  0.7186
  902MOL0     H21750   3.264   4.622  -0.261  1.5340  0.0848 -1.5109
  902MOL0     H21751   3.492   4.642  -0.236  0.0557 -0.3571  1.3583
  902MOL0     H21752   3.930   4.598  -0.237 -2.0820 -1.8435  1.5543
  902MOL0     H21753   4.177   4.582  -0.290 -2.2402  1.4168  1.1897
  902MOL0     H21754   5.966   4.068   0.172 -2.1145 -1.8587 -1.1418
  902MOL0     H21755   6.041   4.202   0.377  0.4779 -0.9828 -1.6246
  902MOL0     H21756   5.934   4.657   0.554 -1.9595 -0.4767  2.4438
  902MOL0     H21757   5.984   4.799   0.753  2.6386  2.5471  1.6001
  902MOL0     H21758   6.312   4.686   1.011  2.7083  0.3613  1.6039
  902MOL0     H21759   6.254   4.858   1.078  1.6386  2.1514 -0.8888
  902MOL0     H21760   6.455   4.765   0.876  2.1758  1.3548 -0.9653
  902MOL0     H21761   6.491   4.846   1.018  1.9189 -3.0462 -2.4128
  902MOL0     H21762   6.393   5.071   0.935  2.6698  0.5531  0.3402
  902MOL0     H21763   6.319   4.990   0.792  1.9667 -0.5926 -1.4027
  902MOL0     H21764   6.522   5.112   0.747  2.2572 -0.3749 -2.1532
  902MOL0     H21765   6.613   5.029   0.866  2.2379 -3.7027 -1.4700
  902MOL0     H21766   6.645   4.802   0.514 -1.5811  0.3805 -0.7660
  902MOL0     H21767   6.378   4.613   0.763 -0.8337 -0.8332  1.4625
  902MOL0     H21768   6.426   4.519   0.508  3.1978  1.3641  3.1592
  902MOL0     H21769   6.412   4.407   0.647  4.5495  3.7386 -1.5503
  902MOL0     H21770   6.319   4.383   0.504  1.8316  1.4015 -3.1381
  903MOL0     O21771   2.040  11.419   7.650 -0.6128  0.0858  0.4866
  903MOL0     C21772   2.067  11.474   7.755  0.2999  0.0287  0.0966
  903MOL0     O21773   2.154  11.436   7.848 -0.3827  0.6194 -0.7120
  903MOL0     C21774   2.236  11.327   7.829  0.3187  0.8014  0.6299
  903MOL0     C21775   2.371  11.344   7.803  0.3369 -0.7189 -0.6878
  903MOL0     C21776   2.458  11.243   7.769  0.6011 -0.1847  0.2236
  903MOL0     C21777   2.406  11.114   7.753 -0.3849  0.9999 -0.2987
  903MOL0     O21778   2.496  11.018   7.715 -0.2765 -0.0174  0.7380
  903MOL0     C21779   2.436  10.903   7.658 -0.0306  0.1011  0.4867
  903MOL0     C21780   2.528  10.805   7.596 -0.8001 -0.6651  0.2080
  903MOL0     C21781   2.580  10.859   7.467 -0.3564  0.1646 -0.8078
  903MOL0     C21782   2.668  10.755   7.400  0.0030  0.1408  0.2738
  903MOL0     C21783   2.710  10.800   7.254 -0.0054  0.0466 -0.2095
  903MOL0     C21784   2.828  10.711   7.204 -0.3003 -0.5951 -0.0028
  903MOL0     C21785   2.867  10.735   7.056 -0.3702 -0.2271  0.1132
  903MOL0     C21786   3.002  10.683   7.014  0.0871 -0.4788  0.6837
  903MOL0     N21787   3.019  10.536   7.030  0.6959 -0.3136 -0.4043
  903MOL0     C21788   3.073  10.491   7.146  0.2051  0.1385  0.1307
  903MOL0     C21789   3.069  10.354   7.130  0.4805  0.3581  0.4567
  903MOL0     C21790   3.101  10.247   7.226 -0.0922  0.3794 -1.3431
  903MOL0     C21791   3.251  10.226   7.265  0.6030  0.2917 -0.7081
  903MOL0     C21792   3.324  10.144   7.157 -0.8868 -0.2260 -0.5659
  903MOL0     C21793   3.378  10.210   7.031 -0.3417  0.1397 -1.3001
  903MOL0     O21794   3.498  10.279   7.064  0.0928 -0.0830 -0.2087
  903MOL0     C21795   3.576  10.321   6.955 -0.3094  1.2828  0.3187
  903MOL0     C21796   3.543  10.314   6.826 -0.0614  0.0598 -0.1220
  903MOL0     C21797   3.634  10.345   6.723 -0.6022  0.7170  0.5813
  903MOL0     C21798   3.762  10.382   6.754  0.2384 -0.4564 -0.3579
  903MOL0     C21799   3.864  10.394   6.651  0.5793  0.2983  0.6669
  903MOL0     O21800   3.991  10.392   6.694 -0.0287 -0.5704  0.1323
  903MOL0     C21801   4.099  10.384   6.604  0.3958 -0.7502 -0.2372
  903MOL0     C21802   4.169  10.510   6.584  0.0507  0.7677 -0.5800
  903MOL0     C21803   4.289  10.503   6.508  0.2015  0.1296 -0.2779
  903MOL0     C21804   4.350  10.386   6.454 -0.2996  0.1682  0.2043
  903MOL0     O21805   4.466  10.405   6.387 -0.4211  0.4082 -0.2193
  903MOL0     C21806   4.533  10.302   6.323 -0.4735 -0.3576 -0.3600
  903MOL0     C21807   4.665  10.361   6.268  0.7583 -0.5959 -0.1185
  903MOL0     C21808   4.752  10.423   6.386 -0.1787  0.8799 -0.0185
  903MOL0     C21809   4.717  10.563   6.423  0.2626  0.6424  0.1683
  903MOL0     C21810   4.827  10.627   6.504 -0.0769 -1.2687  1.1211
  903MOL0     C21811   4.849  10.550   6.630 -0.1386  0.3174 -0.0778
  903MOL0     C21812   4.945  10.635   6.718 -0.4481  0.0146  0.0451
  903MOL0     C21813   4.984  10.571   6.856  0.9997  0.0792  0.4976
  903MOL0    Cl21814   5.064  10.409   6.809 -0.0208  0.1017  0.3924
  903MOL0     C21815   4.278  10.267   6.474  0.2539 -0.4793  0.0083
  903MOL0     C21816   4.157  10.268   6.540  0.7838  0.2678 -0.8683
  903MOL0     O21817   3.827  10.411   6.536 -0.0960 -0.0098  0.6692
  903MOL0     C21818   3.790  10.392   6.892 -0.5288 -0.3091  0.5183
  903MOL0     C21819   3.700  10.364   6.988 -0.1268  1.1779  0.2952
  903MOL0     N21820   3.025  10.324   6.998  0.2921 -0.0838 -0.5621
  903MOL0     N21821   2.997  10.430   6.944  0.7089 -0.6167 -0.7493
  903MOL0     C21822   2.271  11.090   7.780 -0.3039  0.3341  0.5503
  903MOL0     C21823   2.184  11.198   7.818  1.4562 -0.0584  0.3745
  903MOL0     C21824   2.001  11.608   7.779  0.6550  0.3300 -0.6171
  903MOL0     C21825   2.044  11.670   7.897 -0.2303  0.3038 -0.4947
  903MOL0     C21826   2.015  11.807   7.923 -0.3531  0.3235 -0.5354
  903MOL0     C21827   1.927  11.880   7.839  0.2816 -0.7688 -0.4331
  903MOL0     O21828   1.889  12.016   7.865  1.2874  0.4724  0.2270
  903MOL0     C21829   1.923  12.087   7.989 -0.9320  0.3353 -0.1269
  903MOL0     C21830   2.043  12.172   7.975  0.4365 -0.0529  0.2272
  903MOL0     C21831   2.021  12.288   7.879 -0.0653  0.0171  0.8511
  903MOL0     C21832   2.150  12.381   7.864 -0.1659  0.7288 -0.4111
  903MOL0     C21833   2.144  12.477   7.970 -0.2130 -0.9673  0.5039
  903MOL0     C21834   2.163  12.523   8.077  0.7264  0.1154  0.1387
  903MOL0     C21835   1.885  11.821   7.727  0.3772 -0.3300  0.7253
  903MOL0     C21836   1.914  11.689   7.692 -0.5060 -0.0905 -0.7850
  903MOL0     C21837   1.862  11.632   7.552  0.2907 -1.0646  0.2931
  903MOL0     H21838   2.411  11.446   7.799  5.8060 -2.5513 -1.7757
  903MOL0     H21839   2.558  11.275   7.741  0.1769  2.4779  1.3827
  903MOL0     H21840   2.389  10.842   7.735  3.1300  1.0106  3.3832
  903MOL0     H21841   2.369  10.932   7.576 -1.6698  0.9206  2.0439
  903MOL0     H21842   2.477  10.709   7.583  1.6582 -1.8330 -1.7214
  903MOL0     H21843   2.613  10.785   7.661  1.8996 -0.2322 -2.8914
  903MOL0     H21844   2.647  10.941   7.496  0.8685 -1.0237 -0.1376
  903MOL0     H21845   2.501  10.889   7.398 -0.5663  2.1745  0.2435
  903MOL0     H21846   2.756  10.737   7.462 -0.9336 -0.2215  1.5490
  903MOL0     H21847   2.622  10.656   7.402 -2.2056  0.9597 -3.0060
  903MOL0     H21848   2.618  10.792   7.196 -1.1542 -0.3835  1.6012
  903MOL0     H21849   2.745  10.904   7.247  1.4131 -0.3951  0.0188
  903MOL0     H21850   2.920  10.727   7.260 -0.1938 -1.8902  0.2240
  903MOL0     H21851   2.827  10.602   7.215  0.7741 -0.6425 -0.2901
  903MOL0     H21852   2.862  10.843   7.041  1.1263 -0.1979 -0.3666
  903MOL0     H21853   2.792  10.682   6.997  0.0310 -0.7695  0.0889
  903MOL0     H21854   3.015  10.707   6.908 -1.9794 -1.9919  0.0178
  903MOL0     H21855   3.082  10.736   7.068  1.9943  2.0672 -4.0733
  903MOL0     H21856   3.107  10.547   7.233  1.7932  0.4782 -0.6685
  903MOL0     H21857   3.043  10.282   7.312  3.2810  0.3671  1.1248
  903MOL0     H21858   3.056  10.150   7.205 -2.0568  1.2656 -1.4363
  903MOL0     H21859   3.302  10.323   7.273 -1.0778  1.0779  1.7119
  903MOL0     H21860   3.257  10.182   7.365 -0.3866  0.2224 -0.6696
  903MOL0     H21861   3.261  10.056   7.138 -0.9894 -0.1462 -0.5954
  903MOL0     H21862   3.413  10.108   7.209  0.6998  0.1483 -2.8852
  903MOL0     H21863   3.303  10.279   6.990 -1.1330  1.1438  1.6043
  903MOL0     H21864   3.384  10.135   6.952  0.0699 -1.1987 -0.0319
  903MOL0     H21865   3.439  10.302   6.801 -0.3897 -0.6668  1.4275
  903MOL0     H21866   3.617  10.345   6.616  1.1896 -1.2918  0.2347
  903MOL0     H21867   4.133  10.601   6.630  1.0528 -0.0323  1.9626
  903MOL0     H21868   4.339  10.598   6.497  1.1403 -0.3096  0.0680
  903MOL0     H21869   4.557  10.224   6.397 -0.1135  0.1411  0.0521
  903MOL0     H21870   4.473  10.258   6.243 -0.9152  0.0658 -0.2649
  903MOL0     H21871   4.713  10.277   6.217 -2.2839 -1.1639 -2.3664
  903MOL0     H21872   4.651  10.436   6.189 -0.4567 -0.8732 -0.1887
  903MOL0     H21873   4.729  10.364   6.475  0.1338 -0.1273 -0.5865
  903MOL0     H21874   4.860  10.417   6.366  0.2379  2.8382  1.3864
  903MOL0     H21875   4.625  10.577   6.481  1.6172 -1.0807  2.9456
  903MOL0     H21876   4.700  10.607   6.324  0.0139 -3.3025 -1.7113
  903MOL0     H21877   4.797  10.729   6.531  0.4074  0.0032 -2.6171
  903MOL0     H21878   4.919  10.651   6.450  0.0291 -1.2473  1.3102
  903MOL0     H21879   4.755  10.538   6.686 -0.0547  0.1228  0.0204
  903MOL0     H21880   4.895  10.452   6.612 -4.1157 -2.2994  2.3826
  903MOL0     H21881   4.898  10.730   6.744  2.0481  1.2877  0.2326
  903MOL0     H21882   5.035  10.669   6.664  1.1785  2.5664  3.9279
  903MOL0     H21883   5.044  10.629   6.927  1.7523 -1.4293  1.1684
  903MOL0     H21884   4.894  10.548   6.914  0.7094  1.0141  0.4210
  903MOL0     H21885   4.313  10.169   6.443  1.0780 -0.4669  0.8426
  903MOL0     H21886   4.094  10.181   6.559  0.3819  0.9877  1.4010
  903MOL0     H21887   3.880  10.431   6.940 -0.0273 -0.4783 -0.2673
  903MOL0     H21888   3.726  10.372   7.094 -1.4118 -1.0560  0.8335
  903MOL0     H21889   2.229  10.991   7.767  0.4425  0.2969 -2.2473
  903MOL0     H21890   2.076  11.188   7.818  1.4263 -0.2474 -2.1072
  903MOL0     H21891   2.101  11.614   7.971 -2.3207 -2.7864 -1.0189
  903MOL0     H21892   2.055  11.851   8.014 -1.3416  0.0003  0.0715
  903MOL0     H21893   1.944  12.024   8.075  0.1119 -3.3944 -2.8492
  903MOL0     H21894   1.841  12.145   8.032 -1.9146 -0.1131 -1.3167
  903MOL0     H21895   2.133  12.114   7.957 -1.1559 -2.1750 -1.3547
  903MOL0     H21896   2.062  12.233   8.064  2.0862 -2.1113  1.3569
  903MOL0     H21897   1.919  12.326   7.895  0.7994  2.4738  0.8589
  903MOL0     H21898   2.011  12.245   7.779 -0.6000 -0.7845  1.2334
  903MOL0     H21899   2.243  12.325   7.852 -0.1962 -0.2052  2.7834
  903MOL0     H21900   2.145  12.434   7.769  0.6485  0.7277 -0.4602
  903MOL0     H21901   2.175  12.564   8.176 -0.5409 -0.3851  0.5356
  903MOL0     H21902   1.819  11.884   7.668  0.5341 -2.1801 -1.5660
  903MOL0     H21903   1.952  11.598   7.500 -0.1514 -1.4811 -0.2103
  903MOL0     H21904   1.781  11.558   7.558 -1.9917  0.9960 -2.3645
  903MOL0     H21905   1.822  11.717   7.496 -2.6206 -2.2890  0.2908
  904MOL0     O21906   1.795  10.191  10.997 -0.5840  0.3041 -0.3454
  904MOL0     C21907   1.878  10.185  11.090 -1.2032  0.0720  0.1369
  904MOL0     O21908   1.945  10.289  11.145  0.3724 -0.5394 -0.2955
  904MOL0     C21909   1.909  10.418  11.149  0.7103 -0.8576  0.0174
  904MOL0     C21910   1.782  10.469  11.114  0.4795  0.4138  0.3487
  904MOL0     C21911   1.755  10.599  11.103  0.1866 -0.8263  0.0016
  904MOL0     C21912   1.860  10.694  11.116 -0.8587 -0.9481  0.0446
  904MOL0     O21913   1.848  10.822  11.097  0.1875 -0.3156 -0.8375
  904MOL0     C21914   1.741  10.894  11.160  0.3618  0.1303 -0.8571
  904MOL0     C21915   1.756  10.898  11.313  1.3706  0.5165  0.8613
  904MOL0     C21916   1.636  10.960  11.391  0.2392  0.0258 -0.1269
  904MOL0     C21917   1.535  10.849  11.395 -0.3493  0.9947  0.2945
  904MOL0     C21918   1.391  10.895  11.432  0.3129 -0.0786  0.7218
  904MOL0     C21919   1.362  10.939  11.578 -0.0820  0.0875 -0.4090
  904MOL0     C21920   1.379  10.832  11.685 -0.0327 -0.5114  1.2367
  904MOL0     C21921   1.374  10.887  11.825  0.2454  0.0859  0.4479
  904MOL0     N21922   1.367  10.773  11.917  0.2070 -0.1373  0.0057
  904MOL0     C21923   1.453  10.664  11.920 -0.3273  0.2810 -0.0192
  904MOL0     C21924   1.424  10.598  12.033 -0.3033 -1.2297  0.1943
  904MOL0     C21925   1.477  10.461  12.062  0.7972  0.0002  0.5885
  904MOL0     C21926   1.598  10.470  12.162  0.6795  1.0740 -0.0419
  904MOL0     C21927   1.569  10.546  12.292  0.5215  0.9059 -1.0192
  904MOL0     C21928   1.700  10.564  12.372 -0.1968 -0.0887  0.0021
  904MOL0     O21929   1.723  10.440  12.442  0.1522  0.1359  0.0494
  904MOL0     C21930   1.843  10.421  12.502 -0.2056  0.2624 -0.1374
  904MOL0     C21931   1.925  10.527  12.549  0.4679 -0.0859  0.5612
  904MOL0     C21932   2.048  10.509  12.598 -0.4050 -0.5403  0.2797
  904MOL0     C21933   2.102  10.389  12.606 -0.3402  0.6840  0.0814
  904MOL0     C21934   2.236  10.358  12.653  0.2333 -0.4482 -0.1128
  904MOL0     O21935   2.314  10.464  12.645 -0.6848 -0.8362  0.4654
  904MOL0     C21936   2.450  10.446  12.687  0.0946  0.1640  0.5061
  904MOL0     C21937   2.502  10.524  12.790  0.1462 -0.2559  0.1576
  904MOL0     C21938   2.634  10.531  12.818 -0.0111 -0.0991  0.3511
  904MOL0     C21939   2.727  10.441  12.759 -0.7102  0.5232 -0.0084
  904MOL0     O21940   2.863  10.440  12.780  0.1029  0.2228  0.2846
  904MOL0     C21941   2.914  10.428  12.912 -0.6810 -0.0096  0.9431
  904MOL0     C21942   2.840  10.341  13.009 -0.1314  0.6216 -0.2039
  904MOL0     C21943   2.826  10.191  12.957 -0.1245 -0.6255 -0.3134
  904MOL0     C21944   2.952  10.123  12.910 -0.8874 -0.5511 -0.2208
  904MOL0     C21945   2.930   9.982  12.843 -0.3510  0.5260 -0.2231
  904MOL0     C21946   3.065   9.930  12.794 -0.6889  0.2298 -0.2987
  904MOL0     C21947   3.054   9.790  12.762  0.2514  1.1870  0.5538
  904MOL0     C21948   3.093   9.759  12.623  0.5326  1.8092 -0.4497
  904MOL0    Cl21949   3.049   9.582  12.604  0.1953 -0.1291  0.2173
  904MOL0     C21950   2.680  10.363  12.647  0.2691 -0.8744  0.9646
  904MOL0     C21951   2.541  10.368  12.612  0.7251 -0.2759  1.2901
  904MOL0     O21952   2.276  10.247  12.684 -0.5201  0.2805  0.0548
  904MOL0     C21953   2.022  10.277  12.563  0.2487 -0.4190 -0.3614
  904MOL0     C21954   1.890  10.296  12.520 -0.0061 -1.1150  0.1894
  904MOL0     N21955   1.324  10.667  12.101 -0.7530 -0.1357 -0.2393
  904MOL0     N21956   1.291  10.767  12.025  0.4802 -0.0047 -0.0684
  904MOL0     C21957   1.991  10.650  11.153 -0.5352  0.4858 -0.3938
  904MOL0     C21958   2.009  10.512  11.167  0.2217 -0.6425 -0.3452
  904MOL0     C21959   1.919  10.047  11.123  0.5775 -0.2727  0.9270
  904MOL0     C21960   1.946  10.012  11.254  1.0015  0.2033 -0.4107
  904MOL0     C21961   1.981   9.886  11.295 -0.1082 -1.0988 -0.4176
  904MOL0     C21962   1.977   9.781  11.202  0.6946 -0.8306  1.0179
  904MOL0     O21963   2.007   9.650  11.251 -0.2123 -0.4537 -0.0942
  904MOL0     C21964   1.988   9.613  11.390  0.8256 -0.4314 -0.4745
  904MOL0     C21965   1.840   9.652  11.435 -1.0520  0.0009 -0.8128
  904MOL0     C21966   1.733   9.576  11.353 -0.2174 -0.2891  0.2790
  904MOL0     C21967   1.604   9.566  11.438  0.4435  0.4628  0.3577
  904MOL0     C21968   1.620   9.486  11.556 -0.8913  0.6884  0.2777
  904MOL0     C21969   1.630   9.405  11.640  0.3118  0.2606 -0.1808
  904MOL0     C21970   1.955   9.810  11.066 -0.6809 -0.1593  0.4018
  904MOL0     C21971   1.924   9.941  11.021 -0.4720  0.5763 -0.1571
  904MOL0     C21972   1.938   9.968  10.873 -0.6855 -0.7385  0.9738
  904MOL0     H21973   1.702  10.396  11.109  0.0410  0.7234  2.0335
  904MOL0     H21974   1.653  10.632  11.084  1.0331  2.0869  0.0136
  904MOL0     H21975   1.748  10.996  11.120  0.8953  0.3328 -0.2645
  904MOL0     H21976   1.642  10.859  11.128 -0.0646 -1.5974  2.0318
  904MOL0     H21977   1.846  10.948  11.350  2.0752  0.7947 -1.1221
  904MOL0     H21978   1.768  10.793  11.342 -3.7100 -1.3905 -2.4505
  904MOL0     H21979   1.595  11.051  11.346  0.8998 -0.1608 -1.1324
  904MOL0     H21980   1.661  10.992  11.493  1.1429  2.4179 -1.0389
  904MOL0     H21981   1.527  10.800  11.297 -1.7545 -0.6189  1.1603
  904MOL0     H21982   1.569  10.773  11.465 -1.2298 -0.6163 -0.9560
  904MOL0     H21983   1.364  10.986  11.377 -1.4842  0.7336  2.8258
  904MOL0     H21984   1.318  10.819  11.403  1.7401 -1.7985  1.4103
  904MOL0     H21985   1.435  11.018  11.599  0.2225 -0.0732 -0.8325
  904MOL0     H21986   1.256  10.966  11.580 -0.3137 -0.8285  0.4599
  904MOL0     H21987   1.477  10.784  11.684  0.3232  0.2024  1.2697
  904MOL0     H21988   1.307  10.752  11.665  1.5579 -1.4399 -1.1762
  904MOL0     H21989   1.464  10.944  11.848  1.0207 -1.4923  1.4627
  904MOL0     H21990   1.293  10.959  11.837 -0.6523 -0.7193 -0.5021
  904MOL0     H21991   1.526  10.629  11.848  0.3653  0.9441  0.3398
  904MOL0     H21992   1.402  10.395  12.107  1.2117  0.0902  1.4164
  904MOL0     H21993   1.496  10.410  11.967 -0.9058  0.6808 -0.1738
  904MOL0     H21994   1.618  10.366  12.188 -5.6237 -0.4844  0.1767
  904MOL0     H21995   1.674  10.518  12.099  0.2203  0.3447 -1.1800
  904MOL0     H21996   1.494  10.495  12.353  0.0378  1.9894 -0.6796
  904MOL0     H21997   1.530  10.646  12.272 -0.9780  0.5757  0.0581
  904MOL0     H21998   1.688  10.647  12.442  3.3296  0.9105 -0.4200
  904MOL0     H21999   1.776  10.593  12.298  0.6298  2.2221  1.6464
  904MOL0     H22000   1.895  10.630  12.532 -0.9642 -0.5403  0.1855
  904MOL0     H22001   2.097  10.600  12.631  0.2523 -0.8291  0.1037
  904MOL0     H22002   2.428  10.580  12.847 -0.8996 -0.0949 -1.2963
  904MOL0     H22003   2.675  10.599  12.892  0.5338  1.0070 -0.9364
  904MOL0     H22004   3.018  10.394  12.903 -1.1366 -1.2413 -0.0699
  904MOL0     H22005   2.925  10.521  12.968  0.4915 -0.9644  2.3831
  904MOL0     H22006   2.878  10.334  13.111  1.6567 -0.1037 -0.8829
  904MOL0     H22007   2.741  10.383  13.030 -0.2888 -0.1872  0.7274
  904MOL0     H22008   2.777  10.135  13.038  0.6495 -0.9825 -0.0879
  904MOL0     H22009   2.752  10.196  12.876  0.0571 -2.0597 -0.5847
  904MOL0     H22010   3.024  10.119  12.993  1.9766  0.9719 -2.4598
  904MOL0     H22011   3.003  10.185  12.835 -2.1358  1.7343  0.7368
  904MOL0     H22012   2.857   9.980  12.762 -0.5431 -3.6081 -0.1375
  904MOL0     H22013   2.893   9.910  12.916  4.1721 -0.4559  1.3911
  904MOL0     H22014   3.108   9.998  12.720 -0.4777  2.7815  1.9607
  904MOL0     H22015   3.135   9.934  12.878  1.5835  0.9270 -2.1276
  904MOL0     H22016   2.957   9.749  12.793  0.1854  2.8291  2.7949
  904MOL0     H22017   3.112   9.733  12.835 -1.8748 -1.6276  0.2582
  904MOL0     H22018   3.035   9.817  12.551 -2.4447 -2.3110 -1.7637
  904MOL0     H22019   3.200   9.780  12.623  1.0609 -0.6068 -1.1691
  904MOL0     H22020   2.744  10.307  12.579  2.1205  1.1636  0.8954
  904MOL0     H22021   2.510  10.309  12.527  2.1430 -0.2375  0.7077
  904MOL0     H22022   2.067  10.178  12.554  0.3962 -0.2304 -1.9255
  904MOL0     H22023   1.827  10.213  12.487  1.2408 -2.8300  1.8815
  904MOL0     H22024   2.062  10.731  11.160 -1.1503  0.9979 -0.0047
  904MOL0     H22025   2.105  10.491  11.213  2.2481  4.8942 -1.2538
  904MOL0     H22026   1.941  10.089  11.331  0.3651 -0.3780  0.1430
  904MOL0     H22027   1.988   9.868  11.402 -0.2357  1.9578  0.2066
  904MOL0     H22028   2.045   9.679  11.456  2.6191  2.1411 -4.1895
  904MOL0     H22029   1.994   9.506  11.410 -2.6991 -0.7687 -0.5608
  904MOL0     H22030   1.812   9.758  11.428  2.9368  1.5464  2.0615
  904MOL0     H22031   1.831   9.638  11.543  0.2825  2.4146 -0.3019
  904MOL0     H22032   1.779   9.477  11.344 -1.7278 -0.8856 -1.4804
  904MOL0     H22033   1.720   9.620  11.253 -0.2162  2.5862  1.4542
  904MOL0     H22034   1.567   9.667  11.458 -1.8399 -0.1315 -0.5305
  904MOL0     H22035   1.523   9.520  11.380  1.8993 -1.6739 -0.1142
  904MOL0     H22036   1.635   9.327  11.713  0.1703  1.9700  1.7431
  904MOL0     H22037   1.972   9.732  10.992 -1.8959 -1.1305  1.0922
  904MOL0     H22038   2.007   9.900  10.823 -0.3035  1.7093 -2.1583
  904MOL0     H22039   1.841   9.968  10.823 -0.2662 -1.3040  0.1504
  904MOL0     H22040   1.983  10.066  10.854  1.7881 -1.7752  1.0409
  905MOL0     O22041   3.522   0.095   6.041  0.0457 -0.0578 -0.3001
  905MOL0     C22042   3.620   0.129   5.974  0.5918 -0.5570  0.2574
  905MOL0     O22043   3.619   0.163   5.843 -0.8493  0.6028 -0.3921
  905MOL0     C22044   3.506   0.127   5.768 -0.6340 -0.8384 -0.7249
  905MOL0     C22045   3.377   0.177   5.783 -0.5424 -0.2034 -0.2851
  905MOL0     C22046   3.277   0.137   5.696 -0.0403  0.3228 -0.5519
  905MOL0     C22047   3.312   0.036   5.592  0.9245 -0.5009 -1.1656
  905MOL0     O22048   3.204  -0.001   5.531  0.6010  0.3039  0.0856
  905MOL0     C22049   3.187  -0.143   5.532  0.2944 -1.0678 -1.0117
  905MOL0     C22050   3.052  -0.180   5.452 -0.5346 -0.0820  0.4929
  905MOL0     C22051   2.908  -0.179   5.514  0.8723  0.5228  0.2358
  905MOL0     C22052   2.810  -0.236   5.421  0.8627 -0.4876 -0.1659
  905MOL0     C22053   2.686  -0.262   5.511 -0.7280 -0.0125 -0.6620
  905MOL0     C22054   2.559  -0.252   5.420 -0.1590 -0.3802  0.4057
  905MOL0     C22055   2.487  -0.106   5.437  0.0168  1.3980  0.3406
  905MOL0     C22056   2.369  -0.077   5.355  0.4073  0.3214 -0.6652
  905MOL0     N22057   2.392  -0.093   5.213 -0.3561  0.2103  0.1929
  905MOL0     C22058   2.306  -0.173   5.143  0.0716 -0.3204  1.0624
  905MOL0     C22059   2.325  -0.136   5.009  0.5146  0.3809  0.5956
  905MOL0     C22060   2.266  -0.188   4.888  0.4818 -0.1825  0.0207
  905MOL0     C22061   2.379  -0.240   4.795  0.3619  0.3087 -0.4021
  905MOL0     C22062   2.471  -0.342   4.852  0.3853  0.7897 -0.3303
  905MOL0     C22063   2.511  -0.434   4.730 -0.5229 -0.4224  0.4480
  905MOL0     O22064   2.512  -0.370   4.596  0.3202 -0.0653  0.5895
  905MOL0     C22065   2.528  -0.449   4.486 -0.1543 -0.0232 -0.0488
  905MOL0     C22066   2.508  -0.395   4.356  0.1495  0.2457  0.3653
  905MOL0     C22067   2.521  -0.474   4.235  0.0503 -0.3155  1.5906
  905MOL0     C22068   2.569  -0.609   4.248  0.1995  0.3216  0.0935
  905MOL0     C22069   2.603  -0.681   4.126 -0.3542  0.5584 -0.0474
  905MOL0     O22070   2.554  -0.631   4.008  0.5582  0.0562 -0.8114
  905MOL0     C22071   2.589  -0.673   3.881 -0.3833  0.4941  0.7430
  905MOL0     C22072   2.692  -0.607   3.814 -0.2578  0.3836 -0.4517
  905MOL0     C22073   2.729  -0.647   3.676 -0.3868 -0.8517 -0.1407
  905MOL0     C22074   2.664  -0.753   3.610  0.0180  0.6181  0.2106
  905MOL0     O22075   2.715  -0.790   3.481 -0.3282  0.1348  0.2808
  905MOL0     C22076   2.635  -0.874   3.387  0.1908  0.8310 -0.6789
  905MOL0     C22077   2.690  -0.869   3.244 -0.5278  0.0232 -0.5845
  905MOL0     C22078   2.587  -0.954   3.160 -0.1639 -0.1835 -0.4082
  905MOL0     C22079   2.631  -0.966   3.007  0.0540  0.2141 -0.7995
  905MOL0     C22080   2.580  -0.843   2.930  0.4255 -0.3688 -1.0875
  905MOL0     C22081   2.632  -0.848   2.786 -0.2436 -0.4540  0.6732
  905MOL0     C22082   2.543  -0.946   2.699 -0.1657  0.3969 -0.5075
  905MOL0     C22083   2.626  -1.026   2.601 -0.1726 -0.5548  0.1174
  905MOL0    Cl22084   2.719  -0.906   2.497  0.1701  0.2159  0.1821
  905MOL0     C22085   2.566  -0.824   3.685  0.4060 -0.2869  0.0022
  905MOL0     C22086   2.526  -0.775   3.810  0.4787  0.1437  0.1254
  905MOL0     O22087   2.660  -0.786   4.144 -0.5493 -0.3514  0.4313
  905MOL0     C22088   2.576  -0.666   4.371 -0.3317  0.4903 -0.5095
  905MOL0     C22089   2.557  -0.593   4.487  0.8342  0.4584  0.2764
  905MOL0     N22090   2.425  -0.039   5.012 -0.0477  0.4149  0.1704
  905MOL0     N22091   2.459  -0.009   5.132  0.4209  0.1005 -0.6245
  905MOL0     C22092   3.440   0.001   5.570  0.0108 -0.0216  0.3600
  905MOL0     C22093   3.534   0.046   5.659 -0.8065  0.4777  0.3216
  905MOL0     C22094   3.745   0.161   6.049  0.2681 -0.2330  0.7352
  905MOL0     C22095   3.737   0.244   6.154  0.2689 -0.0910  0.3150
  905MOL0     C22096   3.854   0.267   6.232 -0.1276  0.0687  1.1377
  905MOL0     C22097   3.980   0.220   6.193 -0.7251  0.1794 -0.7111
  905MOL0     O22098   4.092   0.242   6.264 -0.0253 -0.0739 -0.1008
  905MOL0     C22099   4.228   0.199   6.226  0.2709 -0.2088 -0.0833
  905MOL0     C22100   4.332   0.229   6.322 -0.0287  0.5494  0.1710
  905MOL0     C22101   4.326   0.153   6.457  0.6402  1.1103  0.8309
  905MOL0     C22102   4.390   0.013   6.460 -0.4939  0.0091  0.1917
  905MOL0     C22103   4.404  -0.036   6.601  0.3910  0.0279 -0.5038
  905MOL0     C22104   4.416  -0.047   6.723 -0.6224 -0.2719  1.1805
  905MOL0     C22105   3.980   0.143   6.080 -0.2370 -0.4812 -0.3704
  905MOL0     C22106   3.869   0.112   6.002 -0.2750 -0.2194  0.3779
  905MOL0     C22107   3.881   0.018   5.884 -0.5149  0.4342 -0.1954
  905MOL0     H22108   3.359   0.258   5.853 -0.5847 -0.6878  0.2671
  905MOL0     H22109   3.176   0.173   5.709  0.1655  1.6290 -2.1586
  905MOL0     H22110   3.273  -0.180   5.475  1.4962 -0.6828  0.4846
  905MOL0     H22111   3.190  -0.190   5.630 -0.8172  0.4746 -0.1961
  905MOL0     H22112   3.080  -0.275   5.406 -0.3998 -1.4705  3.1999
  905MOL0     H22113   3.049  -0.114   5.365  0.5560  1.4842  1.5728
  905MOL0     H22114   2.874  -0.082   5.550 -1.6718 -0.5132  0.8480
  905MOL0     H22115   2.913  -0.250   5.598  0.4105 -0.5519 -0.6169
  905MOL0     H22116   2.789  -0.149   5.358 -1.3065 -0.5812  0.3560
  905MOL0     H22117   2.834  -0.330   5.372 -2.7321 -1.8195  0.3022
  905MOL0     H22118   2.693  -0.356   5.565  2.9712  1.2135  1.2899
  905MOL0     H22119   2.667  -0.194   5.595 -4.1521 -1.5612 -0.0093
  905MOL0     H22120   2.596  -0.263   5.318 -0.6214  0.0490  0.1906
  905MOL0     H22121   2.489  -0.333   5.441  0.3810 -0.4224  2.2384
  905MOL0     H22122   2.555  -0.021   5.424  0.3511  0.9368 -1.1671
  905MOL0     H22123   2.448  -0.104   5.539 -0.7015 -0.4974  0.1430
  905MOL0     H22124   2.290  -0.137   5.399  1.4812 -2.6135 -2.4553
  905MOL0     H22125   2.337   0.027   5.367  0.6457  0.3363 -0.1358
  905MOL0     H22126   2.248  -0.249   5.194 -2.9840  1.5215  0.6126
  905MOL0     H22127   2.207  -0.278   4.910 -0.1924 -0.2046 -1.7491
  905MOL0     H22128   2.216  -0.109   4.832  2.3844 -0.8546 -2.8406
  905MOL0     H22129   2.330  -0.275   4.704  0.4094 -0.7156 -0.0450
  905MOL0     H22130   2.433  -0.154   4.753 -2.9833  1.0412 -3.6943
  905MOL0     H22131   2.423  -0.387   4.940  0.1367  0.5535 -0.5855
  905MOL0     H22132   2.560  -0.286   4.881  0.3510  0.8328 -0.3084
  905MOL0     H22133   2.435  -0.513   4.730  0.5404 -1.5680 -2.5801
  905MOL0     H22134   2.609  -0.478   4.751 -0.4261 -0.8991 -0.9373
  905MOL0     H22135   2.474  -0.292   4.352 -1.4954 -0.2705 -3.6309
  905MOL0     H22136   2.512  -0.415   4.144  1.8118  2.6138  3.1540
  905MOL0     H22137   2.756  -0.530   3.855 -0.9022  0.9584 -0.5207
  905MOL0     H22138   2.811  -0.602   3.621  0.5267 -1.8844  0.3604
  905MOL0     H22139   2.618  -0.973   3.430  0.4831  1.5329  1.1545
  905MOL0     H22140   2.531  -0.841   3.378 -1.0506 -2.0934  1.3450
  905MOL0     H22141   2.689  -0.765   3.212 -3.4862 -0.6183 -3.1020
  905MOL0     H22142   2.793  -0.902   3.230 -0.4537 -0.1222  0.2373
  905MOL0     H22143   2.589  -1.055   3.202  0.5258 -0.0518 -0.1133
  905MOL0     H22144   2.491  -0.901   3.164  0.0573  0.4172 -2.1416
  905MOL0     H22145   2.601  -1.051   2.945 -2.2983  0.7750 -0.5435
  905MOL0     H22146   2.740  -0.967   3.013  0.0140  0.1173 -0.0266
  905MOL0     H22147   2.623  -0.754   2.977  0.9585 -1.0446 -0.2483
  905MOL0     H22148   2.473  -0.826   2.949  0.8168 -0.5208  1.6278
  905MOL0     H22149   2.641  -0.749   2.740 -0.0274  0.8131  3.2200
  905MOL0     H22150   2.736  -0.881   2.791 -0.8717 -2.4261  1.8806
  905MOL0     H22151   2.460  -0.884   2.662  1.6671  0.9882 -4.0911
  905MOL0     H22152   2.489  -1.019   2.761  1.1951  0.5721  0.9481
  905MOL0     H22153   2.673  -1.108   2.656 -2.3826 -1.6300  0.5367
  905MOL0     H22154   2.550  -1.078   2.542  0.6874  0.9310 -2.4381
  905MOL0     H22155   2.522  -0.909   3.634 -1.6312  0.6135  0.1326
  905MOL0     H22156   2.455  -0.835   3.866  0.8889 -1.0372 -0.5815
  905MOL0     H22157   2.594  -0.773   4.368 -3.8105 -0.2823  0.6373
  905MOL0     H22158   2.566  -0.641   4.584  0.0807 -1.8485 -0.7130
  905MOL0     H22159   3.460  -0.073   5.493  1.1185 -0.1140  0.7172
  905MOL0     H22160   3.638   0.017   5.644 -1.1764 -1.8466  1.7593
  905MOL0     H22161   3.640   0.286   6.181 -0.0483 -2.0983  2.6767
  905MOL0     H22162   3.862   0.330   6.319  3.9914 -0.3369  1.2144
  905MOL0     H22163   4.243   0.249   6.129 -2.0571 -2.3109 -1.6623
  905MOL0     H22164   4.216   0.092   6.202  1.8017 -0.9067  1.9682
  905MOL0     H22165   4.325   0.336   6.345  1.3496  0.3894  1.5805
  905MOL0     H22166   4.433   0.213   6.284  0.0499 -0.1926  0.6774
  905MOL0     H22167   4.222   0.150   6.489  0.7062  1.8228  1.1391
  905MOL0     H22168   4.379   0.216   6.530  1.9054  0.9305  0.1000
  905MOL0     H22169   4.326  -0.059   6.408  1.5827 -1.5931 -0.2924
  905MOL0     H22170   4.490   0.018   6.418 -0.6034 -3.3068 -0.7690
  905MOL0     H22171   4.428  -0.046   6.830  2.9257  0.2400  0.9046
  905MOL0     H22172   4.072   0.111   6.031 -0.0426 -0.2661 -0.1534
  905MOL0     H22173   3.824   0.049   5.796 -2.6444  0.0530  0.9894
  905MOL0     H22174   3.981   0.019   5.839 -1.2336 -1.4150 -2.0283
  905MOL0     H22175   3.859  -0.084   5.918 -0.6441  0.0648 -1.3521
  906MOL0     O22176   9.681   2.482   3.567 -0.5762 -1.3737  1.2823
  906MOL0     C22177   9.575   2.445   3.520 -0.3169  1.2115 -0.3281
  906MOL0     O22178   9.554   2.400   3.391 -0.6325 -0.0797  0.9249
  906MOL0     C22179   9.657   2.419   3.300 -0.3199 -1.5373 -0.0902
  906MOL0     C22180   9.611   2.484   3.187 -0.2235 -0.5112  0.1046
  906MOL0     C22181   9.703   2.518   3.082 -0.9548  0.2041 -0.3519
  906MOL0     C22182   9.839   2.489   3.095 -0.0284  0.0102 -0.6530
  906MOL0     O22183   9.936   2.501   3.003  0.1125 -1.0011 -0.4791
  906MOL0     C22184   9.925   2.568   2.881 -1.1694  0.3498 -0.7284
  906MOL0     C22185   9.848   2.488   2.777  0.6044 -0.3330  0.2852
  906MOL0     C22186   9.934   2.409   2.685 -0.9150  0.3704 -0.0016
  906MOL0     C22187   9.938   2.470   2.542 -0.2027  0.2287  0.6604
  906MOL0     C22188  10.064   2.418   2.477 -0.9276  0.5856 -0.1062
  906MOL0     C22189  10.185   2.506   2.507  0.0990 -0.4123  0.1062
  906MOL0     C22190  10.304   2.470   2.421 -0.3767  1.0565  0.2697
  906MOL0     C22191  10.277   2.473   2.266 -0.5003  0.0659 -0.3733
  906MOL0     N22192  10.406   2.487   2.189 -0.1469  0.5006  0.1690
  906MOL0     C22193  10.443   2.391   2.098 -0.5595 -0.0539  0.5592
  906MOL0     C22194  10.558   2.443   2.037  0.0984  0.8094  0.6520
  906MOL0     C22195  10.601   2.372   1.908 -0.3454  0.7071  0.2567
  906MOL0     C22196  10.518   2.424   1.785 -0.4138 -1.0978  0.4318
  906MOL0     C22197  10.573   2.366   1.648  0.9091  0.0165 -0.6241
  906MOL0     C22198  10.477   2.408   1.546  0.0604 -0.7588  0.4864
  906MOL0     O22199  10.549   2.519   1.475  0.8194  0.0241 -0.4697
  906MOL0     C22200  10.496   2.583   1.371 -0.0025 -0.3453  0.8604
  906MOL0     C22201  10.358   2.571   1.329 -0.8453 -0.0735 -0.4446
  906MOL0     C22202  10.317   2.626   1.211  0.6164 -0.1362 -0.4716
  906MOL0     C22203  10.412   2.700   1.132  0.2375  0.7236 -0.0911
  906MOL0     C22204  10.365   2.770   1.008 -0.0381 -0.5940 -0.1871
  906MOL0     O22205  10.447   2.840   0.928 -0.9418 -0.3503  0.0426
  906MOL0     C22206  10.386   2.900   0.813 -0.4473 -0.4561 -0.2991
  906MOL0     C22207  10.418   2.847   0.688  0.2942 -0.1817 -0.2856
  906MOL0     C22208  10.368   2.906   0.569  0.8494 -0.6875  0.0152
  906MOL0     C22209  10.280   3.018   0.589 -0.1620 -0.3881 -0.5041
  906MOL0     O22210  10.217   3.084   0.488 -0.2396  0.1883 -0.7172
  906MOL0     C22211  10.139   3.013   0.399  0.2285  0.0943 -0.8594
  906MOL0     C22212  10.008   2.982   0.468  0.5944 -0.0073 -0.3418
  906MOL0     C22213   9.930   2.856   0.409  0.4921 -0.3102 -0.2649
  906MOL0     C22214   9.906   2.858   0.259  0.0001 -0.3761  0.1886
  906MOL0     C22215   9.787   2.763   0.217  0.2015 -0.2101  0.2058
  906MOL0     C22216   9.800   2.620   0.260 -0.0402  0.3778  0.4169
  906MOL0     C22217   9.677   2.537   0.222  0.3947  0.6643 -1.0456
  906MOL0     C22218   9.704   2.398   0.152 -0.1152 -0.3022  0.4965
  906MOL0    Cl22219   9.539   2.331   0.139 -0.5335 -0.2548  0.3955
  906MOL0     C22220  10.254   3.067   0.721  0.4361 -0.8409  1.1976
  906MOL0     C22221  10.307   3.011   0.831 -0.0875  0.1455  0.5403
  906MOL0     O22222  10.241   2.757   0.991 -0.6518  0.4989  0.2270
  906MOL0     C22223  10.546   2.716   1.175  1.2260 -0.0429  0.4419
  906MOL0     C22224  10.591   2.645   1.294 -0.1348  0.6028  0.0955
  906MOL0     N22225  10.589   2.567   2.093 -0.9451  0.1002  0.3005
  906MOL0     N22226  10.504   2.588   2.190 -0.2238  0.2520 -1.1949
  906MOL0     C22227   9.885   2.427   3.209  0.8708  0.7075  0.1280
  906MOL0     C22228   9.794   2.399   3.316  0.3479 -0.1533 -0.0402
  906MOL0     C22229   9.466   2.452   3.628  0.6228 -0.6146 -0.3137
  906MOL0     C22230   9.367   2.351   3.633  0.2162 -0.5413  0.6372
  906MOL0     C22231   9.258   2.359   3.711  0.4529  0.2599 -0.1596
  906MOL0     C22232   9.255   2.446   3.813  0.1610 -0.7541  0.0898
  906MOL0     O22233   9.150   2.453   3.901 -0.4038  0.5673  0.1076
  906MOL0     C22234   9.046   2.545   3.864 -0.4447  0.1550  0.3865
  906MOL0     C22235   8.980   2.503   3.737  0.7601 -1.7070 -0.1578
  906MOL0     C22236   8.841   2.552   3.721  0.5492 -0.1936 -0.0052
  906MOL0     C22237   8.744   2.459   3.796 -0.0096  0.4444 -0.4304
  906MOL0     C22238   8.609   2.517   3.784  0.1803 -1.1918  0.1326
  906MOL0     C22239   8.490   2.555   3.772 -0.2910 -0.2693 -1.1117
  906MOL0     C22240   9.344   2.553   3.817 -0.2255 -1.2168 -0.1114
  906MOL0     C22241   9.448   2.562   3.725  0.3098 -0.5093 -0.2611
  906MOL0     C22242   9.536   2.677   3.737 -0.4095  0.2486  0.3916
  906MOL0     H22243   9.507   2.512   3.176  0.1398  0.8085 -0.1333
  906MOL0     H22244   9.665   2.571   2.995 -0.9989  2.0200  0.7238
  906MOL0     H22245   9.880   2.667   2.892  3.2204  2.6555 -1.1329
  906MOL0     H22246  10.028   2.585   2.848 -0.6690 -2.5029 -0.8468
  906MOL0     H22247   9.796   2.557   2.710  3.1376 -0.6677 -2.2436
  906MOL0     H22248   9.776   2.421   2.825 -0.0751  0.8368  0.9572
  906MOL0     H22249   9.899   2.306   2.677  0.9507 -0.5266  2.2219
  906MOL0     H22250  10.036   2.404   2.723 -0.8764 -1.1492 -0.2397
  906MOL0     H22251   9.852   2.428   2.489  1.9287 -1.3078 -1.8685
  906MOL0     H22252   9.939   2.577   2.521 -0.1393  0.6787  2.7493
  906MOL0     H22253  10.090   2.314   2.499  0.3008  0.2853 -2.6225
  906MOL0     H22254  10.047   2.428   2.369  1.0181  2.3339 -0.3151
  906MOL0     H22255  10.156   2.606   2.473 -3.0649 -0.5264  2.0883
  906MOL0     H22256  10.220   2.515   2.610  0.4555  1.7668 -0.1546
  906MOL0     H22257  10.321   2.365   2.445 -0.8928  0.9035 -0.0183
  906MOL0     H22258  10.396   2.526   2.443  1.9595 -0.7793 -3.7995
  906MOL0     H22259  10.223   2.380   2.243  0.5794 -0.0956 -2.3864
  906MOL0     H22260  10.205   2.553   2.249  0.6363  1.5705  1.4707
  906MOL0     H22261  10.407   2.293   2.069 -0.4731 -0.1212  0.6802
  906MOL0     H22262  10.707   2.398   1.902  0.0325 -1.0397 -2.3352
  906MOL0     H22263  10.601   2.263   1.915  0.3179  0.8252  4.3884
  906MOL0     H22264  10.412   2.400   1.800 -1.4997  1.8631 -1.6378
  906MOL0     H22265  10.525   2.533   1.784  0.0913 -1.1288  0.3096
  906MOL0     H22266  10.582   2.257   1.651 -0.9670 -0.3588 -3.6683
  906MOL0     H22267  10.674   2.406   1.633  1.1590 -0.9802 -1.7740
  906MOL0     H22268  10.375   2.429   1.578  0.7643  0.4570  2.0364
  906MOL0     H22269  10.462   2.326   1.475  1.2971  0.0772 -0.7949
  906MOL0     H22270  10.284   2.514   1.385 -2.2878  1.5991 -0.5592
  906MOL0     H22271  10.216   2.590   1.190  1.1586 -2.1956  0.2716
  906MOL0     H22272  10.470   2.752   0.690  1.9715  0.6902  2.5242
  906MOL0     H22273  10.374   2.876   0.465 -0.7984 -1.3380  0.0882
  906MOL0     H22274  10.116   3.087   0.322 -1.0424  2.7075  1.8177
  906MOL0     H22275  10.184   2.920   0.363 -1.8398 -0.9193 -0.9850
  906MOL0     H22276  10.031   2.958   0.572  1.4460  2.3970  0.0938
  906MOL0     H22277   9.950   3.074   0.459  1.5361  0.5918 -0.5071
  906MOL0     H22278   9.994   2.771   0.438  0.5269  0.6692  3.0136
  906MOL0     H22279   9.834   2.849   0.461  0.2986  1.0956 -0.3938
  906MOL0     H22280   9.993   2.818   0.206 -0.8683 -5.1284  1.8894
  906MOL0     H22281   9.883   2.958   0.222  1.7926 -0.1914 -0.5395
  906MOL0     H22282   9.778   2.758   0.108 -1.9861  1.0329  0.2526
  906MOL0     H22283   9.693   2.806   0.255 -0.2186  0.0006 -1.0382
  906MOL0     H22284   9.888   2.564   0.229 -0.6502  1.2753 -3.3235
  906MOL0     H22285   9.799   2.613   0.370 -1.4035  1.3313  0.4997
  906MOL0     H22286   9.627   2.600   0.147 -0.4163 -1.4065 -2.3201
  906MOL0     H22287   9.607   2.533   0.306 -0.3969  2.4388 -1.5805
  906MOL0     H22288   9.747   2.420   0.054 -1.3092 -1.3494 -0.3074
  906MOL0     H22289   9.764   2.336   0.219 -1.9297 -1.3333  1.2587
  906MOL0     H22290  10.182   3.143   0.748 -0.5907 -1.2777 -0.1791
  906MOL0     H22291  10.302   3.040   0.935  0.4429  0.3419  0.5156
  906MOL0     H22292  10.614   2.781   1.120  0.5455  1.2550  1.0872
  906MOL0     H22293  10.694   2.642   1.328  0.5327 -1.0730 -1.9331
  906MOL0     H22294   9.990   2.401   3.215  0.2757 -2.4790 -1.4559
  906MOL0     H22295   9.843   2.378   3.410  1.0913  2.5673  0.2845
  906MOL0     H22296   9.369   2.272   3.558 -1.2718 -0.6250  0.6470
  906MOL0     H22297   9.175   2.289   3.698 -1.0283  1.7975  0.6842
  906MOL0     H22298   9.089   2.644   3.844  0.6464  0.0162  1.9107
  906MOL0     H22299   8.966   2.551   3.939 -1.9770 -2.5317 -0.8906
  906MOL0     H22300   8.978   2.394   3.728  0.0236 -1.8320  1.3222
  906MOL0     H22301   9.042   2.532   3.651  1.0405 -1.1043  0.2393
  906MOL0     H22302   8.809   2.551   3.617 -0.8106  3.6884  0.2098
  906MOL0     H22303   8.837   2.651   3.769  0.2836 -0.7498  1.1511
  906MOL0     H22304   8.753   2.359   3.752  4.3302 -0.0506  1.1354
  906MOL0     H22305   8.767   2.456   3.903  1.2566  0.2719 -0.6945
  906MOL0     H22306   8.391   2.595   3.759 -0.3813  0.8728  2.2867
  906MOL0     H22307   9.333   2.629   3.894  2.8495  0.7910 -1.4629
  906MOL0     H22308   9.569   2.698   3.635  1.3514 -4.3645 -0.2308
  906MOL0     H22309   9.494   2.765   3.787 -0.5552  0.4739 -0.1172
  906MOL0     H22310   9.628   2.641   3.784  0.7794 -2.0150 -3.2690
  907MOL0     O22311   4.465   3.445   5.167 -0.3743 -0.1351  0.2961
  907MOL0     C22312   4.466   3.355   5.243  0.2184  0.6657 -0.4420
  907MOL0     O22313   4.561   3.337   5.345  0.8381 -0.4109  0.4729
  907MOL0     C22314   4.666   3.417   5.376  0.2790 -0.7310 -0.4881
  907MOL0     C22315   4.660   3.557   5.370  0.2521  0.4048 -0.6696
  907MOL0     C22316   4.760   3.634   5.428 -0.1525 -0.1146 -1.1556
  907MOL0     C22317   4.875   3.566   5.486  0.6385 -0.2221  0.1631
  907MOL0     O22318   4.992   3.635   5.524  0.6145 -0.0653  0.1350
  907MOL0     C22319   5.024   3.759   5.458 -0.2567 -0.1568  0.5515
  907MOL0     C22320   5.042   3.755   5.300  0.5300  1.1520 -0.1273
  907MOL0     C22321   5.176   3.700   5.261  0.5876  0.6893 -0.1717
  907MOL0     C22322   5.196   3.555   5.296  0.4000  1.1707  0.0694
  907MOL0     C22323   5.340   3.514   5.280 -0.4037 -0.9649  0.2228
  907MOL0     C22324   5.367   3.371   5.333  0.7476 -0.7807 -0.3461
  907MOL0     C22325   5.512   3.340   5.373 -0.3831  0.3873 -1.1203
  907MOL0     C22326   5.588   3.444   5.462  0.5134  0.4134 -0.6355
  907MOL0     N22327   5.528   3.462   5.590  1.1196 -0.4775  0.2972
  907MOL0     C22328   5.436   3.565   5.614  0.1744 -0.8060 -0.1047
  907MOL0     C22329   5.435   3.579   5.747  0.5740 -0.0356  0.5554
  907MOL0     C22330   5.339   3.669   5.818  0.3700  0.1682 -0.6268
  907MOL0     C22331   5.188   3.630   5.808 -0.3300 -0.5493  0.1346
  907MOL0     C22332   5.152   3.490   5.867  0.4013 -0.1338 -0.3164
  907MOL0     C22333   5.002   3.476   5.860 -0.0693  0.4383  0.5642
  907MOL0     O22334   4.961   3.335   5.878  0.6597 -0.0898  0.3422
  907MOL0     C22335   4.823   3.307   5.856 -0.4020 -0.1086  0.4136
  907MOL0     C22336   4.720   3.405   5.827 -0.2737 -0.8964  0.7121
  907MOL0     C22337   4.583   3.359   5.810  0.0752 -1.2479  0.2737
  907MOL0     C22338   4.564   3.225   5.788  0.2895 -0.5758 -0.3758
  907MOL0     C22339   4.421   3.197   5.771  0.4855  0.0311  0.5717
  907MOL0     O22340   4.337   3.258   5.859 -0.4191  0.2589  0.8022
  907MOL0     C22341   4.206   3.222   5.867 -0.6108 -0.3781 -0.2303
  907MOL0     C22342   4.158   3.182   5.988  0.5115  0.0640  0.6309
  907MOL0     C22343   4.031   3.130   6.004  0.4019 -0.0918 -0.7816
  907MOL0     C22344   3.938   3.150   5.898  0.0389  0.1721  0.5307
  907MOL0     O22345   3.817   3.101   5.922  1.2855 -0.5428  0.9425
  907MOL0     C22346   3.717   3.087   5.818 -0.1391 -0.6375  0.1599
  907MOL0     C22347   3.736   2.976   5.712  0.1042 -0.0347  0.4629
  907MOL0     C22348   3.720   2.835   5.776 -0.2161  0.0691  0.2296
  907MOL0     C22349   3.801   2.732   5.689  0.4408 -0.1657 -0.1174
  907MOL0     C22350   3.805   2.595   5.762 -0.4165  0.3660 -0.3355
  907MOL0     C22351   3.871   2.482   5.685 -0.5824  0.4717  0.7835
  907MOL0     C22352   3.934   2.377   5.775 -0.1737  0.0897 -0.1955
  907MOL0     C22353   4.086   2.388   5.787 -0.0353 -0.3180 -0.0388
  907MOL0    Cl22354   4.163   2.347   5.630  0.3884  0.1407  0.0782
  907MOL0     C22355   3.980   3.208   5.782  1.0335  0.4385 -0.2197
  907MOL0     C22356   4.116   3.246   5.773 -0.7828  0.7254 -0.2395
  907MOL0     O22357   4.387   3.109   5.690 -0.4554  0.6160 -0.1580
  907MOL0     C22358   4.657   3.133   5.822  0.0728  0.1766  0.2385
  907MOL0     C22359   4.784   3.174   5.848  0.1177  0.2575  0.4392
  907MOL0     N22360   5.517   3.480   5.803  0.1473 -0.7685  0.2817
  907MOL0     N22361   5.577   3.418   5.713 -0.0164  0.1102  0.2271
  907MOL0     C22362   4.876   3.426   5.493 -0.5676  0.3251 -0.5702
  907MOL0     C22363   4.779   3.358   5.429 -0.5684 -1.1150  0.1198
  907MOL0     C22364   4.360   3.248   5.223 -0.6229  0.5863  0.1706
  907MOL0     C22365   4.327   3.177   5.338  0.3051 -0.5132  0.0401
  907MOL0     C22366   4.238   3.077   5.338  0.1435  0.2025 -0.0355
  907MOL0     C22367   4.182   3.014   5.228 -0.5677 -0.3979  0.4683
  907MOL0     O22368   4.105   2.909   5.219  0.0039  0.5076 -0.1422
  907MOL0     C22369   4.102   2.816   5.337 -0.7118 -0.8199 -0.3041
  907MOL0     C22370   4.227   2.729   5.329  0.1307 -0.0438  0.3900
  907MOL0     C22371   4.220   2.651   5.464 -0.5635  0.9726 -0.0523
  907MOL0     C22372   4.297   2.718   5.581 -0.1239  0.2803 -0.0267
  907MOL0     C22373   4.218   2.813   5.659 -0.3238  0.0814 -0.1839
  907MOL0     C22374   4.160   2.902   5.713  0.1029 -0.3887  0.3171
  907MOL0     C22375   4.223   3.072   5.111  0.8755 -0.5546  0.1089
  907MOL0     C22376   4.308   3.191   5.104  0.5768  0.5014 -0.0576
  907MOL0     C22377   4.359   3.228   4.958  0.7107  0.3078  0.3772
  907MOL0     H22378   4.579   3.612   5.324 -1.6793 -3.3402 -2.1968
  907MOL0     H22379   4.753   3.741   5.408  0.5786 -0.4162 -3.2484
  907MOL0     H22380   4.963   3.844   5.491  0.6348  0.9905 -0.6543
  907MOL0     H22381   5.116   3.787   5.511 -0.5069 -0.6453  1.2594
  907MOL0     H22382   5.033   3.854   5.256  3.4326  0.0103 -3.8360
  907MOL0     H22383   4.960   3.693   5.262 -0.3292  1.4760  1.1311
  907MOL0     H22384   5.250   3.770   5.301  1.0834 -0.2385  0.5868
  907MOL0     H22385   5.191   3.694   5.153  4.4024 -1.3265  0.3113
  907MOL0     H22386   5.170   3.531   5.400 -4.0717 -3.6411 -1.7209
  907MOL0     H22387   5.135   3.489   5.233 -0.9088  1.9901  0.4537
  907MOL0     H22388   5.378   3.537   5.179  1.0824 -2.5273  0.3691
  907MOL0     H22389   5.392   3.588   5.341  0.2303 -1.2123 -0.0082
  907MOL0     H22390   5.317   3.340   5.425 -0.5144 -0.2987 -0.8508
  907MOL0     H22391   5.318   3.304   5.262  0.4104 -2.4566  1.3662
  907MOL0     H22392   5.574   3.326   5.284  0.1727 -0.5676 -0.6023
  907MOL0     H22393   5.519   3.249   5.434 -2.0860 -0.6024 -2.3358
  907MOL0     H22394   5.680   3.396   5.496 -0.1010  1.5034  2.9928
  907MOL0     H22395   5.619   3.538   5.414 -0.6421  1.3718  0.4266
  907MOL0     H22396   5.391   3.647   5.558 -0.4533  1.0799  2.9254
  907MOL0     H22397   5.373   3.686   5.920  1.5205  1.8087 -1.2440
  907MOL0     H22398   5.337   3.773   5.786  1.4478  0.0827 -1.0028
  907MOL0     H22399   5.133   3.706   5.865  2.0072  2.0058 -0.8174
  907MOL0     H22400   5.158   3.643   5.703 -0.6871  1.3916  0.4321
  907MOL0     H22401   5.174   3.484   5.974 -3.0652 -2.8100  0.4016
  907MOL0     H22402   5.200   3.408   5.813  0.6462  0.2493 -0.6885
  907MOL0     H22403   4.971   3.503   5.758 -1.9083  0.4432  1.0916
  907MOL0     H22404   4.955   3.549   5.927  2.5682  1.1122  1.8014
  907MOL0     H22405   4.743   3.512   5.828 -1.3485 -0.6274 -0.4656
  907MOL0     H22406   4.506   3.434   5.800  0.0599 -1.5715 -3.2004
  907MOL0     H22407   4.225   3.178   6.073  1.6045 -4.4029 -0.1747
  907MOL0     H22408   4.003   3.097   6.104  0.6025 -0.4653 -0.8454
  907MOL0     H22409   3.617   3.060   5.854 -0.6673  1.0500  0.0478
  907MOL0     H22410   3.701   3.188   5.778 -3.3031 -1.4765 -0.9620
  907MOL0     H22411   3.667   2.991   5.628  0.6514 -0.0311  0.0017
  907MOL0     H22412   3.838   2.990   5.674  1.9681 -1.6502  4.3284
  907MOL0     H22413   3.775   2.853   5.869 -2.6933  3.5648  1.2333
  907MOL0     H22414   3.621   2.795   5.800  0.6622 -1.2044  2.0165
  907MOL0     H22415   3.905   2.760   5.666  0.8101 -1.7367 -0.4679
  907MOL0     H22416   3.754   2.742   5.591  2.7594  2.8028 -1.0819
  907MOL0     H22417   3.706   2.558   5.792  0.3655 -0.6640  1.1162
  907MOL0     H22418   3.864   2.619   5.852  0.6673  0.7068 -1.1206
  907MOL0     H22419   3.810   2.425   5.615  1.7940 -0.5562 -0.5544
  907MOL0     H22420   3.948   2.529   5.623 -1.9802  1.0935 -0.5528
  907MOL0     H22421   3.905   2.274   5.753  1.3167 -0.1816 -1.0204
  907MOL0     H22422   3.891   2.391   5.875  1.0341  2.8549  0.0233
  907MOL0     H22423   4.131   2.482   5.821  4.4262 -2.4495  0.6900
  907MOL0     H22424   4.119   2.309   5.855  3.7691  0.1140 -1.1120
  907MOL0     H22425   3.917   3.235   5.698  2.6263  1.6306 -1.0826
  907MOL0     H22426   4.158   3.303   5.691  2.0894  0.8162  1.1563
  907MOL0     H22427   4.635   3.027   5.832 -1.1575  0.5564  2.1177
  907MOL0     H22428   4.860   3.098   5.857 -1.2992 -1.8210 -3.0401
  907MOL0     H22429   4.950   3.357   5.531 -3.7027 -2.3682  1.2291
  907MOL0     H22430   4.770   3.250   5.426  0.4853 -1.2008 -1.3165
  907MOL0     H22431   4.362   3.206   5.436  0.2321 -1.8310  0.4694
  907MOL0     H22432   4.208   3.049   5.439 -3.1525 -1.6835 -1.3718
  907MOL0     H22433   4.018   2.747   5.340 -1.5245  0.1292 -0.6494
  907MOL0     H22434   4.090   2.868   5.433 -3.8099 -2.1691  0.1394
  907MOL0     H22435   4.318   2.789   5.320 -1.2321  2.1536  0.6247
  907MOL0     H22436   4.228   2.668   5.237 -2.5431 -0.8441  0.7999
  907MOL0     H22437   4.279   2.560   5.455  0.8693  1.5839  2.4599
  907MOL0     H22438   4.123   2.612   5.499  0.5693 -0.4689  1.6655
  907MOL0     H22439   4.327   2.644   5.656 -0.2832 -2.2233 -2.3019
  907MOL0     H22440   4.382   2.767   5.534 -1.0189  1.3264 -0.5808
  907MOL0     H22441   4.101   2.980   5.757  2.6015  2.3032 -0.8107
  907MOL0     H22442   4.176   3.027   5.025  0.8544 -1.6792  0.6819
  907MOL0     H22443   4.340   3.142   4.893 -1.4459  0.2251  1.0361
  907MOL0     H22444   4.309   3.317   4.918 -2.3863 -2.3013 -2.1573
  907MOL0     H22445   4.463   3.260   4.964 -0.0777  2.9679  1.3695
  908MOL0     O22446   8.519   3.520   7.738 -0.0591  0.6384 -0.0862
  908MOL0     C22447   8.420   3.579   7.691 -0.7595 -1.0283  0.2782
  908MOL0     O22448   8.379   3.701   7.730 -0.3757  0.5455  0.7932
  908MOL0     C22449   8.440   3.765   7.832 -0.5611  0.0632 -0.6951
  908MOL0     C22450   8.533   3.719   7.933 -0.4967  0.6057 -0.7205
  908MOL0     C22451   8.611   3.808   8.015 -0.0602  0.0847  0.2378
  908MOL0     C22452   8.580   3.945   8.017 -0.1899 -0.1927  0.2912
  908MOL0     O22453   8.634   4.021   8.121  0.6089  0.0697  0.3902
  908MOL0     C22454   8.546   4.113   8.193 -0.5730 -0.4629 -0.4828
  908MOL0     C22455   8.428   4.046   8.275  0.8969  0.1197  0.1853
  908MOL0     C22456   8.471   3.925   8.357  1.2133 -0.3091 -0.2758
  908MOL0     C22457   8.583   3.968   8.450  0.5171 -0.1134 -0.1788
  908MOL0     C22458   8.591   3.874   8.568  0.2155  0.0478 -0.6831
  908MOL0     C22459   8.477   3.884   8.672  0.2102 -0.5525  0.7015
  908MOL0     C22460   8.504   3.808   8.799  0.1792  0.3866  0.3089
  908MOL0     C22461   8.413   3.859   8.907 -0.3272  0.1965  1.0039
  908MOL0     N22462   8.406   3.782   9.030 -0.3230  0.2555 -0.4501
  908MOL0     C22463   8.384   3.647   9.024  0.4172  0.3564 -0.4750
  908MOL0     C22464   8.383   3.600   9.146 -0.4016  0.8085 -0.8154
  908MOL0     C22465   8.387   3.455   9.168  0.2783  0.5417  0.6188
  908MOL0     C22466   8.270   3.380   9.102  1.0857  0.9429 -0.5985
  908MOL0     C22467   8.246   3.245   9.167  0.0057 -0.1765  0.3486
  908MOL0     C22468   8.295   3.126   9.081  0.3346 -0.1872 -1.1142
  908MOL0     O22469   8.437   3.133   9.076 -0.4323  1.4098 -0.4979
  908MOL0     C22470   8.507   3.015   9.039  0.1834  0.3800 -0.2273
  908MOL0     C22471   8.643   3.028   9.065 -0.6473  0.3157  0.2999
  908MOL0     C22472   8.727   2.927   9.024 -0.6161  0.5670  0.5273
  908MOL0     C22473   8.668   2.818   8.956 -0.6289  0.0072  0.1680
  908MOL0     C22474   8.760   2.717   8.906  0.9531 -0.0013  0.2338
  908MOL0     O22475   8.698   2.599   8.888 -0.1895 -0.1347 -0.6105
  908MOL0     C22476   8.773   2.496   8.836  0.0855  1.6319 -0.0440
  908MOL0     C22477   8.811   2.496   8.701  0.6015  0.3961  1.0819
  908MOL0     C22478   8.907   2.401   8.654  0.3965 -0.3381  0.1503
  908MOL0     C22479   8.940   2.292   8.726  0.3839 -0.4726  0.1931
  908MOL0     O22480   9.044   2.217   8.679 -0.1752  0.5205  0.1245
  908MOL0     C22481   9.145   2.162   8.769  0.8598 -0.0565 -0.0217
  908MOL0     C22482   9.269   2.149   8.686 -0.5550  0.0190  0.5903
  908MOL0     C22483   9.375   2.076   8.767 -0.4604 -0.0662  0.4702
  908MOL0     C22484   9.515   2.089   8.696  0.7693 -0.1757  0.1454
  908MOL0     C22485   9.625   2.022   8.772 -0.7556  0.7316 -0.6544
  908MOL0     C22486   9.674   1.868   8.744  0.7837 -0.8114  0.0023
  908MOL0     C22487   9.816   1.856   8.711 -0.9278 -0.0414 -0.9171
  908MOL0     C22488   9.878   1.713   8.735  0.5873 -0.2953 -0.1645
  908MOL0    Cl22489   9.793   1.579   8.641 -0.2410  0.2083 -0.3071
  908MOL0     C22490   8.877   2.278   8.845  0.0609 -0.1270 -0.0172
  908MOL0     C22491   8.805   2.376   8.909  0.6275  0.1046  0.1341
  908MOL0     O22492   8.872   2.747   8.885 -0.4204 -0.4352  0.0128
  908MOL0     C22493   8.531   2.800   8.946  0.4785 -0.9502 -0.8727
  908MOL0     C22494   8.443   2.907   8.986  0.1135 -0.0293 -0.1697
  908MOL0     N22495   8.406   3.705   9.225 -0.7427  0.6258 -0.6886
  908MOL0     N22496   8.400   3.815   9.164 -0.2010 -0.1081  0.2710
  908MOL0     C22497   8.472   3.985   7.925  0.2390 -0.6245 -0.6499
  908MOL0     C22498   8.406   3.898   7.832  0.9600  0.0754 -0.2282
  908MOL0     C22499   8.357   3.519   7.564 -0.4906  0.2414 -0.2122
  908MOL0     C22500   8.301   3.608   7.480 -0.7842 -0.9906  0.3494
  908MOL0     C22501   8.231   3.564   7.370 -0.4261 -0.2178  0.3184
  908MOL0     C22502   8.221   3.434   7.339  1.1069 -0.0606  0.2107
  908MOL0     O22503   8.120   3.410   7.246 -0.4488 -0.2173 -0.3300
  908MOL0     C22504   8.131   3.296   7.166 -0.0580 -0.6114  0.0540
  908MOL0     C22505   8.092   3.329   7.023 -0.3680 -0.1273  1.2165
  908MOL0     C22506   7.944   3.371   7.003 -0.6958  0.2306 -0.2363
  908MOL0     C22507   7.937   3.520   6.994 -0.1953  0.2342  0.5714
  908MOL0     C22508   7.803   3.547   6.930  1.0306  0.3395  0.8041
  908MOL0     C22509   7.690   3.546   6.875 -0.0500 -0.1343 -0.8982
  908MOL0     C22510   8.263   3.341   7.431 -0.4368 -0.7818 -0.4460
  908MOL0     C22511   8.340   3.381   7.541  0.4949  0.3451  0.4801
  908MOL0     C22512   8.400   3.276   7.618 -1.3001 -0.0895  0.1639
  908MOL0     H22513   8.563   3.615   7.941  2.5220  1.1721 -2.9362
  908MOL0     H22514   8.671   3.766   8.095 -2.6821 -1.0732  1.7195
  908MOL0     H22515   8.614   4.175   8.254 -1.5988  2.6617 -2.2784
  908MOL0     H22516   8.505   4.189   8.126  0.7317  0.3601 -0.4015
  908MOL0     H22517   8.353   4.011   8.203  0.7078  5.6448 -2.8045
  908MOL0     H22518   8.385   4.120   8.343 -0.5780 -0.7261  0.2402
  908MOL0     H22519   8.489   3.841   8.289  2.0574  1.2982 -2.1316
  908MOL0     H22520   8.382   3.905   8.417 -0.1517  2.7686 -1.0742
  908MOL0     H22521   8.684   3.971   8.410 -0.1264 -0.5908 -1.9298
  908MOL0     H22522   8.549   4.068   8.481 -0.1822  0.7951 -3.4603
  908MOL0     H22523   8.607   3.773   8.530  0.9551 -0.9202  1.9702
  908MOL0     H22524   8.681   3.900   8.624  0.2437 -1.7814  0.2143
  908MOL0     H22525   8.466   3.990   8.694  0.7379 -0.6321  1.4017
  908MOL0     H22526   8.385   3.859   8.619 -0.4196 -0.0212  1.5166
  908MOL0     H22527   8.603   3.827   8.840  0.9515  0.6937 -1.6202
  908MOL0     H22528   8.487   3.702   8.781 -1.9576  0.2867  2.3944
  908MOL0     H22529   8.444   3.960   8.935 -2.8314  0.6849  2.3838
  908MOL0     H22530   8.310   3.857   8.870  0.0014 -1.8231  0.0739
  908MOL0     H22531   8.369   3.586   8.935  1.3214  0.1439 -0.4901
  908MOL0     H22532   8.483   3.412   9.140 -1.4705 -2.9395 -0.6670
  908MOL0     H22533   8.380   3.444   9.277  0.1898 -0.2111  0.5390
  908MOL0     H22534   8.174   3.431   9.096 -1.5681 -3.1703  2.0474
  908MOL0     H22535   8.293   3.355   8.998 -1.2676 -4.0510 -0.2161
  908MOL0     H22536   8.140   3.235   9.193 -0.7620 -1.1604 -2.7771
  908MOL0     H22537   8.303   3.233   9.260  1.1267  2.7968  0.1314
  908MOL0     H22538   8.249   3.131   8.982 -2.2733 -0.3367  0.0156
  908MOL0     H22539   8.256   3.031   9.118  0.4804  0.9340  2.1809
  908MOL0     H22540   8.690   3.118   9.103  1.5169 -0.0004 -1.4293
  908MOL0     H22541   8.835   2.922   9.039 -0.2737 -2.0838 -1.9221
  908MOL0     H22542   8.780   2.573   8.632 -1.9973  0.9261  2.6869
  908MOL0     H22543   8.966   2.420   8.564 -3.0027  2.0081 -1.8230
  908MOL0     H22544   9.152   2.226   8.858 -1.2876  0.8259 -0.4222
  908MOL0     H22545   9.119   2.060   8.797  1.5862 -0.0529  0.7039
  908MOL0     H22546   9.242   2.112   8.587 -3.5673  1.2645  0.8116
  908MOL0     H22547   9.309   2.250   8.670 -0.9079  0.1013  0.2062
  908MOL0     H22548   9.381   2.107   8.872 -0.0613 -1.0881  0.7721
  908MOL0     H22549   9.352   1.969   8.772  0.5947 -0.2667  2.1073
  908MOL0     H22550   9.537   2.193   8.669 -1.7897  0.5153  0.5097
  908MOL0     H22551   9.505   2.046   8.596  1.7726  1.4931 -0.7051
  908MOL0     H22552   9.611   2.030   8.880 -0.3704  0.1743 -0.5593
  908MOL0     H22553   9.715   2.082   8.752  1.6508 -2.4778 -0.2196
  908MOL0     H22554   9.633   1.803   8.821 -0.5501  1.2310  1.0939
  908MOL0     H22555   9.627   1.830   8.653 -0.8199  0.5548  0.2189
  908MOL0     H22556   9.879   1.933   8.756  1.9581 -1.1377 -2.7786
  908MOL0     H22557   9.827   1.886   8.606  2.3714 -0.1932 -0.7350
  908MOL0     H22558   9.982   1.703   8.703  0.8453 -2.7898  1.2212
  908MOL0     H22559   9.882   1.686   8.841  3.6396 -0.8168 -0.3275
  908MOL0     H22560   8.913   2.185   8.888  3.9610  0.0684 -2.4260
  908MOL0     H22561   8.778   2.359   9.013 -1.0051 -0.7660 -0.3959
  908MOL0     H22562   8.492   2.717   8.889 -0.3585 -0.1578 -1.4753
  908MOL0     H22563   8.336   2.898   8.970 -1.0090 -0.6214  5.5596
  908MOL0     H22564   8.431   4.085   7.917  0.9220 -0.3887 -1.2925
  908MOL0     H22565   8.333   3.935   7.761  1.1270 -0.3896 -0.6465
  908MOL0     H22566   8.319   3.714   7.493  0.3051 -1.3050  1.6044
  908MOL0     H22567   8.212   3.647   7.302 -1.1829  0.1318  0.9421
  908MOL0     H22568   8.070   3.217   7.211  1.1067 -0.9404  1.1023
  908MOL0     H22569   8.232   3.254   7.175 -0.2162 -0.9115  0.4489
  908MOL0     H22570   8.105   3.234   6.970  1.5393  0.4588  0.5308
  908MOL0     H22571   8.153   3.402   6.968 -1.0393 -1.2446 -1.1541
  908MOL0     H22572   7.879   3.335   7.084 -2.6984 -1.2168 -2.3341
  908MOL0     H22573   7.906   3.312   6.919  1.1940 -0.8060 -0.4314
  908MOL0     H22574   7.939   3.557   7.097 -2.1478 -2.8448  1.8700
  908MOL0     H22575   8.008   3.571   6.929 -2.3864  0.5214 -1.7778
  908MOL0     H22576   7.588   3.543   6.845 -0.2939  0.5823 -0.1917
  908MOL0     H22577   8.252   3.233   7.427 -0.1793 -0.8196 -0.0966
  908MOL0     H22578   8.508   3.275   7.600 -1.5649 -1.0294 -1.4912
  908MOL0     H22579   8.381   3.291   7.725  4.1847  2.5900  1.1520
  908MOL0     H22580   8.373   3.172   7.601  3.0152 -0.9215 -3.1405
  909MOL0     O22581   7.995   6.107   6.522 -0.2916  0.3835 -0.2073
  909MOL0     C22582   7.887   6.101   6.579 -0.6699 -0.1478  0.3990
  909MOL0     O22583   7.816   5.983   6.605 -0.5378  0.7976 -0.3982
  909MOL0     C22584   7.839   5.853   6.568 -0.1021 -0.9498 -0.0757
  909MOL0     C22585   7.934   5.834   6.470 -0.5224  1.1892  0.4906
  909MOL0     C22586   7.955   5.705   6.412 -0.1809  0.2830 -0.2458
  909MOL0     C22587   7.872   5.596   6.444 -0.4750  0.1274 -0.5029
  909MOL0     O22588   7.903   5.476   6.387 -0.2137 -0.3862 -0.5357
  909MOL0     C22589   7.807   5.377   6.374  0.6722 -0.4107  0.7098
  909MOL0     C22590   7.880   5.249   6.337  0.6012  0.1011 -1.4556
  909MOL0     C22591   7.973   5.202   6.445 -0.7194  0.9431 -0.5562
  909MOL0     C22592   8.076   5.100   6.388  1.3753 -0.1652  0.6486
  909MOL0     C22593   8.173   5.056   6.499 -0.2825  0.5536 -0.0457
  909MOL0     C22594   8.280   4.964   6.457 -0.2856  0.5515 -0.8408
  909MOL0     C22595   8.362   4.918   6.572  0.0333 -0.7329  0.2262
  909MOL0     C22596   8.295   4.830   6.681  0.4896  0.2698  0.8663
  909MOL0     N22597   8.396   4.721   6.707 -0.4657  0.1426  0.0076
  909MOL0     C22598   8.409   4.617   6.623 -0.0321  0.1180  0.1315
  909MOL0     C22599   8.504   4.540   6.680  0.9317  0.8122 -0.2886
  909MOL0     C22600   8.549   4.405   6.624  0.4259  0.8033 -0.0897
  909MOL0     C22601   8.675   4.355   6.689  0.4397 -0.6959 -1.5361
  909MOL0     C22602   8.737   4.236   6.613 -0.1381 -0.5581  0.7343
  909MOL0     C22603   8.876   4.204   6.671 -0.2839  0.4984  0.5428
  909MOL0     O22604   8.857   4.155   6.802 -0.0698 -0.2583  0.4672
  909MOL0     C22605   8.965   4.105   6.877  0.1345  0.8091  0.4180
  909MOL0     C22606   8.951   4.094   7.016 -0.5349 -0.1348  0.0931
  909MOL0     C22607   9.047   4.027   7.099  1.0124 -0.6543  0.3030
  909MOL0     C22608   9.170   3.991   7.039 -0.1869 -0.3830  0.3376
  909MOL0     C22609   9.286   3.932   7.113 -0.4208 -0.4226 -0.2613
  909MOL0     O22610   9.258   3.872   7.235  0.6330 -0.2054  0.3940
  909MOL0     C22611   9.356   3.860   7.338  1.1192  0.0279  0.5127
  909MOL0     C22612   9.467   3.783   7.318 -0.5526 -1.0884  0.0574
  909MOL0     C22613   9.572   3.786   7.416  0.0802 -0.3471  0.1998
  909MOL0     C22614   9.558   3.876   7.522 -0.2573  0.0490  0.1118
  909MOL0     O22615   9.650   3.882   7.623 -0.4524  0.0612  0.1796
  909MOL0     C22616   9.784   3.838   7.615 -0.3155  0.0900  0.7378
  909MOL0     C22617   9.841   3.854   7.763 -0.7142  0.5850 -0.3451
  909MOL0     C22618   9.975   3.774   7.771 -0.6486  0.4076 -0.3675
  909MOL0     C22619  10.041   3.813   7.904  1.2585  0.3202  1.2686
  909MOL0     C22620  10.170   3.735   7.920  0.4124 -0.1697  0.4164
  909MOL0     C22621  10.243   3.751   8.055  0.2310  0.7911  0.4397
  909MOL0     C22622  10.144   3.685   8.167 -0.0171 -0.1755 -0.5608
  909MOL0     C22623  10.216   3.644   8.290  0.2364  0.0564  1.1407
  909MOL0    Cl22624  10.373   3.568   8.263 -0.2086 -0.0317  0.1270
  909MOL0     C22625   9.439   3.946   7.549  0.1490  0.7512 -0.4920
  909MOL0     C22626   9.333   3.931   7.455 -1.3074  0.0868 -0.0983
  909MOL0     O22627   9.396   3.957   7.071 -0.7111  0.2203 -0.7720
  909MOL0     C22628   9.187   4.014   6.902 -0.6083  1.5045  0.0776
  909MOL0     C22629   9.092   4.062   6.813  0.5918  0.0944 -0.0740
  909MOL0     N22630   8.538   4.608   6.798  0.2978 -0.3515  0.6704
  909MOL0     N22631   8.487   4.721   6.804  0.3425 -0.5892  1.3908
  909MOL0     C22632   7.766   5.625   6.538  0.2223  0.9618 -0.9249
  909MOL0     C22633   7.747   5.755   6.606  0.0724 -0.2354 -0.0577
  909MOL0     C22634   7.826   6.223   6.629 -1.1974 -0.0277 -0.2165
  909MOL0     C22635   7.714   6.204   6.711 -0.1960 -0.6021  1.1883
  909MOL0     C22636   7.662   6.312   6.784 -0.1129 -0.2291  0.6819
  909MOL0     C22637   7.709   6.442   6.762 -0.6413 -0.1190 -0.0405
  909MOL0     O22638   7.662   6.558   6.824 -0.3195 -0.6707 -0.2457
  909MOL0     C22639   7.567   6.550   6.930 -0.0559  0.4639 -0.1795
  909MOL0     C22640   7.501   6.687   6.979  0.3370  0.0895  0.2672
  909MOL0     C22641   7.435   6.757   6.854 -0.6929  0.2809  0.5043
  909MOL0     C22642   7.401   6.894   6.908  0.8724 -0.6119 -0.1503
  909MOL0     C22643   7.342   6.982   6.801 -0.4311 -0.9337 -0.4457
  909MOL0     C22644   7.284   7.035   6.709 -0.4283  0.5015  0.1366
  909MOL0     C22645   7.820   6.460   6.679  0.5290 -0.0097  0.3832
  909MOL0     C22646   7.880   6.357   6.614 -0.3315  0.1417 -0.0650
  909MOL0     C22647   7.997   6.388   6.519  0.0038  0.0839 -0.4768
  909MOL0     H22648   8.005   5.905   6.429  2.8739 -2.4043 -0.5370
  909MOL0     H22649   8.023   5.697   6.328 -0.9574 -0.0494 -0.8682
  909MOL0     H22650   7.751   5.357   6.466 -2.8764 -1.6787 -1.4949
  909MOL0     H22651   7.739   5.398   6.291 -2.2475 -0.5291  2.8744
  909MOL0     H22652   7.939   5.254   6.245  1.6288  3.0307 -0.7291
  909MOL0     H22653   7.804   5.175   6.308  1.1767 -1.0345 -0.1930
  909MOL0     H22654   7.931   5.160   6.537  0.0179  1.5938  0.0897
  909MOL0     H22655   8.034   5.284   6.483 -2.1133  0.8263  2.1422
  909MOL0     H22656   8.020   5.019   6.341 -0.6726  1.2421  0.5440
  909MOL0     H22657   8.139   5.154   6.316  2.7523  0.2415  2.1053
  909MOL0     H22658   8.228   5.148   6.522 -0.5289  0.2269  2.0594
  909MOL0     H22659   8.114   5.017   6.583  2.7751  0.2456  2.1161
  909MOL0     H22660   8.231   4.877   6.412  0.4037  0.3300 -1.1706
  909MOL0     H22661   8.350   5.014   6.390  1.6675 -0.1687  0.5870
  909MOL0     H22662   8.410   5.000   6.626 -3.4418  1.5284  0.2024
  909MOL0     H22663   8.438   4.857   6.523  1.0263  0.9065 -0.3708
  909MOL0     H22664   8.268   4.871   6.779  5.1968  0.9689  2.1187
  909MOL0     H22665   8.200   4.794   6.642  0.9819  1.2750 -1.4394
  909MOL0     H22666   8.335   4.581   6.551 -0.5266  1.8846 -0.2787
  909MOL0     H22667   8.475   4.325   6.632  0.7680  0.0898 -2.9575
  909MOL0     H22668   8.568   4.415   6.517  0.8658 -0.8814 -0.1929
  909MOL0     H22669   8.738   4.444   6.688 -1.6358  0.8546 -0.6818
  909MOL0     H22670   8.659   4.339   6.796  2.0619  0.8317 -1.0062
  909MOL0     H22671   8.753   4.256   6.507  1.5991  0.5999  1.1874
  909MOL0     H22672   8.674   4.147   6.626  1.3360 -1.7118  0.3192
  909MOL0     H22673   8.937   4.293   6.663  1.8435 -0.8394  1.0656
  909MOL0     H22674   8.925   4.131   6.606 -2.3209  0.6374 -1.2569
  909MOL0     H22675   8.867   4.147   7.060 -0.1636  1.1175 -0.6840
  909MOL0     H22676   9.028   4.017   7.206  1.6072  0.7677  0.5686
  909MOL0     H22677   9.485   3.729   7.225  3.0257 -0.1763  0.0862
  909MOL0     H22678   9.654   3.721   7.387 -0.2834 -0.0532 -1.6285
  909MOL0     H22679   9.802   3.738   7.575  0.2524 -0.6265  2.6633
  909MOL0     H22680   9.837   3.909   7.552  0.8749 -1.6711 -0.3339
  909MOL0     H22681   9.857   3.960   7.782 -1.3011  0.6369 -0.1315
  909MOL0     H22682   9.773   3.819   7.840 -0.1258  0.6116  0.1957
  909MOL0     H22683   9.963   3.666   7.766  1.7300  0.1438 -1.2954
  909MOL0     H22684  10.037   3.807   7.688  2.1432  1.1967  1.8742
  909MOL0     H22685   9.974   3.789   7.987  1.4588 -2.7084  0.6395
  909MOL0     H22686  10.052   3.922   7.899  2.7323  0.1403 -1.6269
  909MOL0     H22687  10.239   3.765   7.841  2.9942 -2.0940  1.7861
  909MOL0     H22688  10.152   3.627   7.919 -0.8897  0.0277  1.0576
  909MOL0     H22689  10.334   3.690   8.049 -1.0699 -1.2382  0.5916
  909MOL0     H22690  10.257   3.859   8.070 -0.7170  0.9500  0.2387
  909MOL0     H22691  10.106   3.589   8.132  3.2189 -2.0334  0.6885
  909MOL0     H22692  10.067   3.757   8.198  1.7044  1.3494  0.3918
  909MOL0     H22693  10.237   3.735   8.347  1.4599  0.6997 -0.2787
  909MOL0     H22694  10.138   3.583   8.335 -2.6029  2.5198 -0.0976
  909MOL0     H22695   9.426   3.999   7.643 -0.1771 -1.9955  1.1187
  909MOL0     H22696   9.243   3.988   7.476  1.8066  4.3422  3.4279
  909MOL0     H22697   9.274   3.976   6.849  1.0375 -0.1751  3.6513
  909MOL0     H22698   9.110   4.064   6.706 -1.6915  3.3188 -0.5265
  909MOL0     H22699   7.701   5.543   6.563  2.6680 -0.6651  0.6008
  909MOL0     H22700   7.659   5.772   6.668  0.6075  2.4025  0.1171
  909MOL0     H22701   7.664   6.110   6.730 -2.1071  0.2903  0.7780
  909MOL0     H22702   7.587   6.280   6.856 -2.2373 -1.6102 -1.9209
  909MOL0     H22703   7.603   6.499   7.020  0.4967 -0.2122 -0.7744
  909MOL0     H22704   7.486   6.497   6.879  0.3617  0.5848 -0.9718
  909MOL0     H22705   7.579   6.747   7.027  0.5993  0.4668 -0.5891
  909MOL0     H22706   7.420   6.685   7.052  1.2670  2.2485  1.4674
  909MOL0     H22707   7.352   6.698   6.814  2.4474 -3.3932 -1.3232
  909MOL0     H22708   7.512   6.771   6.777 -1.1547  0.5390  0.0871
  909MOL0     H22709   7.327   6.881   6.988  1.4783 -1.3143  0.3104
  909MOL0     H22710   7.487   6.946   6.951 -2.1058  3.0982  1.9467
  909MOL0     H22711   7.225   7.076   6.630  3.3643  2.4297 -1.9914
  909MOL0     H22712   7.858   6.558   6.651  0.6569 -0.1529  0.0585
  909MOL0     H22713   8.008   6.496   6.506 -0.5920  0.2190  0.0979
  909MOL0     H22714   8.094   6.351   6.555 -0.6029 -0.5522  0.5579
  909MOL0     H22715   7.992   6.349   6.417  1.3775 -2.7795  0.4420
  910MOL0     O22716  11.399   2.573   7.820 -0.2638  0.2532 -0.3714
  910MOL0     C22717  11.433   2.458   7.854  0.1716 -0.0913 -0.4793
  910MOL0     O22718  11.485   2.367   7.771  0.2952  0.7343 -0.6580
  910MOL0     C22719  11.490   2.379   7.634  0.0488  0.8144  1.2825
  910MOL0     C22720  11.596   2.322   7.558  0.0616  0.1450  0.3081
  910MOL0     C22721  11.600   2.325   7.424 -0.0018 -0.7067  0.2118
  910MOL0     C22722  11.501   2.382   7.348  0.0775 -0.0218 -1.3219
  910MOL0     O22723  11.514   2.390   7.210  0.7579 -0.1203  0.6547
  910MOL0     C22724  11.628   2.341   7.146 -0.8396 -0.0984  0.8261
  910MOL0     C22725  11.615   2.196   7.103  0.3375  0.7441 -0.2863
  910MOL0     C22726  11.751   2.150   7.046  0.3405  0.8304  0.2313
  910MOL0     C22727  11.776   2.208   6.907 -0.7892  0.9026  0.5624
  910MOL0     C22728  11.838   2.099   6.824 -0.1701 -1.2007  0.7553
  910MOL0     C22729  11.974   2.046   6.869 -0.2804  0.1899 -0.1450
  910MOL0     C22730  12.063   1.978   6.759  0.1845 -0.3251  0.2614
  910MOL0     C22731  11.985   1.877   6.669 -0.2891 -0.0168 -0.0854
  910MOL0     N22732  12.087   1.772   6.643 -0.2010  0.0437  0.4399
  910MOL0     C22733  12.066   1.645   6.677  0.0678  0.2295  1.3063
  910MOL0     C22734  12.154   1.572   6.603  0.0288 -0.6057  0.6622
  910MOL0     C22735  12.194   1.429   6.620  0.5385 -0.0179 -0.2104
  910MOL0     C22736  12.085   1.352   6.700  0.6430  0.2329 -0.7316
  910MOL0     C22737  12.147   1.226   6.741  0.1633  0.5267 -0.8198
  910MOL0     C22738  12.039   1.135   6.809 -0.1197  0.4993 -0.1023
  910MOL0     O22739  12.098   1.012   6.864  0.2690  0.2405 -0.0704
  910MOL0     C22740  12.012   0.907   6.886  0.4447 -0.0033 -0.7428
  910MOL0     C22741  12.046   0.775   6.860  1.0879 -0.2784  0.3454
  910MOL0     C22742  11.975   0.665   6.888 -0.4586  1.1701  0.8393
  910MOL0     C22743  11.850   0.681   6.953 -0.2549 -0.3070  0.8237
  910MOL0     C22744  11.760   0.579   6.961 -0.2110 -0.4010  0.2467
  910MOL0     O22745  11.693   0.564   7.077 -0.0172 -0.9551 -0.4806
  910MOL0     C22746  11.636   0.442   7.109  0.0740  0.6069 -0.3813
  910MOL0     C22747  11.627   0.334   7.026 -0.0290 -0.0633  1.8476
  910MOL0     C22748  11.565   0.218   7.065  0.3326 -0.4597  0.4318
  910MOL0     C22749  11.502   0.211   7.192 -0.4448 -0.2833 -0.0081
  910MOL0     O22750  11.425   0.102   7.233 -0.2780  0.1146 -0.5879
  910MOL0     C22751  11.287   0.088   7.180 -0.3476  0.1417  0.7928
  910MOL0     C22752  11.237  -0.056   7.186 -0.0142 -0.2328 -0.5072
  910MOL0     C22753  11.335  -0.159   7.141 -1.2606 -0.6301 -0.0266
  910MOL0     C22754  11.310  -0.186   6.988 -0.1982  0.0075  0.1254
  910MOL0     C22755  11.379  -0.310   6.934  0.2244  1.3625  0.3781
  910MOL0     C22756  11.518  -0.356   6.988 -0.5424  1.3129 -0.4237
  910MOL0     C22757  11.533  -0.502   7.024  0.3723 -0.1830 -0.7419
  910MOL0     C22758  11.666  -0.566   7.005  0.1932 -0.1020  0.2961
  910MOL0    Cl22759  11.672  -0.716   7.095 -0.0729 -0.4653 -0.1830
  910MOL0     C22760  11.532   0.315   7.286 -0.8038 -0.1045  0.3877
  910MOL0     C22761  11.589   0.437   7.242  0.1040  0.7798 -0.3069
  910MOL0     O22762  11.722   0.535   6.851 -0.1024 -0.0455  0.2028
  910MOL0     C22763  11.810   0.814   6.993 -0.6836 -0.2244 -0.4176
  910MOL0     C22764  11.882   0.926   6.950 -0.6089  0.0036  0.2058
  910MOL0     N22765  12.219   1.658   6.514 -0.4574  0.1061 -0.1074
  910MOL0     N22766  12.185   1.778   6.535  0.7119 -0.4927 -1.0673
  910MOL0     C22767  11.392   2.435   7.421 -0.2374 -0.1249  1.0056
  910MOL0     C22768  11.380   2.432   7.560 -0.7370 -0.3616  0.2676
  910MOL0     C22769  11.391   2.419   7.998 -0.5036 -0.1187  0.4107
  910MOL0     C22770  11.388   2.528   8.084  0.6239 -0.8358 -0.6652
  910MOL0     C22771  11.358   2.504   8.216 -0.1612  0.6858  0.6257
  910MOL0     C22772  11.324   2.372   8.261  0.6559  0.0613 -0.5135
  910MOL0     O22773  11.275   2.336   8.383 -0.5626  0.1130 -0.5359
  910MOL0     C22774  11.323   2.424   8.490  0.1127 -0.5128 -0.0817
  910MOL0     C22775  11.296   2.352   8.624 -0.4211 -0.6125  0.1588
  910MOL0     C22776  11.332   2.440   8.751 -0.0339  0.1106  0.4090
  910MOL0     C22777  11.280   2.585   8.760  0.2272 -0.8052  0.2209
  910MOL0     C22778  11.341   2.693   8.679 -0.0630  0.6416  0.7377
  910MOL0     C22779  11.395   2.774   8.614  0.0035  0.5259 -0.7989
  910MOL0     C22780  11.312   2.276   8.169 -0.4281 -0.2625  0.2885
  910MOL0     C22781  11.359   2.282   8.043 -0.5774 -0.3863  0.4511
  910MOL0     C22782  11.341   2.168   7.947  0.1921 -1.1477  0.0500
  910MOL0     H22783  11.671   2.259   7.604 -0.5442  0.2435  1.4725
  910MOL0     H22784  11.681   2.265   7.384  0.6105  0.7399 -0.7844
  910MOL0     H22785  11.647   2.404   7.058 -1.7585 -0.8460  0.0710
  910MOL0     H22786  11.715   2.345   7.213 -1.3668 -1.7003  1.6667
  910MOL0     H22787  11.542   2.188   7.021 -0.1742  1.0075  0.1320
  910MOL0     H22788  11.576   2.134   7.184  0.7422  1.3576  0.3924
  910MOL0     H22789  11.741   2.042   7.033 -0.9152  0.9836 -0.3116
  910MOL0     H22790  11.824   2.183   7.120 -2.1033  1.3726  2.5471
  910MOL0     H22791  11.683   2.255   6.874 -0.3001  1.1832 -0.4695
  910MOL0     H22792  11.844   2.289   6.939  0.6277 -0.0222 -0.0226
  910MOL0     H22793  11.764   2.021   6.802 -3.3499  1.0267  2.6745
  910MOL0     H22794  11.840   2.159   6.733 -0.6319 -1.3406  0.6515
  910MOL0     H22795  12.033   2.127   6.912  0.2666 -1.1439  1.7633
  910MOL0     H22796  11.953   1.981   6.954 -1.3791 -0.5632 -0.9654
  910MOL0     H22797  12.146   1.942   6.820 -3.1848 -3.3190  3.6084
  910MOL0     H22798  12.105   2.056   6.695  1.5869 -0.9933  0.3185
  910MOL0     H22799  11.913   1.842   6.743 -0.4141  1.2761  0.4307
  910MOL0     H22800  11.936   1.916   6.579  0.7473 -0.8011 -1.0267
  910MOL0     H22801  12.005   1.598   6.754 -0.6596 -0.9636  0.0445
  910MOL0     H22802  12.225   1.373   6.532  0.8955  0.2280 -0.2446
  910MOL0     H22803  12.286   1.431   6.680 -1.3763 -2.1047  3.1246
  910MOL0     H22804  12.057   1.403   6.793 -0.5222 -2.4272  0.5173
  910MOL0     H22805  11.982   1.339   6.665 -1.1154 -0.2774  3.8192
  910MOL0     H22806  12.225   1.252   6.813 -0.8005  2.1145 -0.2965
  910MOL0     H22807  12.191   1.167   6.660  3.1944 -2.1520  2.4737
  910MOL0     H22808  11.957   1.105   6.742  0.4775  0.7193 -0.9503
  910MOL0     H22809  12.000   1.186   6.898  0.3922  0.4059  0.1798
  910MOL0     H22810  12.143   0.750   6.817 -0.2296 -5.2906 -0.3898
  910MOL0     H22811  12.018   0.567   6.871 -0.7666  0.8030  2.0439
  910MOL0     H22812  11.667   0.326   6.925 -3.8519 -1.9570  0.2808
  910MOL0     H22813  11.563   0.135   6.995 -0.4174  2.4289 -3.2823
  910MOL0     H22814  11.221   0.161   7.227 -1.2267 -0.5854  0.7166
  910MOL0     H22815  11.286   0.115   7.074  0.5468 -0.3317  0.6573
  910MOL0     H22816  11.207  -0.069   7.290 -0.3858  0.3359 -0.5425
  910MOL0     H22817  11.136  -0.069   7.146  0.3238 -0.0008 -1.4674
  910MOL0     H22818  11.433  -0.116   7.159 -0.6696 -0.9127 -2.3198
  910MOL0     H22819  11.316  -0.244   7.207  0.1734  0.0209  1.2888
  910MOL0     H22820  11.347  -0.102   6.927 -1.1713  0.5654  0.2887
  910MOL0     H22821  11.204  -0.191   6.964 -0.5246 -1.4748  1.7471
  910MOL0     H22822  11.388  -0.300   6.825  0.3095  3.2832  0.5307
  910MOL0     H22823  11.312  -0.396   6.940 -0.4316  1.8141 -0.2395
  910MOL0     H22824  11.576  -0.334   6.898  0.6621 -1.4904 -0.4579
  910MOL0     H22825  11.565  -0.296   7.066  0.3576  0.3249 -0.1831
  910MOL0     H22826  11.473  -0.540   6.941 -1.6141 -0.5261  0.7684
  910MOL0     H22827  11.496  -0.512   7.127  0.6792  0.4761 -0.5613
  910MOL0     H22828  11.702  -0.569   6.902 -1.4494  1.1967 -0.3585
  910MOL0     H22829  11.741  -0.497   7.045  1.3929 -0.5260 -1.1313
  910MOL0     H22830  11.498   0.306   7.389  2.8451  1.1405  1.8604
  910MOL0     H22831  11.607   0.524   7.304 -1.9325 -0.1499  1.7125
  910MOL0     H22832  11.710   0.827   7.033 -1.5158 -0.9280 -2.1430
  910MOL0     H22833  11.847   1.026   6.977  0.1614  1.1259 -2.5703
  910MOL0     H22834  11.319   2.493   7.365 -1.0318  0.8542  2.9707
  910MOL0     H22835  11.287   2.469   7.602 -1.9824 -2.4954 -0.4664
  910MOL0     H22836  11.399   2.636   8.083  1.3873 -0.9127 -0.7697
  910MOL0     H22837  11.357   2.593   8.278  1.0803  2.5896 -1.8770
  910MOL0     H22838  11.276   2.522   8.476  1.4127  0.0433 -0.6672
  910MOL0     H22839  11.430   2.444   8.485  0.2071 -1.1904 -1.0034
  910MOL0     H22840  11.353   2.259   8.626  3.5377  1.5706  2.3404
  910MOL0     H22841  11.189   2.339   8.644 -0.7313  1.7654  0.3753
  910MOL0     H22842  11.442   2.445   8.749  0.0845  2.4197 -5.0074
  910MOL0     H22843  11.295   2.380   8.835 -1.2146  2.0333  1.3216
  910MOL0     H22844  11.173   2.573   8.745  0.8872 -5.7530 -2.3738
  910MOL0     H22845  11.294   2.629   8.860 -0.5845 -0.8556  0.3647
  910MOL0     H22846  11.446   2.852   8.561  0.3424  0.1242 -1.0741
  910MOL0     H22847  11.283   2.175   8.197  4.8495 -2.0501  0.4933
  910MOL0     H22848  11.256   2.196   7.884 -0.4293  0.6623  1.5822
  910MOL0     H22849  11.435   2.139   7.899  3.1088 -0.0830  4.4926
  910MOL0     H22850  11.314   2.075   7.997  0.5089 -0.7921  0.8998
  911MOL0     O22851   0.221   3.534  10.023 -0.6230 -0.6886 -1.0190
  911MOL0     C22852   0.132   3.596  10.076 -0.5466 -0.2896 -0.7441
  911MOL0     O22853   0.115   3.728  10.086  0.1592  0.9047 -0.1672
  911MOL0     C22854   0.221   3.805  10.049 -0.0203  0.6760  0.2964
  911MOL0     C22855   0.187   3.918   9.975 -0.4471  0.0442  0.2409
  911MOL0     C22856   0.284   4.020   9.935 -0.0368 -0.2601  0.2653
  911MOL0     C22857   0.419   3.999   9.974  0.8998 -0.6970 -0.2751
  911MOL0     O22858   0.513   4.094   9.958  0.0706 -0.3187 -0.0337
  911MOL0     C22859   0.491   4.191   9.855 -0.0929 -0.6275 -0.0829
  911MOL0     C22860   0.610   4.289   9.843  0.3360  1.4108  0.3733
  911MOL0     C22861   0.622   4.367   9.977  0.0597 -0.8015  0.5814
  911MOL0     C22862   0.705   4.492   9.969  0.1010  0.4189  0.4752
  911MOL0     C22863   0.708   4.561  10.104 -0.9490 -0.6043  0.4720
  911MOL0     C22864   0.776   4.703  10.067  0.0741 -0.8367  1.2917
  911MOL0     C22865   0.682   4.800  10.000  0.2166  0.0648  0.1696
  911MOL0     C22866   0.534   4.816  10.044  1.0974  0.6273  0.8193
  911MOL0     N22867   0.513   4.865  10.180 -0.2700  0.8282 -0.5581
  911MOL0     C22868   0.448   4.804  10.292  0.6053  0.1120 -0.1223
  911MOL0     C22869   0.420   4.912  10.380  0.0840  0.3239  0.4851
  911MOL0     C22870   0.345   4.918  10.516 -0.9280 -1.0037 -0.4866
  911MOL0     C22871   0.431   4.938  10.633  0.1199 -1.2085 -0.4856
  911MOL0     C22872   0.514   4.818  10.665  0.4836  0.3676  0.4277
  911MOL0     C22873   0.662   4.812  10.615  0.1019 -0.1538  0.4932
  911MOL0     O22874   0.732   4.716  10.702 -0.2013  0.1312 -0.4872
  911MOL0     C22875   0.867   4.711  10.669  0.2127 -0.0075 -0.0661
  911MOL0     C22876   0.906   4.704  10.538 -0.8586 -0.5051 -0.7313
  911MOL0     C22877   1.041   4.717  10.507  0.2138  0.1833 -0.2769
  911MOL0     C22878   1.141   4.741  10.607  0.8411 -0.4034  0.5751
  911MOL0     C22879   1.277   4.777  10.573 -1.1821 -0.3114 -0.6051
  911MOL0     O22880   1.376   4.732  10.672  0.0370 -0.1612 -0.5750
  911MOL0     C22881   1.507   4.728  10.626 -0.0038  0.4966  0.2966
  911MOL0     C22882   1.544   4.693  10.495 -0.5513  0.1776 -0.2346
  911MOL0     C22883   1.674   4.723  10.443 -0.2386 -0.1435 -0.5549
  911MOL0     C22884   1.768   4.783  10.528 -0.2132  0.6159 -0.6951
  911MOL0     O22885   1.887   4.813  10.467  0.5611 -0.5315  0.1276
  911MOL0     C22886   1.984   4.859  10.548  0.5002 -0.5333 -0.5264
  911MOL0     C22887   2.098   4.899  10.452  0.5459  0.0573  0.1137
  911MOL0     C22888   2.214   4.953  10.539 -0.6490 -0.5902 -0.7505
  911MOL0     C22889   2.322   5.018  10.452 -0.4759 -0.5724  1.1195
  911MOL0     C22890   2.432   5.083  10.539  0.2187  0.0974 -0.3568
  911MOL0     C22891   2.524   4.996  10.615  0.0030  0.6288  1.0768
  911MOL0     C22892   2.659   5.066  10.622 -0.3181 -0.2002 -0.0174
  911MOL0     C22893   2.750   5.015  10.508  0.4435  0.2998  0.2451
  911MOL0    Cl22894   2.910   5.079  10.494  0.0345  0.1887 -0.6709
  911MOL0     C22895   1.734   4.799  10.666  0.0481  0.2829 -0.2609
  911MOL0     C22896   1.607   4.784  10.711 -0.1444  0.2438 -0.2575
  911MOL0     O22897   1.308   4.838  10.475  0.0692  0.0989  0.1760
  911MOL0     C22898   1.094   4.734  10.738  0.0436  0.0660  0.0300
  911MOL0     C22899   0.958   4.720  10.775  0.1384 -0.2795 -0.0318
  911MOL0     N22900   0.480   5.028  10.322  0.4563 -0.1660 -0.1474
  911MOL0     N22901   0.531   5.000  10.205 -0.3681 -0.2554 -0.8130
  911MOL0     C22902   0.443   3.890  10.056  0.8488 -0.1886 -0.3980
  911MOL0     C22903   0.356   3.791  10.091 -0.0575 -0.4659  1.0490
  911MOL0     C22904   0.027   3.500  10.129  0.3825  0.2570 -0.2510
  911MOL0     C22905   0.067   3.373  10.157 -0.1170 -1.0299 -0.1881
  911MOL0     C22906  -0.013   3.281  10.214  0.1727 -0.2524 -0.2551
  911MOL0     C22907  -0.147   3.296  10.225 -0.5076 -0.3181  0.0092
  911MOL0     O22908  -0.231   3.192  10.269 -0.5046 -0.2387 -0.0028
  911MOL0     C22909  -0.338   3.226  10.367 -0.6787  0.0556  0.0514
  911MOL0     C22910  -0.325   3.132  10.488 -0.1401 -0.5642  0.7588
  911MOL0     C22911  -0.461   3.085  10.551  0.8947 -0.1508  0.4480
  911MOL0     C22912  -0.535   3.205  10.602  0.6081 -0.1832 -0.1230
  911MOL0     C22913  -0.662   3.170  10.679 -0.7644  0.1806  0.2965
  911MOL0     C22914  -0.771   3.143  10.727 -0.1614 -0.9059  0.3729
  911MOL0     C22915  -0.195   3.433  10.202 -0.3731 -0.6701 -0.5050
  911MOL0     C22916  -0.110   3.540  10.164  0.3527  0.5345 -0.1199
  911MOL0     C22917  -0.176   3.676  10.130 -0.3204  0.1672 -0.4456
  911MOL0     H22918   0.080   3.912   9.962 -0.3450  0.0500 -0.6737
  911MOL0     H22919   0.250   4.100   9.870  1.2678  1.5482  1.7017
  911MOL0     H22920   0.473   4.144   9.758 -1.8139 -0.9088  0.3498
  911MOL0     H22921   0.403   4.246   9.890 -0.6942 -2.5901  1.6676
  911MOL0     H22922   0.591   4.352   9.756  2.0777 -0.4007 -1.4365
  911MOL0     H22923   0.702   4.232   9.829 -2.1328 -2.7755 -0.5189
  911MOL0     H22924   0.661   4.299  10.054 -1.7419 -2.5052  0.0712
  911MOL0     H22925   0.521   4.395  10.008 -0.1439 -0.5998 -0.2524
  911MOL0     H22926   0.808   4.460   9.951  0.3766 -0.0216  2.5311
  911MOL0     H22927   0.685   4.560   9.886  2.9190  2.5839  1.4203
  911MOL0     H22928   0.611   4.573  10.152  1.6638  2.0458  6.1266
  911MOL0     H22929   0.772   4.504  10.172  0.9292  3.2320  2.2713
  911MOL0     H22930   0.808   4.754  10.158 -2.4230  0.8109  1.3399
  911MOL0     H22931   0.862   4.693  10.000 -0.9711  4.1665 -1.2608
  911MOL0     H22932   0.680   4.801   9.890 -1.3879  1.1911  0.1708
  911MOL0     H22933   0.729   4.897  10.021  0.1619 -0.1473  1.3125
  911MOL0     H22934   0.485   4.885   9.974  0.9312 -0.2376  0.0621
  911MOL0     H22935   0.478   4.724  10.023  1.8081 -0.3380  2.8914
  911MOL0     H22936   0.426   4.698  10.291 -1.6020  0.5044  0.8157
  911MOL0     H22937   0.281   5.007  10.521 -2.7435 -2.3164  1.1867
  911MOL0     H22938   0.271   4.838  10.524 -0.7849 -1.0003  1.1757
  911MOL0     H22939   0.490   5.030  10.622 -1.1944 -0.2724  0.0457
  911MOL0     H22940   0.367   4.960  10.719  0.7303 -1.0140 -0.0756
  911MOL0     H22941   0.462   4.727  10.634  1.2516 -0.7311  2.2018
  911MOL0     H22942   0.519   4.811  10.774 -1.7621  2.3363  0.7532
  911MOL0     H22943   0.700   4.914  10.625 -1.4104  0.8253 -2.5772
  911MOL0     H22944   0.655   4.779  10.511 -2.2802 -0.0279  0.5576
  911MOL0     H22945   0.839   4.686  10.455 -2.1836 -4.8403  1.0059
  911MOL0     H22946   1.076   4.711  10.404  1.3810  1.7257 -0.0126
  911MOL0     H22947   1.481   4.635  10.429  0.6433 -0.3576 -0.9299
  911MOL0     H22948   1.689   4.707  10.337 -4.1523 -0.2594 -1.2354
  911MOL0     H22949   1.942   4.946  10.600  1.3238  1.6692 -3.2601
  911MOL0     H22950   2.023   4.783  10.616  0.5658  0.8751  1.0866
  911MOL0     H22951   2.133   4.811  10.398  0.6594 -0.7224  1.4223
  911MOL0     H22952   2.051   4.975  10.388 -0.1725 -0.8290 -0.4259
  911MOL0     H22953   2.180   5.024  10.615  1.6676 -0.9285  0.7170
  911MOL0     H22954   2.258   4.865  10.587 -1.7188 -0.5956  0.2948
  911MOL0     H22955   2.280   5.087  10.379 -1.4625 -0.5695  1.6693
  911MOL0     H22956   2.369   4.938  10.393 -0.1902 -2.1238  3.3165
  911MOL0     H22957   2.387   5.153  10.610 -2.6949 -1.3138 -0.6402
  911MOL0     H22958   2.493   5.135  10.465 -0.5552  1.4513 -0.0817
  911MOL0     H22959   2.491   4.974  10.717 -2.4411 -2.7950 -0.2687
  911MOL0     H22960   2.523   4.892  10.581  4.2210  0.9452 -0.6361
  911MOL0     H22961   2.710   5.041  10.715  0.5132 -3.1318 -1.1275
  911MOL0     H22962   2.651   5.174  10.609  0.7154 -0.1835 -0.6849
  911MOL0     H22963   2.753   4.906  10.519 -3.3158  0.1501  1.0057
  911MOL0     H22964   2.700   5.050  10.417 -0.8771  1.1020  1.2350
  911MOL0     H22965   1.805   4.851  10.730  0.8675  2.3599 -2.6932
  911MOL0     H22966   1.577   4.823  10.808  3.6385  2.5495  0.2162
  911MOL0     H22967   1.155   4.766  10.822 -1.7408  0.0784  1.3890
  911MOL0     H22968   0.935   4.735  10.880  0.6449  1.0745 -0.1003
  911MOL0     H22969   0.542   3.871  10.095  0.3089 -0.2468  0.9875
  911MOL0     H22970   0.383   3.709  10.157  0.1022 -1.0379  0.2838
  911MOL0     H22971   0.164   3.330  10.133 -1.5066 -1.9862 -5.2353
  911MOL0     H22972   0.028   3.185  10.246 -3.4094 -1.3580  1.5766
  911MOL0     H22973  -0.432   3.217  10.313  0.8955 -0.5259 -2.8354
  911MOL0     H22974  -0.335   3.330  10.402  3.9750  0.5544 -1.1371
  911MOL0     H22975  -0.268   3.182  10.566  1.8680 -0.0745 -0.9136
  911MOL0     H22976  -0.271   3.039  10.466  0.6740  0.2627 -0.9136
  911MOL0     H22977  -0.433   3.020  10.635  0.9244 -1.1239 -0.3015
  911MOL0     H22978  -0.530   3.038  10.481  1.9329 -2.6753  1.0134
  911MOL0     H22979  -0.470   3.271  10.659  1.6452 -2.8390  2.0100
  911MOL0     H22980  -0.559   3.263  10.512  3.4486 -1.2854 -1.7448
  911MOL0     H22981  -0.865   3.123  10.773 -2.0959 -0.6513 -3.0708
  911MOL0     H22982  -0.301   3.443  10.225  0.6318  1.4125  4.2647
  911MOL0     H22983  -0.146   3.757  10.197  2.4692 -1.1223 -0.0026
  911MOL0     H22984  -0.130   3.699  10.033 -0.3073 -2.2444 -1.0712
  911MOL0     H22985  -0.282   3.652  10.119 -0.9959  0.4057  3.8011
  912MOL0     O22986   3.823   1.740   4.483  0.1539  0.3737  0.2297
  912MOL0     C22987   3.816   1.705   4.601  0.1037 -0.8853  0.1272
  912MOL0     O22988   3.897   1.610   4.662 -0.1049 -0.0935 -0.4815
  912MOL0     C22989   3.990   1.546   4.586  0.0585 -0.0949  0.1570
  912MOL0     C22990   4.128   1.564   4.608 -0.8302 -0.1372  0.1667
  912MOL0     C22991   4.220   1.487   4.538 -0.6770  0.3897  0.7658
  912MOL0     C22992   4.175   1.385   4.451 -1.4887  0.6172 -0.2545
  912MOL0     O22993   4.258   1.305   4.383 -0.3755  0.2139  0.6315
  912MOL0     C22994   4.391   1.358   4.347  0.3538 -0.3791  0.3808
  912MOL0     C22995   4.492   1.281   4.408  0.2859 -0.2177 -0.4905
  912MOL0     C22996   4.514   1.312   4.560  0.3072 -0.8722  0.1504
  912MOL0     C22997   4.624   1.230   4.624  0.1761 -0.4543  0.1540
  912MOL0     C22998   4.595   1.078   4.625  0.1131 -0.1165 -0.6093
  912MOL0     C22999   4.675   0.999   4.726  0.7536 -0.1122 -0.6763
  912MOL0     C23000   4.809   0.955   4.676  0.2836  0.1183 -0.1202
  912MOL0     C23001   4.878   0.849   4.763 -0.5081  0.0054 -0.2722
  912MOL0     N23002   4.795   0.729   4.785 -0.4027 -0.6746  0.4115
  912MOL0     C23003   4.719   0.663   4.692 -0.7967 -0.0861 -0.4920
  912MOL0     C23004   4.674   0.552   4.754  0.2892 -0.4248 -1.4742
  912MOL0     C23005   4.597   0.434   4.696 -0.4656 -0.3514  0.6046
  912MOL0     C23006   4.705   0.317   4.706  0.5147 -0.0374  0.4611
  912MOL0     C23007   4.670   0.216   4.597  0.4535 -0.0853  1.0395
  912MOL0     C23008   4.573   0.106   4.636  0.6309  0.4365 -0.0864
  912MOL0     O23009   4.434   0.140   4.619  0.1736 -0.2700 -0.2592
  912MOL0     C23010   4.331   0.050   4.636  0.0473  0.2531  0.4591
  912MOL0     C23011   4.353  -0.087   4.646  0.4601  0.9106  0.2367
  912MOL0     C23012   4.261  -0.178   4.684  0.5430  0.9454  0.4164
  912MOL0     C23013   4.132  -0.138   4.707  0.7675  0.1149  0.1054
  912MOL0     C23014   4.018  -0.242   4.711 -0.0266  0.4868  0.2811
  912MOL0     O23015   4.062  -0.374   4.734 -0.6042  0.3948  0.8758
  912MOL0     C23016   3.985  -0.463   4.802 -0.0666 -0.5253  0.0200
  912MOL0     C23017   4.045  -0.587   4.816  0.2822  0.5760  0.3447
  912MOL0     C23018   3.994  -0.693   4.889  0.0617 -0.0703  0.0727
  912MOL0     C23019   3.868  -0.684   4.938 -0.3487 -0.7012 -0.3704
  912MOL0     O23020   3.825  -0.794   5.002 -0.3124  0.0876 -0.0100
  912MOL0     C23021   3.680  -0.799   5.014 -0.2887  0.0787  0.6008
  912MOL0     C23022   3.640  -0.739   5.148  0.4765  0.5287  0.1477
  912MOL0     C23023   3.487  -0.742   5.170  0.6001  0.7400 -0.7686
  912MOL0     C23024   3.449  -0.724   5.324  0.7099 -0.4420  0.1413
  912MOL0     C23025   3.297  -0.755   5.360  0.6879 -0.0364 -0.1984
  912MOL0     C23026   3.202  -0.677   5.276  0.4763  0.2398 -0.5350
  912MOL0     C23027   3.061  -0.687   5.341  0.2311 -0.0731 -0.6167
  912MOL0     C23028   2.996  -0.822   5.319 -0.1967  0.5514  0.8984
  912MOL0    Cl23029   2.999  -0.895   5.154  0.1203 -0.3018 -0.8636
  912MOL0     C23030   3.799  -0.566   4.927 -0.5240  0.0884  1.2497
  912MOL0     C23031   3.855  -0.459   4.856 -0.5522  0.0836  0.4563
  912MOL0     O23032   3.902  -0.212   4.701 -0.2779 -0.6677  0.0265
  912MOL0     C23033   4.095  -0.006   4.699  0.4810 -0.6739  1.2381
  912MOL0     C23034   4.199   0.088   4.661 -0.2984  0.1804 -0.0548
  912MOL0     N23035   4.710   0.554   4.887 -0.2588 -0.8815  0.2181
  912MOL0     N23036   4.791   0.660   4.899 -1.1343  0.1935 -0.3598
  912MOL0     C23037   4.034   1.363   4.435  0.2165 -0.1280  0.0832
  912MOL0     C23038   3.947   1.442   4.499  0.1090  0.3245 -0.1768
  912MOL0     C23039   3.711   1.775   4.678  0.1587 -0.7315  0.1993
  912MOL0     C23040   3.591   1.808   4.611  0.2515 -0.6684 -0.1286
  912MOL0     C23041   3.491   1.888   4.662 -0.1594  0.0887 -0.1934
  912MOL0     C23042   3.505   1.923   4.799  0.0793 -0.0049 -0.9047
  912MOL0     O23043   3.407   1.999   4.871  0.0060  0.8450 -0.0145
  912MOL0     C23044   3.290   2.044   4.791 -0.4036  0.0600 -0.0089
  912MOL0     C23045   3.239   2.160   4.878 -0.0849  0.3396 -0.2266
  912MOL0     C23046   3.335   2.282   4.890 -0.3731  0.5188 -0.4793
  912MOL0     C23047   3.277   2.397   4.972 -0.9520  1.2465  0.1175
  912MOL0     C23048   3.352   2.518   4.969  0.3736  0.3031 -0.9285
  912MOL0     C23049   3.409   2.622   4.976 -1.2275  0.7362 -0.4375
  912MOL0     C23050   3.610   1.875   4.875 -0.7323  0.3385  1.0021
  912MOL0     C23051   3.727   1.801   4.816  0.5139 -0.1145 -0.7309
  912MOL0     C23052   3.855   1.800   4.901 -0.1984 -0.4202  1.1864
  912MOL0     H23053   4.157   1.630   4.689 -0.0332  0.8581 -0.9131
  912MOL0     H23054   4.323   1.496   4.572 -0.9901 -1.5504  2.3913
  912MOL0     H23055   4.403   1.351   4.238  2.6530  1.0812  0.4762
  912MOL0     H23056   4.402   1.464   4.367  1.7430 -0.4739  0.1958
  912MOL0     H23057   4.590   1.297   4.361  1.3649 -2.3947  0.8239
  912MOL0     H23058   4.471   1.174   4.403 -2.7821  0.2932 -0.3217
  912MOL0     H23059   4.423   1.278   4.610  1.0057  1.0541  2.9356
  912MOL0     H23060   4.530   1.418   4.581 -0.4754 -0.7184 -0.0056
  912MOL0     H23061   4.713   1.265   4.571  0.6818  3.3694  3.0792
  912MOL0     H23062   4.636   1.257   4.729 -1.6282  2.5192 -0.3130
  912MOL0     H23063   4.494   1.062   4.665  1.2914 -0.1639  2.6052
  912MOL0     H23064   4.590   1.027   4.528  1.9033 -1.6614  0.0542
  912MOL0     H23065   4.685   1.059   4.817  2.5231 -0.4108 -0.6309
  912MOL0     H23066   4.624   0.909   4.763 -0.7393  0.1308 -2.0616
  912MOL0     H23067   4.877   1.040   4.675  0.6557 -0.1799 -0.8851
  912MOL0     H23068   4.794   0.905   4.580  1.7658 -2.8814  1.0532
  912MOL0     H23069   4.956   0.803   4.700 -0.3996 -0.3481  0.1156
  912MOL0     H23070   4.918   0.885   4.858 -0.7838 -1.5333  0.4643
  912MOL0     H23071   4.698   0.681   4.587 -0.0890 -3.7203 -1.4078
  912MOL0     H23072   4.510   0.423   4.761 -1.2455  0.3750 -0.2789
  912MOL0     H23073   4.568   0.460   4.593  2.5505  3.9082  0.5296
  912MOL0     H23074   4.804   0.358   4.684  1.5173 -2.1618  0.7860
  912MOL0     H23075   4.693   0.278   4.807 -1.5326 -0.1930  0.2036
  912MOL0     H23076   4.764   0.165   4.576 -0.7534 -2.4023  0.9044
  912MOL0     H23077   4.637   0.259   4.502 -1.0189 -1.3634  0.9268
  912MOL0     H23078   4.590   0.091   4.743 -0.1017  1.9927  0.2787
  912MOL0     H23079   4.584   0.013   4.578  0.0634  0.2150  0.1569
  912MOL0     H23080   4.444  -0.128   4.604  0.8081  1.5187  0.3937
  912MOL0     H23081   4.286  -0.284   4.677 -2.0082  0.0499  2.9953
  912MOL0     H23082   4.144  -0.595   4.772 -0.2302 -0.2867 -0.6907
  912MOL0     H23083   4.054  -0.782   4.909 -1.0342 -0.5458  1.4174
  912MOL0     H23084   3.629  -0.763   4.925  2.5688  0.1316 -1.1426
  912MOL0     H23085   3.655  -0.905   5.023  0.9334 -0.2861 -0.0361
  912MOL0     H23086   3.685  -0.794   5.231 -3.1592 -2.5042  0.3554
  912MOL0     H23087   3.659  -0.631   5.150  0.9652  0.5139 -1.6838
  912MOL0     H23088   3.444  -0.660   5.112  1.0014  0.1566 -1.9338
  912MOL0     H23089   3.458  -0.837   5.124  0.0554  0.3606  0.3191
  912MOL0     H23090   3.469  -0.618   5.344  0.7832 -0.6382  1.1716
  912MOL0     H23091   3.513  -0.789   5.383  0.0349 -1.5083 -0.2728
  912MOL0     H23092   3.284  -0.719   5.462  1.8024  3.6756 -1.1916
  912MOL0     H23093   3.266  -0.860   5.355 -0.9338  0.2536  2.1629
  912MOL0     H23094   3.230  -0.572   5.273 -0.5058  0.8552  3.9076
  912MOL0     H23095   3.204  -0.712   5.173 -1.4455 -1.9524  0.0774
  912MOL0     H23096   3.002  -0.612   5.288 -1.6186 -1.1123 -0.1162
  912MOL0     H23097   3.061  -0.665   5.448  3.5653 -2.7646  0.1313
  912MOL0     H23098   3.040  -0.900   5.382 -0.4386 -1.7046 -1.5515
  912MOL0     H23099   2.890  -0.808   5.341  0.1797 -0.5221  3.8370
  912MOL0     H23100   3.701  -0.555   4.973 -0.6703  1.0144  0.7462
  912MOL0     H23101   3.797  -0.368   4.855 -0.8911 -0.1028  1.5243
  912MOL0     H23102   3.990   0.017   4.715 -0.5336 -2.0649 -2.5531
  912MOL0     H23103   4.170   0.192   4.660 -0.7178  0.0649 -0.5673
  912MOL0     H23104   4.003   1.297   4.355  0.0916  0.1610 -0.1086
  912MOL0     H23105   3.841   1.425   4.482  0.0041  2.7875 -2.6980
  912MOL0     H23106   3.575   1.765   4.513 -0.2284 -0.2561 -0.2317
  912MOL0     H23107   3.405   1.921   4.606 -0.3397 -1.2730 -0.7478
  912MOL0     H23108   3.210   1.971   4.775 -1.4529  1.5921 -2.3994
  912MOL0     H23109   3.314   2.088   4.693  0.6712  1.3797  0.8067
  912MOL0     H23110   3.226   2.117   4.978 -0.4458  0.1084 -0.3702
  912MOL0     H23111   3.141   2.197   4.844  1.1718  3.4362 -0.8550
  912MOL0     H23112   3.352   2.325   4.791  2.3203  1.0689  0.1496
  912MOL0     H23113   3.426   2.260   4.946 -0.9191  1.7544  0.9594
  912MOL0     H23114   3.177   2.416   4.934 -0.7816  1.0101 -0.4601
  912MOL0     H23115   3.263   2.375   5.079 -1.5365  0.4258 -0.1214
  912MOL0     H23116   3.471   2.709   4.965  2.3700 -1.7513 -1.3899
  912MOL0     H23117   3.610   1.900   4.981  2.1806  1.3118  0.8634
  912MOL0     H23118   3.926   1.851   4.836  0.4938 -1.7260  0.8735
  912MOL0     H23119   3.836   1.856   4.993  3.2747 -0.3749  2.0072
  912MOL0     H23120   3.908   1.705   4.912 -1.8284 -2.0147 -2.6996
  913MOL0     O23121  10.449   5.606   0.977 -0.3540  0.2988 -0.4894
  913MOL0     C23122  10.360   5.598   0.893 -0.6696  0.3620 -0.0124
  913MOL0     O23123  10.382   5.595   0.753  0.3925 -0.3897  0.0213
  913MOL0     C23124  10.515   5.615   0.719 -0.2673  0.3160  0.2748
  913MOL0     C23125  10.553   5.738   0.654  0.2825  0.2850  0.4917
  913MOL0     C23126  10.680   5.762   0.601 -0.2485  0.5472 -0.2782
  913MOL0     C23127  10.775   5.661   0.614 -0.4347  0.9873 -0.5596
  913MOL0     O23128  10.905   5.689   0.573  0.3608 -0.4240 -0.0409
  913MOL0     C23129  10.968   5.818   0.570  1.3446  0.7514  0.2494
  913MOL0     C23130  10.979   5.876   0.423 -0.4238  0.1841 -0.4813
  913MOL0     C23131  11.045   5.769   0.336  1.4564  0.2854 -0.3771
  913MOL0     C23132  11.063   5.810   0.186  0.0484  0.1741 -0.8742
  913MOL0     C23133  11.183   5.752   0.114  0.0805  0.5560 -0.0993
  913MOL0     C23134  11.246   5.840  -0.004 -0.2910 -0.6757 -0.1750
  913MOL0     C23135  11.382   5.774  -0.046 -0.4147 -0.1887  0.4728
  913MOL0     C23136  11.459   5.839  -0.153  0.7037  0.3093  0.2333
  913MOL0     N23137  11.544   5.748  -0.234  0.4362 -0.3419  0.3634
  913MOL0     C23138  11.656   5.680  -0.191 -0.6721  0.6949 -0.1140
  913MOL0     C23139  11.681   5.594  -0.296  0.5370 -0.8476  0.7294
  913MOL0     C23140  11.788   5.502  -0.316 -0.2689  0.7263  0.9114
  913MOL0     C23141  11.920   5.577  -0.333  0.2329  0.0904  0.0969
  913MOL0     C23142  12.040   5.488  -0.354  0.3486  0.5667  1.1384
  913MOL0     C23143  12.164   5.556  -0.386 -0.0038 -0.6774 -0.5521
  913MOL0     O23144  12.274   5.472  -0.396 -0.4320  0.1502 -0.0234
  913MOL0     C23145  12.390   5.530  -0.433 -0.2514 -1.3137  0.9536
  913MOL0     C23146  12.449   5.481  -0.554  0.0730 -0.4225 -0.4856
  913MOL0     C23147  12.579   5.510  -0.583 -0.0105 -0.0017  0.0900
  913MOL0     C23148  12.651   5.604  -0.511  0.3105 -0.2593 -0.3095
  913MOL0     C23149  12.777   5.658  -0.560  0.3345 -0.0016  0.3243
  913MOL0     O23150  12.784   5.669  -0.693  0.3377  0.2885  0.5583
  913MOL0     C23151  12.909   5.671  -0.752 -0.4092 -0.3634  0.2186
  913MOL0     C23152  13.002   5.572  -0.712 -0.1293 -1.0381  0.4948
  913MOL0     C23153  13.126   5.572  -0.764 -0.0035  0.3733  0.2599
  913MOL0     C23154  13.166   5.676  -0.855 -0.6210  0.3871 -0.1496
  913MOL0     O23155  13.302   5.692  -0.890 -0.2529  0.2445  1.1068
  913MOL0     C23156  13.412   5.606  -0.844  0.3314  0.1053  0.1571
  913MOL0     C23157  13.537   5.606  -0.932 -0.3548 -0.0744 -0.4115
  913MOL0     C23158  13.667   5.559  -0.852  0.6958  0.8914  0.2078
  913MOL0     C23159  13.791   5.525  -0.934 -0.3321 -0.1751  0.6898
  913MOL0     C23160  13.907   5.512  -0.833  0.2080 -0.5431 -0.1012
  913MOL0     C23161  14.044   5.511  -0.904  0.0590  0.6127  0.2862
  913MOL0     C23162  14.070   5.624  -1.005 -0.0460 -0.3083  0.1805
  913MOL0     C23163  14.202   5.622  -1.076 -1.3887 -0.0106  0.2811
  913MOL0    Cl23164  14.235   5.469  -1.162  0.2489  0.0152  0.1879
  913MOL0     C23165  13.076   5.774  -0.896  0.2872 -0.1714 -0.2849
  913MOL0     C23166  12.949   5.772  -0.839 -0.8530 -2.0674 -0.6064
  913MOL0     O23167  12.862   5.694  -0.482  0.1541 -0.5648 -0.2178
  913MOL0     C23168  12.596   5.655  -0.399 -0.1066  0.0189  1.6476
  913MOL0     C23169  12.463   5.623  -0.362 -0.4460  0.6076 -0.1482
  913MOL0     N23170  11.585   5.607  -0.390  0.0997  1.0180  0.5551
  913MOL0     N23171  11.512   5.705  -0.362  0.9661  0.5181  0.4937
  913MOL0     C23172  10.741   5.535   0.662  0.8612  0.9348  0.1542
  913MOL0     C23173  10.611   5.513   0.716  0.1611  0.6390 -0.7252
  913MOL0     C23174  10.211   5.621   0.940 -0.5722  0.4216 -0.5774
  913MOL0     C23175  10.107   5.567   0.859  1.0154 -0.2703 -0.6051
  913MOL0     C23176   9.975   5.563   0.898  1.2158  0.8295 -1.1112
  913MOL0     C23177   9.934   5.633   1.012 -0.3772  0.6637  0.5665
  913MOL0     O23178   9.809   5.655   1.061 -0.0152  0.5654  0.1654
  913MOL0     C23179   9.700   5.575   0.996  0.2361  0.0568 -0.4657
  913MOL0     C23180   9.565   5.636   1.027  0.5706  0.7414 -1.0860
  913MOL0     C23181   9.434   5.557   0.984 -1.1850 -0.4561  0.4291
  913MOL0     C23182   9.318   5.656   0.982  0.3987  0.6048  0.0791
  913MOL0     C23183   9.310   5.745   1.098 -1.0127 -0.1726  0.2054
  913MOL0     C23184   9.288   5.818   1.191  0.4284  1.0923 -0.0366
  913MOL0     C23185  10.038   5.691   1.088 -0.8381  0.3789  0.4320
  913MOL0     C23186  10.173   5.681   1.057 -0.6474  0.3711  0.4903
  913MOL0     C23187  10.260   5.759   1.150 -0.3011 -1.0152  0.6718
  913MOL0     H23188  10.482   5.817   0.634 -1.2385 -0.6391  1.9422
  913MOL0     H23189  10.715   5.857   0.562 -1.6121  1.1974  0.0168
  913MOL0     H23190  10.912   5.893   0.627 -1.8861 -0.6176 -0.8833
  913MOL0     H23191  11.072   5.801   0.599  1.3814  1.1119  0.3360
  913MOL0     H23192  11.035   5.970   0.415 -0.5404  0.7955  3.6452
  913MOL0     H23193  10.877   5.895   0.388 -0.2226  0.7770 -0.7562
  913MOL0     H23194  10.985   5.677   0.338  2.3109 -0.3373  3.1800
  913MOL0     H23195  11.139   5.738   0.381  0.5451 -1.3146  0.5359
  913MOL0     H23196  10.970   5.791   0.131 -0.1084  2.4841 -1.5135
  913MOL0     H23197  11.066   5.919   0.184 -3.2297  0.4391  1.2874
  913MOL0     H23198  11.271   5.742   0.179 -0.5330 -0.8943  0.5524
  913MOL0     H23199  11.144   5.656   0.080 -1.6093  1.9580 -2.3932
  913MOL0     H23200  11.174   5.846  -0.086 -2.7358 -0.0312  1.8917
  913MOL0     H23201  11.257   5.945   0.025 -1.8377 -0.4333 -0.3895
  913MOL0     H23202  11.362   5.670  -0.075  0.3379 -0.0589 -0.5483
  913MOL0     H23203  11.456   5.771   0.034  1.3472 -0.2947 -1.0865
  913MOL0     H23204  11.395   5.894  -0.223 -1.6549  0.2016  2.1814
  913MOL0     H23205  11.517   5.913  -0.095 -0.0399  0.0548  1.3270
  913MOL0     H23206  11.712   5.705  -0.101 -0.9944  3.0986 -0.5161
  913MOL0     H23207  11.797   5.419  -0.245 -0.1834  0.0684  0.1577
  913MOL0     H23208  11.775   5.461  -0.417  1.6986  0.2259  0.8056
  913MOL0     H23209  11.909   5.635  -0.424 -0.1042  2.5547  1.6142
  913MOL0     H23210  11.944   5.653  -0.258  1.6963  0.3196 -0.5806
  913MOL0     H23211  12.026   5.418  -0.436 -0.1625  2.2369 -0.2744
  913MOL0     H23212  12.054   5.435  -0.260  1.6832  5.0371  3.7908
  913MOL0     H23213  12.183   5.618  -0.298  2.0287  1.6014 -2.4567
  913MOL0     H23214  12.158   5.623  -0.472 -2.7705  0.4534  0.3904
  913MOL0     H23215  12.398   5.402  -0.609 -0.3547 -3.1989  3.4256
  913MOL0     H23216  12.623   5.471  -0.674  0.0365 -1.6585  0.7809
  913MOL0     H23217  12.987   5.494  -0.638 -1.2613 -0.7136  0.6313
  913MOL0     H23218  13.202   5.503  -0.728 -0.5143  0.8333  2.3888
  913MOL0     H23219  13.451   5.618  -0.743  1.7061 -2.0530 -0.0647
  913MOL0     H23220  13.373   5.504  -0.840 -1.5381  0.8215  1.4221
  913MOL0     H23221  13.520   5.552  -1.026 -0.1365  1.8681 -1.6109
  913MOL0     H23222  13.559   5.709  -0.960 -2.6258 -0.2134 -3.1322
  913MOL0     H23223  13.683   5.640  -0.781  0.9260  0.7491  0.3225
  913MOL0     H23224  13.656   5.474  -0.784  2.9293  1.7170  1.6934
  913MOL0     H23225  13.813   5.598  -1.013  0.1268 -0.4959  0.5137
  913MOL0     H23226  13.768   5.427  -0.978 -1.6863  0.7248 -0.6985
  913MOL0     H23227  13.885   5.422  -0.774 -2.1472 -0.6972 -1.0865
  913MOL0     H23228  13.917   5.603  -0.774 -1.5119 -0.7429  0.5689
  913MOL0     H23229  14.123   5.508  -0.829 -0.8001 -1.4504  1.1927
  913MOL0     H23230  14.048   5.426  -0.973  0.0645  2.8074 -2.6274
  913MOL0     H23231  14.059   5.720  -0.952  0.7905  0.1926 -0.5312
  913MOL0     H23232  14.001   5.607  -1.088  2.1178 -0.6102 -1.6148
  913MOL0     H23233  14.210   5.709  -1.142 -1.1467 -1.0200 -1.0812
  913MOL0     H23234  14.274   5.621  -0.994 -1.6641  0.8790  0.5384
  913MOL0     H23235  13.099   5.860  -0.957 -1.3191  1.6649  1.5425
  913MOL0     H23236  12.890   5.863  -0.840  2.6031  0.6611  3.9876
  913MOL0     H23237  12.646   5.741  -0.356 -1.6884  1.5455  0.5842
  913MOL0     H23238  12.411   5.659  -0.274 -1.9615  1.6789 -1.4298
  913MOL0     H23239  10.814   5.456   0.674  0.0274  0.3651  1.6976
  913MOL0     H23240  10.570   5.420   0.754 -2.4850  0.8401 -2.7498
  913MOL0     H23241  10.134   5.524   0.763  0.3721 -1.2740 -0.3531
  913MOL0     H23242   9.901   5.517   0.833 -1.8240  2.4907  0.9374
  913MOL0     H23243   9.713   5.472   1.031 -0.1568 -0.5904 -2.1294
  913MOL0     H23244   9.707   5.576   0.886 -2.6363  2.7474 -0.7868
  913MOL0     H23245   9.567   5.732   0.975  2.6919  0.1077 -2.3117
  913MOL0     H23246   9.565   5.658   1.134 -1.2398  2.2401 -1.3449
  913MOL0     H23247   9.414   5.480   1.059 -0.1919  0.5638  1.7851
  913MOL0     H23248   9.440   5.509   0.886 -1.5308 -3.1714  1.6357
  913MOL0     H23249   9.330   5.730   0.903  0.5435  3.6010  2.7142
  913MOL0     H23250   9.221   5.606   0.968  1.5574 -1.5493 -0.7626
  913MOL0     H23251   9.266   5.895   1.262  2.7062 -0.0927  2.1164
  913MOL0     H23252  10.017   5.744   1.179  0.9745  1.6614  0.1549
  913MOL0     H23253  10.337   5.808   1.090  0.2005 -0.0784  2.0560
  913MOL0     H23254  10.198   5.835   1.199  0.7590 -0.3428  0.9891
  913MOL0     H23255  10.305   5.710   1.236 -1.2520  0.5173  2.1036
  914MOL0     O23256  10.814  11.340  10.337  0.0294  0.3393 -0.1685
  914MOL0     C23257  10.847  11.241  10.409 -0.2445 -0.2186 -0.7671
  914MOL0     O23258  10.781  11.115  10.397  0.6557  0.2268  0.2986
  914MOL0     C23259  10.708  11.087  10.284  0.1417  0.6677 -0.4990
  914MOL0     C23260  10.568  11.068  10.292 -0.7549 -0.3169 -0.6292
  914MOL0     C23261  10.488  11.052  10.183 -0.9875  0.2154  0.3217
  914MOL0     C23262  10.550  11.061  10.054  0.0351 -0.1903  0.2158
  914MOL0     O23263  10.474  11.082   9.934  0.1736  0.5236 -0.4755
  914MOL0     C23264  10.504  10.972   9.837  0.3749 -0.2919 -0.7419
  914MOL0     C23265  10.405  11.003   9.724 -0.5292 -0.4134 -0.2469
  914MOL0     C23266  10.438  10.939   9.591  0.1293  0.8611  0.3735
  914MOL0     C23267  10.325  10.937   9.495  0.3846  0.7923 -0.0069
  914MOL0     C23268  10.382  10.908   9.357 -0.6783  0.8391  0.7343
  914MOL0     C23269  10.265  10.894   9.248 -0.0849 -0.5504 -0.1332
  914MOL0     C23270  10.273  10.772   9.143 -0.7808  0.4410  0.5376
  914MOL0     C23271  10.408  10.770   9.078  0.5323 -0.4372  0.8958
  914MOL0     N23272  10.467  10.636   9.049  0.5103 -0.9958 -0.6567
  914MOL0     C23273  10.558  10.578   9.132 -0.9198 -0.8210 -0.9131
  914MOL0     C23274  10.602  10.473   9.065  0.4361 -0.7351 -0.1617
  914MOL0     C23275  10.688  10.361   9.104  0.1357  0.5669 -0.2895
  914MOL0     C23276  10.606  10.242   9.136 -0.8008 -0.6096  0.7111
  914MOL0     C23277  10.579  10.167   9.011 -0.5896  0.6376 -0.6011
  914MOL0     C23278  10.492  10.044   9.053  0.5585 -0.0984 -0.0155
  914MOL0     O23279  10.505   9.996   9.186  0.2086 -0.5571 -0.5016
  914MOL0     C23280  10.410   9.908   9.239  0.6200  0.1866  0.6338
  914MOL0     C23281  10.349   9.796   9.171 -0.1011  0.1560  0.0183
  914MOL0     C23282  10.255   9.709   9.236  0.0079  0.1259 -0.2633
  914MOL0     C23283  10.214   9.746   9.370 -0.1294  0.4833  0.9420
  914MOL0     C23284  10.114   9.661   9.443 -1.1458 -0.0688 -0.1617
  914MOL0     O23285  10.045   9.711   9.544  0.3083  0.7382  0.3210
  914MOL0     C23286   9.984   9.622   9.635 -0.4839 -0.1823  0.1356
  914MOL0     C23287   9.846   9.638   9.654  0.5148 -0.4161 -0.3447
  914MOL0     C23288   9.778   9.565   9.752  0.2437 -0.1079 -0.2247
  914MOL0     C23289   9.845   9.478   9.833  0.2582 -0.4993  1.4324
  914MOL0     O23290   9.776   9.412   9.926 -0.4420 -0.2440  0.5525
  914MOL0     C23291   9.746   9.276   9.883  0.0253 -0.0382 -0.2011
  914MOL0     C23292   9.637   9.209   9.968 -0.1675 -0.1947 -0.3468
  914MOL0     C23293   9.696   9.149  10.093  0.1142  0.1739 -0.9872
  914MOL0     C23294   9.586   9.062  10.160  0.1470 -0.0158  0.5041
  914MOL0     C23295   9.638   9.005  10.286 -0.8322  0.8209 -0.0618
  914MOL0     C23296   9.524   8.949  10.381 -0.4290 -0.2715 -0.3011
  914MOL0     C23297   9.416   8.873  10.303 -0.4468 -0.2034 -0.8544
  914MOL0     C23298   9.328   8.784  10.397  0.1075  0.6683  0.1827
  914MOL0    Cl23299   9.420   8.658  10.494  0.5501  0.0367  0.1530
  914MOL0     C23300   9.979   9.451   9.807  0.1451 -0.2880 -0.1364
  914MOL0     C23301  10.050   9.533   9.720  0.7854  0.0196 -0.4175
  914MOL0     O23302  10.107   9.549   9.400  0.8213 -0.0699 -0.0396
  914MOL0     C23303  10.260   9.863   9.431 -0.0879 -0.3001 -0.7205
  914MOL0     C23304  10.360   9.937   9.367  0.5274 -0.9765  0.0815
  914MOL0     N23305  10.534  10.468   8.946  0.1036  0.7594 -0.4823
  914MOL0     N23306  10.462  10.574   8.923  0.6656 -0.4073  0.0160
  914MOL0     C23307  10.684  11.075  10.047 -0.1143  0.8214 -0.5830
  914MOL0     C23308  10.765  11.089  10.156 -0.0013 -1.3651 -0.6904
  914MOL0     C23309  10.954  11.270  10.514  0.2845  0.2636 -0.1880
  914MOL0     C23310  11.015  11.403  10.533 -0.6736 -0.2850 -0.3831
  914MOL0     C23311  11.114  11.427  10.631 -0.1359  0.3273 -0.5665
  914MOL0     C23312  11.172  11.323  10.704  0.6545  0.2734 -0.0531
  914MOL0     O23313  11.289  11.321  10.780  0.3929  0.1322 -0.0371
  914MOL0     C23314  11.370  11.436  10.764  0.4300  0.6392  0.3654
  914MOL0     C23315  11.500  11.404  10.848 -0.3211 -0.3583 -0.3835
  914MOL0     C23316  11.620  11.451  10.769 -0.3643 -0.3255 -0.1836
  914MOL0     C23317  11.753  11.401  10.833  0.3667  0.2954 -0.7518
  914MOL0     C23318  11.785  11.257  10.801  0.3800 -0.8236  0.0189
  914MOL0     C23319  11.831  11.153  10.760 -0.0261  0.0313  0.7636
  914MOL0     C23320  11.114  11.200  10.690  0.5125  0.7027  0.8143
  914MOL0     C23321  11.017  11.167  10.592  0.4168  0.2852  0.7901
  914MOL0     C23322  10.976  11.016  10.582  0.7479  0.0877 -0.5313
  914MOL0     H23323  10.517  11.065  10.388  2.3583 -2.8152  1.1135
  914MOL0     H23324  10.383  11.057  10.208 -0.5149 -2.6284  3.4709
  914MOL0     H23325  10.604  10.981   9.794  0.3288  3.1772 -0.3675
  914MOL0     H23326  10.491  10.874   9.884  0.1597 -0.5569 -1.3458
  914MOL0     H23327  10.404  11.111   9.711 -1.5377 -0.1793  1.4428
  914MOL0     H23328  10.310  10.966   9.764 -1.3290  0.7927 -0.9607
  914MOL0     H23329  10.464  10.835   9.615  0.2314  1.0008  0.8993
  914MOL0     H23330  10.524  10.986   9.543  0.2436  2.9735  2.4444
  914MOL0     H23331  10.255  10.862   9.534  0.3311  1.1500  0.5906
  914MOL0     H23332  10.278  11.035   9.490 -2.4218 -0.4859 -4.6945
  914MOL0     H23333  10.443  10.989   9.316 -3.1583  1.4479 -2.1415
  914MOL0     H23334  10.449  10.821   9.347 -1.1305  0.7092 -2.1516
  914MOL0     H23335  10.170  10.885   9.302 -0.9330  2.1479 -0.9946
  914MOL0     H23336  10.246  10.998   9.217  2.9011  1.3494  3.5260
  914MOL0     H23337  10.193  10.776   9.068 -1.9635 -2.8008  1.4784
  914MOL0     H23338  10.257  10.680   9.199 -2.9035 -1.3766 -2.7201
  914MOL0     H23339  10.391  10.827   8.986  0.4354 -2.6489 -0.5307
  914MOL0     H23340  10.486  10.822   9.136  0.3388 -1.2614  1.9142
  914MOL0     H23341  10.586  10.611   9.232  1.4168 -0.4394 -1.6463
  914MOL0     H23342  10.762  10.354   9.024 -1.3291 -0.1957 -1.6515
  914MOL0     H23343  10.742  10.399   9.191  1.1219 -0.9537 -0.2048
  914MOL0     H23344  10.646  10.186   9.222 -1.1667  1.0445  2.0060
  914MOL0     H23345  10.506  10.273   9.168  0.0205  0.2780  2.5658
  914MOL0     H23346  10.670  10.126   8.965 -1.1579  0.7108 -1.8439
  914MOL0     H23347  10.523  10.217   8.932 -5.7291 -2.4724  0.6193
  914MOL0     H23348  10.510   9.965   8.980 -0.0386 -0.2324 -0.0226
  914MOL0     H23349  10.387  10.071   9.038  0.5099 -0.2305  0.0929
  914MOL0     H23350  10.359   9.791   9.063 -1.0677  0.7380 -0.1117
  914MOL0     H23351  10.211   9.630   9.177  0.3427  1.8884 -3.0972
  914MOL0     H23352   9.789   9.701   9.587  2.2003  1.0329 -0.4971
  914MOL0     H23353   9.671   9.570   9.766 -0.6014 -3.1179 -3.8005
  914MOL0     H23354   9.708   9.277   9.781  1.5076  2.9693 -0.8223
  914MOL0     H23355   9.833   9.210   9.871  1.2208  1.5300 -0.5068
  914MOL0     H23356   9.579   9.295  10.001 -0.5536  0.1274 -1.8265
  914MOL0     H23357   9.582   9.131   9.915  0.9223 -1.6835  0.6103
  914MOL0     H23358   9.776   9.081  10.063 -1.3037 -0.8303 -2.6751
  914MOL0     H23359   9.731   9.227  10.162 -0.0824  1.9289 -2.7780
  914MOL0     H23360   9.556   8.988  10.085  1.8429 -1.2592  0.9750
  914MOL0     H23361   9.500   9.123  10.187 -0.8206 -1.8259  1.7277
  914MOL0     H23362   9.694   9.082  10.339  1.0361  0.4085 -1.3647
  914MOL0     H23363   9.706   8.923  10.262 -2.1454 -1.4969  3.3850
  914MOL0     H23364   9.568   8.888  10.460 -1.8521  3.2398  3.5322
  914MOL0     H23365   9.480   9.034  10.432 -0.1639 -0.2997 -0.0221
  914MOL0     H23366   9.452   8.817  10.216 -1.6271 -1.8207 -0.3415
  914MOL0     H23367   9.345   8.946  10.264  0.2418 -0.8488 -3.5421
  914MOL0     H23368   9.263   8.850  10.455 -2.1439 -0.6907 -0.6692
  914MOL0     H23369   9.259   8.733  10.329 -0.4943  0.1868  1.1316
  914MOL0     H23370  10.030   9.371   9.860 -1.2116 -0.7474  0.5266
  914MOL0     H23371  10.158   9.522   9.726  0.7067 -0.0967  3.4430
  914MOL0     H23372  10.214   9.899   9.522  2.5725  0.7891  0.2984
  914MOL0     H23373  10.396  10.021   9.425 -2.6980  1.1972 -0.7613
  914MOL0     H23374  10.723  11.081   9.946 -3.4598  0.5670 -2.0101
  914MOL0     H23375  10.867  11.118  10.136 -0.5302  1.0651 -0.1482
  914MOL0     H23376  10.975  11.494  10.489 -3.3358 -0.5735  1.2531
  914MOL0     H23377  11.148  11.529  10.645 -1.6266  0.6969  0.6822
  914MOL0     H23378  11.336  11.532  10.804  2.5328  2.1502 -1.2453
  914MOL0     H23379  11.397  11.447  10.659 -0.5623 -0.0668  0.0192
  914MOL0     H23380  11.495  11.296  10.863  1.7605 -0.5942 -1.0372
  914MOL0     H23381  11.483  11.447  10.947 -0.4946  4.7265 -2.3031
  914MOL0     H23382  11.605  11.558  10.784 -4.1023 -0.9549  1.8969
  914MOL0     H23383  11.601  11.416  10.667 -0.3294 -1.8382  0.2979
  914MOL0     H23384  11.832  11.469  10.801 -0.3757  1.7670  0.3906
  914MOL0     H23385  11.746  11.417  10.941  0.5194 -1.4890 -0.4409
  914MOL0     H23386  11.882  11.074  10.708  1.9110  0.9571  1.1632
  914MOL0     H23387  11.169  11.122  10.742  0.2222 -0.5614 -0.6999
  914MOL0     H23388  11.001  10.981  10.481  0.9459 -1.7316  0.1196
  914MOL0     H23389  11.024  10.955  10.658 -1.7140 -0.0859  0.9911
  914MOL0     H23390  10.869  11.011  10.604  0.9749  3.5097  2.1368
  915MOL0     O23391   3.679   7.472   1.361 -0.5696  0.3179 -0.2556
  915MOL0     C23392   3.741   7.575   1.375  0.8785 -0.2427 -0.1671
  915MOL0     O23393   3.773   7.667   1.273  0.2631 -0.0941  0.2406
  915MOL0     C23394   3.745   7.653   1.145  0.8272  0.2728  0.6012
  915MOL0     C23395   3.717   7.530   1.078 -0.8046  0.6019  0.1320
  915MOL0     C23396   3.691   7.517   0.946 -0.2271 -0.0571 -0.5724
  915MOL0     C23397   3.662   7.630   0.866  0.6917  0.4875 -0.6495
  915MOL0     O23398   3.612   7.616   0.741  0.1902 -1.3998  0.2237
  915MOL0     C23399   3.469   7.641   0.727 -0.5505 -0.2234 -0.4838
  915MOL0     C23400   3.410   7.584   0.596  0.3767  0.1452  0.1010
  915MOL0     C23401   3.383   7.431   0.605 -0.9455 -0.3810 -0.0584
  915MOL0     C23402   3.503   7.356   0.649 -0.7718 -1.4475 -0.0208
  915MOL0     C23403   3.488   7.204   0.647  0.0829 -0.0555  0.1955
  915MOL0     C23404   3.624   7.129   0.633 -0.1058 -0.9997  0.3411
  915MOL0     C23405   3.617   6.981   0.598 -0.4679  0.6100 -0.6948
  915MOL0     C23406   3.522   6.900   0.683 -0.2953 -0.5703 -1.1245
  915MOL0     N23407   3.534   6.920   0.830 -0.4336  0.7907 -0.3913
  915MOL0     C23408   3.639   6.897   0.915  0.8448  0.0381 -1.3223
  915MOL0     C23409   3.597   6.963   1.028 -0.0670  0.1661  1.1223
  915MOL0     C23410   3.670   6.955   1.158 -0.1535 -1.0151  0.1362
  915MOL0     C23411   3.661   7.075   1.247 -0.3280 -0.4179  0.4039
  915MOL0     C23412   3.780   7.080   1.351  0.5296  0.2920  0.0792
  915MOL0     C23413   3.778   6.979   1.460  0.6364  0.6606  0.4925
  915MOL0     O23414   3.864   7.018   1.569 -0.4496  0.7628  0.7853
  915MOL0     C23415   3.834   6.961   1.694 -0.3272 -0.1462  0.7779
  915MOL0     C23416   3.764   6.844   1.698  0.2335 -0.0527 -0.7056
  915MOL0     C23417   3.713   6.794   1.817 -0.7623 -0.7585 -0.2741
  915MOL0     C23418   3.729   6.864   1.935 -0.0369  0.4249  0.1698
  915MOL0     C23419   3.669   6.812   2.056 -0.6770 -0.3430 -0.3803
  915MOL0     O23420   3.589   6.698   2.053  0.3515 -0.5994  0.1928
  915MOL0     C23421   3.528   6.642   2.161 -0.3889 -0.1890 -0.0923
  915MOL0     C23422   3.442   6.711   2.247 -0.0982 -0.2386  0.6472
  915MOL0     C23423   3.398   6.652   2.366 -0.6827  0.6974 -0.9004
  915MOL0     C23424   3.434   6.531   2.407 -0.5177 -0.0558  0.1503
  915MOL0     O23425   3.411   6.499   2.537  0.6072  0.9138  0.2070
  915MOL0     C23426   3.520   6.455   2.613  0.6481  0.2890  0.3133
  915MOL0     C23427   3.627   6.565   2.633 -0.2126  0.1987  0.5783
  915MOL0     C23428   3.601   6.662   2.740 -0.0143  0.4088 -0.1998
  915MOL0     C23429   3.721   6.741   2.782 -0.0541  0.2309 -0.8059
  915MOL0     C23430   3.794   6.835   2.683  0.0851 -0.4210 -0.8765
  915MOL0     C23431   3.744   6.983   2.699  0.0470  0.2564 -0.0935
  915MOL0     C23432   3.801   7.067   2.582  0.3102  0.1923 -0.1472
  915MOL0     C23433   3.722   7.059   2.446 -0.2851  0.2036 -0.2503
  915MOL0    Cl23434   3.801   7.142   2.299  0.5224  0.1498 -0.2610
  915MOL0     C23435   3.508   6.452   2.321  0.6876 -0.6804 -1.0578
  915MOL0     C23436   3.555   6.507   2.205  1.4611  0.2381  0.0905
  915MOL0     O23437   3.681   6.889   2.157  0.8817 -0.3227  0.7266
  915MOL0     C23438   3.811   6.980   1.935  0.0407 -0.7567 -0.2511
  915MOL0     C23439   3.863   7.029   1.820  0.5754  0.0344 -0.0482
  915MOL0     N23440   3.459   7.002   1.016  0.3936  0.1280 -0.4882
  915MOL0     N23441   3.423   6.975   0.896  0.6445  0.2802  0.0959
  915MOL0     C23442   3.695   7.756   0.922  0.6191 -0.3646  0.7972
  915MOL0     C23443   3.731   7.769   1.056  1.1852 -0.2850  0.2765
  915MOL0     C23444   3.805   7.601   1.505  0.0326  0.2094 -0.0579
  915MOL0     C23445   3.892   7.499   1.562  0.4033 -0.6154  0.4077
  915MOL0     C23446   3.972   7.531   1.665 -0.0453 -0.2315  0.5461
  915MOL0     C23447   3.964   7.648   1.731  0.0083 -0.4921 -0.5484
  915MOL0     O23448   4.040   7.663   1.845 -0.0994 -0.1715 -0.2514
  915MOL0     C23449   4.037   7.785   1.926  0.0754  0.5452  0.2259
  915MOL0     C23450   4.130   7.896   1.862  0.4625  0.3265  0.8403
  915MOL0     C23451   4.280   7.850   1.861  0.1908 -1.0912  0.3987
  915MOL0     C23452   4.321   7.734   1.779 -0.2743  0.2956  0.0617
  915MOL0     C23453   4.296   7.740   1.640 -0.0040  0.9679  0.4336
  915MOL0     C23454   4.297   7.749   1.513 -0.2164  0.4145  0.4847
  915MOL0     C23455   3.878   7.747   1.689 -0.0062 -0.6408 -0.1826
  915MOL0     C23456   3.800   7.725   1.571 -0.1044 -0.3607  0.0596
  915MOL0     C23457   3.709   7.837   1.523  0.3527 -0.1556 -0.6465
  915MOL0     H23458   3.749   7.438   1.125  0.4771  0.5117 -0.8605
  915MOL0     H23459   3.687   7.415   0.909  1.0496 -0.8519  1.3629
  915MOL0     H23460   3.415   7.587   0.805 -0.0172 -1.0983 -0.7190
  915MOL0     H23461   3.452   7.750   0.728  2.5640  0.3711 -1.6492
  915MOL0     H23462   3.469   7.610   0.508  1.1537 -0.4356  0.4398
  915MOL0     H23463   3.311   7.629   0.585  1.0298  1.8224  0.7322
  915MOL0     H23464   3.362   7.388   0.507 -0.5880  1.1302 -0.8277
  915MOL0     H23465   3.301   7.407   0.674 -0.2922 -0.7159  0.6119
  915MOL0     H23466   3.588   7.389   0.589 -1.7053 -1.1195 -1.2030
  915MOL0     H23467   3.525   7.378   0.754  0.4697  0.5646 -0.6400
  915MOL0     H23468   3.439   7.176   0.740  0.0214  2.5278  1.0321
  915MOL0     H23469   3.431   7.182   0.556  0.9121  0.1398 -0.3874
  915MOL0     H23470   3.688   7.176   0.558 -1.7187  0.4870 -0.1795
  915MOL0     H23471   3.679   7.134   0.727 -0.6440 -1.2479  0.6687
  915MOL0     H23472   3.715   6.936   0.617 -0.9588 -0.0903  0.2462
  915MOL0     H23473   3.601   6.960   0.492 -1.9790  2.7451 -0.9505
  915MOL0     H23474   3.416   6.910   0.661 -0.3625 -0.9214 -0.9670
  915MOL0     H23475   3.553   6.796   0.670 -0.4474 -0.8267  0.4430
  915MOL0     H23476   3.730   6.842   0.892 -0.6036 -2.7931 -0.7109
  915MOL0     H23477   3.640   6.866   1.214 -1.7397 -1.2031 -0.9514
  915MOL0     H23478   3.777   6.937   1.142  0.1583 -3.6150  3.8409
  915MOL0     H23479   3.661   7.167   1.188 -0.8721 -0.3171  0.5515
  915MOL0     H23480   3.569   7.080   1.307  0.4673  0.7523  1.6018
  915MOL0     H23481   3.785   7.180   1.394 -1.4779  0.0001  1.1099
  915MOL0     H23482   3.873   7.078   1.294 -0.1171  2.0063 -1.1038
  915MOL0     H23483   3.819   6.886   1.420  1.4937  1.1688  0.1509
  915MOL0     H23484   3.676   6.978   1.500  0.6634  2.1028  0.6691
  915MOL0     H23485   3.758   6.789   1.605 -0.8697 -2.3917  0.6640
  915MOL0     H23486   3.665   6.697   1.825  0.3296 -1.2111  1.3673
  915MOL0     H23487   3.418   6.814   2.222  2.2531 -0.0582 -1.3568
  915MOL0     H23488   3.352   6.696   2.454 -0.2387 -3.4194  1.6776
  915MOL0     H23489   3.492   6.417   2.711  0.1617 -3.0307 -0.9570
  915MOL0     H23490   3.572   6.374   2.560  1.0052 -0.0895  1.2332
  915MOL0     H23491   3.718   6.507   2.654 -1.4260 -0.9799  2.9435
  915MOL0     H23492   3.648   6.614   2.537 -2.3738  0.9818  0.4712
  915MOL0     H23493   3.527   6.735   2.703  1.1726  0.9960 -1.4960
  915MOL0     H23494   3.559   6.619   2.831  0.0905  2.1479  0.7006
  915MOL0     H23495   3.788   6.673   2.836 -1.4007 -0.1976  0.3793
  915MOL0     H23496   3.683   6.805   2.862  2.4395 -1.0609  1.5620
  915MOL0     H23497   3.784   6.804   2.578  2.1360  0.4283 -1.3718
  915MOL0     H23498   3.902   6.825   2.699  0.1938  1.7474  0.0750
  915MOL0     H23499   3.635   6.985   2.702  0.0253  3.3866 -0.3959
  915MOL0     H23500   3.778   7.030   2.792 -0.9501 -0.5630  0.7222
  915MOL0     H23501   3.908   7.046   2.572  1.1531  2.4911  2.6007
  915MOL0     H23502   3.782   7.169   2.617  2.1212  0.3136  0.5658
  915MOL0     H23503   3.704   6.953   2.422 -3.6943  0.6392 -0.1598
  915MOL0     H23504   3.620   7.092   2.468 -2.0561 -3.4820 -1.8902
  915MOL0     H23505   3.548   6.360   2.363  3.7795  0.5489 -1.0970
  915MOL0     H23506   3.617   6.449   2.138  0.6149 -0.9932  0.3367
  915MOL0     H23507   3.820   7.038   2.026 -0.8980 -1.1253  0.0917
  915MOL0     H23508   3.910   7.126   1.830 -1.3745  0.7670  5.3936
  915MOL0     H23509   3.671   7.839   0.855 -1.1284 -2.4353 -1.3710
  915MOL0     H23510   3.731   7.870   1.096  1.5826  0.2788 -1.0835
  915MOL0     H23511   3.885   7.402   1.514 -2.3040  0.1746 -1.0057
  915MOL0     H23512   4.043   7.453   1.689  1.1849  0.1915 -1.4394
  915MOL0     H23513   4.086   7.758   2.021  3.3982  0.4556 -1.3779
  915MOL0     H23514   3.941   7.831   1.950  0.8278  2.8619 -0.8966
  915MOL0     H23515   4.121   7.992   1.913  0.1304  1.3369 -1.0399
  915MOL0     H23516   4.105   7.917   1.758 -2.5996 -0.5827  1.2984
  915MOL0     H23517   4.326   7.830   1.958  0.6944  0.3597  0.4935
  915MOL0     H23518   4.336   7.937   1.823  0.3546 -0.9916  0.8595
  915MOL0     H23519   4.427   7.720   1.804  0.0327  1.5844 -0.4400
  915MOL0     H23520   4.271   7.648   1.825  0.9345 -0.1301  0.6236
  915MOL0     H23521   4.313   7.749   1.407 -1.7748  0.8032  0.2254
  915MOL0     H23522   3.864   7.844   1.736  2.5742  0.0774 -0.7428
  915MOL0     H23523   3.710   7.916   1.598  0.9197  0.9104 -1.7400
  915MOL0     H23524   3.741   7.887   1.431 -1.0697  0.1473 -0.9923
  915MOL0     H23525   3.614   7.784   1.513 -0.2030  0.4802  1.0220
  916MOL0     O23526   0.266   1.389  10.288 -0.4326  0.1723 -0.3002
  916MOL0     C23527   0.258   1.280  10.340  0.3644 -0.8906 -0.3031
  916MOL0     O23528   0.371   1.205  10.368  0.5298  0.4735 -0.3164
  916MOL0     C23529   0.485   1.276  10.370  0.0544 -0.6607 -1.0390
  916MOL0     C23530   0.565   1.281  10.256 -0.3601  0.4766  0.2689
  916MOL0     C23531   0.678   1.361  10.252  0.1633 -0.0891 -0.1712
  916MOL0     C23532   0.715   1.423  10.369 -0.0940  0.4483  0.1439
  916MOL0     O23533   0.830   1.492  10.390  0.3425  0.5172  0.1121
  916MOL0     C23534   0.903   1.552  10.278 -0.2465  0.4331 -0.1384
  916MOL0     C23535   1.031   1.457  10.243  0.1934 -0.8437 -0.4330
  916MOL0     C23536   1.094   1.487  10.108  0.6167  0.3722  0.4141
  916MOL0     C23537   1.192   1.594  10.120 -0.0341 -0.4446  0.6568
  916MOL0     C23538   1.276   1.611   9.989 -0.3052  1.4517  0.2121
  916MOL0     C23539   1.353   1.481   9.945 -0.4345 -0.1933  0.7298
  916MOL0     C23540   1.452   1.510   9.839  0.0240 -1.4475 -0.0126
  916MOL0     C23541   1.521   1.382   9.785  0.3068 -0.0064 -0.7746
  916MOL0     N23542   1.445   1.305   9.683 -0.0677  0.4659  0.1138
  916MOL0     C23543   1.498   1.282   9.564  0.6622  0.3819  0.0308
  916MOL0     C23544   1.446   1.163   9.528  0.0900 -0.0303  0.3988
  916MOL0     C23545   1.456   1.114   9.387  0.2328 -0.0551 -0.3495
  916MOL0     C23546   1.363   0.993   9.347  0.7275 -0.6719  0.6820
  916MOL0     C23547   1.304   0.992   9.198  0.2670 -0.1059 -0.5510
  916MOL0     C23548   1.182   1.076   9.179 -0.1974 -0.8617 -1.3048
  916MOL0     O23549   1.218   1.193   9.101 -0.0144 -0.5774  0.4767
  916MOL0     C23550   1.165   1.194   8.975  0.3155  0.6128 -0.5750
  916MOL0     C23551   1.039   1.255   8.951 -0.0737  0.2235  0.8140
  916MOL0     C23552   0.994   1.263   8.821  0.3824 -0.6136  0.6876
  916MOL0     C23553   1.078   1.207   8.717  0.4033 -0.5215 -0.5868
  916MOL0     C23554   1.036   1.234   8.575 -0.0857 -0.4940 -0.3402
  916MOL0     O23555   0.936   1.320   8.538  0.1475  0.2201 -0.6476
  916MOL0     C23556   0.902   1.334   8.407 -0.5314 -0.0995 -0.5539
  916MOL0     C23557   0.790   1.421   8.391 -1.0255  1.3721  0.6636
  916MOL0     C23558   0.746   1.456   8.264  0.6718 -0.3939 -0.9301
  916MOL0     C23559   0.797   1.408   8.152 -0.7031 -0.1562  0.3931
  916MOL0     O23560   0.747   1.439   8.033 -0.0257  0.2830 -0.8729
  916MOL0     C23561   0.648   1.532   8.007  0.4456  0.5783 -0.1307
  916MOL0     C23562   0.586   1.503   7.875  0.7646  0.1017 -0.5689
  916MOL0     C23563   0.506   1.372   7.881 -0.9452 -0.5930 -0.3790
  916MOL0     C23564   0.416   1.372   7.771  0.1814 -0.6029 -0.4365
  916MOL0     C23565   0.340   1.238   7.772 -0.2980 -0.0954  0.6104
  916MOL0     C23566   0.229   1.251   7.661 -0.3467 -0.3722 -1.1628
  916MOL0     C23567   0.256   1.163   7.539 -0.2224 -0.6441  0.1976
  916MOL0     C23568   0.386   1.171   7.471 -0.1943  0.4379 -0.7419
  916MOL0    Cl23569   0.361   1.104   7.304  0.8841 -0.1103  0.7102
  916MOL0     C23570   0.914   1.328   8.161 -0.9250  0.2598 -0.6630
  916MOL0     C23571   0.971   1.300   8.288 -0.2927 -0.7410 -0.3980
  916MOL0     O23572   1.103   1.170   8.490 -0.3865 -0.2604 -0.5184
  916MOL0     C23573   1.207   1.153   8.742 -0.6710  0.0697 -0.8288
  916MOL0     C23574   1.242   1.137   8.873 -1.2945 -0.1674 -0.1710
  916MOL0     N23575   1.358   1.123   9.623 -0.1215 -1.1060  0.5684
  916MOL0     N23576   1.367   1.199   9.718  0.0110  0.5112 -0.0672
  916MOL0     C23577   0.640   1.425  10.482  0.1610  0.0764  0.0973
  916MOL0     C23578   0.524   1.347  10.481  0.3277  0.4830  0.0109
  916MOL0     C23579   0.120   1.234  10.387  0.3381  0.0757 -0.0127
  916MOL0     C23580   0.110   1.154  10.504 -0.4369  0.0063  0.2169
  916MOL0     C23581  -0.007   1.105  10.553 -0.5312  0.7441 -0.8364
  916MOL0     C23582  -0.126   1.128  10.480  0.1418 -0.3624 -0.6473
  916MOL0     O23583  -0.255   1.097  10.510  0.0258 -0.1467  0.1100
  916MOL0     C23584  -0.287   1.063  10.646 -0.1356 -0.0488 -0.2279
  916MOL0     C23585  -0.265   1.173  10.741 -0.0048  0.8155  0.2483
  916MOL0     C23586  -0.275   1.307  10.700  0.3540 -0.6654 -0.6968
  916MOL0     C23587  -0.288   1.404  10.824 -0.0181  0.2206  0.1300
  916MOL0     C23588  -0.159   1.434  10.895  1.0470  0.2842 -0.6563
  916MOL0     C23589  -0.072   1.471  10.965 -0.6920 -0.4357 -0.1347
  916MOL0     C23590  -0.123   1.207  10.363 -0.7951  0.3277  1.2065
  916MOL0     C23591  -0.000   1.256  10.309 -0.3681  0.3443 -0.0730
  916MOL0     C23592  -0.005   1.336  10.180  0.4625 -0.1735 -0.0426
  916MOL0     H23593   0.531   1.216  10.176  2.3410 -0.2294 -0.4085
  916MOL0     H23594   0.733   1.371  10.159  0.0672 -1.3609 -0.3837
  916MOL0     H23595   0.836   1.579  10.197 -1.7479  0.0563  0.9329
  916MOL0     H23596   0.936   1.653  10.306  1.5995 -0.7601  2.3766
  916MOL0     H23597   0.991   1.355  10.235  1.3211 -1.6341  2.5632
  916MOL0     H23598   1.091   1.460  10.334  0.3524 -0.7090 -0.5439
  916MOL0     H23599   1.022   1.515  10.030  1.0202 -0.5126 -0.2953
  916MOL0     H23600   1.133   1.389  10.080 -1.4470 -0.8715  1.6882
  916MOL0     H23601   1.139   1.688  10.135  0.1027 -0.4452  1.1515
  916MOL0     H23602   1.257   1.588  10.208  1.1585  0.7075 -0.1055
  916MOL0     H23603   1.216   1.643   9.903 -1.8037  1.0396  1.0676
  916MOL0     H23604   1.344   1.695  10.005  3.7073 -0.7294 -3.2784
  916MOL0     H23605   1.407   1.439  10.031 -1.6233 -1.0311  1.0931
  916MOL0     H23606   1.292   1.401   9.901 -1.0676  0.1202  1.0249
  916MOL0     H23607   1.532   1.581   9.864  0.9171 -0.5491 -4.5012
  916MOL0     H23608   1.402   1.560   9.756 -0.5795 -0.2335  1.0441
  916MOL0     H23609   1.608   1.418   9.730 -0.1127  0.7396 -0.9609
  916MOL0     H23610   1.535   1.318   9.873 -4.8164 -0.6310 -0.1000
  916MOL0     H23611   1.560   1.348   9.504 -1.8986 -0.3243 -3.7675
  916MOL0     H23612   1.439   1.203   9.326 -0.0593  0.7259  0.8417
  916MOL0     H23613   1.561   1.091   9.366  1.0105  1.0682  2.0143
  916MOL0     H23614   1.412   0.900   9.375  0.5442 -0.9908 -0.0421
  916MOL0     H23615   1.272   0.996   9.409  2.6444  2.2147  3.7308
  916MOL0     H23616   1.280   0.890   9.167  0.4496  0.5116 -2.9035
  916MOL0     H23617   1.375   1.033   9.126  0.1060  0.7823 -0.2162
  916MOL0     H23618   1.140   1.099   9.277  1.8590 -2.6355  0.0724
  916MOL0     H23619   1.115   1.014   9.118 -2.4427  1.0124 -0.8670
  916MOL0     H23620   0.978   1.276   9.038  1.1558  0.3862  1.6638
  916MOL0     H23621   0.896   1.304   8.798  1.9174  2.3470 -1.1075
  916MOL0     H23622   0.757   1.480   8.476 -0.0524  2.8868  0.0376
  916MOL0     H23623   0.664   1.527   8.271  1.2262  0.1842  0.0499
  916MOL0     H23624   0.568   1.516   8.080  0.3792 -1.1110 -0.5405
  916MOL0     H23625   0.685   1.635   8.010 -2.3631  1.7328 -0.9837
  916MOL0     H23626   0.523   1.589   7.851 -1.2530 -0.1436  3.2180
  916MOL0     H23627   0.663   1.484   7.800  1.7594  0.0904  0.4371
  916MOL0     H23628   0.559   1.277   7.866 -2.4843 -1.4552 -0.6469
  916MOL0     H23629   0.461   1.358   7.980 -0.7658  0.9091 -0.0644
  916MOL0     H23630   0.475   1.388   7.681 -0.5125  2.1342 -0.4963
  916MOL0     H23631   0.359   1.465   7.782  0.9386 -0.1158 -0.5508
  916MOL0     H23632   0.293   1.213   7.868 -3.0333  1.1841 -0.3148
  916MOL0     H23633   0.423   1.170   7.751  2.7178  3.1666  0.9955
  916MOL0     H23634   0.135   1.217   7.705 -0.5612  3.3055  1.7763
  916MOL0     H23635   0.220   1.356   7.630  0.1589 -0.0651 -0.3088
  916MOL0     H23636   0.181   1.188   7.463  2.4319  1.1145 -2.0650
  916MOL0     H23637   0.244   1.060   7.572  3.8627 -0.1613  4.1850
  916MOL0     H23638   0.426   1.272   7.468  2.6003 -0.5955 -1.0318
  916MOL0     H23639   0.460   1.111   7.525  0.6139  0.8095 -1.4149
  916MOL0     H23640   0.973   1.309   8.072  1.7840 -1.0779  1.2429
  916MOL0     H23641   1.065   1.247   8.279  2.1331  2.8305  1.5854
  916MOL0     H23642   1.268   1.104   8.666  0.9787 -0.7455  0.9464
  916MOL0     H23643   1.325   1.074   8.903 -0.7851  0.4501 -0.2546
  916MOL0     H23644   0.680   1.487  10.562 -0.2221  1.5659 -0.8330
  916MOL0     H23645   0.452   1.340  10.562 -1.1634  2.0361 -1.0960
  916MOL0     H23646   0.206   1.139  10.553  0.1605  0.0004 -0.9353
  916MOL0     H23647  -0.000   1.046  10.644  2.4632  0.6055 -1.0385
  916MOL0     H23648  -0.235   0.973  10.678  2.6101  1.7436  0.7252
  916MOL0     H23649  -0.394   1.047  10.655 -0.4947  2.6708  1.7398
  916MOL0     H23650  -0.173   1.154  10.797  1.5557 -1.6415 -2.8289
  916MOL0     H23651  -0.337   1.150  10.821 -1.2200  2.8659 -0.1884
  916MOL0     H23652  -0.369   1.331  10.650  1.5787  3.1153 -1.5517
  916MOL0     H23653  -0.198   1.340  10.629  1.3551  3.9504  2.0298
  916MOL0     H23654  -0.321   1.500  10.784  0.7197  0.8023  0.8835
  916MOL0     H23655  -0.363   1.360  10.890 -1.4564  0.0089 -1.5832
  916MOL0     H23656   0.009   1.518  11.016 -0.0931 -0.2196 -1.2368
  916MOL0     H23657  -0.218   1.221  10.312 -0.3106  0.1722  0.2316
  916MOL0     H23658   0.060   1.296  10.102  0.0489  0.1957 -0.5813
  916MOL0     H23659  -0.104   1.351  10.136  1.2792 -1.2487 -2.4172
  916MOL0     H23660   0.043   1.433  10.196 -1.5967  1.3300 -2.3200
  917MOL0     O23661   9.373   3.788   6.616  0.1208 -0.0640  0.1647
  917MOL0     C23662   9.292   3.789   6.520 -0.9138 -0.2727 -0.1190
  917MOL0     O23663   9.325   3.803   6.393 -0.7419 -0.6689 -0.0568
  917MOL0     C23664   9.456   3.814   6.365 -1.5071 -0.3516 -0.2601
  917MOL0     C23665   9.504   3.727   6.264  0.8671  0.3369 -0.1226
  917MOL0     C23666   9.633   3.732   6.220  0.2985  0.4746  0.8075
  917MOL0     C23667   9.726   3.838   6.256  0.0088 -0.2542 -0.7575
  917MOL0     O23668   9.849   3.838   6.197  0.1878  0.0032  0.4066
  917MOL0     C23669   9.923   3.957   6.210  0.5650 -0.6368  0.1196
  917MOL0     C23670  10.050   3.969   6.124  1.0137 -0.2583 -0.4868
  917MOL0     C23671  10.031   3.955   5.971  0.2351  0.1924 -0.0835
  917MOL0     C23672  10.049   3.807   5.921 -0.3771  1.1620  0.0806
  917MOL0     C23673  10.094   3.813   5.772 -0.3862  0.3963 -0.0171
  917MOL0     C23674  10.121   3.671   5.730 -1.1077  0.0835  0.3821
  917MOL0     C23675  10.141   3.648   5.573  0.5493  0.7143  1.1122
  917MOL0     C23676  10.292   3.694   5.536  0.3794 -0.3072  0.0464
  917MOL0     N23677  10.384   3.591   5.585  0.4964  0.2450 -0.0449
  917MOL0     C23678  10.383   3.455   5.549 -0.2242  0.2889 -0.1624
  917MOL0     C23679  10.498   3.411   5.601  0.4398  0.4427  0.4641
  917MOL0     C23680  10.555   3.282   5.568 -0.1578 -0.0646 -0.1250
  917MOL0     C23681  10.693   3.278   5.517 -0.1058  1.0015 -0.1584
  917MOL0     C23682  10.749   3.138   5.512 -0.2981 -0.8607 -0.0230
  917MOL0     C23683  10.818   3.091   5.647  1.0446 -0.0921 -1.0275
  917MOL0     O23684  10.938   3.160   5.688 -0.5242 -0.0192  0.0388
  917MOL0     C23685  11.056   3.146   5.612  0.4775  0.9735  0.1366
  917MOL0     C23686  11.153   3.238   5.616  0.2062 -0.0327 -0.1535
  917MOL0     C23687  11.259   3.244   5.530 -0.5763  0.6699  0.6416
  917MOL0     C23688  11.277   3.148   5.435 -0.5616  0.0442 -0.9637
  917MOL0     C23689  11.393   3.139   5.352 -0.2787 -0.0773 -0.2508
  917MOL0     O23690  11.400   3.032   5.265  0.0682  0.1792 -0.4539
  917MOL0     C23691  11.502   3.030   5.172 -0.0577  0.5462 -0.4309
  917MOL0     C23692  11.476   2.988   5.044  0.6238 -0.9666 -0.5038
  917MOL0     C23693  11.569   2.967   4.950 -0.0658  1.0528 -0.3738
  917MOL0     C23694  11.706   2.979   4.979 -0.2054  0.1575 -0.2742
  917MOL0     O23695  11.794   2.936   4.886  0.6356 -0.2271  0.9094
  917MOL0     C23696  11.930   2.889   4.911  0.2919 -0.0153  0.2307
  917MOL0     C23697  12.030   3.010   4.917 -0.4778 -0.3624 -0.2597
  917MOL0     C23698  12.148   2.985   4.834 -0.5330 -0.0644  0.1181
  917MOL0     C23699  12.124   2.977   4.684  0.4347 -0.0163  0.3133
  917MOL0     C23700  12.253   2.967   4.609 -0.1528  0.5902  0.5019
  917MOL0     C23701  12.320   2.837   4.617  0.1184 -0.7717  0.6340
  917MOL0     C23702  12.287   2.744   4.498 -0.5625  0.4114  1.1668
  917MOL0     C23703  12.372   2.623   4.518 -0.2994  0.1841 -0.6394
  917MOL0    Cl23704  12.538   2.633   4.497  0.2250 -0.1128  0.1184
  917MOL0     C23705  11.738   3.017   5.110 -0.0847 -1.1004 -1.0613
  917MOL0     C23706  11.640   3.044   5.206 -0.2256  0.0372 -0.4718
  917MOL0     O23707  11.482   3.224   5.360 -0.2534 -0.2644  0.0066
  917MOL0     C23708  11.178   3.044   5.431 -0.0722 -0.4541 -0.2554
  917MOL0     C23709  11.074   3.039   5.528 -0.2505  0.1821 -0.7327
  917MOL0     N23710  10.566   3.510   5.666  0.3620  0.6140 -0.2599
  917MOL0     N23711  10.497   3.612   5.667  0.3939  0.0069 -0.3552
  917MOL0     C23712   9.679   3.930   6.359  0.1986 -0.4336  0.1483
  917MOL0     C23713   9.543   3.919   6.404 -0.1969  0.4937  0.0314
  917MOL0     C23714   9.149   3.781   6.556  0.4825 -0.2036  0.3420
  917MOL0     C23715   9.063   3.860   6.477  0.6229 -0.5459 -0.1090
  917MOL0     C23716   8.920   3.862   6.509 -0.7903  1.3813 -0.5097
  917MOL0     C23717   8.868   3.776   6.607 -0.0092 -0.7460  0.1145
  917MOL0     O23718   8.739   3.790   6.632  0.1771  0.2849 -0.1354
  917MOL0     C23719   8.697   3.793   6.767 -0.5751 -0.1866 -0.6151
  917MOL0     C23720   8.552   3.854   6.789 -0.2229  0.4397  0.3994
  917MOL0     C23721   8.441   3.799   6.694  0.3049 -1.1967  1.0437
  917MOL0     C23722   8.395   3.651   6.715  0.3385 -0.4606  0.5688
  917MOL0     C23723   8.346   3.621   6.850 -0.2431  0.5107 -0.3590
  917MOL0     C23724   8.324   3.610   6.966  0.1207  0.1412 -0.3867
  917MOL0     C23725   8.957   3.717   6.693  0.2886  0.1138 -1.0413
  917MOL0     C23726   9.093   3.716   6.668 -0.4658  0.6750  0.3269
  917MOL0     C23727   9.171   3.624   6.752 -0.9049  0.5586  0.3499
  917MOL0     H23728   9.434   3.655   6.224 -0.4613 -0.4121  3.2717
  917MOL0     H23729   9.657   3.659   6.144 -0.5226 -1.4525  2.3145
  917MOL0     H23730   9.857   4.043   6.193 -1.1727 -1.3396  2.6451
  917MOL0     H23731   9.962   3.969   6.312  1.5076  3.7576 -0.5590
  917MOL0     H23732  10.119   3.892   6.162 -2.2605 -2.5426  1.3608
  917MOL0     H23733  10.110   4.058   6.145  0.9979 -0.1560 -0.8771
  917MOL0     H23734  10.102   4.023   5.923  0.7335  2.1148  3.1100
  917MOL0     H23735   9.936   4.001   5.942 -0.5856  0.0893  2.1988
  917MOL0     H23736  10.118   3.751   5.985  1.5645  2.8636 -0.4295
  917MOL0     H23737   9.955   3.753   5.933 -0.7360  1.1282 -2.4260
  917MOL0     H23738  10.018   3.843   5.700 -0.5823  1.1412  0.4924
  917MOL0     H23739  10.181   3.879   5.767  1.1002 -1.4808 -0.1702
  917MOL0     H23740  10.212   3.633   5.778 -1.7580 -0.7732  0.9836
  917MOL0     H23741  10.044   3.609   5.777  0.3386 -3.1424 -1.1799
  917MOL0     H23742  10.061   3.709   5.529  0.1669  0.1150  0.9669
  917MOL0     H23743  10.126   3.550   5.528 -0.5197  0.3530  2.2226
  917MOL0     H23744  10.327   3.706   5.433 -1.3728  0.3303 -0.5092
  917MOL0     H23745  10.312   3.794   5.575 -1.4586 -0.3663  1.2268
  917MOL0     H23746  10.316   3.402   5.482  0.9694 -4.3786  1.9716
  917MOL0     H23747  10.534   3.224   5.658 -2.7886  0.3386 -0.3733
  917MOL0     H23748  10.494   3.245   5.485 -0.5248  1.6441 -0.6452
  917MOL0     H23749  10.690   3.324   5.418  2.5152  1.8944  0.1038
  917MOL0     H23750  10.760   3.332   5.585  1.8256 -1.7498  0.2627
  917MOL0     H23751  10.829   3.128   5.438 -0.3132 -0.7186 -0.0586
  917MOL0     H23752  10.669   3.065   5.493 -3.5695  1.7969  2.4200
  917MOL0     H23753  10.839   2.984   5.646  0.3883 -0.2948  1.3214
  917MOL0     H23754  10.740   3.102   5.723  1.4758 -2.2838 -0.1946
  917MOL0     H23755  11.156   3.309   5.698  0.4822  0.7370 -0.8118
  917MOL0     H23756  11.334   3.322   5.542  0.2752 -0.2708  1.6954
  917MOL0     H23757  11.374   2.967   5.015  0.4673  2.9062 -3.5285
  917MOL0     H23758  11.547   2.913   4.858 -2.9268 -3.0597  2.3338
  917MOL0     H23759  11.921   2.837   5.007 -0.3140  0.1227  0.2536
  917MOL0     H23760  11.963   2.805   4.849 -1.5495 -1.0261  0.5523
  917MOL0     H23761  11.968   3.094   4.883 -2.5485 -2.0027 -0.7602
  917MOL0     H23762  12.057   3.037   5.019  2.0195  2.3313 -1.4935
  917MOL0     H23763  12.223   3.061   4.857  0.1749 -0.4162 -0.9432
  917MOL0     H23764  12.185   2.888   4.867 -1.1109  0.2294  1.7120
  917MOL0     H23765  12.066   3.064   4.651  2.8569  0.4988 -3.0065
  917MOL0     H23766  12.060   2.890   4.666  0.7720  0.2653 -2.7081
  917MOL0     H23767  12.322   3.044   4.644  0.3649  0.9132 -1.1296
  917MOL0     H23768  12.240   3.001   4.506  0.4941  1.5072  0.7151
  917MOL0     H23769  12.426   2.861   4.618 -0.4255  2.3425  3.6855
  917MOL0     H23770  12.302   2.786   4.713  1.5281  1.6799  2.2960
  917MOL0     H23771  12.324   2.792   4.406 -0.6058 -0.9480  0.4200
  917MOL0     H23772  12.182   2.718   4.484  0.1899 -1.4022 -2.1514
  917MOL0     H23773  12.349   2.599   4.622  0.4090  2.3910  0.0870
  917MOL0     H23774  12.348   2.542   4.448 -0.8125  0.6386 -1.0016
  917MOL0     H23775  11.840   3.015   5.147 -0.9703 -2.2405  1.5505
  917MOL0     H23776  11.671   3.069   5.307 -2.1508 -1.1575  0.4733
  917MOL0     H23777  11.191   2.970   5.352 -2.6842  0.6455 -1.8636
  917MOL0     H23778  10.996   2.965   5.513 -0.3325 -0.2528  1.4944
  917MOL0     H23779   9.743   4.004   6.406  1.2305 -3.2727  3.6104
  917MOL0     H23780   9.506   3.990   6.478  1.2390  1.8350 -0.4954
  917MOL0     H23781   9.102   3.919   6.395  2.2315 -1.7157 -0.2395
  917MOL0     H23782   8.850   3.915   6.446 -1.8050 -1.7199 -2.1809
  917MOL0     H23783   8.759   3.858   6.830 -0.0229 -1.2022 -0.0806
  917MOL0     H23784   8.695   3.691   6.807  0.1268 -0.3584 -0.9995
  917MOL0     H23785   8.557   3.963   6.785 -0.4112  0.4247 -1.0258
  917MOL0     H23786   8.518   3.838   6.891 -1.8008 -2.0059 -0.4333
  917MOL0     H23787   8.473   3.809   6.590  0.0425  0.8860  1.1079
  917MOL0     H23788   8.359   3.871   6.699  2.6059  2.0422 -2.3081
  917MOL0     H23789   8.323   3.620   6.638  3.3791 -2.8906 -1.5743
  917MOL0     H23790   8.484   3.587   6.710  0.9447  0.4503 -2.1528
  917MOL0     H23791   8.311   3.583   7.069 -1.3407  2.0296 -0.0085
  917MOL0     H23792   8.926   3.660   6.780  1.3741  1.1595  0.0842
  917MOL0     H23793   9.232   3.684   6.820  1.6505  0.0755 -1.4134
  917MOL0     H23794   9.098   3.564   6.808 -3.4128  3.1472  0.1109
  917MOL0     H23795   9.241   3.564   6.693  0.4244 -1.7304  3.9118
  918MOL0     O23796   8.335   2.600   5.386  0.0219  0.3114  0.8568
  918MOL0     C23797   8.291   2.611   5.274 -0.7646  0.4578 -0.9094
  918MOL0     O23798   8.321   2.524   5.175  0.4425  0.2972  1.1589
  918MOL0     C23799   8.388   2.417   5.209 -1.3033  0.3573 -0.1171
  918MOL0     C23800   8.524   2.415   5.191  0.1257 -0.4532  0.1626
  918MOL0     C23801   8.599   2.305   5.245  0.0886 -0.8214 -0.3709
  918MOL0     C23802   8.534   2.182   5.278  1.1667 -0.7679 -0.1202
  918MOL0     O23803   8.603   2.071   5.325 -0.0303 -0.9598  0.4885
  918MOL0     C23804   8.717   2.095   5.414  0.1674 -0.8319  0.0265
  918MOL0     C23805   8.849   2.021   5.403 -0.2856 -0.3428  0.8203
  918MOL0     C23806   8.830   1.871   5.398 -0.3090  0.5262  0.7527
  918MOL0     C23807   8.968   1.812   5.397 -0.1535  0.6852 -0.0513
  918MOL0     C23808   8.964   1.659   5.408 -0.8375 -0.5028  0.3972
  918MOL0     C23809   9.109   1.602   5.435 -0.2291 -0.6234 -0.9197
  918MOL0     C23810   9.153   1.618   5.589 -0.3571 -0.2618  0.9220
  918MOL0     C23811   9.268   1.522   5.620 -0.5527  0.1432 -0.4117
  918MOL0     N23812   9.306   1.520   5.762  0.0363 -0.1450 -1.3446
  918MOL0     C23813   9.380   1.425   5.822  0.0917  0.0445 -0.0238
  918MOL0     C23814   9.365   1.440   5.951  0.2760 -0.0280 -0.0576
  918MOL0     C23815   9.436   1.361   6.062 -0.5830 -0.0918  0.2981
  918MOL0     C23816   9.516   1.445   6.153  0.0467  0.2833 -0.1480
  918MOL0     C23817   9.538   1.357   6.280  1.0271  0.1084 -0.4177
  918MOL0     C23818   9.647   1.409   6.372 -0.4934 -0.3194  0.6974
  918MOL0     O23819   9.612   1.555   6.390  0.0750  0.9853  0.2649
  918MOL0     C23820   9.721   1.631   6.413 -0.4076 -0.5502  1.1171
  918MOL0     C23821   9.713   1.715   6.521  0.3963  0.2900 -0.9007
  918MOL0     C23822   9.811   1.814   6.542  0.5298  0.2455  0.1857
  918MOL0     C23823   9.917   1.824   6.457  0.2467 -0.7335 -0.3077
  918MOL0     C23824  10.025   1.920   6.480 -0.0988  0.5881 -0.9352
  918MOL0     O23825  10.021   1.973   6.615 -0.3591 -0.1843  0.3761
  918MOL0     C23826  10.132   2.050   6.651 -0.0226  0.1951  0.2521
  918MOL0     C23827  10.142   2.194   6.629 -0.2037  0.6546  0.4564
  918MOL0     C23828  10.267   2.263   6.660  0.4206 -0.4281 -0.1468
  918MOL0     C23829  10.381   2.189   6.700  0.9488  0.3622  0.5418
  918MOL0     O23830  10.506   2.243   6.724  1.1700  0.4888  1.0253
  918MOL0     C23831  10.558   2.371   6.669  0.5832 -0.2177 -0.3396
  918MOL0     C23832  10.702   2.371   6.658  0.2840  0.6968  0.4517
  918MOL0     C23833  10.759   2.512   6.620  0.6877 -0.1720 -0.0434
  918MOL0     C23834  10.907   2.524   6.609  0.5950 -0.7656 -0.5556
  918MOL0     C23835  10.945   2.663   6.556 -0.1802 -0.2974 -0.1908
  918MOL0     C23836  11.099   2.663   6.519 -0.5881  0.0462  0.4132
  918MOL0     C23837  11.161   2.805   6.520  0.4617 -0.1960 -0.4352
  918MOL0     C23838  11.121   2.880   6.399 -0.1697  0.0358 -0.5846
  918MOL0    Cl23839  10.961   2.962   6.425  0.4487 -0.0242 -0.3085
  918MOL0     C23840  10.371   2.055   6.731  0.4008 -0.0774  0.0175
  918MOL0     C23841  10.249   1.990   6.711 -0.5337 -0.1808 -0.5634
  918MOL0     O23842  10.116   1.936   6.395 -0.7038 -0.1259  0.0071
  918MOL0     C23843   9.927   1.733   6.352  0.4345 -0.1096  1.1673
  918MOL0     C23844   9.828   1.649   6.322  0.8136 -0.0516 -0.0513
  918MOL0     N23845   9.283   1.555   5.975  0.6980 -0.0255 -0.0542
  918MOL0     N23846   9.243   1.593   5.860 -1.1696 -0.4960 -0.8048
  918MOL0     C23847   8.398   2.178   5.278 -0.0072  0.3815 -0.3270
  918MOL0     C23848   8.327   2.301   5.262 -0.4706  1.4924 -0.4336
  918MOL0     C23849   8.217   2.737   5.255 -0.0521  0.3618 -0.3278
  918MOL0     C23850   8.144   2.790   5.365  0.1007 -0.1434 -0.6186
  918MOL0     C23851   8.082   2.920   5.360  0.3813 -0.3089  0.4215
  918MOL0     C23852   8.081   2.988   5.239 -0.1234  0.3088 -0.3303
  918MOL0     O23853   8.016   3.108   5.229 -0.2649 -0.4388  0.3510
  918MOL0     C23854   8.044   3.196   5.121 -0.0111 -0.4881  0.2041
  918MOL0     C23855   8.178   3.258   5.133  0.3073  0.1076 -0.0919
  918MOL0     C23856   8.222   3.336   5.003 -0.3111 -0.1433  0.7122
  918MOL0     C23857   8.258   3.243   4.887 -0.0666 -0.0877  0.3438
  918MOL0     C23858   8.374   3.149   4.893 -0.3552  0.1192  0.0241
  918MOL0     C23859   8.465   3.069   4.895  0.3644  0.8269  0.1823
  918MOL0     C23860   8.152   2.938   5.128  0.2280  0.6468 -0.1579
  918MOL0     C23861   8.222   2.810   5.133  1.1096 -0.3347  0.0409
  918MOL0     C23862   8.302   2.769   5.007  1.0926  0.3253 -1.0748
  918MOL0     H23863   8.578   2.505   5.163  0.0359 -0.1813  0.8441
  918MOL0     H23864   8.706   2.321   5.250 -0.3415  3.2634 -0.2748
  918MOL0     H23865   8.743   2.201   5.430  0.6232 -1.2496  2.4937
  918MOL0     H23866   8.686   2.076   5.517 -0.3011 -1.2194 -0.1879
  918MOL0     H23867   8.905   2.037   5.496 -2.1047 -1.7183  2.2072
  918MOL0     H23868   8.902   2.060   5.315 -1.3571  2.9144  1.4962
  918MOL0     H23869   8.786   1.836   5.304  3.3372  1.5405 -1.5451
  918MOL0     H23870   8.768   1.837   5.482 -1.2922 -0.2905 -0.2613
  918MOL0     H23871   9.019   1.846   5.306 -0.3312  0.8868 -0.0759
  918MOL0     H23872   9.040   1.852   5.469 -0.2875 -1.6647  1.5008
  918MOL0     H23873   8.903   1.626   5.492 -0.8658  1.5861  1.2529
  918MOL0     H23874   8.917   1.630   5.314  1.7627 -0.1253 -1.1020
  918MOL0     H23875   9.109   1.498   5.401  1.7220 -0.4325 -1.6335
  918MOL0     H23876   9.184   1.655   5.375  1.7914 -3.6263 -1.2591
  918MOL0     H23877   9.068   1.599   5.655 -1.4855  0.2135 -0.3536
  918MOL0     H23878   9.194   1.719   5.597 -0.8733  0.0168  0.1272
  918MOL0     H23879   9.239   1.425   5.578 -1.4980 -0.1988  0.9696
  918MOL0     H23880   9.350   1.551   5.554 -0.7844  2.2983  0.1847
  918MOL0     H23881   9.443   1.353   5.772 -0.9027 -1.4652  0.8199
  918MOL0     H23882   9.361   1.319   6.129 -0.1642 -0.3262  0.6212
  918MOL0     H23883   9.494   1.283   6.011  1.1141  2.1744 -1.4387
  918MOL0     H23884   9.616   1.460   6.111 -0.9702  0.1140 -2.8074
  918MOL0     H23885   9.461   1.535   6.181 -0.2399  1.0206 -2.8750
  918MOL0     H23886   9.566   1.257   6.245  2.2077  0.8859 -1.7755
  918MOL0     H23887   9.447   1.360   6.342  1.6439  0.0896  0.5136
  918MOL0     H23888   9.745   1.387   6.329  0.7955  0.0317  3.2642
  918MOL0     H23889   9.645   1.342   6.458  2.3964  1.4848  2.3395
  918MOL0     H23890   9.640   1.703   6.600  2.8934 -0.4364  1.4640
  918MOL0     H23891   9.793   1.884   6.623 -2.0343  0.3356 -0.3667
  918MOL0     H23892  10.051   2.249   6.606 -0.8071 -0.3435  0.3781
  918MOL0     H23893  10.280   2.371   6.665  2.4210 -0.6979  2.4854
  918MOL0     H23894  10.506   2.387   6.574 -1.4238  0.0279  0.7432
  918MOL0     H23895  10.531   2.451   6.737 -0.6278  1.8018 -3.0105
  918MOL0     H23896  10.746   2.334   6.751  0.4299  0.2943  0.2257
  918MOL0     H23897  10.740   2.301   6.583  0.0847  0.4741  0.5566
  918MOL0     H23898  10.724   2.548   6.523 -1.0077 -1.8461 -0.0984
  918MOL0     H23899  10.724   2.583   6.696 -0.1587  1.8784 -2.2065
  918MOL0     H23900  10.950   2.441   6.553 -1.0035 -3.8049  2.4000
  918MOL0     H23901  10.948   2.529   6.711 -1.4697  1.0818  0.2624
  918MOL0     H23902  10.934   2.751   6.620 -3.1097 -0.6947  0.0060
  918MOL0     H23903  10.884   2.682   6.467  2.4635 -1.1649 -2.3235
  918MOL0     H23904  11.151   2.613   6.602 -0.6368  0.3550  0.6307
  918MOL0     H23905  11.107   2.618   6.420 -0.9872 -0.8986  0.7896
  918MOL0     H23906  11.269   2.794   6.515  0.6540  1.2538  0.0466
  918MOL0     H23907  11.125   2.854   6.612 -2.6064 -0.6610 -1.2803
  918MOL0     H23908  11.189   2.959   6.365 -0.3996  0.0568 -0.9972
  918MOL0     H23909  11.123   2.810   6.315  0.6115  1.7701 -2.0838
  918MOL0     H23910  10.459   2.002   6.766  0.8821  0.9418  0.4042
  918MOL0     H23911  10.249   1.882   6.708 -0.9412 -0.2155  0.4710
  918MOL0     H23912  10.014   1.732   6.288 -0.6533 -0.9857 -0.3488
  918MOL0     H23913   9.836   1.574   6.244  1.7998  1.3551 -1.3602
  918MOL0     H23914   8.358   2.081   5.308  0.1871  0.4430  0.1224
  918MOL0     H23915   8.223   2.290   5.290 -0.2704  2.5296  0.7973
  918MOL0     H23916   8.144   2.746   5.465 -0.8829 -1.0704 -1.0088
  918MOL0     H23917   8.030   2.971   5.440 -0.3451  1.4712 -1.0959
  918MOL0     H23918   7.971   3.276   5.129  1.5082  1.0797 -1.0027
  918MOL0     H23919   8.040   3.141   5.026  4.1188 -1.8319  0.5920
  918MOL0     H23920   8.253   3.180   5.150 -1.6536 -1.4864  1.7527
  918MOL0     H23921   8.176   3.337   5.209 -1.9900  2.5337 -2.4473
  918MOL0     H23922   8.303   3.409   5.014  1.6681 -2.2149  0.6785
  918MOL0     H23923   8.141   3.403   4.971  0.7907  3.1440  4.0263
  918MOL0     H23924   8.170   3.192   4.846  0.4439 -0.1807 -0.6598
  918MOL0     H23925   8.281   3.316   4.808 -1.8402 -0.0104 -0.1344
  918MOL0     H23926   8.527   2.982   4.904 -2.4274 -1.1677  1.7147
  918MOL0     H23927   8.156   2.988   5.032  0.2769 -1.3636 -1.2787
  918MOL0     H23928   8.297   2.852   4.935  0.2305 -0.3590 -1.8352
  918MOL0     H23929   8.405   2.734   5.019  1.3566  0.7937 -1.8778
  918MOL0     H23930   8.244   2.684   4.970  3.6524 -1.2375 -1.6702
  919MOL0     O23931  10.380   4.425   1.933 -0.7822 -0.6365  0.5836
  919MOL0     C23932  10.336   4.314   1.896 -1.2899 -0.0019  0.5589
  919MOL0     O23933  10.292   4.291   1.764  0.7735 -0.2595 -0.4091
  919MOL0     C23934  10.321   4.370   1.659 -0.0295  0.2632  0.4569
  919MOL0     C23935  10.422   4.334   1.563  0.5009 -1.1120  0.6428
  919MOL0     C23936  10.458   4.422   1.461  0.0740  0.6235  0.5232
  919MOL0     C23937  10.376   4.541   1.444  0.7408  0.7826  0.5303
  919MOL0     O23938  10.399   4.634   1.347  0.5999 -0.7960 -0.4984
  919MOL0     C23939  10.531   4.698   1.342  0.0367  0.1885 -0.4816
  919MOL0     C23940  10.572   4.769   1.475  0.9807 -0.6818  0.1680
  919MOL0     C23941  10.490   4.895   1.482 -0.5970  0.0612  0.0723
  919MOL0     C23942  10.476   4.960   1.619 -0.2900  1.3151  0.2735
  919MOL0     C23943  10.368   5.068   1.617 -0.8200  0.2530 -0.2435
  919MOL0     C23944  10.218   5.025   1.602 -0.3348  2.0375  0.2382
  919MOL0     C23945  10.158   4.907   1.683  0.8663  0.8636 -1.1713
  919MOL0     C23946  10.015   4.873   1.635  0.6083  1.1698 -0.5333
  919MOL0     N23947   9.965   4.751   1.700 -0.1462  0.2702  0.0495
  919MOL0     C23948   9.944   4.728   1.835 -0.1266  0.0864 -0.1349
  919MOL0     C23949   9.888   4.603   1.842 -0.6451 -0.1773 -0.2290
  919MOL0     C23950   9.833   4.520   1.956 -0.7071 -0.8368  0.1723
  919MOL0     C23951   9.712   4.586   2.003  0.6179 -0.1500  0.1093
  919MOL0     C23952   9.663   4.555   2.143 -0.3991  0.5639  0.2252
  919MOL0     C23953   9.657   4.399   2.165  0.2027  0.7809  0.5449
  919MOL0     O23954   9.634   4.377   2.303  0.0231 -0.7932 -0.3048
  919MOL0     C23955   9.736   4.381   2.404  0.1112  0.2297  0.5054
  919MOL0     C23956   9.869   4.385   2.377 -0.1891  0.4279 -0.6608
  919MOL0     C23957   9.968   4.400   2.473 -0.5202  0.1085  0.0975
  919MOL0     C23958   9.941   4.418   2.600  0.4260 -0.0381 -0.1298
  919MOL0     C23959  10.039   4.450   2.719  0.4762 -0.2308 -0.3790
  919MOL0     O23960   9.971   4.479   2.836 -0.5332 -0.6921 -0.7010
  919MOL0     C23961  10.049   4.547   2.926  0.7672  0.1934 -0.3808
  919MOL0     C23962  10.125   4.470   3.021 -1.3235  0.2099  0.4479
  919MOL0     C23963  10.200   4.541   3.119 -0.1889  0.1344 -0.5829
  919MOL0     C23964  10.203   4.682   3.117  0.5688  0.1182  1.1689
  919MOL0     O23965  10.277   4.726   3.223  0.1845 -0.7961  0.3540
  919MOL0     C23966  10.284   4.867   3.260  0.0751  0.7814 -0.2156
  919MOL0     C23967  10.380   4.957   3.181 -0.4662 -0.6893 -0.5866
  919MOL0     C23968  10.406   5.083   3.259 -0.3341 -0.5002  0.2459
  919MOL0     C23969  10.413   5.208   3.168 -0.3936  0.3187  0.8931
  919MOL0     C23970  10.463   5.316   3.259  0.8911  0.5636 -0.5606
  919MOL0     C23971  10.484   5.447   3.181 -0.5827  0.6977 -1.0618
  919MOL0     C23972  10.605   5.460   3.095  0.1326  0.0526  0.4120
  919MOL0     C23973  10.640   5.613   3.069 -0.1163 -0.6142 -0.0037
  919MOL0    Cl23974  10.705   5.681   3.226 -0.5510  0.1873  0.2564
  919MOL0     C23975  10.133   4.756   3.019  0.0823  0.4850 -0.2536
  919MOL0     C23976  10.063   4.681   2.923 -0.1785  0.1035 -0.3430
  919MOL0     O23977  10.148   4.478   2.690 -0.2448  0.1950  0.5488
  919MOL0     C23978   9.802   4.420   2.632  0.6272  0.3060 -0.7207
  919MOL0     C23979   9.699   4.396   2.536 -0.5963  0.2012 -0.8642
  919MOL0     N23980   9.898   4.548   1.718 -0.2394 -1.1723  0.0952
  919MOL0     N23981   9.937   4.636   1.632 -0.2571 -0.3043  0.1060
  919MOL0     C23982  10.268   4.562   1.531  0.0647 -0.2710 -0.1242
  919MOL0     C23983  10.244   4.483   1.644 -0.8824 -0.9308 -0.5294
  919MOL0     C23984  10.298   4.226   2.009  0.7248 -0.5766  0.1079
  919MOL0     C23985  10.169   4.194   2.038  0.9193  0.3992 -0.9345
  919MOL0     C23986  10.122   4.115   2.144  0.8087  0.4268  0.2503
  919MOL0     C23987  10.218   4.065   2.232 -0.4576 -0.3531  0.6952
  919MOL0     O23988  10.174   3.996   2.338 -0.3994  0.5056 -0.2152
  919MOL0     C23989  10.263   3.939   2.444  0.2501 -0.6752  0.2492
  919MOL0     C23990  10.319   4.043   2.538  0.2267 -0.3939 -0.0239
  919MOL0     C23991  10.211   4.144   2.596 -0.3013  0.1780 -0.7838
  919MOL0     C23992  10.149   4.098   2.727 -0.1231  0.9876 -0.5137
  919MOL0     C23993  10.239   4.101   2.835 -0.6435 -0.3309 -0.3640
  919MOL0     C23994  10.324   4.136   2.919  0.5852  0.8681  0.2310
  919MOL0     C23995  10.357   4.082   2.194  0.4098 -0.0259 -0.3673
  919MOL0     C23996  10.396   4.155   2.082  0.7389 -0.2921  0.6709
  919MOL0     C23997  10.553   4.169   2.059  0.5816  0.3754 -0.4124
  919MOL0     H23998  10.478   4.243   1.580  1.2948 -0.7511  0.0137
  919MOL0     H23999  10.539   4.392   1.396  0.8287  0.0600  1.6782
  919MOL0     H24000  10.602   4.619   1.315 -2.4571 -1.5727 -2.4261
  919MOL0     H24001  10.532   4.768   1.258 -2.6799  2.1828  0.9891
  919MOL0     H24002  10.678   4.796   1.479  0.7160  0.3275  0.7240
  919MOL0     H24003  10.557   4.706   1.563  2.7123 -1.6664 -0.1896
  919MOL0     H24004  10.396   4.872   1.431  1.1498 -3.4345 -1.9630
  919MOL0     H24005  10.546   4.968   1.423  0.4719 -1.0830 -0.3847
  919MOL0     H24006  10.458   4.887   1.699  2.8054 -1.0526 -1.0091
  919MOL0     H24007  10.574   4.996   1.651  1.2576 -2.0200 -0.2855
  919MOL0     H24008  10.372   5.127   1.709 -3.2733  0.7909 -0.4078
  919MOL0     H24009  10.382   5.134   1.531 -0.0824  1.7169  0.9590
  919MOL0     H24010  10.158   5.116   1.610 -1.2225  1.6534 -1.5367
  919MOL0     H24011  10.200   4.996   1.498 -0.6762 -0.9486  1.0527
  919MOL0     H24012  10.160   4.924   1.791  1.4262 -3.7788 -0.2265
  919MOL0     H24013  10.221   4.818   1.673 -1.2408 -1.0918  1.4960
  919MOL0     H24014   9.946   4.956   1.655  0.7376  1.7301 -2.2864
  919MOL0     H24015  10.013   4.868   1.526 -1.9275  2.8169 -0.6482
  919MOL0     H24016   9.961   4.804   1.910  0.2529  1.8989 -1.9648
  919MOL0     H24017   9.804   4.425   1.909 -1.1485  0.0748 -1.4762
  919MOL0     H24018   9.913   4.515   2.031 -0.8842  3.0588  0.8095
  919MOL0     H24019   9.727   4.694   1.991  2.2941 -0.4080 -0.3445
  919MOL0     H24020   9.627   4.556   1.941  0.7348 -1.5879  0.6155
  919MOL0     H24021   9.557   4.582   2.142 -0.5916 -0.1439 -1.1946
  919MOL0     H24022   9.729   4.604   2.215 -0.2846 -1.6002  1.6559
  919MOL0     H24023   9.750   4.354   2.130 -0.6881 -0.9262  0.2587
  919MOL0     H24024   9.586   4.343   2.103 -0.6586 -0.4853  2.5656
  919MOL0     H24025   9.908   4.383   2.275  1.7952 -1.1887  0.0546
  919MOL0     H24026  10.073   4.421   2.453 -0.7818  4.4828  2.0914
  919MOL0     H24027  10.135   4.363   3.009  3.3494  0.7422 -4.7577
  919MOL0     H24028  10.260   4.481   3.186  1.4640 -0.4016 -2.4672
  919MOL0     H24029  10.186   4.913   3.241  0.6355  1.0014 -2.9420
  919MOL0     H24030  10.308   4.877   3.366 -2.1916  2.3652  0.2371
  919MOL0     H24031  10.476   4.912   3.155  0.4083  1.1327 -0.6875
  919MOL0     H24032  10.338   4.970   3.081  4.6009 -2.5240 -3.3105
  919MOL0     H24033  10.327   5.105   3.332 -1.6401  0.7266 -1.4586
  919MOL0     H24034  10.505   5.068   3.304 -0.3045 -2.5517 -0.3864
  919MOL0     H24035  10.316   5.220   3.118 -2.0215 -1.5077  3.3946
  919MOL0     H24036  10.487   5.187   3.092 -2.1261  1.5173 -1.2510
  919MOL0     H24037  10.562   5.290   3.298  2.1810  3.6563 -1.4720
  919MOL0     H24038  10.395   5.342   3.342 -1.6210  0.8646 -2.5738
  919MOL0     H24039  10.398   5.473   3.118 -1.1705  1.6641  0.1067
  919MOL0     H24040  10.492   5.525   3.258  0.6301  0.9949 -1.4526
  919MOL0     H24041  10.574   5.408   3.004  1.6418 -0.0222 -0.0885
  919MOL0     H24042  10.692   5.411   3.141  0.2004  2.7301  3.5066
  919MOL0     H24043  10.701   5.617   2.978  0.5647  0.0646  0.4671
  919MOL0     H24044  10.560   5.669   3.022  0.5904 -0.2514 -0.8042
  919MOL0     H24045  10.133   4.865   3.025  5.9469  0.7661  0.3460
  919MOL0     H24046   9.998   4.720   2.846 -0.5915  0.3624  0.1298
  919MOL0     H24047   9.773   4.434   2.735 -3.5197 -0.5531 -1.6056
  919MOL0     H24048   9.597   4.405   2.572  0.6945 -1.2342  3.7481
  919MOL0     H24049  10.202   4.642   1.500  0.4648 -0.6407 -2.0855
  919MOL0     H24050  10.167   4.521   1.710  0.3851 -0.1256  0.5426
  919MOL0     H24051  10.105   4.241   1.963  1.1267 -0.8212 -1.8941
  919MOL0     H24052  10.015   4.114   2.161  0.1546  1.1103 -3.0996
  919MOL0     H24053  10.341   3.881   2.395 -0.0993 -0.4198 -0.6322
  919MOL0     H24054  10.202   3.863   2.493  1.8535 -1.5670  0.8999
  919MOL0     H24055  10.406   4.092   2.494  0.2932 -0.1412  0.3821
  919MOL0     H24056  10.353   3.982   2.622 -3.1691 -1.4626  0.7443
  919MOL0     H24057  10.128   4.179   2.534 -1.0543  0.1643  0.1846
  919MOL0     H24058  10.265   4.237   2.619  1.9128 -1.4595  1.2342
  919MOL0     H24059  10.077   4.176   2.753  0.8858  1.2822  1.6564
  919MOL0     H24060  10.099   4.001   2.716 -1.2592  1.5090 -0.0938
  919MOL0     H24061  10.388   4.171   2.998  1.2658  0.5884 -0.1919
  919MOL0     H24062  10.439   4.047   2.256  0.1705 -0.3838 -0.2441
  919MOL0     H24063  10.609   4.095   2.116 -0.7969 -1.6856 -1.5970
  919MOL0     H24064  10.584   4.159   1.955 -2.0602  1.9048 -1.4538
  919MOL0     H24065  10.593   4.264   2.095  1.9687 -0.6771  0.9310
  920MOL0     O24066   0.719   0.203   6.008 -0.6165  0.3668 -0.5864
  920MOL0     C24067   0.649   0.211   5.904 -0.4426 -0.2142 -0.2393
  920MOL0     O24068   0.700   0.185   5.782  0.4633 -0.4854  0.1333
  920MOL0     C24069   0.835   0.160   5.765  0.1605  0.0963 -0.1987
  920MOL0     C24070   0.888   0.030   5.758  0.1547 -0.2492 -0.8087
  920MOL0     C24071   1.025   0.013   5.756  0.0844  0.1865  0.7921
  920MOL0     C24072   1.108   0.123   5.754  0.6072 -0.1777 -0.0205
  920MOL0     O24073   1.243   0.117   5.755  0.0563  0.5163  0.2753
  920MOL0     C24074   1.315  -0.004   5.722  0.0946  0.5557 -0.6128
  920MOL0     C24075   1.353  -0.095   5.849  0.0370  1.0577  0.4303
  920MOL0     C24076   1.462  -0.017   5.913  0.2656 -0.3114  0.4160
  920MOL0     C24077   1.529  -0.097   6.025  0.5997  0.7527 -0.2119
  920MOL0     C24078   1.655  -0.028   6.073 -0.9190 -0.4059 -0.2161
  920MOL0     C24079   1.699  -0.057   6.215  0.5806 -0.0035 -0.1016
  920MOL0     C24080   1.680  -0.203   6.251  0.7786 -0.8337  0.5290
  920MOL0     C24081   1.751  -0.229   6.385 -0.2303  0.0048  0.9962
  920MOL0     N24082   1.665  -0.184   6.495 -0.6542  0.2074  0.2065
  920MOL0     C24083   1.532  -0.218   6.528 -0.6486  0.7271 -0.6340
  920MOL0     C24084   1.495  -0.132   6.635 -0.7882  0.5573 -0.3677
  920MOL0     C24085   1.377  -0.143   6.723  0.3496  0.0996 -0.7477
  920MOL0     C24086   1.342  -0.290   6.760  0.0184  0.3661  0.2598
  920MOL0     C24087   1.458  -0.361   6.838  0.4108 -0.0863  0.8546
  920MOL0     C24088   1.411  -0.481   6.917  0.0599 -0.3079  0.4321
  920MOL0     O24089   1.523  -0.521   6.999 -0.1954 -0.5970 -0.5724
  920MOL0     C24090   1.497  -0.621   7.093 -0.0082 -0.6723 -0.2093
  920MOL0     C24091   1.386  -0.699   7.093 -0.1351  0.3710  0.7461
  920MOL0     C24092   1.385  -0.812   7.169 -1.6868 -0.3350 -0.3613
  920MOL0     C24093   1.491  -0.841   7.264 -0.3039 -0.1786  0.4752
  920MOL0     C24094   1.481  -0.955   7.359  0.0992  0.2331  0.5374
  920MOL0     O24095   1.591  -0.979   7.440 -0.6640  0.1671 -0.5304
  920MOL0     C24096   1.590  -1.095   7.517  0.9575  0.4209 -0.1325
  920MOL0     C24097   1.531  -1.096   7.647  0.7308  0.1122  1.2492
  920MOL0     C24098   1.540  -1.206   7.727  0.5969 -0.3864  0.2493
  920MOL0     C24099   1.597  -1.323   7.672  0.2674 -0.4953 -0.3730
  920MOL0     O24100   1.607  -1.428   7.766 -0.5323 -0.1384  0.3017
  920MOL0     C24101   1.703  -1.537   7.734  0.3400 -0.1611  1.0066
  920MOL0     C24102   1.685  -1.651   7.833 -0.5262  0.2275  0.7707
  920MOL0     C24103   1.782  -1.761   7.800  0.0501 -0.0784  1.2964
  920MOL0     C24104   1.722  -1.900   7.839 -0.4711 -0.2112  0.4765
  920MOL0     C24105   1.813  -2.004   7.805  0.0090  0.3130  0.7935
  920MOL0     C24106   1.760  -2.146   7.841 -0.8623  0.4707 -0.2696
  920MOL0     C24107   1.799  -2.210   7.976  0.1308 -0.3395  0.3828
  920MOL0     C24108   1.701  -2.158   8.082  0.3379 -1.1844  0.0008
  920MOL0    Cl24109   1.557  -2.257   8.070  0.4449  0.2847  0.1579
  920MOL0     C24110   1.648  -1.323   7.542 -0.0173 -0.4942  0.0331
  920MOL0     C24111   1.646  -1.206   7.463 -0.1803 -0.7559  0.5537
  920MOL0     O24112   1.380  -1.020   7.351 -0.0255 -0.2402 -0.3846
  920MOL0     C24113   1.613  -0.769   7.257 -0.4109 -0.0773 -0.3232
  920MOL0     C24114   1.611  -0.659   7.166 -0.1834 -0.1852 -0.7150
  920MOL0     N24115   1.600  -0.039   6.646  0.4497 -0.8161 -0.6053
  920MOL0     N24116   1.696  -0.067   6.564 -1.0234 -0.4176  0.4011
  920MOL0     C24117   1.057   0.253   5.759 -0.0736  0.5525 -0.7545
  920MOL0     C24118   0.923   0.270   5.767  0.7285 -0.6414 -0.2988
  920MOL0     C24119   0.507   0.251   5.903 -0.5051  0.9322 -0.9577
  920MOL0     C24120   0.450   0.299   5.792  0.0599 -0.3221  0.9232
  920MOL0     C24121   0.321   0.349   5.798  0.8532  0.7405  0.5815
  920MOL0     C24122   0.238   0.329   5.907  0.3314  0.7405 -0.3785
  920MOL0     O24123   0.108   0.373   5.929 -0.0727 -0.0410  0.6184
  920MOL0     C24124   0.036   0.448   5.826 -0.4057  0.3659  0.2127
  920MOL0     C24125  -0.104   0.476   5.875  0.6344  0.0304  0.6958
  920MOL0     C24126  -0.118   0.509   6.026 -1.4559 -0.4520 -0.0306
  920MOL0     C24127  -0.235   0.600   6.058  0.6066 -0.2247 -0.3294
  920MOL0     C24128  -0.360   0.552   6.011  0.0457  0.3520  0.4598
  920MOL0     C24129  -0.458   0.491   5.961 -0.6393  0.0263 -0.6153
  920MOL0     C24130   0.291   0.264   6.020 -0.1587 -0.8834 -0.7116
  920MOL0     C24131   0.425   0.227   6.022  0.3632  0.7079  0.5871
  920MOL0     C24132   0.475   0.179   6.151  0.5529  0.2880 -0.0011
  920MOL0     H24133   0.818  -0.053   5.757  0.8379 -0.9085  0.8890
  920MOL0     H24134   1.078  -0.081   5.757 -0.3716 -0.1124 -0.7393
  920MOL0     H24135   1.255  -0.070   5.660 -2.6310  0.9656  1.3945
  920MOL0     H24136   1.406   0.019   5.665  1.5099  0.6727  1.5947
  920MOL0     H24137   1.401  -0.189   5.821  0.3782  1.1328  0.7635
  920MOL0     H24138   1.272  -0.125   5.916 -1.7788  0.6653 -1.7851
  920MOL0     H24139   1.413   0.075   5.944 -1.2604 -1.9537  3.2838
  920MOL0     H24140   1.542   0.002   5.842  3.1131 -4.0633  2.2828
  920MOL0     H24141   1.456  -0.099   6.106 -0.2879  0.9116 -0.9892
  920MOL0     H24142   1.549  -0.199   5.989  0.9233  1.3671 -1.8708
  920MOL0     H24143   1.737  -0.056   6.008  1.8129 -2.6795  3.7663
  920MOL0     H24144   1.644   0.080   6.060 -0.3227 -0.1914  0.9284
  920MOL0     H24145   1.802  -0.019   6.220 -0.0751  1.7140  1.8777
  920MOL0     H24146   1.639   0.006   6.281  0.8896  1.4247 -1.1352
  920MOL0     H24147   1.730  -0.265   6.176  0.3648 -0.0938 -0.3807
  920MOL0     H24148   1.574  -0.229   6.263  0.8267  0.1466  4.7099
  920MOL0     H24149   1.774  -0.335   6.398  1.8296  0.2781 -0.0728
  920MOL0     H24150   1.844  -0.171   6.385 -0.2523  0.2326 -2.3260
  920MOL0     H24151   1.473  -0.303   6.495  1.1457 -1.2140  0.8766
  920MOL0     H24152   1.391  -0.081   6.812  0.3482  0.1537 -0.7851
  920MOL0     H24153   1.296  -0.105   6.660 -0.8438  0.5490  0.9740
  920MOL0     H24154   1.245  -0.278   6.809  0.1444  1.5261  0.2511
  920MOL0     H24155   1.315  -0.343   6.669  4.4587 -1.4866 -0.2558
  920MOL0     H24156   1.510  -0.296   6.909 -1.4531  1.0787  1.2413
  920MOL0     H24157   1.531  -0.390   6.761  2.3418  5.0352  0.3053
  920MOL0     H24158   1.381  -0.564   6.853 -0.7316 -1.8959  2.7674
  920MOL0     H24159   1.333  -0.443   6.983  1.7669  2.3819  1.0952
  920MOL0     H24160   1.303  -0.679   7.026  1.3937  1.5213 -0.9205
  920MOL0     H24161   1.290  -0.865   7.172 -2.2631  0.6146  3.0075
  920MOL0     H24162   1.476  -1.007   7.676 -2.2448 -1.7412  1.7087
  920MOL0     H24163   1.504  -1.200   7.830  1.0277  0.1270  0.3763
  920MOL0     H24164   1.679  -1.562   7.630 -1.0294 -0.2887  1.3328
  920MOL0     H24165   1.810  -1.517   7.740  1.0074 -1.9535 -2.6108
  920MOL0     H24166   1.716  -1.613   7.932  0.3674 -0.7545  0.8870
  920MOL0     H24167   1.582  -1.685   7.834 -0.6910  0.2882 -2.5629
  920MOL0     H24168   1.804  -1.779   7.694 -1.7552 -3.2907  1.3419
  920MOL0     H24169   1.876  -1.749   7.854  1.8023  0.5521 -1.6355
  920MOL0     H24170   1.629  -1.900   7.782 -0.8190  2.3595  0.9040
  920MOL0     H24171   1.692  -1.899   7.944 -0.6916  0.9835  0.4238
  920MOL0     H24172   1.909  -1.993   7.856 -0.7083 -0.0698  2.2804
  920MOL0     H24173   1.840  -2.002   7.699 -0.5606 -2.3858  0.5227
  920MOL0     H24174   1.651  -2.146   7.840 -1.0350 -1.2984  3.2490
  920MOL0     H24175   1.789  -2.214   7.760  1.2571 -1.7639  2.1789
  920MOL0     H24176   1.902  -2.182   7.998  0.4094  1.3476 -2.4826
  920MOL0     H24177   1.790  -2.317   7.993  1.4267 -0.2493  1.7919
  920MOL0     H24178   1.760  -2.170   8.173 -0.3123  1.7941  0.9318
  920MOL0     H24179   1.673  -2.052   8.082 -0.1416 -1.2910  1.2809
  920MOL0     H24180   1.698  -1.398   7.481 -0.8648  1.0829 -2.7814
  920MOL0     H24181   1.694  -1.200   7.366  3.7303 -2.3540  2.1762
  920MOL0     H24182   1.695  -0.805   7.319 -2.4955 -3.4657  0.7554
  920MOL0     H24183   1.694  -0.589   7.174 -0.0069 -0.3312 -1.2600
  920MOL0     H24184   1.120   0.341   5.756  0.8202 -0.0687 -2.6484
  920MOL0     H24185   0.886   0.370   5.786  0.0682 -1.0694  0.8110
  920MOL0     H24186   0.521   0.325   5.714  1.7451 -0.0256  2.4939
  920MOL0     H24187   0.275   0.394   5.710 -1.1491 -0.8724  0.7283
  920MOL0     H24188   0.040   0.394   5.731  3.5258  1.6491 -0.5113
  920MOL0     H24189   0.087   0.542   5.806 -0.8769 -0.1413 -4.8926
  920MOL0     H24190  -0.174   0.394   5.858 -0.0646  1.0091 -1.4868
  920MOL0     H24191  -0.133   0.566   5.820  4.0020  0.3699 -0.8068
  920MOL0     H24192  -0.022   0.559   6.046 -1.4356 -0.9396  1.1793
  920MOL0     H24193  -0.115   0.415   6.082 -0.7006 -0.8315 -0.6787
  920MOL0     H24194  -0.235   0.620   6.165  0.0691 -1.1886 -0.1290
  920MOL0     H24195  -0.215   0.696   6.011 -1.1904 -0.4073 -1.5993
  920MOL0     H24196  -0.536   0.445   5.903 -1.8185  3.1969 -1.7598
  920MOL0     H24197   0.224   0.241   6.102 -0.1758 -0.0319 -0.4731
  920MOL0     H24198   0.565   0.225   6.192  0.5105 -1.4368  2.2408
  920MOL0     H24199   0.395   0.187   6.225  1.0120 -1.3182  0.7218
  920MOL0     H24200   0.511   0.075   6.149 -0.1028  0.0598 -0.3508
  921MOL0     O24201   6.039   1.124   6.158 -0.2156 -0.1771 -0.2306
  921MOL0     C24202   6.127   1.175   6.225 -0.0986  0.5945 -0.9949
  921MOL0     O24203   6.117   1.263   6.335 -0.7313 -0.4725 -0.0581
  921MOL0     C24204   6.006   1.243   6.410  0.4288  0.1721  0.3155
  921MOL0     C24205   5.884   1.296   6.374 -0.1992 -0.3120  0.0567
  921MOL0     C24206   5.772   1.266   6.448  0.2432 -0.9860  0.2508
  921MOL0     C24207   5.783   1.201   6.572 -0.3306  0.2060  0.4409
  921MOL0     O24208   5.677   1.190   6.661  0.8969  0.4387  0.7238
  921MOL0     C24209   5.538   1.215   6.617 -1.1950 -0.6530  0.0965
  921MOL0     C24210   5.499   1.365   6.616  0.4799  0.4465  0.7925
  921MOL0     C24211   5.383   1.397   6.514 -0.1046 -0.2223  0.3042
  921MOL0     C24212   5.255   1.320   6.517  0.2863  0.7125 -0.0922
  921MOL0     C24213   5.157   1.390   6.423 -0.3690 -0.8489  1.1684
  921MOL0     C24214   5.026   1.299   6.425  0.0382 -0.3904  0.1718
  921MOL0     C24215   4.912   1.373   6.352 -0.3471  0.1637  0.5746
  921MOL0     C24216   4.937   1.363   6.203  0.8662  0.3769  1.1502
  921MOL0     N24217   4.828   1.424   6.123 -0.5443 -0.0217 -0.2631
  921MOL0     C24218   4.706   1.360   6.106  0.2864 -0.5711  0.9418
  921MOL0     C24219   4.633   1.472   6.051 -0.9268  0.7315  0.9441
  921MOL0     C24220   4.486   1.487   6.016  0.9525 -0.1726  0.0201
  921MOL0     C24221   4.399   1.370   6.061  0.1759  0.2552 -0.3403
  921MOL0     C24222   4.248   1.389   6.020  0.1879  0.0237  0.0410
  921MOL0     C24223   4.190   1.524   6.060 -0.9622  0.3469  0.4253
  921MOL0     O24224   4.046   1.512   6.085 -0.3180  0.7971 -0.8506
  921MOL0     C24225   3.962   1.500   5.967  0.6245  0.6161 -0.1526
  921MOL0     C24226   4.002   1.492   5.825  0.8143  1.3768 -1.0309
  921MOL0     C24227   3.893   1.472   5.734 -0.7151  0.2852  0.9608
  921MOL0     C24228   3.762   1.478   5.769  0.3779  0.6692 -1.6331
  921MOL0     C24229   3.656   1.450   5.664  1.4301 -1.5231 -0.8103
  921MOL0     O24230   3.689   1.406   5.549 -0.3153 -0.3352  0.1853
  921MOL0     C24231   3.602   1.359   5.457 -0.1792  0.1690  0.4009
  921MOL0     C24232   3.466   1.397   5.434 -0.4461 -0.7226  0.8965
  921MOL0     C24233   3.388   1.340   5.340  0.9280 -0.1703 -0.7910
  921MOL0     C24234   3.436   1.242   5.251  0.3722 -0.5918  1.2491
  921MOL0     O24235   3.357   1.201   5.148 -0.7096  0.7761 -0.3748
  921MOL0     C24236   3.419   1.118   5.045 -0.2118 -0.1297  0.5199
  921MOL0     C24237   3.338   1.115   4.916  0.9574  0.0452  0.0016
  921MOL0     C24238   3.357   0.995   4.820 -0.3483  0.6567 -0.4176
  921MOL0     C24239   3.509   0.967   4.805  0.0291  0.5744  0.1500
  921MOL0     C24240   3.526   0.864   4.696  0.3525 -0.0487  0.5819
  921MOL0     C24241   3.660   0.797   4.698 -0.3654  0.4767 -0.7614
  921MOL0     C24242   3.774   0.902   4.680  0.0286  0.3997  0.0642
  921MOL0     C24243   3.764   0.952   4.528 -0.1453 -0.7719 -0.0174
  921MOL0    Cl24244   3.899   1.061   4.506 -0.1476 -0.0875 -0.3489
  921MOL0     C24245   3.573   1.216   5.258 -0.4290  0.8763 -0.2876
  921MOL0     C24246   3.649   1.269   5.362 -1.0986 -0.3608  0.3732
  921MOL0     O24247   3.539   1.490   5.696 -0.1793 -0.5885 -0.4173
  921MOL0     C24248   3.724   1.486   5.908 -1.1271  0.2276  0.8046
  921MOL0     C24249   3.828   1.492   6.002 -1.0448 -0.3482 -0.4769
  921MOL0     N24250   4.717   1.579   6.045  0.0170 -0.4797  0.7414
  921MOL0     N24251   4.832   1.551   6.080 -0.3647 -0.1066 -0.2056
  921MOL0     C24252   5.906   1.154   6.616  0.2991  0.5231  0.4217
  921MOL0     C24253   6.019   1.167   6.530 -0.1661 -0.5596 -0.9337
  921MOL0     C24254   6.260   1.149   6.167 -0.5784  0.3184 -0.1378
  921MOL0     C24255   6.359   1.239   6.215  0.5411 -0.2236  0.4630
  921MOL0     C24256   6.486   1.230   6.160  0.1781  0.1495  0.0394
  921MOL0     C24257   6.523   1.139   6.062  0.4026 -0.3053 -0.2250
  921MOL0     O24258   6.659   1.142   6.024  0.4593  0.4799 -0.0479
  921MOL0     C24259   6.708   1.028   5.943  0.8229 -0.4193 -0.8522
  921MOL0     C24260   6.693   1.059   5.799 -0.0975 -0.3061 -0.5934
  921MOL0     C24261   6.769   0.948   5.721 -0.3451 -0.6806  0.1433
  921MOL0     C24262   6.907   0.983   5.666  0.2831  0.5231  0.1763
  921MOL0     C24263   6.965   0.856   5.620  0.0540  0.3275 -0.4108
  921MOL0     C24264   7.014   0.751   5.579  0.4692  0.6278  1.3870
  921MOL0     C24265   6.425   1.046   6.017 -0.7229 -0.0810  0.0893
  921MOL0     C24266   6.297   1.052   6.074  0.8936  0.1082  0.1001
  921MOL0     C24267   6.203   0.945   6.026 -0.2899 -0.3496  0.9794
  921MOL0     H24268   5.876   1.341   6.276 -1.0599  0.1093  0.3066
  921MOL0     H24269   5.684   1.325   6.426 -2.3273 -4.6442 -0.2870
  921MOL0     H24270   5.528   1.182   6.513 -0.9092 -1.6395  0.3729
  921MOL0     H24271   5.470   1.152   6.674  0.0785 -2.6061 -0.4451
  921MOL0     H24272   5.579   1.438   6.600  0.6179  0.2231  0.4357
  921MOL0     H24273   5.468   1.394   6.717 -3.1550  0.0431 -0.0742
  921MOL0     H24274   5.418   1.386   6.411 -1.8460 -2.0568 -0.1545
  921MOL0     H24275   5.352   1.501   6.527 -1.3819 -0.6051  0.4748
  921MOL0     H24276   5.278   1.218   6.486  1.1932  1.3750 -1.7727
  921MOL0     H24277   5.215   1.312   6.619  2.8207 -1.1177  0.8452
  921MOL0     H24278   5.154   1.496   6.451  0.0766 -0.0869 -1.4121
  921MOL0     H24279   5.192   1.382   6.319  1.3899 -2.2943  1.8207
  921MOL0     H24280   5.039   1.202   6.376 -3.0080 -1.2425  0.8453
  921MOL0     H24281   4.995   1.282   6.529  4.7516 -0.6857  1.7832
  921MOL0     H24282   4.908   1.479   6.379 -1.4828 -0.1393  1.7151
  921MOL0     H24283   4.816   1.337   6.391 -0.6431  1.5920  1.2113
  921MOL0     H24284   5.028   1.418   6.177 -0.3577  1.0421 -2.1895
  921MOL0     H24285   4.944   1.256   6.181 -0.9700  0.3089  0.7531
  921MOL0     H24286   4.671   1.264   6.143 -3.5489  0.0369 -0.6187
  921MOL0     H24287   4.452   1.578   6.066 -3.5279 -2.1819  1.2008
  921MOL0     H24288   4.476   1.509   5.910  0.4656  1.0701  0.3019
  921MOL0     H24289   4.419   1.266   6.033 -3.1551 -0.7411  0.4260
  921MOL0     H24290   4.400   1.374   6.170 -0.5895 -2.4479 -0.1712
  921MOL0     H24291   4.192   1.310   6.071  0.6425  1.5919  3.2541
  921MOL0     H24292   4.231   1.377   5.913 -1.5617  1.4775  0.0958
  921MOL0     H24293   4.209   1.587   5.972 -1.0959 -1.2721 -0.8135
  921MOL0     H24294   4.239   1.564   6.149 -0.1966  1.1152 -0.3272
  921MOL0     H24295   4.106   1.475   5.796  1.5072 -2.0320  2.6351
  921MOL0     H24296   3.925   1.456   5.631  0.2257 -1.3632  1.4799
  921MOL0     H24297   3.422   1.469   5.501 -0.3003 -2.0288  2.4387
  921MOL0     H24298   3.288   1.383   5.333  0.5512  0.2681  4.0904
  921MOL0     H24299   3.512   1.170   5.021 -0.7750  3.2296  4.4005
  921MOL0     H24300   3.439   1.013   5.072  0.6051 -0.8663 -2.5485
  921MOL0     H24301   3.236   1.096   4.951  1.4051 -0.4900  1.0721
  921MOL0     H24302   3.347   1.201   4.850  3.0423 -2.0608 -2.6758
  921MOL0     H24303   3.295   0.913   4.857  0.6337 -1.2521 -2.7490
  921MOL0     H24304   3.311   1.020   4.724 -0.0546  1.7539 -0.2958
  921MOL0     H24305   3.549   0.932   4.900 -2.3159  1.1317  1.4224
  921MOL0     H24306   3.548   1.066   4.780 -3.3626  1.5162 -2.1199
  921MOL0     H24307   3.512   0.923   4.604 -0.7078 -0.9954  0.1028
  921MOL0     H24308   3.453   0.783   4.698 -0.6861  0.8651  1.0234
  921MOL0     H24309   3.692   0.740   4.785  2.9001  1.8486 -0.8814
  921MOL0     H24310   3.661   0.729   4.612 -3.1216 -0.5433 -0.0699
  921MOL0     H24311   3.874   0.868   4.709  1.0197  0.6645 -2.6859
  921MOL0     H24312   3.772   0.982   4.755  4.9190  0.5461  0.3785
  921MOL0     H24313   3.763   0.874   4.451  2.8102  0.6669 -1.6790
  921MOL0     H24314   3.677   1.018   4.516  0.0776 -0.2111  1.2621
  921MOL0     H24315   3.625   1.142   5.198  0.3803  1.6529 -0.5625
  921MOL0     H24316   3.753   1.241   5.375 -0.5214  0.9383 -1.1314
  921MOL0     H24317   3.622   1.500   5.943 -1.3889  2.0364 -0.5301
  921MOL0     H24318   3.799   1.497   6.107  3.7339  0.2217  1.0510
  921MOL0     H24319   5.910   1.110   6.715 -2.9023  1.6043  1.1129
  921MOL0     H24320   6.123   1.141   6.551  0.2572  0.9121 -1.0689
  921MOL0     H24321   6.346   1.324   6.282  3.3451 -0.4607  1.4668
  921MOL0     H24322   6.565   1.292   6.200 -1.0781  1.2945  0.8095
  921MOL0     H24323   6.656   0.934   5.964 -2.1584  1.4538  1.0097
  921MOL0     H24324   6.815   1.014   5.957  0.7394  1.5871  3.9902
  921MOL0     H24325   6.727   1.160   5.775  0.0108 -1.3874 -6.2351
  921MOL0     H24326   6.587   1.066   5.773 -0.0590  1.1263 -0.3971
  921MOL0     H24327   6.701   0.913   5.642 -0.8759 -3.4349  1.6792
  921MOL0     H24328   6.783   0.854   5.775 -0.2388 -1.0233 -0.4680
  921MOL0     H24329   6.900   1.044   5.575  1.1381 -1.2218 -1.1222
  921MOL0     H24330   6.969   1.023   5.747  2.7343 -1.3861 -0.6248
  921MOL0     H24331   7.036   0.657   5.532 -2.8517  0.0942  0.6322
  921MOL0     H24332   6.455   0.964   5.952  2.3905  0.6045  0.5314
  921MOL0     H24333   6.162   0.891   6.113 -2.4210 -0.9737 -0.3285
  921MOL0     H24334   6.119   0.982   5.967 -0.5523  1.0246  2.1566
  921MOL0     H24335   6.246   0.860   5.972  0.8290  2.5095 -3.0901
  922MOL0     O24336   1.295   7.025   3.703  0.1385 -0.8262 -0.2899
  922MOL0     C24337   1.272   6.910   3.684  0.3500  0.0917  0.0511
  922MOL0     O24338   1.350   6.811   3.718 -0.5489  0.6393 -0.6524
  922MOL0     C24339   1.465   6.817   3.788  0.9084  0.7807  0.6971
  922MOL0     C24340   1.553   6.917   3.792 -0.7235 -0.4864 -0.1039
  922MOL0     C24341   1.665   6.914   3.872 -0.4655  0.0364  0.3541
  922MOL0     C24342   1.700   6.803   3.944 -0.7586 -1.0078 -0.2179
  922MOL0     O24343   1.808   6.809   4.036  0.1348  0.0567 -0.1916
  922MOL0     C24344   1.832   6.702   4.130  0.3165  0.6880  0.6069
  922MOL0     C24345   1.918   6.599   4.058 -0.4231 -1.1404 -0.2768
  922MOL0     C24346   1.933   6.464   4.134 -0.1283  0.4499 -0.5184
  922MOL0     C24347   2.046   6.478   4.241  0.0916  0.1991 -0.6197
  922MOL0     C24348   2.062   6.342   4.320 -0.7880 -0.3790 -0.5859
  922MOL0     C24349   1.937   6.284   4.387 -0.1256  0.6992 -1.2834
  922MOL0     C24350   1.974   6.153   4.470  0.4759  0.1935  0.4532
  922MOL0     C24351   2.027   6.176   4.613  0.1267  0.1053 -0.9346
  922MOL0     N24352   2.026   6.039   4.681  0.7095  0.2767 -0.1751
  922MOL0     C24353   2.100   5.924   4.660  0.1673 -0.4010 -0.1450
  922MOL0     C24354   2.066   5.837   4.752  0.1662  0.8435 -0.4821
  922MOL0     C24355   2.107   5.689   4.752 -1.0233  0.4645 -0.1482
  922MOL0     C24356   2.188   5.659   4.873 -0.9141  0.2653  0.1199
  922MOL0     C24357   2.254   5.521   4.864  0.3080  0.0078  0.2567
  922MOL0     C24358   2.147   5.396   4.842 -0.2950  0.6171  0.7841
  922MOL0     O24359   2.034   5.370   4.930  0.4852  0.4632  0.4488
  922MOL0     C24360   2.063   5.309   5.051  0.4398 -1.4330  1.1736
  922MOL0     C24361   1.950   5.273   5.123  0.4624 -0.9124 -0.1797
  922MOL0     C24362   1.965   5.223   5.254 -0.3426  0.0359  0.9400
  922MOL0     C24363   2.088   5.190   5.305  0.4518  0.0194 -0.3420
  922MOL0     C24364   2.105   5.134   5.451 -0.0550  0.4764  0.4730
  922MOL0     O24365   1.984   5.096   5.519 -0.8088  0.1239  0.0737
  922MOL0     C24366   1.983   5.046   5.646 -0.5065  0.1192  0.2656
  922MOL0     C24367   1.971   4.906   5.663  0.8674  0.4339 -0.1676
  922MOL0     C24368   1.968   4.860   5.797 -0.2717  0.2375  0.0887
  922MOL0     C24369   1.983   4.946   5.904  0.4925 -0.6788 -0.8856
  922MOL0     O24370   1.989   4.893   6.025  0.0078 -0.4354 -0.1983
  922MOL0     C24371   1.905   4.957   6.115  0.5307 -0.1410 -0.4986
  922MOL0     C24372   1.882   4.846   6.220  0.1734  0.0427 -0.7031
  922MOL0     C24373   1.783   4.896   6.322  0.3906 -0.3728  0.7006
  922MOL0     C24374   1.723   4.792   6.418 -1.4231  0.6175 -0.7262
  922MOL0     C24375   1.610   4.704   6.356  0.7714  0.1737 -0.3061
  922MOL0     C24376   1.499   4.674   6.455  0.4682 -0.5096  0.1147
  922MOL0     C24377   1.537   4.572   6.573  0.1830  0.4110  0.0372
  922MOL0     C24378   1.432   4.560   6.684 -0.2164 -0.0189  1.0078
  922MOL0    Cl24379   1.357   4.714   6.740 -0.4090 -0.3919 -0.3155
  922MOL0     C24380   2.008   5.083   5.881  0.7644 -0.1872  0.0954
  922MOL0     C24381   2.007   5.133   5.755  0.5251  0.3188 -0.4676
  922MOL0     O24382   2.217   5.126   5.500 -0.8487  0.3449 -0.1233
  922MOL0     C24383   2.205   5.218   5.233  1.0091 -0.5535 -1.4738
  922MOL0     C24384   2.189   5.273   5.105 -0.5773 -0.4660 -0.8467
  922MOL0     N24385   1.972   5.897   4.829  1.4959  0.3175 -0.4789
  922MOL0     N24386   1.958   6.022   4.796 -0.6662  0.8732 -0.0343
  922MOL0     C24387   1.612   6.690   3.932 -0.5400 -0.2104 -0.1185
  922MOL0     C24388   1.503   6.700   3.859 -0.4021  0.6201 -0.0298
  922MOL0     C24389   1.145   6.879   3.618 -0.6508  0.4864 -0.2109
  922MOL0     C24390   1.129   6.743   3.585 -0.2397 -0.2033  0.4076
  922MOL0     C24391   1.031   6.694   3.500  0.3168 -0.4295  0.2470
  922MOL0     C24392   0.944   6.786   3.445 -0.3809 -0.5051 -0.4521
  922MOL0     O24393   0.837   6.763   3.366 -0.7487  0.1911 -0.8945
  922MOL0     C24394   0.795   6.631   3.319 -0.8327  0.5104 -0.4954
  922MOL0     C24395   0.648   6.639   3.265  0.6080  0.0809 -0.0835
  922MOL0     C24396   0.595   6.504   3.210 -1.4168  0.2638 -0.5428
  922MOL0     C24397   0.682   6.425   3.113 -0.1985 -0.0602  0.4702
  922MOL0     C24398   0.645   6.459   2.972 -0.5437 -0.0742 -0.9056
  922MOL0     C24399   0.641   6.488   2.855 -0.1052 -0.0561  0.3579
  922MOL0     C24400   0.954   6.919   3.475  0.0327 -0.4237  0.4137
  922MOL0     C24401   1.051   6.970   3.557  0.3785  0.0536  0.6882
  922MOL0     C24402   1.054   7.122   3.576  0.4625  0.6188  0.7389
  922MOL0     H24403   1.534   7.016   3.752 -1.4931 -0.5978 -0.0249
  922MOL0     H24404   1.730   7.001   3.878  0.0468 -0.3076 -0.0654
  922MOL0     H24405   1.888   6.756   4.207 -0.9934  0.2485  1.9099
  922MOL0     H24406   1.738   6.654   4.161 -1.5147  2.6415 -1.5657
  922MOL0     H24407   2.017   6.635   4.027  0.6779 -1.4104  2.6162
  922MOL0     H24408   1.865   6.570   3.966  0.7344 -4.4758  0.0092
  922MOL0     H24409   1.964   6.381   4.070  0.6224  1.4364 -1.4702
  922MOL0     H24410   1.835   6.435   4.174  0.9857 -2.4905  0.3845
  922MOL0     H24411   2.139   6.489   4.184  1.3006  2.7242  1.5874
  922MOL0     H24412   2.032   6.560   4.313 -4.9971  2.0454 -3.2058
  922MOL0     H24413   2.106   6.266   4.256  2.9357  1.6456 -0.6889
  922MOL0     H24414   2.138   6.360   4.396 -0.4951 -0.9719 -0.7311
  922MOL0     H24415   1.889   6.356   4.454  1.3065  0.3888  0.1570
  922MOL0     H24416   1.868   6.265   4.305  0.2031  0.5363 -1.5214
  922MOL0     H24417   2.055   6.098   4.421 -0.2629 -0.9771  0.5172
  922MOL0     H24418   1.888   6.086   4.471  0.4802  0.1810 -0.0029
  922MOL0     H24419   2.125   6.223   4.614 -0.4884  1.4810  0.9745
  922MOL0     H24420   1.957   6.245   4.661  4.0598  3.0338  1.1709
  922MOL0     H24421   2.150   5.899   4.567 -1.6441 -0.5823 -1.1079
  922MOL0     H24422   2.019   5.624   4.748  0.0123 -0.9848  0.1911
  922MOL0     H24423   2.174   5.676   4.666 -0.3107 -1.4903  0.6434
  922MOL0     H24424   2.257   5.743   4.889 -0.9535  0.3860 -0.3261
  922MOL0     H24425   2.117   5.665   4.955  1.0615  2.4796  1.8055
  922MOL0     H24426   2.311   5.499   4.955 -0.5489  0.2337  0.8658
  922MOL0     H24427   2.317   5.527   4.775 -0.5212  1.8332 -0.2635
  922MOL0     H24428   2.204   5.303   4.840 -0.5128  0.4745  1.1705
  922MOL0     H24429   2.106   5.419   4.743  0.7013  2.3710  0.7498
  922MOL0     H24430   1.854   5.313   5.092  0.2583  0.5545  2.1342
  922MOL0     H24431   1.882   5.224   5.323 -1.5625  2.5090 -0.4259
  922MOL0     H24432   1.956   4.830   5.587 -0.5962 -2.6616  2.9099
  922MOL0     H24433   1.966   4.757   5.830  1.4931 -0.4869 -1.8457
  922MOL0     H24434   1.949   5.042   6.168 -1.2739  0.1425  0.6261
  922MOL0     H24435   1.809   4.981   6.070  0.1493  1.0167  0.8784
  922MOL0     H24436   1.839   4.755   6.177 -2.5217 -0.4891  2.7455
  922MOL0     H24437   1.978   4.814   6.262  0.5972 -0.1445 -1.7740
  922MOL0     H24438   1.832   4.972   6.384  0.9453  2.1112 -2.5036
  922MOL0     H24439   1.694   4.936   6.272 -0.0230 -0.8578  1.0451
  922MOL0     H24440   1.685   4.841   6.509  0.8620  0.6563  0.2691
  922MOL0     H24441   1.791   4.711   6.447 -1.9244  0.4786  0.1191
  922MOL0     H24442   1.662   4.617   6.314  4.2204  1.8296  0.1873
  922MOL0     H24443   1.556   4.761   6.279 -2.1013 -1.7831  0.1138
  922MOL0     H24444   1.477   4.771   6.500 -1.0773 -0.7124 -0.1697
  922MOL0     H24445   1.409   4.647   6.399 -1.7246  3.4585  1.3304
  922MOL0     H24446   1.632   4.613   6.610  0.3597  0.6794 -0.6822
  922MOL0     H24447   1.557   4.472   6.534 -0.4809  0.6339 -0.9229
  922MOL0     H24448   1.361   4.486   6.647  1.0300  0.5687 -3.0959
  922MOL0     H24449   1.487   4.532   6.775  1.8358  1.9743  0.4819
  922MOL0     H24450   2.004   5.141   5.973 -3.0066 -0.4555  0.2472
  922MOL0     H24451   1.998   5.240   5.741 -1.5091  0.2909  0.2015
  922MOL0     H24452   2.303   5.209   5.278  0.4299  0.4508  0.0622
  922MOL0     H24453   2.270   5.283   5.033 -1.1046  0.9164 -1.2886
  922MOL0     H24454   1.609   6.608   4.004  0.3042 -1.1875 -1.1691
  922MOL0     H24455   1.440   6.612   3.855  0.0911  0.2927 -0.6888
  922MOL0     H24456   1.198   6.678   3.637 -0.1670  1.1030  1.9908
  922MOL0     H24457   1.029   6.588   3.476  0.9705 -0.2872 -0.4749
  922MOL0     H24458   0.787   6.547   3.389 -1.9853 -1.9033 -3.3084
  922MOL0     H24459   0.864   6.594   3.243 -3.2875 -0.4708 -2.3821
  922MOL0     H24460   0.638   6.720   3.192  1.9255  0.0807 -0.2921
  922MOL0     H24461   0.583   6.669   3.348 -0.6669  1.0418 -1.3606
  922MOL0     H24462   0.493   6.507   3.172 -1.6299 -2.8007 -0.4431
  922MOL0     H24463   0.586   6.440   3.298 -1.7317 -1.9792 -2.1245
  922MOL0     H24464   0.789   6.432   3.133 -0.5792 -1.4333  3.4544
  922MOL0     H24465   0.648   6.324   3.135 -2.8618  0.9791  1.4849
  922MOL0     H24466   0.617   6.500   2.751 -0.0882  2.1835  0.5674
  922MOL0     H24467   0.875   6.979   3.431 -1.7901 -3.2398 -0.3959
  922MOL0     H24468   1.151   7.164   3.548  0.1602  1.5694  1.0750
  922MOL0     H24469   0.973   7.157   3.511  0.8332  2.5022  1.2634
  922MOL0     H24470   1.038   7.146   3.681 -1.9979  1.3117  0.2713
  923MOL0     O24471   8.014   2.959   8.192  0.0511 -0.6167  0.9765
  923MOL0     C24472   7.971   3.068   8.163  0.5380  0.1359 -1.2535
  923MOL0     O24473   7.883   3.093   8.062  0.4371  0.0021 -0.2322
  923MOL0     C24474   7.861   3.010   7.957  0.0241 -0.5181 -0.4611
  923MOL0     C24475   7.958   2.922   7.903 -0.7635  0.3402  0.0052
  923MOL0     C24476   7.938   2.834   7.798 -0.5643  0.2740 -0.8877
  923MOL0     C24477   7.815   2.833   7.732 -0.3134  0.7051 -0.5027
  923MOL0     O24478   7.784   2.770   7.616  0.3049  0.6392  0.6004
  923MOL0     C24479   7.837   2.637   7.588  0.1447 -0.6288 -0.7848
  923MOL0     C24480   7.771   2.577   7.463  0.2776 -0.4473 -0.2140
  923MOL0     C24481   7.794   2.432   7.436  0.1848 -0.7336  0.3348
  923MOL0     C24482   7.942   2.409   7.409 -0.0431  0.5678 -0.5196
  923MOL0     C24483   7.989   2.464   7.275  0.1710  0.2413  0.3113
  923MOL0     C24484   8.145   2.479   7.260 -0.0219 -0.0544  0.3109
  923MOL0     C24485   8.190   2.543   7.130 -0.2738 -0.1967  0.2056
  923MOL0     C24486   8.341   2.563   7.138  0.0821  0.5525  0.9942
  923MOL0     N24487   8.388   2.630   7.016 -0.1991  0.0941  0.4735
  923MOL0     C24488   8.350   2.759   6.981 -0.6829  0.0584  1.0220
  923MOL0     C24489   8.432   2.785   6.872 -0.2444  0.0927  0.1012
  923MOL0     C24490   8.445   2.924   6.814 -0.4088 -0.1491  1.3195
  923MOL0     C24491   8.535   3.019   6.883 -0.0617 -0.1300  0.0850
  923MOL0     C24492   8.440   3.133   6.950 -0.1856 -0.6602 -0.1335
  923MOL0     C24493   8.504   3.253   7.014  0.7662 -0.1062  0.1612
  923MOL0     O24494   8.595   3.226   7.118  0.7343 -0.5032  0.3739
  923MOL0     C24495   8.639   3.332   7.188 -0.7430 -0.3483  0.0648
  923MOL0     C24496   8.685   3.450   7.128 -0.8195  0.7239  0.8637
  923MOL0     C24497   8.742   3.557   7.195  0.5247  0.4953  1.5613
  923MOL0     C24498   8.760   3.539   7.339  0.0206 -1.2619  0.7511
  923MOL0     C24499   8.816   3.655   7.408  0.0460  0.5574  0.2265
  923MOL0     O24500   8.856   3.621   7.530  0.4553 -0.6666 -0.5838
  923MOL0     C24501   8.898   3.725   7.610 -0.5182 -0.3451 -0.2627
  923MOL0     C24502   8.805   3.778   7.687  0.6306 -0.8957 -0.4478
  923MOL0     C24503   8.844   3.891   7.767  0.6178  0.1149 -0.6759
  923MOL0     C24504   8.972   3.936   7.779 -1.0068  0.2817 -0.6604
  923MOL0     O24505   9.014   4.041   7.867 -0.1778  0.2068  0.8010
  923MOL0     C24506   8.910   4.099   7.943 -0.3342  0.1139  0.2611
  923MOL0     C24507   8.964   4.231   8.003 -0.1637  1.6760  0.3019
  923MOL0     C24508   8.837   4.296   8.074  0.1480 -0.1819  0.1537
  923MOL0     C24509   8.846   4.452   8.098  0.4874  0.6234  0.1421
  923MOL0     C24510   8.712   4.513   8.149 -1.2109 -0.6384 -0.4996
  923MOL0     C24511   8.610   4.524   8.044 -0.4955  0.7201  0.5147
  923MOL0     C24512   8.485   4.601   8.083 -0.8026  0.7711  0.7126
  923MOL0     C24513   8.381   4.500   8.134  0.0483 -0.1856  0.3535
  923MOL0    Cl24514   8.326   4.399   7.991  0.4936  0.5354  0.5008
  923MOL0     C24515   9.071   3.876   7.691 -0.1862  0.2896  0.3014
  923MOL0     C24516   9.032   3.772   7.610  0.5620  0.9411  0.0169
  923MOL0     O24517   8.844   3.759   7.345 -0.4485 -0.5371 -0.7195
  923MOL0     C24518   8.699   3.431   7.407  0.1016  0.7096 -0.2946
  923MOL0     C24519   8.644   3.323   7.327 -0.5724 -0.9299 -0.6373
  923MOL0     N24520   8.498   2.675   6.833 -1.0298  0.6772  1.0137
  923MOL0     N24521   8.472   2.579   6.917  0.3878  0.9841 -0.7626
  923MOL0     C24522   7.714   2.913   7.787 -0.9149 -0.2067 -0.4836
  923MOL0     C24523   7.742   3.004   7.889  0.0119  0.3348 -0.3265
  923MOL0     C24524   8.003   3.167   8.257  0.9931  0.8372 -1.1584
  923MOL0     C24525   7.895   3.247   8.308 -0.2531  1.4512  1.2966
  923MOL0     C24526   7.930   3.353   8.392 -0.5348 -0.3506 -0.1538
  923MOL0     C24527   8.059   3.376   8.438 -0.1919 -0.2850 -0.1903
  923MOL0     O24528   8.083   3.485   8.518 -0.7427 -0.2144 -1.0124
  923MOL0     C24529   8.160   3.457   8.632  0.3253  0.1663 -0.6274
  923MOL0     C24530   8.112   3.512   8.769 -0.2494 -0.1618  0.4616
  923MOL0     C24531   7.967   3.482   8.815  0.2261 -1.1609  0.7393
  923MOL0     C24532   7.869   3.607   8.813 -0.4982  0.8457  0.5909
  923MOL0     C24533   7.858   3.674   8.683 -0.3203  0.1635  0.7270
  923MOL0     C24534   7.855   3.740   8.586 -0.0716  1.1928 -0.2926
  923MOL0     C24535   8.157   3.287   8.399 -0.9539  0.0795  1.3047
  923MOL0     C24536   8.136   3.182   8.314  0.6351  0.8690 -0.3594
  923MOL0     C24537   8.242   3.099   8.251 -0.2159 -0.9768  0.6971
  923MOL0     H24538   8.055   2.919   7.951 -0.6917 -0.5974 -0.1729
  923MOL0     H24539   8.016   2.767   7.764  0.4414 -0.1674  1.9846
  923MOL0     H24540   7.946   2.644   7.576 -0.0421 -0.7971 -2.7620
  923MOL0     H24541   7.821   2.570   7.673  0.3779 -0.7354 -0.8243
  923MOL0     H24542   7.773   2.650   7.381 -1.8222  2.9728  2.4728
  923MOL0     H24543   7.668   2.568   7.498  0.4408 -1.3137  0.0479
  923MOL0     H24544   7.731   2.401   7.352 -1.3483  1.9545  0.3475
  923MOL0     H24545   7.784   2.368   7.524 -0.2206 -2.6958 -1.0687
  923MOL0     H24546   8.000   2.450   7.492  0.4701 -0.1341 -0.5217
  923MOL0     H24547   7.951   2.300   7.408  3.5354  0.7432 -1.9262
  923MOL0     H24548   7.939   2.412   7.192 -2.3021 -2.0368  2.9966
  923MOL0     H24549   7.948   2.565   7.272 -0.6014 -0.0612  0.4307
  923MOL0     H24550   8.187   2.534   7.345  0.9607 -1.5902  0.8661
  923MOL0     H24551   8.200   2.385   7.250 -1.4877 -0.9387  0.2282
  923MOL0     H24552   8.135   2.636   7.115  2.8320  1.7308 -0.0963
  923MOL0     H24553   8.166   2.476   7.047 -0.2098  2.3369 -2.0122
  923MOL0     H24554   8.358   2.622   7.228  1.1882 -0.6660  1.6124
  923MOL0     H24555   8.401   2.472   7.143  4.1898  2.7158 -2.0223
  923MOL0     H24556   8.288   2.828   7.038  0.0152  0.2911  1.5032
  923MOL0     H24557   8.508   2.903   6.726  1.8635 -2.8563  3.3841
  923MOL0     H24558   8.351   2.959   6.770 -1.0948 -4.5267 -1.4016
  923MOL0     H24559   8.607   2.985   6.959  0.2869 -0.4522 -0.3885
  923MOL0     H24560   8.594   3.074   6.810  0.6398  0.1580  0.8441
  923MOL0     H24561   8.373   3.086   7.023 -1.5742  0.9301 -0.3269
  923MOL0     H24562   8.381   3.173   6.868  0.1463 -1.6288 -0.8659
  923MOL0     H24563   8.416   3.296   7.063  0.7776  0.2273 -0.1091
  923MOL0     H24564   8.532   3.321   6.933 -1.7468 -0.5319 -1.1729
  923MOL0     H24565   8.667   3.453   7.021  0.3120  0.5110  0.6583
  923MOL0     H24566   8.783   3.647   7.151  1.0581  0.1132  1.2696
  923MOL0     H24567   8.700   3.756   7.672  0.7860  0.5667 -5.6558
  923MOL0     H24568   8.762   3.951   7.805  2.1805  2.5025 -0.8747
  923MOL0     H24569   8.829   4.136   7.880 -1.7935 -0.8421  1.4900
  923MOL0     H24570   8.881   4.026   8.019 -4.3570 -0.2310 -1.3487
  923MOL0     H24571   9.044   4.209   8.074 -0.0083 -1.2484 -0.6519
  923MOL0     H24572   8.996   4.293   7.918 -1.0725 -0.1165 -1.4339
  923MOL0     H24573   8.748   4.272   8.014  0.5893  0.3425 -0.7268
  923MOL0     H24574   8.824   4.253   8.174 -0.2960  0.4067  0.3574
  923MOL0     H24575   8.888   4.498   8.008  0.6732  2.3622  1.0886
  923MOL0     H24576   8.920   4.471   8.175  3.7400  0.6652 -2.7443
  923MOL0     H24577   8.740   4.609   8.194  1.7805 -1.5289 -0.2712
  923MOL0     H24578   8.673   4.458   8.236  1.3262  0.1346  1.2334
  923MOL0     H24579   8.647   4.577   7.956 -1.5512  1.7982  0.6946
  923MOL0     H24580   8.584   4.422   8.012 -1.2633  1.2102 -0.4819
  923MOL0     H24581   8.433   4.642   7.997  0.3653 -1.8615 -1.3925
  923MOL0     H24582   8.522   4.664   8.165 -2.4749  0.5355  1.6941
  923MOL0     H24583   8.434   4.440   8.209  1.0960  0.9187  0.5281
  923MOL0     H24584   8.291   4.546   8.175 -2.3182 -3.0930 -1.1341
  923MOL0     H24585   9.174   3.906   7.680  0.0391 -0.2697  0.8179
  923MOL0     H24586   9.108   3.723   7.550  1.3481  0.3053  1.4709
  923MOL0     H24587   8.711   3.425   7.515  2.4168 -0.9586 -0.5818
  923MOL0     H24588   8.625   3.234   7.386 -2.1232  0.0443  0.4065
  923MOL0     H24589   7.615   2.929   7.746 -2.3026  2.4337  3.3588
  923MOL0     H24590   7.659   3.072   7.903  0.8202  1.6746 -1.7063
  923MOL0     H24591   7.791   3.220   8.288 -0.5034  4.2106 -2.3741
  923MOL0     H24592   7.858   3.422   8.434  0.4987  1.9428 -1.8947
  923MOL0     H24593   8.267   3.477   8.618  2.1998 -6.0582  1.1923
  923MOL0     H24594   8.171   3.349   8.650  0.8370  0.4176  0.6825
  923MOL0     H24595   8.137   3.618   8.768 -1.0835  0.0730  1.7589
  923MOL0     H24596   8.185   3.475   8.842  2.5563  0.9500 -1.6240
  923MOL0     H24597   7.978   3.450   8.919  0.4473 -0.5010  0.9265
  923MOL0     H24598   7.917   3.419   8.741 -0.9081  0.2369  0.2784
  923MOL0     H24599   7.772   3.577   8.853  0.5209 -0.9621  1.8938
  923MOL0     H24600   7.928   3.668   8.883 -1.4638  1.8514  0.5507
  923MOL0     H24601   7.831   3.793   8.496  1.3447 -0.4967 -1.7572
  923MOL0     H24602   8.261   3.305   8.423 -0.8708  0.1612  0.8892
  923MOL0     H24603   8.335   3.156   8.249  0.3066 -1.7472 -2.5774
  923MOL0     H24604   8.258   3.004   8.303  0.3000  0.1463  2.6920
  923MOL0     H24605   8.227   3.093   8.143 -1.3935  1.2989  0.6866
  924MOL0     O24606   7.721  11.314   8.178 -0.4070 -0.5379  0.5689
  924MOL0     C24607   7.811  11.297   8.254  0.4845 -0.6786  0.1969
  924MOL0     O24608   7.794  11.261   8.383  0.2610  0.7227  0.0284
  924MOL0     C24609   7.664  11.272   8.441  0.3556 -0.0392 -0.2709
  924MOL0     C24610   7.581  11.161   8.463  0.3713 -0.5196  0.1728
  924MOL0     C24611   7.458  11.178   8.521  0.8310 -0.4262 -0.6117
  924MOL0     C24612   7.406  11.304   8.550  0.5311  0.9619 -1.2129
  924MOL0     O24613   7.272  11.300   8.586 -0.2001  0.2562 -0.3864
  924MOL0     C24614   7.209  11.413   8.551 -1.1955  0.1139 -0.1437
  924MOL0     C24615   7.065  11.365   8.549 -0.5852 -0.9268  0.6372
  924MOL0     C24616   6.995  11.348   8.687 -0.2366  1.0722  1.3674
  924MOL0     C24617   6.849  11.339   8.655 -0.7276  0.3827 -0.7287
  924MOL0     C24618   6.749  11.363   8.776  0.7675  0.1289  0.9902
  924MOL0     C24619   6.599  11.345   8.718  0.1352 -1.1915  0.1165
  924MOL0     C24620   6.504  11.380   8.832  1.2696  0.0357 -0.1221
  924MOL0     C24621   6.365  11.321   8.801  0.2966 -0.0698 -0.6551
  924MOL0     N24622   6.329  11.342   8.658  0.2083  0.5073 -0.2990
  924MOL0     C24623   6.246  11.260   8.580  1.0294  0.8819  0.2562
  924MOL0     C24624   6.210  11.333   8.472  0.4307 -0.3317 -0.4301
  924MOL0     C24625   6.115  11.291   8.357  0.0060 -0.3408 -0.0008
  924MOL0     C24626   6.164  11.359   8.227  1.1353  0.0151 -0.5965
  924MOL0     C24627   6.247  11.265   8.133 -0.4376 -0.7602  0.4969
  924MOL0     C24628   6.227  11.314   7.985  0.6995 -0.1315 -0.9536
  924MOL0     O24629   6.306  11.431   7.963  0.1537  0.7125 -0.6301
  924MOL0     C24630   6.430  11.429   7.898 -0.0806 -0.6019 -0.0395
  924MOL0     C24631   6.527  11.338   7.916 -0.5367  0.2296  0.8867
  924MOL0     C24632   6.652  11.361   7.857 -0.3570  0.2005 -0.8670
  924MOL0     C24633   6.673  11.465   7.760  0.4257  0.2785  0.3756
  924MOL0     C24634   6.811  11.480   7.709 -0.4504  0.4666  0.6544
  924MOL0     O24635   6.832  11.569   7.603  0.7472  0.9522  0.2553
  924MOL0     C24636   6.958  11.596   7.570 -0.4375 -0.1580 -0.0161
  924MOL0     C24637   7.045  11.498   7.516  0.0492  0.2532 -0.1382
  924MOL0     C24638   7.172  11.534   7.473  0.1070  0.3089  0.0848
  924MOL0     C24639   7.220  11.666   7.483 -0.4165  0.6572 -0.0484
  924MOL0     O24640   7.353  11.690   7.459 -0.6468  0.8344  0.5606
  924MOL0     C24641   7.443  11.580   7.449  0.5181 -0.3669  0.0951
  924MOL0     C24642   7.584  11.648   7.469  0.4051  0.1478 -0.1188
  924MOL0     C24643   7.690  11.527   7.473  0.4916 -0.9739  0.5508
  924MOL0     C24644   7.830  11.587   7.446 -0.1740  0.0359 -0.6809
  924MOL0     C24645   7.945  11.490   7.491  1.0934 -0.2289  0.7292
  924MOL0     C24646   7.920  11.340   7.456 -0.0519 -0.5811 -0.1109
  924MOL0     C24647   8.047  11.260   7.472  0.0175  0.1355  0.1597
  924MOL0     C24648   8.094  11.259   7.610  0.2348  0.0598 -0.4570
  924MOL0    Cl24649   8.210  11.126   7.644 -0.0834 -0.0514  0.3036
  924MOL0     C24650   7.141  11.766   7.539 -0.3199  0.0273 -0.1675
  924MOL0     C24651   7.011  11.725   7.576 -0.0573 -0.6705 -0.8663
  924MOL0     O24652   6.895  11.405   7.755  0.1882  0.3239  0.4643
  924MOL0     C24653   6.564  11.547   7.728  0.2526  0.1564  0.0537
  924MOL0     C24654   6.435  11.536   7.803  0.2530 -0.0632  0.0289
  924MOL0     N24655   6.269  11.456   8.491 -0.5730 -0.2732  0.3919
  924MOL0     N24656   6.346  11.453   8.595  0.1465  0.2897 -0.8122
  924MOL0     C24657   7.479  11.416   8.524 -0.3968 -0.3972 -0.1971
  924MOL0     C24658   7.611  11.399   8.470 -0.6198 -0.0946 -0.2222
  924MOL0     C24659   7.955  11.300   8.206 -0.4753 -0.2951  0.3181
  924MOL0     C24660   8.060  11.277   8.305  0.4351 -0.7417 -0.0262
  924MOL0     C24661   8.198  11.271   8.276  0.0928 -0.1409 -0.4097
  924MOL0     C24662   8.232  11.287   8.142 -0.3026  0.0303  0.0687
  924MOL0     O24663   8.361  11.267   8.125  0.3763 -0.3360 -0.0453
  924MOL0     C24664   8.410  11.319   8.006  0.2492 -0.6396  0.1869
  924MOL0     C24665   8.421  11.475   8.034 -1.0695 -0.1401 -0.5198
  924MOL0     C24666   8.477  11.532   7.901 -0.5816  0.4939  0.4093
  924MOL0     C24667   8.541  11.667   7.930  0.7505  1.1310 -0.7585
  924MOL0     C24668   8.667  11.650   7.993  0.1629  0.1905 -0.6839
  924MOL0     C24669   8.777  11.667   8.039  0.0634  0.1145  0.6952
  924MOL0     C24670   8.134  11.312   8.045 -0.4458 -0.4044 -0.0684
  924MOL0     C24671   8.001  11.328   8.079  0.0715  0.2829  0.1614
  924MOL0     C24672   7.912  11.399   7.977 -0.1520  0.1041 -0.8045
  924MOL0     H24673   7.629  11.065   8.446  3.6484  1.1918 -1.1563
  924MOL0     H24674   7.397  11.090   8.539 -1.1245  0.7451 -1.2955
  924MOL0     H24675   7.217  11.490   8.629 -2.3491 -0.1757  0.2904
  924MOL0     H24676   7.230  11.447   8.449  3.0052 -2.8876 -0.5202
  924MOL0     H24677   7.063  11.272   8.492  5.0003  1.4733 -4.5483
  924MOL0     H24678   7.012  11.448   8.500  1.6994  0.1900 -0.0607
  924MOL0     H24679   7.024  11.427   8.757  4.2009  0.4902  0.4504
  924MOL0     H24680   7.028  11.255   8.734  0.5118  1.0682  0.8527
  924MOL0     H24681   6.819  11.418   8.585 -2.9543 -1.2908 -1.7682
  924MOL0     H24682   6.828  11.248   8.599  4.7645 -1.0774 -0.9799
  924MOL0     H24683   6.767  11.290   8.855 -1.6267  1.9978  3.4623
  924MOL0     H24684   6.755  11.465   8.816  2.5381  0.1074  0.8809
  924MOL0     H24685   6.580  11.392   8.621 -0.8394 -0.5609  0.5946
  924MOL0     H24686   6.582  11.240   8.693 -0.3224 -1.3864  1.1906
  924MOL0     H24687   6.507  11.489   8.844  1.0715  0.2897 -2.0544
  924MOL0     H24688   6.536  11.334   8.926  1.3665  1.8260  0.7707
  924MOL0     H24689   6.376  11.212   8.801  3.2978  0.0742 -3.4268
  924MOL0     H24690   6.290  11.349   8.876 -0.3885  2.3396 -2.1368
  924MOL0     H24691   6.216  11.156   8.588  0.5769  0.9459 -0.4457
  924MOL0     H24692   6.113  11.181   8.351 -1.1721 -0.2608 -1.3686
  924MOL0     H24693   6.013  11.320   8.382  0.1573  0.4864 -0.3183
  924MOL0     H24694   6.078  11.362   8.160  1.8525  0.2789 -1.5263
  924MOL0     H24695   6.198  11.462   8.239  0.0651  0.3610 -0.4051
  924MOL0     H24696   6.202  11.165   8.129 -0.8914 -0.5251 -0.9899
  924MOL0     H24697   6.353  11.250   8.158 -0.4476  1.3078  1.9606
  924MOL0     H24698   6.122  11.342   7.972 -0.1554 -2.6884 -0.1613
  924MOL0     H24699   6.257  11.236   7.914 -1.4946 -2.2507  0.2702
  924MOL0     H24700   6.522  11.265   7.997  0.9396 -1.1777 -0.2129
  924MOL0     H24701   6.732  11.294   7.887 -2.9822 -3.3828 -1.2635
  924MOL0     H24702   7.005  11.397   7.513 -3.2007  1.3186  1.6295
  924MOL0     H24703   7.244  11.464   7.433  0.6958 -0.3027  2.0994
  924MOL0     H24704   7.428  11.511   7.533 -3.1460  1.1432  0.8792
  924MOL0     H24705   7.429  11.539   7.349 -2.3653 -0.5459  0.4903
  924MOL0     H24706   7.608  11.712   7.383  1.8270 -0.6257 -0.3335
  924MOL0     H24707   7.578  11.707   7.561  1.7081 -0.9725  0.7315
  924MOL0     H24708   7.677  11.479   7.571 -0.1996 -2.2837 -0.1602
  924MOL0     H24709   7.672  11.448   7.399 -2.6960  1.4513 -1.5572
  924MOL0     H24710   7.830  11.683   7.500  2.1082 -1.2217  1.8117
  924MOL0     H24711   7.852  11.607   7.341  2.0022 -0.3704 -0.3428
  924MOL0     H24712   7.961  11.507   7.598  1.9717 -3.0731  1.1390
  924MOL0     H24713   8.034  11.538   7.447 -1.5872  0.9272 -4.1631
  924MOL0     H24714   7.834  11.313   7.519 -3.0568  2.7300 -2.3561
  924MOL0     H24715   7.892  11.319   7.352  1.5679 -1.0422 -0.4674
  924MOL0     H24716   8.129  11.300   7.411  0.1070  1.2345  0.9728
  924MOL0     H24717   8.019  11.158   7.445 -0.9925  0.7583 -1.2841
  924MOL0     H24718   8.129  11.357   7.642 -2.1025  0.7830  0.1034
  924MOL0     H24719   8.006  11.223   7.664  1.1455 -2.5975 -0.5830
  924MOL0     H24720   7.163  11.868   7.569 -3.5122 -0.1692  3.4799
  924MOL0     H24721   6.952  11.801   7.626  2.2116  0.1096  0.7516
  924MOL0     H24722   6.565  11.616   7.645  0.2700 -1.2149 -1.1294
  924MOL0     H24723   6.355  11.606   7.782 -0.7192 -0.8112  1.1755
  924MOL0     H24724   7.444  11.517   8.543 -2.7591 -1.0439 -0.7487
  924MOL0     H24725   7.672  11.483   8.439 -1.0062 -0.5364 -2.2986
  924MOL0     H24726   8.037  11.258   8.410 -0.2390 -2.0335 -0.3949
  924MOL0     H24727   8.273  11.252   8.351 -1.4864  1.8647  1.8303
  924MOL0     H24728   8.359  11.301   7.911  0.4328 -1.0181  0.1600
  924MOL0     H24729   8.510  11.278   7.989 -0.9575 -3.3179 -0.9665
  924MOL0     H24730   8.485  11.501   8.118 -2.7049  2.9356 -0.0933
  924MOL0     H24731   8.321  11.517   8.050 -0.6776  1.6765 -2.4418
  924MOL0     H24732   8.397  11.544   7.828  1.0262  0.6225 -1.4174
  924MOL0     H24733   8.554  11.474   7.850 -0.6746  1.6050 -1.0364
  924MOL0     H24734   8.563  11.697   7.827  0.8244 -0.0534 -1.1118
  924MOL0     H24735   8.475  11.741   7.976  1.1286  1.4129 -0.6742
  924MOL0     H24736   8.878  11.688   8.067 -0.4155  2.1019  1.1164
  924MOL0     H24737   8.161  11.326   7.941  0.2350 -1.8736 -0.1141
  924MOL0     H24738   7.836  11.328   7.943 -1.8847  0.6614  1.6099
  924MOL0     H24739   7.844  11.468   8.027  0.2249  0.5463 -0.8934
  924MOL0     H24740   7.965  11.446   7.893 -1.8475  1.0048 -1.4106
  925MOL0     O24741   6.296   2.517   4.787  0.4260  0.1471  0.2035
  925MOL0     C24742   6.181   2.537   4.827 -0.0956 -0.6846 -0.6149
  925MOL0     O24743   6.104   2.445   4.911  0.1223 -1.1371  0.2719
  925MOL0     C24744   6.154   2.319   4.936 -0.6544  0.3257 -0.4224
  925MOL0     C24745   6.122   2.208   4.853 -0.3627  0.7016 -0.1524
  925MOL0     C24746   6.164   2.083   4.886 -0.2585 -0.0460 -0.6159
  925MOL0     C24747   6.252   2.062   4.991  0.6165 -0.2656 -0.9786
  925MOL0     O24748   6.289   1.935   5.031 -0.3755 -0.6296  1.0914
  925MOL0     C24749   6.283   1.890   5.176 -0.7631 -0.1608  0.7566
  925MOL0     C24750   6.353   1.759   5.181  0.7017  0.8396  0.5759
  925MOL0     C24751   6.338   1.697   5.318  0.8249 -0.6389  0.3520
  925MOL0     C24752   6.438   1.582   5.304 -0.0633 -0.5923 -0.9693
  925MOL0     C24753   6.457   1.490   5.434  0.6978  0.5188  0.1259
  925MOL0     C24754   6.516   1.564   5.550 -0.7832 -0.2766  0.4373
  925MOL0     C24755   6.574   1.472   5.653  0.5470 -0.0399  0.1033
  925MOL0     C24756   6.615   1.529   5.786  0.7618 -0.1555 -0.8219
  925MOL0     N24757   6.715   1.642   5.778  0.5820  0.2145 -0.5452
  925MOL0     C24758   6.684   1.773   5.751  0.2683  0.2453  1.0850
  925MOL0     C24759   6.796   1.846   5.783 -0.2487 -0.3201  0.1307
  925MOL0     C24760   6.811   1.998   5.768  0.0043 -0.4912  0.1818
  925MOL0     C24761   6.739   2.073   5.877  0.2544  0.1802  0.2479
  925MOL0     C24762   6.739   2.235   5.871  0.6085 -0.7589  0.3816
  925MOL0     C24763   6.656   2.295   5.752  0.1990  0.8143 -0.0713
  925MOL0     O24764   6.512   2.261   5.760 -0.2701 -0.5388  0.2380
  925MOL0     C24765   6.431   2.339   5.836  0.1140  0.1214 -0.0354
  925MOL0     C24766   6.293   2.313   5.833 -0.3355 -0.2614  0.7588
  925MOL0     C24767   6.204   2.361   5.920 -0.8927 -0.4860  0.3474
  925MOL0     C24768   6.244   2.468   6.005 -0.0690  0.4170 -0.4988
  925MOL0     C24769   6.135   2.519   6.089 -0.3053  0.5332 -0.1934
  925MOL0     O24770   6.027   2.439   6.114  0.0754 -0.1892 -0.3265
  925MOL0     C24771   5.926   2.478   6.194 -0.2715  0.2141 -0.9856
  925MOL0     C24772   5.805   2.430   6.148 -0.9160 -0.3936  0.2978
  925MOL0     C24773   5.684   2.476   6.195 -0.5940  0.4564 -0.1374
  925MOL0     C24774   5.682   2.576   6.288  0.0868 -0.2910 -0.6461
  925MOL0     O24775   5.565   2.643   6.319 -0.0830  0.5749  0.6155
  925MOL0     C24776   5.439   2.616   6.250  0.2979  1.1378  0.2818
  925MOL0     C24777   5.343   2.737   6.279  0.0040  0.1767 -1.1144
  925MOL0     C24778   5.195   2.691   6.300  0.4476 -0.4946 -0.4021
  925MOL0     C24779   5.120   2.804   6.382  0.5906 -0.0551 -0.5143
  925MOL0     C24780   4.975   2.777   6.419  0.0102 -0.7760 -0.0633
  925MOL0     C24781   4.894   2.896   6.472  0.6264 -0.1197  1.2901
  925MOL0     C24782   4.768   2.850   6.553 -0.1330  1.0013  1.2050
  925MOL0     C24783   4.700   2.971   6.606  0.2416 -1.6493  0.2404
  925MOL0    Cl24784   4.538   2.924   6.674 -0.3194  0.1538  0.3689
  925MOL0     C24785   5.797   2.632   6.335 -0.2155  1.3541 -0.5036
  925MOL0     C24786   5.925   2.582   6.296  0.9917  0.2724  0.4613
  925MOL0     O24787   6.149   2.631   6.129  0.5709  0.8997  0.0216
  925MOL0     C24788   6.381   2.504   6.007  0.2076 -0.2496 -0.5997
  925MOL0     C24789   6.471   2.447   5.918 -0.3881 -0.1373  0.9441
  925MOL0     N24790   6.886   1.760   5.832 -0.5005  0.3394 -0.9634
  925MOL0     N24791   6.837   1.641   5.837 -0.3158  0.6948  0.2393
  925MOL0     C24792   6.286   2.174   5.074  0.2342  0.9803  0.3547
  925MOL0     C24793   6.235   2.292   5.046 -0.5661  0.1281 -0.5300
  925MOL0     C24794   6.127   2.677   4.800  0.3096  0.3160  1.0945
  925MOL0     C24795   6.052   2.730   4.906  0.7262 -0.5722 -1.1235
  925MOL0     C24796   5.981   2.853   4.892  0.4726  1.0424  1.0909
  925MOL0     C24797   5.985   2.917   4.765  0.8977 -0.0547  0.0811
  925MOL0     O24798   5.925   3.041   4.757  0.3048  0.0175  0.4194
  925MOL0     C24799   5.931   3.115   4.634 -0.0467 -0.7885  0.4776
  925MOL0     C24800   6.060   3.206   4.620  0.2716  0.2152 -1.3074
  925MOL0     C24801   6.068   3.255   4.482  0.2234 -0.4668 -0.3417
  925MOL0     C24802   6.167   3.369   4.487 -0.1001  0.3036  0.1540
  925MOL0     C24803   6.176   3.440   4.367  0.3704 -0.2771  0.3864
  925MOL0     C24804   6.174   3.483   4.248 -0.4888  1.3682  1.1000
  925MOL0     C24805   6.056   2.860   4.660 -0.3812 -0.1589  0.9960
  925MOL0     C24806   6.124   2.736   4.675 -0.1109 -0.7705 -0.1409
  925MOL0     C24807   6.165   2.670   4.546  0.3879  1.2422  0.1731
  925MOL0     H24808   6.074   2.231   4.758 -2.2596  2.5981  1.1764
  925MOL0     H24809   6.138   2.001   4.820 -2.8865  0.1087  0.0940
  925MOL0     H24810   6.344   1.959   5.235  1.2709 -2.0598  0.9870
  925MOL0     H24811   6.180   1.891   5.214 -0.6404 -3.6292  1.4957
  925MOL0     H24812   6.454   1.759   5.138 -0.3007 -0.5412 -2.0502
  925MOL0     H24813   6.302   1.692   5.111 -0.8868  3.9311 -1.4833
  925MOL0     H24814   6.242   1.646   5.331  2.0933 -3.1644  0.3095
  925MOL0     H24815   6.362   1.765   5.401  0.7196 -0.1583 -0.0089
  925MOL0     H24816   6.401   1.521   5.221 -2.3847 -0.3910 -0.1394
  925MOL0     H24817   6.534   1.623   5.269 -0.5468  1.6236  0.1445
  925MOL0     H24818   6.356   1.454   5.457 -0.3412  1.7556 -2.1384
  925MOL0     H24819   6.513   1.399   5.413 -1.3499 -0.6264 -0.6719
  925MOL0     H24820   6.605   1.617   5.515  0.9711 -1.4995  2.7801
  925MOL0     H24821   6.448   1.636   5.596 -0.0291  1.1776 -0.6511
  925MOL0     H24822   6.668   1.428   5.619  1.3821  0.3907  1.7178
  925MOL0     H24823   6.509   1.385   5.668  0.0533  0.0563 -1.3595
  925MOL0     H24824   6.526   1.571   5.832  0.5098 -3.0537  1.6728
  925MOL0     H24825   6.668   1.456   5.849  3.9490  2.1328 -0.5752
  925MOL0     H24826   6.587   1.811   5.721  0.8089  1.3701  0.7360
  925MOL0     H24827   6.917   2.027   5.771 -0.5625  1.8713 -0.8580
  925MOL0     H24828   6.780   2.031   5.669 -0.0913  2.6184  1.1480
  925MOL0     H24829   6.637   2.035   5.885 -0.2717  1.8486  2.6297
  925MOL0     H24830   6.787   2.057   5.975 -3.4400 -0.4754  2.1129
  925MOL0     H24831   6.841   2.273   5.861  0.3510 -0.3827 -1.1041
  925MOL0     H24832   6.690   2.284   5.955  1.5393  0.8546  0.0173
  925MOL0     H24833   6.700   2.247   5.664  1.2467  0.6250  0.5371
  925MOL0     H24834   6.673   2.402   5.738  1.5816  0.6251 -0.0052
  925MOL0     H24835   6.268   2.242   5.755 -1.8621  0.2206  0.7875
  925MOL0     H24836   6.100   2.332   5.922 -0.4679 -2.1258  2.9060
  925MOL0     H24837   5.790   2.359   6.068 -1.7875 -0.3236  0.3875
  925MOL0     H24838   5.590   2.424   6.177 -1.4886  1.8834  0.2263
  925MOL0     H24839   5.445   2.606   6.141 -0.9860  3.4503 -0.0847
  925MOL0     H24840   5.399   2.521   6.287 -3.0767  2.1133 -0.4910
  925MOL0     H24841   5.376   2.792   6.368 -2.5372 -0.9723  0.7056
  925MOL0     H24842   5.337   2.802   6.192  2.6789  0.5145 -1.1007
  925MOL0     H24843   5.147   2.644   6.214  3.1192 -2.8550 -0.7444
  925MOL0     H24844   5.199   2.606   6.369  0.8582 -0.7935 -0.7866
  925MOL0     H24845   5.130   2.902   6.332 -0.6805 -0.1929 -1.0701
  925MOL0     H24846   5.175   2.813   6.476  0.0647  0.6743 -0.2650
  925MOL0     H24847   4.980   2.697   6.494 -0.1979 -0.3740  0.3821
  925MOL0     H24848   4.932   2.740   6.325  1.9132  1.7974 -2.0546
  925MOL0     H24849   4.953   2.953   6.543 -1.1500  1.3383  1.6733
  925MOL0     H24850   4.863   2.958   6.387  2.3059  2.9257  2.7476
  925MOL0     H24851   4.808   2.791   6.636 -1.1831 -1.1847  0.2507
  925MOL0     H24852   4.703   2.789   6.490 -0.7908  0.6128  2.2197
  925MOL0     H24853   4.764   3.021   6.678 -2.7742 -0.0461  1.9715
  925MOL0     H24854   4.690   3.049   6.530  2.9743 -1.1298  0.3171
  925MOL0     H24855   5.789   2.713   6.406  1.5884  1.8728 -0.8510
  925MOL0     H24856   6.019   2.629   6.322  1.0057  0.9517 -0.7247
  925MOL0     H24857   6.422   2.587   6.063 -1.0673 -0.8502  1.3150
  925MOL0     H24858   6.576   2.472   5.906 -0.5016 -0.9571 -2.8487
  925MOL0     H24859   6.350   2.160   5.160  1.0884 -0.7635 -0.5034
  925MOL0     H24860   6.255   2.379   5.107 -2.4438  1.0713 -1.1703
  925MOL0     H24861   6.053   2.678   5.002 -3.0651 -0.0677 -0.6624
  925MOL0     H24862   5.928   2.881   4.983 -1.3009 -1.9782  1.1338
  925MOL0     H24863   5.841   3.175   4.640  0.6180  0.2672  0.1192
  925MOL0     H24864   5.912   3.059   4.542  0.2624  2.3582 -1.6289
  925MOL0     H24865   6.153   3.154   4.647  0.7764  2.0085  0.6451
  925MOL0     H24866   6.048   3.273   4.705  0.6536 -1.7773  0.3916
  925MOL0     H24867   5.971   3.299   4.455 -0.2686 -0.3203  1.5162
  925MOL0     H24868   6.093   3.181   4.406  2.5131  0.3837 -0.5060
  925MOL0     H24869   6.148   3.446   4.563  3.5115 -0.4588  2.0431
  925MOL0     H24870   6.264   3.336   4.525 -0.0275  3.3945  3.1686
  925MOL0     H24871   6.170   3.493   4.142  1.8896  0.1054  0.8270
  925MOL0     H24872   6.081   2.921   4.573  1.1970 -0.3585  1.2773
  925MOL0     H24873   6.263   2.627   4.565 -0.9356 -1.6167  1.1250
  925MOL0     H24874   6.109   2.576   4.539  1.2925  0.6069  1.1590
  925MOL0     H24875   6.163   2.731   4.455  1.9840 -3.0209 -3.0661
  926MOL0     O24876   2.119   7.278   4.524  0.2225  0.5927 -0.1086
  926MOL0     C24877   2.077   7.382   4.582 -0.7582  0.4566  0.1796
  926MOL0     O24878   2.036   7.499   4.521  0.3708  0.1929  0.3598
  926MOL0     C24879   2.053   7.519   4.386  0.4921 -0.5434 -1.1406
  926MOL0     C24880   2.090   7.646   4.349 -0.2747  0.6713  0.0877
  926MOL0     C24881   2.116   7.682   4.211  0.0306 -0.3123 -0.3095
  926MOL0     C24882   2.095   7.586   4.117  1.2741  0.0376  0.0969
  926MOL0     O24883   2.119   7.602   3.984 -0.2242  0.9088 -0.4935
  926MOL0     C24884   2.170   7.724   3.928  0.1187  0.3158  0.1854
  926MOL0     C24885   2.175   7.729   3.769  0.2291 -0.2688  0.1961
  926MOL0     C24886   2.254   7.622   3.703  0.1767 -0.4521 -1.1259
  926MOL0     C24887   2.403   7.656   3.720  0.1264 -0.4262  0.5031
  926MOL0     C24888   2.474   7.572   3.606  0.3360 -0.6955 -0.3906
  926MOL0     C24889   2.626   7.554   3.654  0.4108 -0.2404  0.3505
  926MOL0     C24890   2.719   7.530   3.541  0.0036 -0.3331  0.7364
  926MOL0     C24891   2.697   7.392   3.472  0.0070 -0.1697 -0.9777
  926MOL0     N24892   2.799   7.359   3.370  0.0046 -0.7744 -0.3577
  926MOL0     C24893   2.921   7.303   3.398  0.5386  0.4481 -0.5439
  926MOL0     C24894   2.971   7.283   3.272  1.0864 -0.9003 -0.5842
  926MOL0     C24895   3.102   7.209   3.245  0.9187  0.4413 -0.2217
  926MOL0     C24896   3.201   7.281   3.159  0.6661  0.3098  0.6558
  926MOL0     C24897   3.334   7.330   3.218  1.1146 -0.7326 -0.1766
  926MOL0     C24898   3.302   7.436   3.324 -0.8359  0.6008  0.7435
  926MOL0     O24899   3.289   7.558   3.259  0.8353 -0.1680 -0.5027
  926MOL0     C24900   3.181   7.644   3.323 -0.0568  0.8531 -0.1455
  926MOL0     C24901   3.204   7.703   3.447  0.1388  0.5523 -0.0399
  926MOL0     C24902   3.100   7.761   3.519  0.6947  0.2098  0.0938
  926MOL0     C24903   2.963   7.775   3.458  0.0490 -0.7387  0.2532
  926MOL0     C24904   2.854   7.852   3.528  0.9866 -1.0377 -0.2466
  926MOL0     O24905   2.754   7.900   3.448 -0.6035  0.3780 -0.0651
  926MOL0     C24906   2.629   7.913   3.502 -0.0471  0.8722 -0.7039
  926MOL0     C24907   2.591   7.991   3.617  0.4786  0.4950  0.7970
  926MOL0     C24908   2.458   8.032   3.636 -0.4338 -0.4603  0.3522
  926MOL0     C24909   2.353   8.001   3.548 -0.2948 -0.3463  0.0700
  926MOL0     O24910   2.231   8.047   3.563 -0.1003 -0.3988 -0.2494
  926MOL0     C24911   2.145   8.066   3.452  0.1272  0.1574  1.0241
  926MOL0     C24912   2.027   8.162   3.495 -0.0269 -0.8862 -1.1876
  926MOL0     C24913   2.061   8.314   3.522 -0.5194  0.3265  0.3875
  926MOL0     C24914   1.945   8.413   3.556 -0.6553 -0.4563 -0.7861
  926MOL0     C24915   1.843   8.360   3.666 -0.3743 -0.9897  0.2230
  926MOL0     C24916   1.711   8.433   3.682 -0.4653  0.0257 -0.1359
  926MOL0     C24917   1.621   8.358   3.786 -0.9134  0.7309 -0.8449
  926MOL0     C24918   1.508   8.433   3.846  0.2966  0.4995  0.5677
  926MOL0    Cl24919   1.410   8.327   3.957  0.0486 -0.4526  0.1393
  926MOL0     C24920   2.394   7.923   3.440  0.0376 -0.1846  0.5388
  926MOL0     C24921   2.524   7.880   3.417  0.0608  0.5859  0.3657
  926MOL0     O24922   2.863   7.864   3.648  0.1098 -0.1201  0.1518
  926MOL0     C24923   2.949   7.726   3.326 -1.0708  0.5311  0.3836
  926MOL0     C24924   3.054   7.655   3.271 -0.1891  0.2984  0.3353
  926MOL0     N24925   2.887   7.327   3.174  0.7451 -0.2963 -0.0067
  926MOL0     N24926   2.779   7.357   3.237  0.7274 -0.3471 -0.8105
  926MOL0     C24927   2.054   7.457   4.157  0.1563  0.1486 -0.9585
  926MOL0     C24928   2.026   7.431   4.285  0.9760 -0.6090  0.0147
  926MOL0     C24929   2.078   7.366   4.729  0.2007 -0.4824  0.7111
  926MOL0     C24930   2.183   7.290   4.792 -0.0709 -0.3199 -0.0363
  926MOL0     C24931   2.207   7.279   4.928  0.9628 -0.3427  0.3049
  926MOL0     C24932   2.111   7.343   5.016 -0.8559  1.1514 -0.7431
  926MOL0     O24933   2.107   7.327   5.151 -0.3281 -0.3417  0.2631
  926MOL0     C24934   2.160   7.218   5.218  0.2246  0.1171  0.1275
  926MOL0     C24935   2.071   7.100   5.210  0.1182 -0.3160  0.2778
  926MOL0     C24936   2.110   6.997   5.321  0.1579 -0.3662  0.1138
  926MOL0     C24937   2.243   6.933   5.284 -0.0504 -0.3841 -1.2814
  926MOL0     C24938   2.288   6.873   5.403  0.5031 -0.3577  0.0769
  926MOL0     C24939   2.321   6.827   5.506  0.1778  1.7560  0.4338
  926MOL0     C24940   2.013   7.427   4.956 -0.2786 -0.0011  0.4362
  926MOL0     C24941   1.987   7.436   4.820  0.1466  0.2181  0.2952
  926MOL0     C24942   1.861   7.525   4.770  0.5191 -0.1305  1.4261
  926MOL0     H24943   2.114   7.714   4.430  1.9875 -0.4923  0.4557
  926MOL0     H24944   2.162   7.776   4.182 -1.0476 -0.0857 -1.3864
  926MOL0     H24945   2.119   7.812   3.967  1.6014  2.1710 -1.8576
  926MOL0     H24946   2.277   7.723   3.949  0.4380  1.0793 -1.2743
  926MOL0     H24947   2.221   7.825   3.745  2.3407 -1.1219  0.6097
  926MOL0     H24948   2.074   7.731   3.726  0.1775 -0.0967  0.3226
  926MOL0     H24949   2.229   7.599   3.599 -0.7253 -3.3302 -0.3467
  926MOL0     H24950   2.233   7.530   3.758 -4.2859  1.2547  0.4255
  926MOL0     H24951   2.444   7.757   3.724  0.3417 -0.5056  0.2803
  926MOL0     H24952   2.433   7.600   3.810 -2.5420  1.0100  2.4267
  926MOL0     H24953   2.429   7.473   3.595 -2.1397  0.0819  1.7403
  926MOL0     H24954   2.474   7.613   3.504  3.2009  0.0509 -0.1595
  926MOL0     H24955   2.646   7.653   3.697 -1.5471 -0.8964  3.0602
  926MOL0     H24956   2.635   7.484   3.738  3.1629  0.2629  0.5716
  926MOL0     H24957   2.821   7.532   3.578  0.3963 -0.5661 -0.2814
  926MOL0     H24958   2.711   7.603   3.460 -1.6656  1.0372  2.0549
  926MOL0     H24959   2.698   7.314   3.548 -2.0377  0.2370 -0.4840
  926MOL0     H24960   2.597   7.395   3.428  0.0605  2.1467 -1.0798
  926MOL0     H24961   2.974   7.280   3.490 -0.2429 -1.0507 -0.4392
  926MOL0     H24962   3.151   7.172   3.335  1.6072 -1.6549 -1.3689
  926MOL0     H24963   3.072   7.113   3.202 -4.7713 -0.4416  4.5145
  926MOL0     H24964   3.228   7.202   3.088  0.9229 -0.3042  1.4220
  926MOL0     H24965   3.155   7.360   3.099  0.8304  1.9372  2.5633
  926MOL0     H24966   3.398   7.379   3.145 -1.1696  1.4218 -0.9046
  926MOL0     H24967   3.385   7.249   3.271 -0.3208 -0.8702  1.0813
  926MOL0     H24968   3.390   7.449   3.388 -1.6540  1.3607  1.7355
  926MOL0     H24969   3.217   7.405   3.384 -0.6327  0.8767  1.1794
  926MOL0     H24970   3.299   7.684   3.497  1.0121  0.4901 -1.6548
  926MOL0     H24971   3.104   7.810   3.615 -0.5630 -0.3736  0.4585
  926MOL0     H24972   2.678   8.021   3.674  1.9343 -3.1853  0.7963
  926MOL0     H24973   2.437   8.102   3.716 -0.7335  0.0342 -0.1493
  926MOL0     H24974   2.202   8.101   3.366 -1.1719 -0.1588 -0.0030
  926MOL0     H24975   2.089   7.974   3.431 -0.1075  0.7542 -1.2254
  926MOL0     H24976   1.950   8.164   3.418 -0.4486 -1.6540 -0.8050
  926MOL0     H24977   1.982   8.122   3.587 -0.5512  0.6140 -0.7719
  926MOL0     H24978   2.127   8.301   3.609 -0.9285 -0.0984  0.6396
  926MOL0     H24979   2.114   8.347   3.432 -0.9277 -3.1064 -1.2619
  926MOL0     H24980   1.882   8.426   3.468 -1.0853  0.1214 -0.4007
  926MOL0     H24981   1.984   8.510   3.587 -0.5342 -0.8204  0.2214
  926MOL0     H24982   1.906   8.370   3.756  1.6306  1.5229 -1.2860
  926MOL0     H24983   1.830   8.253   3.653 -1.5113 -0.8548  0.1835
  926MOL0     H24984   1.720   8.536   3.718 -1.2325  0.9959 -2.5156
  926MOL0     H24985   1.663   8.446   3.584  0.2675  0.0855 -0.4906
  926MOL0     H24986   1.686   8.353   3.874 -1.6470  1.8744 -0.2206
  926MOL0     H24987   1.581   8.261   3.757  1.1220  0.2616 -2.3574
  926MOL0     H24988   1.542   8.525   3.892  2.2561  0.0223  0.1706
  926MOL0     H24989   1.430   8.447   3.770  0.3498 -1.5349  0.0727
  926MOL0     H24990   2.320   7.887   3.370  1.0354  0.4118 -0.8707
  926MOL0     H24991   2.551   7.818   3.332  2.7071  1.3423  0.5614
  926MOL0     H24992   2.847   7.738   3.292 -1.4145  2.8797  1.9950
  926MOL0     H24993   3.026   7.600   3.182  2.1543 -1.3423  0.5259
  926MOL0     H24994   2.049   7.381   4.079 -1.8393  0.8670 -1.6142
  926MOL0     H24995   1.987   7.335   4.317  1.5166 -1.1226 -0.8238
  926MOL0     H24996   2.247   7.233   4.725 -0.6804  0.4737 -1.3529
  926MOL0     H24997   2.295   7.225   4.962  1.5977  1.9332  2.6347
  926MOL0     H24998   2.157   7.239   5.325 -0.8795  1.9220 -0.2105
  926MOL0     H24999   2.263   7.202   5.184  0.2942 -1.2998  0.9142
  926MOL0     H25000   2.074   7.051   5.112  1.0772  2.1982 -1.0631
  926MOL0     H25001   1.969   7.139   5.223 -0.1861 -0.5985 -1.1455
  926MOL0     H25002   2.035   6.917   5.316  2.1835 -2.2724 -1.6427
  926MOL0     H25003   2.117   7.050   5.417  0.0297  4.2088 -2.1671
  926MOL0     H25004   2.237   6.865   5.198  1.9562 -3.7848  0.9936
  926MOL0     H25005   2.321   7.004   5.255  0.8702 -0.2968  1.1548
  926MOL0     H25006   2.361   6.793   5.600 -0.0671  0.5638  0.1176
  926MOL0     H25007   1.941   7.476   5.020  0.2743  0.4056  0.7560
  926MOL0     H25008   1.898   7.622   4.736  0.8192 -1.0716 -1.2060
  926MOL0     H25009   1.805   7.471   4.693 -0.2180  0.8433  1.2597
  926MOL0     H25010   1.792   7.538   4.854  1.8459 -1.0831  2.7231
  927MOL0     O25011   8.260   1.997   5.825 -0.8844  0.2099  0.0329
  927MOL0     C25012   8.159   2.020   5.893  0.0696 -0.4666  1.0348
  927MOL0     O25013   8.148   2.116   5.986 -1.1075 -0.0538  0.0711
  927MOL0     C25014   8.262   2.164   6.040 -0.9575 -0.2361  0.6813
  927MOL0     C25015   8.378   2.096   6.074 -0.3818  1.2637  0.0297
  927MOL0     C25016   8.495   2.157   6.126  0.4487  0.2996  0.3873
  927MOL0     C25017   8.496   2.298   6.135 -0.0692 -0.6024 -0.8997
  927MOL0     O25018   8.605   2.358   6.199 -0.2354  0.0973  0.5944
  927MOL0     C25019   8.722   2.275   6.221  0.3876 -0.2379  0.6170
  927MOL0     C25020   8.829   2.369   6.294  0.3642 -0.6538 -0.1608
  927MOL0     C25021   8.764   2.428   6.426  0.0285  0.3027 -0.2975
  927MOL0     C25022   8.842   2.548   6.470 -0.5297 -0.2688  0.4672
  927MOL0     C25023   8.810   2.579   6.608  0.6531  0.1180 -0.8058
  927MOL0     C25024   8.862   2.714   6.636  0.5099  0.6547 -0.4551
  927MOL0     C25025   8.853   2.752   6.771 -0.3941 -0.4201 -0.1005
  927MOL0     C25026   8.866   2.653   6.881  0.4596  0.6851  0.0801
  927MOL0     N25027   8.843   2.727   7.010 -0.2454  0.2062  0.4424
  927MOL0     C25028   8.745   2.696   7.110 -0.4062  0.8533  0.2129
  927MOL0     C25029   8.766   2.788   7.206 -0.3119  0.1082  0.7782
  927MOL0     C25030   8.691   2.808   7.340 -0.5537 -0.8286 -0.9365
  927MOL0     C25031   8.752   2.926   7.425 -0.5179  0.3041  1.1474
  927MOL0     C25032   8.854   2.873   7.520 -0.7588 -0.8397 -1.4991
  927MOL0     C25033   8.901   2.980   7.621  0.0818 -0.8837 -0.0114
  927MOL0     O25034   8.797   3.035   7.700 -0.2977  0.0361 -0.0726
  927MOL0     C25035   8.828   3.141   7.783 -0.2556  0.2979  0.2655
  927MOL0     C25036   8.713   3.206   7.828  0.4171  0.0017 -0.6589
  927MOL0     C25037   8.728   3.288   7.939  0.1875 -0.2653 -0.3105
  927MOL0     C25038   8.854   3.324   7.986 -0.5799  0.5710  0.1215
  927MOL0     C25039   8.865   3.417   8.101  0.2593  0.3277  0.2358
  927MOL0     O25040   8.988   3.455   8.135 -0.1534  1.0074 -0.4503
  927MOL0     C25041   9.013   3.534   8.240 -1.1292  0.2492 -0.7998
  927MOL0     C25042   9.150   3.567   8.256 -0.2271  0.8617 -0.4438
  927MOL0     C25043   9.194   3.637   8.369  0.0465 -0.6781 -0.8586
  927MOL0     C25044   9.103   3.674   8.474 -0.0671 -0.6122  0.3705
  927MOL0     O25045   9.161   3.733   8.587 -0.2409 -0.0254  0.2682
  927MOL0     C25046   9.072   3.777   8.692  0.4217  0.0010  1.1061
  927MOL0     C25047   9.133   3.887   8.784 -0.5327 -0.7590  0.1789
  927MOL0     C25048   9.029   3.936   8.887 -0.6382 -0.0624 -0.1216
  927MOL0     C25049   9.083   4.054   8.972 -0.3757 -0.3460  0.6916
  927MOL0     C25050   8.977   4.136   9.050 -0.1287 -0.6620  0.1593
  927MOL0     C25051   8.894   4.219   8.948 -0.3569 -0.0836 -0.3742
  927MOL0     C25052   8.778   4.305   9.004  0.1134  0.8726 -0.9227
  927MOL0     C25053   8.645   4.226   9.034  0.3042 -0.8694  0.0397
  927MOL0    Cl25054   8.673   4.136   9.186  0.4953  0.0938 -0.0035
  927MOL0     C25055   8.978   3.654   8.452  0.0370  0.3849 -0.4009
  927MOL0     C25056   8.929   3.581   8.341 -0.4891  0.6268  0.7520
  927MOL0     O25057   8.759   3.448   8.159 -0.6139  0.8627  0.6628
  927MOL0     C25058   8.966   3.253   7.942 -0.7683 -0.1071  1.0400
  927MOL0     C25059   8.955   3.160   7.837  0.3738 -0.6071 -0.3100
  927MOL0     N25060   8.882   2.858   7.178 -0.8835 -0.2351  0.0159
  927MOL0     N25061   8.932   2.827   7.060 -0.1535  0.3770  0.2513
  927MOL0     C25062   8.385   2.372   6.089  0.3772  0.8390 -0.1272
  927MOL0     C25063   8.268   2.305   6.046  0.4869  0.4219  0.5305
  927MOL0     C25064   8.040   1.927   5.871  0.6669 -0.9281  1.2981
  927MOL0     C25065   8.064   1.804   5.799  0.4776  0.2143  0.3429
  927MOL0     C25066   7.963   1.723   5.759  0.3841  0.0218  0.3826
  927MOL0     C25067   7.826   1.762   5.779 -0.5579  0.0068 -0.1346
  927MOL0     O25068   7.728   1.680   5.725  0.0570 -0.3015  0.2805
  927MOL0     C25069   7.614   1.663   5.803 -0.4016  0.5817  0.2684
  927MOL0     C25070   7.514   1.752   5.733  0.2195 -0.0391 -0.0464
  927MOL0     C25071   7.443   1.687   5.609 -0.2961 -0.1253  0.2660
  927MOL0     C25072   7.444   1.792   5.494 -0.2340  0.1314  0.0303
  927MOL0     C25073   7.389   1.744   5.369  0.3529 -0.0941  0.2729
  927MOL0     C25074   7.334   1.712   5.269 -0.1862 -0.7369  0.7401
  927MOL0     C25075   7.804   1.883   5.848 -0.9193  0.3600 -0.5574
  927MOL0     C25076   7.913   1.956   5.907  0.6809 -0.4433  0.0722
  927MOL0     C25077   7.865   2.073   5.994 -0.1041  0.0894  0.4646
  927MOL0     H25078   8.386   1.990   6.054  3.1504  1.4134  0.0780
  927MOL0     H25079   8.562   2.087   6.174  0.0725  2.1432  3.8940
  927MOL0     H25080   8.700   2.197   6.295 -0.3190 -1.2488 -0.6241
  927MOL0     H25081   8.761   2.226   6.132  2.0973  0.0759  1.1547
  927MOL0     H25082   8.827   2.457   6.229 -2.3929 -0.3035  0.2582
  927MOL0     H25083   8.921   2.311   6.305 -2.2177 -5.2010  0.0118
  927MOL0     H25084   8.757   2.346   6.499 -0.2809 -0.0088 -0.6725
  927MOL0     H25085   8.664   2.465   6.402 -0.3752  2.4704  3.8507
  927MOL0     H25086   8.948   2.521   6.458 -0.7042 -2.0515  2.3289
  927MOL0     H25087   8.814   2.625   6.398  3.0728 -0.9014 -1.8572
  927MOL0     H25088   8.704   2.583   6.634  0.7025  2.1023 -0.7654
  927MOL0     H25089   8.861   2.500   6.663  1.9944  0.0506 -2.0757
  927MOL0     H25090   8.963   2.733   6.597  0.4814  4.7195  0.9372
  927MOL0     H25091   8.787   2.777   6.587 -0.3725 -1.4276 -1.9187
  927MOL0     H25092   8.759   2.805   6.791 -0.2237 -0.6397  1.3968
  927MOL0     H25093   8.933   2.824   6.794 -0.2378  0.1551 -2.2027
  927MOL0     H25094   8.778   2.588   6.879  0.1070  0.6883  4.5555
  927MOL0     H25095   8.964   2.605   6.880  0.8301  1.4269 -0.0303
  927MOL0     H25096   8.676   2.613   7.109 -0.8580  1.1890  1.4304
  927MOL0     H25097   8.587   2.839   7.334 -0.2540  0.2148 -1.0304
  927MOL0     H25098   8.694   2.719   7.404 -3.9137 -1.0554 -0.9264
  927MOL0     H25099   8.794   2.998   7.354 -2.0318  0.3931  0.3162
  927MOL0     H25100   8.669   2.978   7.474  0.2271 -0.0631  2.8959
  927MOL0     H25101   8.946   2.843   7.468  1.2428  1.7778  0.2675
  927MOL0     H25102   8.816   2.798   7.590  0.7340  1.2038  1.7123
  927MOL0     H25103   8.952   3.059   7.565  2.7881 -1.0385  2.0456
  927MOL0     H25104   8.973   2.927   7.684 -0.0519 -1.1036 -0.0431
  927MOL0     H25105   8.617   3.188   7.781 -2.1329  0.1060  3.9884
  927MOL0     H25106   8.638   3.333   7.981  0.9226 -0.5174  1.5992
  927MOL0     H25107   9.229   3.547   8.183 -0.3971  2.2994 -1.0472
  927MOL0     H25108   9.296   3.670   8.388 -0.9623  3.0698 -1.2258
  927MOL0     H25109   8.974   3.812   8.659 -0.0295 -2.3509 -0.3178
  927MOL0     H25110   9.051   3.694   8.760  0.2206 -0.8777  0.0006
  927MOL0     H25111   9.221   3.846   8.835 -2.0796 -0.8684  2.9922
  927MOL0     H25112   9.161   3.978   8.730  0.5233 -1.1723  0.0179
  927MOL0     H25113   8.932   3.954   8.841 -1.4164 -3.3702 -0.0377
  927MOL0     H25114   9.014   3.844   8.944  1.3172 -0.5976 -0.3959
  927MOL0     H25115   9.136   4.118   8.901 -2.0382  0.1963 -0.1138
  927MOL0     H25116   9.156   4.029   9.048  0.2669 -0.5793  0.0095
  927MOL0     H25117   9.018   4.197   9.131 -1.6036 -0.5595  0.8543
  927MOL0     H25118   8.912   4.058   9.089 -0.7402 -0.2635 -0.0530
  927MOL0     H25119   8.953   4.299   8.903  0.2315 -1.4016 -2.0951
  927MOL0     H25120   8.865   4.152   8.866  3.2577 -2.2038 -0.1262
  927MOL0     H25121   8.765   4.374   8.920 -0.0037  0.0106 -1.6427
  927MOL0     H25122   8.805   4.358   9.095 -1.6807  0.4796 -0.1404
  927MOL0     H25123   8.562   4.295   9.050  0.7285 -0.3670  0.1189
  927MOL0     H25124   8.630   4.163   8.946  0.9853 -1.7277  0.5209
  927MOL0     H25125   8.909   3.683   8.531  0.6523 -0.3274  0.4240
  927MOL0     H25126   8.825   3.552   8.344  0.3307 -3.1197 -1.3276
  927MOL0     H25127   9.064   3.280   7.981 -0.2976  0.0154 -0.1950
  927MOL0     H25128   9.040   3.117   7.786  1.0006 -1.3237  1.2781
  927MOL0     H25129   8.379   2.481   6.093  4.0702  1.4340 -3.6453
  927MOL0     H25130   8.181   2.368   6.026  0.6969  0.3228 -0.7792
  927MOL0     H25131   8.162   1.784   5.756  2.1548 -0.7180  4.1686
  927MOL0     H25132   7.992   1.640   5.696 -3.6451 -1.3356  0.0242
  927MOL0     H25133   7.631   1.690   5.908  3.0431  1.5381 -0.4120
  927MOL0     H25134   7.595   1.556   5.792  3.9460 -0.2769 -0.6060
  927MOL0     H25135   7.560   1.848   5.708 -0.8569  0.4980 -0.0334
  927MOL0     H25136   7.437   1.762   5.810  0.6622  1.8597  0.1944
  927MOL0     H25137   7.338   1.663   5.632 -0.6940  2.4343  1.5307
  927MOL0     H25138   7.503   1.599   5.587  0.4456  0.0334  1.5495
  927MOL0     H25139   7.378   1.874   5.525 -0.4566  1.4435 -3.4579
  927MOL0     H25140   7.546   1.833   5.488  0.0323 -0.2520  1.5004
  927MOL0     H25141   7.286   1.690   5.176 -0.4909 -0.9490  0.9453
  927MOL0     H25142   7.701   1.916   5.862 -1.5386 -0.3369 -2.9220
  927MOL0     H25143   7.759   2.094   5.978 -0.1615 -0.6178 -0.1623
  927MOL0     H25144   7.886   2.047   6.098 -1.8098 -3.9781  0.0012
  927MOL0     H25145   7.906   2.165   5.953 -0.4309 -0.0476 -0.1896
  928MOL0     O25146   3.771   4.271   8.553 -0.2225  0.1394 -0.7360
  928MOL0     C25147   3.758   4.194   8.645 -1.0608 -0.1508 -0.0815
  928MOL0     O25148   3.829   4.077   8.649  0.1894 -0.2282 -0.1005
  928MOL0     C25149   3.907   4.053   8.541 -0.5729  0.5742 -0.0704
  928MOL0     C25150   3.855   3.998   8.421  0.1308  0.4847 -0.5135
  928MOL0     C25151   3.940   3.930   8.336  0.0364  0.5952 -0.0555
  928MOL0     C25152   4.077   3.949   8.345 -0.7201  0.7961  0.4707
  928MOL0     O25153   4.158   3.893   8.247  0.3575 -0.5330  0.1535
  928MOL0     C25154   4.245   3.983   8.183  0.2556  0.5731  0.1110
  928MOL0     C25155   4.187   3.998   8.043 -0.1620 -0.1597 -0.6411
  928MOL0     C25156   4.274   4.091   7.959 -0.2442  0.3127 -0.3003
  928MOL0     C25157   4.206   4.110   7.823  0.6580 -0.9314  0.2400
  928MOL0     C25158   4.244   4.012   7.715  0.3739 -0.1389 -0.7550
  928MOL0     C25159   4.387   4.029   7.666 -0.2422  0.0679 -0.3429
  928MOL0     C25160   4.416   3.968   7.527  0.1473  0.7514 -0.0964
  928MOL0     C25161   4.557   4.001   7.488  0.3059 -0.8567 -0.3805
  928MOL0     N25162   4.571   4.048   7.346  0.2331  0.8060  0.0422
  928MOL0     C25163   4.534   3.962   7.245  1.3680 -0.2187  0.8981
  928MOL0     C25164   4.559   4.032   7.129 -1.2934  0.6277  0.5285
  928MOL0     C25165   4.541   3.978   6.992 -0.6225  0.8262  0.2419
  928MOL0     C25166   4.672   3.972   6.907 -1.1907  0.7643  0.3043
  928MOL0     C25167   4.651   3.913   6.774 -0.2429 -1.3251  0.0561
  928MOL0     C25168   4.568   4.002   6.689  0.2042  0.4676  0.1711
  928MOL0     O25169   4.543   3.928   6.566  0.8181 -0.3015 -0.1888
  928MOL0     C25170   4.494   3.979   6.449 -0.4912 -0.0566  0.4857
  928MOL0     C25171   4.532   3.920   6.332  0.1780  0.2543 -0.1701
  928MOL0     C25172   4.500   3.975   6.214 -0.5998 -0.3952  0.0076
  928MOL0     C25173   4.415   4.088   6.197  0.0573 -0.2325 -1.0141
  928MOL0     C25174   4.368   4.125   6.063  0.3805  0.0146  1.1811
  928MOL0     O25175   4.429   4.090   5.946 -0.5636  0.0077  0.2112
  928MOL0     C25176   4.387   4.161   5.835 -0.1166 -0.4356  0.3195
  928MOL0     C25177   4.455   4.273   5.807 -0.8210 -0.3081 -0.2400
  928MOL0     C25178   4.405   4.354   5.699 -0.3215  0.1052 -1.0983
  928MOL0     C25179   4.290   4.321   5.640  0.7703 -0.2272 -0.4394
  928MOL0     O25180   4.237   4.406   5.549  0.1404 -0.1493 -0.0404
  928MOL0     C25181   4.164   4.344   5.435  0.0324  0.4495  0.8902
  928MOL0     C25182   4.128   4.451   5.325 -0.5671 -0.4848  0.6406
  928MOL0     C25183   4.261   4.497   5.252 -0.5134  1.1105 -0.1974
  928MOL0     C25184   4.226   4.562   5.114 -0.1483  0.9359 -0.8798
  928MOL0     C25185   4.331   4.551   5.005 -1.2724 -0.9602 -0.2799
  928MOL0     C25186   4.362   4.407   4.975 -0.0927 -0.3600 -0.3935
  928MOL0     C25187   4.483   4.378   4.881  0.0374  0.2135  0.4604
  928MOL0     C25188   4.460   4.262   4.785  0.9636  0.6193 -0.2707
  928MOL0    Cl25189   4.310   4.296   4.682 -0.4382 -0.0661 -0.6618
  928MOL0     C25190   4.230   4.201   5.667 -1.1433  0.5191  0.4206
  928MOL0     C25191   4.283   4.117   5.762  0.0475 -0.3158  0.3395
  928MOL0     O25192   4.266   4.189   6.072  0.1825 -0.2278  0.8617
  928MOL0     C25193   4.363   4.140   6.319 -0.2505  0.3401  0.4678
  928MOL0     C25194   4.404   4.085   6.440 -0.8499 -1.0967 -0.2232
  928MOL0     N25195   4.597   4.161   7.169  0.2140 -0.3456 -1.0742
  928MOL0     N25196   4.609   4.164   7.295  0.2827 -1.4206 -0.5830
  928MOL0     C25197   4.135   4.026   8.444 -0.3837 -0.0072 -0.6852
  928MOL0     C25198   4.048   4.067   8.550 -0.6742 -0.8367  0.5559
  928MOL0     C25199   3.661   4.209   8.748  0.8970  0.5611  0.2716
  928MOL0     C25200   3.684   4.136   8.866  0.3072 -0.2646 -0.5826
  928MOL0     C25201   3.587   4.138   8.967  0.2605 -0.1810  0.0480
  928MOL0     C25202   3.467   4.200   8.946 -0.0950 -0.3659 -0.8386
  928MOL0     O25203   3.374   4.178   9.045  0.1429 -0.3019  0.2491
  928MOL0     C25204   3.262   4.269   9.064 -1.0401  0.0284  0.2458
  928MOL0     C25205   3.237   4.250   9.215 -0.3833 -0.5759  0.2940
  928MOL0     C25206   3.100   4.323   9.255 -0.4415  0.3780  0.4929
  928MOL0     C25207   3.116   4.398   9.395 -0.3028 -0.2311  0.1436
  928MOL0     C25208   3.093   4.549   9.384 -0.0877  0.4975 -0.0770
  928MOL0     C25209   3.081   4.664   9.351  0.0553 -0.3268 -1.6043
  928MOL0     C25210   3.442   4.271   8.837  0.3257  0.1636  0.4074
  928MOL0     C25211   3.537   4.278   8.726 -0.8201  0.1999 -0.7136
  928MOL0     C25212   3.498   4.355   8.608 -0.7138 -0.5650 -1.1606
  928MOL0     H25213   3.747   3.996   8.427  0.1208 -0.7685 -0.8520
  928MOL0     H25214   3.903   3.861   8.261 -1.8710  1.1006  0.3581
  928MOL0     H25215   4.260   4.082   8.229  2.0363  0.7650 -0.7767
  928MOL0     H25216   4.344   3.938   8.175 -0.7689 -1.6056 -0.9485
  928MOL0     H25217   4.082   4.032   8.044 -0.1913 -0.1480  1.5961
  928MOL0     H25218   4.202   3.900   7.998  1.6788 -0.1369 -0.1297
  928MOL0     H25219   4.375   4.052   7.944 -0.9401 -0.7850 -2.6004
  928MOL0     H25220   4.275   4.183   8.019 -1.0914  1.3670 -1.8271
  928MOL0     H25221   4.097   4.111   7.830  0.4694 -3.9061 -0.9612
  928MOL0     H25222   4.245   4.208   7.797 -1.9151 -0.1205 -0.8751
  928MOL0     H25223   4.252   3.908   7.748  1.9319 -0.3740 -1.7590
  928MOL0     H25224   4.183   4.037   7.627  0.3009  0.9658 -0.4108
  928MOL0     H25225   4.419   4.134   7.670  1.8789 -0.4567 -1.8795
  928MOL0     H25226   4.457   3.977   7.732  1.5576  1.4953 -1.0094
  928MOL0     H25227   4.354   4.012   7.448 -3.5129  0.0444  2.1709
  928MOL0     H25228   4.404   3.860   7.538  3.1061 -0.2133 -4.2146
  928MOL0     H25229   4.598   4.084   7.545  0.5177  3.2483 -5.7383
  928MOL0     H25230   4.620   3.914   7.510  2.5827  0.6093 -0.8390
  928MOL0     H25231   4.499   3.860   7.241 -3.1277  1.1475 -0.5922
  928MOL0     H25232   4.504   3.876   7.002 -0.3805  0.6733 -0.3751
  928MOL0     H25233   4.459   4.032   6.944 -3.4597 -2.1835  1.3151
  928MOL0     H25234   4.723   4.069   6.900  1.7162 -0.2976  3.8476
  928MOL0     H25235   4.742   3.908   6.961 -1.5340 -1.8192 -2.0966
  928MOL0     H25236   4.605   3.814   6.775  0.9614 -2.0908 -3.7627
  928MOL0     H25237   4.749   3.898   6.728  1.5662  1.0277  2.7951
  928MOL0     H25238   4.620   4.096   6.666  0.2082  0.0400 -1.7338
  928MOL0     H25239   4.467   4.022   6.725  0.5172 -2.2711  2.8611
  928MOL0     H25240   4.601   3.837   6.329  1.1847  1.0788 -2.8492
  928MOL0     H25241   4.541   3.925   6.126 -2.2152  2.0652 -2.3125
  928MOL0     H25242   4.535   4.307   5.873 -0.6019 -2.5351  0.7335
  928MOL0     H25243   4.447   4.455   5.696  1.7428 -0.6143  0.7039
  928MOL0     H25244   4.212   4.257   5.391 -0.8558  1.3896 -2.2052
  928MOL0     H25245   4.066   4.307   5.466 -0.6362 -1.1893 -2.6920
  928MOL0     H25246   4.060   4.412   5.249  0.7847  0.6242 -1.2396
  928MOL0     H25247   4.099   4.541   5.380  2.1957 -0.5737  2.4745
  928MOL0     H25248   4.323   4.557   5.320  2.1341 -2.0675  0.4247
  928MOL0     H25249   4.309   4.399   5.242 -2.7561 -0.4860  3.0296
  928MOL0     H25250   4.202   4.667   5.132 -1.7482  0.3774  0.5622
  928MOL0     H25251   4.131   4.529   5.070 -0.2314 -1.3334  0.8541
  928MOL0     H25252   4.421   4.606   5.035 -0.2161 -2.1893 -1.0555
  928MOL0     H25253   4.294   4.590   4.910  0.1196 -2.5233 -1.5260
  928MOL0     H25254   4.384   4.355   5.069  1.4755  0.7067 -0.1305
  928MOL0     H25255   4.267   4.366   4.942  0.5570 -2.6095  0.3620
  928MOL0     H25256   4.570   4.366   4.946  2.8438  2.4554 -2.5854
  928MOL0     H25257   4.486   4.466   4.816 -0.5606 -0.3355 -0.3284
  928MOL0     H25258   4.540   4.269   4.711 -0.9965  2.8544 -2.3907
  928MOL0     H25259   4.461   4.162   4.829 -0.6425  1.4065  1.7353
  928MOL0     H25260   4.151   4.155   5.608 -2.6599 -1.1088  3.4988
  928MOL0     H25261   4.238   4.022   5.792 -0.2457  0.5861  3.0301
  928MOL0     H25262   4.293   4.223   6.310 -1.8558 -1.1798 -2.8671
  928MOL0     H25263   4.384   4.131   6.536 -1.7919 -0.2699 -0.7957
  928MOL0     H25264   4.242   4.045   8.438 -0.9540  3.6110 -1.9105
  928MOL0     H25265   4.075   4.109   8.646 -4.3558 -0.7991  1.7692
  928MOL0     H25266   3.779   4.089   8.887 -0.5038 -1.8753 -0.4206
  928MOL0     H25267   3.599   4.078   9.057 -0.6009 -0.4775 -0.0198
  928MOL0     H25268   3.178   4.239   9.002 -1.1524 -4.3960  2.1856
  928MOL0     H25269   3.284   4.374   9.042 -2.0064  0.6538  2.0487
  928MOL0     H25270   3.314   4.293   9.281 -0.5983 -0.8507  0.7279
  928MOL0     H25271   3.231   4.144   9.243  0.0402 -0.1928  1.9731
  928MOL0     H25272   3.026   4.242   9.261  0.5901 -0.8414 -1.9729
  928MOL0     H25273   3.060   4.397   9.186 -3.5624 -1.5218  0.0427
  928MOL0     H25274   3.045   4.363   9.471  1.3998  0.5858  2.2199
  928MOL0     H25275   3.220   4.386   9.425 -0.3201 -1.6771 -0.2805
  928MOL0     H25276   3.080   4.768   9.324  0.9793 -0.5315 -2.4832
  928MOL0     H25277   3.345   4.317   8.819  0.2060 -0.1623  0.2165
  928MOL0     H25278   3.390   4.371   8.615 -1.3237 -3.9642 -1.1252
  928MOL0     H25279   3.555   4.448   8.598 -1.7621 -0.0285 -2.4335
  928MOL0     H25280   3.509   4.292   8.520  2.6282 -0.5934 -0.8405
  929MOL0     O25281   9.139   8.023   7.463 -0.1525  0.4507 -0.0284
  929MOL0     C25282   9.017   7.996   7.479 -0.0224 -0.8696 -0.5015
  929MOL0     O25283   8.942   7.887   7.435  0.2135 -0.3380 -0.1752
  929MOL0     C25284   9.013   7.772   7.404 -1.1410 -0.6555  0.3831
  929MOL0     C25285   9.066   7.694   7.499 -0.3055  0.0170  0.1633
  929MOL0     C25286   9.133   7.578   7.468 -0.7238 -1.3416  0.7875
  929MOL0     C25287   9.128   7.530   7.335  0.1105 -0.6548 -0.1410
  929MOL0     O25288   9.191   7.418   7.285  0.7675 -0.1547 -0.0438
  929MOL0     C25289   9.187   7.296   7.366 -0.5112  0.1760  0.3628
  929MOL0     C25290   9.314   7.287   7.439  0.4785  0.0208 -0.0122
  929MOL0     C25291   9.298   7.184   7.550  0.5368  0.1422  0.5893
  929MOL0     C25292   9.432   7.129   7.617  0.0589  0.0110  0.4285
  929MOL0     C25293   9.401   7.001   7.693 -1.4377  0.1293  0.7567
  929MOL0     C25294   9.525   6.938   7.751  0.4635 -0.3015  0.6040
  929MOL0     C25295   9.594   7.004   7.864  0.4348  0.7773 -0.3070
  929MOL0     C25296   9.709   6.919   7.926 -0.5455  0.1305 -0.1989
  929MOL0     N25297   9.658   6.793   7.983 -0.0231  0.6551  0.4323
  929MOL0     C25298   9.675   6.679   7.915 -0.6230  0.4554  0.9177
  929MOL0     C25299   9.624   6.586   8.002 -0.5037 -0.0634  0.7553
  929MOL0     C25300   9.600   6.447   7.957 -1.4207  0.0770  0.0384
  929MOL0     C25301   9.680   6.352   8.043  0.9193  0.3753 -0.1438
  929MOL0     C25302   9.833   6.331   7.995  0.8198 -0.0746 -1.4912
  929MOL0     C25303   9.936   6.440   8.028 -0.1886 -0.3946  0.5496
  929MOL0     O25304  10.050   6.371   7.977 -0.4310 -0.8947  0.6206
  929MOL0     C25305  10.148   6.461   7.929 -0.1525 -0.2628 -0.6857
  929MOL0     C25306  10.215   6.432   7.815  0.1893  0.1184  0.2858
  929MOL0     C25307  10.328   6.510   7.779  0.0983  0.0381 -0.0105
  929MOL0     C25308  10.358   6.627   7.857 -0.3287 -0.3290  0.2023
  929MOL0     C25309  10.469   6.711   7.800 -0.7663  0.5800  0.0218
  929MOL0     O25310  10.512   6.694   7.674  0.1617 -0.6136 -1.2525
  929MOL0     C25311  10.600   6.791   7.630  0.5856 -0.2237  0.4262
  929MOL0     C25312  10.535   6.912   7.605  0.2566  0.6911 -0.7998
  929MOL0     C25313  10.610   7.022   7.576 -0.0071 -0.1749  0.1420
  929MOL0     C25314  10.745   7.010   7.553 -0.4847 -1.0997 -0.7453
  929MOL0     O25315  10.809   7.131   7.535 -0.2634  0.1636 -0.3871
  929MOL0     C25316  10.877   7.190   7.647 -0.5944  0.1348  0.1853
  929MOL0     C25317  10.807   7.313   7.683  1.0044  0.2581 -0.4538
  929MOL0     C25318  10.773   7.413   7.571  0.6692 -0.1982 -0.5314
  929MOL0     C25319  10.891   7.432   7.469 -1.4562 -0.4103 -0.7705
  929MOL0     C25320  10.887   7.555   7.389 -0.3053 -0.1120 -0.4311
  929MOL0     C25321  11.012   7.549   7.297  0.1636 -0.3272  1.3233
  929MOL0     C25322  11.022   7.668   7.197 -1.1781 -0.0022 -0.5169
  929MOL0     C25323  11.153   7.661   7.109  0.2831 -0.1640 -0.4663
  929MOL0    Cl25324  11.285   7.715   7.192 -0.1121 -0.3106 -0.7397
  929MOL0     C25325  10.809   6.889   7.549 -0.4375  0.7615  0.2003
  929MOL0     C25326  10.732   6.772   7.593  0.2708 -0.1623  0.9842
  929MOL0     O25327  10.519   6.795   7.875  1.1766 -0.0589 -0.8146
  929MOL0     C25328  10.289   6.650   7.973  0.6123 -0.5176  0.2656
  929MOL0     C25329  10.192   6.572   8.016  0.6295  0.6771  0.7361
  929MOL0     N25330   9.571   6.651   8.115  0.7811 -0.3825 -0.1457
  929MOL0     N25331   9.586   6.779   8.099 -1.1692 -0.0120 -0.2279
  929MOL0     C25332   9.064   7.612   7.238 -0.9978  1.0913  0.6426
  929MOL0     C25333   9.009   7.735   7.268  0.0954 -0.1320 -1.0190
  929MOL0     C25334   8.931   8.107   7.526 -0.8758 -0.2680  0.4159
  929MOL0     C25335   8.810   8.130   7.464  1.1836 -0.0069 -0.0978
  929MOL0     C25336   8.716   8.234   7.515 -0.9407  0.7742  0.7827
  929MOL0     C25337   8.755   8.310   7.622  0.2525 -0.5554 -0.6309
  929MOL0     O25338   8.671   8.405   7.665  0.3899 -0.1793 -0.2447
  929MOL0     C25339   8.721   8.539   7.644 -0.8936  0.4846 -0.1438
  929MOL0     C25340   8.644   8.606   7.534  0.1182 -0.9269 -0.3795
  929MOL0     C25341   8.501   8.588   7.536  0.9967 -0.5572 -0.4752
  929MOL0     C25342   8.418   8.709   7.492 -0.7600  0.5293  0.5516
  929MOL0     C25343   8.439   8.834   7.565 -0.3140 -0.2032 -0.2093
  929MOL0     C25344   8.430   8.949   7.606  0.7223  0.3775 -0.0914
  929MOL0     C25345   8.881   8.295   7.672 -0.8507 -0.7449  0.4572
  929MOL0     C25346   8.968   8.192   7.628  0.8318 -0.2418  0.6385
  929MOL0     C25347   9.099   8.182   7.697 -0.0324 -0.8749  0.1430
  929MOL0     H25348   9.051   7.719   7.604 -0.7213  3.3819 -0.5721
  929MOL0     H25349   9.178   7.527   7.552  0.3995 -1.0002  0.4094
  929MOL0     H25350   9.094   7.295   7.425 -2.4188 -0.5230 -2.4725
  929MOL0     H25351   9.190   7.208   7.301 -2.4167  1.2939 -1.3768
  929MOL0     H25352   9.338   7.382   7.489  0.1438 -0.6063  1.4006
  929MOL0     H25353   9.395   7.263   7.369  1.6853  1.0129  1.0017
  929MOL0     H25354   9.240   7.101   7.507  0.7333  0.2087  0.1912
  929MOL0     H25355   9.245   7.219   7.638  2.3579  2.1941  0.9497
  929MOL0     H25356   9.505   7.101   7.540 -2.1130 -0.1681 -1.6599
  929MOL0     H25357   9.469   7.204   7.687 -1.2965  1.5617 -0.4708
  929MOL0     H25358   9.324   7.019   7.769 -1.2144  0.9068  0.8069
  929MOL0     H25359   9.354   6.928   7.627 -0.2894  1.0921 -1.2056
  929MOL0     H25360   9.506   6.839   7.794  0.6311  0.7525  3.2835
  929MOL0     H25361   9.585   6.927   7.660 -0.6028  4.1229 -0.8702
  929MOL0     H25362   9.511   7.022   7.933 -0.4539 -0.5364 -0.9954
  929MOL0     H25363   9.634   7.099   7.827  2.7531 -0.7414 -2.0538
  929MOL0     H25364   9.785   6.884   7.856  0.3470 -0.8140  1.1910
  929MOL0     H25365   9.759   6.980   8.002 -1.2180  0.5757 -0.1035
  929MOL0     H25366   9.718   6.671   7.816 -1.3495  1.0361  0.5431
  929MOL0     H25367   9.495   6.418   7.967 -0.5630 -3.0861  1.0067
  929MOL0     H25368   9.629   6.431   7.853 -0.4610  0.5579  0.2216
  929MOL0     H25369   9.677   6.382   8.148 -2.0312  1.5336 -0.4641
  929MOL0     H25370   9.624   6.258   8.046 -3.8340  2.8755  2.7232
  929MOL0     H25371   9.838   6.315   7.886  3.5337 -1.2510 -1.2726
  929MOL0     H25372   9.872   6.238   8.036  0.3289 -0.5554 -2.0758
  929MOL0     H25373   9.945   6.449   8.137 -1.1770 -1.2867  0.7194
  929MOL0     H25374   9.908   6.540   7.994 -0.9418 -0.8132 -0.1087
  929MOL0     H25375  10.177   6.342   7.766 -2.9242  0.4625  1.8110
  929MOL0     H25376  10.378   6.482   7.687 -0.4978 -3.5044  0.6174
  929MOL0     H25377  10.429   6.925   7.627  0.4179  0.2003  0.3261
  929MOL0     H25378  10.564   7.121   7.578 -2.4447 -1.2294 -0.5564
  929MOL0     H25379  10.878   7.129   7.738 -0.0034  2.9168  2.1600
  929MOL0     H25380  10.978   7.216   7.615  0.4158 -0.2175  2.8046
  929MOL0     H25381  10.713   7.279   7.726  1.2064 -4.5270 -3.1489
  929MOL0     H25382  10.855   7.356   7.772 -0.0794  1.3346 -0.3534
  929MOL0     H25383  10.685   7.388   7.510 -0.9825  1.2034  1.1707
  929MOL0     H25384  10.737   7.506   7.615 -2.0809 -1.4236 -0.0210
  929MOL0     H25385  10.893   7.350   7.396  0.6548  2.0328 -3.7105
  929MOL0     H25386  10.984   7.442   7.525 -0.7240  3.7206 -2.3483
  929MOL0     H25387  10.891   7.651   7.441  3.5985  1.4552 -3.0752
  929MOL0     H25388  10.797   7.549   7.327 -1.1824 -0.5994  0.8430
  929MOL0     H25389  11.112   7.547   7.342  1.2225  2.3310 -0.6583
  929MOL0     H25390  10.989   7.467   7.228 -0.8845  1.7170 -0.8860
  929MOL0     H25391  11.029   7.761   7.254 -5.2580  0.7040 -0.8822
  929MOL0     H25392  10.929   7.665   7.140 -2.2716 -2.8753  1.2253
  929MOL0     H25393  11.155   7.557   7.074  0.0742  0.4093 -2.2597
  929MOL0     H25394  11.146   7.743   7.037  0.3987  0.3322  0.0774
  929MOL0     H25395  10.916   6.886   7.530 -0.3790 -0.9865  0.5914
  929MOL0     H25396  10.760   6.668   7.611 -2.1210 -0.7650  1.5889
  929MOL0     H25397  10.328   6.731   8.034  1.5707 -0.5242 -0.3099
  929MOL0     H25398  10.144   6.591   8.111  2.0762  2.9559  1.0842
  929MOL0     H25399   9.074   7.575   7.137  1.3132 -2.1967  1.8980
  929MOL0     H25400   8.955   7.787   7.189 -2.1752  0.3145  0.7042
  929MOL0     H25401   8.758   8.071   7.390 -3.0505  4.5414 -1.3137
  929MOL0     H25402   8.619   8.253   7.471  0.2530  3.2034 -1.0220
  929MOL0     H25403   8.825   8.541   7.610 -0.7432  0.1154  0.2810
  929MOL0     H25404   8.734   8.593   7.738 -0.1340  1.6993 -0.9268
  929MOL0     H25405   8.685   8.565   7.441 -0.5553 -1.0992 -0.6040
  929MOL0     H25406   8.676   8.709   7.516  3.0593 -1.5865  0.3972
  929MOL0     H25407   8.465   8.565   7.637  0.9152 -2.1387 -0.8289
  929MOL0     H25408   8.457   8.505   7.480 -4.1921  0.2175  1.8277
  929MOL0     H25409   8.442   8.722   7.386  1.6082 -0.2123  0.9402
  929MOL0     H25410   8.310   8.694   7.497 -1.5024  4.6245  0.2555
  929MOL0     H25411   8.424   9.044   7.655  1.4971  0.1675  0.4283
  929MOL0     H25412   8.898   8.360   7.757 -0.5033  5.5730 -3.7612
  929MOL0     H25413   9.100   8.213   7.802 -0.4935 -0.0440 -0.0888
  929MOL0     H25414   9.142   8.081   7.694 -0.1516 -0.9090 -0.5768
  929MOL0     H25415   9.166   8.252   7.646  1.3646 -2.1507  0.1402
  930MOL0     O25416   4.360   8.999   1.701 -0.7994 -0.1861 -0.0995
  930MOL0     C25417   4.315   8.909   1.636  0.1548 -0.1622  0.2744
  930MOL0     O25418   4.334   8.777   1.669 -0.9808 -0.2785 -0.0661
  930MOL0     C25419   4.448   8.745   1.738  0.0339 -0.0753 -0.5312
  930MOL0     C25420   4.478   8.797   1.866  0.2079  0.1952 -0.8202
  930MOL0     C25421   4.595   8.749   1.931  0.1803  0.1495  0.5868
  930MOL0     C25422   4.677   8.649   1.877  0.0883  0.3376 -0.3947
  930MOL0     O25423   4.793   8.628   1.944 -1.0838  0.1788  0.3763
  930MOL0     C25424   4.776   8.606   2.082 -0.5819 -0.4392  0.4082
  930MOL0     C25425   4.692   8.480   2.107  0.5174  0.3486 -0.4734
  930MOL0     C25426   4.757   8.357   2.052  0.5874  0.0904  0.6580
  930MOL0     C25427   4.669   8.240   2.098 -0.1371 -0.0611 -0.9596
  930MOL0     C25428   4.718   8.100   2.053  0.5336  0.4190  0.2828
  930MOL0     C25429   4.679   8.076   1.908 -0.1168  0.3414 -1.2225
  930MOL0     C25430   4.722   7.930   1.877  0.1489 -1.2504 -0.3366
  930MOL0     C25431   4.688   7.896   1.730 -1.2953 -0.0226 -0.4789
  930MOL0     N25432   4.732   7.768   1.687  0.1672  0.5529 -0.1692
  930MOL0     C25433   4.858   7.713   1.711  0.1756  0.2065 -0.9687
  930MOL0     C25434   4.861   7.590   1.646  0.3088  0.1962  0.8858
  930MOL0     C25435   4.974   7.487   1.646 -0.3989  0.5772 -0.1864
  930MOL0     C25436   5.065   7.509   1.531  0.3468 -0.0747  0.0948
  930MOL0     C25437   5.145   7.389   1.470  0.4627  0.8195 -1.1213
  930MOL0     C25438   5.054   7.316   1.379  0.6419  0.8455 -0.3287
  930MOL0     O25439   5.137   7.206   1.330  0.1516  0.0563 -0.6541
  930MOL0     C25440   5.072   7.087   1.311  0.4681  0.9605 -0.3737
  930MOL0     C25441   5.025   7.017   1.425 -0.2174 -0.4915  0.5899
  930MOL0     C25442   4.977   6.887   1.414 -0.6000 -0.0139 -0.2885
  930MOL0     C25443   4.959   6.831   1.286 -0.2199  0.1270  0.5120
  930MOL0     C25444   4.883   6.697   1.268  0.9258 -0.8922  0.0611
  930MOL0     O25445   4.795   6.659   1.357  0.3842  0.1623 -0.2860
  930MOL0     C25446   4.725   6.545   1.333  0.4360  0.2284 -0.0408
  930MOL0     C25447   4.768   6.429   1.401 -0.4424  0.6990  0.6433
  930MOL0     C25448   4.688   6.312   1.376  0.7902  1.0422  0.9083
  930MOL0     C25449   4.567   6.320   1.299  0.0976  0.0812  1.2862
  930MOL0     O25450   4.489   6.213   1.294  0.2146 -0.0332  0.0703
  930MOL0     C25451   4.365   6.205   1.219 -0.1052  0.2287  0.2774
  930MOL0     C25452   4.283   6.069   1.239 -0.4268  0.0679  0.3982
  930MOL0     C25453   4.240   6.040   1.377  0.5013 -0.4185  0.2191
  930MOL0     C25454   4.098   6.075   1.402 -0.0254  0.6722  0.3384
  930MOL0     C25455   4.056   6.023   1.542 -0.4064 -0.9171 -0.5951
  930MOL0     C25456   3.952   6.110   1.601 -0.3264 -0.1324  0.1811
  930MOL0     C25457   3.881   6.041   1.721 -0.3561  0.1052  0.5201
  930MOL0     C25458   3.972   5.973   1.829 -0.5558 -0.6712  0.5359
  930MOL0    Cl25459   4.115   6.051   1.877 -0.3711  0.2688 -0.0679
  930MOL0     C25460   4.527   6.438   1.235  0.0518 -0.8503 -0.2588
  930MOL0     C25461   4.614   6.554   1.252 -0.0574  0.5151 -0.3537
  930MOL0     O25462   4.903   6.638   1.159 -0.6111 -0.2951  0.4213
  930MOL0     C25463   4.993   6.907   1.172  0.1149 -0.0895  0.9610
  930MOL0     C25464   5.050   7.028   1.184 -0.6301 -0.1181  0.8584
  930MOL0     N25465   4.740   7.583   1.576 -0.7111  1.2488 -0.5761
  930MOL0     N25466   4.668   7.687   1.606 -0.3880 -0.3886 -0.4385
  930MOL0     C25467   4.632   8.587   1.761  0.2352  0.3318 -1.0109
  930MOL0     C25468   4.522   8.633   1.689 -0.5087  0.2526 -0.5680
  930MOL0     C25469   4.238   8.949   1.521 -0.0215 -0.1205  0.4049
  930MOL0     C25470   4.270   9.075   1.461  0.4938 -0.4229  0.5123
  930MOL0     C25471   4.194   9.127   1.356  0.2674  0.9780 -0.3681
  930MOL0     C25472   4.085   9.048   1.304  0.8991 -0.6956 -0.1069
  930MOL0     O25473   3.998   9.094   1.204  0.3579  0.8933 -1.0837
  930MOL0     C25474   4.055   9.090   1.070  0.6177  0.0616  0.9025
  930MOL0     C25475   4.008   8.959   0.998 -0.0766  0.0848 -0.2875
  930MOL0     C25476   3.858   8.949   0.986  0.2260 -0.2272 -0.1080
  930MOL0     C25477   3.788   9.038   0.875  0.8980  0.7523  0.2700
  930MOL0     C25478   3.655   8.977   0.849  0.6043 -1.5692  0.0702
  930MOL0     C25479   3.553   8.928   0.805 -0.2324 -0.3732 -0.6232
  930MOL0     C25480   4.060   8.921   1.353 -1.2263  0.4462 -0.1329
  930MOL0     C25481   4.125   8.873   1.466  0.5796  0.9094 -0.2677
  930MOL0     C25482   4.073   8.746   1.538  0.3221  1.4116 -0.5446
  930MOL0     H25483   4.418   8.868   1.923  0.8115  0.6605 -0.7481
  930MOL0     H25484   4.616   8.807   2.021  0.4907  1.9863 -0.6134
  930MOL0     H25485   4.879   8.596   2.117  0.0850 -2.2789 -1.8625
  930MOL0     H25486   4.746   8.703   2.125 -3.7324  0.2370 -2.9015
  930MOL0     H25487   4.592   8.486   2.064  0.9374  0.9957 -1.4032
  930MOL0     H25488   4.680   8.478   2.216 -0.0851 -0.2959 -0.5482
  930MOL0     H25489   4.852   8.361   2.105 -0.2480  0.4025  2.1834
  930MOL0     H25490   4.763   8.352   1.943 -1.2426 -1.4353  0.5673
  930MOL0     H25491   4.654   8.230   2.206 -1.8010 -2.4376 -1.3209
  930MOL0     H25492   4.568   8.248   2.056 -1.7993  1.4218  2.9196
  930MOL0     H25493   4.827   8.102   2.065  0.6210  3.5785 -0.2845
  930MOL0     H25494   4.669   8.017   2.105  0.7629 -0.8500 -1.4260
  930MOL0     H25495   4.570   8.078   1.899 -0.3228 -0.1908  0.6421
  930MOL0     H25496   4.729   8.134   1.830  2.7450 -0.8947 -0.4586
  930MOL0     H25497   4.668   7.858   1.939 -1.0216  0.9604  1.3429
  930MOL0     H25498   4.830   7.921   1.891  0.1437  0.3578  1.0108
  930MOL0     H25499   4.583   7.924   1.717 -1.7816 -0.6389  1.5723
  930MOL0     H25500   4.749   7.955   1.661 -0.6098 -0.8409 -0.5847
  930MOL0     H25501   4.939   7.740   1.778 -0.5905  2.1954 -0.7730
  930MOL0     H25502   5.039   7.484   1.734 -1.5361 -1.9320  0.6756
  930MOL0     H25503   4.935   7.384   1.642  1.6370 -0.3142  1.1787
  930MOL0     H25504   5.000   7.546   1.451  1.2284  0.3240 -0.4591
  930MOL0     H25505   5.130   7.595   1.549  0.6283 -0.1645 -0.4775
  930MOL0     H25506   5.179   7.333   1.557 -1.0024  1.4484 -0.1174
  930MOL0     H25507   5.227   7.425   1.407  0.1443 -1.3933 -2.9541
  930MOL0     H25508   5.019   7.379   1.296 -1.8783 -0.0122 -0.0201
  930MOL0     H25509   4.966   7.277   1.431  0.1543  2.5380  0.1870
  930MOL0     H25510   5.038   7.063   1.523 -1.3140  0.0780  0.4796
  930MOL0     H25511   4.937   6.844   1.506 -0.1490  0.4571  0.1383
  930MOL0     H25512   4.855   6.440   1.465 -0.6034  2.0369  0.6560
  930MOL0     H25513   4.724   6.221   1.425  1.2400 -0.9542 -2.7545
  930MOL0     H25514   4.295   6.285   1.245  2.4456  1.8437  2.7040
  930MOL0     H25515   4.381   6.222   1.112 -0.2028  2.4938  0.5775
  930MOL0     H25516   4.201   6.061   1.167 -0.6442 -1.5506  0.7909
  930MOL0     H25517   4.345   5.985   1.207 -0.5523  1.1212 -2.9139
  930MOL0     H25518   4.254   5.932   1.390  2.9741 -0.0539  0.9856
  930MOL0     H25519   4.285   6.092   1.463 -2.2895 -0.3220  1.7423
  930MOL0     H25520   4.032   6.035   1.324 -0.0563 -1.1264  1.2323
  930MOL0     H25521   4.084   6.184   1.395 -5.1040  0.1863 -3.1397
  930MOL0     H25522   4.143   6.007   1.605 -0.9109  1.0569  0.6841
  930MOL0     H25523   4.011   5.924   1.532  0.9768 -2.0535  2.9232
  930MOL0     H25524   4.010   6.199   1.630  0.9696 -0.6854 -0.6467
  930MOL0     H25525   3.873   6.138   1.531  1.5564  4.5288 -0.4388
  930MOL0     H25526   3.819   5.960   1.681 -0.2033 -0.0076  0.5109
  930MOL0     H25527   3.827   6.130   1.754  1.0482  0.7552  1.1308
  930MOL0     H25528   3.914   5.963   1.921 -3.2554  1.0255 -0.8495
  930MOL0     H25529   4.008   5.878   1.787  1.4059  1.1482 -2.2521
  930MOL0     H25530   4.431   6.465   1.190  0.0400  0.9929  0.7495
  930MOL0     H25531   4.604   6.642   1.190  2.0502 -0.0639 -1.6126
  930MOL0     H25532   4.978   6.868   1.071 -0.5666  0.2791  0.9130
  930MOL0     H25533   5.078   7.081   1.094  0.8675  1.7788  2.3433
  930MOL0     H25534   4.682   8.504   1.712 -0.1352 -0.2299 -0.4475
  930MOL0     H25535   4.489   8.582   1.599 -1.6931  0.2412 -0.1475
  930MOL0     H25536   4.340   9.145   1.505  0.8646  0.3884 -1.2602
  930MOL0     H25537   4.221   9.222   1.310  3.1061 -0.4479 -1.9305
  930MOL0     H25538   4.164   9.097   1.073  0.6580  1.4317 -1.2353
  930MOL0     H25539   4.028   9.186   1.025  1.7011  0.9342  2.0453
  930MOL0     H25540   4.038   8.877   1.063  3.7957  0.4914 -1.2727
  930MOL0     H25541   4.073   8.946   0.910  1.4902 -3.5116  1.2021
  930MOL0     H25542   3.824   8.966   1.088  1.9625 -1.5095  0.7520
  930MOL0     H25543   3.831   8.844   0.967  1.3951 -1.0637  2.3525
  930MOL0     H25544   3.776   9.145   0.898  0.9023  1.3960 -2.3487
  930MOL0     H25545   3.854   9.031   0.788  4.9868  0.0194  3.1359
  930MOL0     H25546   3.465   8.884   0.764 -0.0266 -0.7107 -0.7100
  930MOL0     H25547   3.975   8.862   1.319 -0.8237 -1.5909  2.1274
  930MOL0     H25548   4.099   8.645   1.507 -4.7651 -0.7274  1.0874
  930MOL0     H25549   4.098   8.748   1.645  0.0136 -2.4069 -0.2719
  930MOL0     H25550   3.965   8.757   1.546  0.3318  2.1398 -1.3265
  931MOL0     O25551   8.462   1.865   9.183  0.1421  1.0330 -0.3071
  931MOL0     C25552   8.346   1.851   9.148 -0.5596  0.2125 -0.0140
  931MOL0     O25553   8.304   1.749   9.063  0.7741 -0.6115 -0.2346
  931MOL0     C25554   8.403   1.676   8.999 -0.3887  0.3991  1.1964
  931MOL0     C25555   8.481   1.720   8.886 -0.3434 -0.8600  1.0140
  931MOL0     C25556   8.569   1.631   8.820 -0.3500  0.7623 -0.0709
  931MOL0     C25557   8.571   1.500   8.859  0.3699  0.3357 -1.0619
  931MOL0     O25558   8.636   1.406   8.785 -0.0988 -0.7355 -0.3759
  931MOL0     C25559   8.753   1.344   8.850  1.4247 -0.3221 -0.9186
  931MOL0     C25560   8.842   1.259   8.765  0.0963  0.8063  0.0614
  931MOL0     C25561   8.948   1.187   8.827  0.5855 -0.9785  0.8009
  931MOL0     C25562   8.904   1.100   8.950  0.0867 -0.9480 -0.1722
  931MOL0     C25563   9.002   0.999   8.996 -0.2580  0.8492  0.0316
  931MOL0     C25564   8.953   0.924   9.122  0.3161  0.7689  0.4110
  931MOL0     C25565   8.818   0.848   9.100 -0.2162 -0.2955  0.6760
  931MOL0     C25566   8.778   0.751   9.210  0.8201  0.3642  0.0009
  931MOL0     N25567   8.790   0.785   9.351  0.2036 -0.8314 -0.2588
  931MOL0     C25568   8.723   0.899   9.397 -0.4742  0.1406 -0.4197
  931MOL0     C25569   8.747   0.881   9.533  0.9553 -0.5159  0.1358
  931MOL0     C25570   8.701   0.989   9.627  0.0795  0.8114  0.6945
  931MOL0     C25571   8.805   1.102   9.617  0.1165 -0.0937 -0.3953
  931MOL0     C25572   8.790   1.208   9.731 -0.2204  0.0480  0.8528
  931MOL0     C25573   8.911   1.309   9.756 -0.3536 -0.5950  0.0540
  931MOL0     O25574   8.919   1.396   9.648  0.0683 -0.6053 -0.0202
  931MOL0     C25575   9.030   1.463   9.625 -0.2638  0.3535  0.6071
  931MOL0     C25576   9.151   1.434   9.694  0.3298 -0.2833 -1.2109
  931MOL0     C25577   9.260   1.506   9.657  0.3012 -0.1834  0.4143
  931MOL0     C25578   9.255   1.612   9.576 -0.3434 -0.1086 -0.2270
  931MOL0     C25579   9.362   1.708   9.579 -0.0355  0.3787  0.1656
  931MOL0     O25580   9.461   1.680   9.672 -0.4772  0.6192 -1.4521
  931MOL0     C25581   9.573   1.763   9.672  0.2410  0.0800 -0.7300
  931MOL0     C25582   9.614   1.824   9.793  0.0060 -0.6927  0.0703
  931MOL0     C25583   9.722   1.920   9.786  0.6426 -0.1054  0.4487
  931MOL0     C25584   9.795   1.939   9.658 -0.3889 -0.1413 -0.4204
  931MOL0     O25585   9.905   2.016   9.649  0.3279  0.3632  0.4346
  931MOL0     C25586  10.020   1.987   9.714  0.5567 -0.1843  0.3742
  931MOL0     C25587  10.103   1.883   9.654 -0.2655 -0.7348 -0.5775
  931MOL0     C25588  10.138   1.919   9.503  0.5474 -0.0390 -0.8315
  931MOL0     C25589  10.243   2.036   9.485  0.3215 -0.5458  0.5608
  931MOL0     C25590  10.212   2.099   9.341 -0.4234 -0.0106 -0.0021
  931MOL0     C25591  10.244   1.993   9.233 -0.1117  0.7315  0.7472
  931MOL0     C25592  10.246   2.059   9.093 -0.8200 -0.8495  0.0470
  931MOL0     C25593  10.262   1.952   8.978 -0.3819  0.3992  0.0332
  931MOL0    Cl25594  10.103   1.869   8.947 -0.1909 -0.1159  0.3697
  931MOL0     C25595   9.756   1.877   9.544 -0.0880  1.2749  0.3124
  931MOL0     C25596   9.644   1.796   9.559 -0.3440 -0.8264  0.3788
  931MOL0     O25597   9.361   1.797   9.497 -0.7554 -0.6910  0.4564
  931MOL0     C25598   9.139   1.636   9.499  0.4869  0.6128  0.7049
  931MOL0     C25599   9.036   1.555   9.521 -0.7131 -0.1629 -0.4080
  931MOL0     N25600   8.822   0.773   9.560 -0.8612  1.1077  0.3152
  931MOL0     N25601   8.855   0.715   9.451  0.2844 -0.6655 -0.7224
  931MOL0     C25602   8.490   1.451   8.962 -0.6334  0.0464 -0.1091
  931MOL0     C25603   8.402   1.537   9.032  0.4354 -0.4887 -0.3765
  931MOL0     C25604   8.263   1.964   9.181  0.1715 -0.5850 -0.3227
  931MOL0     C25605   8.239   1.987   9.317 -0.8579  0.0410  0.1810
  931MOL0     C25606   8.165   2.091   9.362  0.4906  0.4174  0.2816
  931MOL0     C25607   8.096   2.170   9.269  0.3948  0.4491  0.1552
  931MOL0     O25608   8.013   2.264   9.323 -0.4406  0.2693 -0.2749
  931MOL0     C25609   8.037   2.399   9.273 -0.2217  0.6897  0.2446
  931MOL0     C25610   7.913   2.471   9.219  0.7565  0.4762 -0.1272
  931MOL0     C25611   7.812   2.518   9.321  0.7300  0.3875 -0.1487
  931MOL0     C25612   7.798   2.667   9.345  0.1439 -0.9482 -0.1994
  931MOL0     C25613   7.924   2.737   9.366  0.5745  0.5722  0.6949
  931MOL0     C25614   8.021   2.809   9.373 -0.1488  0.7284  0.4329
  931MOL0     C25615   8.113   2.149   9.126  0.3586  0.0195 -0.6001
  931MOL0     C25616   8.195   2.046   9.089  0.1714  0.1649  0.5464
  931MOL0     C25617   8.215   2.028   8.943  0.1230  0.2117  0.5777
  931MOL0     H25618   8.471   1.823   8.854  0.3049 -0.9142  0.6227
  931MOL0     H25619   8.625   1.670   8.735  3.4271  1.2541  2.3716
  931MOL0     H25620   8.809   1.433   8.879  1.1054 -0.7827  1.3043
  931MOL0     H25621   8.722   1.290   8.940  6.1674 -1.2717  0.4368
  931MOL0     H25622   8.892   1.318   8.687  0.3414  0.6402  0.0906
  931MOL0     H25623   8.790   1.175   8.719  1.4456  0.5901 -1.1550
  931MOL0     H25624   9.022   1.263   8.855 -1.0307  0.5363  1.1387
  931MOL0     H25625   8.994   1.125   8.749  2.0494  2.6695 -1.4994
  931MOL0     H25626   8.900   1.173   9.031  3.1862 -2.4081  1.4686
  931MOL0     H25627   8.801   1.066   8.944 -0.8154  1.6953 -1.2748
  931MOL0     H25628   9.013   0.918   8.923  0.3413 -1.1332  2.1944
  931MOL0     H25629   9.100   1.045   9.014 -0.9963  1.9417  1.5450
  931MOL0     H25630   9.032   0.853   9.148  0.8335  1.2809  0.2379
  931MOL0     H25631   8.936   0.996   9.202  0.2646  2.7711 -1.3106
  931MOL0     H25632   8.832   0.804   9.001 -1.3143 -0.2571  0.4888
  931MOL0     H25633   8.737   0.922   9.103 -0.1238 -0.1201 -0.4857
  931MOL0     H25634   8.674   0.720   9.192  0.7563 -1.2955  2.6201
  931MOL0     H25635   8.836   0.660   9.190 -2.6882 -1.8178 -1.2974
  931MOL0     H25636   8.683   0.985   9.344  2.4076  0.1397 -2.9069
  931MOL0     H25637   8.601   1.029   9.607  0.5845  1.0269 -1.6193
  931MOL0     H25638   8.710   0.958   9.732  0.1853 -2.2484 -0.1413
  931MOL0     H25639   8.896   1.042   9.625 -1.5251 -2.7001 -0.3511
  931MOL0     H25640   8.807   1.167   9.529  0.7500  2.9232  1.6470
  931MOL0     H25641   8.803   1.155   9.825  0.6678 -0.2947  0.5468
  931MOL0     H25642   8.695   1.263   9.731 -0.9030 -1.0218  3.3880
  931MOL0     H25643   8.995   1.244   9.781 -1.5504 -2.7821 -1.2460
  931MOL0     H25644   8.889   1.370   9.844 -0.1679  0.6088 -0.7019
  931MOL0     H25645   9.162   1.373   9.783  1.8656  0.5869 -0.7824
  931MOL0     H25646   9.346   1.479   9.718  1.7473 -0.0033 -1.4470
  931MOL0     H25647   9.561   1.798   9.884 -0.6567  0.0992 -0.0770
  931MOL0     H25648   9.746   1.971   9.879  0.8794 -0.1280  0.4020
  931MOL0     H25649  10.071   2.081   9.735 -0.5852  0.5435 -0.0437
  931MOL0     H25650   9.992   1.942   9.810  0.2007  0.9873  0.8308
  931MOL0     H25651  10.199   1.866   9.704 -0.6604 -2.2576 -0.2900
  931MOL0     H25652  10.052   1.787   9.653  1.0462 -1.4703 -0.1721
  931MOL0     H25653  10.182   1.833   9.452 -1.5788 -1.7393  0.0427
  931MOL0     H25654  10.046   1.935   9.446  0.7702  0.9391 -0.9268
  931MOL0     H25655  10.346   1.999   9.491 -0.2516 -1.9587  2.1956
  931MOL0     H25656  10.235   2.111   9.564  3.3917 -0.5672  1.0400
  931MOL0     H25657  10.268   2.193   9.338 -0.8411  0.2495  0.2180
  931MOL0     H25658  10.107   2.130   9.344 -0.8096 -0.9037 -2.3640
  931MOL0     H25659  10.342   1.948   9.250 -0.2776  0.4659  1.0161
  931MOL0     H25660  10.178   1.906   9.246  1.2544 -0.1779  1.9511
  931MOL0     H25661  10.334   2.124   9.088 -1.7514  0.4852  0.5701
  931MOL0     H25662  10.158   2.122   9.078  0.1643  0.4168 -0.6235
  931MOL0     H25663  10.289   2.003   8.885 -2.5888  2.3058  0.3417
  931MOL0     H25664  10.345   1.883   8.990 -1.4926 -0.8462  0.8233
  931MOL0     H25665   9.816   1.889   9.455  2.4159  2.6884  2.0712
  931MOL0     H25666   9.608   1.731   9.480 -1.2130  0.9195 -0.7247
  931MOL0     H25667   9.128   1.717   9.428 -2.6009  0.7070  1.1312
  931MOL0     H25668   8.943   1.578   9.469 -0.4892  2.5573  0.2230
  931MOL0     H25669   8.487   1.343   8.975  0.9236 -0.2408 -1.6823
  931MOL0     H25670   8.354   1.501   9.123  1.2601  0.6247  0.5191
  931MOL0     H25671   8.289   1.918   9.384  0.8408 -0.5943 -1.6443
  931MOL0     H25672   8.137   2.100   9.466 -0.0272 -2.5239  0.4733
  931MOL0     H25673   8.100   2.392   9.183  0.5834 -1.7644  0.9252
  931MOL0     H25674   8.081   2.459   9.353 -2.0100  0.7247  1.2358
  931MOL0     H25675   7.865   2.395   9.157 -0.3772 -0.8485  2.2720
  931MOL0     H25676   7.952   2.553   9.157  1.4715 -0.7029 -1.2674
  931MOL0     H25677   7.839   2.470   9.416 -1.9821  2.5367  1.8930
  931MOL0     H25678   7.714   2.476   9.297  0.5447  0.1335  0.9634
  931MOL0     H25679   7.753   2.706   9.253 -2.5817 -0.1061  1.3810
  931MOL0     H25680   7.735   2.694   9.430  0.5840  1.6265 -0.6124
  931MOL0     H25681   8.112   2.864   9.384  1.2733 -1.6036  0.8068
  931MOL0     H25682   8.067   2.198   9.040 -0.1233 -2.3528 -1.7704
  931MOL0     H25683   8.122   1.986   8.905  0.1702 -2.5093  3.1118
  931MOL0     H25684   8.255   2.125   8.911 -0.5058  0.9754  2.0627
  931MOL0     H25685   8.294   1.953   8.924  1.6172  2.0104 -0.7145
  932MOL0     O25686   1.551  11.200  10.559  0.9999 -0.5443 -0.1215
  932MOL0     C25687   1.577  11.122  10.469 -0.0915 -0.3639  0.5268
  932MOL0     O25688   1.535  11.136  10.341 -0.0685  0.0492  0.1554
  932MOL0     C25689   1.433  11.223  10.324 -0.0793  0.8892  0.1702
  932MOL0     C25690   1.298  11.171  10.325 -0.2704 -0.1056 -0.3635
  932MOL0     C25691   1.194  11.257  10.283 -0.1438  0.3613  0.9082
  932MOL0     C25692   1.224  11.394  10.244  0.1039  0.5994  0.1288
  932MOL0     O25693   1.112  11.472  10.206  0.3885 -0.0588  0.1258
  932MOL0     C25694   1.125  11.616  10.166 -0.2600 -0.9077 -0.6469
  932MOL0     C25695   0.977  11.664  10.134 -0.2608  0.8192  0.0608
  932MOL0     C25696   0.882  11.667  10.257 -0.0275  0.2580 -0.0161
  932MOL0     C25697   0.743  11.696  10.207  0.2452  0.5634  0.7587
  932MOL0     C25698   0.664  11.780  10.306  0.3542  0.3423  0.6965
  932MOL0     C25699   0.521  11.800  10.262 -0.1317  0.4773 -0.4010
  932MOL0     C25700   0.503  11.868  10.124 -0.8542  0.5077 -0.0543
  932MOL0     C25701   0.580  12.007  10.114 -0.2190  0.6922  0.0939
  932MOL0     N25702   0.566  12.074   9.984  0.3032  1.1149 -0.2724
  932MOL0     C25703   0.583  12.212   9.963  0.3663 -0.4081  0.3859
  932MOL0     C25704   0.574  12.228   9.831  0.5187  0.0276  0.1754
  932MOL0     C25705   0.557  12.358   9.744 -0.0295  0.3380 -0.8786
  932MOL0     C25706   0.597  12.336   9.596 -0.3433  0.6092 -0.7374
  932MOL0     C25707   0.655  12.467   9.530 -0.2342 -0.8154  0.3263
  932MOL0     C25708   0.800  12.479   9.566 -0.2938 -0.5953 -0.1426
  932MOL0     O25709   0.872  12.390   9.492 -0.3053 -0.3653 -0.1399
  932MOL0     C25710   1.004  12.357   9.524  0.7937  0.0917 -0.9540
  932MOL0     C25711   1.067  12.253   9.460 -0.8004  0.1373  0.3417
  932MOL0     C25712   1.194  12.196   9.500 -0.5012 -0.5592 -0.4082
  932MOL0     C25713   1.266  12.261   9.601  0.2160  0.3277 -0.0316
  932MOL0     C25714   1.400  12.226   9.651 -1.4943 -0.2026 -0.5707
  932MOL0     O25715   1.464  12.314   9.739  0.2182  0.0830 -0.0749
  932MOL0     C25716   1.581  12.292   9.791  0.6177 -0.2234  1.3433
  932MOL0     C25717   1.616  12.166   9.850 -0.2622  1.1664 -0.2528
  932MOL0     C25718   1.740  12.154   9.912 -0.5216  0.2109 -1.1955
  932MOL0     C25719   1.818  12.271   9.941 -0.4924  0.9228  0.3703
  932MOL0     O25720   1.935  12.237  10.000  1.2935  0.3887  0.0662
  932MOL0     C25721   2.021  12.334  10.041  0.4584  0.8589 -0.0933
  932MOL0     C25722   2.124  12.287  10.145 -0.3614 -0.2140  0.4119
  932MOL0     C25723   2.220  12.191  10.071  0.3072 -0.6625  0.1188
  932MOL0     C25724   2.293  12.098  10.176  0.0412 -0.8383  0.6600
  932MOL0     C25725   2.377  11.984  10.101  0.5131 -0.6748 -0.3067
  932MOL0     C25726   2.503  12.029  10.033  0.3817 -0.4594 -0.1583
  932MOL0     C25727   2.548  11.929   9.932 -0.4350 -0.1299  0.2795
  932MOL0     C25728   2.626  11.979   9.811  0.3127 -0.7289  0.5226
  932MOL0    Cl25729   2.766  12.079   9.865  0.0845  0.0378 -0.0172
  932MOL0     C25730   1.779  12.394   9.886  0.9770  0.5133 -0.4771
  932MOL0     C25731   1.664  12.405   9.810  0.9066 -0.3972 -0.1848
  932MOL0     O25732   1.446  12.127   9.601  0.3354  0.6021  0.2883
  932MOL0     C25733   1.204  12.373   9.660  0.2238 -0.0336 -0.1217
  932MOL0     C25734   1.073  12.416   9.632  0.2258  0.2202 -0.0225
  932MOL0     N25735   0.543  12.102   9.778 -0.3105  0.0614  0.2031
  932MOL0     N25736   0.544  12.008   9.872 -0.3951 -0.4609  1.3558
  932MOL0     C25737   1.362  11.432  10.226 -0.2298  1.2828 -0.4439
  932MOL0     C25738   1.463  11.349  10.276  0.5437 -0.8619  0.8874
  932MOL0     C25739   1.675  11.012  10.490 -0.1359  0.9836  0.7604
  932MOL0     C25740   1.748  10.953  10.385 -0.0323 -0.1715  1.2423
  932MOL0     C25741   1.843  10.859  10.403 -0.5430  0.1607  0.8830
  932MOL0     C25742   1.871  10.797  10.522 -0.0760 -0.6900 -0.1336
  932MOL0     O25743   1.980  10.719  10.528 -0.0937 -0.7297 -0.4252
  932MOL0     C25744   2.024  10.661  10.655 -0.0775  0.3668  0.7000
  932MOL0     C25745   1.974  10.521  10.680  1.1510 -0.1432  0.8129
  932MOL0     C25746   2.024  10.477  10.820 -0.8320 -0.4933  0.0504
  932MOL0     C25747   2.149  10.387  10.823 -0.2226  0.5113  0.0616
  932MOL0     C25748   2.269  10.428  10.754 -0.4528 -0.9884  0.1200
  932MOL0     C25749   2.366  10.466  10.689 -0.3842  0.2025 -0.0711
  932MOL0     C25750   1.793  10.845  10.636  0.3147  0.4847  0.4446
  932MOL0     C25751   1.696  10.947  10.619 -0.9010 -0.4361  0.0512
  932MOL0     C25752   1.609  10.993  10.740 -0.4632 -0.7121  0.3603
  932MOL0     H25753   1.284  11.069  10.361 -1.6583  0.4045  0.6158
  932MOL0     H25754   1.093  11.219  10.274  0.3465 -0.4337 -3.5171
  932MOL0     H25755   1.161  11.668  10.255 -1.5783 -3.5450  1.5702
  932MOL0     H25756   1.184  11.624  10.074 -2.1132  4.3121 -1.7562
  932MOL0     H25757   0.943  11.582  10.071  0.5867 -0.6028  1.3790
  932MOL0     H25758   0.978  11.766  10.094  0.8040  0.4489 -0.9314
  932MOL0     H25759   0.926  11.747  10.317 -0.4083  0.5323 -0.0913
  932MOL0     H25760   0.866  11.577  10.316  0.3697  0.3117  0.1736
  932MOL0     H25761   0.741  11.744  10.109  0.7812 -1.0567 -0.0787
  932MOL0     H25762   0.693  11.602  10.184  2.2219 -0.6212  1.1089
  932MOL0     H25763   0.667  11.733  10.405  0.8692 -0.9101  0.1089
  932MOL0     H25764   0.712  11.878  10.318 -0.4738  0.9346 -0.5991
  932MOL0     H25765   0.473  11.702  10.252  0.3917  0.1699  0.0644
  932MOL0     H25766   0.474  11.870  10.332  0.4940 -2.8820  3.7244
  932MOL0     H25767   0.396  11.890  10.112 -0.8016  1.5467  1.0607
  932MOL0     H25768   0.542  11.792  10.056  1.7576  0.8076  0.9757
  932MOL0     H25769   0.545  12.072  10.195  0.7640  1.1939  0.1290
  932MOL0     H25770   0.687  11.987  10.117 -0.3730 -0.2136  0.0525
  932MOL0     H25771   0.590  12.289  10.040 -1.5393  0.0329  0.1708
  932MOL0     H25772   0.456  12.398   9.756 -0.0773 -0.6389  3.3776
  932MOL0     H25773   0.619  12.431   9.797 -2.1492  3.3476 -2.2582
  932MOL0     H25774   0.665  12.250   9.595 -1.2717 -0.1453 -1.8346
  932MOL0     H25775   0.508  12.305   9.539  0.8598  1.2384 -3.0862
  932MOL0     H25776   0.596  12.556   9.552  0.9205 -0.4146  1.9873
  932MOL0     H25777   0.658  12.457   9.421  1.6978  0.1050  0.2610
  932MOL0     H25778   0.803  12.478   9.675 -3.5043  1.7806  0.1271
  932MOL0     H25779   0.844  12.576   9.538  0.0392 -0.2404  1.5369
  932MOL0     H25780   1.007  12.207   9.382 -2.7628 -1.9416  2.8940
  932MOL0     H25781   1.230  12.102   9.461 -0.8865 -0.4298 -1.0829
  932MOL0     H25782   1.539  12.090   9.846 -0.1707  1.0804 -0.4148
  932MOL0     H25783   1.768  12.061   9.960 -1.5536  1.3894  1.9530
  932MOL0     H25784   2.079  12.378   9.960  2.3637 -1.3961 -0.0644
  932MOL0     H25785   1.962  12.413  10.087  0.8151  0.6805  0.6975
  932MOL0     H25786   2.189  12.362  10.189  0.0583 -0.4314  0.1724
  932MOL0     H25787   2.073  12.232  10.224 -0.3119  1.8812  1.9771
  932MOL0     H25788   2.161  12.133  10.000  0.4828 -2.9081  1.6829
  932MOL0     H25789   2.286  12.256  10.014 -0.9188 -1.2249 -2.0270
  932MOL0     H25790   2.213  12.056  10.238 -0.7787 -2.8051 -1.5723
  932MOL0     H25791   2.356  12.169  10.230 -1.7926  1.6866 -0.3235
  932MOL0     H25792   2.300  11.938  10.039 -0.8236 -0.0373  0.8317
  932MOL0     H25793   2.409  11.904  10.168  2.9492  0.3772 -0.1186
  932MOL0     H25794   2.479  12.114   9.967  1.4102 -1.2983 -1.6867
  932MOL0     H25795   2.583  12.057  10.102 -0.6607  2.2588  0.0989
  932MOL0     H25796   2.460  11.870   9.904  0.1739 -2.7879  3.3455
  932MOL0     H25797   2.607  11.857   9.990  0.5711  2.3449  2.5472
  932MOL0     H25798   2.664  11.898   9.749  3.3685  1.2745 -0.4214
  932MOL0     H25799   2.567  12.044   9.746  3.8516  1.6365 -0.6058
  932MOL0     H25800   1.841  12.483   9.890  5.7507 -2.4613 -0.1590
  932MOL0     H25801   1.627  12.498   9.769 -2.2310 -1.8174 -0.9162
  932MOL0     H25802   1.257  12.429   9.736 -0.5447  0.6393 -0.0707
  932MOL0     H25803   1.037  12.502   9.688  1.0293  0.4871  0.0871
  932MOL0     H25804   1.399  11.527  10.186  0.0435  0.8516 -1.2471
  932MOL0     H25805   1.568  11.365  10.255  0.0594 -1.0465 -2.0618
  932MOL0     H25806   1.735  10.992  10.284 -2.4418 -0.8373  1.2251
  932MOL0     H25807   1.910  10.832  10.322  0.1790  0.1771  1.4697
  932MOL0     H25808   1.982  10.720  10.738 -0.3661 -1.3356  1.8138
  932MOL0     H25809   2.133  10.666  10.645 -0.1401  0.7128  0.1500
  932MOL0     H25810   2.008  10.457  10.598  1.9744 -0.0092  1.0376
  932MOL0     H25811   1.866  10.534  10.690  1.3677  2.8187  0.1087
  932MOL0     H25812   1.943  10.428  10.875 -1.1690  0.9191  0.8629
  932MOL0     H25813   2.043  10.568  10.878  1.7555  0.0718 -1.5267
  932MOL0     H25814   2.173  10.378  10.929  1.7407  2.5200 -0.1380
  932MOL0     H25815   2.134  10.288  10.779  1.7494 -0.3428  1.1989
  932MOL0     H25816   2.454  10.495  10.636 -0.5207  1.8874  0.5513
  932MOL0     H25817   1.796  10.807  10.738 -2.9705  1.9951  1.2139
  932MOL0     H25818   1.503  11.008  10.718  0.2395  3.0874 -1.3603
  932MOL0     H25819   1.627  10.933  10.829  0.3355  0.1511  0.7928
  932MOL0     H25820   1.644  11.094  10.766  0.5321 -1.0966  0.5446
  933MOL0     O25821   3.468   9.058  11.411 -0.1658  0.3941  0.1701
  933MOL0     C25822   3.413   9.080  11.303 -0.4730  0.7166 -0.8657
  933MOL0     O25823   3.313   9.002  11.265  0.1214 -1.0626  0.4361
  933MOL0     C25824   3.233   8.935  11.358 -1.2336  0.3248 -0.0344
  933MOL0     C25825   3.142   8.842  11.292  0.7914  0.1945 -0.4333
  933MOL0     C25826   3.055   8.762  11.371 -0.0697 -0.5913 -0.4264
  933MOL0     C25827   3.049   8.770  11.514 -0.2922 -0.6294 -0.2355
  933MOL0     O25828   2.983   8.692  11.607 -0.6252 -0.2592 -0.8354
  933MOL0     C25829   2.900   8.593  11.549  0.6437  0.5033  0.0258
  933MOL0     C25830   2.985   8.479  11.495 -0.2415  0.1244 -0.4719
  933MOL0     C25831   3.033   8.387  11.604 -0.8309  0.4311 -0.1192
  933MOL0     C25832   3.067   8.242  11.558  0.4992  0.0185 -0.2857
  933MOL0     C25833   3.127   8.168  11.675 -0.4361  0.6244 -0.5192
  933MOL0     C25834   3.190   8.033  11.622 -0.1013 -0.1709  0.2449
  933MOL0     C25835   3.312   8.038  11.528 -0.8337 -0.8150  0.1677
  933MOL0     C25836   3.419   8.144  11.554 -0.1947  0.4307  0.0338
  933MOL0     N25837   3.545   8.114  11.477 -0.1362 -1.3418 -1.1513
  933MOL0     C25838   3.576   8.163  11.348  0.0932  0.3414 -1.1961
  933MOL0     C25839   3.670   8.078  11.302 -0.4736 -1.0037 -0.2549
  933MOL0     C25840   3.707   8.068  11.155  1.0874 -0.9331 -0.0002
  933MOL0     C25841   3.845   8.140  11.129 -0.1863  0.7474  0.0295
  933MOL0     C25842   3.830   8.291  11.152  0.3540  0.0914  0.3081
  933MOL0     C25843   3.755   8.362  11.047 -0.2841 -0.2154  0.2106
  933MOL0     O25844   3.818   8.352  10.921  0.0241  0.1844 -0.1454
  933MOL0     C25845   3.781   8.453  10.832  0.7597  0.3492 -0.2115
  933MOL0     C25846   3.703   8.575  10.852  0.4146  1.1306 -1.1395
  933MOL0     C25847   3.676   8.670  10.758  0.1001  0.3313 -0.3358
  933MOL0     C25848   3.701   8.640  10.626 -0.6956  0.3488 -0.4945
  933MOL0     C25849   3.664   8.734  10.514 -0.9489  0.1118 -0.2337
  933MOL0     O25850   3.701   8.704  10.395 -0.4882  0.0956  0.6562
  933MOL0     C25851   3.748   8.800  10.308 -0.3154  0.5905  0.5414
  933MOL0     C25852   3.730   8.779  10.167 -0.1219 -1.0865  0.2099
  933MOL0     C25853   3.778   8.867  10.072 -0.4192  0.4095  0.3883
  933MOL0     C25854   3.852   8.976  10.112 -0.3124  0.1656  0.4014
  933MOL0     O25855   3.908   9.070  10.019 -0.1052  0.0615  0.3940
  933MOL0     C25856   3.897   9.062   9.879 -0.9248  0.0347 -0.2650
  933MOL0     C25857   3.938   9.190   9.816 -0.2856  0.1352  1.0380
  933MOL0     C25858   3.871   9.312   9.880  0.1937 -0.1914 -0.6121
  933MOL0     C25859   3.946   9.442   9.837  0.1515  0.7093  0.2048
  933MOL0     C25860   3.860   9.563   9.877 -0.2317  0.1414  0.2963
  933MOL0     C25861   3.915   9.690   9.816  0.0249  0.5679 -0.7319
  933MOL0     C25862   3.820   9.804   9.846  0.2507 -0.6607  0.4097
  933MOL0     C25863   3.709   9.826   9.745  0.1653 -0.8813 -0.9079
  933MOL0    Cl25864   3.581   9.705   9.770 -0.0897  0.1047 -0.1235
  933MOL0     C25865   3.871   8.994  10.250 -0.2519 -1.4164  0.5620
  933MOL0     C25866   3.808   8.915  10.351 -0.4024  0.3799  0.8354
  933MOL0     O25867   3.609   8.836  10.540  1.0406 -0.6266  0.6652
  933MOL0     C25868   3.773   8.514  10.600  0.6603  0.0440 -0.0415
  933MOL0     C25869   3.819   8.430  10.704  0.7848  0.0589 -0.2095
  933MOL0     N25870   3.707   8.004  11.411  0.4575  0.0923 -0.1142
  933MOL0     N25871   3.633   8.025  11.519 -0.2853  0.4663  0.2973
  933MOL0     C25872   3.144   8.861  11.567 -0.3846  0.3351 -0.3330
  933MOL0     C25873   3.231   8.937  11.495 -0.5025 -0.9552 -0.4059
  933MOL0     C25874   3.455   9.191  11.209 -0.3561 -0.0619  0.5738
  933MOL0     C25875   3.407   9.185  11.074 -0.4801  1.5789  0.4118
  933MOL0     C25876   3.466   9.261  10.977  0.8896  0.5454  0.5458
  933MOL0     C25877   3.566   9.356  11.005 -0.2610  0.0306  0.0016
  933MOL0     O25878   3.619   9.423  10.899  0.3507 -0.5298  0.7864
  933MOL0     C25879   3.739   9.502  10.909  0.5209  0.3990 -0.0811
  933MOL0     C25880   3.784   9.557  10.773 -0.8561  0.2397 -0.4733
  933MOL0     C25881   3.667   9.580  10.690  0.7552  0.8165 -0.3089
  933MOL0     C25882   3.680   9.673  10.565  0.2618 -1.0896 -0.0669
  933MOL0     C25883   3.551   9.675  10.491  0.5176  0.4488  0.5927
  933MOL0     C25884   3.449   9.678  10.431  0.1446  0.0907  0.2357
  933MOL0     C25885   3.599   9.380  11.138  0.0354  0.4332  0.1498
  933MOL0     C25886   3.546   9.296  11.241  0.3857 -0.6741 -0.7807
  933MOL0     C25887   3.588   9.332  11.380 -1.2418 -0.2814 -0.2656
  933MOL0     H25888   3.128   8.837  11.184  1.5697 -4.2940 -0.5042
  933MOL0     H25889   2.983   8.710  11.309  2.3751 -3.1894 -1.2993
  933MOL0     H25890   2.829   8.545  11.616  2.0988 -4.1005 -1.3667
  933MOL0     H25891   2.849   8.634  11.462  1.4285  0.3036 -0.5479
  933MOL0     H25892   3.079   8.514  11.452  0.8110  0.4310  1.8920
  933MOL0     H25893   2.925   8.420  11.426  2.0252 -1.0647 -1.4962
  933MOL0     H25894   2.954   8.383  11.680  0.5618 -1.4417  1.3259
  933MOL0     H25895   3.125   8.422  11.650 -1.2938 -1.2992  2.3067
  933MOL0     H25896   2.970   8.197  11.536  1.4239 -3.2455  1.5747
  933MOL0     H25897   3.129   8.237  11.468  0.7605 -0.8694 -0.0732
  933MOL0     H25898   3.200   8.229  11.728  0.4893  1.5054 -2.7187
  933MOL0     H25899   3.053   8.138  11.751  1.3286  2.3230  2.0306
  933MOL0     H25900   3.217   7.984  11.717  0.9302  1.2020  0.7007
  933MOL0     H25901   3.107   7.978  11.577 -2.7933  1.2990  3.0274
  933MOL0     H25902   3.280   8.046  11.423  0.0779 -0.4294 -0.0913
  933MOL0     H25903   3.360   7.941  11.546 -1.1318 -0.2348  5.4883
  933MOL0     H25904   3.376   8.238  11.519 -4.1279 -1.5255 -1.0453
  933MOL0     H25905   3.444   8.147  11.661  1.9169 -2.3870 -0.2740
  933MOL0     H25906   3.513   8.237  11.299 -1.7996  0.1302  0.7634
  933MOL0     H25907   3.707   7.963  11.125 -0.5792 -0.8898 -0.2401
  933MOL0     H25908   3.624   8.109  11.097  1.8814  0.6562 -0.0856
  933MOL0     H25909   3.918   8.089  11.192  0.5391 -0.8943 -2.0729
  933MOL0     H25910   3.888   8.119  11.031 -0.6756  0.3732 -0.1086
  933MOL0     H25911   3.936   8.317  11.148  0.9609 -2.1936  0.0131
  933MOL0     H25912   3.790   8.313  11.251  0.9757 -3.2538  1.4005
  933MOL0     H25913   3.775   8.464  11.080  1.8759 -0.4339 -0.2910
  933MOL0     H25914   3.651   8.327  11.048 -0.1315 -0.7896 -1.4128
  933MOL0     H25915   3.684   8.611  10.952  0.2184 -0.6197 -0.5190
  933MOL0     H25916   3.615   8.759  10.774  0.7377  1.7022 -4.3710
  933MOL0     H25917   3.674   8.695  10.126 -1.1942 -0.1120 -0.3651
  933MOL0     H25918   3.743   8.837   9.973 -1.9858  0.6820  0.8414
  933MOL0     H25919   3.960   8.981   9.841 -0.2691 -0.1856  1.2305
  933MOL0     H25920   3.791   9.048   9.855 -1.9472  1.3595  2.8990
  933MOL0     H25921   4.046   9.195   9.837  0.0047  1.3398 -0.5527
  933MOL0     H25922   3.929   9.189   9.707  1.1950  1.0218  0.8866
  933MOL0     H25923   3.772   9.323   9.835  1.0271  3.4486 -1.8675
  933MOL0     H25924   3.863   9.314   9.989 -0.3503  1.8914 -0.6447
  933MOL0     H25925   3.952   9.454   9.728  4.6631  0.2418  0.2462
  933MOL0     H25926   4.046   9.446   9.879 -0.3121  1.2716  1.3079
  933MOL0     H25927   3.831   9.561   9.983 -2.1358 -0.7877 -0.1896
  933MOL0     H25928   3.762   9.550   9.829 -0.1196 -2.8243  0.6721
  933MOL0     H25929   4.011   9.698   9.869 -1.2300  1.3040  1.5184
  933MOL0     H25930   3.937   9.680   9.709 -0.8993  1.5023 -1.0169
  933MOL0     H25931   3.888   9.889   9.861  2.6142 -2.3469 -0.0752
  933MOL0     H25932   3.775   9.785   9.944 -1.6387  0.0919 -0.2904
  933MOL0     H25933   3.676   9.929   9.764  0.4304 -0.8596 -0.5405
  933MOL0     H25934   3.738   9.829   9.640 -3.2491 -0.2710 -1.9555
  933MOL0     H25935   3.932   9.074  10.293 -1.4832 -0.4694  0.6056
  933MOL0     H25936   3.825   8.932  10.457  0.4790 -3.1691  1.3749
  933MOL0     H25937   3.788   8.492  10.495 -1.9151  0.8558 -0.6602
  933MOL0     H25938   3.875   8.338  10.691  3.2705  1.1655  1.8010
  933MOL0     H25939   3.158   8.872  11.674  1.7397  2.0399 -0.6945
  933MOL0     H25940   3.295   9.001  11.554 -0.3935 -2.2777  0.9668
  933MOL0     H25941   3.329   9.114  11.052 -0.8635  2.6029 -1.8908
  933MOL0     H25942   3.424   9.247  10.879 -0.4368  1.5448  0.9430
  933MOL0     H25943   3.821   9.447  10.955 -1.0096 -4.1889 -2.1737
  933MOL0     H25944   3.711   9.592  10.964  1.8580  1.0654 -0.4522
  933MOL0     H25945   3.861   9.492  10.730 -1.4190  0.4079 -1.7896
  933MOL0     H25946   3.824   9.658  10.782  0.8597 -0.4728  0.5319
  933MOL0     H25947   3.598   9.623  10.763 -0.1126 -3.6534  1.8595
  933MOL0     H25948   3.632   9.481  10.658 -0.3237  1.1816 -0.2945
  933MOL0     H25949   3.705   9.771  10.608  0.7313 -1.5168  0.6510
  933MOL0     H25950   3.762   9.636  10.503  1.0718 -0.9774  0.9109
  933MOL0     H25951   3.350   9.686  10.392  0.0708 -2.5164 -0.3248
  933MOL0     H25952   3.669   9.457  11.167 -0.3683  0.6300  0.6323
  933MOL0     H25953   3.617   9.243  11.437  0.8348  0.7917  0.4727
  933MOL0     H25954   3.670   9.405  11.389  0.8009 -2.5030  0.2602
  933MOL0     H25955   3.500   9.372  11.430  0.5062  3.2072  0.2947
  934MOL0     O25956   1.973   1.134   5.037  0.0715  0.2687  0.7267
  934MOL0     C25957   2.092   1.167   5.045 -0.2418  0.6703 -0.4574
  934MOL0     O25958   2.138   1.302   5.026  0.0160 -0.3818  0.4387
  934MOL0     C25959   2.053   1.386   4.963 -0.0321  0.0571 -0.2249
  934MOL0     C25960   2.017   1.505   5.022 -0.2160 -0.4177  0.2306
  934MOL0     C25961   1.924   1.586   4.964 -0.5220  1.3391  0.1284
  934MOL0     C25962   1.854   1.553   4.846  0.3724 -0.1474  0.4940
  934MOL0     O25963   1.752   1.629   4.785  0.2582  0.2721 -0.2097
  934MOL0     C25964   1.653   1.699   4.860 -0.2838 -0.0488  0.2623
  934MOL0     C25965   1.597   1.810   4.777 -0.2861 -1.0908 -0.7034
  934MOL0     C25966   1.534   1.925   4.859 -0.8786  0.1983  1.0033
  934MOL0     C25967   1.468   2.024   4.760 -0.3120 -0.8449 -0.2196
  934MOL0     C25968   1.409   2.137   4.845 -0.3672  0.0152  0.4517
  934MOL0     C25969   1.328   2.220   4.744 -0.2318 -0.0561  0.2646
  934MOL0     C25970   1.280   2.340   4.831 -0.4252  0.2615 -0.2735
  934MOL0     C25971   1.195   2.438   4.762  0.4140  0.3008  0.4435
  934MOL0     N25972   1.130   2.540   4.844 -0.3048  0.2046  0.4997
  934MOL0     C25973   1.006   2.526   4.907 -0.0535 -0.2460  0.6931
  934MOL0     C25974   0.972   2.648   4.957 -0.2729 -0.1738  0.0982
  934MOL0     C25975   0.832   2.687   5.012 -0.0726 -0.1575  0.0876
  934MOL0     C25976   0.805   2.597   5.129  0.0478  0.4291  1.1483
  934MOL0     C25977   0.906   2.627   5.248  0.1533  0.1480 -0.5061
  934MOL0     C25978   0.885   2.539   5.364 -0.0986  0.1536 -0.3261
  934MOL0     O25979   0.900   2.397   5.331  0.9609  0.3079 -0.2787
  934MOL0     C25980   1.019   2.335   5.298 -0.2680 -0.7852 -0.1058
  934MOL0     C25981   1.143   2.387   5.329 -0.0361  0.1277 -0.0381
  934MOL0     C25982   1.262   2.323   5.311  0.2363  0.3830  1.0788
  934MOL0     C25983   1.259   2.192   5.254  0.3307  0.6494  0.5961
  934MOL0     C25984   1.377   2.111   5.223 -0.9877  0.1521  0.6662
  934MOL0     O25985   1.359   1.976   5.226 -0.1367 -0.2696  0.9075
  934MOL0     C25986   1.451   1.877   5.218 -0.5617  1.1652  0.6116
  934MOL0     C25987   1.587   1.898   5.225 -1.3713 -0.4427  0.5787
  934MOL0     C25988   1.671   1.790   5.241 -0.3604 -0.3509  0.1891
  934MOL0     C25989   1.627   1.654   5.227  0.4457 -0.7468 -0.6728
  934MOL0     O25990   1.720   1.547   5.240  0.1576 -0.2864  1.3171
  934MOL0     C25991   1.670   1.421   5.278  0.3805  1.2068 -0.5368
  934MOL0     C25992   1.787   1.344   5.343  0.0640 -0.0178 -0.2049
  934MOL0     C25993   1.864   1.431   5.439  0.7977  0.4704  0.5479
  934MOL0     C25994   1.979   1.354   5.488 -0.7281 -0.6133 -0.0935
  934MOL0     C25995   2.112   1.435   5.498 -0.3869 -0.4072 -0.2711
  934MOL0     C25996   2.233   1.359   5.535  0.8563  0.9615 -0.2065
  934MOL0     C25997   2.364   1.435   5.539 -0.2926  0.2645 -0.9188
  934MOL0     C25998   2.499   1.354   5.582  0.9580 -1.2455 -0.1091
  934MOL0    Cl25999   2.527   1.228   5.459  0.6508 -0.6056 -0.0683
  934MOL0     C26000   1.491   1.637   5.206  0.1102 -0.5628  0.1354
  934MOL0     C26001   1.400   1.744   5.222 -0.0279 -0.2173  0.4824
  934MOL0     O26002   1.486   2.176   5.206  0.4476  1.5111  0.2643
  934MOL0     C26003   1.134   2.132   5.230 -0.2584  1.1829  0.4042
  934MOL0     C26004   1.016   2.204   5.250  0.0871  0.6229 -0.6238
  934MOL0     N26005   1.087   2.734   4.922  0.5918 -0.1490  0.0783
  934MOL0     N26006   1.169   2.675   4.856  0.2220  0.9741  0.4626
  934MOL0     C26007   1.908   1.440   4.777  0.2020 -0.0632 -0.3184
  934MOL0     C26008   1.999   1.354   4.839 -0.6718 -0.1046  0.2248
  934MOL0     C26009   2.194   1.073   5.099 -0.3329  0.8556  0.3996
  934MOL0     C26010   2.315   1.125   5.117 -0.3065 -0.0040 -1.4561
  934MOL0     C26011   2.410   1.058   5.192 -1.1072 -0.0479 -0.6170
  934MOL0     C26012   2.389   0.934   5.243  0.4942  0.6450  0.7908
  934MOL0     O26013   2.498   0.873   5.314  0.6091  0.9959 -0.1222
  934MOL0     C26014   2.533   0.734   5.276  0.8910 -0.4206 -0.0304
  934MOL0     C26015   2.645   0.683   5.374  0.5417 -0.1499  0.4261
  934MOL0     C26016   2.768   0.778   5.352  0.0422 -0.1585  0.4091
  934MOL0     C26017   2.890   0.715   5.418  1.1653 -0.4286  0.8760
  934MOL0     C26018   2.869   0.714   5.555  0.2866 -0.3832  0.0893
  934MOL0     C26019   2.873   0.720   5.675 -0.7722  1.0132 -1.3834
  934MOL0     C26020   2.267   0.874   5.211 -0.0588  0.4107  0.9715
  934MOL0     C26021   2.170   0.936   5.133  0.3418  0.5176 -0.4716
  934MOL0     C26022   2.049   0.852   5.093  0.3679  0.0887 -0.4403
  934MOL0     H26023   2.062   1.544   5.113 -2.6059  2.1766  0.4275
  934MOL0     H26024   1.899   1.682   5.008  3.1329  4.4077 -3.6279
  934MOL0     H26025   1.577   1.623   4.881  0.6322 -1.0633  0.0070
  934MOL0     H26026   1.696   1.736   4.954  2.8361  2.5671 -1.9396
  934MOL0     H26027   1.514   1.773   4.716 -2.9379  0.7869  1.5272
  934MOL0     H26028   1.678   1.849   4.714 -0.6903 -2.2838 -2.0289
  934MOL0     H26029   1.621   1.974   4.903  0.0618 -0.0236 -0.5132
  934MOL0     H26030   1.470   1.894   4.942  0.3959  0.4965  2.1187
  934MOL0     H26031   1.543   2.056   4.687 -0.8177 -3.1905 -1.8738
  934MOL0     H26032   1.387   1.972   4.709 -0.9812 -1.0341  1.0023
  934MOL0     H26033   1.345   2.100   4.926 -1.1532 -1.9702 -0.9947
  934MOL0     H26034   1.487   2.196   4.893  0.5585  1.1171 -2.2019
  934MOL0     H26035   1.393   2.249   4.661  0.8294 -2.2719  0.2479
  934MOL0     H26036   1.247   2.164   4.696 -0.5229  1.6281 -1.3402
  934MOL0     H26037   1.366   2.390   4.876  2.3664 -2.1887 -2.5246
  934MOL0     H26038   1.230   2.307   4.922  1.9358 -2.0737  0.2945
  934MOL0     H26039   1.260   2.499   4.697 -0.5569  1.4495  0.5247
  934MOL0     H26040   1.116   2.384   4.709 -0.8261 -0.5514  2.9937
  934MOL0     H26041   0.934   2.445   4.911  0.0118 -0.4024 -0.9424
  934MOL0     H26042   0.827   2.792   5.042  0.3991 -0.1363  0.1014
  934MOL0     H26043   0.761   2.677   4.930  0.1598  2.5998 -0.5286
  934MOL0     H26044   0.701   2.611   5.160  0.3904  1.9494  1.6747
  934MOL0     H26045   0.816   2.491   5.104 -2.5170 -0.0088  1.6039
  934MOL0     H26046   0.902   2.729   5.289  2.3599 -0.5765  1.7532
  934MOL0     H26047   1.010   2.619   5.214  0.0034  2.9737 -1.9796
  934MOL0     H26048   0.782   2.553   5.398 -0.6782 -0.8139 -1.6489
  934MOL0     H26049   0.961   2.550   5.442 -1.0155 -2.6713  1.1093
  934MOL0     H26050   1.146   2.490   5.365 -4.2949  1.1133 -1.8861
  934MOL0     H26051   1.361   2.363   5.330  1.0776 -0.1686 -1.7143
  934MOL0     H26052   1.623   1.999   5.210  0.6785 -1.3435 -1.1072
  934MOL0     H26053   1.779   1.783   5.242 -0.2862 -1.3102 -2.9794
  934MOL0     H26054   1.590   1.440   5.349 -1.3222 -3.5961 -0.7747
  934MOL0     H26055   1.618   1.363   5.201 -2.2792  0.5273  1.6041
  934MOL0     H26056   1.743   1.258   5.393  0.1178  0.9252  1.5739
  934MOL0     H26057   1.849   1.311   5.259  0.7783 -1.0112  0.6895
  934MOL0     H26058   1.908   1.508   5.374  0.4708  0.0984 -0.1224
  934MOL0     H26059   1.794   1.468   5.515 -0.9556 -0.5218 -0.5344
  934MOL0     H26060   1.991   1.265   5.425 -2.9422 -1.5484  0.7007
  934MOL0     H26061   1.951   1.301   5.580 -1.1605 -2.2458 -1.1144
  934MOL0     H26062   2.103   1.520   5.566 -1.3095  2.5348 -3.7895
  934MOL0     H26063   2.132   1.479   5.400  2.4056 -1.7224 -0.3733
  934MOL0     H26064   2.227   1.296   5.624  1.5818 -0.1929 -0.9579
  934MOL0     H26065   2.241   1.289   5.452 -2.5547  0.0618  0.0724
  934MOL0     H26066   2.358   1.520   5.607 -0.8889  0.9128 -1.7516
  934MOL0     H26067   2.389   1.469   5.438  3.1709 -1.3087 -0.7090
  934MOL0     H26068   2.578   1.427   5.601 -0.6905  0.4660  0.4242
  934MOL0     H26069   2.480   1.303   5.677 -1.7001  0.9250  0.6388
  934MOL0     H26070   1.446   1.540   5.188  0.1595 -0.6402  0.4296
  934MOL0     H26071   1.298   1.724   5.191  0.3270  0.9190 -1.6871
  934MOL0     H26072   1.117   2.031   5.193 -1.4773  1.0600  1.2587
  934MOL0     H26073   0.915   2.169   5.234 -1.5911  4.7058 -0.3501
  934MOL0     H26074   1.859   1.414   4.684 -1.3336 -0.5325  0.5964
  934MOL0     H26075   2.019   1.256   4.796  1.2407  0.9996 -1.6022
  934MOL0     H26076   2.347   1.222   5.081  0.9652  0.1007 -0.1462
  934MOL0     H26077   2.505   1.107   5.213 -1.4073  0.8514 -1.3093
  934MOL0     H26078   2.575   0.750   5.176 -0.1463  0.9771 -0.2673
  934MOL0     H26079   2.457   0.656   5.271 -0.6036  0.6290  3.4368
  934MOL0     H26080   2.666   0.580   5.345 -2.3242 -1.2613  1.8288
  934MOL0     H26081   2.600   0.691   5.474  0.1324  2.9804  0.1002
  934MOL0     H26082   2.753   0.879   5.391  1.1825  0.8005 -1.4816
  934MOL0     H26083   2.789   0.794   5.246  1.3743 -0.3699  0.6324
  934MOL0     H26084   2.908   0.615   5.375  0.2253 -1.2056  2.2023
  934MOL0     H26085   2.972   0.779   5.385 -0.9517  0.0714 -4.5016
  934MOL0     H26086   2.893   0.703   5.779 -0.5387 -2.8503 -1.9028
  934MOL0     H26087   2.256   0.775   5.255  0.9904  0.2106  0.8057
  934MOL0     H26088   2.060   0.748   5.123 -5.3768 -1.6510 -2.9803
  934MOL0     H26089   1.964   0.899   5.143  1.7451  2.9172 -0.5494
  934MOL0     H26090   2.026   0.852   4.986  0.0787  1.2063 -0.3910
  935MOL0     O26091   8.967   9.078   8.290 -0.1969  0.4565 -0.0543
  935MOL0     C26092   9.070   9.140   8.266  0.5730  0.3209 -0.0083
  935MOL0     O26093   9.066   9.269   8.206 -0.0590 -0.4232 -0.3332
  935MOL0     C26094   8.938   9.319   8.180 -0.3290 -0.0259  0.0046
  935MOL0     C26095   8.872   9.405   8.267  0.2549 -0.2161  0.0284
  935MOL0     C26096   8.743   9.456   8.235 -0.3083  0.2399  0.0016
  935MOL0     C26097   8.678   9.406   8.124  0.1600 -0.0361 -1.0343
  935MOL0     O26098   8.549   9.452   8.104 -0.0307  0.3144  0.1848
  935MOL0     C26099   8.461   9.354   8.056 -0.1918 -0.1671  0.0638
  935MOL0     C26100   8.314   9.416   8.058 -0.2026 -0.5743 -1.4035
  935MOL0     C26101   8.298   9.503   8.184  0.6904 -0.0099 -0.2139
  935MOL0     C26102   8.329   9.431   8.314 -0.2897 -0.3450  0.2212
  935MOL0     C26103   8.227   9.457   8.428  0.0961  0.1753  0.5255
  935MOL0     C26104   8.250   9.389   8.563  0.6388  0.0745 -0.2157
  935MOL0     C26105   8.390   9.427   8.623 -0.1397  0.8011  0.1860
  935MOL0     C26106   8.386   9.424   8.773 -0.6860  1.1229 -0.9783
  935MOL0     N26107   8.401   9.293   8.841 -0.0614 -0.7601 -0.0024
  935MOL0     C26108   8.303   9.225   8.913  1.5031  1.0636  0.3243
  935MOL0     C26109   8.368   9.126   8.981 -0.6317 -0.1811  0.1243
  935MOL0     C26110   8.309   9.025   9.073  0.7127 -0.4896 -0.4882
  935MOL0     C26111   8.174   8.975   9.032 -0.2513  0.6913 -0.1577
  935MOL0     C26112   8.113   8.882   9.140  0.6017 -1.1054 -0.1924
  935MOL0     C26113   7.965   8.862   9.090 -0.7203 -0.0305  1.1947
  935MOL0     O26114   7.886   8.773   9.166  0.1947 -0.4088 -0.0314
  935MOL0     C26115   7.828   8.831   9.273  0.8688 -0.0563 -0.3237
  935MOL0     C26116   7.807   8.749   9.390  0.2980  0.0407  0.4849
  935MOL0     C26117   7.732   8.795   9.500 -0.2088  0.9316 -0.6507
  935MOL0     C26118   7.667   8.928   9.491 -1.2852  0.1102  0.1017
  935MOL0     C26119   7.589   8.978   9.605 -0.7422 -0.2659  0.6086
  935MOL0     O26120   7.554   8.886   9.709 -0.1814 -0.1426 -0.1928
  935MOL0     C26121   7.497   8.955   9.814  0.4205 -0.9325  0.5816
  935MOL0     C26122   7.567   8.980   9.932  0.1950  1.2103 -0.4720
  935MOL0     C26123   7.518   9.043  10.047 -0.1002  0.0930 -0.0177
  935MOL0     C26124   7.382   9.086  10.035 -0.4383  0.3510 -0.3267
  935MOL0     O26125   7.314   9.150  10.133 -0.1555  0.2227 -0.9229
  935MOL0     C26126   7.357   9.121  10.268  0.8310 -0.4092 -0.6801
  935MOL0     C26127   7.263   9.176  10.369  0.2939  0.0184 -0.1295
  935MOL0     C26128   7.313   9.262  10.494  0.2586  0.3322 -1.2731
  935MOL0     C26129   7.410   9.194  10.596 -0.1252 -0.5172  0.8073
  935MOL0     C26130   7.419   9.226  10.739 -1.5109 -0.0568  0.4287
  935MOL0     C26131   7.446   9.378  10.757 -0.3002 -0.1151  0.2380
  935MOL0     C26132   7.446   9.406  10.908  0.3925 -0.3028  0.6507
  935MOL0     C26133   7.486   9.553  10.931  0.7864  0.7351 -0.0723
  935MOL0    Cl26134   7.647   9.601  10.848 -0.1781 -0.2170 -0.4632
  935MOL0     C26135   7.305   9.069   9.920 -0.5134 -0.3309  0.9782
  935MOL0     C26136   7.362   8.997   9.811 -0.5229 -0.0630 -0.3256
  935MOL0     O26137   7.555   9.102   9.599 -0.4154 -0.4655 -0.6791
  935MOL0     C26138   7.706   9.008   9.384 -0.2075  0.1255 -0.7322
  935MOL0     C26139   7.781   8.956   9.274  0.1509 -1.5632 -1.2364
  935MOL0     N26140   8.504   9.150   8.974 -0.1316 -0.0520  0.1084
  935MOL0     N26141   8.516   9.242   8.879  0.0822 -0.5384  0.1871
  935MOL0     C26142   8.739   9.314   8.035  0.0684 -0.6281  0.1496
  935MOL0     C26143   8.869   9.278   8.059  0.4012  0.1659 -1.1970
  935MOL0     C26144   9.203   9.088   8.291  0.2039  0.3016 -0.2567
  935MOL0     C26145   9.305   9.179   8.328 -0.1390  0.4160 -0.0706
  935MOL0     C26146   9.429   9.131   8.361  1.4233 -0.1612 -1.3722
  935MOL0     C26147   9.445   8.990   8.370  0.1803 -0.6311  0.0240
  935MOL0     O26148   9.569   8.927   8.400  0.5219  0.9001  0.4827
  935MOL0     C26149   9.687   9.007   8.403  0.5198  0.7741  0.4807
  935MOL0     C26150   9.813   8.918   8.436  0.2840  0.0971 -0.8150
  935MOL0     C26151   9.825   8.799   8.328 -0.2694 -0.2212 -1.0934
  935MOL0     C26152   9.724   8.684   8.367  0.4277  0.2388  0.8621
  935MOL0     C26153   9.791   8.545   8.344 -0.2634 -0.2279 -0.1364
  935MOL0     C26154   9.834   8.432   8.338 -0.2911  0.3779 -0.8934
  935MOL0     C26155   9.346   8.904   8.343  0.0170 -0.5146 -0.9758
  935MOL0     C26156   9.227   8.950   8.297 -0.0038 -0.8195  0.5539
  935MOL0     C26157   9.133   8.842   8.253 -0.4394 -0.4726  0.3093
  935MOL0     H26158   8.919   9.440   8.359  0.9581  1.0099 -0.7745
  935MOL0     H26159   8.686   9.526   8.295 -0.6199  0.7246 -0.8261
  935MOL0     H26160   8.470   9.336   7.949  0.1431  1.9269 -0.3191
  935MOL0     H26161   8.460   9.258   8.108  1.1009 -0.9334 -1.2596
  935MOL0     H26162   8.244   9.331   8.056 -1.5974  0.2923  2.3136
  935MOL0     H26163   8.298   9.487   7.976 -1.7592  0.1346 -0.5321
  935MOL0     H26164   8.196   9.541   8.176  1.2127  1.4658 -0.3174
  935MOL0     H26165   8.361   9.593   8.177 -0.7192  1.1291  0.9140
  935MOL0     H26166   8.322   9.323   8.296  1.8347 -0.0016 -3.9475
  935MOL0     H26167   8.429   9.451   8.354 -0.9192  1.3390  1.0185
  935MOL0     H26168   8.211   9.563   8.450  0.1033  0.3591 -0.3509
  935MOL0     H26169   8.130   9.422   8.391 -0.6949  0.3411  2.3203
  935MOL0     H26170   8.163   9.419   8.622 -0.9827 -0.0759 -2.4206
  935MOL0     H26171   8.243   9.280   8.549  1.1660  0.0724 -0.4777
  935MOL0     H26172   8.431   9.521   8.584 -1.7535  2.1300  1.5432
  935MOL0     H26173   8.456   9.350   8.583 -0.3085 -0.1575  1.6732
  935MOL0     H26174   8.461   9.492   8.815 -0.2563 -1.3927  2.8325
  935MOL0     H26175   8.290   9.459   8.813  0.4996 -0.0211  3.5184
  935MOL0     H26176   8.196   9.239   8.898  0.9419 -1.8708  0.8929
  935MOL0     H26177   8.383   8.944   9.076  0.9009 -0.3026  0.8707
  935MOL0     H26178   8.301   9.073   9.171 -0.0784  0.3661 -0.9553
  935MOL0     H26179   8.110   9.060   9.007 -0.6041 -0.0284 -1.8695
  935MOL0     H26180   8.196   8.931   8.934  0.8662  2.0664 -0.5489
  935MOL0     H26181   8.110   8.932   9.237  1.1981 -0.9379 -0.2585
  935MOL0     H26182   8.157   8.782   9.143  0.9504 -0.9548 -0.2428
  935MOL0     H26183   7.984   8.806   8.998  2.2458  2.2294  0.2836
  935MOL0     H26184   7.912   8.954   9.063 -0.8864  0.6417  3.5186
  935MOL0     H26185   7.856   8.653   9.398 -0.3326 -0.2071  1.6960
  935MOL0     H26186   7.717   8.726   9.583  0.7842  2.1761  0.6011
  935MOL0     H26187   7.674   8.963   9.937 -0.0429 -0.1533  0.4266
  935MOL0     H26188   7.592   9.057  10.125  1.1589 -1.3116 -0.8826
  935MOL0     H26189   7.376   9.015  10.290 -1.1976 -0.5223  0.8370
  935MOL0     H26190   7.447   9.182  10.272 -0.5957  1.7595  1.0398
  935MOL0     H26191   7.186   9.242  10.328  0.3369  1.2378  1.6614
  935MOL0     H26192   7.202   9.097  10.414 -1.8262  2.4299  1.4678
  935MOL0     H26193   7.352   9.358  10.459 -1.6834  0.9018 -2.0407
  935MOL0     H26194   7.221   9.274  10.552  0.6497  0.8932 -0.7675
  935MOL0     H26195   7.506   9.213  10.547 -0.4360  0.7626  0.6505
  935MOL0     H26196   7.400   9.087  10.577 -0.6768 -0.4200  0.5262
  935MOL0     H26197   7.501   9.170  10.783  0.9306  1.9235 -1.3059
  935MOL0     H26198   7.320   9.209  10.782 -0.9649  0.2604  1.8647
  935MOL0     H26199   7.533   9.411  10.699  0.7943 -1.9483  0.7634
  935MOL0     H26200   7.365   9.434  10.708 -0.6194 -1.2217 -0.5612
  935MOL0     H26201   7.509   9.333  10.960  0.7472 -1.7242 -1.6398
  935MOL0     H26202   7.350   9.374  10.950 -0.7991  0.1195 -1.6147
  935MOL0     H26203   7.414   9.616  10.877  1.0527 -0.6398 -2.1324
  935MOL0     H26204   7.480   9.575  11.038  0.8279 -0.4187  0.1714
  935MOL0     H26205   7.205   9.111   9.909  0.8991  3.2989  0.4999
  935MOL0     H26206   7.299   8.964   9.730 -2.2845 -0.7428  1.2413
  935MOL0     H26207   7.671   9.111   9.382 -2.2877 -0.5221 -0.0766
  935MOL0     H26208   7.791   9.026   9.192  1.0888 -0.8268 -0.5088
  935MOL0     H26209   8.682   9.276   7.951 -0.3087  2.8451 -1.2960
  935MOL0     H26210   8.936   9.208   8.009  2.4859  0.3323  1.1815
  935MOL0     H26211   9.283   9.286   8.325 -3.1541 -0.0499 -4.4726
  935MOL0     H26212   9.501   9.209   8.385  0.1099  1.9125 -3.6706
  935MOL0     H26213   9.668   9.091   8.471 -1.4868 -0.5382  1.6521
  935MOL0     H26214   9.702   9.035   8.299 -3.3208 -0.2656 -0.5026
  935MOL0     H26215   9.807   8.879   8.538 -1.7356 -1.2501 -1.3914
  935MOL0     H26216   9.900   8.982   8.420  0.9487 -0.5915 -0.0631
  935MOL0     H26217   9.931   8.773   8.322 -0.0386  0.7819 -1.6864
  935MOL0     H26218   9.803   8.824   8.224  4.0795 -0.4860 -2.2575
  935MOL0     H26219   9.702   8.696   8.474  2.2450 -3.2189  1.7549
  935MOL0     H26220   9.631   8.698   8.312 -0.8614  1.1520  3.1316
  935MOL0     H26221   9.880   8.335   8.337  0.4901  0.7078  0.4119
  935MOL0     H26222   9.367   8.798   8.339  1.1228 -0.3175 -0.7628
  935MOL0     H26223   9.037   8.850   8.305 -1.9842 -0.3637 -2.3870
  935MOL0     H26224   9.122   8.857   8.146  2.9364  1.5372  0.0946
  935MOL0     H26225   9.166   8.740   8.273 -0.5359 -0.3715  1.0354
  936MOL0     O26226   4.796   2.447   0.938  0.2868 -0.7307 -0.8724
  936MOL0     C26227   4.757   2.330   0.942 -0.1883 -0.2494  0.8885
  936MOL0     O26228   4.688   2.274   1.038 -0.6841 -0.2257  0.3768
  936MOL0     C26229   4.651   2.342   1.149 -0.5892  0.3593  0.6578
  936MOL0     C26230   4.730   2.408   1.239  0.2451  0.6209  1.0875
  936MOL0     C26231   4.680   2.475   1.349 -0.1687 -0.0999  0.8708
  936MOL0     C26232   4.548   2.475   1.377 -0.0034  0.5925  0.7293
  936MOL0     O26233   4.520   2.554   1.489  0.6906 -1.0590  0.6551
  936MOL0     C26234   4.391   2.559   1.534  0.6661 -0.2474 -0.0846
  936MOL0     C26235   4.309   2.657   1.451 -0.0514  0.6256  0.4437
  936MOL0     C26236   4.172   2.694   1.503  0.5080  0.2560 -0.2227
  936MOL0     C26237   4.066   2.601   1.437 -0.1624  0.1232  0.3040
  936MOL0     C26238   3.930   2.657   1.463 -0.0388  0.4346  0.4392
  936MOL0     C26239   3.829   2.561   1.402  0.1752  0.3977  0.2815
  936MOL0     C26240   3.845   2.519   1.255  0.3357  0.4655  0.4650
  936MOL0     C26241   3.748   2.415   1.209 -0.5197  0.4365 -0.2106
  936MOL0     N26242   3.793   2.343   1.094  0.3557 -0.1386  0.6379
  936MOL0     C26243   3.819   2.385   0.961 -0.5674 -1.3538  0.0752
  936MOL0     C26244   3.824   2.269   0.886 -1.0090  0.2335  0.2491
  936MOL0     C26245   3.847   2.256   0.744  0.3951  0.2648  0.7211
  936MOL0     C26246   3.717   2.289   0.657 -0.8962  0.4826 -0.1122
  936MOL0     C26247   3.706   2.444   0.639 -0.0976  0.9868 -0.2463
  936MOL0     C26248   3.569   2.494   0.597 -0.1787  0.1931 -0.7948
  936MOL0     O26249   3.579   2.527   0.454 -0.2931  0.4319 -0.4971
  936MOL0     C26250   3.497   2.482   0.351  0.5943 -1.0195  0.5001
  936MOL0     C26251   3.391   2.388   0.369  0.2722  0.3497  0.0835
  936MOL0     C26252   3.318   2.337   0.260 -0.5395  0.3862  0.7584
  936MOL0     C26253   3.356   2.382   0.126 -0.3690  0.9210 -0.3120
  936MOL0     C26254   3.291   2.319   0.002 -0.4680 -0.5208 -0.2245
  936MOL0     O26255   3.205   2.217   0.021  0.8584  0.3680 -0.2891
  936MOL0     C26256   3.187   2.133  -0.085  0.1044 -0.5989 -0.5955
  936MOL0     C26257   3.140   2.174  -0.217 -0.0339 -0.3167 -0.1993
  936MOL0     C26258   3.114   2.088  -0.315  0.0186  0.3262 -0.0634
  936MOL0     C26259   3.141   1.949  -0.292  1.0129  1.0363  0.0647
  936MOL0     O26260   3.125   1.861  -0.393 -0.2440  0.8823 -0.7071
  936MOL0     C26261   3.249   1.829  -0.464  0.1815  0.2287 -0.4037
  936MOL0     C26262   3.208   1.800  -0.618 -0.9988 -0.0721 -1.5769
  936MOL0     C26263   3.114   1.675  -0.626 -0.0129 -0.8093 -0.1239
  936MOL0     C26264   3.103   1.610  -0.766 -0.1632  0.0971  0.7788
  936MOL0     C26265   3.001   1.500  -0.761  0.0565  0.2364  0.1324
  936MOL0     C26266   3.053   1.377  -0.680  0.0895  0.6878  0.6539
  936MOL0     C26267   2.946   1.265  -0.707  0.0150  0.4955 -0.9334
  936MOL0     C26268   3.004   1.130  -0.733 -0.1137 -0.5739 -0.3977
  936MOL0    Cl26269   3.093   1.138  -0.889 -0.2406 -0.0210  0.1345
  936MOL0     C26270   3.185   1.907  -0.170  0.6112 -0.5416  0.0605
  936MOL0     C26271   3.204   1.994  -0.064 -0.3636 -1.2061 -0.1542
  936MOL0     O26272   3.339   2.354  -0.109  0.5100  0.1093  0.0058
  936MOL0     C26273   3.443   2.487   0.121 -0.1338  0.2137 -0.1476
  936MOL0     C26274   3.521   2.533   0.224  0.1888 -0.0651 -0.8867
  936MOL0     N26275   3.804   2.163   0.978  0.3297  0.7870 -0.2535
  936MOL0     N26276   3.797   2.204   1.088  0.8727  0.1421 -0.7170
  936MOL0     C26277   4.460   2.407   1.291  1.0329  0.4768  0.1060
  936MOL0     C26278   4.516   2.342   1.177  0.6156 -0.0431  0.4289
  936MOL0     C26279   4.821   2.245   0.834 -0.5478  0.0441  0.4808
  936MOL0     C26280   4.878   2.117   0.878 -0.1492  0.6900 -0.2258
  936MOL0     C26281   4.937   2.032   0.781 -0.5947 -0.2955 -0.1049
  936MOL0     C26282   4.966   2.078   0.658  1.2104  0.4850  0.0718
  936MOL0     O26283   5.028   2.000   0.565  0.6961  0.2515  0.0052
  936MOL0     C26284   5.116   2.064   0.468 -0.4573 -0.6156 -0.2998
  936MOL0     C26285   5.222   1.956   0.442 -0.3488  0.5843 -0.2603
  936MOL0     C26286   5.355   2.011   0.400  1.0445 -0.7504 -0.0358
  936MOL0     C26287   5.438   2.081   0.508  0.5568  0.4509  0.6970
  936MOL0     C26288   5.572   2.086   0.451  0.5826  0.2741  0.0587
  936MOL0     C26289   5.678   2.070   0.395  0.2779  0.0778 -0.0297
  936MOL0     C26290   4.924   2.201   0.616 -0.4094 -0.3373  0.2872
  936MOL0     C26291   4.850   2.279   0.696  0.2183 -0.9473 -0.2130
  936MOL0     C26292   4.796   2.404   0.635 -0.2986  1.0768  0.1138
  936MOL0     H26293   4.838   2.407   1.229  0.0532 -0.4965 -2.0617
  936MOL0     H26294   4.747   2.538   1.407 -0.7822  2.6063 -1.1230
  936MOL0     H26295   4.341   2.462   1.543  2.0844 -0.8922  1.5204
  936MOL0     H26296   4.397   2.589   1.640  1.9155  2.6701 -0.8697
  936MOL0     H26297   4.301   2.628   1.346  1.8869 -1.5054  0.7927
  936MOL0     H26298   4.357   2.755   1.446 -0.4355  0.7718 -0.6852
  936MOL0     H26299   4.148   2.797   1.476 -3.1404 -0.5991 -0.7355
  936MOL0     H26300   4.174   2.689   1.612  1.7258  2.7758 -0.0710
  936MOL0     H26301   4.090   2.608   1.330 -3.5503  1.4687 -0.4730
  936MOL0     H26302   4.080   2.503   1.483  2.4978  1.3306  2.3915
  936MOL0     H26303   3.908   2.676   1.569 -1.2376  1.0297  0.0920
  936MOL0     H26304   3.909   2.757   1.424  2.2507  0.4037 -1.0815
  936MOL0     H26305   3.823   2.474   1.469 -2.6044  0.3084  0.0499
  936MOL0     H26306   3.728   2.602   1.411  0.6626  1.1670  3.1262
  936MOL0     H26307   3.947   2.481   1.245 -1.0725 -3.9433  0.8092
  936MOL0     H26308   3.834   2.610   1.194 -3.7327 -0.7399 -0.8976
  936MOL0     H26309   3.728   2.336   1.282  1.5026 -0.6706 -0.8043
  936MOL0     H26310   3.650   2.461   1.193 -0.8818 -1.0267 -2.8761
  936MOL0     H26311   3.826   2.488   0.929  1.3303  0.1287  4.5194
  936MOL0     H26312   3.936   2.312   0.714  0.9699  0.7700  3.1371
  936MOL0     H26313   3.865   2.150   0.722 -2.3581 -0.1368  0.0591
  936MOL0     H26314   3.725   2.244   0.558 -0.3456 -3.1246  1.4020
  936MOL0     H26315   3.631   2.236   0.700 -1.5148  3.2102  2.3187
  936MOL0     H26316   3.786   2.463   0.566 -0.7798  0.7380 -1.0791
  936MOL0     H26317   3.732   2.501   0.729  3.5495 -0.1987 -0.3857
  936MOL0     H26318   3.536   2.584   0.650  0.1610  1.0986 -2.0711
  936MOL0     H26319   3.496   2.414   0.613 -0.3252  0.5726  0.5598
  936MOL0     H26320   3.348   2.345   0.458 -1.7712  0.5868 -0.7134
  936MOL0     H26321   3.242   2.260   0.269  0.3272 -0.5619  0.2063
  936MOL0     H26322   3.125   2.282  -0.223  0.4682 -0.2734 -0.6944
  936MOL0     H26323   3.096   2.119  -0.417  0.6356 -0.2042 -0.3395
  936MOL0     H26324   3.312   1.918  -0.468  1.0637 -0.3906 -0.7520
  936MOL0     H26325   3.290   1.739  -0.418  0.3600  0.6605  0.2974
  936MOL0     H26326   3.167   1.894  -0.656 -1.0395  1.4068  1.7740
  936MOL0     H26327   3.299   1.775  -0.674  1.1047  0.1065  1.5102
  936MOL0     H26328   3.145   1.601  -0.552  0.5320 -3.4587 -2.8493
  936MOL0     H26329   3.012   1.707  -0.603 -0.0175  0.7913 -2.1400
  936MOL0     H26330   3.204   1.590  -0.804 -0.4504 -0.2984  0.1931
  936MOL0     H26331   3.064   1.674  -0.847  0.7581 -2.7161 -2.1074
  936MOL0     H26332   2.983   1.474  -0.866  0.7709 -0.2683  0.1249
  936MOL0     H26333   2.906   1.531  -0.716  1.2618  4.8311  0.0101
  936MOL0     H26334   3.156   1.347  -0.699  0.2200 -1.2653  3.6522
  936MOL0     H26335   3.056   1.390  -0.572  0.0411  0.5361  0.6757
  936MOL0     H26336   2.890   1.295  -0.796 -0.2657  2.2043 -0.2272
  936MOL0     H26337   2.883   1.264  -0.618 -0.6085  1.4768 -1.3463
  936MOL0     H26338   3.057   1.095  -0.644 -3.3865  3.0141  3.3644
  936MOL0     H26339   2.919   1.061  -0.740  0.3406 -1.0488 -1.4085
  936MOL0     H26340   3.186   1.803  -0.139 -0.6838 -0.2581  1.1647
  936MOL0     H26341   3.232   1.968   0.038  1.4244  0.2911 -0.1978
  936MOL0     H26342   3.441   2.540   0.027  0.6675  2.2295  0.8975
  936MOL0     H26343   3.603   2.600   0.199  2.7139 -1.7748  2.0759
  936MOL0     H26344   4.353   2.406   1.310  0.8140  2.2537 -0.8241
  936MOL0     H26345   4.454   2.282   1.110 -1.1972  2.0955  0.0903
  936MOL0     H26346   4.867   2.069   0.975  0.8118 -3.4523 -1.9469
  936MOL0     H26347   4.971   1.932   0.807  1.7372  0.4712 -0.0254
  936MOL0     H26348   5.170   2.151   0.507 -1.0680 -0.1093 -0.5781
  936MOL0     H26349   5.045   2.079   0.386 -3.9891 -2.2672  2.2138
  936MOL0     H26350   5.178   1.892   0.365 -0.0874  1.3322 -1.0481
  936MOL0     H26351   5.248   1.895   0.528  0.3663 -1.3130 -1.7632
  936MOL0     H26352   5.348   2.080   0.315  1.5715 -3.2414 -2.2506
  936MOL0     H26353   5.406   1.930   0.347  3.6684  1.2553 -0.8241
  936MOL0     H26354   5.410   2.181   0.544  1.7476  1.4083 -0.9429
  936MOL0     H26355   5.434   2.031   0.605 -1.0008 -1.3502 -0.2358
  936MOL0     H26356   5.755   2.064   0.321 -0.2862 -1.2855 -0.5379
  936MOL0     H26357   4.953   2.237   0.518 -0.1773 -0.0806  0.4494
  936MOL0     H26358   4.779   2.401   0.527 -0.1210  2.1727  0.0364
  936MOL0     H26359   4.704   2.436   0.685 -0.5874 -1.7925  1.6197
  936MOL0     H26360   4.867   2.485   0.653 -0.8293  2.0602 -1.9761
  937MOL0     O26361   4.991   3.034   2.836  0.2541 -0.1972 -0.1300
  937MOL0     C26362   4.981   2.964   2.740  0.8339  0.7417  0.0103
  937MOL0     O26363   4.919   2.837   2.742 -0.4202  0.5680  0.0695
  937MOL0     C26364   4.903   2.762   2.856  0.2490 -0.4759  0.2911
  937MOL0     C26365   4.957   2.785   2.985 -0.4494 -0.5513 -1.0145
  937MOL0     C26366   4.934   2.695   3.094 -0.1724 -0.9393  1.4882
  937MOL0     C26367   4.839   2.596   3.083  0.1561 -0.3986 -0.0374
  937MOL0     O26368   4.799   2.528   3.191 -0.1557  0.2816  0.3307
  937MOL0     C26369   4.682   2.580   3.258  0.5114  0.2107  0.7560
  937MOL0     C26370   4.742   2.642   3.386 -0.8523 -0.6074 -0.4909
  937MOL0     C26371   4.795   2.539   3.492 -0.2717  0.3885 -0.1909
  937MOL0     C26372   4.689   2.463   3.562 -0.5947  0.1664 -0.7769
  937MOL0     C26373   4.742   2.385   3.685 -0.2879  0.7021 -0.1740
  937MOL0     C26374   4.823   2.263   3.621  0.2444  0.4240 -0.4683
  937MOL0     C26375   4.841   2.139   3.718  0.0388  0.1540  0.8491
  937MOL0     C26376   4.722   2.058   3.762  0.1465 -0.3551  0.2708
  937MOL0     N26377   4.751   1.949   3.854 -0.5831 -0.2228 -0.1909
  937MOL0     C26378   4.772   1.820   3.809 -0.7798  0.7110 -0.0258
  937MOL0     C26379   4.827   1.748   3.908 -0.0783  0.9295 -0.6644
  937MOL0     C26380   4.873   1.608   3.927  0.4492 -0.0233  0.3797
  937MOL0     C26381   4.967   1.566   3.815 -0.1315  0.0961 -0.3398
  937MOL0     C26382   5.056   1.429   3.822 -1.0976 -0.5769 -0.2198
  937MOL0     C26383   4.974   1.308   3.834  0.2210  0.7418 -0.7970
  937MOL0     O26384   5.055   1.193   3.833  0.5069  0.4184  0.0508
  937MOL0     C26385   4.989   1.071   3.826 -0.3263  1.0803 -0.2684
  937MOL0     C26386   4.852   1.061   3.821 -0.0580  0.9795  0.6018
  937MOL0     C26387   4.788   0.941   3.807  0.5415  0.3929  0.2001
  937MOL0     C26388   4.855   0.818   3.796  0.8865 -0.9922  0.8364
  937MOL0     C26389   4.782   0.693   3.792 -0.9137  0.5798 -0.8708
  937MOL0     O26390   4.647   0.697   3.819 -0.2892 -0.2622  0.8230
  937MOL0     C26391   4.569   0.585   3.855 -0.8609 -0.0404 -0.1872
  937MOL0     C26392   4.584   0.521   3.979  0.4329 -0.8479  0.5228
  937MOL0     C26393   4.510   0.396   4.005  0.0510  0.9240  0.6557
  937MOL0     C26394   4.415   0.341   3.923  0.2616 -0.2621 -0.4004
  937MOL0     O26395   4.332   0.238   3.953  0.1777  0.8869  0.1999
  937MOL0     C26396   4.218   0.212   3.874 -0.0566  0.3740 -0.2968
  937MOL0     C26397   4.146   0.079   3.915  0.2795  0.1846  0.7492
  937MOL0     C26398   4.191  -0.039   3.831  0.1938 -1.0442 -0.2524
  937MOL0     C26399   4.317  -0.113   3.877  0.1576  0.4003 -1.1238
  937MOL0     C26400   4.456  -0.050   3.852  1.2970  0.9305  0.0179
  937MOL0     C26401   4.476  -0.059   3.705 -0.9874  0.2817  0.3154
  937MOL0     C26402   4.605   0.017   3.674  0.1042  0.3671  0.0255
  937MOL0     C26403   4.619   0.025   3.525 -0.5553  0.7261  0.3698
  937MOL0    Cl26404   4.792   0.044   3.510  0.0778  0.3817  0.2793
  937MOL0     C26405   4.401   0.412   3.803 -0.4016  0.5751 -0.0472
  937MOL0     C26406   4.476   0.534   3.776  0.5252  0.5949 -0.6152
  937MOL0     O26407   4.842   0.591   3.751 -0.0138  0.0419 -0.0796
  937MOL0     C26408   4.992   0.823   3.799  0.3218  0.5006  0.3387
  937MOL0     C26409   5.059   0.949   3.809  1.0342 -0.2665  0.5178
  937MOL0     N26410   4.829   1.830   4.021 -0.3845  0.4344 -0.9086
  937MOL0     N26411   4.789   1.953   3.982  0.3418 -0.3365 -0.8498
  937MOL0     C26412   4.802   2.566   2.957  0.2111  0.4925  1.1661
  937MOL0     C26413   4.828   2.641   2.842 -0.7283 -0.3806  0.5554
  937MOL0     C26414   5.020   3.015   2.601 -0.0225  0.6876  0.0897
  937MOL0     C26415   5.026   2.935   2.488 -0.5670  0.1514 -1.2239
  937MOL0     C26416   5.040   2.988   2.363 -0.6366 -0.3790 -0.4678
  937MOL0     C26417   5.089   3.113   2.348  0.0668 -1.4521 -0.2985
  937MOL0     O26418   5.133   3.172   2.232 -0.0450  0.5503  0.2386
  937MOL0     C26419   5.178   3.087   2.128  0.1175 -0.6016  1.2782
  937MOL0     C26420   5.074   3.099   2.032 -0.1576 -0.9215 -0.6698
  937MOL0     C26421   5.076   2.999   1.920 -0.8760  0.6638  0.4725
  937MOL0     C26422   5.215   2.978   1.848 -0.1223 -0.2474  0.3982
  937MOL0     C26423   5.244   3.089   1.757  0.1030  0.3765 -0.8453
  937MOL0     C26424   5.270   3.180   1.679  0.4024 -0.8945 -0.3569
  937MOL0     C26425   5.110   3.190   2.459  0.0919 -0.5550  0.3206
  937MOL0     C26426   5.061   3.149   2.581  1.1235 -0.7576  0.0737
  937MOL0     C26427   5.077   3.250   2.693 -0.3116  0.4235 -0.3018
  937MOL0     H26428   5.026   2.868   2.999 -0.0103 -0.9603 -0.6972
  937MOL0     H26429   4.955   2.729   3.195  0.7361  1.7114  0.5008
  937MOL0     H26430   4.633   2.661   3.203 -0.5790  0.1348  1.5786
  937MOL0     H26431   4.619   2.495   3.288  1.2497  0.5266  3.5742
  937MOL0     H26432   4.657   2.693   3.433 -2.0243 -1.4740 -1.6016
  937MOL0     H26433   4.808   2.722   3.348 -0.2885 -1.6008 -1.6911
  937MOL0     H26434   4.854   2.595   3.565 -1.6513  1.2500  0.2778
  937MOL0     H26435   4.857   2.469   3.435 -1.1084  0.8511 -1.7170
  937MOL0     H26436   4.602   2.525   3.587  0.6503  0.6163  3.0905
  937MOL0     H26437   4.653   2.392   3.487  1.7415 -3.2057  1.0421
  937MOL0     H26438   4.809   2.449   3.743 -0.4315  0.7826 -0.0980
  937MOL0     H26439   4.661   2.340   3.744  0.1716 -2.2261 -1.5833
  937MOL0     H26440   4.774   2.231   3.528 -1.0332  1.4795 -0.1844
  937MOL0     H26441   4.922   2.297   3.589  0.4841  0.4969  0.3223
  937MOL0     H26442   4.897   2.176   3.805  2.2310 -0.2407 -0.3327
  937MOL0     H26443   4.910   2.076   3.661 -2.4829  1.9880 -4.9065
  937MOL0     H26444   4.657   2.129   3.813  0.5619  0.1011  0.1662
  937MOL0     H26445   4.676   2.019   3.670  1.8414 -0.3387 -0.6312
  937MOL0     H26446   4.750   1.782   3.709  1.6697  2.8169 -1.4836
  937MOL0     H26447   4.927   1.609   4.022 -0.1463  0.9920  0.7317
  937MOL0     H26448   4.793   1.533   3.932  1.1027 -0.7161  0.4823
  937MOL0     H26449   4.902   1.547   3.729  1.1741  0.9822 -1.5695
  937MOL0     H26450   5.038   1.647   3.796  0.6299 -0.2478  0.9260
  937MOL0     H26451   5.126   1.421   3.905 -1.5932 -1.6772  0.0995
  937MOL0     H26452   5.117   1.417   3.732 -1.2378 -1.7646 -0.1728
  937MOL0     H26453   4.897   1.318   3.757  1.2799  3.5945 -1.6126
  937MOL0     H26454   4.926   1.321   3.931  2.8310  0.8971  0.5501
  937MOL0     H26455   4.782   1.144   3.815  1.3104  2.0518 -2.0807
  937MOL0     H26456   4.679   0.947   3.811  0.5436  2.0965 -1.1028
  937MOL0     H26457   4.662   0.570   4.036 -0.7172 -0.5028  1.8717
  937MOL0     H26458   4.510   0.363   4.108 -2.2864  5.9767  2.6043
  937MOL0     H26459   4.148   0.296   3.873  2.5563  2.6910 -0.7712
  937MOL0     H26460   4.239   0.201   3.767  4.1823 -1.2875  0.4821
  937MOL0     H26461   4.164   0.062   4.022  0.0884  1.3886  0.9822
  937MOL0     H26462   4.037   0.089   3.910  0.2062 -0.1186  1.4953
  937MOL0     H26463   4.113  -0.115   3.839 -1.0383  0.3478  1.9997
  937MOL0     H26464   4.201  -0.004   3.728  1.3216  2.7889  0.9806
  937MOL0     H26465   4.296  -0.213   3.836 -3.4332 -0.1701  1.6046
  937MOL0     H26466   4.319  -0.132   3.984  1.6246 -4.9167 -1.8089
  937MOL0     H26467   4.515  -0.121   3.910  1.3402  0.7956 -0.1916
  937MOL0     H26468   4.460   0.050   3.896 -2.0194  0.6811  1.1576
  937MOL0     H26469   4.481  -0.162   3.668  2.5698  1.0090 -1.5898
  937MOL0     H26470   4.402   0.004   3.656  0.0501  2.0737  0.9640
  937MOL0     H26471   4.692  -0.028   3.724 -1.8942 -1.5291  2.0372
  937MOL0     H26472   4.600   0.113   3.726  5.3840  0.3322  1.1263
  937MOL0     H26473   4.587  -0.066   3.475 -0.0541  0.6242  0.2310
  937MOL0     H26474   4.554   0.100   3.480 -1.9226 -0.5923  0.0635
  937MOL0     H26475   4.328   0.397   3.724 -2.0556  0.0654  1.5054
  937MOL0     H26476   4.481   0.570   3.673  0.9270 -1.5318 -1.3834
  937MOL0     H26477   5.062   0.741   3.799 -0.2446  0.0064  0.7936
  937MOL0     H26478   5.166   0.945   3.793  1.0580  2.0228 -0.1351
  937MOL0     H26479   4.731   2.487   2.934  0.8648  0.3146 -0.3256
  937MOL0     H26480   4.798   2.629   2.738  0.7526  1.1543 -0.1075
  937MOL0     H26481   5.026   2.832   2.522  1.2400  0.4394 -0.1924
  937MOL0     H26482   5.034   2.915   2.284 -1.5437 -1.2628  0.3915
  937MOL0     H26483   5.207   2.984   2.153  0.5430 -1.1631 -1.2689
  937MOL0     H26484   5.267   3.137   2.088  0.0844 -1.2084  0.4109
  937MOL0     H26485   5.077   3.195   1.980 -3.3249  0.2630  1.1177
  937MOL0     H26486   4.979   3.089   2.084 -0.2899  1.9256 -0.2486
  937MOL0     H26487   4.999   3.022   1.846 -2.6629 -2.7149  1.1094
  937MOL0     H26488   5.061   2.899   1.961  2.3370 -1.1827 -2.2606
  937MOL0     H26489   5.291   2.972   1.927 -1.2945  2.6052  1.9124
  937MOL0     H26490   5.214   2.886   1.790  1.9317 -0.1414  0.1434
  937MOL0     H26491   5.290   3.255   1.606  3.2988  0.4154  1.5783
  937MOL0     H26492   5.158   3.286   2.440 -1.9355  1.0941  2.7494
  937MOL0     H26493   5.094   3.347   2.645 -0.5849  0.4793 -0.2911
  937MOL0     H26494   4.984   3.282   2.742  0.2450  1.6381  0.0061
  937MOL0     H26495   5.161   3.231   2.760  1.9320 -1.1881 -3.3073
  938MOL0     O26496   3.098   2.827   1.449  0.0138  0.2481 -0.0586
  938MOL0     C26497   3.009   2.888   1.390 -0.3482 -0.9403  0.3056
  938MOL0     O26498   2.930   2.983   1.445 -0.1082 -0.6353 -0.2107
  938MOL0     C26499   2.937   3.030   1.580 -0.7169  0.8280 -0.4567
  938MOL0     C26500   3.063   3.057   1.643 -1.3567 -0.1361 -0.6335
  938MOL0     C26501   3.067   3.091   1.773  0.6386 -0.4719 -0.1367
  938MOL0     C26502   2.940   3.117   1.844 -0.5925 -0.5903 -0.2189
  938MOL0     O26503   2.937   3.185   1.965 -0.0400  0.0279  0.1342
  938MOL0     C26504   2.979   3.116   2.089 -0.0150 -0.2908 -0.1212
  938MOL0     C26505   3.030   3.238   2.166 -0.2709 -0.4838  0.5325
  938MOL0     C26506   3.096   3.208   2.300  0.1664  0.0363 -0.4306
  938MOL0     C26507   3.232   3.263   2.312 -0.3751 -0.9439 -0.0421
  938MOL0     C26508   3.292   3.235   2.453 -0.7181 -0.3297 -0.0281
  938MOL0     C26509   3.439   3.281   2.459  0.4562 -0.0132  0.0113
  938MOL0     C26510   3.467   3.288   2.609 -0.2552  0.8325 -0.6025
  938MOL0     C26511   3.612   3.354   2.633  0.8894 -0.4496 -0.6728
  938MOL0     N26512   3.626   3.498   2.613 -0.0326 -0.1889  0.6157
  938MOL0     C26513   3.744   3.564   2.627 -0.1741  0.2260 -0.5002
  938MOL0     C26514   3.718   3.695   2.603  0.5579 -0.1879 -0.1308
  938MOL0     C26515   3.817   3.798   2.567 -0.0265 -0.7931 -1.6541
  938MOL0     C26516   3.794   3.941   2.612  0.0865  0.8032 -0.1014
  938MOL0     C26517   3.922   4.015   2.658 -0.0526 -0.6206 -0.9289
  938MOL0     C26518   3.907   4.169   2.679  0.0098  1.1084  0.1502
  938MOL0     O26519   3.804   4.206   2.782  0.8649 -0.1526  0.0356
  938MOL0     C26520   3.783   4.339   2.810  0.3337 -1.1519 -0.2120
  938MOL0     C26521   3.816   4.452   2.727  0.2938  0.0308  0.1921
  938MOL0     C26522   3.800   4.585   2.763 -0.0994  0.4763  0.0412
  938MOL0     C26523   3.749   4.618   2.893  0.4083  0.7519 -0.9952
  938MOL0     C26524   3.719   4.752   2.931 -0.3810  0.1358  0.2994
  938MOL0     O26525   3.680   4.776   3.063  0.3653 -0.3260  0.7206
  938MOL0     C26526   3.649   4.902   3.098 -0.4321 -0.4154  0.2702
  938MOL0     C26527   3.727   5.003   3.059  0.2860 -0.8508  0.0020
  938MOL0     C26528   3.694   5.140   3.095 -0.0427  1.1173  0.2658
  938MOL0     C26529   3.586   5.157   3.180 -0.1021  0.0388  0.6365
  938MOL0     O26530   3.563   5.283   3.233 -0.2908  0.5838 -1.0817
  938MOL0     C26531   3.506   5.302   3.370 -0.0950  0.9426  0.3639
  938MOL0     C26532   3.373   5.373   3.365 -0.7547 -0.2527 -0.9518
  938MOL0     C26533   3.257   5.308   3.283  0.5596  0.1399  0.3629
  938MOL0     C26534   3.245   5.323   3.131 -0.0874 -0.1741 -0.3355
  938MOL0     C26535   3.110   5.251   3.087 -0.4700 -0.5611  1.0638
  938MOL0     C26536   3.122   5.192   2.947 -0.3498  0.4062 -0.0396
  938MOL0     C26537   2.993   5.110   2.922 -0.0363 -0.7224  0.1013
  938MOL0     C26538   2.989   5.043   2.795  0.3077  0.9470  0.1795
  938MOL0    Cl26539   2.993   5.164   2.652  0.5583 -0.0255 -0.2888
  938MOL0     C26540   3.504   5.048   3.211  0.6100  0.1999 -0.0291
  938MOL0     C26541   3.544   4.918   3.180  0.0528  0.2959 -0.2194
  938MOL0     O26542   3.705   4.825   2.840  0.4523  0.3800  0.3583
  938MOL0     C26543   3.701   4.515   2.971  0.0242 -0.3527 -0.3467
  938MOL0     C26544   3.728   4.379   2.937 -0.6228  0.9786  0.3204
  938MOL0     N26545   3.587   3.714   2.580 -0.1712 -0.8697  0.1951
  938MOL0     N26546   3.536   3.595   2.579 -0.4396  0.8042  0.1941
  938MOL0     C26547   2.821   3.079   1.787 -0.4899  1.1077  0.3646
  938MOL0     C26548   2.822   3.037   1.654  0.6850 -0.0741  0.2914
  938MOL0     C26549   2.980   2.860   1.249  0.4774  0.7234  0.2555
  938MOL0     C26550   3.019   2.957   1.155  0.0223  0.2225 -0.0028
  938MOL0     C26551   3.008   2.946   1.020  0.0624  0.1591 -0.6825
  938MOL0     C26552   2.959   2.827   0.964 -0.1635  1.3157 -0.2886
  938MOL0     O26553   2.957   2.796   0.836 -0.6920  0.3674  0.2241
  938MOL0     C26554   2.979   2.907   0.741  0.7543 -0.1821 -0.6632
  938MOL0     C26555   2.953   2.849   0.596  0.2028 -0.3328  0.0089
  938MOL0     C26556   2.975   2.954   0.489  0.0054 -0.1375 -0.5430
  938MOL0     C26557   3.129   2.990   0.470  0.6044 -0.0119 -0.6792
  938MOL0     C26558   3.136   3.092   0.368  1.2310  0.4945 -0.0086
  938MOL0     C26559   3.155   3.174   0.286 -0.7129 -0.2361 -0.3737
  938MOL0     C26560   2.928   2.722   1.052  0.6669 -1.0242 -0.6234
  938MOL0     C26561   2.924   2.741   1.199 -0.3320 -0.4406 -0.0865
  938MOL0     C26562   2.874   2.625   1.286  0.3782  0.1952 -0.4091
  938MOL0     H26563   3.151   3.065   1.580 -2.2160  0.7177 -1.7655
  938MOL0     H26564   3.160   3.136   1.803 -0.1979  2.3433 -1.4434
  938MOL0     H26565   2.893   3.062   2.129 -0.3665  0.1286 -0.3103
  938MOL0     H26566   3.059   3.045   2.066 -1.3044 -1.5127 -1.0142
  938MOL0     H26567   2.947   3.304   2.194  1.3006  1.7794  0.2118
  938MOL0     H26568   3.096   3.284   2.092 -2.0183 -0.4095 -1.0440
  938MOL0     H26569   3.098   3.100   2.315  1.8804  0.2790  1.6640
  938MOL0     H26570   3.048   3.249   2.390  1.7479 -2.5948  1.7868
  938MOL0     H26571   3.302   3.212   2.244  1.9526 -1.8870  2.8428
  938MOL0     H26572   3.240   3.369   2.288 -1.4648 -0.2707  2.3153
  938MOL0     H26573   3.219   3.263   2.529 -0.0945 -1.3020  0.9687
  938MOL0     H26574   3.292   3.126   2.465 -3.4502 -0.2324  1.6771
  938MOL0     H26575   3.500   3.203   2.412  0.5900  0.2308 -0.2218
  938MOL0     H26576   3.460   3.375   2.408  1.1723  0.1331  0.5517
  938MOL0     H26577   3.470   3.183   2.640 -0.5992  0.6531 -1.1714
  938MOL0     H26578   3.386   3.336   2.665 -1.2342 -1.0866 -0.2969
  938MOL0     H26579   3.645   3.343   2.737  0.5788  2.4856 -0.1797
  938MOL0     H26580   3.672   3.299   2.560  1.5015 -2.2890  1.1157
  938MOL0     H26581   3.841   3.524   2.656 -1.4724 -1.4669  1.7866
  938MOL0     H26582   3.909   3.760   2.612 -1.5805  0.5786  3.2976
  938MOL0     H26583   3.826   3.796   2.458 -0.1934 -3.7919 -1.6943
  938MOL0     H26584   3.755   4.009   2.536 -1.9262 -0.9182 -0.6989
  938MOL0     H26585   3.731   3.936   2.701 -0.5113 -1.9110 -0.6018
  938MOL0     H26586   4.003   4.004   2.586  1.7677  1.8719  0.5766
  938MOL0     H26587   3.950   3.963   2.750 -2.1046 -1.3569 -0.6521
  938MOL0     H26588   3.879   4.226   2.590  0.2621  0.6604 -0.2214
  938MOL0     H26589   4.002   4.199   2.723  0.9871 -2.6557  1.0146
  938MOL0     H26590   3.847   4.437   2.624  1.0781  1.6976  0.1433
  938MOL0     H26591   3.823   4.654   2.682 -3.6755 -2.9664 -4.4207
  938MOL0     H26592   3.821   4.995   3.005  2.2599  2.9750  2.4266
  938MOL0     H26593   3.747   5.230   3.065 -0.4014  1.3866  0.4330
  938MOL0     H26594   3.491   5.205   3.416 -0.2327  1.2916  1.0669
  938MOL0     H26595   3.575   5.361   3.432 -0.9215 -0.0386  2.2860
  938MOL0     H26596   3.335   5.394   3.465  1.4718  0.3713 -0.1754
  938MOL0     H26597   3.385   5.471   3.319 -0.8328  0.1932 -0.0169
  938MOL0     H26598   3.257   5.202   3.307 -0.5981 -0.1254 -0.6880
  938MOL0     H26599   3.163   5.350   3.321 -1.3549 -2.0583 -1.6212
  938MOL0     H26600   3.333   5.290   3.075 -0.7601  0.0420 -1.5394
  938MOL0     H26601   3.237   5.429   3.105 -0.5717 -0.2306 -0.4283
  938MOL0     H26602   3.023   5.316   3.088 -1.3278 -1.6669  2.5816
  938MOL0     H26603   3.083   5.168   3.153 -1.1697 -2.5522 -1.5554
  938MOL0     H26604   3.143   5.262   2.866  0.8897  1.3586  1.0538
  938MOL0     H26605   3.205   5.120   2.948  1.9758  2.8740  2.6421
  938MOL0     H26606   2.920   5.191   2.922  3.0581  2.3243 -1.5095
  938MOL0     H26607   2.972   5.041   3.005 -2.2395 -2.4395 -1.7597
  938MOL0     H26608   3.073   4.974   2.783 -0.7628 -0.5681  0.9156
  938MOL0     H26609   2.899   4.982   2.785  0.5909  0.8740 -3.3085
  938MOL0     H26610   3.415   5.054   3.274  1.2620  2.4216  0.7763
  938MOL0     H26611   3.490   4.837   3.228  4.0332 -2.8200 -0.5189
  938MOL0     H26612   3.656   4.527   3.069  2.6713 -4.6198  1.6662
  938MOL0     H26613   3.703   4.293   2.997  2.2977  0.5598  1.0990
  938MOL0     H26614   2.729   3.094   1.842 -0.1476  0.3764  1.1588
  938MOL0     H26615   2.728   3.011   1.605 -0.3542  3.6481  0.0165
  938MOL0     H26616   3.075   3.045   1.183  2.8340 -1.1597 -0.8241
  938MOL0     H26617   3.049   3.026   0.958  0.2026  1.6238  1.1978
  938MOL0     H26618   3.082   2.940   0.754  0.7556 -0.6954  0.7396
  938MOL0     H26619   2.909   2.988   0.760 -0.9197 -1.9072  0.8954
  938MOL0     H26620   2.854   2.802   0.587  1.2102 -2.1436 -2.6072
  938MOL0     H26621   3.027   2.771   0.580  1.1351  0.1173  1.8205
  938MOL0     H26622   2.928   3.050   0.513  0.6801  0.1424 -0.3198
  938MOL0     H26623   2.943   2.918   0.391  2.1216  1.6034 -1.9623
  938MOL0     H26624   3.164   3.019   0.569  1.0565 -0.6994 -0.6262
  938MOL0     H26625   3.183   2.900   0.439 -0.8540 -1.7196  1.4084
  938MOL0     H26626   3.171   3.232   0.198 -0.6825  0.5299  0.1200
  938MOL0     H26627   2.908   2.620   1.023 -0.4134 -1.3054  0.9189
  938MOL0     H26628   2.922   2.620   1.384 -2.9952  1.1344  1.4861
  938MOL0     H26629   2.765   2.640   1.291  0.4104  0.3971 -0.3228
  938MOL0     H26630   2.871   2.526   1.240 -2.0397 -0.9874  1.9976
  939MOL0     O26631   9.227   1.690  10.506  0.6997 -0.1381 -0.0202
  939MOL0     C26632   9.160   1.793  10.521  0.1737 -0.3241  1.6941
  939MOL0     O26633   9.057   1.831  10.435 -0.2842 -0.5781  0.7297
  939MOL0     C26634   9.004   1.731  10.354 -0.5051 -0.1514  0.5435
  939MOL0     C26635   8.934   1.621  10.406  0.3824 -0.3698 -0.3277
  939MOL0     C26636   8.865   1.525  10.331 -1.1363  0.6281 -0.3958
  939MOL0     C26637   8.868   1.542  10.189  0.3087 -0.0617  0.0837
  939MOL0     O26638   8.822   1.443  10.101 -0.2022 -0.0913  0.2064
  939MOL0     C26639   8.672   1.444  10.091 -0.1295 -0.1546 -1.2552
  939MOL0     C26640   8.613   1.335  10.000 -0.0464  0.0220 -0.3762
  939MOL0     C26641   8.469   1.290  10.034  0.3915  0.2834 -0.3212
  939MOL0     C26642   8.392   1.231   9.910  1.0012  0.6279 -0.1346
  939MOL0     C26643   8.243   1.199   9.960 -0.7832  0.3894  0.1298
  939MOL0     C26644   8.165   1.325   9.988  0.1875 -0.8785  0.4751
  939MOL0     C26645   8.149   1.428   9.871 -0.1025 -0.1059 -0.6663
  939MOL0     C26646   8.028   1.523   9.873 -0.6561  0.1071 -0.2921
  939MOL0     N26647   8.026   1.604   9.751  0.0586  1.1287  0.4852
  939MOL0     C26648   7.910   1.648   9.703 -0.9827 -0.5779  0.5081
  939MOL0     C26649   7.960   1.729   9.604 -1.0674  0.2617  0.4018
  939MOL0     C26650   7.889   1.822   9.517  0.2483  0.4889  1.0110
  939MOL0     C26651   7.853   1.949   9.596  0.9631 -0.1908 -1.0707
  939MOL0     C26652   7.742   2.036   9.538  0.1392  0.4810  0.3232
  939MOL0     C26653   7.608   2.030   9.618  0.9130  0.6762  0.6282
  939MOL0     O26654   7.569   1.902   9.675  0.1250 -0.7819  0.9429
  939MOL0     C26655   7.444   1.895   9.738 -0.5955  0.3833  0.6646
  939MOL0     C26656   7.394   2.005   9.807  0.9592 -0.6174  0.7985
  939MOL0     C26657   7.285   1.995   9.902 -0.2845  0.4896 -0.3389
  939MOL0     C26658   7.233   1.865   9.921 -0.1792  0.0378  0.2646
  939MOL0     C26659   7.115   1.856  10.010 -0.8974  0.5200 -0.3614
  939MOL0     O26660   7.077   1.971  10.076 -0.2411  0.3757  0.0493
  939MOL0     C26661   7.014   1.958  10.201 -0.3314  0.4652  0.6262
  939MOL0     C26662   6.938   2.073  10.244 -0.4966 -0.4929  0.4036
  939MOL0     C26663   6.880   2.087  10.374 -0.1452 -0.7349  1.2177
  939MOL0     C26664   6.886   1.974  10.454 -0.0926  1.1233  0.0047
  939MOL0     O26665   6.830   1.984  10.582 -0.4280  0.2047 -0.0132
  939MOL0     C26666   6.694   2.029  10.584  0.4431  0.2051 -0.6545
  939MOL0     C26667   6.651   2.032  10.731 -0.0894 -0.2639  0.0793
  939MOL0     C26668   6.626   1.903  10.794  0.1799  0.6963  0.2213
  939MOL0     C26669   6.613   1.910  10.944 -0.4500  1.0675 -0.5309
  939MOL0     C26670   6.593   1.769  10.999 -0.0375 -0.1364  0.3310
  939MOL0     C26671   6.584   1.775  11.143  0.1985  0.0273  0.1243
  939MOL0     C26672   6.522   1.647  11.203 -0.7835 -0.6658  0.6836
  939MOL0     C26673   6.608   1.527  11.195 -0.8138  0.4704  0.1920
  939MOL0    Cl26674   6.745   1.546  11.297  0.0686 -0.1510  0.5960
  939MOL0     C26675   6.961   1.862  10.421  0.5877  0.2757 -0.0244
  939MOL0     C26676   7.028   1.854  10.295 -0.4647  0.3799 -0.3977
  939MOL0     O26677   7.071   1.745  10.030 -0.8349  0.0586  0.0319
  939MOL0     C26678   7.287   1.750   9.847 -0.5103  0.6100  1.1137
  939MOL0     C26679   7.395   1.763   9.757 -1.0787  0.7039 -0.5072
  939MOL0     N26680   8.101   1.721   9.588  0.3200  0.0866  0.1021
  939MOL0     N26681   8.137   1.641   9.682 -0.8734 -0.6608  0.4633
  939MOL0     C26682   8.950   1.636  10.131  0.1535  0.7902 -0.7009
  939MOL0     C26683   9.008   1.733  10.212 -0.6556  0.6320 -0.8092
  939MOL0     C26684   9.211   1.894  10.618  0.1750  0.2867  0.1454
  939MOL0     C26685   9.220   2.026  10.574 -0.8638 -0.4848  0.3291
  939MOL0     C26686   9.263   2.134  10.660 -0.8731 -0.4836  0.4056
  939MOL0     C26687   9.290   2.099  10.791 -0.0848  0.5376 -0.5403
  939MOL0     O26688   9.317   2.202  10.872  0.5707  0.5450 -0.7987
  939MOL0     C26689   9.280   2.177  11.010 -0.5830  0.5669 -0.2059
  939MOL0     C26690   9.297   2.309  11.077  0.1151  0.5790 -0.0736
  939MOL0     C26691   9.443   2.335  11.118 -0.2835  0.3487 -0.1313
  939MOL0     C26692   9.468   2.324  11.272  0.0912  0.6154 -0.6490
  939MOL0     C26693   9.452   2.188  11.330 -0.3779  1.3292  0.2294
  939MOL0     C26694   9.455   2.073  11.360 -0.3714  0.6755  0.3543
  939MOL0     C26695   9.300   1.965  10.828 -0.0482  0.5174  0.8092
  939MOL0     C26696   9.260   1.858  10.741 -0.9679 -0.2336  0.4509
  939MOL0     C26697   9.253   1.724  10.790  0.3487  0.5854  0.4786
  939MOL0     H26698   8.923   1.618  10.514  1.9722 -0.5909 -0.1511
  939MOL0     H26699   8.801   1.447  10.370 -1.1334 -0.3735 -2.2689
  939MOL0     H26700   8.642   1.419  10.193  0.5498 -1.9833 -1.4567
  939MOL0     H26701   8.635   1.543  10.064 -1.3544  0.6777  2.7985
  939MOL0     H26702   8.666   1.239  10.006 -0.4850 -0.1563  1.0104
  939MOL0     H26703   8.608   1.379   9.900  2.0119  2.0443  0.3260
  939MOL0     H26704   8.417   1.378  10.073  1.1905  0.9859 -0.7979
  939MOL0     H26705   8.466   1.222  10.120  1.2031 -0.7886 -1.1116
  939MOL0     H26706   8.391   1.295   9.821 -2.0134  0.3949 -0.3645
  939MOL0     H26707   8.437   1.132   9.895 -1.2654 -0.5238  0.1163
  939MOL0     H26708   8.191   1.154   9.875 -3.2550 -0.3476  1.9451
  939MOL0     H26709   8.245   1.133  10.047  0.5827 -0.8922 -0.8282
  939MOL0     H26710   8.062   1.298  10.011  0.4402 -0.8743  1.6412
  939MOL0     H26711   8.206   1.383  10.071 -1.5228  1.5779 -0.3053
  939MOL0     H26712   8.155   1.381   9.772 -1.0514  2.9797 -2.2910
  939MOL0     H26713   8.233   1.497   9.885  1.0588 -1.6288  0.1990
  939MOL0     H26714   7.939   1.460   9.864 -1.0062  0.7329 -1.3454
  939MOL0     H26715   8.041   1.599   9.950 -2.6386  0.4033 -0.2076
  939MOL0     H26716   7.807   1.628   9.730 -0.2313 -1.0577  3.3497
  939MOL0     H26717   7.958   1.844   9.435  0.1470  1.0393  1.0698
  939MOL0     H26718   7.802   1.775   9.471  0.6933  2.2175 -1.7996
  939MOL0     H26719   7.835   1.919   9.699  0.4767 -0.1442 -1.1397
  939MOL0     H26720   7.944   2.010   9.600  0.3069  0.7187  0.6195
  939MOL0     H26721   7.716   2.007   9.436 -0.8204 -1.3827  1.0584
  939MOL0     H26722   7.770   2.142   9.531 -1.2999  0.8227 -0.5485
  939MOL0     H26723   7.531   2.064   9.547  0.1245 -0.7071  0.7809
  939MOL0     H26724   7.610   2.111   9.691  1.0517  0.7564  0.5362
  939MOL0     H26725   7.440   2.104   9.809  0.4908 -0.3334  4.5759
  939MOL0     H26726   7.240   2.081   9.950 -0.0634  0.2082  0.3911
  939MOL0     H26727   6.945   2.155  10.174  1.0102 -1.3278 -0.4731
  939MOL0     H26728   6.827   2.176  10.407 -2.4791 -2.0843  1.3569
  939MOL0     H26729   6.687   2.133  10.551  2.4059  0.3537 -0.6826
  939MOL0     H26730   6.631   1.964  10.522 -0.6194 -0.4450  1.0187
  939MOL0     H26731   6.731   2.085  10.784  0.5403 -1.3584  0.2707
  939MOL0     H26732   6.557   2.086  10.737  0.3046  0.3012  1.8691
  939MOL0     H26733   6.527   1.865  10.769 -0.9367  0.9093  3.7073
  939MOL0     H26734   6.700   1.830  10.761 -0.8580  0.0263 -0.6980
  939MOL0     H26735   6.530   1.968  10.985 -2.5060 -1.8924 -0.1633
  939MOL0     H26736   6.700   1.959  10.988 -2.3558  3.9652  0.3236
  939MOL0     H26737   6.673   1.701  10.967  1.0680  0.7601  1.1380
  939MOL0     H26738   6.506   1.735  10.942  1.1420 -3.7574  0.3929
  939MOL0     H26739   6.683   1.795  11.184  1.4831 -4.0488 -0.5021
  939MOL0     H26740   6.530   1.863  11.178  4.8280  3.2385 -0.0184
  939MOL0     H26741   6.423   1.624  11.162 -0.1711 -1.8381 -0.1824
  939MOL0     H26742   6.498   1.669  11.308 -0.6790 -0.8424  0.7465
  939MOL0     H26743   6.551   1.440  11.229 -2.1095  0.8777 -0.8383
  939MOL0     H26744   6.647   1.515  11.093  1.0115 -2.8243  1.1525
  939MOL0     H26745   6.974   1.782  10.493 -0.6050  1.0651  1.1090
  939MOL0     H26746   7.088   1.765  10.281 -4.0808 -2.9568  2.9459
  939MOL0     H26747   7.258   1.646   9.856  2.8736 -0.3947  1.7826
  939MOL0     H26748   7.441   1.680   9.705 -2.0479 -0.1940  0.0418
  939MOL0     H26749   8.981   1.637  10.027  0.0632  0.9642 -0.7256
  939MOL0     H26750   9.075   1.809  10.174  2.2738 -1.9984 -1.3331
  939MOL0     H26751   9.169   2.053  10.482  0.0869  0.1848 -0.0242
  939MOL0     H26752   9.251   2.239  10.638 -2.2974 -0.9637 -1.2604
  939MOL0     H26753   9.339   2.095  11.052 -0.4451  1.4563  1.4277
  939MOL0     H26754   9.176   2.143  11.019 -0.3395 -0.1595 -0.0704
  939MOL0     H26755   9.218   2.327  11.150 -3.3617  1.4416 -3.6552
  939MOL0     H26756   9.264   2.375  10.995 -0.6250  0.9443  0.5032
  939MOL0     H26757   9.478   2.435  11.091 -0.0654  1.3300  3.3779
  939MOL0     H26758   9.513   2.271  11.062  0.3398 -0.1719  1.1968
  939MOL0     H26759   9.570   2.359  11.286 -0.3586  0.9114  2.4552
  939MOL0     H26760   9.400   2.398  11.316 -0.6643  0.8207 -2.0861
  939MOL0     H26761   9.459   1.970  11.389  1.8484  0.8256  0.8019
  939MOL0     H26762   9.320   1.933  10.929 -1.7897 -2.6116  0.2961
  939MOL0     H26763   9.345   1.678  10.751 -0.9643  0.3281 -2.6229
  939MOL0     H26764   9.247   1.718  10.899 -1.3829  1.0944  0.4261
  939MOL0     H26765   9.161   1.676  10.756  0.6803  2.6601 -3.9411
  940MOL0     O26766   6.733   3.880   7.341 -0.4424 -0.6408 -0.1829
  940MOL0     C26767   6.789   3.911   7.232  1.1042  0.3860 -0.3226
  940MOL0     O26768   6.898   3.994   7.229 -0.2670  0.2341 -0.4800
  940MOL0     C26769   6.955   4.023   7.348 -0.2249 -0.0880  0.2505
  940MOL0     C26770   7.017   3.929   7.425 -0.1514 -0.2725  0.2068
  940MOL0     C26771   7.069   3.949   7.554 -0.1180 -0.2469  0.4473
  940MOL0     C26772   7.072   4.073   7.609  0.2364  0.4987  0.6682
  940MOL0     O26773   7.097   4.108   7.741  0.2344 -0.3760  0.3594
  940MOL0     C26774   7.053   4.016   7.843 -0.0208  0.4423 -0.0203
  940MOL0     C26775   7.149   3.911   7.892 -0.0464 -0.0815 -0.6210
  940MOL0     C26776   7.244   3.987   7.999 -0.5807 -0.2985  0.8616
  940MOL0     C26777   7.372   3.906   8.064 -0.2145 -0.4741  0.5941
  940MOL0     C26778   7.332   3.802   8.162 -0.4542  1.0650  0.6553
  940MOL0     C26779   7.275   3.839   8.297  1.2870 -0.0892  0.6858
  940MOL0     C26780   7.361   3.892   8.400  0.6669  0.3842  0.1683
  940MOL0     C26781   7.435   4.026   8.382 -0.0438  0.9348 -0.6401
  940MOL0     N26782   7.493   4.052   8.510  0.2550 -0.2433 -0.7532
  940MOL0     C26783   7.423   4.110   8.619  0.3598 -0.4362  0.0287
  940MOL0     C26784   7.520   4.113   8.721  0.3343 -0.8319  0.0150
  940MOL0     C26785   7.522   4.166   8.862  0.5090 -0.1401 -0.6959
  940MOL0     C26786   7.397   4.252   8.889  0.3444  0.1381  0.0940
  940MOL0     C26787   7.411   4.300   9.033 -0.5570 -0.4973 -0.2311
  940MOL0     C26788   7.327   4.421   9.070 -0.6271  0.0072 -0.2132
  940MOL0     O26789   7.212   4.417   8.981  0.4431  0.2761  0.4310
  940MOL0     C26790   7.137   4.529   8.956  0.0301  0.0629 -0.0371
  940MOL0     C26791   7.169   4.645   9.035  0.4790 -0.5828  0.1672
  940MOL0     C26792   7.109   4.768   9.009  0.6828  0.2825  0.0861
  940MOL0     C26793   7.025   4.779   8.899 -0.0569  0.1107  0.0096
  940MOL0     C26794   6.964   4.910   8.871  0.6160  0.4455 -0.6154
  940MOL0     O26795   6.943   4.994   8.981  1.1075  0.7920  0.4792
  940MOL0     C26796   6.862   5.106   8.961 -0.2122  0.8140 -0.4190
  940MOL0     C26797   6.765   5.128   9.055  0.3373 -0.2437  0.2021
  940MOL0     C26798   6.704   5.253   9.060  0.0835 -0.0379  0.5085
  940MOL0     C26799   6.723   5.349   8.956  0.5910  0.8463 -0.7988
  940MOL0     O26800   6.664   5.469   8.971 -0.0218 -0.2319  0.1617
  940MOL0     C26801   6.702   5.575   8.877  1.2894  0.4404  0.2591
  940MOL0     C26802   6.605   5.692   8.891  0.6091 -0.1850  0.6217
  940MOL0     C26803   6.475   5.680   8.807 -0.2469  0.6213  0.2647
  940MOL0     C26804   6.364   5.765   8.871  1.0011  0.5712 -0.0956
  940MOL0     C26805   6.382   5.916   8.892  0.0075 -0.1851 -0.1283
  940MOL0     C26806   6.277   5.990   8.973 -0.4355 -0.5868 -1.0565
  940MOL0     C26807   6.288   6.136   8.937  1.0421 -0.7858 -0.6874
  940MOL0     C26808   6.177   6.212   9.004  0.2303 -0.1780 -0.1110
  940MOL0    Cl26809   6.222   6.383   8.982  0.1155 -0.1086  0.2727
  940MOL0     C26810   6.809   5.317   8.854 -0.8563 -0.5130 -0.3207
  940MOL0     C26811   6.872   5.200   8.856  0.3322  0.9193  0.1711
  940MOL0     O26812   6.929   4.939   8.760 -0.9903 -0.2733 -0.4177
  940MOL0     C26813   7.005   4.674   8.813 -0.6574  0.3030 -0.3284
  940MOL0     C26814   7.054   4.546   8.839  0.0021  0.2667 -0.6611
  940MOL0     N26815   7.632   4.066   8.664 -0.5643 -0.1965 -1.1645
  940MOL0     N26816   7.624   4.036   8.540  0.9293  0.0891  0.2169
  940MOL0     C26817   7.014   4.171   7.532  0.4180 -0.2999 -1.0524
  940MOL0     C26818   6.957   4.149   7.409 -1.2361  0.4276 -0.3629
  940MOL0     C26819   6.747   3.859   7.101  0.2362  0.0035  0.4670
  940MOL0     C26820   6.848   3.804   7.015 -0.2995  0.3466 -0.3122
  940MOL0     C26821   6.823   3.756   6.892 -0.3344 -0.1704 -0.1560
  940MOL0     C26822   6.686   3.741   6.845 -0.3769  0.0004  0.6293
  940MOL0     O26823   6.648   3.684   6.723  0.6751 -0.1059 -0.3728
  940MOL0     C26824   6.732   3.642   6.622  0.0356  0.2646  0.3251
  940MOL0     C26825   6.740   3.770   6.528 -0.2406 -0.3927 -0.6797
  940MOL0     C26826   6.823   3.733   6.408  0.2329  0.0486 -0.2833
  940MOL0     C26827   6.790   3.811   6.280  0.0716 -0.3516  0.3308
  940MOL0     C26828   6.819   3.956   6.300 -0.4511 -0.0017 -0.9556
  940MOL0     C26829   6.855   4.072   6.331  0.2482 -0.0426 -0.0031
  940MOL0     C26830   6.585   3.777   6.928  1.0554  0.2788 -0.0081
  940MOL0     C26831   6.614   3.838   7.053 -0.4177 -0.7621  0.0475
  940MOL0     C26832   6.493   3.895   7.122  0.5573  0.0186 -0.4816
  940MOL0     H26833   7.030   3.832   7.379 -0.3994 -0.7838  1.2054
  940MOL0     H26834   7.115   3.867   7.608 -0.1317 -0.8939 -0.5019
  940MOL0     H26835   7.037   4.083   7.928 -2.4840  2.4105 -1.8608
  940MOL0     H26836   6.955   3.968   7.842 -0.0348 -0.5187  6.4337
  940MOL0     H26837   7.212   3.878   7.808 -0.1261  1.9281 -1.5301
  940MOL0     H26838   7.117   3.820   7.944  0.9387 -2.6193 -4.0264
  940MOL0     H26839   7.186   4.044   8.072 -0.4653  2.7715 -1.2105
  940MOL0     H26840   7.281   4.071   7.940 -4.3165 -1.0803 -3.1547
  940MOL0     H26841   7.427   3.863   7.980 -0.9626 -0.7893  0.2573
  940MOL0     H26842   7.429   3.991   8.102  1.2087 -2.2920  2.8176
  940MOL0     H26843   7.269   3.728   8.112  1.3055 -1.9199  2.5032
  940MOL0     H26844   7.418   3.737   8.183 -1.3067  0.2550  1.7397
  940MOL0     H26845   7.189   3.906   8.289 -1.4506 -3.1091  2.4130
  940MOL0     H26846   7.232   3.746   8.334 -1.6502 -0.6830 -3.4827
  940MOL0     H26847   7.439   3.816   8.411 -1.6015 -2.1252 -0.3380
  940MOL0     H26848   7.305   3.893   8.494 -2.7250 -3.8585 -1.4911
  940MOL0     H26849   7.502   4.012   8.297  0.4435 -1.4934  0.0721
  940MOL0     H26850   7.375   4.110   8.346  1.5756  1.4641 -2.2588
  940MOL0     H26851   7.325   4.155   8.625  1.1965  1.8620 -1.8707
  940MOL0     H26852   7.531   4.083   8.932  0.5443  0.6957  0.3235
  940MOL0     H26853   7.607   4.234   8.876 -0.8285  1.2788  1.1243
  940MOL0     H26854   7.384   4.334   8.817  0.5402  2.2545  2.3646
  940MOL0     H26855   7.310   4.185   8.887  0.1097  0.3287  2.1527
  940MOL0     H26856   7.515   4.318   9.062 -1.2166  1.5126  1.1378
  940MOL0     H26857   7.374   4.218   9.095  2.9825 -3.5352 -1.7783
  940MOL0     H26858   7.377   4.515   9.048 -3.9415  2.2527  1.0762
  940MOL0     H26859   7.299   4.421   9.176  0.2420 -0.7805  0.0293
  940MOL0     H26860   7.229   4.649   9.126 -0.9782  0.4888  1.1412
  940MOL0     H26861   7.122   4.859   9.067 -0.2941  0.9800 -0.7429
  940MOL0     H26862   6.758   5.050   9.130  1.4858 -0.7667 -0.1976
  940MOL0     H26863   6.646   5.280   9.146  1.4842  3.3637  0.5218
  940MOL0     H26864   6.802   5.607   8.905  1.6136 -1.2918  1.2704
  940MOL0     H26865   6.685   5.532   8.778 -0.0785  0.1898  0.5821
  940MOL0     H26866   6.582   5.701   8.997 -1.7676 -2.1366  0.3682
  940MOL0     H26867   6.660   5.775   8.846 -0.4241 -0.9816 -2.3476
  940MOL0     H26868   6.486   5.701   8.701  1.8646 -2.3202 -0.2302
  940MOL0     H26869   6.446   5.574   8.804  1.1147  0.2620 -2.2612
  940MOL0     H26870   6.354   5.703   8.961 -1.8557 -0.5219 -1.0470
  940MOL0     H26871   6.272   5.749   8.813  1.0321 -1.2865  0.2915
  940MOL0     H26872   6.379   5.962   8.792  0.0268  0.3287  0.1040
  940MOL0     H26873   6.477   5.935   8.943 -0.8188  2.0513  0.7180
  940MOL0     H26874   6.179   5.948   8.950 -0.7758 -0.1975 -0.3452
  940MOL0     H26875   6.292   5.989   9.081 -1.6039 -0.3675 -0.8805
  940MOL0     H26876   6.270   6.161   8.832 -0.5439  1.4596  0.0150
  940MOL0     H26877   6.384   6.175   8.972  2.2860 -2.4185 -2.1196
  940MOL0     H26878   6.084   6.188   8.954  0.2218  1.4727 -0.9568
  940MOL0     H26879   6.167   6.190   9.111 -0.1719 -0.4724 -0.2096
  940MOL0     H26880   6.846   5.387   8.779 -3.0271 -1.2645 -2.1897
  940MOL0     H26881   6.943   5.182   8.776  1.0696  3.7731  0.0982
  940MOL0     H26882   6.975   4.683   8.709  0.8174 -0.4773 -0.8593
  940MOL0     H26883   7.040   4.468   8.765  0.2452 -0.5248  0.1040
  940MOL0     H26884   7.010   4.268   7.580 -0.2133 -0.1091 -1.4925
  940MOL0     H26885   6.904   4.232   7.363 -4.6755 -0.9335  0.8272
  940MOL0     H26886   6.954   3.813   7.037 -0.2325  2.0166 -1.1698
  940MOL0     H26887   6.908   3.720   6.836  0.0608  0.4579  0.0288
  940MOL0     H26888   6.690   3.560   6.563 -0.5914 -0.1731  1.3423
  940MOL0     H26889   6.833   3.613   6.655  0.9545 -1.2433 -3.3715
  940MOL0     H26890   6.781   3.857   6.581 -1.0578 -1.9552  2.7920
  940MOL0     H26891   6.639   3.794   6.493  0.2160  0.3019 -1.5874
  940MOL0     H26892   6.808   3.626   6.391  1.5229 -0.2502  0.3296
  940MOL0     H26893   6.926   3.742   6.444 -0.8272 -3.1772  4.5033
  940MOL0     H26894   6.848   3.787   6.191 -0.0082  0.5635  0.0255
  940MOL0     H26895   6.683   3.791   6.267  0.5582 -3.3850  0.4134
  940MOL0     H26896   6.891   4.168   6.363 -1.5750  0.5110  0.5147
  940MOL0     H26897   6.488   3.763   6.882 -0.7124  2.7728  2.6579
  940MOL0     H26898   6.521   3.977   7.189  1.5748  1.7005 -2.8609
  940MOL0     H26899   6.420   3.931   7.050 -0.3367  0.3712  0.5780
  940MOL0     H26900   6.457   3.817   7.190  3.0911 -0.9809 -0.1532
  941MOL0     O26901   2.069   7.539   8.195 -0.4573  0.7928  0.0804
  941MOL0     C26902   2.168   7.599   8.168 -0.3980 -0.1566 -0.5278
  941MOL0     O26903   2.281   7.589   8.233  0.5686  0.9017 -0.1936
  941MOL0     C26904   2.293   7.512   8.343  0.1331  0.2231  0.4245
  941MOL0     C26905   2.302   7.565   8.469  0.0900  1.0279  0.1046
  941MOL0     C26906   2.272   7.475   8.577 -0.1076 -0.4389 -0.1040
  941MOL0     C26907   2.260   7.337   8.570 -0.5462 -0.2623 -0.4907
  941MOL0     O26908   2.248   7.248   8.671 -0.3337  0.2625 -0.3040
  941MOL0     C26909   2.258   7.297   8.802  0.0209 -0.4689 -0.3569
  941MOL0     C26910   2.247   7.194   8.907  0.2442 -0.4179 -0.2186
  941MOL0     C26911   2.117   7.112   8.918 -0.1363  0.4802  1.0231
  941MOL0     C26912   2.127   6.968   8.848  0.7008 -0.4714  0.8768
  941MOL0     C26913   2.036   6.866   8.918  1.0634 -0.4586  0.0709
  941MOL0     C26914   2.022   6.855   9.071  0.5496 -0.8373 -0.0875
  941MOL0     C26915   1.922   6.740   9.086  0.5528 -0.5358  0.8418
  941MOL0     C26916   1.887   6.701   9.227 -0.3241  0.1879 -0.0811
  941MOL0     N26917   1.846   6.559   9.231  0.4492 -0.2159 -0.0476
  941MOL0     C26918   1.929   6.457   9.226  0.2738 -0.3283 -0.5694
  941MOL0     C26919   1.856   6.342   9.241 -0.8012  0.3577 -0.4793
  941MOL0     C26920   1.919   6.206   9.253  0.5554  0.8943  0.0565
  941MOL0     C26921   2.037   6.211   9.358 -1.1633  0.0743 -0.4261
  941MOL0     C26922   2.126   6.083   9.344 -0.6997 -0.0492  0.4797
  941MOL0     C26923   2.056   5.962   9.403 -0.3144 -0.3230 -0.1515
  941MOL0     O26924   2.149   5.867   9.443 -0.6997 -0.2578  0.3126
  941MOL0     C26925   2.217   5.890   9.558  0.4550 -0.2288 -0.1795
  941MOL0     C26926   2.216   6.004   9.647  0.4874  0.1780  0.1753
  941MOL0     C26927   2.287   6.001   9.772  0.3353  0.0987  0.0850
  941MOL0     C26928   2.359   5.882   9.806 -0.1465 -0.8841 -0.5217
  941MOL0     C26929   2.429   5.877   9.932 -0.4767 -0.2274  0.4761
  941MOL0     O26930   2.404   5.981  10.008  0.0738  0.8826 -0.5629
  941MOL0     C26931   2.481   5.990  10.121  0.6235 -0.0706 -0.4564
  941MOL0     C26932   2.619   6.003  10.116 -0.3441  0.7356  0.1937
  941MOL0     C26933   2.694   6.011  10.234  0.0118  0.5338 -0.1211
  941MOL0     C26934   2.627   6.019  10.358 -0.7547  0.0472  0.9027
  941MOL0     O26935   2.684   6.040  10.475  0.1596 -0.2563 -0.1083
  941MOL0     C26936   2.828   6.046  10.495 -0.3284  1.2038 -0.2110
  941MOL0     C26937   2.858   6.072  10.647  1.2652  0.2254  1.3387
  941MOL0     C26938   2.846   5.936  10.719  0.1825 -0.4257  0.6163
  941MOL0     C26939   2.832   5.938  10.879 -0.6333 -0.5084  0.4208
  941MOL0     C26940   2.813   5.800  10.938 -0.8611 -0.0862 -0.0182
  941MOL0     C26941   2.841   5.812  11.092  0.6035 -0.5600  0.5853
  941MOL0     C26942   2.810   5.679  11.161  0.4120  0.7747 -0.1972
  941MOL0     C26943   2.808   5.678  11.312 -0.8203  0.4415 -0.0072
  941MOL0    Cl26944   2.763   5.509  11.366 -0.4418 -0.0157  0.1703
  941MOL0     C26945   2.490   5.999  10.365 -0.0135  0.5855 -1.0648
  941MOL0     C26946   2.419   5.979  10.252 -0.0714  1.2043 -0.1045
  941MOL0     O26947   2.516   5.792   9.953  0.3984 -0.3448  0.3862
  941MOL0     C26948   2.355   5.768   9.718 -0.1415 -0.8680 -0.8790
  941MOL0     C26949   2.285   5.770   9.599 -0.1551  0.5033 -0.2132
  941MOL0     N26950   1.726   6.381   9.267  0.7905 -0.3152  0.1029
  941MOL0     N26951   1.720   6.512   9.245 -0.4447 -0.1006  0.2565
  941MOL0     C26952   2.265   7.295   8.440  0.4456 -0.1974  0.2951
  941MOL0     C26953   2.276   7.377   8.328 -0.2649 -0.4316 -0.2074
  941MOL0     C26954   2.184   7.703   8.065  0.5859 -0.2318  0.7174
  941MOL0     C26955   2.298   7.692   7.982  0.3546 -0.2837 -0.2735
  941MOL0     C26956   2.329   7.791   7.890 -0.6247  0.2468 -1.1392
  941MOL0     C26957   2.253   7.902   7.887  0.5189 -0.0575 -1.5515
  941MOL0     O26958   2.287   8.014   7.811 -0.0784 -0.3424  0.4326
  941MOL0     C26959   2.408   8.023   7.735 -0.3552 -1.0604  0.5744
  941MOL0     C26960   2.379   8.149   7.645 -1.2623  0.2699  0.9732
  941MOL0     C26961   2.243   8.160   7.566  0.0888 -0.5694 -0.5533
  941MOL0     C26962   2.213   8.271   7.465 -0.0013 -0.4262  0.3126
  941MOL0     C26963   2.254   8.240   7.331  0.3826 -0.2076  0.3936
  941MOL0     C26964   2.292   8.238   7.218 -1.4190  0.7410  0.1117
  941MOL0     C26965   2.133   7.921   7.955 -1.0262  0.0599  0.3758
  941MOL0     C26966   2.101   7.817   8.048  0.3527 -0.4928 -0.4377
  941MOL0     C26967   1.981   7.828   8.143 -0.2924 -0.9830  0.7072
  941MOL0     H26968   2.326   7.671   8.469 -2.7028  1.7342 -0.3500
  941MOL0     H26969   2.281   7.514   8.678  0.4775 -0.1858 -0.2533
  941MOL0     H26970   2.348   7.356   8.825  0.2569 -2.5582  5.8037
  941MOL0     H26971   2.174   7.366   8.808 -1.6652 -2.1259 -2.7664
  941MOL0     H26972   2.254   7.246   9.003 -1.6242 -0.8930  0.2183
  941MOL0     H26973   2.335   7.130   8.898  1.4072  1.0079  0.6176
  941MOL0     H26974   2.026   7.157   8.877  0.8694  0.3425 -1.6004
  941MOL0     H26975   2.100   7.107   9.026 -1.0776  0.1168  0.8611
  941MOL0     H26976   2.091   6.990   8.747 -2.1345  1.1004  2.1053
  941MOL0     H26977   2.228   6.929   8.861  0.8239  0.5240  3.3622
  941MOL0     H26978   1.934   6.869   8.877 -1.5209  1.6806  5.6765
  941MOL0     H26979   2.078   6.769   8.889 -1.8014 -2.6299  2.4804
  941MOL0     H26980   2.117   6.842   9.123 -0.2172  0.2030  1.6516
  941MOL0     H26981   1.972   6.945   9.108 -1.1355 -1.6044 -0.4045
  941MOL0     H26982   1.978   6.656   9.045 -0.0993 -0.9036  0.6894
  941MOL0     H26983   1.829   6.757   9.031 -0.8406 -0.7108  3.0243
  941MOL0     H26984   1.968   6.724   9.298  0.4973  3.0749 -1.7475
  941MOL0     H26985   1.794   6.754   9.249 -2.3124 -1.0189 -4.5004
  941MOL0     H26986   2.037   6.456   9.219  0.3194  1.0716 -0.2433
  941MOL0     H26987   1.837   6.138   9.276  2.0861 -0.9334  0.3419
  941MOL0     H26988   1.954   6.173   9.155  0.5132 -1.6427  0.8195
  941MOL0     H26989   2.104   6.297   9.345 -0.0259 -0.6556  0.4701
  941MOL0     H26990   1.994   6.213   9.459 -2.1174 -1.1660 -0.7750
  941MOL0     H26991   2.219   6.102   9.399 -0.7258 -1.7259  1.1432
  941MOL0     H26992   2.141   6.070   9.236 -0.8753 -2.4788  0.6952
  941MOL0     H26993   1.999   5.910   9.325  0.0273 -1.2014  0.1824
  941MOL0     H26994   1.997   5.989   9.491  0.4323  0.6322  0.0781
  941MOL0     H26995   2.161   6.091   9.614 -2.1508 -0.9513  1.3241
  941MOL0     H26996   2.296   6.094   9.828 -1.1046 -0.4956  1.3568
  941MOL0     H26997   2.663   5.993  10.018  1.6413 -0.2554  1.1171
  941MOL0     H26998   2.799   6.007  10.206 -0.4337 -0.9490 -1.7728
  941MOL0     H26999   2.877   5.950  10.475 -1.2184 -0.1916  3.5211
  941MOL0     H27000   2.874   6.124  10.433  4.3560  0.0801  1.3766
  941MOL0     H27001   2.946   6.129  10.677  1.4549  1.4746 -1.2388
  941MOL0     H27002   2.767   6.123  10.680  1.5794  2.1713 -0.5785
  941MOL0     H27003   2.769   5.876  10.670  2.0325 -0.0787 -3.0958
  941MOL0     H27004   2.937   5.881  10.689 -0.3966 -0.9749 -0.1832
  941MOL0     H27005   2.746   5.996  10.915 -1.3574 -0.0831 -1.8149
  941MOL0     H27006   2.921   5.978  10.927 -3.8364  0.2459  6.8156
  941MOL0     H27007   2.881   5.726  10.896 -0.8562  0.2988 -0.6926
  941MOL0     H27008   2.711   5.764  10.922 -2.0564  3.7459 -2.2113
  941MOL0     H27009   2.947   5.836  11.103  0.3212  0.9127  0.3446
  941MOL0     H27010   2.782   5.896  11.130  0.0206 -0.0607 -1.2746
  941MOL0     H27011   2.874   5.601  11.119  0.1815  0.0498  0.7684
  941MOL0     H27012   2.711   5.648  11.128  0.4305 -0.4766  0.8512
  941MOL0     H27013   2.906   5.710  11.350 -2.5430  1.7655  3.7022
  941MOL0     H27014   2.728   5.747  11.338 -0.6219 -0.6070  4.0136
  941MOL0     H27015   2.451   6.005  10.466 -0.8031  4.5867 -1.4683
  941MOL0     H27016   2.313   5.956  10.261  0.4646 -0.5929  3.0057
  941MOL0     H27017   2.412   5.677   9.738 -1.3191 -1.7513 -1.4049
  941MOL0     H27018   2.293   5.681   9.539 -1.9271  1.2110 -1.6006
  941MOL0     H27019   2.239   7.191   8.422  0.4909 -0.7378  2.9668
  941MOL0     H27020   2.262   7.331   8.231 -1.3852 -0.7480  0.0899
  941MOL0     H27021   2.359   7.603   7.968  0.3958 -0.1981 -0.6548
  941MOL0     H27022   2.422   7.790   7.833  0.5048  2.4899  0.4834
  941MOL0     H27023   2.429   7.935   7.674  1.9362 -0.8531  0.9958
  941MOL0     H27024   2.494   8.037   7.801  0.5971 -0.2123 -0.7945
  941MOL0     H27025   2.458   8.165   7.571 -2.5330  0.0286 -0.5092
  941MOL0     H27026   2.383   8.239   7.708  0.3322  0.6646  0.3614
  941MOL0     H27027   2.176   8.165   7.652  0.8555  1.5105 -0.0308
  941MOL0     H27028   2.222   8.066   7.514  0.7033 -0.2007 -1.5168
  941MOL0     H27029   2.106   8.294   7.468 -0.0713 -0.7939  2.0102
  941MOL0     H27030   2.269   8.362   7.488  2.3377 -1.4067 -1.1712
  941MOL0     H27031   2.347   8.239   7.126 -0.2343 -0.8461  0.7469
  941MOL0     H27032   2.068   8.007   7.941 -1.2928 -0.4601 -1.8983
  941MOL0     H27033   2.006   7.793   8.243  0.1303 -1.4132  0.4547
  941MOL0     H27034   1.953   7.934   8.149  0.5986 -0.5946 -1.1969
  941MOL0     H27035   1.894   7.771   8.108 -1.7137  1.7910 -0.6537
  942MOL0     O27036   0.851   2.212   1.497 -0.2191 -0.6146  1.0833
  942MOL0     C27037   0.887   2.175   1.611  0.7751  0.8369  0.2356
  942MOL0     O27038   1.001   2.213   1.672  0.0386 -0.1213  0.7884
  942MOL0     C27039   1.082   2.308   1.610 -0.4982 -0.3816  0.9656
  942MOL0     C27040   1.163   2.264   1.501 -0.1376 -0.3101 -0.2780
  942MOL0     C27041   1.256   2.349   1.444 -0.0734  0.6549 -0.8926
  942MOL0     C27042   1.267   2.478   1.483  0.4482 -0.3318 -0.4475
  942MOL0     O27043   1.368   2.568   1.438 -0.2671  0.0006 -0.2941
  942MOL0     C27044   1.460   2.529   1.338 -0.0394  0.0167  0.7029
  942MOL0     C27045   1.549   2.653   1.300 -0.1154  0.2910 -0.6438
  942MOL0     C27046   1.674   2.622   1.230  0.2035  0.1177 -1.3926
  942MOL0     C27047   1.640   2.591   1.087  0.5840  0.0259 -0.0752
  942MOL0     C27048   1.778   2.583   1.011  0.0844  0.9534  0.0482
  942MOL0     C27049   1.761   2.598   0.863  0.3175  0.4355 -0.5130
  942MOL0     C27050   1.896   2.594   0.788  0.5813 -0.1964 -0.1000
  942MOL0     C27051   1.918   2.451   0.728 -0.0565  0.3368 -0.7590
  942MOL0     N27052   1.858   2.426   0.601 -0.2399  0.7460  0.5125
  942MOL0     C27053   1.892   2.478   0.471 -0.4351  1.0556 -0.0648
  942MOL0     C27054   1.801   2.428   0.386 -0.6219 -0.4354  0.0111
  942MOL0     C27055   1.791   2.458   0.242 -0.8602  0.0850  0.5678
  942MOL0     C27056   1.708   2.581   0.219  1.0425 -0.1351  0.6197
  942MOL0     C27057   1.780   2.718   0.274  0.3097  0.6201 -0.2324
  942MOL0     C27058   1.693   2.836   0.234  0.4359  0.2914 -0.6360
  942MOL0     O27059   1.677   2.855   0.096  0.7867  0.3142  0.5486
  942MOL0     C27060   1.605   2.951   0.025 -0.0464  1.2818 -0.0151
  942MOL0     C27061   1.553   3.064   0.077  0.5001 -0.0409 -0.7924
  942MOL0     C27062   1.469   3.141   0.001 -0.0860  0.3158 -0.3409
  942MOL0     C27063   1.447   3.112  -0.133  0.1021  0.0860  0.0611
  942MOL0     C27064   1.335   3.183  -0.215 -0.1727  1.4965 -0.1549
  942MOL0     O27065   1.333   3.148  -0.350 -0.5889 -0.1441 -0.6850
  942MOL0     C27066   1.271   3.238  -0.432  0.6172 -0.2763 -0.8133
  942MOL0     C27067   1.128   3.244  -0.442 -0.1895 -0.2300  0.0975
  942MOL0     C27068   1.065   3.320  -0.542  0.6565 -0.0471 -0.6683
  942MOL0     C27069   1.140   3.397  -0.627 -0.2724 -0.1562 -0.8636
  942MOL0     O27070   1.097   3.468  -0.736  0.7966 -0.1879  0.3721
  942MOL0     C27071   0.975   3.429  -0.801 -0.1109  0.8068 -0.9622
  942MOL0     C27072   0.988   3.475  -0.950  0.1386  0.2262 -0.4990
  942MOL0     C27073   0.979   3.624  -0.940 -0.2096 -0.7393  0.0983
  942MOL0     C27074   0.986   3.671  -1.084  0.2813 -0.6262  0.8913
  942MOL0     C27075   0.981   3.817  -1.091  0.6883  0.8589  0.5252
  942MOL0     C27076   0.991   3.881  -1.234  0.2756 -0.9474  0.2636
  942MOL0     C27077   1.020   4.033  -1.221 -1.0199  0.4021 -0.6877
  942MOL0     C27078   0.956   4.107  -1.335 -0.5268  0.5586 -0.2373
  942MOL0    Cl27079   0.999   4.279  -1.322 -0.4672  0.2750 -0.3803
  942MOL0     C27080   1.284   3.395  -0.620  0.0935 -0.6117 -0.4725
  942MOL0     C27081   1.355   3.316  -0.523  0.2020 -1.2184  0.8186
  942MOL0     O27082   1.282   3.276  -0.163 -0.2985  0.4536 -0.2595
  942MOL0     C27083   1.523   3.010  -0.195 -0.7965  0.2305 -0.0679
  942MOL0     C27084   1.596   2.928  -0.109  0.2329  0.9772 -0.4261
  942MOL0     N27085   1.714   2.339   0.457  0.0695 -0.0934  0.9432
  942MOL0     N27086   1.750   2.340   0.581  0.0785 -0.1695  0.0498
  942MOL0     C27087   1.180   2.524   1.585  0.0207 -0.3164  0.4194
  942MOL0     C27088   1.091   2.444   1.649  0.2414  0.7641 -0.0455
  942MOL0     C27089   0.778   2.086   1.678 -1.1032 -0.9957 -0.7274
  942MOL0     C27090   0.651   2.099   1.632  0.6164  0.5779 -0.3408
  942MOL0     C27091   0.548   2.034   1.692  0.1678  0.0863 -0.1520
  942MOL0     C27092   0.572   1.954   1.808  1.0315  0.6492 -0.2032
  942MOL0     O27093   0.468   1.883   1.873  0.8961  0.3552  0.1543
  942MOL0     C27094   0.329   1.915   1.843 -0.4177 -0.1766 -0.7447
  942MOL0     C27095   0.288   2.055   1.884  0.1672  0.6810 -0.5563
  942MOL0     C27096   0.138   2.091   1.861 -0.3770 -0.1909 -0.1310
  942MOL0     C27097   0.094   2.068   1.718 -1.2440 -0.3122 -0.3882
  942MOL0     C27098  -0.014   2.163   1.671  0.1733 -0.0571 -0.1868
  942MOL0     C27099  -0.082   2.262   1.629 -0.4412 -0.3516 -0.1151
  942MOL0     C27100   0.695   1.948   1.859 -0.3461 -0.2261 -0.1291
  942MOL0     C27101   0.803   2.003   1.790  0.0490 -0.5954  0.3036
  942MOL0     C27102   0.942   1.964   1.834 -0.6719 -0.1384  0.0631
  942MOL0     H27103   1.136   2.161   1.477 -2.5724  0.2443 -0.1624
  942MOL0     H27104   1.327   2.306   1.373 -0.0652  0.1685 -0.5931
  942MOL0     H27105   1.533   2.461   1.381  0.0079  0.6740  1.6882
  942MOL0     H27106   1.409   2.479   1.255 -1.3926 -1.1046  2.1472
  942MOL0     H27107   1.574   2.703   1.394 -0.1609 -2.9090  1.2370
  942MOL0     H27108   1.481   2.717   1.244  2.3663  2.4884 -1.3703
  942MOL0     H27109   1.737   2.549   1.282 -0.3378 -0.8575 -2.0757
  942MOL0     H27110   1.737   2.711   1.228  0.6487 -0.0836  1.1334
  942MOL0     H27111   1.566   2.511   1.074  0.7690  0.0217 -1.1638
  942MOL0     H27112   1.589   2.683   1.057  1.6620  0.4510 -0.6839
  942MOL0     H27113   1.841   2.663   1.050 -0.3741  1.4757 -0.2710
  942MOL0     H27114   1.816   2.486   1.043 -0.3754  2.1087  4.8508
  942MOL0     H27115   1.680   2.543   0.815  1.0077 -0.8876 -0.1933
  942MOL0     H27116   1.723   2.701   0.854 -5.0198 -1.2047 -0.0743
  942MOL0     H27117   1.970   2.615   0.867  0.9379  0.4473 -0.5950
  942MOL0     H27118   1.896   2.666   0.706 -1.9191  1.0749  0.9193
  942MOL0     H27119   2.024   2.421   0.725 -0.2651 -0.3827 -1.5705
  942MOL0     H27120   1.882   2.380   0.803  2.5443 -0.8394 -0.4866
  942MOL0     H27121   1.967   2.557   0.463 -0.3118  0.9135 -0.3332
  942MOL0     H27122   1.891   2.462   0.199 -1.7846 -1.8094 -2.0016
  942MOL0     H27123   1.736   2.384   0.184 -0.0814  1.7621 -2.4786
  942MOL0     H27124   1.714   2.599   0.111 -1.4901  1.3072  0.6521
  942MOL0     H27125   1.606   2.561   0.250  0.4161 -3.6754 -2.8960
  942MOL0     H27126   1.880   2.734   0.234  0.2189 -0.6810 -1.0552
  942MOL0     H27127   1.794   2.719   0.383  1.3076 -0.7538 -0.3096
  942MOL0     H27128   1.737   2.924   0.280 -3.7418  2.5669 -0.4261
  942MOL0     H27129   1.596   2.824   0.283  0.5691  0.0845 -0.4254
  942MOL0     H27130   1.559   3.080   0.184  0.9736  0.8190 -0.9351
  942MOL0     H27131   1.406   3.215   0.049 -1.1918  1.2131 -2.9609
  942MOL0     H27132   1.074   3.194  -0.362  2.1591 -1.5163  0.9611
  942MOL0     H27133   0.960   3.349  -0.538  0.7038  0.1620  2.8501
  942MOL0     H27134   0.961   3.321  -0.799  0.2039  0.7142 -2.5079
  942MOL0     H27135   0.891   3.472  -0.745 -1.5577  1.3761 -3.4404
  942MOL0     H27136   1.084   3.436  -0.984 -0.3965 -1.9253  0.2620
  942MOL0     H27137   0.912   3.427  -1.012 -1.3149 -0.3024  1.5626
  942MOL0     H27138   0.877   3.637  -0.902 -0.9688 -7.6738  1.8390
  942MOL0     H27139   1.051   3.680  -0.879 -0.8277 -0.3995  0.5298
  942MOL0     H27140   0.918   3.613  -1.146  0.6739 -4.7732  3.9195
  942MOL0     H27141   1.083   3.637  -1.122 -0.5280 -0.8962 -1.0315
  942MOL0     H27142   1.067   3.854  -1.034  1.3793  0.7765 -0.4334
  942MOL0     H27143   0.896   3.855  -1.033  0.7178 -2.8006  3.3450
  942MOL0     H27144   1.061   3.823  -1.295  2.1251 -0.1747  1.5829
  942MOL0     H27145   0.896   3.888  -1.288  1.4060  2.2887 -1.5656
  942MOL0     H27146   1.127   4.052  -1.229 -0.3361 -3.1519 -2.1157
  942MOL0     H27147   0.991   4.077  -1.124  1.2124  0.8888 -0.1961
  942MOL0     H27148   1.000   4.072  -1.429 -0.9331  1.0887 -0.6268
  942MOL0     H27149   0.848   4.104  -1.320 -0.2396  2.5790  3.4289
  942MOL0     H27150   1.344   3.446  -0.695 -1.2917  0.6952 -0.7362
  942MOL0     H27151   1.464   3.314  -0.515  0.4548 -0.4089 -1.5856
  942MOL0     H27152   1.504   2.987  -0.300 -0.4980  2.0364 -0.5459
  942MOL0     H27153   1.638   2.832  -0.140  3.0796  2.2809 -0.9257
  942MOL0     H27154   1.174   2.622   1.630  0.0517 -0.0748 -0.0979
  942MOL0     H27155   1.029   2.486   1.728 -1.6394  0.1860 -1.1518
  942MOL0     H27156   0.629   2.163   1.546  1.5183  0.6122 -0.5537
  942MOL0     H27157   0.454   2.031   1.637 -1.5106 -1.0756  2.5575
  942MOL0     H27158   0.263   1.846   1.896 -1.0927  0.3442 -0.8997
  942MOL0     H27159   0.316   1.911   1.734 -1.0278 -1.9234 -0.6385
  942MOL0     H27160   0.347   2.116   1.815  2.7833 -2.6546 -1.5275
  942MOL0     H27161   0.313   2.076   1.989 -1.7320  0.4066 -0.0082
  942MOL0     H27162   0.128   2.195   1.894  0.2230 -0.3451  0.5720
  942MOL0     H27163   0.071   2.030   1.923 -1.3362 -1.0692 -1.9499
  942MOL0     H27164   0.183   2.088   1.658  0.4158 -1.9223  1.4042
  942MOL0     H27165   0.061   1.966   1.699 -0.7261 -0.4979 -0.3032
  942MOL0     H27166  -0.136   2.352   1.605 -0.1084 -0.6730 -2.2909
  942MOL0     H27167   0.710   1.883   1.945  2.5592 -1.1647 -1.2222
  942MOL0     H27168   0.938   1.877   1.900 -1.3434  0.6971  1.1655
  942MOL0     H27169   1.007   1.939   1.750  0.7995  1.2461  0.7444
  942MOL0     H27170   0.997   2.042   1.887  4.7788 -3.0922 -0.5321
  943MOL0     O27171   0.783  11.215   9.930 -0.2908 -0.1895 -0.1211
  943MOL0     C27172   0.878  11.129   9.945  0.4588 -0.2019 -0.2140
  943MOL0     O27173   0.970  11.094   9.852 -0.4774  1.0127 -0.3368
  943MOL0     C27174   0.960  11.172   9.745 -0.0682  0.4499 -0.0088
  943MOL0     C27175   0.889  11.131   9.633  0.3402 -0.2486 -0.5995
  943MOL0     C27176   0.868  11.227   9.537  0.8508  0.4742  0.1198
  943MOL0     C27177   0.925  11.352   9.533  0.5867  0.5957 -0.6347
  943MOL0     O27178   0.877  11.442   9.445  0.1726 -0.2645 -0.4945
  943MOL0     C27179   0.882  11.584   9.476 -0.0878  0.3917 -0.4338
  943MOL0     C27180   0.788  11.649   9.580  0.8719  0.1149 -0.1316
  943MOL0     C27181   0.829  11.796   9.593 -0.1918  0.0354  0.3030
  943MOL0     C27182   0.904  11.818   9.719 -1.6012 -0.5990  0.0137
  943MOL0     C27183   0.905  11.969   9.745 -0.5420 -0.4567  0.7531
  943MOL0     C27184   0.978  12.014   9.880  0.6762 -0.2803  0.6418
  943MOL0     C27185   1.063  12.140   9.874 -0.5469  0.2544 -0.1157
  943MOL0     C27186   1.039  12.238   9.991 -0.7284  0.4390 -0.0988
  943MOL0     N27187   1.080  12.181  10.121  0.1043  0.0116  0.0390
  943MOL0     C27188   0.993  12.148  10.227 -1.2979 -0.2605  0.0227
  943MOL0     C27189   1.076  12.133  10.336  1.2810  1.0835  0.6949
  943MOL0     C27190   1.009  12.135  10.474  0.6385  0.6644 -0.8934
  943MOL0     C27191   1.098  12.204  10.572 -0.3636  0.5420 -0.2521
  943MOL0     C27192   1.102  12.349  10.532 -0.2878  0.6531 -0.3305
  943MOL0     C27193   1.197  12.430  10.623 -0.0253  1.0081  0.8344
  943MOL0     O27194   1.182  12.565  10.582 -0.3667  1.2332 -0.3031
  943MOL0     C27195   1.083  12.633  10.637  0.2678  0.1901  0.7731
  943MOL0     C27196   1.083  12.761  10.596  0.1424  0.0258  0.0461
  943MOL0     C27197   0.985  12.848  10.652  0.2454 -0.3173 -0.0857
  943MOL0     C27198   0.905  12.814  10.765  0.4019 -0.1124  0.4566
  943MOL0     C27199   0.824  12.911  10.838  0.4350  0.1493  0.0891
  943MOL0     O27200   0.753  12.862  10.948 -0.9118 -0.1615  0.1001
  943MOL0     C27201   0.672  12.932  11.018  0.2589 -0.7147 -0.0504
  943MOL0     C27202   0.537  12.941  10.984 -0.3565 -0.7718  0.4779
  943MOL0     C27203   0.449  12.988  11.070  1.3703  0.5942  1.1536
  943MOL0     C27204   0.480  13.021  11.193  0.7952  0.3780 -0.4141
  943MOL0     O27205   0.372  13.063  11.277 -0.0790 -0.4504 -0.1174
  943MOL0     C27206   0.394  13.098  11.412 -0.7658  0.3445  0.4509
  943MOL0     C27207   0.263  13.142  11.468  0.6043  0.4829  0.1709
  943MOL0     C27208   0.198  13.261  11.378  0.2875 -0.2629  0.8054
  943MOL0     C27209   0.074  13.314  11.454 -0.5108  0.9092 -0.9525
  943MOL0     C27210   0.003  13.422  11.367 -0.1261 -0.3874  0.3146
  943MOL0     C27211  -0.106  13.361  11.274 -0.0111  0.0247 -0.2527
  943MOL0     C27212  -0.232  13.320  11.352 -0.2945  0.8287  0.6220
  943MOL0     C27213  -0.348  13.284  11.257 -0.7965  1.1729  0.3237
  943MOL0    Cl27214  -0.497  13.317  11.357 -0.0856  0.2178 -0.0494
  943MOL0     C27215   0.618  13.018  11.233  0.5376 -0.6188  0.0133
  943MOL0     C27216   0.713  12.995  11.139  0.3692  0.4085 -0.5235
  943MOL0     O27217   0.821  13.030  10.794 -0.2452  0.5430  0.4919
  943MOL0     C27218   0.909  12.681  10.812  0.4016  0.8939 -0.5362
  943MOL0     C27219   0.994  12.593  10.738  0.2163 -0.0788 -0.3535
  943MOL0     N27220   1.207  12.149  10.297  1.0082  0.4706  1.0186
  943MOL0     N27221   1.208  12.186  10.171 -0.3429  0.1010 -0.0894
  943MOL0     C27222   1.009  11.388   9.643  0.4086  0.2506  0.5134
  943MOL0     C27223   1.030  11.295   9.743 -0.1697 -0.2809 -0.1717
  943MOL0     C27224   0.894  11.056  10.072 -0.0066 -0.4763 -0.5030
  943MOL0     C27225   0.939  10.926  10.078 -0.3768  0.6405  0.9007
  943MOL0     C27226   0.938  10.849  10.196 -0.1761  0.4342  0.0039
  943MOL0     C27227   0.903  10.903  10.310  0.8156  0.0014  0.0027
  943MOL0     O27228   0.902  10.826  10.428  0.2746  0.4947  0.2116
  943MOL0     C27229   0.985  10.706  10.449  0.7703  0.2468  0.5988
  943MOL0     C27230   0.967  10.681  10.603 -0.2069 -1.0652  0.4104
  943MOL0     C27231   0.813  10.668  10.615 -0.7470  0.3352 -0.4269
  943MOL0     C27232   0.760  10.591  10.743 -0.3594 -0.0508  0.4862
  943MOL0     C27233   0.839  10.473  10.764 -0.7789  0.1444 -0.4933
  943MOL0     C27234   0.898  10.365  10.788 -0.1295 -0.6217 -0.4947
  943MOL0     C27235   0.844  11.037  10.317 -0.7082  0.8263  0.4880
  943MOL0     C27236   0.848  11.113  10.194 -0.3166  0.0734  0.0769
  943MOL0     C27237   0.793  11.252  10.217  0.4317  0.0127 -0.6919
  943MOL0     H27238   0.837  11.037   9.648  1.9970 -0.9056  1.7337
  943MOL0     H27239   0.804  11.203   9.453 -3.3993 -2.5524  3.7108
  943MOL0     H27240   0.983  11.603   9.515 -0.4957 -0.3587  1.0477
  943MOL0     H27241   0.868  11.649   9.389  2.8594  2.0478  0.1825
  943MOL0     H27242   0.795  11.606   9.680 -0.2896  0.4167  0.1004
  943MOL0     H27243   0.688  11.643   9.535  0.1808  1.0794  1.2016
  943MOL0     H27244   0.734  11.848   9.611  0.2929  0.3552  2.1640
  943MOL0     H27245   0.866  11.837   9.499  0.9706  0.8531  1.0812
  943MOL0     H27246   0.856  11.767   9.803 -1.7821 -1.8605 -0.8344
  943MOL0     H27247   1.006  11.787   9.698 -1.3668  0.9757 -1.3300
  943MOL0     H27248   0.947  12.009   9.653 -3.1187 -2.5920 -1.5298
  943MOL0     H27249   0.804  12.011   9.751 -0.5508 -0.6061  1.8902
  943MOL0     H27250   0.893  12.044   9.942 -0.6319  1.6200 -1.9172
  943MOL0     H27251   1.034  11.930   9.923 -0.1004 -1.6486 -0.9214
  943MOL0     H27252   1.036  12.192   9.781 -0.5638  1.3258  0.4733
  943MOL0     H27253   1.167  12.108   9.871 -0.6932 -0.3929 -3.9329
  943MOL0     H27254   1.082  12.337   9.974 -0.6546  0.4998  0.4044
  943MOL0     H27255   0.932  12.257  10.003 -0.9604 -2.2014  4.2798
  943MOL0     H27256   0.888  12.119  10.224 -1.3551 -0.0292 -3.0496
  943MOL0     H27257   0.906  12.172  10.485 -0.3688 -2.2718  0.5172
  943MOL0     H27258   0.997  12.029  10.497  0.3388  0.7824 -0.4767
  943MOL0     H27259   1.050  12.191  10.669  0.6760 -1.5518  0.0181
  943MOL0     H27260   1.197  12.159  10.571 -0.7899 -0.4681 -2.6690
  943MOL0     H27261   0.997  12.379  10.544 -0.9398 -2.2495  2.9884
  943MOL0     H27262   1.137  12.361  10.429 -0.9964 -2.3739 -1.0237
  943MOL0     H27263   1.298  12.401  10.595 -0.4068 -1.2017  1.5293
  943MOL0     H27264   1.176  12.408  10.728  1.7176  2.1548  1.4652
  943MOL0     H27265   1.155  12.786  10.519 -0.3766  2.5672  0.2823
  943MOL0     H27266   0.974  12.948  10.612  2.0096 -0.0430  0.0144
  943MOL0     H27267   0.513  12.903  10.885 -2.2599  2.8047 -0.6116
  943MOL0     H27268   0.344  12.995  11.042  0.8260 -4.0516  1.2438
  943MOL0     H27269   0.443  13.011  11.456  0.5899  0.3197 -0.9954
  943MOL0     H27270   0.468  13.179  11.414 -1.5683  1.2624 -1.9568
  943MOL0     H27271   0.204  13.051  11.461  1.4347 -0.1112  0.7884
  943MOL0     H27272   0.281  13.174  11.571 -0.1598 -1.1008  0.8160
  943MOL0     H27273   0.268  13.344  11.366 -0.1333  0.2609  1.8080
  943MOL0     H27274   0.174  13.224  11.278  3.9037 -0.8133 -0.0171
  943MOL0     H27275   0.105  13.364  11.546 -2.0235 -0.9609  0.6753
  943MOL0     H27276   0.007  13.231  11.481 -0.2365  0.6575 -1.0474
  943MOL0     H27277   0.080  13.465  11.302 -1.1811  0.7885 -0.2058
  943MOL0     H27278  -0.038  13.510  11.418 -0.7780  0.6008 -1.8116
  943MOL0     H27279  -0.146  13.432  11.201 -0.0855 -2.0020 -2.3155
  943MOL0     H27280  -0.067  13.271  11.225 -0.2551 -0.4895  0.4738
  943MOL0     H27281  -0.252  13.411  11.409  2.0022  3.7221 -2.7535
  943MOL0     H27282  -0.223  13.228  11.410 -0.6239  0.2619 -0.2023
  943MOL0     H27283  -0.345  13.335  11.160  0.4060 -1.8277 -1.3807
  943MOL0     H27284  -0.345  13.178  11.229  2.4075  0.8607  1.5082
  943MOL0     H27285   0.637  13.043  11.337 -2.5284  2.7876  0.0061
  943MOL0     H27286   0.819  12.991  11.161  0.9309  1.5891 -2.6909
  943MOL0     H27287   0.858  12.638  10.897 -2.1337  0.1631 -2.3127
  943MOL0     H27288   0.993  12.491  10.777 -2.3031 -0.4240 -1.1148
  943MOL0     H27289   1.063  11.480   9.656  3.0625 -1.4262  2.3889
  943MOL0     H27290   1.080  11.313   9.838 -2.4130 -0.2430  1.0757
  943MOL0     H27291   0.979  10.872   9.994  2.9930  0.5296  2.3914
  943MOL0     H27292   0.966  10.744  10.190  0.9798  0.6325  1.3689
  943MOL0     H27293   1.089  10.718  10.419  0.5371  1.8420  0.3656
  943MOL0     H27294   0.953  10.621  10.388  1.8088  0.7764 -0.7405
  943MOL0     H27295   1.001  10.771  10.655 -0.6205 -1.1824  0.8942
  943MOL0     H27296   1.026  10.597  10.642  3.5849  2.9923  4.6656
  943MOL0     H27297   0.777  10.608  10.531  1.2624 -0.7878 -0.5653
  943MOL0     H27298   0.763  10.765  10.605  1.3831  1.7029  1.2529
  943MOL0     H27299   0.786  10.647  10.833  0.0214  0.0607  0.3070
  943MOL0     H27300   0.651  10.577  10.739 -0.4946  1.1356 -0.9281
  943MOL0     H27301   0.940  10.267  10.799  0.1596 -0.2425  2.4268
  943MOL0     H27302   0.815  11.085  10.410 -0.8762  2.4007 -0.3556
  943MOL0     H27303   0.829  11.288  10.314  0.4160 -1.8641  0.0401
  943MOL0     H27304   0.836  11.335  10.160  0.9531  0.4222  0.2622
  943MOL0     H27305   0.684  11.252  10.225  0.5367  0.8466  1.3694
  944MOL0     O27306   7.645  10.748   4.015  0.1028  0.2088 -0.0318
  944MOL0     C27307   7.666  10.756   4.134  0.0214 -0.1557 -0.8885
  944MOL0     O27308   7.769  10.685   4.204  0.2395 -0.0177  0.0190
  944MOL0     C27309   7.879  10.642   4.140  0.2971 -0.7754  0.5986
  944MOL0     C27310   7.952  10.731   4.052  0.2871 -0.9298 -0.0003
  944MOL0     C27311   8.076  10.691   4.003 -0.7955 -1.1876 -0.8333
  944MOL0     C27312   8.123  10.561   4.038 -0.7041 -0.3991 -0.4472
  944MOL0     O27313   8.244  10.529   3.973 -1.4196 -0.1230  0.0735
  944MOL0     C27314   8.279  10.391   3.951  0.3999 -0.2972 -0.3585
  944MOL0     C27315   8.194  10.334   3.842  0.5559 -0.3757 -0.4971
  944MOL0     C27316   8.203  10.394   3.700 -0.0576  0.5833  0.2874
  944MOL0     C27317   8.334  10.344   3.637  0.2380 -0.8123  0.1181
  944MOL0     C27318   8.367  10.402   3.499 -0.0213  0.0595 -0.1648
  944MOL0     C27319   8.506  10.364   3.455 -0.4244  0.2249 -0.6579
  944MOL0     C27320   8.558  10.473   3.363 -0.1112  0.2789  0.3954
  944MOL0     C27321   8.701  10.437   3.306  0.2987  0.1954 -0.7391
  944MOL0     N27322   8.748  10.538   3.221  0.7785 -0.3958 -0.8588
  944MOL0     C27323   8.793  10.664   3.265 -0.3568  0.4621 -0.4383
  944MOL0     C27324   8.801  10.743   3.154  0.5265  1.0037  0.2299
  944MOL0     C27325   8.837  10.884   3.144  0.2861  0.1336 -1.2111
  944MOL0     C27326   8.950  10.925   3.036  1.1768  0.4781  0.0696
  944MOL0     C27327   8.988  11.072   3.017 -0.1475 -0.0108  0.6952
  944MOL0     C27328   9.109  11.094   2.927 -0.4106  0.2962 -0.2266
  944MOL0     O27329   9.157  11.230   2.947  0.5977 -0.0533 -0.0557
  944MOL0     C27330   9.216  11.269   3.064  0.6196 -0.3064 -1.1136
  944MOL0     C27331   9.276  11.180   3.163 -0.0191 -0.1695  0.5171
  944MOL0     C27332   9.319  11.230   3.284 -0.2897  0.7179  0.1191
  944MOL0     C27333   9.296  11.367   3.320  0.4274 -0.0338 -0.7614
  944MOL0     C27334   9.358  11.416   3.443 -0.6430  0.0032 -0.6023
  944MOL0     O27335   9.320  11.542   3.481  0.1725  0.4690  0.2300
  944MOL0     C27336   9.357  11.592   3.615  0.5153  0.3660  0.2626
  944MOL0     C27337   9.473  11.557   3.686 -0.5417 -0.0410  0.5552
  944MOL0     C27338   9.503  11.627   3.803  0.5436 -0.4389 -1.1023
  944MOL0     C27339   9.415  11.735   3.847 -0.2888  0.0215  0.6565
  944MOL0     O27340   9.445  11.826   3.949  0.0163  0.7876 -0.1658
  944MOL0     C27341   9.532  11.759   4.047 -0.5664 -0.1978  0.0664
  944MOL0     C27342   9.528  11.847   4.164 -0.0352 -0.7612 -0.7676
  944MOL0     C27343   9.634  11.819   4.273  0.6197 -0.5883 -0.5475
  944MOL0     C27344   9.620  11.930   4.384 -0.3499 -0.6030 -0.5580
  944MOL0     C27345   9.679  11.901   4.510  0.3809 -0.2578 -0.0628
  944MOL0     C27346   9.604  11.788   4.577 -1.0570  1.0765 -0.0908
  944MOL0     C27347   9.662  11.780   4.717  0.5024 -0.4180 -0.1083
  944MOL0     C27348   9.564  11.729   4.827  0.4370 -0.0581  0.0007
  944MOL0    Cl27349   9.477  11.578   4.776  0.1907 -0.0362 -0.5748
  944MOL0     C27350   9.298  11.769   3.779  0.3499 -0.1688 -0.5234
  944MOL0     C27351   9.261  11.691   3.665 -0.7217  0.1459  1.0499
  944MOL0     O27352   9.412  11.336   3.525 -0.0485 -1.0566  0.3328
  944MOL0     C27353   9.234  11.447   3.235 -0.2560 -0.2699  0.0087
  944MOL0     C27354   9.201  11.406   3.111  1.4845  0.0872 -0.5031
  944MOL0     N27355   8.768  10.663   3.046 -0.2241  0.1967 -0.3511
  944MOL0     N27356   8.731  10.541   3.086  0.0334 -0.2614  0.6300
  944MOL0     C27357   8.050  10.480   4.123 -0.7689 -0.9238 -0.1102
  944MOL0     C27358   7.932  10.519   4.176 -0.4294 -0.6629  0.4294
  944MOL0     C27359   7.577  10.844   4.221  0.3909 -0.3294  0.3829
  944MOL0     C27360   7.563  10.811   4.351 -0.2449  1.2511 -0.0727
  944MOL0     C27361   7.484  10.879   4.446  0.5513 -0.2104  0.2341
  944MOL0     C27362   7.421  10.994   4.405  1.0536 -0.3152 -0.6230
  944MOL0     O27363   7.351  11.074   4.499  0.2222  0.6426  1.0298
  944MOL0     C27364   7.205  11.072   4.500  0.5560  0.0470  0.7177
  944MOL0     C27365   7.161  10.983   4.608  1.0283  1.9046  0.5127
  944MOL0     C27366   7.211  11.030   4.745  0.2371  0.0450  1.6161
  944MOL0     C27367   7.182  10.925   4.852  0.3203 -0.7124 -0.2438
  944MOL0     C27368   7.241  10.952   4.987  0.1821 -0.1498  0.6088
  944MOL0     C27369   7.285  10.976   5.098 -0.5276 -0.3243 -0.4760
  944MOL0     C27370   7.430  11.026   4.268 -0.4534  0.2632 -0.6691
  944MOL0     C27371   7.503  10.957   4.168 -0.7057  0.0970  0.1609
  944MOL0     C27372   7.485  10.992   4.019 -1.1822  0.0891  0.1349
  944MOL0     H27373   7.907  10.828   4.038  0.0860 -0.8373  1.2080
  944MOL0     H27374   8.146  10.758   3.955  0.1945  0.7903  2.9823
  944MOL0     H27375   8.382  10.386   3.915  0.2700 -2.3538 -0.5339
  944MOL0     H27376   8.264  10.343   4.049 -2.0410 -1.6390 -1.3073
  944MOL0     H27377   8.095  10.346   3.886  1.5934 -2.6936  2.9348
  944MOL0     H27378   8.205  10.226   3.828  0.0751 -1.0836  3.4791
  944MOL0     H27379   8.188  10.502   3.705 -0.7037  0.6151 -1.4839
  944MOL0     H27380   8.133  10.350   3.629  1.4337  0.9035 -1.4614
  944MOL0     H27381   8.413  10.385   3.702  1.0517  2.7488 -2.7921
  944MOL0     H27382   8.325  10.236   3.633 -2.0453 -0.6754  0.6025
  944MOL0     H27383   8.285  10.374   3.432 -2.3500  2.4453  1.5121
  944MOL0     H27384   8.359  10.511   3.501  1.4368  0.2181  2.8188
  944MOL0     H27385   8.570  10.358   3.544 -0.7356 -2.2723 -0.5419
  944MOL0     H27386   8.508  10.263   3.413  1.0089  0.9503 -2.4626
  944MOL0     H27387   8.558  10.570   3.414 -1.0720 -0.0652  1.0780
  944MOL0     H27388   8.486  10.490   3.282 -1.6211 -2.5104  1.0309
  944MOL0     H27389   8.766  10.415   3.392  0.8199 -1.0573 -1.4300
  944MOL0     H27390   8.697  10.346   3.245 -1.5810  1.5549 -2.7958
  944MOL0     H27391   8.834  10.695   3.361 -1.9368 -1.3700  0.9113
  944MOL0     H27392   8.748  10.947   3.133  0.5382  0.5006 -1.1876
  944MOL0     H27393   8.881  10.905   3.242 -1.8265  1.5049 -0.4813
  944MOL0     H27394   9.044  10.874   3.057  0.5593 -2.0651 -2.5468
  944MOL0     H27395   8.916  10.883   2.940 -2.6298  2.6858  0.2483
  944MOL0     H27396   9.002  11.115   3.117 -0.4559  1.4174  0.1584
  944MOL0     H27397   8.905  11.134   2.979  1.1599  2.2357  1.3101
  944MOL0     H27398   9.097  11.062   2.823 -0.8829  0.3326 -0.1857
  944MOL0     H27399   9.181  11.027   2.974  2.7386  2.2130 -1.9505
  944MOL0     H27400   9.308  11.083   3.124 -0.9250  0.1255 -1.0789
  944MOL0     H27401   9.380  11.167   3.348 -0.5316  1.8545  1.5118
  944MOL0     H27402   9.547  11.489   3.647 -2.9338 -3.4184  1.4996
  944MOL0     H27403   9.597  11.608   3.854  2.5785  2.0017 -3.6102
  944MOL0     H27404   9.500  11.657   4.069  2.8413 -1.7559 -1.3515
  944MOL0     H27405   9.631  11.754   4.000 -2.0550  0.9250 -3.5331
  944MOL0     H27406   9.542  11.950   4.133  1.0410  0.5923  3.4865
  944MOL0     H27407   9.426  11.845   4.204 -0.2027 -0.0282 -1.1424
  944MOL0     H27408   9.599  11.723   4.311  1.4867  0.1013  2.2395
  944MOL0     H27409   9.740  11.816   4.245  0.4637  0.8101 -1.3872
  944MOL0     H27410   9.513  11.946   4.400 -0.7427 -0.9956 -2.5786
  944MOL0     H27411   9.662  12.025   4.351  0.7294 -0.3832  1.3085
  944MOL0     H27412   9.670  11.985   4.580  2.2871 -2.0702  2.5657
  944MOL0     H27413   9.785  11.877   4.496  0.2082 -2.1281  1.3881
  944MOL0     H27414   9.498  11.814   4.584 -0.9321  1.1910  3.8379
  944MOL0     H27415   9.614  11.696   4.518 -0.3032  1.0543  0.0591
  944MOL0     H27416   9.710  11.868   4.761 -0.3133 -1.5038  3.2814
  944MOL0     H27417   9.751  11.717   4.720  0.9743  0.2906  1.0936
  944MOL0     H27418   9.615  11.708   4.921 -1.5984 -1.2998  0.9001
  944MOL0     H27419   9.501  11.814   4.855  1.6922  1.5189 -1.7140
  944MOL0     H27420   9.246  11.861   3.804  1.1461  0.4098 -0.9544
  944MOL0     H27421   9.188  11.711   3.587 -0.0161  0.5374  0.4750
  944MOL0     H27422   9.218  11.553   3.252 -2.1371 -0.1227 -2.1516
  944MOL0     H27423   9.158  11.481   3.045 -1.0808  0.4781  1.4551
  944MOL0     H27424   8.102  10.390   4.154  1.6632  0.7604  0.9812
  944MOL0     H27425   7.888  10.444   4.241 -0.5231 -1.3917 -0.4509
  944MOL0     H27426   7.611  10.719   4.385  1.1878  1.1289 -2.2377
  944MOL0     H27427   7.504  10.841   4.546  0.9869  0.7652  0.5296
  944MOL0     H27428   7.166  11.049   4.401 -0.6006  2.7724  0.4708
  944MOL0     H27429   7.171  11.174   4.517  0.1509  0.1304 -0.5149
  944MOL0     H27430   7.207  10.888   4.580 -0.7418  0.6765  1.6193
  944MOL0     H27431   7.053  10.983   4.595  0.8898 -1.5116  0.8884
  944MOL0     H27432   7.156  11.122   4.766 -3.2083 -0.7128 -2.6597
  944MOL0     H27433   7.319  11.047   4.754  0.0364  0.5037  3.5819
  944MOL0     H27434   7.076  10.915   4.878  0.1681  2.2681  0.6794
  944MOL0     H27435   7.214  10.825   4.821 -1.6660 -1.1151 -1.1225
  944MOL0     H27436   7.328  11.017   5.187 -0.7294  1.1203 -1.0171
  944MOL0     H27437   7.388  11.113   4.218 -0.5759  0.6342  0.0646
  944MOL0     H27438   7.409  11.069   4.003 -2.6769 -1.3336  0.1306
  944MOL0     H27439   7.578  11.031   3.975 -2.4851  0.6609 -2.2980
  944MOL0     H27440   7.463  10.899   3.966  1.6587 -1.4774  1.4960
  945MOL0     O27441   6.191   6.808  10.781 -0.1429 -0.4865  0.0379
  945MOL0     C27442   6.140   6.695  10.790 -0.1013 -0.2485  0.1983
  945MOL0     O27443   6.162   6.598  10.702 -0.0637  0.0142 -0.1728
  945MOL0     C27444   6.252   6.603  10.595 -0.3522 -0.0704 -0.9012
  945MOL0     C27445   6.255   6.493  10.510  0.4839 -0.1911  0.1146
  945MOL0     C27446   6.352   6.479  10.418  0.1201 -0.2288  0.2722
  945MOL0     C27447   6.457   6.573  10.398 -0.5974  0.1292  0.0537
  945MOL0     O27448   6.559   6.562  10.308 -0.1776 -0.1992 -0.5514
  945MOL0     C27449   6.553   6.470  10.199 -0.0737  0.4055  0.1398
  945MOL0     C27450   6.648   6.525  10.095 -0.6240  0.0722  0.0947
  945MOL0     C27451   6.624   6.663  10.049  0.5730 -0.1971 -0.4075
  945MOL0     C27452   6.728   6.727   9.962  0.8268 -0.3567 -0.4897
  945MOL0     C27453   6.741   6.646   9.827  0.1096 -0.9495 -0.3790
  945MOL0     C27454   6.629   6.689   9.725 -0.9676 -0.8406 -0.4941
  945MOL0     C27455   6.676   6.821   9.657 -0.5379  0.3743 -0.4130
  945MOL0     C27456   6.587   6.834   9.538 -0.5712 -0.8075 -0.2009
  945MOL0     N27457   6.592   6.962   9.462 -0.4832  0.0756 -0.0426
  945MOL0     C27458   6.592   7.088   9.519 -0.3426 -0.0605  0.8793
  945MOL0     C27459   6.642   7.171   9.419 -0.0136  0.4843  0.4347
  945MOL0     C27460   6.660   7.320   9.427  0.5637 -0.1678 -0.0180
  945MOL0     C27461   6.798   7.377   9.467 -0.0350 -0.0445  0.3322
  945MOL0     C27462   6.839   7.325   9.603 -0.8352 -0.1318 -0.3611
  945MOL0     C27463   6.970   7.398   9.645  0.4191  0.5579 -0.3435
  945MOL0     O27464   6.997   7.355   9.782  0.9730 -0.0074  0.2496
  945MOL0     C27465   7.102   7.421   9.844 -0.4517  0.3783  0.0715
  945MOL0     C27466   7.120   7.399   9.977  0.2803 -0.8650  0.5866
  945MOL0     C27467   7.215   7.464  10.053 -0.4683  0.1014 -0.0086
  945MOL0     C27468   7.308   7.549  10.004 -0.3916 -0.5089  0.1284
  945MOL0     C27469   7.411   7.605  10.081 -1.2505 -0.0975 -0.4118
  945MOL0     O27470   7.435   7.550  10.207  0.2155  0.5142 -0.1938
  945MOL0     C27471   7.546   7.592  10.275 -0.1393 -0.3247 -0.2952
  945MOL0     C27472   7.675   7.611  10.216  0.6522  1.0772 -0.2625
  945MOL0     C27473   7.787   7.636  10.302  0.0078  0.4087 -0.9191
  945MOL0     C27474   7.767   7.650  10.447 -0.0703  0.1049  0.4689
  945MOL0     O27475   7.878   7.671  10.527  0.7011  0.3393 -0.1638
  945MOL0     C27476   7.876   7.765  10.638  0.5355  0.1413  0.5882
  945MOL0     C27477   8.025   7.792  10.671  0.2374 -0.5700  0.2782
  945MOL0     C27478   8.094   7.884  10.568 -0.0520 -0.5510  0.0599
  945MOL0     C27479   8.209   7.956  10.635  0.3612  0.4639  0.2543
  945MOL0     C27480   8.261   8.071  10.546  0.4574 -0.7999  0.4323
  945MOL0     C27481   8.334   8.176  10.622 -0.1763 -0.1732  0.6294
  945MOL0     C27482   8.358   8.313  10.554 -0.2168 -0.1608  0.0731
  945MOL0     C27483   8.450   8.417  10.612 -0.0252 -0.1959  0.2009
  945MOL0    Cl27484   8.375   8.451  10.783  0.2283 -0.2583  0.3971
  945MOL0     C27485   7.640   7.626  10.496  1.3106  0.3735  1.1785
  945MOL0     C27486   7.533   7.604  10.414 -0.1415  0.7202 -0.0982
  945MOL0     O27487   7.482   7.690  10.028 -0.0414  0.0928 -0.4628
  945MOL0     C27488   7.294   7.573   9.864 -0.2038 -0.3215 -0.3452
  945MOL0     C27489   7.207   7.496   9.787  0.5383  0.1408 -0.0263
  945MOL0     N27490   6.675   7.089   9.312 -0.0278 -0.2857 -0.0724
  945MOL0     N27491   6.653   6.972   9.331 -0.1438 -0.5151 -0.8810
  945MOL0     C27492   6.466   6.673  10.497 -0.8891  0.7023  0.1816
  945MOL0     C27493   6.361   6.691  10.588  0.1930 -0.1125  0.2961
  945MOL0     C27494   6.057   6.674  10.911  0.2567  0.2353  0.2437
  945MOL0     C27495   6.032   6.533  10.937  0.6505  0.8842 -0.9087
  945MOL0     C27496   5.962   6.495  11.054  0.3817  0.1691 -1.2909
  945MOL0     C27497   5.910   6.587  11.145  0.1310 -1.2627 -0.2953
  945MOL0     O27498   5.830   6.562  11.255 -0.8184 -0.4253  0.7954
  945MOL0     C27499   5.805   6.426  11.279  0.4878 -0.3846 -0.7732
  945MOL0     C27500   5.705   6.419  11.398 -0.1561  0.2453 -1.2745
  945MOL0     C27501   5.714   6.299  11.492  1.0371 -1.2157  0.8297
  945MOL0     C27502   5.642   6.324  11.631  1.3751  0.2202  0.4898
  945MOL0     C27503   5.590   6.197  11.680 -0.8322  0.0806  0.5870
  945MOL0     C27504   5.574   6.082  11.722  0.2546 -0.3887 -0.3092
  945MOL0     C27505   5.929   6.721  11.112  0.6150  0.5524 -0.3867
  945MOL0     C27506   6.011   6.772  11.000  0.8765  0.3581 -1.4711
  945MOL0     C27507   6.037   6.919  11.014 -0.8888 -0.1518 -0.9497
  945MOL0     H27508   6.174   6.421  10.514  0.2881  0.0079 -0.2695
  945MOL0     H27509   6.350   6.390  10.356  1.6397 -0.1336  0.0653
  945MOL0     H27510   6.588   6.373  10.237 -2.4748 -0.3961  0.4588
  945MOL0     H27511   6.450   6.453  10.165  0.2451  1.4084 -1.3997
  945MOL0     H27512   6.632   6.457  10.010  0.4113 -1.5371  1.1349
  945MOL0     H27513   6.747   6.504  10.135 -0.8599 -1.1166  0.1040
  945MOL0     H27514   6.617   6.721  10.141 -2.2751 -0.1207 -0.5701
  945MOL0     H27515   6.529   6.674   9.995 -0.4333  3.2355  1.7682
  945MOL0     H27516   6.709   6.830   9.930 -0.4059 -0.5948 -0.5784
  945MOL0     H27517   6.826   6.725  10.011  0.6270 -1.5601 -0.1069
  945MOL0     H27518   6.836   6.689   9.792 -0.5637  1.3525  0.4466
  945MOL0     H27519   6.762   6.539   9.820 -1.6596 -1.4280  0.9072
  945MOL0     H27520   6.614   6.604   9.657 -1.1750 -0.6378 -0.7040
  945MOL0     H27521   6.541   6.712   9.787  1.1368 -0.5718  2.5910
  945MOL0     H27522   6.771   6.819   9.604 -0.7532  2.9159 -1.0170
  945MOL0     H27523   6.670   6.904   9.728  5.6136  0.7690  0.1185
  945MOL0     H27524   6.614   6.759   9.463 -0.9658 -0.0838 -1.0813
  945MOL0     H27525   6.481   6.823   9.562 -1.5371 -0.9669 -3.9987
  945MOL0     H27526   6.554   7.106   9.619 -1.6135 -1.5785  0.7124
  945MOL0     H27527   6.630   7.370   9.335  0.2403 -0.7765 -0.2479
  945MOL0     H27528   6.583   7.341   9.502  1.0436 -0.7013  0.6452
  945MOL0     H27529   6.866   7.339   9.391  0.1397  1.9257 -0.5701
  945MOL0     H27530   6.798   7.487   9.463  0.1612 -0.0484 -3.3278
  945MOL0     H27531   6.860   7.219   9.589  1.6545 -0.0999  2.3286
  945MOL0     H27532   6.758   7.343   9.674 -1.3321 -0.1025 -0.9274
  945MOL0     H27533   6.971   7.507   9.641  1.8247  0.5499 -0.7968
  945MOL0     H27534   7.061   7.375   9.590 -1.4357 -1.4447 -2.8671
  945MOL0     H27535   7.035   7.347  10.022 -1.6119  0.6420 -1.0581
  945MOL0     H27536   7.208   7.441  10.159  2.7550 -1.1773  0.0208
  945MOL0     H27537   7.693   7.619  10.109 -0.7956  1.9330 -0.4577
  945MOL0     H27538   7.882   7.664  10.259  0.5062 -2.3887 -1.8712
  945MOL0     H27539   7.829   7.858  10.605  0.4211 -0.2940 -0.5189
  945MOL0     H27540   7.830   7.721  10.728 -2.5166  0.9582 -0.4420
  945MOL0     H27541   8.019   7.832  10.773 -2.0537  0.1421 -0.0692
  945MOL0     H27542   8.083   7.699  10.664  1.8310  0.3609  0.5183
  945MOL0     H27543   8.123   7.834  10.475  0.7695 -0.7993  0.4387
  945MOL0     H27544   8.023   7.962  10.542  1.5842  1.0925  0.2981
  945MOL0     H27545   8.283   7.876  10.646 -1.6566 -1.4743  0.5636
  945MOL0     H27546   8.169   7.990  10.731 -3.3167 -0.2229 -0.8722
  945MOL0     H27547   8.182   8.116  10.485 -0.1711 -0.9052  1.1527
  945MOL0     H27548   8.329   8.015  10.481 -1.7590 -2.7310 -0.4068
  945MOL0     H27549   8.289   8.194  10.721 -0.7979 -0.4678  0.4062
  945MOL0     H27550   8.429   8.127  10.643 -0.3841 -0.4463  0.9605
  945MOL0     H27551   8.263   8.361  10.530 -1.1227 -1.0295  1.7556
  945MOL0     H27552   8.398   8.292  10.454  2.3725  0.0327  0.9847
  945MOL0     H27553   8.548   8.370  10.620 -0.5097 -1.1436  0.9554
  945MOL0     H27554   8.456   8.509  10.554  3.3166 -0.9867 -0.8996
  945MOL0     H27555   7.621   7.632  10.603  1.2597 -1.6878  1.3304
  945MOL0     H27556   7.432   7.594  10.452 -2.1362 -2.6380 -5.2352
  945MOL0     H27557   7.364   7.638   9.813 -1.0478  1.0707  0.2001
  945MOL0     H27558   7.217   7.504   9.679 -2.4169 -2.0891 -0.5873
  945MOL0     H27559   6.555   6.736  10.490  2.2400 -3.1251  1.6108
  945MOL0     H27560   6.364   6.784  10.645  1.2521  0.1504 -0.1741
  945MOL0     H27561   6.066   6.448  10.878  1.1185  0.7348 -0.4323
  945MOL0     H27562   5.952   6.392  11.085  1.6023  0.0297 -1.2837
  945MOL0     H27563   5.897   6.374  11.307  0.3045 -1.6993 -2.4719
  945MOL0     H27564   5.771   6.375  11.188 -0.4078  0.4699 -0.9296
  945MOL0     H27565   5.604   6.437  11.360  0.2020  0.9531 -1.9153
  945MOL0     H27566   5.722   6.505  11.463  1.1543  0.7887 -2.2902
  945MOL0     H27567   5.816   6.265  11.514  1.1511 -1.9185 -0.6806
  945MOL0     H27568   5.665   6.219  11.437  0.6135 -0.0413 -0.5621
  945MOL0     H27569   5.719   6.364  11.698  0.3877  2.9245  0.1587
  945MOL0     H27570   5.556   6.390  11.619  0.7951 -0.6591 -0.3073
  945MOL0     H27571   5.568   5.984  11.764 -0.8537  0.1286  0.8276
  945MOL0     H27572   5.881   6.795  11.176 -1.6163  0.6774 -2.0677
  945MOL0     H27573   6.005   6.969  11.106  4.7762  0.1031  1.3033
  945MOL0     H27574   6.145   6.927  11.026 -0.9034  2.1650 -1.8159
  945MOL0     H27575   6.001   6.979  10.931 -1.5564  1.4279  0.4123
  946MOL0     O27576   5.357   0.789   5.769  0.2111 -1.2484 -0.1451
  946MOL0     C27577   5.237   0.809   5.802 -0.4325 -0.6564 -0.0709
  946MOL0     O27578   5.186   0.930   5.853 -0.6881 -0.2530  0.1671
  946MOL0     C27579   5.267   1.038   5.894 -0.9819 -0.5831  0.2189
  946MOL0     C27580   5.193   1.140   5.943  0.2841 -0.1589 -0.3944
  946MOL0     C27581   5.258   1.262   6.002  0.5367  0.0362  0.1555
  946MOL0     C27582   5.398   1.268   6.003  0.0192  0.1786  1.2356
  946MOL0     O27583   5.459   1.373   6.075 -0.0783 -0.1009  0.4204
  946MOL0     C27584   5.586   1.420   6.024  0.7631 -1.0805 -0.4159
  946MOL0     C27585   5.626   1.562   6.072 -0.4443  0.0421 -1.0316
  946MOL0     C27586   5.752   1.623   6.005 -0.2454  0.2672  0.5880
  946MOL0     C27587   5.801   1.751   6.075 -0.2974  0.2591  0.2169
  946MOL0     C27588   5.842   1.756   6.225 -0.2164  0.4709  0.4234
  946MOL0     C27589   5.980   1.683   6.240 -0.0306  0.1053 -0.7735
  946MOL0     C27590   6.051   1.726   6.364  1.0377 -0.1594  0.6379
  946MOL0     C27591   6.185   1.653   6.374 -0.2358  0.0990  0.0336
  946MOL0     N27592   6.288   1.690   6.272  0.0219 -0.1399 -0.0226
  946MOL0     C27593   6.374   1.800   6.290  0.6254  0.4887  1.1456
  946MOL0     C27594   6.466   1.784   6.187  0.1854  0.1001 -0.6835
  946MOL0     C27595   6.588   1.871   6.166 -0.9739  0.5958 -0.4504
  946MOL0     C27596   6.629   1.962   6.282  0.5230  1.1572  0.2597
  946MOL0     C27597   6.588   2.112   6.255 -0.0938  0.0128  0.2884
  946MOL0     C27598   6.449   2.150   6.213 -0.0843 -0.5039 -0.6968
  946MOL0     O27599   6.351   2.105   6.313 -0.0660 -0.0373 -0.2673
  946MOL0     C27600   6.221   2.100   6.288  0.6985  0.0181 -0.0453
  946MOL0     C27601   6.169   2.087   6.156 -0.6230  0.2299 -0.9706
  946MOL0     C27602   6.029   2.102   6.135  0.0010  0.1390  0.1426
  946MOL0     C27603   5.935   2.125   6.235 -0.1408  0.8632 -1.1089
  946MOL0     C27604   5.788   2.132   6.209  0.9375 -0.0792  0.2539
  946MOL0     O27605   5.710   2.158   6.315 -1.1233  0.3229 -0.1842
  946MOL0     C27606   5.569   2.151   6.299  0.2596  0.0328  0.3514
  946MOL0     C27607   5.514   2.029   6.266  0.8169 -0.2391  0.0940
  946MOL0     C27608   5.375   2.005   6.273  1.1911  0.6794  0.3112
  946MOL0     C27609   5.298   2.110   6.333  0.4504  0.1119  0.2739
  946MOL0     O27610   5.164   2.101   6.342 -0.6769  0.6334  0.4236
  946MOL0     C27611   5.096   1.986   6.313 -0.4582  0.3559 -0.3316
  946MOL0     C27612   4.953   2.029   6.326 -0.0562  0.6337  0.9128
  946MOL0     C27613   4.866   1.899   6.315  0.7007 -0.6905 -0.2965
  946MOL0     C27614   4.716   1.928   6.345 -0.3409  0.0784 -0.8935
  946MOL0     C27615   4.659   1.789   6.387 -0.4743  0.1103  0.1314
  946MOL0     C27616   4.509   1.792   6.391  0.3905  0.0536 -0.3294
  946MOL0     C27617   4.452   1.660   6.435 -0.7012 -0.7643  0.3288
  946MOL0     C27618   4.316   1.678   6.504 -0.4933  0.3665  0.9929
  946MOL0    Cl27619   4.211   1.735   6.380 -0.5150 -0.1347 -0.7473
  946MOL0     C27620   5.351   2.232   6.368 -0.3841  0.8192 -0.3490
  946MOL0     C27621   5.492   2.253   6.354 -0.5735 -0.0608  1.1410
  946MOL0     O27622   5.742   2.084   6.104  0.7836 -0.0555 -0.4881
  946MOL0     C27623   5.986   2.126   6.364 -0.2361  0.4438  0.2159
  946MOL0     C27624   6.124   2.113   6.390 -0.5649 -0.1741 -0.0395
  946MOL0     N27625   6.438   1.667   6.117 -0.0195 -0.6143 -0.8475
  946MOL0     N27626   6.335   1.615   6.171  0.8767 -0.0854  0.2860
  946MOL0     C27627   5.469   1.163   5.934  0.0585  0.0321 -0.8864
  946MOL0     C27628   5.402   1.054   5.884 -0.8321 -0.2933  0.0159
  946MOL0     C27629   5.138   0.705   5.766 -0.2896  0.4255 -0.6930
  946MOL0     C27630   5.027   0.753   5.701 -0.1969  0.7639 -0.1537
  946MOL0     C27631   4.925   0.666   5.675 -0.6306 -0.3366  0.1958
  946MOL0     C27632   4.926   0.534   5.717 -0.1016 -0.0717  1.6105
  946MOL0     O27633   4.833   0.441   5.674  0.0094  0.1200  0.7195
  946MOL0     C27634   4.711   0.472   5.604  0.3915 -0.5424  0.0893
  946MOL0     C27635   4.734   0.463   5.450 -0.3856 -0.1053  0.0695
  946MOL0     C27636   4.817   0.338   5.417 -0.4736 -0.1835  0.3749
  946MOL0     C27637   4.810   0.315   5.269 -0.4930  0.4748  1.0208
  946MOL0     C27638   4.876   0.198   5.203 -0.6099 -0.0095 -0.2737
  946MOL0     C27639   4.919   0.112   5.121  0.3583  0.2922  0.2995
  946MOL0     C27640   5.037   0.490   5.775 -0.1730  0.3289  0.1289
  946MOL0     C27641   5.146   0.571   5.803 -0.5723  0.0552 -0.5821
  946MOL0     C27642   5.268   0.519   5.880  0.0015  0.6640 -0.2485
  946MOL0     H27643   5.085   1.131   5.934 -0.1640  3.0579  0.6128
  946MOL0     H27644   5.198   1.348   6.030 -0.0747 -0.8123  1.5698
  946MOL0     H27645   5.670   1.350   6.024  0.6026 -1.2962 -2.1495
  946MOL0     H27646   5.563   1.435   5.919  1.3434 -1.2331 -0.5663
  946MOL0     H27647   5.646   1.553   6.179  0.1061  0.4029 -1.0988
  946MOL0     H27648   5.533   1.615   6.049 -1.8104 -3.2381 -3.8784
  946MOL0     H27649   5.734   1.649   5.901 -1.7158  1.2917  1.0602
  946MOL0     H27650   5.821   1.538   6.014  0.5838  0.7041 -1.3382
  946MOL0     H27651   5.880   1.798   6.015 -0.3005  0.3911  0.3155
  946MOL0     H27652   5.712   1.814   6.085 -0.9876 -0.5125 -0.8074
  946MOL0     H27653   5.858   1.859   6.262 -1.4819  1.3654 -1.4022
  946MOL0     H27654   5.763   1.712   6.286 -2.0257  1.3115 -1.2215
  946MOL0     H27655   5.947   1.580   6.258 -1.9058  0.8106  0.0644
  946MOL0     H27656   6.046   1.688   6.153  0.9226  1.6845 -0.0001
  946MOL0     H27657   5.989   1.691   6.447 -1.0484  1.2769 -0.2423
  946MOL0     H27658   6.059   1.834   6.356 -0.7015 -0.1159 -0.9942
  946MOL0     H27659   6.235   1.666   6.470  0.3468 -0.0378 -0.2449
  946MOL0     H27660   6.167   1.546   6.362  1.6824 -0.1626 -0.9953
  946MOL0     H27661   6.358   1.882   6.359 -1.3876  2.5851 -1.5744
  946MOL0     H27662   6.670   1.805   6.138 -1.1823  1.0084 -2.1426
  946MOL0     H27663   6.568   1.929   6.075 -0.2819 -2.9731 -3.0869
  946MOL0     H27664   6.587   1.933   6.378  3.8595 -2.5799  0.8461
  946MOL0     H27665   6.738   1.963   6.282  0.6306 -1.5820 -0.9204
  946MOL0     H27666   6.649   2.157   6.177 -1.3159  2.8076  0.8479
  946MOL0     H27667   6.612   2.175   6.341  2.4191  0.4095 -0.6062
  946MOL0     H27668   6.438   2.102   6.115 -0.5793 -2.3485  0.2066
  946MOL0     H27669   6.430   2.257   6.208 -1.2636 -0.5895  0.9364
  946MOL0     H27670   6.234   2.062   6.073 -1.0956 -1.3395 -0.9161
  946MOL0     H27671   5.993   2.086   6.034 -0.1742  0.9997  0.0584
  946MOL0     H27672   5.576   1.944   6.240 -0.1415 -1.1960  0.8314
  946MOL0     H27673   5.314   1.923   6.237  0.5170  1.7288 -1.0429
  946MOL0     H27674   5.116   1.960   6.209  1.9602 -0.7392  0.3608
  946MOL0     H27675   5.110   1.900   6.378 -1.3205 -1.1314 -2.0313
  946MOL0     H27676   4.941   2.074   6.425 -1.8703 -0.4650  1.2319
  946MOL0     H27677   4.935   2.103   6.248  1.4295  0.8468  0.7294
  946MOL0     H27678   4.872   1.857   6.214  0.5910 -0.0239 -0.5825
  946MOL0     H27679   4.905   1.815   6.373  1.7158  0.0282  0.1026
  946MOL0     H27680   4.663   1.972   6.260 -1.6208  0.0199 -0.1457
  946MOL0     H27681   4.717   1.989   6.436  1.3130  1.5554 -1.8266
  946MOL0     H27682   4.693   1.769   6.489 -3.2196  0.1048  1.1113
  946MOL0     H27683   4.694   1.707   6.322  0.2411 -0.7981  1.6047
  946MOL0     H27684   4.469   1.862   6.464 -1.1810 -1.6827  0.5357
  946MOL0     H27685   4.479   1.825   6.291 -1.6773 -1.9046 -0.4423
  946MOL0     H27686   4.522   1.618   6.508  2.1396  1.9024 -0.6196
  946MOL0     H27687   4.435   1.597   6.348  1.2307 -0.9901  0.0743
  946MOL0     H27688   4.283   1.582   6.545  1.6626 -0.3929  1.0823
  946MOL0     H27689   4.319   1.751   6.585  2.8072  0.7047  0.7263
  946MOL0     H27690   5.279   2.308   6.396 -1.6248  0.0047 -1.2240
  946MOL0     H27691   5.524   2.352   6.387 -0.8754  1.0375 -1.5822
  946MOL0     H27692   5.924   2.137   6.452  0.3628 -1.9218  1.0198
  946MOL0     H27693   6.155   2.120   6.494  2.1694 -1.1855 -0.7206
  946MOL0     H27694   5.577   1.161   5.944 -0.0417  0.3648  0.4050
  946MOL0     H27695   5.459   0.963   5.865 -0.7102 -0.0465 -0.8240
  946MOL0     H27696   5.018   0.859   5.677  0.2482  0.4085 -2.0254
  946MOL0     H27697   4.848   0.717   5.619 -2.2422 -2.5289  0.2700
  946MOL0     H27698   4.673   0.570   5.633  0.8594 -0.9993  2.5106
  946MOL0     H27699   4.637   0.395   5.629  2.0869 -1.4579  2.6851
  946MOL0     H27700   4.787   0.558   5.437 -0.6752  0.4807  2.5868
  946MOL0     H27701   4.638   0.460   5.397  0.8899 -2.5681 -2.2962
  946MOL0     H27702   4.780   0.247   5.466 -4.7742  0.5550 -1.0785
  946MOL0     H27703   4.920   0.352   5.451  0.2399 -1.9391 -0.8948
  946MOL0     H27704   4.706   0.287   5.251  0.0044 -2.3603  1.9744
  946MOL0     H27705   4.841   0.410   5.225 -1.6143  0.6153  0.5008
  946MOL0     H27706   4.956   0.038   5.052  1.3612  0.6783  0.3944
  946MOL0     H27707   5.055   0.389   5.811  2.0442  0.0392 -1.6055
  946MOL0     H27708   5.347   0.490   5.810 -1.0336  0.2360 -1.2668
  946MOL0     H27709   5.299   0.600   5.947 -0.9668  1.7010 -1.0218
  946MOL0     H27710   5.242   0.434   5.945 -0.9939  0.9451 -0.2687
  947MOL0     O27711   2.828   2.730   7.732  0.3688 -0.3441 -0.3615
  947MOL0     C27712   2.833   2.643   7.819  0.4876  0.3173  0.1746
  947MOL0     O27713   2.742   2.630   7.913 -0.1219  0.3450 -0.6165
  947MOL0     C27714   2.635   2.715   7.910 -0.1719 -0.0383 -0.4045
  947MOL0     C27715   2.651   2.832   7.992  0.1566  1.1405  0.4923
  947MOL0     C27716   2.554   2.926   7.993  0.3624  0.5545  0.4894
  947MOL0     C27717   2.450   2.919   7.892  0.7360  0.7905 -0.1429
  947MOL0     O27718   2.362   3.024   7.874 -0.3900  0.4204 -0.0456
  947MOL0     C27719   2.419   3.156   7.848 -0.0154  0.6940 -1.0320
  947MOL0     C27720   2.358   3.263   7.941  0.7020  0.0686  0.9458
  947MOL0     C27721   2.378   3.238   8.090  0.2292 -0.3445  0.5279
  947MOL0     C27722   2.280   3.336   8.165  0.3305  0.0798  0.8578
  947MOL0     C27723   2.325   3.354   8.313  1.0432  0.7394 -0.6794
  947MOL0     C27724   2.321   3.216   8.391 -0.3372  0.2555  0.8519
  947MOL0     C27725   2.374   3.239   8.530 -0.8674  0.4526 -0.5463
  947MOL0     C27726   2.407   3.109   8.612  0.5339 -0.6539 -0.5170
  947MOL0     N27727   2.415   3.135   8.755 -0.5837 -0.8171  0.6554
  947MOL0     C27728   2.495   3.230   8.823  0.3670  0.0878 -0.3036
  947MOL0     C27729   2.442   3.233   8.950 -0.6114 -0.1819  1.0833
  947MOL0     C27730   2.490   3.324   9.067 -0.4164  0.6555  0.7799
  947MOL0     C27731   2.581   3.260   9.166  0.7121 -0.3494  0.1304
  947MOL0     C27732   2.714   3.233   9.116 -0.8306 -0.4313  0.2599
  947MOL0     C27733   2.807   3.170   9.215 -0.6009  1.1351 -0.3561
  947MOL0     O27734   2.815   3.248   9.336 -0.4127  0.6802 -0.2427
  947MOL0     C27735   2.899   3.205   9.436 -0.3829 -0.7963  0.0845
  947MOL0     C27736   3.009   3.121   9.427 -0.7526  0.2281  0.1137
  947MOL0     C27737   3.087   3.107   9.546 -0.2900 -0.2880 -0.1252
  947MOL0     C27738   3.059   3.168   9.671  0.4079  1.4006 -1.7074
  947MOL0     C27739   3.133   3.125   9.790  0.1681 -0.4511 -0.7652
  947MOL0     O27740   3.077   3.164   9.913  0.0724 -0.0452  0.1721
  947MOL0     C27741   3.153   3.168  10.025 -0.7076  0.0375 -1.1441
  947MOL0     C27742   3.201   3.290  10.071 -0.6995 -0.0378  0.2641
  947MOL0     C27743   3.302   3.300  10.169 -0.3258  0.2163 -0.4144
  947MOL0     C27744   3.354   3.188  10.218 -0.8589  0.2407 -0.0629
  947MOL0     O27745   3.449   3.230  10.301 -0.8155  0.0081  0.1348
  947MOL0     C27746   3.565   3.141  10.325  0.2836 -0.1118 -0.0002
  947MOL0     C27747   3.671   3.156  10.209  0.3477 -0.0442 -0.5328
  947MOL0     C27748   3.720   3.296  10.199 -0.1191  0.9250 -0.1973
  947MOL0     C27749   3.864   3.301  10.142  0.0154 -0.2375  0.6583
  947MOL0     C27750   3.903   3.446  10.150 -0.7351 -0.1990 -0.2073
  947MOL0     C27751   4.001   3.496  10.043 -0.1393  0.7861  0.7926
  947MOL0     C27752   4.147   3.429  10.043 -0.0389  0.4774  0.1285
  947MOL0     C27753   4.240   3.513   9.954  0.3026  0.3022 -0.3215
  947MOL0    Cl27754   4.265   3.684   9.983  0.0273  0.1074  0.0309
  947MOL0     C27755   3.314   3.062  10.166 -0.2328  0.3446 -0.7450
  947MOL0     C27756   3.213   3.050  10.078 -1.1297  0.6266  0.1781
  947MOL0     O27757   3.247   3.092   9.764  0.3598 -0.5307  0.0258
  947MOL0     C27758   2.939   3.248   9.678 -0.1960 -0.1144  0.5567
  947MOL0     C27759   2.868   3.270   9.558 -0.4572 -0.5890  0.3382
  947MOL0     N27760   2.334   3.144   8.948  0.2310  0.2989  0.3436
  947MOL0     N27761   2.320   3.098   8.833  0.8410 -0.4702  0.3948
  947MOL0     C27762   2.428   2.806   7.821 -0.9327  1.1131  0.8295
  947MOL0     C27763   2.523   2.702   7.824 -0.1131 -0.0119  0.9997
  947MOL0     C27764   2.938   2.530   7.806 -0.3923  0.0641 -0.1491
  947MOL0     C27765   2.955   2.452   7.921  0.1436 -0.6093  0.9373
  947MOL0     C27766   3.031   2.334   7.917 -0.4601  0.2130  0.1278
  947MOL0     C27767   3.105   2.298   7.800  0.4630  1.0839 -0.4641
  947MOL0     O27768   3.200   2.196   7.803  0.5135  0.8269 -0.6549
  947MOL0     C27769   3.197   2.098   7.908  0.5826  0.1587  0.0463
  947MOL0     C27770   3.303   1.984   7.877  0.0733 -0.1446  0.1597
  947MOL0     C27771   3.309   1.877   7.995  0.7477 -0.2266  0.4130
  947MOL0     C27772   3.425   1.788   7.967 -0.3655 -0.0355 -0.0641
  947MOL0     C27773   3.406   1.710   7.845  0.1950 -0.4264 -0.4770
  947MOL0     C27774   3.394   1.637   7.749  0.2044 -0.0333 -0.5291
  947MOL0     C27775   3.082   2.376   7.687 -0.2523 -0.4394 -0.8572
  947MOL0     C27776   3.008   2.493   7.688  0.4692  0.5298 -0.0387
  947MOL0     C27777   2.989   2.585   7.569  0.2632  0.0975  0.2013
  947MOL0     H27778   2.732   2.853   8.061  1.8054  0.0288 -0.9865
  947MOL0     H27779   2.574   3.020   8.043 -2.2365  2.2144 -1.3385
  947MOL0     H27780   2.527   3.161   7.864 -0.3005 -2.0287  3.2508
  947MOL0     H27781   2.409   3.174   7.740  4.4855  1.3569 -1.5203
  947MOL0     H27782   2.256   3.279   7.904  1.0598  0.4858  0.1099
  947MOL0     H27783   2.414   3.355   7.926 -0.6444  0.9476  1.1438
  947MOL0     H27784   2.483   3.266   8.108  0.7480 -1.7166 -0.2391
  947MOL0     H27785   2.367   3.131   8.108 -1.1713 -0.6925 -2.0857
  947MOL0     H27786   2.278   3.437   8.125  1.7504 -0.3301 -0.3538
  947MOL0     H27787   2.177   3.301   8.152 -0.0625  1.3122  0.5391
  947MOL0     H27788   2.423   3.402   8.314  1.2938  0.2536 -1.0934
  947MOL0     H27789   2.263   3.422   8.372  1.4247  0.9637 -0.5319
  947MOL0     H27790   2.223   3.168   8.383  0.8447 -2.1947 -0.1254
  947MOL0     H27791   2.391   3.150   8.338  2.9442  2.5611  1.9536
  947MOL0     H27792   2.308   3.299   8.594 -1.0024 -0.5181  0.2496
  947MOL0     H27793   2.472   3.287   8.523 -1.3033  2.1164  2.5876
  947MOL0     H27794   2.323   3.040   8.606 -0.5566  0.7562 -2.4759
  947MOL0     H27795   2.489   3.046   8.578  0.8669 -0.4566 -0.0951
  947MOL0     H27796   2.567   3.303   8.789  1.6434  0.4554  2.9005
  947MOL0     H27797   2.543   3.412   9.031  3.3398 -1.7100 -0.0940
  947MOL0     H27798   2.409   3.357   9.133  0.0975 -2.0022  2.9680
  947MOL0     H27799   2.577   3.305   9.265  0.7171 -3.2791  1.5782
  947MOL0     H27800   2.532   3.166   9.193 -1.3507  0.7995  0.6154
  947MOL0     H27801   2.770   3.326   9.102 -1.8794 -0.1449 -2.6771
  947MOL0     H27802   2.719   3.184   9.019  1.0822  2.3828 -1.1898
  947MOL0     H27803   2.908   3.164   9.174 -0.2044 -2.8602  0.8148
  947MOL0     H27804   2.776   3.072   9.252  1.6972  0.6722  0.5169
  947MOL0     H27805   3.038   3.061   9.342 -2.2330 -1.0644  0.4694
  947MOL0     H27806   3.175   3.045   9.532 -0.2819  0.2531 -3.1654
  947MOL0     H27807   3.157   3.381  10.032  0.0562 -0.4281 -1.6259
  947MOL0     H27808   3.335   3.393  10.215 -0.8179 -0.7015  1.9285
  947MOL0     H27809   3.611   3.171  10.419  1.8693  0.6453 -0.9670
  947MOL0     H27810   3.531   3.038  10.338  0.4538 -0.1678  0.0075
  947MOL0     H27811   3.758   3.091  10.224  0.5071 -0.5455 -3.2142
  947MOL0     H27812   3.619   3.128  10.117  1.5693  1.0637 -1.5765
  947MOL0     H27813   3.645   3.335  10.128 -2.8464 -3.9927 -0.4704
  947MOL0     H27814   3.712   3.350  10.294 -2.3966  1.8861 -0.8572
  947MOL0     H27815   3.862   3.270  10.037  0.6215 -0.3385  0.6691
  947MOL0     H27816   3.926   3.227  10.194 -0.9986 -1.6039 -0.0208
  947MOL0     H27817   3.955   3.461  10.245  0.6934 -2.6440 -0.5385
  947MOL0     H27818   3.817   3.514  10.141  1.5769  3.0586  0.3380
  947MOL0     H27819   3.947   3.490   9.949 -0.4178  1.3855  0.9137
  947MOL0     H27820   4.012   3.601  10.070  0.7282  0.9151  0.0019
  947MOL0     H27821   4.139   3.332   9.994  0.2018  1.8647 -2.8974
  947MOL0     H27822   4.185   3.415  10.144 -0.0637 -1.3930 -0.0986
  947MOL0     H27823   4.337   3.463   9.960 -1.4259 -3.7737 -2.3372
  947MOL0     H27824   4.195   3.491   9.857  1.5665 -3.5112 -0.2043
  947MOL0     H27825   3.360   2.985  10.229  1.5880  2.5839  0.8620
  947MOL0     H27826   3.194   2.947  10.048  1.4817 -0.4937  2.0118
  947MOL0     H27827   2.912   3.289   9.774  0.9960  0.6074  0.6012
  947MOL0     H27828   2.787   3.343   9.562 -0.7863 -0.9979  1.9630
  947MOL0     H27829   2.344   2.806   7.753 -0.9009 -0.8412  0.7242
  947MOL0     H27830   2.507   2.615   7.762 -0.0251  0.2377  0.6220
  947MOL0     H27831   2.903   2.461   8.016 -1.4864  0.8548 -0.0166
  947MOL0     H27832   3.031   2.276   8.009 -0.5155  1.7814  1.1570
  947MOL0     H27833   3.093   2.062   7.908  0.1526  1.3277  0.4923
  947MOL0     H27834   3.216   2.140   8.007  1.7185 -0.0725 -0.0687
  947MOL0     H27835   3.402   2.029   7.860 -0.5200  0.2321 -2.8451
  947MOL0     H27836   3.268   1.939   7.783  0.2304 -2.9038  1.3392
  947MOL0     H27837   3.219   1.815   8.002 -0.8490  1.7388 -1.2885
  947MOL0     H27838   3.319   1.913   8.098 -0.7581 -1.1648  0.9336
  947MOL0     H27839   3.512   1.853   7.960 -1.0592  1.0531  0.9094
  947MOL0     H27840   3.458   1.736   8.057  0.8706  1.2323  0.2516
  947MOL0     H27841   3.386   1.567   7.669  2.4347 -3.5596  2.0374
  947MOL0     H27842   3.137   2.345   7.598 -0.2618  0.8280 -1.3314
  947MOL0     H27843   3.036   2.544   7.479 -1.0335  3.0265 -1.9815
  947MOL0     H27844   2.884   2.605   7.547  0.0075 -1.3777  0.0211
  947MOL0     H27845   3.033   2.685   7.582  3.6725 -1.2359 -0.0609
  948MOL0     O27846   9.978   5.239   9.351  0.6161  0.3468  0.6264
  948MOL0     C27847  10.080   5.281   9.301  0.5163  0.6037 -0.1431
  948MOL0     O27848  10.129   5.239   9.187  0.2489  0.0647 -0.0334
  948MOL0     C27849  10.110   5.104   9.162  0.3170 -0.0506  0.2277
  948MOL0     C27850  10.053   5.065   9.035 -0.5868  0.2032 -0.0012
  948MOL0     C27851  10.040   4.924   8.995  0.0212 -0.5866  0.1042
  948MOL0     C27852  10.087   4.820   9.086 -0.2336 -0.5079 -0.6949
  948MOL0     O27853  10.088   4.682   9.056  0.4475  0.0273  0.1555
  948MOL0     C27854   9.968   4.620   9.025  0.5092 -0.4661  0.6317
  948MOL0     C27855  10.000   4.551   8.895  0.2613  0.4142 -0.5444
  948MOL0     C27856  10.092   4.427   8.909 -0.2987  0.8271 -0.7726
  948MOL0     C27857  10.111   4.336   8.794  0.1447 -0.8776 -0.6593
  948MOL0     C27858  10.157   4.404   8.670  0.1492  0.1188  0.0011
  948MOL0     C27859  10.294   4.462   8.675 -0.2114 -0.2860  0.1994
  948MOL0     C27860  10.337   4.542   8.554  0.2158  0.5826  0.0230
  948MOL0     C27861  10.256   4.664   8.520 -0.1737  0.2071  0.0099
  948MOL0     N27862  10.314   4.784   8.585  0.0164  0.0211 -0.2946
  948MOL0     C27863  10.314   4.814   8.716  0.3726 -0.5709 -1.0267
  948MOL0     C27864  10.395   4.919   8.736 -0.3869  0.1006  0.6520
  948MOL0     C27865  10.425   4.972   8.871 -1.1010 -0.6783  0.0338
  948MOL0     C27866  10.537   4.893   8.947  0.7479 -0.4655 -0.2929
  948MOL0     C27867  10.535   4.910   9.100  0.9461  0.8514 -0.4013
  948MOL0     C27868  10.596   5.041   9.134 -0.6951 -1.0326 -0.3729
  948MOL0     O27869  10.603   5.053   9.279 -0.0512 -0.0897 -0.4052
  948MOL0     C27870  10.666   5.168   9.333 -0.3496 -1.2196  0.4871
  948MOL0     C27871  10.756   5.255   9.269  0.6604 -0.5274 -0.2375
  948MOL0     C27872  10.801   5.370   9.328 -0.7340 -0.4678  0.1500
  948MOL0     C27873  10.776   5.408   9.459  0.5522 -0.9829  0.1414
  948MOL0     C27874  10.829   5.530   9.511  0.4315  1.0384 -0.0925
  948MOL0     O27875  10.937   5.595   9.456  0.2172 -0.9949  0.1760
  948MOL0     C27876  10.959   5.728   9.501 -0.2246  1.8409  0.2655
  948MOL0     C27877  10.858   5.815   9.504  0.2205 -0.3612 -1.3245
  948MOL0     C27878  10.887   5.946   9.531 -0.3467 -0.1128 -0.7582
  948MOL0     C27879  11.022   5.993   9.547  0.5001  0.4007 -0.5928
  948MOL0     O27880  11.048   6.124   9.570  0.6041  0.1370  0.7399
  948MOL0     C27881  10.969   6.185   9.666 -0.9691 -0.0826 -0.5788
  948MOL0     C27882  10.862   6.284   9.611 -0.2115  0.7878 -0.2238
  948MOL0     C27883  10.778   6.360   9.728  0.2895  0.1222 -0.1184
  948MOL0     C27884  10.656   6.282   9.754  0.9789  0.1753 -1.3844
  948MOL0     C27885  10.574   6.340   9.867 -0.6434 -1.1345 -0.7651
  948MOL0     C27886  10.449   6.261   9.898 -0.5604 -0.4210  0.1857
  948MOL0     C27887  10.378   6.325  10.027  0.1377  0.0351  0.2382
  948MOL0     C27888  10.296   6.214  10.084 -0.3754 -0.7979 -0.3521
  948MOL0    Cl27889  10.397   6.074  10.142  0.7579  0.2004  0.5259
  948MOL0     C27890  11.126   5.899   9.536  0.2038  0.4903  0.0612
  948MOL0     C27891  11.093   5.768   9.514 -0.2807  0.5590  0.3516
  948MOL0     O27892  10.749   5.577   9.588  0.8700 -0.0886 -0.6746
  948MOL0     C27893  10.683   5.322   9.530 -0.3888 -0.1717 -0.9836
  948MOL0     C27894  10.637   5.203   9.466  0.6631  0.7430 -0.2875
  948MOL0     N27895  10.454   4.945   8.610 -0.1438  0.1632  0.6635
  948MOL0     N27896  10.408   4.859   8.524  0.1685 -0.4105 -0.3575
  948MOL0     C27897  10.149   4.862   9.208  0.5893  0.6147 -0.5364
  948MOL0     C27898  10.155   5.001   9.246  0.1123  0.7181  0.7272
  948MOL0     C27899  10.143   5.402   9.370 -0.5548  0.4527  0.3682
  948MOL0     C27900  10.054   5.490   9.437  0.5658 -0.8186  0.5009
  948MOL0     C27901  10.103   5.593   9.520 -0.2973 -0.8299  0.1199
  948MOL0     C27902  10.237   5.625   9.520  0.8514  0.1928 -0.1073
  948MOL0     O27903  10.272   5.742   9.584 -0.6228 -0.0442 -0.9865
  948MOL0     C27904  10.415   5.764   9.611 -0.2240  1.2450 -0.3011
  948MOL0     C27905  10.432   5.895   9.684 -0.0333  0.9604 -0.2492
  948MOL0     C27906  10.383   5.872   9.830 -0.8328  0.5523  0.1756
  948MOL0     C27907  10.481   5.799   9.926 -0.3844 -0.1127 -0.1315
  948MOL0     C27908  10.608   5.870   9.946 -0.2399 -0.9076  1.0317
  948MOL0     C27909  10.697   5.952   9.955 -0.0135 -0.1268 -0.0984
  948MOL0     C27910  10.322   5.554   9.430  0.9620 -0.1341 -0.2048
  948MOL0     C27911  10.279   5.442   9.357  0.5680  0.5643  0.2109
  948MOL0     C27912  10.378   5.368   9.269  0.3323 -0.3108 -0.5031
  948MOL0     H27913  10.013   5.144   8.972  1.9328  3.2321  1.8456
  948MOL0     H27914   9.999   4.909   8.895  2.1066  2.2711 -1.3204
  948MOL0     H27915   9.930   4.543   9.092  0.1124 -0.4334  0.4492
  948MOL0     H27916   9.890   4.696   9.011 -1.0282 -1.6800  2.1770
  948MOL0     H27917  10.047   4.614   8.820 -2.5790  2.9902 -0.3203
  948MOL0     H27918   9.911   4.518   8.841 -0.5375 -1.5771  1.7654
  948MOL0     H27919  10.048   4.357   8.980  0.2916  0.5679 -0.6598
  948MOL0     H27920  10.179   4.456   8.968 -1.2598 -0.4531  1.4012
  948MOL0     H27921  10.190   4.265   8.820  1.7955  0.9293 -0.4874
  948MOL0     H27922  10.011   4.293   8.780 -1.1707  0.4713  3.1247
  948MOL0     H27923  10.152   4.326   8.594  0.3205  0.3652 -0.2625
  948MOL0     H27924  10.082   4.480   8.646 -2.2907 -1.0962  3.0395
  948MOL0     H27925  10.292   4.533   8.758 -0.2878 -2.7410  2.4230
  948MOL0     H27926  10.363   4.380   8.699  0.6136  0.3177 -0.0368
  948MOL0     H27927  10.310   4.478   8.469 -2.8524  0.4401  0.9672
  948MOL0     H27928  10.444   4.563   8.559 -0.0511  2.0441  0.0821
  948MOL0     H27929  10.261   4.688   8.413 -2.0279 -1.3047 -0.4745
  948MOL0     H27930  10.149   4.657   8.541 -0.5370  1.5514 -1.2044
  948MOL0     H27931  10.250   4.778   8.796 -0.5159  3.0102  0.0440
  948MOL0     H27932  10.467   5.073   8.869 -0.1448 -0.9027  3.0707
  948MOL0     H27933  10.333   4.989   8.928 -1.5751  0.3371 -0.9762
  948MOL0     H27934  10.531   4.788   8.917  0.3808 -0.2352 -1.0619
  948MOL0     H27935  10.638   4.904   8.907  0.3050 -1.2421 -1.7092
  948MOL0     H27936  10.596   4.825   9.134 -1.5685 -1.2289 -0.7968
  948MOL0     H27937  10.431   4.898   9.129  0.2587 -2.8653 -3.4707
  948MOL0     H27938  10.536   5.122   9.091 -1.7004 -1.1486  0.7602
  948MOL0     H27939  10.701   5.041   9.102 -0.5294  3.8242 -0.5900
  948MOL0     H27940  10.790   5.232   9.169 -0.3385  0.0840 -0.7340
  948MOL0     H27941  10.866   5.437   9.273  1.1883 -2.1295  0.2502
  948MOL0     H27942  10.754   5.784   9.497  0.2212 -1.0849  1.1328
  948MOL0     H27943  10.808   6.019   9.521 -0.1154 -0.0999 -2.8976
  948MOL0     H27944  10.914   6.113   9.727  0.7258 -1.1612 -0.2711
  948MOL0     H27945  11.029   6.248   9.733  0.8634 -1.7623 -0.5490
  948MOL0     H27946  10.918   6.363   9.560  2.2097 -0.4599  0.3591
  948MOL0     H27947  10.799   6.229   9.541 -0.2801  1.0403 -0.3599
  948MOL0     H27948  10.824   6.357   9.827 -1.4158 -3.7259  0.7611
  948MOL0     H27949  10.756   6.463   9.699  1.4341  0.1307 -1.0077
  948MOL0     H27950  10.689   6.179   9.771  4.4859  1.6089  2.4071
  948MOL0     H27951  10.586   6.298   9.671  0.3370  2.7927 -0.4466
  948MOL0     H27952  10.535   6.439   9.841  0.7002  0.1307  1.7083
  948MOL0     H27953  10.634   6.357   9.957 -2.3430 -0.0130  0.2276
  948MOL0     H27954  10.392   6.245   9.806  0.0258  1.4098 -0.5540
  948MOL0     H27955  10.495   6.165   9.924 -1.0721 -0.5702  0.5577
  948MOL0     H27956  10.335   6.422  10.000  2.5790  1.5061  1.2479
  948MOL0     H27957  10.449   6.360  10.103  1.0289  0.9091 -0.9521
  948MOL0     H27958  10.239   6.263  10.163  1.0792  1.4524 -0.6140
  948MOL0     H27959  10.230   6.172  10.007 -0.6986 -0.8916 -0.0301
  948MOL0     H27960  11.229   5.930   9.548 -0.6012  2.7760  1.9418
  948MOL0     H27961  11.178   5.701   9.520 -0.3896  0.5062  1.6309
  948MOL0     H27962  10.652   5.364   9.626  0.3074  0.4791 -1.0258
  948MOL0     H27963  10.568   5.143   9.525  3.3376 -1.3141  0.9746
  948MOL0     H27964  10.197   4.795   9.279 -0.4214  0.7612  0.3046
  948MOL0     H27965  10.221   5.028   9.328  1.6841 -0.4845 -0.1046
  948MOL0     H27966   9.947   5.472   9.441  0.3144  0.5830  0.4053
  948MOL0     H27967  10.034   5.650   9.582 -1.0295 -2.3039  0.7009
  948MOL0     H27968  10.464   5.769   9.513  3.0714  3.9108  1.2553
  948MOL0     H27969  10.455   5.687   9.678  1.9743  1.2742 -1.4698
  948MOL0     H27970  10.368   5.970   9.638 -1.4888  0.6436  1.1739
  948MOL0     H27971  10.534   5.935   9.685 -0.5799  2.4095  0.1673
  948MOL0     H27972  10.282   5.830   9.825  0.5415 -3.2189  0.7990
  948MOL0     H27973  10.366   5.972   9.871  0.5993  1.8403 -2.1943
  948MOL0     H27974  10.443   5.795  10.028 -2.3156  0.7452 -0.7743
  948MOL0     H27975  10.500   5.697   9.890  0.1875  0.8796 -2.9639
  948MOL0     H27976  10.781   6.018   9.950  0.9256 -1.3649 -2.2272
  948MOL0     H27977  10.426   5.581   9.418  1.0628 -0.7602 -0.7534
  948MOL0     H27978  10.338   5.360   9.168 -2.8623 -0.5209  0.6492
  948MOL0     H27979  10.482   5.402   9.268  0.6574 -1.2776 -0.5771
  948MOL0     H27980  10.382   5.262   9.295 -2.0769 -0.2050  0.6270
  949MOL0     O27981  10.074   1.140  10.712  1.0226  0.1640 -0.1606
  949MOL0     C27982  10.159   1.053  10.694 -0.7005 -0.1036 -0.6148
  949MOL0     O27983  10.161   0.968  10.591  0.4989 -0.0993  0.0085
  949MOL0     C27984  10.065   0.985  10.492  0.2847  0.1436  0.5019
  949MOL0     C27985   9.961   0.892  10.488  0.2846 -0.6672  0.1316
  949MOL0     C27986   9.872   0.903  10.377  0.0643 -0.0125  0.5117
  949MOL0     C27987   9.875   1.000  10.282 -0.5077  0.1165  0.2390
  949MOL0     O27988   9.793   1.000  10.171  0.1345 -0.4083 -0.2243
  949MOL0     C27989   9.672   1.080  10.187 -0.2118 -0.0014 -0.1460
  949MOL0     C27990   9.620   1.124  10.052  0.4155  0.4836 -0.2563
  949MOL0     C27991   9.707   1.231   9.974  0.3597  0.6762  0.4330
  949MOL0     C27992   9.657   1.244   9.830 -0.8502  0.5989  0.9862
  949MOL0     C27993   9.749   1.338   9.742  0.6166 -0.4527 -0.3176
  949MOL0     C27994   9.671   1.383   9.616 -0.1192 -0.6687 -0.7574
  949MOL0     C27995   9.748   1.335   9.485  0.1320 -0.6426  0.2129
  949MOL0     C27996   9.653   1.370   9.358  0.7706 -0.7649 -0.4926
  949MOL0     N27997   9.702   1.489   9.282  0.4347  0.9720  0.0359
  949MOL0     C27998   9.790   1.591   9.320  0.5828 -0.0142  0.2389
  949MOL0     C27999   9.800   1.669   9.204  0.0771  0.3525  0.1361
  949MOL0     C28000   9.879   1.795   9.182  0.6855  0.1703 -0.6897
  949MOL0     C28001   9.780   1.899   9.143  0.1480 -0.3592  0.0328
  949MOL0     C28002   9.860   2.031   9.127 -0.3263 -0.0907 -0.2081
  949MOL0     C28003   9.771   2.156   9.131 -0.3983  0.4459 -0.4635
  949MOL0     O28004   9.864   2.260   9.130  0.4971 -0.2864  0.4738
  949MOL0     C28005   9.923   2.299   9.246  0.0854 -0.6953  0.6905
  949MOL0     C28006  10.030   2.388   9.245 -0.9910 -0.0128  0.3144
  949MOL0     C28007  10.098   2.439   9.355 -0.2051 -0.1867 -0.2287
  949MOL0     C28008  10.062   2.383   9.481  0.0284  0.6406  0.6155
  949MOL0     C28009  10.127   2.426   9.603 -0.6151  0.7791  0.8636
  949MOL0     O28010  10.247   2.484   9.585 -0.2094  0.0688 -0.1814
  949MOL0     C28011  10.340   2.515   9.679  0.3180 -0.0419  0.0452
  949MOL0     C28012  10.371   2.449   9.800 -0.0983 -0.3267  0.5264
  949MOL0     C28013  10.462   2.496   9.891 -0.9014 -0.0622 -0.1919
  949MOL0     C28014  10.536   2.609   9.866  0.8462 -0.1141 -0.2031
  949MOL0     O28015  10.644   2.626   9.952 -0.7595  0.5865  0.5077
  949MOL0     C28016  10.676   2.763   9.975  0.2053 -0.9070  0.6156
  949MOL0     C28017  10.739   2.783  10.110  0.0523  0.0780  0.2468
  949MOL0     C28018  10.807   2.915  10.134 -0.2094 -0.3122  0.4287
  949MOL0     C28019  10.722   3.038  10.075 -0.7799  0.6373 -0.4424
  949MOL0     C28020  10.768   3.165  10.116 -0.4347  0.6261  1.0832
  949MOL0     C28021  10.709   3.222  10.250 -0.0693 -0.2519  0.6922
  949MOL0     C28022  10.750   3.379  10.274  0.3190 -0.3475  0.4406
  949MOL0     C28023  10.644   3.434  10.371  0.5028  0.4395 -0.5193
  949MOL0    Cl28024  10.706   3.577  10.456  0.4170  0.2043 -0.1469
  949MOL0     C28025  10.517   2.674   9.744 -0.1402  0.4006 -0.4424
  949MOL0     C28026  10.420   2.627   9.653 -0.6892  0.2051  0.2617
  949MOL0     O28027  10.075   2.414   9.712  1.1488 -0.1350  0.3089
  949MOL0     C28028   9.944   2.308   9.484 -0.5338  0.8492 -0.6264
  949MOL0     C28029   9.872   2.273   9.373 -0.0279 -0.5190 -0.1718
  949MOL0     N28030   9.723   1.597   9.109 -0.1486 -0.6755 -0.8351
  949MOL0     N28031   9.656   1.509   9.162  0.0722  0.7902 -0.5089
  949MOL0     C28032   9.978   1.091  10.293 -0.4225  0.2384 -0.7589
  949MOL0     C28033  10.073   1.087  10.394  0.4400  0.6327 -0.3381
  949MOL0     C28034  10.261   1.029  10.804  0.7021 -0.1108  0.5190
  949MOL0     C28035  10.341   0.917  10.781 -0.7821 -0.2877 -0.0301
  949MOL0     C28036  10.448   0.881  10.860 -0.0076 -2.0369  0.2940
  949MOL0     C28037  10.474   0.958  10.964  0.8510  0.6785 -0.5630
  949MOL0     O28038  10.565   0.931  11.066  0.2291 -0.7904 -0.6478
  949MOL0     C28039  10.594   0.796  11.080  0.5296  0.2291  0.7582
  949MOL0     C28040  10.638   0.761  11.217 -0.4022 -0.3003 -0.1247
  949MOL0     C28041  10.523   0.798  11.313  0.3144 -0.1590 -0.5574
  949MOL0     C28042  10.389   0.722  11.285 -0.6872 -0.6561  0.9497
  949MOL0     C28043  10.314   0.730  11.412  0.6733 -0.0890 -0.0513
  949MOL0     C28044  10.271   0.736  11.525  0.3192 -0.7066 -0.2184
  949MOL0     C28045  10.391   1.069  10.998 -0.5803  0.4885 -0.3240
  949MOL0     C28046  10.292   1.114  10.912  1.0786 -0.4274  0.0816
  949MOL0     C28047  10.229   1.258  10.929  0.1204 -0.0033 -0.6479
  949MOL0     H28048   9.952   0.811  10.560  0.5758  0.5208  1.5605
  949MOL0     H28049   9.789   0.833  10.374  0.4161 -0.4005 -0.3026
  949MOL0     H28050   9.600   1.012  10.234 -2.4286  1.1755 -1.6759
  949MOL0     H28051   9.702   1.165  10.249  3.3866 -0.6419 -0.7929
  949MOL0     H28052   9.521   1.170  10.047  0.4899  0.6834  0.0596
  949MOL0     H28053   9.603   1.030   9.998 -0.0701  0.2167  0.3454
  949MOL0     H28054   9.812   1.199   9.972  0.8577  2.1658  1.5403
  949MOL0     H28055   9.697   1.329  10.020 -0.0845  1.1684 -0.6662
  949MOL0     H28056   9.643   1.148   9.780  0.8461  0.8879 -0.0818
  949MOL0     H28057   9.558   1.292   9.836 -1.4102 -0.6651  2.6645
  949MOL0     H28058   9.761   1.428   9.804 -0.8460  1.1800 -2.2716
  949MOL0     H28059   9.846   1.297   9.715  0.5999 -0.3567 -0.5303
  949MOL0     H28060   9.567   1.348   9.617  0.2685 -1.8540  0.1369
  949MOL0     H28061   9.664   1.491   9.602  0.7736 -0.7681 -2.2577
  949MOL0     H28062   9.768   1.228   9.477  1.7967 -0.4332  1.1624
  949MOL0     H28063   9.839   1.392   9.466  0.7857 -1.1195  1.8055
  949MOL0     H28064   9.645   1.285   9.289 -1.3162  1.0617 -2.6986
  949MOL0     H28065   9.549   1.393   9.380  0.3667 -1.1436 -1.8753
  949MOL0     H28066   9.837   1.625   9.411 -3.1399  1.5642  1.7596
  949MOL0     H28067   9.937   1.820   9.271 -1.2123 -0.7438  0.8822
  949MOL0     H28068   9.961   1.776   9.112  0.9468  3.1334 -1.3246
  949MOL0     H28069   9.730   1.879   9.048 -2.6666 -0.2259  1.3865
  949MOL0     H28070   9.710   1.909   9.226 -0.0214 -2.0503  0.1108
  949MOL0     H28071   9.917   2.028   9.034 -1.7749  1.4426 -1.2002
  949MOL0     H28072   9.930   2.030   9.211  0.4653 -2.0583 -0.8390
  949MOL0     H28073   9.714   2.158   9.224  1.5898  0.4308  0.8194
  949MOL0     H28074   9.715   2.161   9.037  0.3967 -3.4188 -1.3263
  949MOL0     H28075  10.055   2.425   9.146 -0.6716 -3.9484 -1.2194
  949MOL0     H28076  10.189   2.497   9.343  0.3858 -1.2626 -1.1851
  949MOL0     H28077  10.318   2.357   9.822  0.0255 -0.3163  0.8766
  949MOL0     H28078  10.470   2.444   9.986 -1.2250 -0.2844 -0.2841
  949MOL0     H28079  10.757   2.784   9.905 -1.1933 -0.7788 -1.0392
  949MOL0     H28080  10.591   2.831   9.963 -1.2310 -1.8403  4.1874
  949MOL0     H28081  10.656   2.774  10.182 -0.7053  3.3298 -0.0725
  949MOL0     H28082  10.815   2.708  10.134  0.2271 -0.7016 -2.4747
  949MOL0     H28083  10.832   2.940  10.238  4.5121 -2.4171  0.0474
  949MOL0     H28084  10.897   2.905  10.073 -2.1341 -0.0346 -2.6728
  949MOL0     H28085  10.619   3.029  10.113 -0.9990  2.0861 -0.6323
  949MOL0     H28086  10.724   3.023   9.967  1.1928 -5.3283  0.0436
  949MOL0     H28087  10.750   3.239  10.038  0.9560 -1.7659 -1.6974
  949MOL0     H28088  10.875   3.151  10.138  0.7007  2.3064 -2.6051
  949MOL0     H28089  10.602   3.235  10.232  0.3675 -0.0254 -2.2963
  949MOL0     H28090  10.740   3.156  10.331  1.6220 -3.1321 -2.0742
  949MOL0     H28091  10.754   3.437  10.181 -1.6494 -0.1720  0.4237
  949MOL0     H28092  10.852   3.388  10.313  1.0512  0.1576 -1.4528
  949MOL0     H28093  10.552   3.468  10.322 -0.4712  1.2771  1.7366
  949MOL0     H28094  10.613   3.353  10.438 -0.6681  1.3911  0.1361
  949MOL0     H28095  10.573   2.765   9.724 -0.3418  0.3335 -1.3535
  949MOL0     H28096  10.395   2.680   9.561 -1.1514  1.1388  0.9076
  949MOL0     H28097   9.889   2.275   9.571 -3.8792  0.7560 -2.6219
  949MOL0     H28098   9.786   2.209   9.391 -1.1169  1.0064  0.1743
  949MOL0     H28099   9.973   1.178  10.227 -0.0614  1.8819  1.2777
  949MOL0     H28100  10.150   1.162  10.405 -0.6645  1.3936  4.0184
  949MOL0     H28101  10.312   0.848  10.702  0.2871  0.5213 -1.1772
  949MOL0     H28102  10.496   0.786  10.839  2.6995 -1.2357  2.3398
  949MOL0     H28103  10.680   0.769  11.017  0.2608  2.3342 -0.5699
  949MOL0     H28104  10.511   0.728  11.056  1.7468 -1.5653  1.3774
  949MOL0     H28105  10.732   0.814  11.235 -2.1792  2.6311  1.2825
  949MOL0     H28106  10.655   0.655  11.239  0.2384  0.2653  2.3568
  949MOL0     H28107  10.521   0.907  11.306 -0.8563  0.3999  4.6609
  949MOL0     H28108  10.559   0.776  11.414 -2.2257  1.2947  0.7726
  949MOL0     H28109  10.342   0.777  11.203  1.8495 -2.3376 -1.8094
  949MOL0     H28110  10.416   0.620  11.257  0.9864 -0.3283  1.2326
  949MOL0     H28111  10.244   0.724  11.628  0.0235 -2.3470 -0.4640
  949MOL0     H28112  10.423   1.109  11.094  3.4475 -0.9338 -0.8792
  949MOL0     H28113  10.263   1.326  10.851  0.5408  3.4142  2.2345
  949MOL0     H28114  10.120   1.247  10.927  0.3072 -2.1009 -1.0178
  949MOL0     H28115  10.237   1.299  11.030 -0.7057 -0.4050 -0.4111
  950MOL0     O28116   7.262   3.956  10.041  1.0228  0.3045  0.6317
  950MOL0     C28117   7.293   3.986   9.925 -0.3341  0.1587 -0.6135
  950MOL0     O28118   7.300   3.899   9.824  0.4761  0.0343  0.6800
  950MOL0     C28119   7.325   3.768   9.838 -0.8288  0.4204 -0.9919
  950MOL0     C28120   7.331   3.685   9.732 -0.4233  0.6280 -0.4076
  950MOL0     C28121   7.371   3.555   9.727 -0.7378  0.2982  1.1113
  950MOL0     C28122   7.405   3.501   9.848 -0.7433  1.0474  0.6158
  950MOL0     O28123   7.445   3.377   9.816 -0.1977  0.2510 -0.3118
  950MOL0     C28124   7.450   3.273   9.926 -0.3562 -0.9426  0.0772
  950MOL0     C28125   7.595   3.295   9.984  0.4076 -0.9848  0.8339
  950MOL0     C28126   7.711   3.241   9.909 -1.1226  0.3909 -0.3838
  950MOL0     C28127   7.699   3.094   9.873  0.1940 -0.4086  0.2985
  950MOL0     C28128   7.822   3.018   9.815  0.4349  0.4878 -0.2998
  950MOL0     C28129   7.947   3.036   9.908 -0.6130 -0.0382  0.2450
  950MOL0     C28130   8.058   2.938   9.868 -0.7088  0.3544 -0.3194
  950MOL0     C28131   8.183   2.958   9.935 -0.3148  0.9572 -0.9947
  950MOL0     N28132   8.268   2.843   9.911 -0.0148 -0.2443  0.7026
  950MOL0     C28133   8.269   2.740   9.998  0.0107 -0.3577 -1.0300
  950MOL0     C28134   8.384   2.669   9.975 -0.0503  0.3788  0.5037
  950MOL0     C28135   8.414   2.544  10.051 -0.1207 -0.1283 -0.0523
  950MOL0     C28136   8.569   2.532  10.077 -0.3293  0.3581 -0.5571
  950MOL0     C28137   8.616   2.629  10.184  0.3245  0.8420  0.5618
  950MOL0     C28138   8.582   2.586  10.329  1.2203 -0.5825 -0.2843
  950MOL0     O28139   8.635   2.669  10.426 -0.5576  0.8294 -0.8946
  950MOL0     C28140   8.613   2.644  10.553 -0.1207 -0.6252  0.1148
  950MOL0     C28141   8.712   2.705  10.632  0.2013  0.9535  0.4164
  950MOL0     C28142   8.711   2.695  10.766  0.0394  0.8025  0.6027
  950MOL0     C28143   8.622   2.608  10.831  0.7098 -0.5458  1.3509
  950MOL0     C28144   8.639   2.586  10.980 -0.3263  0.7014 -0.3017
  950MOL0     O28145   8.727   2.670  11.050 -0.2999 -0.0032  0.0712
  950MOL0     C28146   8.740   2.653  11.186 -0.4318  0.8215  0.4805
  950MOL0     C28147   8.711   2.761  11.262  1.6187 -0.7132 -0.3839
  950MOL0     C28148   8.725   2.763  11.400  0.0582 -0.5146 -0.0453
  950MOL0     C28149   8.733   2.642  11.470 -1.2525 -0.6168  0.4849
  950MOL0     O28150   8.751   2.633  11.604  0.4849  0.4336 -0.6931
  950MOL0     C28151   8.717   2.739  11.693  0.8480  0.3670 -0.2793
  950MOL0     C28152   8.655   2.674  11.820  0.4032  0.3572  0.0506
  950MOL0     C28153   8.614   2.777  11.927 -0.2237  0.6550  1.0023
  950MOL0     C28154   8.592   2.723  12.063 -0.3169  0.5216  0.0328
  950MOL0     C28155   8.548   2.843  12.149 -0.2575  0.0442 -0.3780
  950MOL0     C28156   8.393   2.863  12.173 -0.5561 -0.2690 -0.1270
  950MOL0     C28157   8.319   2.752  12.248  0.1472 -0.0530 -1.1233
  950MOL0     C28158   8.185   2.797  12.311  0.2363  0.3759  0.7075
  950MOL0    Cl28159   8.055   2.843  12.205 -0.3611 -0.0215  0.0701
  950MOL0     C28160   8.772   2.529  11.389 -0.7445 -0.4065  0.3760
  950MOL0     C28161   8.786   2.536  11.251  0.9698  0.1380 -0.6803
  950MOL0     O28162   8.565   2.495  11.023 -0.5380 -0.1055  0.0403
  950MOL0     C28163   8.513   2.552  10.752 -0.0919  0.0353 -0.4859
  950MOL0     C28164   8.509   2.573  10.615  0.5939  0.5726 -0.0786
  950MOL0     N28165   8.441   2.729   9.866 -0.5722  0.1136  0.2908
  950MOL0     N28166   8.372   2.826   9.826 -0.8808 -0.2069  0.3013
  950MOL0     C28167   7.402   3.571   9.966 -0.2211 -0.5177 -1.1149
  950MOL0     C28168   7.354   3.704   9.965 -0.8105  0.7059 -0.1737
  950MOL0     C28169   7.329   4.133   9.912 -0.1090  0.1947 -0.0778
  950MOL0     C28170   7.302   4.231  10.014 -0.0655  0.0750  0.2509
  950MOL0     C28171   7.322   4.368   9.997 -0.6811  0.5870 -0.2633
  950MOL0     C28172   7.389   4.420   9.884 -0.3778  0.0041 -1.0190
  950MOL0     O28173   7.404   4.554   9.884  0.4555  0.8619 -0.0926
  950MOL0     C28174   7.460   4.613   9.770 -0.7939 -0.4187 -0.5723
  950MOL0     C28175   7.434   4.768   9.775 -0.8830 -0.4264 -0.0208
  950MOL0     C28176   7.284   4.797   9.764 -0.0197  0.1077  0.8408
  950MOL0     C28177   7.247   4.939   9.778  0.1345  0.0781  0.5137
  950MOL0     C28178   7.300   4.992   9.901  0.3373 -0.0397  0.2379
  950MOL0     C28179   7.347   5.058   9.991  0.1881 -0.5149 -0.1209
  950MOL0     C28180   7.415   4.329   9.785  0.5760  0.2602  0.6771
  950MOL0     C28181   7.393   4.193   9.800 -0.0644  0.7801  0.1484
  950MOL0     C28182   7.455   4.116   9.683 -0.1560  0.4856 -0.2092
  950MOL0     H28183   7.304   3.729   9.636  1.5239  1.2041 -0.7314
  950MOL0     H28184   7.375   3.500   9.633  2.9086 -2.6083  2.6593
  950MOL0     H28185   7.373   3.292  10.001 -0.5931 -0.5202 -0.2712
  950MOL0     H28186   7.427   3.179   9.875 -1.8138 -0.3067 -0.4841
  950MOL0     H28187   7.600   3.259  10.087  1.1532  1.0067  1.5462
  950MOL0     H28188   7.619   3.402   9.994  0.6973 -0.9403 -0.2000
  950MOL0     H28189   7.799   3.256   9.972 -1.0429 -0.1521 -0.3618
  950MOL0     H28190   7.726   3.301   9.819  0.2650 -1.8897 -1.7930
  950MOL0     H28191   7.672   3.025   9.953 -0.7051 -1.5332 -0.9173
  950MOL0     H28192   7.619   3.073   9.801 -1.1755 -1.0479  1.9392
  950MOL0     H28193   7.780   2.917   9.810  4.5934 -1.4504 -0.3405
  950MOL0     H28194   7.839   3.044   9.710 -0.0773  0.0287 -0.5042
  950MOL0     H28195   7.992   3.136   9.907 -1.8070  0.5086 -0.8573
  950MOL0     H28196   7.912   3.022  10.011 -0.0656  5.2714  1.4342
  950MOL0     H28197   8.079   2.942   9.761  0.1972  1.4885 -0.1132
  950MOL0     H28198   8.024   2.839   9.901 -0.1943  1.0907  2.7373
  950MOL0     H28199   8.248   3.035   9.892  0.7639  1.0772  0.7257
  950MOL0     H28200   8.171   2.977  10.042  0.8163  1.4342 -0.9346
  950MOL0     H28201   8.206   2.726  10.085 -0.2868 -4.8683 -1.7080
  950MOL0     H28202   8.350   2.544  10.139 -1.9056 -1.2509 -1.2808
  950MOL0     H28203   8.382   2.457   9.994  1.7094 -0.8696 -0.0061
  950MOL0     H28204   8.585   2.428  10.107 -1.5992  0.1604 -0.4908
  950MOL0     H28205   8.629   2.538   9.986  0.8108  0.4148  0.1826
  950MOL0     H28206   8.571   2.727  10.165 -1.9336 -0.1269  0.5382
  950MOL0     H28207   8.722   2.648  10.166  0.1482 -1.4308 -4.6680
  950MOL0     H28208   8.624   2.486  10.344  0.2399 -0.8307  0.9876
  950MOL0     H28209   8.474   2.578  10.348  1.5642 -2.1652  1.2687
  950MOL0     H28210   8.780   2.745  10.559 -0.9132 -2.4214 -2.7443
  950MOL0     H28211   8.781   2.747  10.832  0.4777  1.5475 -0.4300
  950MOL0     H28212   8.690   2.860  11.225 -0.1542 -0.4958  1.0875
  950MOL0     H28213   8.714   2.852  11.460 -1.9945 -2.2556  2.4062
  950MOL0     H28214   8.809   2.792  11.719  2.1120 -2.5207  1.6218
  950MOL0     H28215   8.645   2.812  11.654 -0.7961  0.2642  2.3032
  950MOL0     H28216   8.565   2.628  11.779  1.5051 -0.2452 -1.8300
  950MOL0     H28217   8.715   2.595  11.865 -1.9470  0.3317  3.5111
  950MOL0     H28218   8.701   2.843  11.936  0.5208 -0.5836  4.4280
  950MOL0     H28219   8.536   2.837  11.880  1.0948  1.7454  0.1109
  950MOL0     H28220   8.683   2.678  12.105 -1.4891 -2.7388 -0.6127
  950MOL0     H28221   8.517   2.643  12.061  1.5068 -1.3927  1.9037
  950MOL0     H28222   8.600   2.932  12.111  1.1589 -1.5920 -2.5242
  950MOL0     H28223   8.574   2.825  12.253 -0.3980 -2.1627 -0.6766
  950MOL0     H28224   8.388   2.953  12.235  1.2137 -0.2364  0.0200
  950MOL0     H28225   8.337   2.879  12.080 -1.3579 -3.1496 -0.2204
  950MOL0     H28226   8.382   2.693  12.316 -0.0934 -1.3850 -2.0220
  950MOL0     H28227   8.295   2.673  12.177 -1.3751 -0.9325  0.2980
  950MOL0     H28228   8.151   2.710  12.368  1.0011 -0.7241 -0.4595
  950MOL0     H28229   8.211   2.879  12.379  1.8884  2.1717 -1.9197
  950MOL0     H28230   8.796   2.442  11.450  0.4164 -0.3935 -0.0458
  950MOL0     H28231   8.824   2.452  11.195 -0.1370  0.2816 -1.6852
  950MOL0     H28232   8.431   2.496  10.797  1.6953 -0.2050  2.7800
  950MOL0     H28233   8.425   2.540  10.556  0.4466  0.3585  0.2525
  950MOL0     H28234   7.441   3.516  10.052 -1.0154 -0.5914 -0.7889
  950MOL0     H28235   7.378   3.751  10.060  2.0226 -0.1948 -0.3431
  950MOL0     H28236   7.278   4.193  10.113  0.8879  0.1308  0.5088
  950MOL0     H28237   7.301   4.443  10.072 -0.5621  2.0827 -1.6700
  950MOL0     H28238   7.422   4.574   9.675 -3.4165  0.0128  0.2333
  950MOL0     H28239   7.567   4.592   9.778 -0.4089  1.9598  2.4243
  950MOL0     H28240   7.495   4.812   9.696 -1.0163  1.2804  0.8063
  950MOL0     H28241   7.470   4.811   9.869 -2.7851 -1.9804  1.5112
  950MOL0     H28242   7.230   4.742   9.842 -0.4364 -1.2204 -0.3312
  950MOL0     H28243   7.261   4.755   9.665 -2.8002 -1.6030  2.0902
  950MOL0     H28244   7.279   5.003   9.695  0.6987 -1.8267 -0.8054
  950MOL0     H28245   7.138   4.931   9.777  0.0086  1.5850  0.6301
  950MOL0     H28246   7.373   5.121  10.074 -3.7417  4.4848 -2.1357
  950MOL0     H28247   7.469   4.358   9.696  2.3607  0.6048  1.8088
  950MOL0     H28248   7.384   4.044   9.642 -1.4557  1.5205  0.1381
  950MOL0     H28249   7.503   4.171   9.601  0.1274 -0.9711 -1.0565
  950MOL0     H28250   7.532   4.048   9.720  1.7718  2.1847 -0.8968
  951MOL0     O28251   7.105   4.395  10.499  0.0614  0.1427  0.6962
  951MOL0     C28252   7.218   4.385  10.443  0.8629  0.2661  0.6038
  951MOL0     O28253   7.287   4.487  10.379  0.0974  0.2859 -0.2757
  951MOL0     C28254   7.229   4.602  10.346  0.3104 -0.1460 -0.9478
  951MOL0     C28255   7.095   4.616  10.306  0.1008  0.8203 -0.0358
  951MOL0     C28256   7.040   4.734  10.261 -0.7137  0.4198  0.2054
  951MOL0     C28257   7.133   4.848  10.248  0.0709  0.0072 -1.3729
  951MOL0     O28258   7.083   4.976  10.237  0.0772  0.6262  0.5836
  951MOL0     C28259   6.976   5.005  10.144 -0.8737  0.5152 -0.2012
  951MOL0     C28260   6.953   5.153  10.152 -1.0182 -0.1810 -0.0781
  951MOL0     C28261   7.064   5.254  10.118  0.4224 -0.1970 -0.5802
  951MOL0     C28262   7.163   5.274  10.233  0.2928 -0.3505 -0.7340
  951MOL0     C28263   7.266   5.388  10.204 -0.0918 -1.6505  0.6718
  951MOL0     C28264   7.336   5.435  10.329  0.3226  0.3247 -0.5892
  951MOL0     C28265   7.429   5.338  10.404  0.1753  1.0023 -0.8536
  951MOL0     C28266   7.467   5.396  10.536  0.8421 -0.0188  0.0816
  951MOL0     N28267   7.525   5.293  10.617  0.5270  0.2204 -0.4597
  951MOL0     C28268   7.655   5.286  10.637 -1.0597  0.1769  0.7811
  951MOL0     C28269   7.664   5.186  10.726 -0.0024  1.4071  0.1905
  951MOL0     C28270   7.779   5.109  10.781 -0.2564  0.0650  0.3565
  951MOL0     C28271   7.812   5.124  10.934  0.5059  0.7949  0.2529
  951MOL0     C28272   7.704   5.073  11.019  0.8676  1.2249 -0.0948
  951MOL0     C28273   7.742   5.064  11.173  0.1434 -0.7089  0.1132
  951MOL0     O28274   7.617   5.034  11.236  0.1675  0.2900 -0.8041
  951MOL0     C28275   7.570   4.902  11.254 -0.3194 -0.4319  0.2556
  951MOL0     C28276   7.615   4.790  11.179  0.8059  0.0479  0.1406
  951MOL0     C28277   7.576   4.659  11.209  0.0090 -1.2037  0.0938
  951MOL0     C28278   7.494   4.634  11.319  0.5906  0.2248  0.5654
  951MOL0     C28279   7.472   4.491  11.356  0.1610  0.9768  0.1508
  951MOL0     O28280   7.385   4.473  11.461  0.4170  0.4678  0.8776
  951MOL0     C28281   7.360   4.342  11.502 -0.2755 -0.6437 -0.2812
  951MOL0     C28282   7.270   4.268  11.421 -0.4919 -0.2354 -0.0756
  951MOL0     C28283   7.256   4.131  11.449  0.4426 -0.2112  0.2298
  951MOL0     C28284   7.321   4.068  11.557  0.0301 -0.0908 -0.3384
  951MOL0     O28285   7.320   3.929  11.575 -0.1003 -0.5612 -1.3090
  951MOL0     C28286   7.295   3.830  11.479  0.2265 -0.3303  0.6791
  951MOL0     C28287   7.310   3.694  11.529 -0.1512 -0.2838 -0.1049
  951MOL0     C28288   7.329   3.601  11.421 -0.1623  0.7324 -0.2511
  951MOL0     C28289   7.320   3.457  11.472  0.2543 -0.5533 -0.4237
  951MOL0     C28290   7.305   3.350  11.363  0.6899 -1.6652  0.1932
  951MOL0     C28291   7.285   3.213  11.425  0.2042 -0.4809 -0.4176
  951MOL0     C28292   7.299   3.107  11.314 -1.0934 -0.2764 -0.2129
  951MOL0     C28293   7.280   2.970  11.373  0.0680 -1.1106 -0.5224
  951MOL0    Cl28294   7.306   2.871  11.228 -0.2485 -0.1262  0.0820
  951MOL0     C28295   7.393   4.153  11.647  0.7418 -0.6952  0.5699
  951MOL0     C28296   7.423   4.284  11.617 -0.5722  0.6549 -0.5907
  951MOL0     O28297   7.525   4.400  11.295  0.1280  1.0931  0.0435
  951MOL0     C28298   7.441   4.750  11.391 -0.6352  0.9313  0.6670
  951MOL0     C28299   7.482   4.877  11.362 -0.1688 -0.8364  0.7101
  951MOL0     N28300   7.537   5.140  10.765  0.4919  0.5048 -0.2519
  951MOL0     N28301   7.454   5.212  10.696 -0.1768  0.0228  0.9048
  951MOL0     C28302   7.263   4.831  10.270  0.1447 -1.0277 -0.0356
  951MOL0     C28303   7.316   4.712  10.322  0.1982 -0.9706  0.1789
  951MOL0     C28304   7.283   4.252  10.441 -0.5832 -0.0064 -0.7686
  951MOL0     C28305   7.419   4.264  10.454 -0.9465  0.6994 -0.3786
  951MOL0     C28306   7.506   4.161  10.429  0.0835  0.1114  0.8018
  951MOL0     C28307   7.456   4.036  10.393 -0.3049  0.4034 -1.1852
  951MOL0     O28308   7.549   3.938  10.377 -0.3627 -0.2215 -0.4521
  951MOL0     C28309   7.512   3.802  10.393 -0.2444 -0.5246 -0.1125
  951MOL0     C28310   7.638   3.708  10.389  1.0313 -0.3455 -1.2188
  951MOL0     C28311   7.695   3.694  10.256  0.6710 -0.1491 -0.3193
  951MOL0     C28312   7.796   3.577  10.232  0.0242 -0.5977 -0.4386
  951MOL0     C28313   7.910   3.583  10.330  0.1331 -0.0238 -0.1476
  951MOL0     C28314   8.000   3.594  10.415  0.8268  0.0826  0.8027
  951MOL0     C28315   7.312   4.017  10.378 -0.1067 -0.0618 -1.1704
  951MOL0     C28316   7.229   4.133  10.393 -0.0527 -0.1064  0.2579
  951MOL0     C28317   7.089   4.104  10.343  0.1157 -0.2836 -0.0555
  951MOL0     H28318   7.029   4.530  10.297  0.7702  0.3811 -0.8355
  951MOL0     H28319   6.932   4.748  10.256 -0.8400 -0.7565 -4.0142
  951MOL0     H28320   7.007   4.976  10.043  0.9154  1.1813  0.1171
  951MOL0     H28321   6.874   4.974  10.167 -0.7781 -1.5261 -2.1628
  951MOL0     H28322   6.923   5.181  10.254 -0.2573  0.7815 -0.1112
  951MOL0     H28323   6.876   5.152  10.074  1.5566 -0.4508 -2.7510
  951MOL0     H28324   7.018   5.351  10.099  5.6381  2.6630 -0.3733
  951MOL0     H28325   7.106   5.233  10.019 -0.5868 -0.8939 -0.8748
  951MOL0     H28326   7.106   5.307  10.321 -0.0054 -0.2457 -0.9670
  951MOL0     H28327   7.222   5.187  10.263  1.6182  1.6515  3.2718
  951MOL0     H28328   7.344   5.358  10.133  0.6847  1.2985  0.1472
  951MOL0     H28329   7.204   5.470  10.166  2.5408 -0.2224 -0.8291
  951MOL0     H28330   7.395   5.525  10.308 -0.9839  2.2325  2.9869
  951MOL0     H28331   7.259   5.474  10.396 -1.2319 -0.4699 -1.8388
  951MOL0     H28332   7.520   5.320  10.346  1.1216 -1.8493  1.2677
  951MOL0     H28333   7.365   5.250  10.415  0.8043  0.5362 -0.8978
  951MOL0     H28334   7.540   5.473  10.511  0.8887 -0.6732 -2.0231
  951MOL0     H28335   7.382   5.433  10.594  1.4545 -1.1260  1.7265
  951MOL0     H28336   7.735   5.339  10.586 -2.0479  2.1747  1.1910
  951MOL0     H28337   7.756   5.002  10.774 -0.7500  0.2792 -2.7402
  951MOL0     H28338   7.865   5.116  10.714  0.4519  0.8247  1.3254
  951MOL0     H28339   7.904   5.073  10.965 -0.1031  0.1296  1.0085
  951MOL0     H28340   7.824   5.231  10.953 -1.0554  0.5304  3.3585
  951MOL0     H28341   7.653   4.983  10.982 -1.8504  1.7652  2.0489
  951MOL0     H28342   7.628   5.151  11.009 -1.2818 -0.8402 -0.9683
  951MOL0     H28343   7.761   5.168  11.201 -0.3428  0.4182 -3.2367
  951MOL0     H28344   7.821   4.997  11.208  0.5622  1.4236  3.6493
  951MOL0     H28345   7.676   4.820  11.094 -0.3063  3.4917  0.4409
  951MOL0     H28346   7.617   4.583  11.144  1.9060 -1.0454  1.0398
  951MOL0     H28347   7.231   4.324  11.336  1.5800 -1.7042 -2.1336
  951MOL0     H28348   7.200   4.063  11.386  1.8592  0.6149 -2.0293
  951MOL0     H28349   7.195   3.854  11.443  0.3945  0.3201  0.6400
  951MOL0     H28350   7.354   3.850  11.389 -0.4281  0.7118  0.4679
  951MOL0     H28351   7.405   3.691  11.584  0.2421 -0.0170 -0.7643
  951MOL0     H28352   7.228   3.663  11.595 -0.7545  1.4098 -0.0047
  951MOL0     H28353   7.273   3.622  11.330 -3.4326  1.9466  1.8525
  951MOL0     H28354   7.434   3.617  11.396  0.1589  3.3037  2.1664
  951MOL0     H28355   7.231   3.456  11.536  0.5556 -0.3329  0.0039
  951MOL0     H28356   7.410   3.437  11.531 -0.7921  0.2491  1.5388
  951MOL0     H28357   7.401   3.343  11.310  1.7509  0.8547  1.5944
  951MOL0     H28358   7.217   3.373  11.302  0.7344  2.0529  1.3121
  951MOL0     H28359   7.371   3.199  11.491  1.8273 -2.1225 -2.7252
  951MOL0     H28360   7.192   3.196  11.481  1.4604  1.3768  2.4829
  951MOL0     H28361   7.398   3.121  11.271  1.3461  2.5005  5.3323
  951MOL0     H28362   7.225   3.130  11.236  0.0413  1.0807 -0.9197
  951MOL0     H28363   7.353   2.958  11.453  2.1070  2.4619 -1.5833
  951MOL0     H28364   7.177   2.955  11.406 -1.3059  3.5857 -1.9282
  951MOL0     H28365   7.422   4.108  11.742  0.5668  0.1980  1.0671
  951MOL0     H28366   7.493   4.333  11.683 -1.6588 -1.7400  2.5771
  951MOL0     H28367   7.379   4.737  11.480 -1.8841  0.7329 -0.1964
  951MOL0     H28368   7.444   4.967  11.409  0.7605 -1.3164  2.4675
  951MOL0     H28369   7.334   4.911  10.251  0.6783 -1.1437  1.3861
  951MOL0     H28370   7.424   4.702  10.329  0.1923 -3.1982 -1.5527
  951MOL0     H28371   7.462   4.363  10.460  0.4957  0.0014  2.3494
  951MOL0     H28372   7.613   4.175  10.442  0.2233 -0.4931  0.3804
  951MOL0     H28373   7.439   3.776  10.315 -0.1077  2.4764 -1.3529
  951MOL0     H28374   7.459   3.783  10.487 -2.8419 -3.6844 -2.0017
  951MOL0     H28375   7.603   3.607  10.410 -2.0434  0.8687  0.1050
  951MOL0     H28376   7.712   3.745  10.460  0.0362 -0.3746 -0.1435
  951MOL0     H28377   7.734   3.790  10.224  0.2105  0.0092 -0.4187
  951MOL0     H28378   7.617   3.655  10.190  1.2831  0.3974 -1.3855
  951MOL0     H28379   7.752   3.476  10.238 -0.6198 -0.4151 -1.6557
  951MOL0     H28380   7.849   3.584  10.136 -2.2461  0.0897 -1.7227
  951MOL0     H28381   8.074   3.597  10.493 -2.3692  1.9173  4.0837
  951MOL0     H28382   7.268   3.923  10.349 -1.6115  0.4449 -0.5951
  951MOL0     H28383   7.012   4.124  10.418 -2.4872  0.7577 -2.8373
  951MOL0     H28384   7.066   4.170  10.259  1.5908  1.9530  1.1755
  951MOL0     H28385   7.075   4.000  10.312  1.0823 -0.8225  1.1908
  952MOL0     O28386   7.539   4.329   3.214 -0.1660  0.1796  0.1583
  952MOL0     C28387   7.529   4.357   3.335  0.8044 -0.1122  0.1678
  952MOL0     O28388   7.454   4.454   3.395 -0.5083 -0.1132  0.8286
  952MOL0     C28389   7.333   4.499   3.341 -1.1990  0.1230 -0.0680
  952MOL0     C28390   7.214   4.465   3.401  1.3010 -0.0132  0.0673
  952MOL0     C28391   7.091   4.472   3.326 -0.3039 -0.0699  0.9488
  952MOL0     C28392   7.089   4.542   3.205  0.1864  1.2033 -0.2589
  952MOL0     O28393   6.967   4.571   3.157  0.3828 -0.7313  0.6089
  952MOL0     C28394   6.955   4.605   3.025  2.0607  0.0258  0.8437
  952MOL0     C28395   6.812   4.617   2.981  0.4068  0.8505  0.6800
  952MOL0     C28396   6.787   4.695   2.843  0.6673 -0.2779 -0.0072
  952MOL0     C28397   6.862   4.610   2.728  0.7161  0.3187  0.5248
  952MOL0     C28398   6.809   4.628   2.584  0.5220 -0.3880  0.4477
  952MOL0     C28399   6.669   4.576   2.566  0.6394 -0.2188 -1.3767
  952MOL0     C28400   6.595   4.578   2.433 -0.2185 -0.6277  0.3298
  952MOL0     C28401   6.452   4.534   2.446 -0.6149  0.2017 -0.0816
  952MOL0     N28402   6.374   4.552   2.325 -0.3566 -1.0925 -0.4525
  952MOL0     C28403   6.416   4.580   2.199  0.5208  0.3742  1.0208
  952MOL0     C28404   6.306   4.594   2.122  0.2039  0.6581  0.1670
  952MOL0     C28405   6.299   4.618   1.973 -1.0697  0.0452  1.0028
  952MOL0     C28406   6.221   4.508   1.893 -0.4870  1.1043 -0.5027
  952MOL0     C28407   6.242   4.530   1.740  0.0152 -0.6030  0.4265
  952MOL0     C28408   6.363   4.464   1.681 -0.6864  0.4214 -0.4115
  952MOL0     O28409   6.367   4.325   1.725  0.7575 -0.4762 -0.4609
  952MOL0     C28410   6.328   4.213   1.650  0.6499 -0.5828  0.0186
  952MOL0     C28411   6.337   4.199   1.509 -0.3831 -0.5148  0.6785
  952MOL0     C28412   6.290   4.089   1.442  0.7527 -0.4392  1.0438
  952MOL0     C28413   6.234   3.983   1.513 -0.2342 -0.4367  0.3532
  952MOL0     C28414   6.154   3.880   1.444  0.5950 -0.6748  0.6270
  952MOL0     O28415   6.097   3.782   1.517 -0.2729  0.2462 -0.8872
  952MOL0     C28416   6.037   3.679   1.434  0.3144  0.2758  0.5728
  952MOL0     C28417   6.108   3.595   1.355 -0.8403  1.2654 -0.2840
  952MOL0     C28418   6.040   3.509   1.271  1.0315 -1.5593  0.3749
  952MOL0     C28419   5.898   3.503   1.274 -0.1728 -0.4640  0.1229
  952MOL0     O28420   5.847   3.410   1.180 -0.5783 -0.9116  0.0499
  952MOL0     C28421   5.720   3.364   1.190 -0.0835 -1.2016 -0.1596
  952MOL0     C28422   5.707   3.268   1.306  0.0984  0.2491  0.3453
  952MOL0     C28423   5.591   3.166   1.292  0.7755 -0.6277 -0.7324
  952MOL0     C28424   5.582   3.082   1.426 -0.2555  0.0126 -0.4445
  952MOL0     C28425   5.451   3.013   1.437 -0.0436  0.2502 -0.9239
  952MOL0     C28426   5.443   2.901   1.338  0.7326 -0.1763 -0.5016
  952MOL0     C28427   5.320   2.813   1.350 -0.2617  0.1699  0.0146
  952MOL0     C28428   5.328   2.709   1.461  0.6722  0.2799  0.3537
  952MOL0    Cl28429   5.165   2.633   1.472  0.1762  0.1486 -0.2915
  952MOL0     C28430   5.830   3.593   1.360  0.6605  0.2554  0.0721
  952MOL0     C28431   5.893   3.680   1.438 -0.5300  0.0094  0.0981
  952MOL0     O28432   6.157   3.880   1.321  0.6386  0.0657  0.1987
  952MOL0     C28433   6.230   3.994   1.652  0.7440 -0.0311  0.6406
  952MOL0     C28434   6.270   4.106   1.717  0.1092 -0.6555 -0.0576
  952MOL0     N28435   6.191   4.580   2.209 -0.3605  0.0471 -0.3889
  952MOL0     N28436   6.234   4.555   2.327 -0.6648 -0.1688  0.0742
  952MOL0     C28437   7.215   4.575   3.138  0.1412 -0.5295 -0.3709
  952MOL0     C28438   7.332   4.551   3.209 -0.4703 -0.3324 -1.1297
  952MOL0     C28439   7.619   4.290   3.425  0.1189  0.2113 -0.7335
  952MOL0     C28440   7.586   4.163   3.462 -0.1883 -0.0580 -0.4260
  952MOL0     C28441   7.650   4.104   3.567 -0.5936  0.3870  0.0774
  952MOL0     C28442   7.768   4.164   3.619  0.7957  0.8235 -0.5644
  952MOL0     O28443   7.855   4.099   3.701 -0.5089  0.3585  0.2376
  952MOL0     C28444   7.876   3.957   3.703  0.6661  0.9529 -0.2838
  952MOL0     C28445   7.858   3.920   3.852 -0.6692 -0.0378  0.3349
  952MOL0     C28446   7.909   3.786   3.893 -0.5529  0.1655 -1.4023
  952MOL0     C28447   7.945   3.778   4.042  0.5324 -0.4580 -0.2812
  952MOL0     C28448   7.839   3.839   4.135  0.8807 -0.5974  0.8528
  952MOL0     C28449   7.755   3.884   4.209 -0.3083  0.6772  0.8702
  952MOL0     C28450   7.806   4.290   3.589  1.1706 -0.5327  0.4904
  952MOL0     C28451   7.728   4.355   3.486 -0.6643 -0.0897  0.4902
  952MOL0     C28452   7.760   4.501   3.464 -0.1577 -0.3579 -0.5633
  952MOL0     H28453   7.203   4.427   3.502 -3.3614  0.3475 -0.0672
  952MOL0     H28454   6.992   4.447   3.362 -1.2482  4.7783  2.5201
  952MOL0     H28455   7.006   4.699   3.006 -0.1157  1.6972  2.7044
  952MOL0     H28456   7.002   4.525   2.967  0.7024 -0.5692  0.5325
  952MOL0     H28457   6.759   4.675   3.056 -1.2441  3.3715 -2.2375
  952MOL0     H28458   6.768   4.517   2.979  2.3629 -0.0786  1.6287
  952MOL0     H28459   6.821   4.799   2.847  1.8748 -0.4628 -3.1218
  952MOL0     H28460   6.679   4.686   2.829  0.7911 -1.7072 -0.2240
  952MOL0     H28461   6.968   4.637   2.731  1.1798 -1.2876 -0.2772
  952MOL0     H28462   6.855   4.501   2.738 -1.6321  0.2068 -1.4817
  952MOL0     H28463   6.803   4.736   2.568  2.4732 -0.6600 -3.0629
  952MOL0     H28464   6.869   4.578   2.508  0.8130 -1.6208  1.4631
  952MOL0     H28465   6.665   4.478   2.614  0.0216  0.1774 -0.5864
  952MOL0     H28466   6.605   4.630   2.636  0.8384 -1.9275  0.2010
  952MOL0     H28467   6.639   4.505   2.364 -0.5313  1.6078 -2.4056
  952MOL0     H28468   6.605   4.677   2.388 -0.2902  0.4673  2.5548
  952MOL0     H28469   6.448   4.429   2.476  3.5561  0.4169  1.8778
  952MOL0     H28470   6.420   4.589   2.535  0.4480  0.1880  0.3285
  952MOL0     H28471   6.519   4.599   2.172  0.6110 -0.7626  0.5078
  952MOL0     H28472   6.247   4.712   1.951  0.4252 -0.0138 -4.3200
  952MOL0     H28473   6.402   4.623   1.938 -1.7017  2.7351 -0.8406
  952MOL0     H28474   6.251   4.407   1.923  3.7346  2.2307 -0.2671
  952MOL0     H28475   6.116   4.523   1.917 -0.8774 -2.0581  0.1422
  952MOL0     H28476   6.241   4.639   1.736 -2.9049 -0.5256  0.9545
  952MOL0     H28477   6.157   4.506   1.676 -1.6184  1.4378  1.6800
  952MOL0     H28478   6.450   4.519   1.718 -0.5441  0.1455 -0.3313
  952MOL0     H28479   6.370   4.464   1.572  1.7321  1.6877 -0.3305
  952MOL0     H28480   6.385   4.276   1.451 -1.6275  2.2548  3.0549
  952MOL0     H28481   6.301   4.099   1.334 -0.9538  1.8744  1.0169
  952MOL0     H28482   6.215   3.605   1.364 -0.9388  0.5351  2.5623
  952MOL0     H28483   6.092   3.450   1.196 -0.0552 -4.8613  2.0350
  952MOL0     H28484   5.657   3.453   1.204  0.0289 -0.9788 -1.0272
  952MOL0     H28485   5.686   3.317   1.098  0.3443 -1.6055 -0.1170
  952MOL0     H28486   5.797   3.207   1.321  1.2047  2.0728  1.7138
  952MOL0     H28487   5.687   3.319   1.401 -3.5609 -0.1425 -0.0944
  952MOL0     H28488   5.506   3.234   1.281  0.4773 -0.3789  2.1319
  952MOL0     H28489   5.602   3.098   1.208 -0.0426 -1.9833  0.2194
  952MOL0     H28490   5.577   3.148   1.513  2.6476  0.5031 -0.5507
  952MOL0     H28491   5.671   3.018   1.426  1.4780  2.2871 -1.5775
  952MOL0     H28492   5.375   3.089   1.417  0.2088  1.4188  1.9353
  952MOL0     H28493   5.444   2.976   1.540 -1.7383  1.0912 -0.6954
  952MOL0     H28494   5.450   2.941   1.237  0.3398 -2.5522 -1.5429
  952MOL0     H28495   5.516   2.823   1.362 -0.8103 -1.8536 -1.0690
  952MOL0     H28496   5.300   2.766   1.253 -3.6848 -0.6474  0.9818
  952MOL0     H28497   5.236   2.883   1.360 -0.3671 -0.0437  0.6612
  952MOL0     H28498   5.396   2.625   1.443  1.4988  0.7938  1.0182
  952MOL0     H28499   5.345   2.752   1.560  1.6326  0.3823  0.1535
  952MOL0     H28500   5.722   3.603   1.362  0.8863  4.4310  0.5707
  952MOL0     H28501   5.837   3.756   1.493 -2.3072  0.2687 -1.9265
  952MOL0     H28502   6.188   3.920   1.720  1.6979 -2.6281 -1.4253
  952MOL0     H28503   6.259   4.123   1.824  1.2183  2.1432 -0.3182
  952MOL0     H28504   7.218   4.636   3.048 -0.5092  0.1816  0.0761
  952MOL0     H28505   7.425   4.570   3.157 -0.1987 -1.1490 -0.9554
  952MOL0     H28506   7.504   4.115   3.410  0.6775  0.3855 -2.2883
  952MOL0     H28507   7.625   4.003   3.597 -1.5093  0.6249  0.1434
  952MOL0     H28508   7.982   3.938   3.684  0.6147 -2.3145  1.8945
  952MOL0     H28509   7.803   3.896   3.649  1.1484 -0.1772  0.3157
  952MOL0     H28510   7.753   3.948   3.869  0.0046  4.2407 -1.2813
  952MOL0     H28511   7.919   3.987   3.912  0.3951 -1.5827  1.0304
  952MOL0     H28512   8.001   3.769   3.836  1.9332  3.7024  1.1596
  952MOL0     H28513   7.834   3.711   3.866 -0.9724  0.7784 -1.9945
  952MOL0     H28514   7.974   3.675   4.065  0.5677  0.0129  1.9892
  952MOL0     H28515   8.034   3.839   4.060 -0.2022  1.3127 -2.1949
  952MOL0     H28516   7.678   3.915   4.276 -2.2740  1.5402 -1.6373
  952MOL0     H28517   7.886   4.345   3.637  1.0785  1.8010 -1.7932
  952MOL0     H28518   7.830   4.533   3.542 -0.2136  1.5407 -1.2304
  952MOL0     H28519   7.812   4.527   3.372 -1.2601  2.3165 -0.5398
  952MOL0     H28520   7.669   4.562   3.467  1.8755  2.8616  0.3770
  953MOL0     O28521   5.411   0.730   5.028  0.4203  0.2594 -0.0458
  953MOL0     C28522   5.362   0.797   4.935  0.6062  0.1019  0.0350
  953MOL0     O28523   5.365   0.930   4.917  0.1129 -0.5447 -0.1255
  953MOL0     C28524   5.429   1.007   5.006  0.5579 -1.4556 -0.2639
  953MOL0     C28525   5.517   1.099   4.944  0.6988  0.3756 -0.9157
  953MOL0     C28526   5.588   1.194   5.014 -0.1024  0.5823 -0.4396
  953MOL0     C28527   5.559   1.220   5.146  0.5105  0.4754 -1.1474
  953MOL0     O28528   5.619   1.330   5.204  0.1361  0.0456  0.1287
  953MOL0     C28529   5.600   1.357   5.334  0.6089 -0.5170 -0.8629
  953MOL0     C28530   5.665   1.490   5.382  0.1283  0.5964 -0.0292
  953MOL0     C28531   5.584   1.547   5.499  0.4190 -0.0467  0.4136
  953MOL0     C28532   5.649   1.680   5.549 -0.0430  0.1678 -0.9177
  953MOL0     C28533   5.562   1.757   5.657  0.0201  1.1037 -0.3033
  953MOL0     C28534   5.624   1.883   5.720  0.0205 -0.2760  0.7998
  953MOL0     C28535   5.512   1.982   5.760  0.1256 -0.1443 -0.7454
  953MOL0     C28536   5.560   2.088   5.867  0.8821 -0.6370  0.1552
  953MOL0     N28537   5.470   2.201   5.881  0.4906  1.0230 -0.3219
  953MOL0     C28538   5.352   2.196   5.956  0.8949 -0.3782  0.3933
  953MOL0     C28539   5.308   2.321   5.966  0.9214 -0.6981  0.4341
  953MOL0     C28540   5.187   2.375   6.038  0.0063  0.3440 -0.1793
  953MOL0     C28541   5.064   2.287   6.022 -0.1428  1.3598  0.1992
  953MOL0     C28542   4.951   2.357   6.104  0.4997 -0.6321 -0.2348
  953MOL0     C28543   4.814   2.318   6.054  0.6679 -0.2626 -0.1227
  953MOL0     O28544   4.817   2.175   6.034 -0.3626  0.6641 -0.1416
  953MOL0     C28545   4.707   2.115   5.992 -0.3975  0.0385 -0.7088
  953MOL0     C28546   4.590   2.179   5.957 -0.1221 -0.2836  0.4814
  953MOL0     C28547   4.489   2.108   5.906 -0.0438  0.1396  0.6700
  953MOL0     C28548   4.483   1.965   5.920 -0.9981  0.0130  0.4073
  953MOL0     C28549   4.361   1.897   5.883 -0.4077  0.1120  0.5238
  953MOL0     O28550   4.274   1.985   5.845  0.8138 -0.2218 -0.1246
  953MOL0     C28551   4.151   1.941   5.801 -1.1800 -0.3137  0.0297
  953MOL0     C28552   4.066   1.868   5.884  0.0586 -0.0653  0.0521
  953MOL0     C28553   3.939   1.831   5.851  0.4243  0.8464  1.1250
  953MOL0     C28554   3.896   1.868   5.718 -0.3648 -0.0029 -0.2576
  953MOL0     O28555   3.783   1.829   5.670  0.5670  0.5119  1.1074
  953MOL0     C28556   3.664   1.868   5.736  0.4235 -0.4757  0.4111
  953MOL0     C28557   3.552   1.820   5.642 -0.2698 -0.6441 -0.0662
  953MOL0     C28558   3.536   1.919   5.532  0.0982  0.2953  0.4180
  953MOL0     C28559   3.422   1.869   5.449  0.1403  0.5928 -0.2981
  953MOL0     C28560   3.377   1.970   5.347  0.1678 -0.6275  0.3677
  953MOL0     C28561   3.333   1.916   5.209  0.1903  1.3295 -1.1715
  953MOL0     C28562   3.203   1.846   5.236  0.0603 -0.7154 -0.8004
  953MOL0     C28563   3.196   1.735   5.135  0.8744  0.5387  0.3837
  953MOL0    Cl28564   3.019   1.691   5.148 -0.1884 -0.0490  0.0130
  953MOL0     C28565   3.981   1.941   5.628  0.1562  0.2951 -0.3838
  953MOL0     C28566   4.110   1.977   5.670  0.7953  0.0565 -0.7561
  953MOL0     O28567   4.342   1.778   5.893 -0.2896 -0.0788  0.1134
  953MOL0     C28568   4.599   1.894   5.956 -0.4528  0.4374 -0.6889
  953MOL0     C28569   4.710   1.973   5.991  0.2461 -0.3130 -0.5254
  953MOL0     N28570   5.405   2.405   5.913 -0.3404 -0.1341  0.1712
  953MOL0     N28571   5.498   2.328   5.853  0.7310  0.2835 -1.0110
  953MOL0     C28572   5.448   1.142   5.210 -0.3009  0.1040  0.0369
  953MOL0     C28573   5.390   1.037   5.137  0.1709 -0.2097 -1.1794
  953MOL0     C28574   5.284   0.724   4.840  0.7100 -0.4166  0.6009
  953MOL0     C28575   5.179   0.644   4.876 -0.1820  0.2707 -1.1356
  953MOL0     C28576   5.104   0.571   4.785 -0.6006 -0.5241 -0.0021
  953MOL0     C28577   5.120   0.571   4.647 -0.0962 -0.2675 -0.5178
  953MOL0     O28578   5.034   0.502   4.568  0.9935  0.4534  0.7174
  953MOL0     C28579   5.057   0.515   4.425  0.5230 -0.2935 -0.8496
  953MOL0     C28580   4.967   0.419   4.347  0.1206  0.8808 -0.5027
  953MOL0     C28581   4.817   0.441   4.339  0.2926  0.3671  0.0032
  953MOL0     C28582   4.749   0.308   4.287 -0.7782 -0.5147  0.1559
  953MOL0     C28583   4.780   0.267   4.150 -0.1894 -0.5290 -0.0163
  953MOL0     C28584   4.797   0.262   4.034  0.0528  0.6777  0.5001
  953MOL0     C28585   5.223   0.657   4.613  0.1115  0.5937 -0.6666
  953MOL0     C28586   5.316   0.729   4.702 -0.4908 -0.0574 -0.0832
  953MOL0     C28587   5.441   0.813   4.658  1.4693 -0.1456 -0.1950
  953MOL0     H28588   5.551   1.060   4.849  0.7461 -3.0610  0.3723
  953MOL0     H28589   5.669   1.262   4.990  0.5284 -0.6403 -1.8924
  953MOL0     H28590   5.493   1.351   5.357  0.9993  0.7747  1.5373
  953MOL0     H28591   5.643   1.270   5.385  1.5147 -0.3614 -1.3357
  953MOL0     H28592   5.660   1.559   5.297  1.8629  1.4365  0.4935
  953MOL0     H28593   5.769   1.474   5.411 -0.7530 -2.1362  2.0098
  953MOL0     H28594   5.580   1.473   5.579  0.6661 -0.3941  0.1115
  953MOL0     H28595   5.479   1.567   5.477 -0.0173 -1.6390  0.9051
  953MOL0     H28596   5.746   1.647   5.587  0.3423 -0.3196 -2.2597
  953MOL0     H28597   5.668   1.749   5.465  2.4718  0.3545 -0.2918
  953MOL0     H28598   5.466   1.784   5.612 -1.2222  1.5305  2.4450
  953MOL0     H28599   5.543   1.685   5.737  4.6618  0.8087  0.7989
  953MOL0     H28600   5.693   1.850   5.798  0.5064 -2.1979 -0.4035
  953MOL0     H28601   5.684   1.935   5.645 -0.0641  0.4087  1.1873
  953MOL0     H28602   5.431   1.922   5.804  0.0790  0.4096 -0.0613
  953MOL0     H28603   5.481   2.042   5.674 -0.9168  2.6084  1.3988
  953MOL0     H28604   5.563   2.040   5.965  2.5035 -4.2053 -1.4969
  953MOL0     H28605   5.659   2.131   5.847 -0.8360  2.5844 -2.4570
  953MOL0     H28606   5.297   2.117   6.004 -1.3995  0.2171 -1.0794
  953MOL0     H28607   5.210   2.388   6.144 -0.0226 -2.7513  0.2908
  953MOL0     H28608   5.158   2.474   6.003 -1.5184  0.9074  2.4532
  953MOL0     H28609   5.038   2.273   5.917  0.7547 -0.4695  0.1787
  953MOL0     H28610   5.075   2.183   6.053  1.8840  1.7122  0.8602
  953MOL0     H28611   4.959   2.465   6.096  3.1463 -0.4524  2.6183
  953MOL0     H28612   4.952   2.326   6.210 -0.0496  0.4574  0.1008
  953MOL0     H28613   4.807   2.374   5.960  0.7249  0.3545  0.2341
  953MOL0     H28614   4.736   2.356   6.121  2.9865  0.4286  2.3699
  953MOL0     H28615   4.582   2.288   5.953 -1.3203 -0.3688 -0.1010
  953MOL0     H28616   4.413   2.174   5.866  1.6003  0.6148 -1.8819
  953MOL0     H28617   4.101   1.839   5.983  1.9761  0.2197 -0.5174
  953MOL0     H28618   3.869   1.783   5.919 -1.1263  1.2300 -0.1368
  953MOL0     H28619   3.659   1.813   5.830 -1.6797  1.3603  1.4594
  953MOL0     H28620   3.667   1.976   5.749  2.0812 -0.5858  1.2092
  953MOL0     H28621   3.579   1.721   5.605 -1.1786 -0.9231 -0.0295
  953MOL0     H28622   3.457   1.813   5.697 -0.8921 -0.4847 -1.0804
  953MOL0     H28623   3.506   2.012   5.580  1.2867  0.0950  1.6237
  953MOL0     H28624   3.625   1.937   5.471 -0.6953  3.5669  0.0541
  953MOL0     H28625   3.337   1.850   5.515  0.2754 -1.4776 -0.6352
  953MOL0     H28626   3.449   1.771   5.409 -1.1310 -0.0492  0.3490
  953MOL0     H28627   3.454   2.048   5.350  0.4909 -0.9606  2.5424
  953MOL0     H28628   3.289   2.019   5.389 -0.0398 -2.6160  2.4193
  953MOL0     H28629   3.323   1.997   5.137 -0.2359  3.5377  1.2125
  953MOL0     H28630   3.416   1.848   5.187 -0.5573 -1.3293  2.9761
  953MOL0     H28631   3.118   1.909   5.208 -2.3846 -3.2728  0.2961
  953MOL0     H28632   3.179   1.806   5.335  0.3251  0.2400 -0.3426
  953MOL0     H28633   3.212   1.768   5.032 -3.8026  1.8143 -0.1406
  953MOL0     H28634   3.259   1.647   5.154 -2.2367 -1.6829  1.2849
  953MOL0     H28635   3.947   1.959   5.526  1.5911 -0.1319 -0.9561
  953MOL0     H28636   4.183   2.024   5.605  3.5020 -2.5963  0.1179
  953MOL0     H28637   4.607   1.787   5.966  0.0084  0.5774  0.5709
  953MOL0     H28638   4.802   1.920   6.014  0.4199  0.0159 -0.4538
  953MOL0     H28639   5.416   1.151   5.313 -1.6666  0.8337 -0.4288
  953MOL0     H28640   5.310   0.988   5.191  0.4447  3.3206  2.9936
  953MOL0     H28641   5.153   0.632   4.981 -1.9003  0.6799 -1.4985
  953MOL0     H28642   5.024   0.508   4.822  0.9376 -2.1178  0.7407
  953MOL0     H28643   5.161   0.509   4.391 -0.2005 -2.4828 -2.9070
  953MOL0     H28644   5.020   0.618   4.419  0.1391 -0.3632  0.0659
  953MOL0     H28645   4.978   0.325   4.403  1.0878  2.1963  1.6646
  953MOL0     H28646   5.008   0.404   4.247 -0.6467 -2.6147 -0.4308
  953MOL0     H28647   4.792   0.519   4.267 -1.4552 -0.1580 -0.0118
  953MOL0     H28648   4.776   0.461   4.439 -0.7425 -2.6537  0.3056
  953MOL0     H28649   4.773   0.226   4.356 -0.8460  1.1776  2.3219
  953MOL0     H28650   4.641   0.324   4.283 -0.5516  0.9793 -1.0284
  953MOL0     H28651   4.828   0.255   3.931  2.7799  1.7633  1.1609
  953MOL0     H28652   5.252   0.658   4.509 -0.9780 -0.8902 -1.0226
  953MOL0     H28653   5.426   0.915   4.694 -1.7862 -0.7111  0.3057
  953MOL0     H28654   5.535   0.780   4.702  0.9573 -0.5170  0.6426
  953MOL0     H28655   5.451   0.820   4.549 -0.2950  2.2790 -0.2842
  954MOL0     O28656   4.441   6.413   9.747  0.2090  0.8030  0.2389
  954MOL0     C28657   4.501   6.374   9.846  0.0032 -0.3723  0.1724
  954MOL0     O28658   4.527   6.442   9.959 -1.0276  0.1107  0.0790
  954MOL0     C28659   4.450   6.557   9.987 -0.7790 -0.0159  1.1853
  954MOL0     C28660   4.425   6.595  10.118  0.1282  0.2383 -0.0348
  954MOL0     C28661   4.368   6.722  10.153  0.1329 -0.4212  0.7549
  954MOL0     C28662   4.333   6.815  10.049 -0.6076 -1.1412  0.7968
  954MOL0     O28663   4.295   6.945  10.075 -0.7749 -0.1148 -0.1009
  954MOL0     C28664   4.326   6.998  10.206 -0.2612 -1.4625 -0.0573
  954MOL0     C28665   4.290   7.148  10.197  0.4879  0.7661  1.1313
  954MOL0     C28666   4.353   7.227  10.090  1.0171  1.0707  0.2832
  954MOL0     C28667   4.503   7.243  10.113 -0.1008 -0.9345  0.1935
  954MOL0     C28668   4.576   7.352  10.035 -0.4579  0.0175  1.0586
  954MOL0     C28669   4.594   7.316   9.887 -0.3384 -0.6608 -0.2151
  954MOL0     C28670   4.714   7.396   9.828 -0.7424  0.2287  0.5573
  954MOL0     C28671   4.797   7.307   9.736  0.7909 -0.6546  0.5845
  954MOL0     N28672   4.900   7.386   9.671 -0.4731  0.1270 -1.1643
  954MOL0     C28673   4.907   7.529   9.665  0.2499  0.4157 -1.1535
  954MOL0     C28674   5.020   7.548   9.591  0.4641  0.2129  0.5154
  954MOL0     C28675   5.076   7.675   9.529  0.0242 -0.2070  0.7427
  954MOL0     C28676   5.014   7.801   9.570  0.3499  0.3775 -0.2196
  954MOL0     C28677   5.071   7.938   9.522  1.0673  0.5045 -0.1529
  954MOL0     C28678   5.212   7.958   9.565 -0.1695  0.5133 -0.3441
  954MOL0     O28679   5.307   7.902   9.477  0.0208  1.0761 -0.3799
  954MOL0     C28680   5.440   7.905   9.528 -0.3155 -0.4037  0.4451
  954MOL0     C28681   5.540   7.842   9.457  0.5260  0.2227 -0.0008
  954MOL0     C28682   5.667   7.831   9.503 -0.7019  1.1068  0.3467
  954MOL0     C28683   5.707   7.897   9.622  0.7113  0.2249  0.1646
  954MOL0     C28684   5.841   7.877   9.670  0.0509 -0.0864  0.0992
  954MOL0     O28685   5.869   7.916   9.796 -0.2511  0.3393  0.1017
  954MOL0     C28686   5.992   7.900   9.854 -0.1436 -0.2301 -0.0619
  954MOL0     C28687   5.994   7.860   9.989 -0.4705 -0.6842 -0.8510
  954MOL0     C28688   6.114   7.861  10.064  0.6902  0.4135  0.6869
  954MOL0     C28689   6.223   7.907  10.002 -0.4426 -0.7818  0.0843
  954MOL0     O28690   6.342   7.902  10.083  0.2091  0.0748 -0.4193
  954MOL0     C28691   6.472   7.967  10.045 -0.0403  0.5012 -1.0759
  954MOL0     C28692   6.578   7.985  10.167 -0.4448 -0.3043  0.4838
  954MOL0     C28693   6.522   8.082  10.274 -0.8477  0.5311 -0.3766
  954MOL0     C28694   6.618   8.117  10.398  0.6976 -0.0586 -0.3857
  954MOL0     C28695   6.552   8.184  10.518  0.2838  0.9733  0.0504
  954MOL0     C28696   6.448   8.096  10.588 -0.5723 -0.1501 -0.4838
  954MOL0     C28697   6.402   8.162  10.714 -0.3158  0.4954 -0.3461
  954MOL0     C28698   6.286   8.080  10.793  0.2118 -0.5974 -0.1125
  954MOL0    Cl28699   6.332   7.944  10.887 -0.0489  0.0865  0.3556
  954MOL0     C28700   6.223   7.948   9.873  0.8968  0.3324  0.2247
  954MOL0     C28701   6.106   7.950   9.800 -0.0348  0.3292  0.4032
  954MOL0     O28702   5.909   7.807   9.602  0.1911  0.5777 -0.5763
  954MOL0     C28703   5.616   7.979   9.690 -0.2426 -0.4824  0.3599
  954MOL0     C28704   5.485   7.984   9.646  1.2200 -0.3609 -0.6606
  954MOL0     N28705   5.076   7.434   9.546 -0.8675  0.3539 -0.1247
  954MOL0     N28706   4.999   7.344   9.594 -0.0704 -1.4895 -0.2551
  954MOL0     C28707   4.360   6.777   9.914  0.1564 -0.5140  0.4446
  954MOL0     C28708   4.413   6.651   9.884 -0.1759 -0.1809  0.1372
  954MOL0     C28709   4.567   6.239   9.843  0.1886  0.9159  0.4934
  954MOL0     C28710   4.518   6.145   9.757 -0.0021  0.4099 -0.5414
  954MOL0     C28711   4.580   6.017   9.738 -0.4217 -0.3223 -0.5692
  954MOL0     C28712   4.695   5.990   9.805 -0.3706  1.4966 -0.4985
  954MOL0     O28713   4.760   5.871   9.799  0.5622 -0.8998  0.5981
  954MOL0     C28714   4.752   5.800   9.677  1.1189  0.2605 -0.1431
  954MOL0     C28715   4.631   5.698   9.683 -0.3776  0.5747  0.3251
  954MOL0     C28716   4.633   5.586   9.575  0.3203 -0.5288  0.5219
  954MOL0     C28717   4.754   5.493   9.591 -0.7760 -0.3981 -0.1836
  954MOL0     C28718   4.776   5.383   9.494  0.0519 -0.5727 -0.2836
  954MOL0     C28719   4.836   5.302   9.428  0.4693 -0.0382  0.3022
  954MOL0     C28720   4.743   6.075   9.899  0.1008 -0.8181 -0.5939
  954MOL0     C28721   4.690   6.207   9.913 -0.0596  0.7189 -0.2917
  954MOL0     C28722   4.750   6.297  10.020 -0.1518  0.4663 -0.3935
  954MOL0     H28723   4.465   6.527  10.192  0.0637 -1.6308 -1.6300
  954MOL0     H28724   4.346   6.749  10.256 -1.3265  0.0167  0.3542
  954MOL0     H28725   4.271   6.951  10.287 -1.1411 -2.7157 -1.3355
  954MOL0     H28726   4.430   6.985  10.237 -0.2112  2.5086  2.0304
  954MOL0     H28727   4.290   7.195  10.296 -1.0008  0.6581  1.2013
  954MOL0     H28728   4.185   7.151  10.168  0.8666 -1.3456 -0.7583
  954MOL0     H28729   4.304   7.322  10.068 -1.5558 -0.6156 -1.8099
  954MOL0     H28730   4.354   7.179   9.992 -1.0475  0.0065  0.7313
  954MOL0     H28731   4.521   7.271  10.217  1.3429 -1.9180  0.2456
  954MOL0     H28732   4.548   7.146  10.090 -0.7593 -0.8228 -1.7399
  954MOL0     H28733   4.529   7.451  10.041  1.5070  1.0368  0.4767
  954MOL0     H28734   4.673   7.359  10.084 -0.6137  1.5663  1.1795
  954MOL0     H28735   4.611   7.210   9.870 -2.2574 -1.1312  0.5956
  954MOL0     H28736   4.501   7.334   9.833 -0.7360  1.7328  1.1107
  954MOL0     H28737   4.775   7.438   9.908 -0.7410  2.5349 -0.5450
  954MOL0     H28738   4.672   7.488   9.784  0.5428  0.6381  0.1631
  954MOL0     H28739   4.850   7.226   9.787  0.5735 -3.2418 -2.9465
  954MOL0     H28740   4.740   7.252   9.661  1.3087 -1.7629  0.9784
  954MOL0     H28741   4.839   7.603   9.705  1.1531  1.7365 -1.9822
  954MOL0     H28742   5.180   7.665   9.560  1.1919 -1.5871 -3.0449
  954MOL0     H28743   5.065   7.659   9.422  1.4098 -0.7248  0.6635
  954MOL0     H28744   4.907   7.796   9.546 -0.1932  2.4999  1.4919
  954MOL0     H28745   5.018   7.795   9.679  0.7917 -0.0452 -0.2544
  954MOL0     H28746   5.012   8.022   9.560  0.7789  0.8757 -1.3734
  954MOL0     H28747   5.057   7.943   9.413  0.9280  2.7072 -0.0693
  954MOL0     H28748   5.227   7.930   9.670 -0.1436  0.3423 -0.3924
  954MOL0     H28749   5.235   8.065   9.560  1.2798  0.1570 -2.0079
  954MOL0     H28750   5.531   7.783   9.366 -1.9572 -1.8061  1.4420
  954MOL0     H28751   5.734   7.760   9.456  1.5228  2.4058  1.4129
  954MOL0     H28752   5.901   7.839  10.040  0.4152 -3.4511 -0.1816
  954MOL0     H28753   6.120   7.833  10.168  0.1048 -0.4814  0.4985
  954MOL0     H28754   6.515   7.908   9.965  2.0189  0.4454  0.0162
  954MOL0     H28755   6.451   8.067  10.007  2.1052  0.9498 -1.1969
  954MOL0     H28756   6.591   7.890  10.218 -1.3164  0.6862  2.6742
  954MOL0     H28757   6.676   8.018  10.131  0.0357 -2.5631 -0.4148
  954MOL0     H28758   6.513   8.178  10.221  5.0307  0.5557 -2.0724
  954MOL0     H28759   6.418   8.060  10.299 -1.6436  1.7449 -2.3982
  954MOL0     H28760   6.695   8.182  10.355  0.0500  0.8355 -0.2118
  954MOL0     H28761   6.662   8.024  10.437 -1.1137 -0.9870 -0.4885
  954MOL0     H28762   6.498   8.274  10.487  0.4976  0.6439 -1.3570
  954MOL0     H28763   6.636   8.208  10.583  2.4128 -4.4154 -0.2241
  954MOL0     H28764   6.368   8.088  10.514  0.4226  0.9555 -1.7057
  954MOL0     H28765   6.492   8.000  10.616  0.5512  1.0238  2.1278
  954MOL0     H28766   6.358   8.257  10.682 -1.8647  0.1169  0.5147
  954MOL0     H28767   6.495   8.171  10.770  1.0335 -2.0330 -1.9934
  954MOL0     H28768   6.241   8.154  10.860 -0.6693  0.2160 -1.5586
  954MOL0     H28769   6.204   8.062  10.723  0.9077  2.4267 -1.9032
  954MOL0     H28770   6.313   7.977   9.821  0.2117  1.7314 -0.2429
  954MOL0     H28771   6.104   7.999   9.703  0.9333  0.0083  0.2163
  954MOL0     H28772   5.648   8.018   9.786  1.2404 -2.0810  0.5575
  954MOL0     H28773   5.415   8.037   9.711 -2.1169 -2.8739 -1.8978
  954MOL0     H28774   4.341   6.858   9.843  2.3164 -0.3339 -0.0031
  954MOL0     H28775   4.408   6.628   9.778  0.4158 -1.3767  0.3494
  954MOL0     H28776   4.432   6.180   9.701  0.0979 -1.1477 -1.7255
  954MOL0     H28777   4.550   5.957   9.652  1.3042  0.2279 -1.6080
  954MOL0     H28778   4.845   5.743   9.668  1.6617  1.1223 -0.1041
  954MOL0     H28779   4.748   5.866   9.590  0.7789  0.4049 -0.0186
  954MOL0     H28780   4.540   5.753   9.659 -0.5097  1.2880  2.2996
  954MOL0     H28781   4.630   5.659   9.785 -0.9758  0.7807  0.4033
  954MOL0     H28782   4.619   5.626   9.475 -3.7649 -1.5582  0.4863
  954MOL0     H28783   4.549   5.516   9.578  1.0539 -1.6153 -1.9307
  954MOL0     H28784   4.846   5.550   9.580 -0.5164 -0.3045  2.0702
  954MOL0     H28785   4.741   5.459   9.694  2.4514 -0.0289  0.4333
  954MOL0     H28786   4.887   5.220   9.380 -0.8945 -0.1280 -1.0542
  954MOL0     H28787   4.832   6.049   9.955  0.2733 -1.4752 -1.1757
  954MOL0     H28788   4.778   6.399   9.995  0.0639  0.8972  1.4842
  954MOL0     H28789   4.668   6.310  10.092  1.8831 -1.6834  2.5625
  954MOL0     H28790   4.834   6.249  10.071 -0.3259  0.6910  0.1150
  955MOL0     O28791   6.791   0.710   4.727 -0.5876  0.3614  0.1491
  955MOL0     C28792   6.850   0.713   4.838 -0.3326  1.9792 -0.9571
  955MOL0     O28793   6.810   0.637   4.940  0.8646  0.3490 -0.4085
  955MOL0     C28794   6.712   0.546   4.921 -0.0651  0.4243 -0.5550
  955MOL0     C28795   6.749   0.421   4.863  0.4360 -0.0702 -0.8834
  955MOL0     C28796   6.638   0.335   4.836 -0.0891 -0.0488 -0.0763
  955MOL0     C28797   6.501   0.371   4.862  0.2945  0.3261 -0.1382
  955MOL0     O28798   6.395   0.280   4.843 -0.2387  0.1705 -0.2994
  955MOL0     C28799   6.413   0.140   4.820 -0.4504  0.3228  0.9474
  955MOL0     C28800   6.451   0.061   4.943  0.8376 -0.2974  0.2352
  955MOL0     C28801   6.338   0.065   5.056 -0.5235 -0.2547  0.9154
  955MOL0     C28802   6.226  -0.038   5.037 -0.3520  0.8263  0.1553
  955MOL0     C28803   6.241  -0.172   5.110  0.1255 -0.0958 -0.1699
  955MOL0     C28804   6.366  -0.256   5.062  0.3034 -0.3114 -0.0975
  955MOL0     C28805   6.390  -0.380   5.150 -0.5463 -0.8887  0.8283
  955MOL0     C28806   6.287  -0.488   5.107 -0.6608 -0.2719  0.0313
  955MOL0     N28807   6.307  -0.606   5.183  1.0507  0.2343 -0.7813
  955MOL0     C28808   6.320  -0.733   5.140 -0.1339 -0.8051  0.3090
  955MOL0     C28809   6.327  -0.811   5.246  0.0253 -0.2078  0.3188
  955MOL0     C28810   6.352  -0.958   5.241 -0.2157  0.3833  0.1249
  955MOL0     C28811   6.302  -1.027   5.371 -0.3857  0.4538  0.9870
  955MOL0     C28812   6.380  -1.154   5.399 -0.2849  0.2725 -0.5013
  955MOL0     C28813   6.504  -1.149   5.492  0.0611  0.5592  0.5059
  955MOL0     O28814   6.491  -1.083   5.618 -0.1498  0.2598 -0.3724
  955MOL0     C28815   6.478  -1.150   5.736  0.0832 -0.3659 -0.0370
  955MOL0     C28816   6.439  -1.078   5.849 -0.0475  0.6461 -0.6341
  955MOL0     C28817   6.418  -1.127   5.977 -0.2650  0.3478  0.4191
  955MOL0     C28818   6.437  -1.261   6.002 -0.0464 -0.5698  0.3150
  955MOL0     C28819   6.388  -1.329   6.119 -0.3093 -0.3055  0.0362
  955MOL0     O28820   6.333  -1.453   6.107  0.3867 -0.4566 -0.2394
  955MOL0     C28821   6.296  -1.505   6.224  0.4008  0.5232 -0.0079
  955MOL0     C28822   6.373  -1.615   6.270 -0.2549 -0.4625  0.2580
  955MOL0     C28823   6.326  -1.684   6.384 -0.2267 -0.7986  1.0115
  955MOL0     C28824   6.211  -1.656   6.447  0.0710 -1.1429  0.0105
  955MOL0     O28825   6.156  -1.729   6.549 -0.2041  0.0023  0.0834
  955MOL0     C28826   6.170  -1.671   6.678 -0.0440 -0.5721 -1.0359
  955MOL0     C28827   6.045  -1.722   6.757 -0.3563 -0.9904  0.3781
  955MOL0     C28828   6.071  -1.696   6.907 -0.1775  0.4395  1.2130
  955MOL0     C28829   5.947  -1.708   6.999 -0.1640  0.0933  0.1776
  955MOL0     C28830   5.984  -1.728   7.139 -0.6644 -0.5559  0.4350
  955MOL0     C28831   5.865  -1.694   7.235  0.9018 -0.0697  0.2404
  955MOL0     C28832   5.899  -1.720   7.386  0.4793 -0.5472 -0.0576
  955MOL0     C28833   5.833  -1.621   7.484 -0.0839 -0.0964  0.0190
  955MOL0    Cl28834   5.663  -1.605   7.481  0.3371  0.5563 -0.2616
  955MOL0     C28835   6.134  -1.545   6.401 -0.7951  0.7184  0.0603
  955MOL0     C28836   6.179  -1.467   6.297 -0.4478  0.2682  1.0585
  955MOL0     O28837   6.414  -1.258   6.219 -0.0308  0.3637 -0.2272
  955MOL0     C28838   6.486  -1.339   5.893 -0.1871  0.2675 -0.0336
  955MOL0     C28839   6.500  -1.281   5.758  0.2256  0.2372 -0.0790
  955MOL0     N28840   6.298  -0.737   5.352 -0.5835 -0.2810 -0.7814
  955MOL0     N28841   6.271  -0.618   5.319  0.3536 -0.2772 -0.3144
  955MOL0     C28842   6.475   0.494   4.918  0.2302 -0.0484 -1.2667
  955MOL0     C28843   6.576   0.579   4.955  0.5287 -0.5154 -0.2473
  955MOL0     C28844   6.970   0.793   4.868  0.1937 -0.2288 -0.3348
  955MOL0     C28845   6.974   0.910   4.781 -0.7731  1.2818 -0.0086
  955MOL0     C28846   7.079   1.002   4.797  0.3364 -0.0778 -0.2674
  955MOL0     C28847   7.185   0.984   4.886  0.3520 -0.6680 -0.4765
  955MOL0     O28848   7.296   1.063   4.903 -0.0149  0.0357  0.1935
  955MOL0     C28849   7.311   1.162   4.809  0.3102  0.2792  0.4876
  955MOL0     C28850   7.447   1.242   4.822 -0.2605 -0.4447 -0.4971
  955MOL0     C28851   7.473   1.318   4.956  0.9337  0.6327  0.2618
  955MOL0     C28852   7.608   1.387   4.957  0.4111  0.4128 -0.7386
  955MOL0     C28853   7.613   1.483   4.849  0.3256 -0.5149 -0.3985
  955MOL0     C28854   7.607   1.561   4.753  0.3752 -0.0761  0.1926
  955MOL0     C28855   7.174   0.881   4.977 -0.2050  0.3051  0.2579
  955MOL0     C28856   7.074   0.779   4.965  0.0834  0.3867 -0.1257
  955MOL0     C28857   7.080   0.653   5.054  0.4865  0.6182  0.2718
  955MOL0     H28858   6.855   0.398   4.864  1.2943  3.2268 -2.0447
  955MOL0     H28859   6.678   0.251   4.780  0.8126  0.5632 -0.3748
  955MOL0     H28860   6.322   0.089   4.786  0.0085 -0.8491  1.4095
  955MOL0     H28861   6.491   0.133   4.743 -2.3392  1.9317 -1.2631
  955MOL0     H28862   6.549   0.085   4.985  1.8708 -0.4250 -1.9511
  955MOL0     H28863   6.453  -0.044   4.913 -0.0163 -0.1945 -0.2213
  955MOL0     H28864   6.301   0.168   5.059 -0.0510  0.0334 -1.0993
  955MOL0     H28865   6.382   0.053   5.155  2.6949  1.3458 -0.1434
  955MOL0     H28866   6.132   0.009   5.068 -0.8404 -0.7210  1.1908
  955MOL0     H28867   6.229  -0.060   4.930  0.8430 -0.3890  0.4111
  955MOL0     H28868   6.254  -0.168   5.219  0.6377 -4.1790  0.0893
  955MOL0     H28869   6.145  -0.223   5.099  0.0366  0.4651 -2.4036
  955MOL0     H28870   6.346  -0.282   4.957 -2.9399 -0.4745  0.4579
  955MOL0     H28871   6.457  -0.198   5.076 -1.2476  2.1681  0.3229
  955MOL0     H28872   6.363  -0.341   5.249  0.2902  1.7941  0.1032
  955MOL0     H28873   6.493  -0.414   5.142 -1.0334 -2.0708 -0.6896
  955MOL0     H28874   6.183  -0.461   5.126  0.1376  2.2766  1.3920
  955MOL0     H28875   6.309  -0.506   5.002 -1.0137 -0.2642 -0.0443
  955MOL0     H28876   6.338  -0.771   5.040 -1.1467  3.1183 -1.5540
  955MOL0     H28877   6.295  -1.007   5.161  1.5487 -1.8460  0.1346
  955MOL0     H28878   6.458  -0.974   5.218 -0.6618 -2.7704 -0.2429
  955MOL0     H28879   6.322  -0.966   5.460  2.0160 -1.2295  1.6882
  955MOL0     H28880   6.194  -1.046   5.361 -1.3624  5.6255 -2.2949
  955MOL0     H28881   6.419  -1.208   5.313  2.2523  0.8548  0.2093
  955MOL0     H28882   6.309  -1.219   5.451  2.1116 -1.1926  1.1063
  955MOL0     H28883   6.570  -1.088   5.429  0.0987 -0.4569 -0.4631
  955MOL0     H28884   6.552  -1.247   5.487 -1.9795 -0.4359 -1.7873
  955MOL0     H28885   6.414  -0.973   5.838 -0.4883  0.7561  1.1283
  955MOL0     H28886   6.381  -1.056   6.051  1.2362  2.4651 -0.7809
  955MOL0     H28887   6.463  -1.655   6.225  0.8642  0.9012  1.1888
  955MOL0     H28888   6.389  -1.767   6.417  3.0362  0.5493 -1.2064
  955MOL0     H28889   6.258  -1.705   6.734 -0.2056  3.5365  2.2298
  955MOL0     H28890   6.168  -1.562   6.681 -0.0051 -0.5485 -1.7773
  955MOL0     H28891   5.953  -1.679   6.716 -0.5272 -0.8003  0.9425
  955MOL0     H28892   6.040  -1.830   6.740 -2.5361 -0.9613  0.5226
  955MOL0     H28893   6.153  -1.763   6.936  1.2447  0.5065 -2.2444
  955MOL0     H28894   6.101  -1.591   6.907 -1.0604  0.8424 -2.7164
  955MOL0     H28895   5.878  -1.781   6.955 -1.8169  1.1649  0.9068
  955MOL0     H28896   5.895  -1.613   6.985  3.5024  2.0497 -1.4027
  955MOL0     H28897   6.070  -1.667   7.168 -1.2575 -0.6979  2.6774
  955MOL0     H28898   6.015  -1.831   7.157 -0.4609 -0.1554  2.7389
  955MOL0     H28899   5.843  -1.587   7.225 -2.9273 -0.6148  1.3039
  955MOL0     H28900   5.771  -1.746   7.216 -0.8410  2.7619  0.5378
  955MOL0     H28901   6.006  -1.717   7.409  0.4478  2.6417  0.1599
  955MOL0     H28902   5.863  -1.820   7.412 -0.7514  0.1027  0.8085
  955MOL0     H28903   5.862  -1.656   7.584  0.5422  3.2443  1.1349
  955MOL0     H28904   5.881  -1.524   7.469 -1.7716  0.6493 -0.8480
  955MOL0     H28905   6.051  -1.523   6.467  1.2031 -1.4559  3.5964
  955MOL0     H28906   6.117  -1.383   6.265 -1.3306 -1.6637 -3.0518
  955MOL0     H28907   6.508  -1.445   5.906  0.1167  0.2198 -0.8640
  955MOL0     H28908   6.520  -1.347   5.675 -0.5463 -2.0427  1.4419
  955MOL0     H28909   6.377   0.535   4.941  0.5050  1.2315 -2.2464
  955MOL0     H28910   6.563   0.670   5.013  2.7470  0.3202 -0.9607
  955MOL0     H28911   6.891   0.926   4.712 -0.9975 -2.0933 -0.7040
  955MOL0     H28912   7.072   1.089   4.733 -0.3577 -0.2842 -0.4901
  955MOL0     H28913   7.233   1.238   4.818  0.4295  0.6708 -1.3514
  955MOL0     H28914   7.312   1.118   4.708  2.8711 -4.0159  2.1433
  955MOL0     H28915   7.442   1.320   4.747  3.3044  3.0646  2.4771
  955MOL0     H28916   7.528   1.172   4.799 -1.7473 -1.6869 -2.1863
  955MOL0     H28917   7.460   1.238   5.030  1.4978 -4.1044 -4.1439
  955MOL0     H28918   7.393   1.392   4.962 -1.9674 -2.2610  0.1440
  955MOL0     H28919   7.634   1.443   5.048  1.1626 -0.9970 -0.0497
  955MOL0     H28920   7.673   1.303   4.930 -0.8829  0.1569 -3.2624
  955MOL0     H28921   7.603   1.633   4.674 -1.6736  0.0897  0.3959
  955MOL0     H28922   7.247   0.860   5.055  0.5499 -2.3966 -1.0387
  955MOL0     H28923   7.077   0.572   4.981 -2.3874 -0.4675  1.4621
  955MOL0     H28924   7.171   0.638   5.113  0.1516 -2.1839  0.1922
  955MOL0     H28925   6.994   0.627   5.116 -0.8647  0.1030 -1.7249
  956MOL0     O28926   6.680   1.101  10.717  0.0404 -0.2602 -0.2948
  956MOL0     C28927   6.664   0.994  10.656 -0.2938 -0.2026  0.4958
  956MOL0     O28928   6.556   0.976  10.567 -0.3843 -0.4439  0.1484
  956MOL0     C28929   6.491   1.079  10.508  0.1854 -0.1290 -0.2923
  956MOL0     C28930   6.525   1.208  10.498  0.1486 -0.2283  0.3727
  956MOL0     C28931   6.433   1.303  10.438 -0.9600 -0.2937 -0.7487
  956MOL0     C28932   6.320   1.256  10.362 -0.3696 -0.5217  0.7118
  956MOL0     O28933   6.226   1.331  10.300  0.1255 -0.0533 -0.3637
  956MOL0     C28934   6.276   1.445  10.227 -0.1209  0.5590 -0.9040
  956MOL0     C28935   6.233   1.575  10.297 -1.1546 -0.0648  0.0909
  956MOL0     C28936   6.251   1.702  10.225  0.1421 -0.9372 -0.1442
  956MOL0     C28937   6.195   1.702  10.086  0.5075 -0.7545  0.0447
  956MOL0     C28938   6.203   1.840  10.022  0.1134  0.7685  0.2085
  956MOL0     C28939   6.176   1.842   9.864 -0.0823  0.8732 -0.4521
  956MOL0     C28940   6.233   1.968   9.812 -0.5523 -0.1523  0.2461
  956MOL0     C28941   6.159   2.101   9.835 -0.5264 -0.2477  0.2577
  956MOL0     N28942   6.171   2.172   9.710  0.4405  0.2546  0.1438
  956MOL0     C28943   6.288   2.224   9.647  0.4736  1.1132  0.2219
  956MOL0     C28944   6.246   2.289   9.539 -1.3359  0.1930  1.0457
  956MOL0     C28945   6.318   2.348   9.426 -0.4644 -0.2240  0.8945
  956MOL0     C28946   6.449   2.277   9.374 -0.0123  0.6636 -0.1067
  956MOL0     C28947   6.429   2.135   9.350  0.4631  0.4250  0.5014
  956MOL0     C28948   6.309   2.105   9.253  0.3289 -0.8321 -0.4539
  956MOL0     O28949   6.310   1.965   9.228  1.4272 -0.1414  0.5620
  956MOL0     C28950   6.273   1.877   9.328  0.7220 -0.0825  0.0814
  956MOL0     C28951   6.359   1.767   9.360 -0.7496 -0.5037 -1.6683
  956MOL0     C28952   6.335   1.671   9.470 -0.3910 -0.7465 -0.2608
  956MOL0     C28953   6.218   1.683   9.546  0.3905 -0.4897 -0.2453
  956MOL0     C28954   6.184   1.572   9.644 -0.2809 -0.3515  0.2510
  956MOL0     O28955   6.291   1.513   9.702 -0.5956 -0.1378 -0.6279
  956MOL0     C28956   6.287   1.389   9.778  0.1011 -0.9220 -0.5970
  956MOL0     C28957   6.407   1.360   9.843  0.1795 -0.0570 -1.0489
  956MOL0     C28958   6.424   1.247   9.929  0.7529  0.1932 -0.1843
  956MOL0     C28959   6.317   1.155   9.945  0.3555 -0.0942 -0.1065
  956MOL0     O28960   6.318   1.043  10.027 -0.1132  0.0202 -0.6471
  956MOL0     C28961   6.445   0.991  10.079  0.7200 -0.6754 -0.1120
  956MOL0     C28962   6.441   0.848  10.128  0.3129  0.1805  0.7806
  956MOL0     C28963   6.422   0.757  10.011 -0.6468 -0.3064 -0.1619
  956MOL0     C28964   6.421   0.606  10.066 -0.3501 -0.3930 -0.7280
  956MOL0     C28965   6.533   0.528  10.017 -0.1964  0.2337 -0.4894
  956MOL0     C28966   6.514   0.379  10.019  0.8077  0.2617  0.1219
  956MOL0     C28967   6.634   0.293  10.015  0.0496  0.3220 -0.7269
  956MOL0     C28968   6.636   0.145   9.982 -0.5587 -0.2279 -0.9900
  956MOL0    Cl28969   6.514   0.074  10.095 -0.1525 -0.2261  0.3813
  956MOL0     C28970   6.192   1.190   9.891  0.0416 -0.5736 -1.1569
  956MOL0     C28971   6.176   1.296   9.792  0.1929  0.1948  0.1240
  956MOL0     O28972   6.066   1.546   9.657 -0.5102  0.3162 -0.5328
  956MOL0     C28973   6.131   1.788   9.513  1.0292 -0.2455 -0.0262
  956MOL0     C28974   6.152   1.883   9.407  0.4395 -0.8012  0.2887
  956MOL0     N28975   6.118   2.290   9.550  0.6074 -0.2174 -0.0393
  956MOL0     N28976   6.063   2.220   9.636 -0.0795 -0.2523 -0.9207
  956MOL0     C28977   6.289   1.124  10.374 -0.1776 -0.5232  0.4324
  956MOL0     C28978   6.371   1.043  10.442 -0.6571 -0.6071 -0.0568
  956MOL0     C28979   6.770   0.884  10.671  0.4079 -0.2716 -0.1257
  956MOL0     C28980   6.723   0.759  10.688  0.3959 -0.2720  0.0147
  956MOL0     C28981   6.802   0.649  10.727 -0.2474  0.9594  0.1895
  956MOL0     C28982   6.946   0.674  10.740  1.1444 -0.4150  1.1116
  956MOL0     O28983   7.043   0.594  10.790  0.5413  0.2487 -0.2053
  956MOL0     C28984   7.013   0.448  10.806  0.2143 -0.2847 -0.0780
  956MOL0     C28985   6.979   0.374  10.681  0.2510 -0.0324 -0.3377
  956MOL0     C28986   7.081   0.411  10.566  0.4919 -0.6258  0.4793
  956MOL0     C28987   7.226   0.407  10.617  0.0824  0.4623  1.0785
  956MOL0     C28988   7.278   0.280  10.674 -0.1550  0.4715  0.7835
  956MOL0     C28989   7.312   0.173  10.725 -0.6393  0.1752 -0.0431
  956MOL0     C28990   6.991   0.805  10.721  0.4936 -0.2929 -0.1886
  956MOL0     C28991   6.907   0.907  10.688 -0.0522 -0.9034  0.2194
  956MOL0     C28992   6.971   1.043  10.658 -0.3784  0.3162  0.2929
  956MOL0     H28993   6.618   1.241  10.544 -0.5627 -1.4700  2.8801
  956MOL0     H28994   6.453   1.410  10.441 -1.7101 -0.1265  3.4782
  956MOL0     H28995   6.385   1.433  10.224 -0.4639 -3.7253 -1.2570
  956MOL0     H28996   6.234   1.452  10.126 -2.3594  1.9445  0.0536
  956MOL0     H28997   6.287   1.574  10.392 -1.1918  0.2239  0.1168
  956MOL0     H28998   6.127   1.572  10.326 -1.4923 -0.5003 -1.1242
  956MOL0     H28999   6.354   1.737  10.229 -0.0063 -0.5815  0.7078
  956MOL0     H29000   6.183   1.778  10.266  1.9646  0.9162 -0.4221
  956MOL0     H29001   6.257   1.634  10.027  3.4680  1.0400  0.8861
  956MOL0     H29002   6.089   1.677  10.072  0.4050  0.5571 -1.8069
  956MOL0     H29003   6.137   1.913  10.070  0.5618  1.9828 -0.9609
  956MOL0     H29004   6.306   1.871  10.041  0.1528  0.4319  0.5780
  956MOL0     H29005   6.230   1.757   9.822  0.1597 -0.3060  2.0603
  956MOL0     H29006   6.068   1.840   9.853 -0.3721  1.5506  1.7645
  956MOL0     H29007   6.247   1.961   9.704 -1.2757  0.4312  0.1037
  956MOL0     H29008   6.329   1.994   9.858 -1.6451 -0.0604  2.6633
  956MOL0     H29009   6.055   2.082   9.863 -0.4829  1.3094  1.5910
  956MOL0     H29010   6.214   2.146   9.919 -0.9043  2.5156 -0.8725
  956MOL0     H29011   6.388   2.210   9.686  0.2555 -0.0835  0.3884
  956MOL0     H29012   6.248   2.333   9.343  2.0872 -0.0268 -1.4471
  956MOL0     H29013   6.337   2.451   9.456 -1.5243 -0.2315  1.6644
  956MOL0     H29014   6.473   2.333   9.283 -6.3614  3.1282 -0.8076
  956MOL0     H29015   6.521   2.281   9.456 -0.2518  0.4410  0.1166
  956MOL0     H29016   6.422   2.085   9.447  2.5866  1.1431  1.0921
  956MOL0     H29017   6.530   2.103   9.321  0.4543 -2.5124  3.2291
  956MOL0     H29018   6.309   2.165   9.161  0.2841  0.7011  0.5037
  956MOL0     H29019   6.216   2.133   9.304 -0.3904 -0.4046 -1.9246
  956MOL0     H29020   6.454   1.756   9.310  0.3791  2.1501 -0.3223
  956MOL0     H29021   6.408   1.591   9.478  0.4916 -0.1614 -2.0618
  956MOL0     H29022   6.495   1.422   9.828  0.9164 -1.3320 -2.3183
  956MOL0     H29023   6.518   1.226   9.979  0.3018 -3.7773 -0.6669
  956MOL0     H29024   6.526   0.985  10.006  1.1990  2.2808  0.0724
  956MOL0     H29025   6.488   1.060  10.152  0.9557 -2.8415  1.9145
  956MOL0     H29026   6.543   0.834  10.165  0.0390 -0.9478  1.1569
  956MOL0     H29027   6.363   0.836  10.204 -1.5484  4.0573 -0.2713
  956MOL0     H29028   6.324   0.782   9.969 -2.0466 -0.3984  2.8143
  956MOL0     H29029   6.503   0.775   9.940 -0.3581  0.9293  0.4354
  956MOL0     H29030   6.325   0.561  10.038  0.0967 -2.3903  0.7518
  956MOL0     H29031   6.432   0.612  10.175  0.6297  0.5782 -0.8657
  956MOL0     H29032   6.613   0.549  10.090 -1.9218 -1.8672  2.2044
  956MOL0     H29033   6.558   0.544   9.912 -0.9477  1.8829 -0.4500
  956MOL0     H29034   6.458   0.359  10.111  0.8483  0.9066  0.2924
  956MOL0     H29035   6.448   0.359   9.934  0.3575 -2.1737  0.9332
  956MOL0     H29036   6.674   0.301  10.116 -1.2231 -0.9431 -0.0841
  956MOL0     H29037   6.702   0.341   9.944  1.0906 -3.2100 -2.3716
  956MOL0     H29038   6.613   0.142   9.875 -0.4069 -0.9153 -1.0078
  956MOL0     H29039   6.730   0.097  10.010  0.2155  0.7462 -1.8226
  956MOL0     H29040   6.106   1.132   9.924  0.9714 -1.4273 -0.1428
  956MOL0     H29041   6.078   1.309   9.747 -0.0513 -0.3814  0.4818
  956MOL0     H29042   6.034   1.806   9.557  0.0138 -2.7777 -1.0315
  956MOL0     H29043   6.075   1.956   9.383  0.4330 -0.0478  2.4598
  956MOL0     H29044   6.205   1.080  10.320 -1.6815  0.3294  1.9766
  956MOL0     H29045   6.334   0.941  10.444 -0.9827 -0.4927  1.3138
  956MOL0     H29046   6.616   0.753  10.674 -0.0256  2.1412  1.6942
  956MOL0     H29047   6.764   0.553  10.762  2.2850  0.7224  2.6372
  956MOL0     H29048   6.940   0.435  10.887  1.2804  1.9829  1.3569
  956MOL0     H29049   7.101   0.405  10.856 -0.9651 -1.7539  0.8272
  956MOL0     H29050   6.870   0.376  10.670  0.2859 -0.2745 -0.7551
  956MOL0     H29051   7.003   0.270  10.704 -1.0336 -0.3104 -0.1588
  956MOL0     H29052   7.067   0.510  10.522  0.1399 -0.8559  0.0723
  956MOL0     H29053   7.075   0.339  10.484 -3.7940 -1.4513  1.2949
  956MOL0     H29054   7.296   0.428  10.535  1.2640  3.2455  2.6821
  956MOL0     H29055   7.242   0.491  10.684  2.1598 -0.2227  1.5035
  956MOL0     H29056   7.331   0.078  10.771  0.9341  1.5728  2.3787
  956MOL0     H29057   7.098   0.824  10.727  0.5477  0.1843 -1.9707
  956MOL0     H29058   7.070   1.032  10.612  0.5415  2.3324  1.6405
  956MOL0     H29059   6.913   1.091  10.579 -0.2365 -1.0701 -0.7084
  956MOL0     H29060   6.986   1.102  10.749 -0.6549  2.8148 -1.1892
  957MOL0     O29061  11.394   7.042  11.312  0.0165 -0.4759 -0.1108
  957MOL0     C29062  11.286   6.982  11.331  0.0174 -0.1874 -0.1410
  957MOL0     O29063  11.272   6.852  11.371 -0.5075  0.4889 -0.1211
  957MOL0     C29064  11.388   6.781  11.395 -0.1938 -0.6795  0.3687
  957MOL0     C29065  11.440   6.688  11.298  0.1766  0.5610 -0.0578
  957MOL0     C29066  11.548   6.608  11.330 -0.3402 -0.0175  0.1673
  957MOL0     C29067  11.625   6.629  11.442 -0.8146 -0.7288  0.5282
  957MOL0     O29068  11.743   6.560  11.448  0.5914  1.0046 -0.6082
  957MOL0     C29069  11.814   6.514  11.338 -0.2996 -0.3713  0.7977
  957MOL0     C29070  11.936   6.425  11.373 -0.6643  0.1616 -1.3385
  957MOL0     C29071  12.069   6.501  11.395 -0.3008  0.1324  1.6957
  957MOL0     C29072  12.180   6.396  11.439 -0.3198  0.2426  1.0391
  957MOL0     C29073  12.321   6.457  11.461 -0.1097 -0.0163 -0.3305
  957MOL0     C29074  12.322   6.528  11.596  0.1643  0.2577  0.9299
  957MOL0     C29075  12.441   6.621  11.617 -0.4148 -0.4961  1.0098
  957MOL0     C29076  12.456   6.657  11.767 -0.4629 -0.1590  0.0607
  957MOL0     N29077  12.553   6.768  11.793  0.0462 -0.2209 -0.1213
  957MOL0     C29078  12.651   6.764  11.893 -0.3241  0.6526  0.2333
  957MOL0     C29079  12.718   6.879  11.878  0.1287  0.5292  0.6464
  957MOL0     C29080  12.839   6.928  11.968 -0.2047  0.2953 -0.2426
  957MOL0     C29081  12.830   6.894  12.114  0.2672  0.2241  0.9127
  957MOL0     C29082  12.941   6.965  12.200 -0.3596  0.2164 -0.2156
  957MOL0     C29083  12.956   6.884  12.332  1.2508  0.3099 -1.3306
  957MOL0     O29084  13.068   6.793  12.324  0.0348  0.1120  0.3056
  957MOL0     C29085  13.189   6.812  12.398 -0.0284  0.5931  0.6439
  957MOL0     C29086  13.256   6.700  12.435 -0.0330  0.0187 -0.0901
  957MOL0     C29087  13.356   6.703  12.526 -0.4686  0.2749  0.9299
  957MOL0     C29088  13.411   6.824  12.575  0.1400 -0.5552  1.2452
  957MOL0     C29089  13.523   6.825  12.667 -1.2957  0.3278 -0.1189
  957MOL0     O29090  13.576   6.701  12.686  0.4470  0.3921 -0.1509
  957MOL0     C29091  13.689   6.693  12.766  0.2890  0.0807  1.7093
  957MOL0     C29092  13.664   6.670  12.901  0.6866  0.1384  0.2158
  957MOL0     C29093  13.771   6.651  12.987 -0.0338  0.0944  0.1353
  957MOL0     C29094  13.901   6.669  12.937 -0.3156 -0.8393  0.2551
  957MOL0     O29095  14.006   6.652  13.027  0.5950  0.2539  0.2273
  957MOL0     C29096  14.130   6.619  12.962  0.6258  0.5030  1.6426
  957MOL0     C29097  14.115   6.472  12.902  0.0463 -0.0379 -0.6405
  957MOL0     C29098  14.063   6.375  12.999  1.0705  0.2142 -0.5418
  957MOL0     C29099  14.063   6.234  12.940 -0.3666  0.8297 -0.0401
  957MOL0     C29100  14.045   6.121  13.045  0.4824  0.0656 -0.2271
  957MOL0     C29101  14.030   5.983  13.002 -0.0502  0.8234 -0.4028
  957MOL0     C29102  13.898   5.950  12.938  0.1416  0.7243  0.8711
  957MOL0     C29103  13.881   5.809  12.877  0.2382 -0.4826  0.2319
  957MOL0    Cl29104  13.711   5.783  12.819 -0.0513 -0.0257 -0.1467
  957MOL0     C29105  13.919   6.701  12.798 -0.0563  0.1876 -0.0980
  957MOL0     C29106  13.818   6.706  12.714 -0.9278  0.5471  0.0203
  957MOL0     O29107  13.566   6.935  12.708 -0.8331  0.4509 -0.2423
  957MOL0     C29108  13.337   6.941  12.539  0.7881  0.4049  1.1360
  957MOL0     C29109  13.225   6.933  12.452 -0.7024  0.0387  0.3441
  957MOL0     N29110  12.668   6.956  11.778  0.5875 -0.3324 -0.6947
  957MOL0     N29111  12.567   6.885  11.729 -0.2367 -0.2887  0.0554
  957MOL0     C29112  11.572   6.721  11.546 -0.0811 -0.6856  0.5452
  957MOL0     C29113  11.458   6.789  11.517 -0.2489 -0.0864 -0.4270
  957MOL0     C29114  11.153   7.060  11.307  0.0851  0.8004  0.0705
  957MOL0     C29115  11.044   6.995  11.248  0.0840 -0.3043  0.2539
  957MOL0     C29116  10.912   7.053  11.241 -0.7537  0.2370  0.1697
  957MOL0     C29117  10.899   7.190  11.286  1.3419  0.4442  0.8728
  957MOL0     O29118  10.777   7.261  11.285 -0.3335 -0.8639  0.6093
  957MOL0     C29119  10.658   7.195  11.338 -0.0107 -0.1911  0.6080
  957MOL0     C29120  10.540   7.293  11.307  0.2077  0.9518  0.2132
  957MOL0     C29121  10.410   7.215  11.339  1.1049 -0.2196 -0.9822
  957MOL0     C29122  10.276   7.294  11.304 -0.1307  0.3102 -0.7554
  957MOL0     C29123  10.248   7.325  11.160 -0.3914 -0.4734 -0.0883
  957MOL0     C29124  10.229   7.355  11.047 -0.1580 -0.1505  1.2303
  957MOL0     C29125  11.013   7.255  11.340  0.6772  0.8426 -0.0723
  957MOL0     C29126  11.143   7.198  11.348  0.0110  0.6621 -0.3368
  957MOL0     C29127  11.253   7.272  11.417  0.0561  1.0838 -0.9149
  957MOL0     H29128  11.386   6.669  11.206 -0.8017 -0.4382  0.6911
  957MOL0     H29129  11.574   6.533  11.255  2.1605  0.2828  0.6296
  957MOL0     H29130  11.746   6.444  11.289 -0.2745  0.6087 -0.7260
  957MOL0     H29131  11.845   6.587  11.262  1.3011 -1.6338  0.1841
  957MOL0     H29132  11.935   6.350  11.294 -2.2574 -0.6974 -0.5626
  957MOL0     H29133  11.917   6.375  11.469 -0.4669  0.9858 -0.8657
  957MOL0     H29134  12.061   6.581  11.469  2.3937  0.1136  2.1015
  957MOL0     H29135  12.111   6.553  11.308  0.9861  0.9667  2.7810
  957MOL0     H29136  12.143   6.344  11.527  2.2707  2.3782  3.5705
  957MOL0     H29137  12.185   6.319  11.361  2.7115  0.1983  1.1597
  957MOL0     H29138  12.412   6.398  11.448 -0.6688 -0.9057 -0.2845
  957MOL0     H29139  12.341   6.544  11.397 -1.8534  1.6337  1.2533
  957MOL0     H29140  12.228   6.582  11.610  1.3283  2.2483  1.5514
  957MOL0     H29141  12.314   6.447  11.669 -1.4130 -0.4693 -0.0224
  957MOL0     H29142  12.431   6.713  11.558  1.1184 -1.9035 -1.6718
  957MOL0     H29143  12.527   6.567  11.575 -1.3300 -0.7325 -0.6527
  957MOL0     H29144  12.356   6.692  11.793 -0.6902 -0.0931 -0.8788
  957MOL0     H29145  12.473   6.570  11.831  3.7972  0.6625  0.3665
  957MOL0     H29146  12.659   6.693  11.974  0.4107 -0.8315 -1.0859
  957MOL0     H29147  12.931   6.898  11.917 -1.5248 -4.4980 -0.2158
  957MOL0     H29148  12.837   7.037  11.955  2.1885  0.2437 -1.7599
  957MOL0     H29149  12.726   6.914  12.141 -1.4085 -0.9927 -3.7646
  957MOL0     H29150  12.848   6.786  12.124  0.0702  0.1202  0.1596
  957MOL0     H29151  12.920   7.070  12.222  2.7030  0.8936 -0.0688
  957MOL0     H29152  13.036   6.946  12.148 -1.4662  1.8388 -3.0496
  957MOL0     H29153  12.868   6.822  12.350  3.7537 -3.1674  0.1390
  957MOL0     H29154  12.958   6.951  12.419  2.3894 -0.3048 -0.8562
  957MOL0     H29155  13.215   6.606  12.400 -0.9290  0.8980 -1.5143
  957MOL0     H29156  13.399   6.614  12.572  0.8755  0.3514 -0.1142
  957MOL0     H29157  13.564   6.659  12.942  0.6903  0.2881  0.2646
  957MOL0     H29158  13.744   6.624  13.089 -2.3412  1.5966 -0.0081
  957MOL0     H29159  14.170   6.694  12.894 -1.9817  0.3819 -0.1844
  957MOL0     H29160  14.203   6.610  13.043  0.4031  1.5638  1.9754
  957MOL0     H29161  14.080   6.474  12.799  0.7181  0.7916 -0.8677
  957MOL0     H29162  14.224   6.458  12.903  0.9216  4.4842  2.6443
  957MOL0     H29163  14.128   6.387  13.087  2.1107  4.2768 -1.7001
  957MOL0     H29164  13.959   6.393  13.026  0.0966 -1.2757 -2.9861
  957MOL0     H29165  14.164   6.222  12.899 -1.1624  0.8971 -2.1150
  957MOL0     H29166  13.985   6.231  12.864  0.3832  2.2408 -0.9063
  957MOL0     H29167  13.958   6.149  13.104  0.7267  0.3762 -0.0120
  957MOL0     H29168  14.133   6.135  13.108 -1.1401  1.5794  1.8060
  957MOL0     H29169  14.112   5.954  12.936  0.9844 -1.0708  1.5744
  957MOL0     H29170  14.031   5.925  13.095  0.3756  0.5466 -0.5783
  957MOL0     H29171  13.886   6.026  12.860  0.3034 -2.0405 -2.0602
  957MOL0     H29172  13.823   5.954  13.017 -0.0364 -0.4458  0.7721
  957MOL0     H29173  13.949   5.795  12.793 -1.4236  2.8453 -1.8410
  957MOL0     H29174  13.901   5.727  12.947 -0.1742 -1.2970 -0.5884
  957MOL0     H29175  14.012   6.732  12.752 -0.1659 -0.4615 -0.7742
  957MOL0     H29176  13.820   6.725  12.607  2.4561  2.4402  0.2855
  957MOL0     H29177  13.361   7.037  12.584 -0.9798  3.0031 -2.8153
  957MOL0     H29178  13.164   7.020  12.430 -0.0310  1.0246  2.2117
  957MOL0     H29179  11.631   6.754  11.631 -2.0592  1.2052  1.2842
  957MOL0     H29180  11.424   6.857  11.594  2.1135  1.5900 -0.7478
  957MOL0     H29181  11.063   6.893  11.216  0.6229 -0.1614  0.1125
  957MOL0     H29182  10.831   6.997  11.196 -0.7719  0.2141  0.2309
  957MOL0     H29183  10.659   7.176  11.446 -4.1373 -1.0183  0.6781
  957MOL0     H29184  10.643   7.101  11.283  0.9124 -1.1526  1.9232
  957MOL0     H29185  10.539   7.328  11.203 -0.0010  1.9745  0.5529
  957MOL0     H29186  10.552   7.391  11.353 -1.9306  1.3024  0.1138
  957MOL0     H29187  10.411   7.197  11.447  0.8981 -0.6164 -1.0438
  957MOL0     H29188  10.400   7.116  11.294  0.0854  0.9005 -3.4235
  957MOL0     H29189  10.194   7.238  11.349  0.0134  0.5658 -0.1747
  957MOL0     H29190  10.277   7.393  11.352 -4.0971 -0.8920  2.2792
  957MOL0     H29191  10.210   7.374  10.944  3.2221 -2.8078 -0.0394
  957MOL0     H29192  11.001   7.355  11.380 -1.3357  0.1265  1.2903
  957MOL0     H29193  11.329   7.292  11.341  0.7263  1.0561 -0.2659
  957MOL0     H29194  11.216   7.362  11.466 -2.4364  0.8039 -2.1223
  957MOL0     H29195  11.288   7.207  11.498 -1.2704 -0.2111 -1.3346
  958MOL0     O29196  10.929   5.593   6.633  0.5111 -0.6294 -1.2016
  958MOL0     C29197  10.953   5.501   6.712 -0.0145  0.5003  0.3261
  958MOL0     O29198  11.051   5.499   6.818  0.0308 -0.9874  1.2268
  958MOL0     C29199  11.125   5.610   6.845  0.2800 -0.7056  0.7774
  958MOL0     C29200  11.078   5.749   6.834 -1.0024 -0.6634 -0.2953
  958MOL0     C29201  11.169   5.847   6.864 -1.0852 -0.5498 -0.3461
  958MOL0     C29202  11.302   5.822   6.903 -1.0057  0.3509  0.0318
  958MOL0     O29203  11.393   5.919   6.942  0.4426 -0.1774 -0.3047
  958MOL0     C29204  11.334   6.030   7.016  0.5495  0.1455  0.1947
  958MOL0     C29205  11.434   6.080   7.124  0.0864  0.3759 -0.0941
  958MOL0     C29206  11.548   6.171   7.073  0.3338  0.5235  0.9381
  958MOL0     C29207  11.624   6.240   7.180 -1.1261 -0.3310  0.6321
  958MOL0     C29208  11.722   6.342   7.113  0.0646 -0.2752  0.7541
  958MOL0     C29209  11.813   6.423   7.214 -0.0947  0.4390  0.4485
  958MOL0     C29210  11.887   6.340   7.324 -0.4835 -0.9103 -0.7660
  958MOL0     C29211  11.964   6.439   7.428 -0.4449  0.5733 -0.7973
  958MOL0     N29212  12.013   6.354   7.542 -0.8741 -0.5939  0.8062
  958MOL0     C29213  12.130   6.291   7.531  0.3545 -0.0295  0.3704
  958MOL0     C29214  12.161   6.245   7.654 -0.2510  1.0854  0.1236
  958MOL0     C29215  12.292   6.174   7.693 -0.9107 -0.8649  1.0201
  958MOL0     C29216  12.344   6.080   7.578 -0.1954  0.5637  0.6609
  958MOL0     C29217  12.452   5.990   7.633 -0.3184 -0.0159 -0.3948
  958MOL0     C29218  12.590   6.045   7.675 -0.1270  0.1060 -0.8447
  958MOL0     O29219  12.641   6.138   7.577 -0.4677  0.0522  0.2707
  958MOL0     C29220  12.775   6.159   7.596  0.0528  0.5960  1.0100
  958MOL0     C29221  12.866   6.084   7.517  0.5815 -0.1908 -0.3955
  958MOL0     C29222  13.005   6.096   7.548 -0.6899 -0.6090  0.2281
  958MOL0     C29223  13.053   6.188   7.641 -0.1665 -0.2439  0.3442
  958MOL0     C29224  13.194   6.190   7.682 -0.3664 -1.2734 -0.6683
  958MOL0     O29225  13.290   6.120   7.626 -0.3833 -0.1119  0.4157
  958MOL0     C29226  13.418   6.119   7.677  0.3007 -0.2882  1.1538
  958MOL0     C29227  13.443   6.051   7.797 -0.6502  0.2811  0.0860
  958MOL0     C29228  13.580   6.039   7.829  0.0271  0.7859 -0.6292
  958MOL0     C29229  13.678   6.081   7.743 -0.5369 -0.5095 -0.2491
  958MOL0     O29230  13.811   6.054   7.788 -0.0633 -0.5459 -0.4774
  958MOL0     C29231  13.914   6.078   7.689 -0.1588 -1.1555 -0.1731
  958MOL0     C29232  14.058   6.056   7.736  0.0997 -0.4711 -0.6219
  958MOL0     C29233  14.088   5.909   7.715 -0.2060 -0.3432 -0.0012
  958MOL0     C29234  14.242   5.886   7.735 -0.1038 -0.7651 -0.0940
  958MOL0     C29235  14.333   5.945   7.618  0.0709  0.4676  0.1192
  958MOL0     C29236  14.335   5.846   7.501 -0.5772 -0.0368 -0.2622
  958MOL0     C29237  14.410   5.907   7.384  0.0475 -0.2545  0.5880
  958MOL0     C29238  14.314   5.936   7.270 -0.4581  0.4118 -0.2791
  958MOL0    Cl29239  14.274   5.782   7.196 -0.3690  0.4248  0.1139
  958MOL0     C29240  13.656   6.150   7.620 -0.0294 -0.9189 -0.3136
  958MOL0     C29241  13.514   6.162   7.587  0.0264 -0.5075 -0.4643
  958MOL0     O29242  13.212   6.277   7.771  0.1199 -0.0478  0.0334
  958MOL0     C29243  12.954   6.270   7.714 -1.1511  0.6111  0.6286
  958MOL0     C29244  12.817   6.249   7.689 -0.3429  0.5651  1.1139
  958MOL0     N29245  12.060   6.285   7.733 -0.4588 -0.2613 -0.3928
  958MOL0     N29246  11.979   6.364   7.676  0.1264  0.3683  0.8468
  958MOL0     C29247  11.344   5.690   6.911  0.0389  0.0549  0.1561
  958MOL0     C29248  11.254   5.585   6.889  0.2204  1.3194  0.1870
  958MOL0     C29249  10.844   5.390   6.714 -0.0193  0.0104 -0.1266
  958MOL0     C29250  10.816   5.323   6.833 -0.1257  0.8912 -0.0431
  958MOL0     C29251  10.722   5.216   6.831 -0.3234 -0.1429  0.2122
  958MOL0     C29252  10.643   5.188   6.722 -1.1902  0.6609  0.6215
  958MOL0     O29253  10.559   5.072   6.732 -0.8150  0.8227  0.3985
  958MOL0     C29254  10.497   5.034   6.609  0.0370  0.0591 -1.1773
  958MOL0     C29255  10.408   4.903   6.627  0.5641 -0.4453  0.3276
  958MOL0     C29256  10.474   4.776   6.697  0.4246  0.0191 -0.1403
  958MOL0     C29257  10.390   4.650   6.660  0.1876 -0.2288  0.2681
  958MOL0     C29258  10.244   4.665   6.697  0.1249 -0.2549 -0.1080
  958MOL0     C29259  10.133   4.658   6.737  0.3832 -0.4376  0.2219
  958MOL0     C29260  10.659   5.267   6.605 -0.0855  0.3982 -0.3669
  958MOL0     C29261  10.763   5.358   6.604  0.7241 -0.0405 -0.2351
  958MOL0     C29262  10.777   5.427   6.472 -0.9491 -1.1812 -0.1209
  958MOL0     H29263  10.977   5.779   6.811 -0.4215  0.7354 -1.1097
  958MOL0     H29264  11.140   5.952   6.865 -1.5835 -0.6838 -0.5316
  958MOL0     H29265  11.301   6.115   6.954 -2.2454 -2.7154 -2.6362
  958MOL0     H29266  11.241   5.998   7.062 -0.4458  3.6607  0.9205
  958MOL0     H29267  11.486   5.996   7.171 -0.3307  0.5107  0.6274
  958MOL0     H29268  11.380   6.135   7.202  2.3726 -0.3209  2.1134
  958MOL0     H29269  11.521   6.255   7.008 -2.5477 -0.8033  0.2649
  958MOL0     H29270  11.620   6.105   7.024 -0.2501 -1.0417  2.1160
  958MOL0     H29271  11.559   6.304   7.241 -2.5780 -2.2835  1.2193
  958MOL0     H29272  11.681   6.168   7.239 -0.5811 -1.1983 -0.9136
  958MOL0     H29273  11.786   6.285   7.045  0.9547 -0.4071  1.6723
  958MOL0     H29274  11.664   6.415   7.056  1.1971 -2.0964 -3.0263
  958MOL0     H29275  11.878   6.486   7.153 -1.1606 -1.7768 -3.3224
  958MOL0     H29276  11.733   6.487   7.253 -2.1261 -1.9878  0.4883
  958MOL0     H29277  11.967   6.273   7.291 -1.8452 -2.4966 -0.9930
  958MOL0     H29278  11.816   6.280   7.382 -0.7475  3.1933  3.8203
  958MOL0     H29279  12.045   6.485   7.371  2.2873 -1.7331  0.9616
  958MOL0     H29280  11.898   6.517   7.467  0.2836  0.5416  0.5569
  958MOL0     H29281  12.195   6.296   7.445  0.9441  3.9171  0.8438
  958MOL0     H29282  12.371   6.249   7.705 -0.0536 -1.4846 -0.3967
  958MOL0     H29283  12.276   6.124   7.789 -2.8240  1.3365  1.9217
  958MOL0     H29284  12.256   6.022   7.550  0.5314 -0.5592  0.6618
  958MOL0     H29285  12.376   6.123   7.483 -2.4675 -1.7366 -1.3176
  958MOL0     H29286  12.480   5.906   7.569 -2.6642 -2.5890  1.6641
  958MOL0     H29287  12.408   5.941   7.721 -0.1822  0.0455 -0.2939
  958MOL0     H29288  12.657   5.961   7.695 -1.0080 -0.3716  0.2636
  958MOL0     H29289  12.576   6.096   7.771 -2.1289  0.1255 -1.1017
  958MOL0     H29290  12.821   6.009   7.453 -0.6494 -0.0888  0.3113
  958MOL0     H29291  13.078   6.030   7.504  0.8166  1.5802 -0.7513
  958MOL0     H29292  13.368   6.019   7.868  0.7344  0.3255  1.6391
  958MOL0     H29293  13.595   5.993   7.926 -3.8691  1.9386  0.7212
  958MOL0     H29294  13.896   6.010   7.605 -0.2931 -0.4115 -0.7522
  958MOL0     H29295  13.909   6.183   7.661  2.0007 -0.7740  0.7052
  958MOL0     H29296  14.127   6.117   7.677  0.7391  1.6012  2.0521
  958MOL0     H29297  14.078   6.090   7.838  2.6395 -1.0114 -0.8579
  958MOL0     H29298  14.046   5.856   7.801  2.2023  1.7863  2.7070
  958MOL0     H29299  14.060   5.875   7.615  2.6641 -0.6203 -0.7921
  958MOL0     H29300  14.251   5.777   7.738 -0.4898 -0.7785  0.8498
  958MOL0     H29301  14.266   5.908   7.840 -0.6493 -0.9955  0.0827
  958MOL0     H29302  14.434   5.966   7.654 -0.4195  0.6323  1.4409
  958MOL0     H29303  14.310   6.046   7.584  1.0790  0.3516 -0.9867
  958MOL0     H29304  14.383   5.756   7.538 -0.6407  0.4017  0.9284
  958MOL0     H29305  14.235   5.811   7.472 -2.2923  2.9687  1.4352
  958MOL0     H29306  14.489   5.841   7.347  1.4060  2.3659 -1.5671
  958MOL0     H29307  14.450   6.002   7.422 -2.2760  1.8257 -1.7779
  958MOL0     H29308  14.229   5.997   7.301 -0.1729  1.4841 -1.5154
  958MOL0     H29309  14.346   5.995   7.184 -3.3265 -0.8399 -2.3346
  958MOL0     H29310  13.731   6.180   7.548  2.4035 -3.3218  1.0464
  958MOL0     H29311  13.493   6.218   7.496  0.7923  2.4576  1.0391
  958MOL0     H29312  12.993   6.351   7.774  2.0086  0.0427 -0.4702
  958MOL0     H29313  12.757   6.320   7.745 -0.6495 -2.1492  4.5951
  958MOL0     H29314  11.440   5.676   6.959 -0.0237 -0.7128  0.0659
  958MOL0     H29315  11.279   5.479   6.895 -2.5421  0.5206 -0.6704
  958MOL0     H29316  10.878   5.335   6.921  1.3932 -1.0173 -0.7633
  958MOL0     H29317  10.688   5.168   6.923  2.6971 -0.2909  1.3435
  958MOL0     H29318  10.578   5.021   6.538 -0.6348  0.0167 -1.9435
  958MOL0     H29319  10.423   5.104   6.568 -3.1487 -1.6762  1.0690
  958MOL0     H29320  10.355   4.879   6.534 -0.9397 -1.1476  1.3243
  958MOL0     H29321  10.326   4.940   6.690  0.3799  2.1957 -1.3073
  958MOL0     H29322  10.476   4.799   6.803  1.4308 -1.6987  0.2472
  958MOL0     H29323  10.576   4.768   6.659  0.2840 -0.1619 -0.4884
  958MOL0     H29324  10.407   4.636   6.553 -2.4118 -0.3951 -0.1711
  958MOL0     H29325  10.434   4.559   6.701 -0.2891 -0.4545  0.2836
  958MOL0     H29326  10.028   4.647   6.758 -0.7174  0.9467 -3.6575
  958MOL0     H29327  10.598   5.234   6.522  2.1166 -2.4415 -1.0025
  958MOL0     H29328  10.882   5.429   6.440 -1.5267 -0.8830 -2.1815
  958MOL0     H29329  10.717   5.391   6.388 -3.3190  1.5504  0.2318
  958MOL0     H29330  10.741   5.530   6.476 -0.4451 -1.0335  0.9661
  959MOL0     O29331   4.816   2.432   4.726  0.8475 -0.6130 -0.5514
  959MOL0     C29332   4.835   2.542   4.686  0.0878 -0.3361  0.0094
  959MOL0     O29333   4.788   2.594   4.569 -0.7124 -0.0289  0.9391
  959MOL0     C29334   4.680   2.542   4.499  0.3910 -0.9631 -1.0011
  959MOL0     C29335   4.595   2.438   4.542 -0.2183 -0.2577  0.6792
  959MOL0     C29336   4.462   2.410   4.481 -0.4599  0.5957  0.0949
  959MOL0     C29337   4.423   2.486   4.374  0.1956  0.6867  0.5052
  959MOL0     O29338   4.288   2.480   4.328 -0.5002  1.0779  0.0279
  959MOL0     C29339   4.191   2.480   4.435  0.8002  0.2339 -0.5362
  959MOL0     C29340   4.080   2.568   4.390 -0.9594  0.0085 -0.8123
  959MOL0     C29341   3.987   2.505   4.290 -0.5120 -0.8441  0.4491
  959MOL0     C29342   3.899   2.620   4.245 -0.3345 -1.0520  0.2634
  959MOL0     C29343   3.789   2.581   4.138  0.5845 -0.5832  0.2089
  959MOL0     C29344   3.748   2.712   4.061 -0.3449  0.8755 -0.3788
  959MOL0     C29345   3.647   2.687   3.951  0.6196 -0.6590  0.8158
  959MOL0     C29346   3.632   2.805   3.850 -0.2107 -0.1046 -0.7980
  959MOL0     N29347   3.545   2.752   3.749 -0.5198  0.3710  0.1611
  959MOL0     C29348   3.555   2.792   3.622 -0.3581  0.1800  0.3454
  959MOL0     C29349   3.436   2.760   3.566 -0.2340  0.5372 -1.0964
  959MOL0     C29350   3.442   2.772   3.420  0.4381 -0.5875 -0.2807
  959MOL0     C29351   3.371   2.911   3.374 -1.0008  0.3105 -0.2485
  959MOL0     C29352   3.220   2.892   3.357  0.0114  0.0898  0.2145
  959MOL0     C29353   3.149   2.992   3.252 -0.1185  0.7865 -0.4305
  959MOL0     O29354   3.186   3.126   3.299  0.9277 -0.1519 -0.5100
  959MOL0     C29355   3.087   3.223   3.278  0.4553  0.1915  0.2115
  959MOL0     C29356   3.010   3.225   3.168  0.0751  0.3519  0.4623
  959MOL0     C29357   2.916   3.326   3.150 -0.8276  0.3570  0.1726
  959MOL0     C29358   2.926   3.446   3.231 -0.0931 -0.5041  0.3353
  959MOL0     C29359   2.844   3.573   3.213 -0.0741  0.4963 -0.7675
  959MOL0     O29360   2.837   3.617   3.086 -0.1248 -0.3079 -0.2292
  959MOL0     C29361   2.805   3.752   3.071 -0.7697 -0.7395 -0.6620
  959MOL0     C29362   2.699   3.787   3.000  0.0034 -0.6372  1.6204
  959MOL0     C29363   2.676   3.924   2.961 -0.7339 -0.7324  0.4341
  959MOL0     C29364   2.756   4.027   3.020  0.0466  0.7791  0.3621
  959MOL0     O29365   2.728   4.155   2.990  0.3935 -0.4200 -0.2133
  959MOL0     C29366   2.732   4.244   3.104  0.0565  0.5074  1.0686
  959MOL0     C29367   2.681   4.386   3.070 -0.0728 -0.6133 -1.2594
  959MOL0     C29368   2.526   4.396   3.039  0.4263  0.0463  0.0167
  959MOL0     C29369   2.486   4.319   2.913 -0.1674  0.2111  0.7438
  959MOL0     C29370   2.356   4.378   2.849 -0.0873  0.9463  0.3415
  959MOL0     C29371   2.322   4.299   2.722  0.3007  0.5712  1.0536
  959MOL0     C29372   2.307   4.397   2.603 -0.0062 -0.1107  0.4924
  959MOL0     C29373   2.245   4.313   2.478  0.3953  0.0493  1.1128
  959MOL0    Cl29374   2.312   4.156   2.449 -0.3995 -0.3586  0.5139
  959MOL0     C29375   2.860   3.988   3.102 -0.6192  0.6913 -0.0674
  959MOL0     C29376   2.886   3.852   3.121  0.6271  0.1000 -0.7520
  959MOL0     O29377   2.807   3.628   3.313  0.0798  1.0967 -0.2206
  959MOL0     C29378   3.002   3.439   3.349 -0.3045 -0.3217 -0.0347
  959MOL0     C29379   3.083   3.328   3.362 -0.3922  0.4590  0.0958
  959MOL0     N29380   3.372   2.673   3.666  0.7714 -0.8382 -0.7986
  959MOL0     N29381   3.436   2.687   3.780  0.5620 -0.2276 -0.3146
  959MOL0     C29382   4.509   2.576   4.326 -0.1429 -0.6757  1.0998
  959MOL0     C29383   4.639   2.604   4.377  0.8025 -0.8376  0.2971
  959MOL0     C29384   4.926   2.632   4.754  0.4826  0.3039 -0.6707
  959MOL0     C29385   5.020   2.700   4.680  0.2723 -0.1208  0.7005
  959MOL0     C29386   5.089   2.802   4.733  0.5308  0.2226  0.7946
  959MOL0     C29387   5.092   2.826   4.872 -0.0470  0.6119 -0.6071
  959MOL0     O29388   5.154   2.944   4.917  0.1512 -0.8522 -0.2477
  959MOL0     C29389   5.158   2.965   5.056  0.7149  0.5648  0.5475
  959MOL0     C29390   5.237   3.096   5.089 -0.7766 -0.9928  0.0803
  959MOL0     C29391   5.379   3.092   5.054 -0.1836  1.1009  0.3714
  959MOL0     C29392   5.425   3.220   4.991  0.3661 -0.3542  0.5243
  959MOL0     C29393   5.563   3.214   4.960 -0.2787  0.4422 -0.7337
  959MOL0     C29394   5.684   3.202   4.944  0.5934 -0.4681 -0.2938
  959MOL0     C29395   5.019   2.743   4.958  0.1720  0.0238 -0.6478
  959MOL0     C29396   4.929   2.654   4.893  0.3308 -1.4605  0.3423
  959MOL0     C29397   4.848   2.572   4.992 -0.3063  0.4114  0.0088
  959MOL0     H29398   4.619   2.392   4.637  0.2271 -1.4216  0.0186
  959MOL0     H29399   4.406   2.330   4.528  1.0960 -0.1669  0.7257
  959MOL0     H29400   4.155   2.379   4.459 -1.8083  1.3975  0.8638
  959MOL0     H29401   4.225   2.536   4.523 -2.1436  2.2772 -0.5641
  959MOL0     H29402   4.126   2.663   4.360  0.1113 -0.5411 -0.9828
  959MOL0     H29403   4.026   2.589   4.482  1.9425  2.8701  0.4553
  959MOL0     H29404   3.934   2.419   4.333 -0.9385  0.1313  1.9591
  959MOL0     H29405   4.038   2.468   4.201  1.3508 -1.7258  1.8019
  959MOL0     H29406   3.843   2.662   4.330 -0.3060  3.2223 -1.5757
  959MOL0     H29407   3.943   2.714   4.210 -0.2358 -1.6841 -1.3665
  959MOL0     H29408   3.832   2.502   4.076  0.5195 -0.1505 -0.3965
  959MOL0     H29409   3.703   2.535   4.187 -1.2623  2.1055 -0.2303
  959MOL0     H29410   3.713   2.789   4.131  0.5764  0.2648  0.7869
  959MOL0     H29411   3.840   2.750   4.016 -0.0907  1.9430  0.9547
  959MOL0     H29412   3.560   2.665   4.012 -1.5139  2.2216 -0.9210
  959MOL0     H29413   3.687   2.607   3.888  1.5643 -0.0680  0.6291
  959MOL0     H29414   3.577   2.888   3.897 -2.0178  0.5119 -3.7551
  959MOL0     H29415   3.726   2.849   3.814  1.0319 -2.6408 -0.8552
  959MOL0     H29416   3.636   2.848   3.576  0.4476  0.1546  1.6666
  959MOL0     H29417   3.545   2.770   3.384  0.3485 -2.9347 -0.5532
  959MOL0     H29418   3.387   2.686   3.381 -1.6469  0.7608 -0.5258
  959MOL0     H29419   3.390   2.988   3.450 -2.2312  1.3948 -0.9781
  959MOL0     H29420   3.420   2.933   3.279  0.5352  0.7081  0.5960
  959MOL0     H29421   3.186   2.910   3.459 -2.5799 -0.3746 -0.5029
  959MOL0     H29422   3.188   2.791   3.331 -0.3997 -0.3327  2.2107
  959MOL0     H29423   3.041   2.976   3.251 -0.1631  1.0732 -0.1551
  959MOL0     H29424   3.193   2.956   3.158 -0.2384 -1.2581  0.2515
  959MOL0     H29425   3.026   3.147   3.094  2.4336 -2.1808  3.3610
  959MOL0     H29426   2.846   3.342   3.068  0.2306  0.8767 -0.6609
  959MOL0     H29427   2.639   3.707   2.959  1.1600 -1.8088  2.1216
  959MOL0     H29428   2.586   3.950   2.907 -2.3326  2.9150  4.2940
  959MOL0     H29429   2.669   4.206   3.185 -0.5124  0.9581  0.8410
  959MOL0     H29430   2.834   4.246   3.143  0.9235 -2.0413 -0.8557
  959MOL0     H29431   2.703   4.451   3.155 -1.0837  1.1797 -2.2967
  959MOL0     H29432   2.737   4.425   2.984  0.4274 -2.1265 -1.6568
  959MOL0     H29433   2.464   4.371   3.125  2.3529  2.0865  2.1291
  959MOL0     H29434   2.509   4.502   3.017  0.9166  0.6837  2.3918
  959MOL0     H29435   2.475   4.214   2.941  0.3689 -0.0586 -0.0291
  959MOL0     H29436   2.568   4.334   2.843  0.0018 -1.1227  0.6431
  959MOL0     H29437   2.376   4.484   2.829 -0.8883  1.3428  1.5653
  959MOL0     H29438   2.275   4.368   2.921 -0.1997 -2.8092 -0.0892
  959MOL0     H29439   2.409   4.239   2.694 -1.9364 -1.5738 -1.9287
  959MOL0     H29440   2.249   4.219   2.739  3.4900 -1.9696  4.3856
  959MOL0     H29441   2.408   4.426   2.572 -0.9243  0.8304 -1.8639
  959MOL0     H29442   2.247   4.487   2.617 -1.1024 -0.4992 -1.4141
  959MOL0     H29443   2.140   4.290   2.494  0.2600  2.1115  4.0770
  959MOL0     H29444   2.254   4.381   2.393  2.8439 -1.4923  0.0118
  959MOL0     H29445   2.931   4.050   3.157 -1.7169  2.0173 -0.0770
  959MOL0     H29446   2.981   3.829   3.168  1.8477  2.4081 -1.9217
  959MOL0     H29447   2.983   3.512   3.427 -1.4059 -0.5253 -0.0905
  959MOL0     H29448   3.153   3.321   3.445 -0.9211  1.1206  0.6115
  959MOL0     H29449   4.461   2.640   4.253  0.8532 -2.9016 -1.7110
  959MOL0     H29450   4.693   2.691   4.343 -1.3009  0.6655  0.5958
  959MOL0     H29451   5.037   2.688   4.573 -0.7935 -0.4847  0.5550
  959MOL0     H29452   5.142   2.868   4.664  0.6401 -0.6158  0.0501
  959MOL0     H29453   5.197   2.880   5.111  2.2088  0.6345 -0.3538
  959MOL0     H29454   5.055   2.989   5.087  0.2357 -0.2333 -0.3657
  959MOL0     H29455   5.235   3.126   5.194  4.0683  1.6766 -0.3294
  959MOL0     H29456   5.189   3.165   5.020  2.8418  0.1728 -1.5120
  959MOL0     H29457   5.393   3.005   4.989 -3.3184 -0.0641  1.0882
  959MOL0     H29458   5.443   3.068   5.140  2.0039  1.4970 -1.0488
  959MOL0     H29459   5.381   3.235   4.892  1.8183  0.2098 -0.0585
  959MOL0     H29460   5.396   3.309   5.046  0.3424  1.1416 -1.7640
  959MOL0     H29461   5.791   3.189   4.937  0.2672 -2.6974 -2.6975
  959MOL0     H29462   5.029   2.768   5.063 -0.0999  0.5983 -0.7515
  959MOL0     H29463   4.848   2.603   5.097 -0.4972 -0.7103  0.3635
  959MOL0     H29464   4.744   2.558   4.959  0.1183 -1.2215 -0.7392
  959MOL0     H29465   4.882   2.469   4.982 -1.3716 -0.0585  0.9121
  960MOL0     O29466   1.251   4.228   9.253  0.5518  0.1088  0.2372
  960MOL0     C29467   1.300   4.280   9.155  0.6975 -0.8392 -0.8404
  960MOL0     O29468   1.317   4.228   9.030 -0.3283  0.6595  0.0697
  960MOL0     C29469   1.285   4.100   9.010 -0.3281  0.0961 -0.9172
  960MOL0     C29470   1.155   4.047   9.023 -0.1414  0.5716  0.4167
  960MOL0     C29471   1.132   3.912   8.997 -0.3448  1.2119 -0.1249
  960MOL0     C29472   1.231   3.832   8.956 -0.4374 -0.2129  0.4266
  960MOL0     O29473   1.191   3.705   8.927 -0.3295  0.3516 -1.5513
  960MOL0     C29474   1.289   3.605   8.878  1.0900  0.0263  0.4713
  960MOL0     C29475   1.186   3.476   8.871 -0.5147  0.5098 -0.1503
  960MOL0     C29476   1.103   3.473   8.746  0.2788 -0.6657 -0.2565
  960MOL0     C29477   1.005   3.348   8.721 -0.5832  0.3441 -1.0137
  960MOL0     C29478   1.051   3.279   8.590 -0.3663 -0.3742  0.5205
  960MOL0     C29479   0.958   3.172   8.542 -0.6250 -0.3725 -0.4151
  960MOL0     C29480   0.984   3.118   8.403 -0.1058  0.6669  0.3366
  960MOL0     C29481   0.923   3.200   8.292  0.1484  0.1608 -1.2231
  960MOL0     N29482   0.950   3.146   8.159 -0.9443 -0.7862 -0.0767
  960MOL0     C29483   1.029   3.216   8.073 -0.5128 -0.3004 -0.4293
  960MOL0     C29484   1.038   3.130   7.971 -0.3972 -0.7061  1.0907
  960MOL0     C29485   1.127   3.143   7.852  1.0540  0.3142 -0.0068
  960MOL0     C29486   1.282   3.105   7.888 -0.5711  0.4371  0.4115
  960MOL0     C29487   1.309   2.957   7.943 -0.1070 -0.0705 -0.0829
  960MOL0     C29488   1.264   2.844   7.860  0.5456 -0.9088  1.3102
  960MOL0     O29489   1.354   2.732   7.863  0.0756 -0.0894  0.2656
  960MOL0     C29490   1.338   2.641   7.760  0.2167  0.1990  0.8077
  960MOL0     C29491   1.204   2.597   7.722 -0.6956 -0.0640 -0.7525
  960MOL0     C29492   1.196   2.494   7.621  0.6279 -0.5299  0.0179
  960MOL0     C29493   1.309   2.431   7.565  0.3400  0.2647  0.2384
  960MOL0     C29494   1.302   2.316   7.477 -0.9601  0.6150 -0.0236
  960MOL0     O29495   1.405   2.291   7.388 -0.6555  0.3085  0.3848
  960MOL0     C29496   1.405   2.189   7.301 -0.6119 -0.4156 -0.3689
  960MOL0     C29497   1.436   2.060   7.333  0.8393  0.2413  0.1317
  960MOL0     C29498   1.445   1.965   7.232  0.7828  0.4342  0.6478
  960MOL0     C29499   1.382   1.985   7.109  0.4015 -0.7744  0.0973
  960MOL0     O29500   1.376   1.888   7.020  0.4733 -0.7559 -0.5868
  960MOL0     C29501   1.378   1.912   6.873 -0.3014  0.4799 -0.7934
  960MOL0     C29502   1.380   1.775   6.809  0.3640 -0.6489  0.1836
  960MOL0     C29503   1.252   1.695   6.823 -0.4438 -0.0339 -0.1501
  960MOL0     C29504   1.273   1.566   6.741 -0.6261 -0.2970 -0.1675
  960MOL0     C29505   1.156   1.476   6.759  0.5079 -0.5536  0.4957
  960MOL0     C29506   1.204   1.334   6.750  0.2970 -0.7800  0.1507
  960MOL0     C29507   1.099   1.211   6.765  0.2404  0.2006  0.2962
  960MOL0     C29508   1.031   1.178   6.632 -0.0698  0.1174  0.7825
  960MOL0    Cl29509   0.928   1.040   6.662  0.6209  0.1098  0.1802
  960MOL0     C29510   1.335   2.113   7.083 -0.4231  0.2679  0.2760
  960MOL0     C29511   1.356   2.207   7.177 -0.3179  0.6165  0.0649
  960MOL0     O29512   1.201   2.255   7.480  0.0819  0.0531  0.1343
  960MOL0     C29513   1.439   2.478   7.605 -0.5266 -0.1301 -0.2867
  960MOL0     C29514   1.447   2.585   7.699 -0.1165 -0.8202  0.0904
  960MOL0     N29515   0.953   3.023   7.985  0.4777 -0.7339 -0.2624
  960MOL0     N29516   0.911   3.026   8.101  0.0052  0.6932 -0.4753
  960MOL0     C29517   1.359   3.881   8.938 -0.1509  0.1082 -0.5064
  960MOL0     C29518   1.388   4.012   8.976 -0.2765 -0.3192 -0.5530
  960MOL0     C29519   1.346   4.422   9.170  0.4386 -0.5968 -0.7269
  960MOL0     C29520   1.300   4.496   9.280  0.1085  0.1266  0.4096
  960MOL0     C29521   1.324   4.634   9.289 -0.3407  0.5241  0.0511
  960MOL0     C29522   1.406   4.704   9.196  0.0624 -0.0491 -0.4118
  960MOL0     O29523   1.421   4.843   9.193 -0.0257  0.6532 -0.2205
  960MOL0     C29524   1.394   4.913   9.316  0.9560  0.2254 -0.0748
  960MOL0     C29525   1.436   5.051   9.302  0.3277 -0.0651  0.3155
  960MOL0     C29526   1.426   5.126   9.439  0.4841  0.5067 -0.7302
  960MOL0     C29527   1.502   5.252   9.446 -0.2532  0.0435 -0.6630
  960MOL0     C29528   1.505   5.320   9.579 -0.1758 -0.6905 -0.9706
  960MOL0     C29529   1.516   5.366   9.689 -0.7061  0.0723  0.1825
  960MOL0     C29530   1.448   4.632   9.090  0.6120  0.3728 -0.5414
  960MOL0     C29531   1.415   4.500   9.066  0.4621 -0.2442  0.1258
  960MOL0     C29532   1.458   4.447   8.927  0.1789 -1.0896  0.5133
  960MOL0     H29533   1.077   4.120   9.044  1.2578  1.4352  2.9865
  960MOL0     H29534   1.031   3.873   9.010  0.3144 -0.8500 -0.8118
  960MOL0     H29535   1.320   3.612   8.774 -1.2219 -1.3987 -0.4036
  960MOL0     H29536   1.368   3.610   8.954 -0.1461 -0.3557  1.8362
  960MOL0     H29537   1.120   3.466   8.957  0.4637  1.0365  0.6908
  960MOL0     H29538   1.251   3.387   8.874 -0.0203  0.8829  0.6701
  960MOL0     H29539   1.167   3.497   8.660 -1.9181  2.9105 -1.0854
  960MOL0     H29540   1.044   3.564   8.735  2.6694  0.7736 -2.3007
  960MOL0     H29541   1.009   3.278   8.805  0.2882 -0.0397 -1.3593
  960MOL0     H29542   0.902   3.385   8.713 -0.6891 -0.0995 -1.9038
  960MOL0     H29543   1.056   3.355   8.512  3.3286  0.6030  1.5071
  960MOL0     H29544   1.152   3.241   8.609 -0.3112 -0.9900 -0.8955
  960MOL0     H29545   0.961   3.083   8.606  1.6027 -0.4745 -0.6131
  960MOL0     H29546   0.852   3.199   8.539 -0.8011 -1.0326 -0.3669
  960MOL0     H29547   0.928   3.025   8.396 -0.0666  0.6181  0.6517
  960MOL0     H29548   1.090   3.095   8.385 -1.0704 -2.7479 -2.0553
  960MOL0     H29549   0.816   3.221   8.304  0.7889  3.8935 -1.1434
  960MOL0     H29550   0.968   3.299   8.292  0.3457  0.1456 -3.9146
  960MOL0     H29551   1.084   3.308   8.093 -0.9206 -0.3745  1.1079
  960MOL0     H29552   1.079   3.081   7.776 -0.5480  1.1256  0.3166
  960MOL0     H29553   1.133   3.247   7.817  1.8720 -0.0088 -0.8868
  960MOL0     H29554   1.333   3.119   7.792 -1.0382  0.6061  0.1821
  960MOL0     H29555   1.315   3.180   7.960  0.1715  3.9127 -3.1779
  960MOL0     H29556   1.274   2.942   8.046  3.0007 -1.6935  0.8777
  960MOL0     H29557   1.418   2.961   7.954  0.1493  4.0104 -2.1387
  960MOL0     H29558   1.250   2.877   7.757  1.2629 -1.9111  0.8718
  960MOL0     H29559   1.165   2.816   7.897 -0.4235  1.7587  0.9304
  960MOL0     H29560   1.116   2.644   7.764 -1.1156 -0.5437 -1.0938
  960MOL0     H29561   1.101   2.445   7.600  0.7283  0.1154 -2.1231
  960MOL0     H29562   1.467   2.031   7.433 -0.4480 -2.0357 -0.0703
  960MOL0     H29563   1.468   1.860   7.243  0.5058  0.3022  0.0105
  960MOL0     H29564   1.289   1.966   6.842 -0.8324 -1.3900 -2.6675
  960MOL0     H29565   1.473   1.959   6.845  1.6025 -2.0760  0.8169
  960MOL0     H29566   1.411   1.799   6.707  0.9946 -2.3171 -0.0489
  960MOL0     H29567   1.460   1.718   6.856 -2.0824 -1.8095  3.3272
  960MOL0     H29568   1.222   1.675   6.926 -0.6054  0.0597 -0.1802
  960MOL0     H29569   1.171   1.753   6.778  0.0972 -0.1441 -1.3104
  960MOL0     H29570   1.351   1.510   6.792  1.6347  2.5489 -0.3068
  960MOL0     H29571   1.311   1.578   6.639  1.1887 -1.0736  0.3726
  960MOL0     H29572   1.089   1.500   6.676 -0.6829  3.4405  2.3832
  960MOL0     H29573   1.098   1.495   6.849 -1.3574  1.7114 -1.0724
  960MOL0     H29574   1.244   1.318   6.649 -2.0789 -1.8668 -0.6963
  960MOL0     H29575   1.277   1.310   6.828  0.9419 -1.9288 -0.7667
  960MOL0     H29576   1.027   1.237   6.842 -1.8076  0.7581 -1.6937
  960MOL0     H29577   1.150   1.124   6.807 -0.9862 -1.3304 -1.2463
  960MOL0     H29578   0.972   1.265   6.601 -1.4733 -1.2635 -0.6097
  960MOL0     H29579   1.102   1.159   6.550 -3.8835 -3.8128 -2.0864
  960MOL0     H29580   1.287   2.135   6.989  1.2277 -1.4546 -1.0532
  960MOL0     H29581   1.321   2.306   7.150 -0.4841  0.0995 -1.7317
  960MOL0     H29582   1.522   2.422   7.563  1.2766  0.2415  2.4855
  960MOL0     H29583   1.546   2.612   7.735 -0.6880  1.2725  0.2004
  960MOL0     H29584   1.446   3.823   8.907 -0.0430 -1.5954  2.4903
  960MOL0     H29585   1.490   4.042   8.956 -0.0099 -0.0274  1.0829
  960MOL0     H29586   1.223   4.451   9.342  0.3795 -2.0153 -0.7143
  960MOL0     H29587   1.280   4.681   9.376  1.8553  1.7214  0.5958
  960MOL0     H29588   1.457   4.864   9.390  0.5024  0.8634  0.7525
  960MOL0     H29589   1.288   4.917   9.345  1.6684 -1.2337  3.1120
  960MOL0     H29590   1.379   5.114   9.234 -0.3991  1.4966  2.2575
  960MOL0     H29591   1.543   5.055   9.276 -0.1270 -0.4262 -1.7900
  960MOL0     H29592   1.464   5.068   9.524 -1.7887  4.5680  3.4848
  960MOL0     H29593   1.320   5.138   9.462  0.6688 -2.8904  2.9751
  960MOL0     H29594   1.607   5.224   9.428 -0.0199 -0.3742  1.1461
  960MOL0     H29595   1.464   5.323   9.373 -1.1620 -0.9773 -1.2163
  960MOL0     H29596   1.546   5.409   9.782  1.3723  1.2614 -0.9388
  960MOL0     H29597   1.481   4.698   9.011 -1.9339  1.0229 -1.1716
  960MOL0     H29598   1.527   4.517   8.878  1.1478 -0.9006  2.0736
  960MOL0     H29599   1.503   4.348   8.932  1.9778 -0.4750 -1.6954
  960MOL0     H29600   1.375   4.441   8.857  0.8089  2.7572 -0.8436
  961MOL0     O29601  10.751   7.436   2.009 -1.0068  0.0046 -0.8858
  961MOL0     C29602  10.858   7.409   2.060  0.4212  0.4758 -1.2781
  961MOL0     O29603  10.907   7.281   2.085  0.4402 -0.1727 -0.0701
  961MOL0     C29604  10.839   7.164   2.066  1.1837 -0.8486  1.5238
  961MOL0     C29605  10.742   7.149   1.960 -0.1657 -0.7953 -0.5753
  961MOL0     C29606  10.664   7.032   1.968  0.0950 -0.1380 -0.0931
  961MOL0     C29607  10.673   6.931   2.066 -0.6660  0.2973 -0.2962
  961MOL0     O29608  10.588   6.824   2.055  0.0132 -0.0093  0.4790
  961MOL0     C29609  10.543   6.780   2.188  0.7107 -0.2243  0.3376
  961MOL0     C29610  10.399   6.725   2.173  0.8761 -0.0282 -1.0755
  961MOL0     C29611  10.377   6.646   2.303  1.1467  0.5949 -0.7465
  961MOL0     C29612  10.426   6.497   2.303  0.1063 -0.2968  0.2679
  961MOL0     C29613  10.414   6.435   2.442  0.1386 -0.8303 -0.2762
  961MOL0     C29614  10.263   6.434   2.478  0.2621  0.5996 -0.6134
  961MOL0     C29615  10.274   6.361   2.610 -0.4347  0.9471  0.2955
  961MOL0     C29616  10.142   6.339   2.688  0.5491 -0.3725 -0.0999
  961MOL0     N29617  10.072   6.220   2.642 -0.1295 -0.4387 -0.7499
  961MOL0     C29618  10.058   6.106   2.714  0.4205  0.0079  1.0592
  961MOL0     C29619  10.008   6.013   2.632  0.7525 -0.1437  0.6135
  961MOL0     C29620   9.984   5.869   2.662 -0.7164  1.0009  0.6782
  961MOL0     C29621   9.974   5.784   2.533 -0.1402  1.0641 -0.0567
  961MOL0     C29622   9.851   5.770   2.442  0.7921 -0.5961 -0.1863
  961MOL0     C29623   9.719   5.769   2.537 -0.5604  1.0793 -0.5959
  961MOL0     O29624   9.724   5.637   2.605  0.0611  1.0931 -0.1275
  961MOL0     C29625   9.615   5.578   2.661  0.3263  0.1139 -1.2057
  961MOL0     C29626   9.481   5.635   2.660 -0.2794  0.1858 -0.0018
  961MOL0     C29627   9.365   5.555   2.687 -1.0043  0.2674 -1.2987
  961MOL0     C29628   9.386   5.420   2.729 -0.8343  0.5551 -0.8339
  961MOL0     C29629   9.268   5.330   2.770  1.0979  0.2983  0.8526
  961MOL0     O29630   9.293   5.203   2.826  0.0975  0.2206  0.4890
  961MOL0     C29631   9.192   5.132   2.894  1.1172 -0.2035  0.5130
  961MOL0     C29632   9.128   5.034   2.811 -0.8938 -0.6885  0.2577
  961MOL0     C29633   9.019   4.968   2.865  0.1113 -0.0660 -0.1170
  961MOL0     C29634   8.974   4.995   2.994  0.4037  0.9436  1.0740
  961MOL0     O29635   8.862   4.920   3.042 -0.0956 -0.0511 -0.7616
  961MOL0     C29636   8.773   4.999   3.127 -0.5462  0.6293  0.1541
  961MOL0     C29637   8.645   4.931   3.145 -0.8320  0.7268 -0.3534
  961MOL0     C29638   8.545   5.012   3.232  0.8796 -0.5010 -0.5102
  961MOL0     C29639   8.510   5.146   3.165 -0.2305  0.0733  0.3660
  961MOL0     C29640   8.393   5.215   3.234 -0.0496 -0.4261  0.1495
  961MOL0     C29641   8.250   5.171   3.178 -0.5137 -0.2504  0.5810
  961MOL0     C29642   8.147   5.259   3.245  0.5524  0.5068  0.8111
  961MOL0     C29643   8.030   5.268   3.152  0.5327  0.0123  0.0604
  961MOL0    Cl29644   7.898   5.346   3.244 -0.3570 -0.0724  0.5544
  961MOL0     C29645   9.042   5.076   3.083 -0.0059  0.6992  0.3718
  961MOL0     C29646   9.151   5.144   3.024  0.1671  0.9350 -0.5980
  961MOL0     O29647   9.150   5.374   2.759 -0.9125 -0.4271  0.0056
  961MOL0     C29648   9.518   5.364   2.721  0.1498 -0.6096 -0.8458
  961MOL0     C29649   9.629   5.441   2.691  0.5963 -0.5235  0.1955
  961MOL0     N29650   9.973   6.078   2.512 -0.1321  0.5228  0.7875
  961MOL0     N29651   9.997   6.200   2.528  0.1716  0.2683 -0.3040
  961MOL0     C29652  10.770   6.952   2.170 -0.0492  0.2728 -0.1845
  961MOL0     C29653  10.851   7.067   2.166  0.4669 -0.0589  0.1478
  961MOL0     C29654  10.937   7.525   2.124  0.7468  0.0111 -0.0610
  961MOL0     C29655  11.054   7.492   2.201  0.2886  0.9377  0.5102
  961MOL0     C29656  11.140   7.585   2.241  0.1302  1.4891 -0.8109
  961MOL0     C29657  11.130   7.713   2.210  0.8727  0.1193  0.1086
  961MOL0     O29658  11.239   7.785   2.247 -0.3273 -0.6319  0.7595
  961MOL0     C29659  11.278   7.907   2.196 -0.2172  0.0409 -0.2891
  961MOL0     C29660  11.422   7.909   2.234  0.2004 -0.0794 -1.2307
  961MOL0     C29661  11.493   8.017   2.157 -0.0748 -0.9041  0.4635
  961MOL0     C29662  11.632   7.995   2.125 -0.6276 -1.6082  0.0536
  961MOL0     C29663  11.674   8.074   2.004 -0.3498  0.3974 -0.8507
  961MOL0     C29664  11.706   8.152   1.917 -1.5506 -0.2780 -0.3147
  961MOL0     C29665  11.015   7.758   2.142  0.3890  0.0407  0.0598
  961MOL0     C29666  10.924   7.665   2.089  1.1076 -0.5007  0.3973
  961MOL0     C29667  10.831   7.733   1.982 -0.4455  1.2785  0.5296
  961MOL0     H29668  10.732   7.230   1.888  2.8101  1.4095  1.2217
  961MOL0     H29669  10.588   7.020   1.891 -1.2385 -2.3191  1.4705
  961MOL0     H29670  10.598   6.692   2.221  0.7879 -0.5750 -0.7057
  961MOL0     H29671  10.558   6.867   2.253  3.5510  0.7452 -1.3877
  961MOL0     H29672  10.402   6.650   2.092  1.4854 -0.4720 -0.6532
  961MOL0     H29673  10.323   6.803   2.166 -0.1469 -0.7634  1.0660
  961MOL0     H29674  10.270   6.638   2.325  1.4799  0.8140  1.1025
  961MOL0     H29675  10.429   6.703   2.380  1.9308  1.1195 -1.6391
  961MOL0     H29676  10.366   6.436   2.235  2.2307 -0.3226 -1.7004
  961MOL0     H29677  10.532   6.478   2.281  0.2308  0.6890 -0.0376
  961MOL0     H29678  10.459   6.335   2.437 -3.1488 -2.4758  0.1916
  961MOL0     H29679  10.473   6.503   2.504  2.1224 -0.5323 -2.3257
  961MOL0     H29680  10.214   6.528   2.506 -4.5468 -0.7243 -3.3943
  961MOL0     H29681  10.201   6.380   2.406 -1.2729  0.5968  0.6622
  961MOL0     H29682  10.344   6.420   2.670 -0.2413  1.5680 -0.5349
  961MOL0     H29683  10.319   6.262   2.596 -0.0428  0.6076  3.2337
  961MOL0     H29684  10.150   6.343   2.797  0.0196  2.2953 -0.0766
  961MOL0     H29685  10.080   6.422   2.652  2.1060 -0.4854 -3.4538
  961MOL0     H29686  10.097   6.090   2.814  1.0098  0.2992  0.8793
  961MOL0     H29687  10.075   5.844   2.718  0.1857  2.6302  0.0111
  961MOL0     H29688   9.894   5.862   2.724 -1.2396  2.8605  0.1915
  961MOL0     H29689  10.056   5.817   2.469  0.4788 -0.3569 -0.0287
  961MOL0     H29690   9.997   5.684   2.569  1.3258  2.1145  2.0948
  961MOL0     H29691   9.851   5.678   2.383 -1.6854  0.6344 -2.3437
  961MOL0     H29692   9.847   5.856   2.373  0.5366  0.4301  1.0739
  961MOL0     H29693   9.627   5.777   2.479  0.0886 -2.7607 -2.4837
  961MOL0     H29694   9.708   5.854   2.605 -2.4117 -1.0216  1.8912
  961MOL0     H29695   9.463   5.740   2.636 -2.7279  0.5275  2.6706
  961MOL0     H29696   9.264   5.594   2.681  0.2478  4.5445  1.3046
  961MOL0     H29697   9.164   5.028   2.709 -0.3099  2.1226  0.2034
  961MOL0     H29698   8.956   4.903   2.805  2.8886 -1.8749 -1.3184
  961MOL0     H29699   8.815   5.022   3.225 -1.9991  1.7777  0.5489
  961MOL0     H29700   8.753   5.094   3.077 -3.5136 -1.3590 -2.8594
  961MOL0     H29701   8.593   4.894   3.056 -1.4724 -2.4317  1.2027
  961MOL0     H29702   8.659   4.842   3.208 -0.5157  2.2955  1.9087
  961MOL0     H29703   8.457   4.947   3.231  0.2189  0.3315 -2.3464
  961MOL0     H29704   8.571   5.025   3.337  0.8024  0.3754 -0.5893
  961MOL0     H29705   8.497   5.132   3.057  0.9948  3.9910 -0.4659
  961MOL0     H29706   8.594   5.216   3.163  0.2036 -0.3432  2.2640
  961MOL0     H29707   8.425   5.316   3.206 -0.6331 -1.1122 -3.4890
  961MOL0     H29708   8.394   5.205   3.343 -1.4333 -0.4422  0.1840
  961MOL0     H29709   8.236   5.191   3.071 -1.0374 -1.4653  0.4070
  961MOL0     H29710   8.239   5.064   3.198  0.6979 -0.0830  2.3541
  961MOL0     H29711   8.189   5.359   3.246  2.1491 -0.1442  0.9791
  961MOL0     H29712   8.124   5.209   3.340  1.5417 -0.6431  0.4787
  961MOL0     H29713   8.058   5.335   3.069  1.7332 -1.8448 -1.1145
  961MOL0     H29714   7.996   5.169   3.120  0.5851 -0.3788  1.1790
  961MOL0     H29715   9.023   5.092   3.188  0.1244  0.7130  0.3933
  961MOL0     H29716   9.215   5.201   3.091 -0.3650 -0.6178  1.3337
  961MOL0     H29717   9.528   5.256   2.727 -0.2666 -0.8575 -3.3738
  961MOL0     H29718   9.725   5.394   2.672  1.5876  1.9787 -1.5272
  961MOL0     H29719  10.796   6.876   2.243  0.7481  3.0121  2.5780
  961MOL0     H29720  10.943   7.079   2.222  1.7199 -0.3208 -1.7512
  961MOL0     H29721  11.077   7.386   2.212 -1.9017  0.3165 -0.4525
  961MOL0     H29722  11.226   7.560   2.302  0.6501  2.0527 -1.2959
  961MOL0     H29723  11.220   7.996   2.223  0.4688  0.0813  1.1534
  961MOL0     H29724  11.259   7.902   2.088 -2.8600  2.0319 -0.0154
  961MOL0     H29725  11.468   7.811   2.219 -1.9848 -0.9896 -2.4749
  961MOL0     H29726  11.424   7.923   2.343  3.4720  0.1867 -1.2099
  961MOL0     H29727  11.473   8.109   2.214  1.3241 -0.2214 -0.0886
  961MOL0     H29728  11.442   8.036   2.062  2.9548 -3.5909 -1.9147
  961MOL0     H29729  11.690   8.030   2.211  0.4885 -0.4702 -1.1157
  961MOL0     H29730  11.656   7.890   2.107  3.9022 -0.4483 -2.3815
  961MOL0     H29731  11.737   8.215   1.837 -2.8576  2.9424  1.5099
  961MOL0     H29732  11.014   7.861   2.109  1.4373 -0.6469 -2.2807
  961MOL0     H29733  10.788   7.829   2.012 -0.9019  1.2763 -0.1116
  961MOL0     H29734  10.887   7.757   1.892 -0.7703 -1.2925 -0.4559
  961MOL0     H29735  10.751   7.664   1.954  2.2731 -1.0099 -2.3070
  962MOL0     O29736  11.178   6.954   2.781  0.3780 -0.2864  0.0435
  962MOL0     C29737  11.116   6.868   2.718  0.4557 -0.4401  0.1559
  962MOL0     O29738  11.173   6.766   2.648 -0.7239 -0.3668 -0.7117
  962MOL0     C29739  11.308   6.752   2.658  0.7884 -0.0731 -0.2824
  962MOL0     C29740  11.403   6.834   2.590 -0.6742 -0.2277 -0.2040
  962MOL0     C29741  11.543   6.805   2.597 -0.5624  0.9483 -0.3567
  962MOL0     C29742  11.584   6.694   2.672 -0.4429  0.0305 -0.1019
  962MOL0     O29743  11.709   6.639   2.680  0.3120  0.8386  0.1920
  962MOL0     C29744  11.822   6.721   2.692 -0.8953 -0.0307 -0.5185
  962MOL0     C29745  11.830   6.813   2.818 -0.6076  0.6914  0.1775
  962MOL0     C29746  11.940   6.925   2.808  0.0290  0.3429  0.2984
  962MOL0     C29747  11.918   7.024   2.926  0.3467  0.0932 -0.1225
  962MOL0     C29748  11.995   7.154   2.906 -0.9084  1.2198 -0.9443
  962MOL0     C29749  12.146   7.127   2.899 -1.0809 -0.1232 -0.3755
  962MOL0     C29750  12.222   7.165   3.020 -0.1908 -0.5321  0.0410
  962MOL0     C29751  12.171   7.103   3.158 -0.6958 -0.2154  0.0552
  962MOL0     N29752  12.128   7.204   3.267  0.7018  0.2639  0.4583
  962MOL0     C29753  12.042   7.308   3.261 -0.3595 -0.8407  0.2122
  962MOL0     C29754  12.077   7.400   3.356  0.3470  0.9294 -0.1423
  962MOL0     C29755  12.039   7.546   3.383  0.2866 -0.3611  0.2675
  962MOL0     C29756  12.113   7.601   3.496  0.0941 -0.4269  0.1993
  962MOL0     C29757  12.056   7.732   3.542 -0.0326  0.3424 -0.5131
  962MOL0     C29758  12.170   7.834   3.524  0.4342 -0.0037 -0.5583
  962MOL0     O29759  12.130   7.970   3.554  1.0396 -0.1284 -0.0131
  962MOL0     C29760  12.128   8.067   3.458  0.8816 -0.6301  0.1732
  962MOL0     C29761  12.159   8.195   3.499 -0.0448 -0.7097 -0.2436
  962MOL0     C29762  12.159   8.305   3.412  0.5450 -0.5486 -0.2368
  962MOL0     C29763  12.140   8.282   3.272 -0.2078  0.0596  0.1188
  962MOL0     C29764  12.147   8.380   3.173  0.5043 -0.2460  0.3503
  962MOL0     O29765  12.066   8.485   3.198 -0.5075 -0.5660 -0.0614
  962MOL0     C29766  12.070   8.598   3.106  0.2353 -0.1104 -0.8434
  962MOL0     C29767  12.183   8.637   3.045 -0.2911  0.3200 -0.0625
  962MOL0     C29768  12.194   8.753   2.959 -0.7361 -0.1755 -0.5011
  962MOL0     C29769  12.070   8.822   2.931 -0.7150 -1.6979 -0.5201
  962MOL0     O29770  12.057   8.948   2.869 -0.7806  0.4000 -0.0778
  962MOL0     C29771  12.173   9.013   2.815  0.8406 -0.6411 -0.2096
  962MOL0     C29772  12.201   8.971   2.668 -0.5336  0.3990  0.0456
  962MOL0     C29773  12.073   9.009   2.588 -0.9357  0.1001 -0.3920
  962MOL0     C29774  12.078   9.154   2.529  0.2767 -0.5604  0.1385
  962MOL0     C29775  11.954   9.203   2.454  0.4475  0.7141 -0.0830
  962MOL0     C29776  11.904   9.120   2.335  0.3843  0.2408 -0.0833
  962MOL0     C29777  11.771   9.185   2.278  0.6135 -0.6045  0.0248
  962MOL0     C29778  11.727   9.110   2.145  0.0175  0.6108 -0.9293
  962MOL0    Cl29779  11.865   9.125   2.035 -0.2861 -0.3406  0.4705
  962MOL0     C29780  11.961   8.781   2.992 -0.0943 -0.5257  0.2660
  962MOL0     C29781  11.959   8.672   3.074  0.8095 -0.2433 -0.7043
  962MOL0     O29782  12.226   8.370   3.084 -0.6896  1.0130 -1.1481
  962MOL0     C29783  12.105   8.153   3.234  0.0887 -0.2310 -0.1894
  962MOL0     C29784  12.090   8.049   3.322  0.3584 -0.3974  0.3270
  962MOL0     N29785  12.192   7.347   3.409 -0.0220  0.6151 -0.6967
  962MOL0     N29786  12.217   7.223   3.371  0.1808 -0.1059  0.1900
  962MOL0     C29787  11.485   6.619   2.741  0.9944  1.2296 -0.4617
  962MOL0     C29788  11.354   6.651   2.742  0.5953 -0.6812 -0.1808
  962MOL0     C29789  10.967   6.861   2.735  0.7808 -0.4233 -0.2351
  962MOL0     C29790  10.897   6.757   2.675  0.2380  0.0382  0.0312
  962MOL0     C29791  10.755   6.749   2.684 -0.1029 -0.3996 -0.0598
  962MOL0     C29792  10.671   6.845   2.746  0.4636 -0.0332 -0.3387
  962MOL0     O29793  10.531   6.841   2.729  0.1833 -0.3232 -0.1740
  962MOL0     C29794  10.442   6.897   2.820  0.3898 -0.4736  0.0731
  962MOL0     C29795  10.299   6.837   2.825 -0.6734  0.2264  1.0492
  962MOL0     C29796  10.228   6.818   2.687 -0.1353  0.5074 -0.5240
  962MOL0     C29797  10.148   6.945   2.650 -0.2923  0.0420  0.1157
  962MOL0     C29798  10.079   6.887   2.529  0.5873  0.1685  0.0405
  962MOL0     C29799  10.027   6.812   2.441 -1.0030  0.3066  0.0405
  962MOL0     C29800  10.746   6.941   2.819  0.6274  0.1673  0.0371
  962MOL0     C29801  10.889   6.950   2.812  1.1772 -0.3398 -0.0339
  962MOL0     C29802  10.944   7.067   2.881  0.3230  0.1479 -0.2222
  962MOL0     H29803  11.375   6.910   2.518 -0.5462  1.4647  1.4604
  962MOL0     H29804  11.613   6.862   2.536 -0.2287  1.1667  0.2183
  962MOL0     H29805  11.905   6.649   2.690 -2.6688 -2.2895 -4.4446
  962MOL0     H29806  11.828   6.786   2.604 -1.3241 -1.1511 -1.3989
  962MOL0     H29807  11.843   6.751   2.908 -2.2470 -0.8338 -0.5697
  962MOL0     H29808  11.744   6.877   2.836 -0.8282 -0.1724  2.7133
  962MOL0     H29809  11.924   6.965   2.708 -0.7471  0.9346  0.6453
  962MOL0     H29810  12.041   6.884   2.797  0.4390  0.7379  2.2109
  962MOL0     H29811  11.813   7.054   2.921  0.4850  0.3965 -2.7215
  962MOL0     H29812  11.929   6.984   3.027 -4.0048  2.6021  1.6545
  962MOL0     H29813  11.967   7.202   2.811 -0.0921  1.2505 -1.1719
  962MOL0     H29814  11.969   7.221   2.989 -1.2796  0.5081 -0.4797
  962MOL0     H29815  12.176   7.024   2.876  3.5378  0.6457  1.1706
  962MOL0     H29816  12.185   7.186   2.816 -0.2760  1.2646  0.9586
  962MOL0     H29817  12.216   7.273   3.034  2.3486 -0.6133  2.5888
  962MOL0     H29818  12.330   7.147   3.015 -0.5737 -3.2673  0.0082
  962MOL0     H29819  12.091   7.031   3.143  0.7268 -1.8017 -0.2806
  962MOL0     H29820  12.256   7.048   3.200 -2.1667 -0.8014  2.4525
  962MOL0     H29821  11.966   7.317   3.184 -0.5364 -0.9532  0.3732
  962MOL0     H29822  12.059   7.599   3.290  0.4615 -1.5749 -0.4142
  962MOL0     H29823  11.931   7.538   3.402 -0.0068  0.6166 -0.8567
  962MOL0     H29824  12.113   7.519   3.568 -0.9862 -2.5434 -2.0906
  962MOL0     H29825  12.212   7.608   3.450 -0.7732  1.5621 -1.5111
  962MOL0     H29826  12.023   7.710   3.644  2.7168 -1.2055  0.1455
  962MOL0     H29827  11.969   7.764   3.485  0.2666  1.5448 -0.3383
  962MOL0     H29828  12.221   7.836   3.427  2.1060 -0.4329  0.2593
  962MOL0     H29829  12.255   7.805   3.588 -0.1396  4.2512  2.5479
  962MOL0     H29830  12.200   8.203   3.599 -0.8738  1.2526 -0.0216
  962MOL0     H29831  12.193   8.399   3.455 -1.0574 -0.4199  0.8351
  962MOL0     H29832  12.279   8.601   3.079  0.6826  0.7351 -2.2126
  962MOL0     H29833  12.288   8.772   2.910 -0.6983 -1.8143 -1.1436
  962MOL0     H29834  12.155   9.121   2.821  0.0203 -0.7825  0.0277
  962MOL0     H29835  12.260   8.995   2.879  0.5430 -1.2249  0.0322
  962MOL0     H29836  12.287   9.026   2.629  1.1436 -3.2076 -1.8280
  962MOL0     H29837  12.215   8.862   2.667  1.1653  0.5841 -1.1496
  962MOL0     H29838  12.083   8.944   2.500  2.1874  0.2824 -0.2736
  962MOL0     H29839  11.984   8.991   2.648 -1.4772  0.4872 -1.0608
  962MOL0     H29840  12.155   9.160   2.452 -1.8739 -0.5600 -2.1568
  962MOL0     H29841  12.109   9.228   2.603 -0.0829  0.4248 -0.6727
  962MOL0     H29842  11.975   9.306   2.423  2.6490  0.0905 -0.8242
  962MOL0     H29843  11.879   9.208   2.535  3.8451  1.1313  3.3413
  962MOL0     H29844  11.988   9.130   2.265 -0.0467 -0.1869 -0.6764
  962MOL0     H29845  11.884   9.016   2.360  3.8126 -1.3993 -3.1088
  962MOL0     H29846  11.776   9.294   2.265 -0.6181 -0.0312  3.4042
  962MOL0     H29847  11.685   9.175   2.344  0.0424  0.6137 -0.4995
  962MOL0     H29848  11.703   9.005   2.162  1.4823 -0.1417 -3.0862
  962MOL0     H29849  11.645   9.160   2.093  0.7072  0.8223 -1.8381
  962MOL0     H29850  11.863   8.827   2.981 -1.0414 -2.2444  1.0441
  962MOL0     H29851  11.869   8.641   3.127  2.3234 -0.3478  1.9970
  962MOL0     H29852  12.095   8.133   3.128  0.6257  1.2234 -0.5260
  962MOL0     H29853  12.067   7.954   3.276  1.1077  0.6155 -2.3071
  962MOL0     H29854  11.513   6.527   2.791 -1.9174  0.2404 -0.4719
  962MOL0     H29855  11.275   6.601   2.797 -0.5783  1.0442 -0.2131
  962MOL0     H29856  10.944   6.670   2.630 -0.3296 -1.1386  1.6331
  962MOL0     H29857  10.701   6.663   2.646 -0.1027 -0.3131 -0.2517
  962MOL0     H29858  10.439   7.001   2.786 -2.1291  0.3296  2.3515
  962MOL0     H29859  10.472   6.906   2.925 -1.6330 -1.7757  0.8024
  962MOL0     H29860  10.237   6.900   2.890 -2.5362 -2.5955  2.2153
  962MOL0     H29861  10.320   6.735   2.860 -0.2725  0.5074  1.6378
  962MOL0     H29862  10.173   6.723   2.692  1.4634 -0.5087 -1.3860
  962MOL0     H29863  10.308   6.806   2.613  0.7312  3.0273 -0.0822
  962MOL0     H29864  10.066   6.964   2.719 -2.1568 -0.4274 -1.8629
  962MOL0     H29865  10.214   7.031   2.631  0.1087 -0.4778 -0.9159
  962MOL0     H29866  10.003   6.758   2.352  0.1941  2.2528 -1.5686
  962MOL0     H29867  10.700   7.015   2.883 -2.1197  0.7765 -2.4272
  962MOL0     H29868  11.007   7.062   2.971  0.9949  2.0328 -0.5414
  962MOL0     H29869  11.006   7.122   2.810  1.0255 -1.2671 -0.7400
  962MOL0     H29870  10.861   7.133   2.907  1.7989  2.1139 -0.1716
  963MOL0     O29871  10.121   9.628   7.990  0.2323  0.1108  0.4694
  963MOL0     C29872  10.108   9.723   8.074 -0.3547 -0.3660  0.1391
  963MOL0     O29873  10.123   9.852   8.047  0.0047  0.4831  0.4001
  963MOL0     C29874  10.085   9.905   7.922 -1.1211  1.0828 -0.2815
  963MOL0     C29875  10.127  10.038   7.895  0.7521 -0.6907 -0.4576
  963MOL0     C29876  10.086  10.108   7.782  0.4752  0.0125  0.1561
  963MOL0     C29877  10.003  10.040   7.684 -0.6549 -0.2555  0.3325
  963MOL0     O29878   9.974  10.109   7.573 -0.4515 -0.0973  0.1458
  963MOL0     C29879   9.899  10.048   7.467  0.9482  0.0252  0.5997
  963MOL0     C29880   9.877  10.147   7.364 -0.0991 -0.1199  0.4923
  963MOL0     C29881   9.866  10.084   7.215  0.5901  0.6415 -0.4005
  963MOL0     C29882   9.732   9.998   7.209 -0.0808  0.2417  0.2459
  963MOL0     C29883   9.602  10.061   7.223  0.7380 -1.1167  0.7335
  963MOL0     C29884   9.489   9.978   7.159  0.7900 -0.3115  0.3570
  963MOL0     C29885   9.355  10.033   7.176 -0.0108 -0.4255  0.3624
  963MOL0     C29886   9.315  10.011   7.328  0.2068  0.5927 -0.4756
  963MOL0     N29887   9.183  10.067   7.350 -0.5466  0.0840  0.1100
  963MOL0     C29888   9.073   9.991   7.370 -0.2427 -0.1227 -0.2646
  963MOL0     C29889   8.977  10.080   7.388  0.2168  0.3471 -0.7823
  963MOL0     C29890   8.837  10.031   7.432  0.2766 -0.4064  0.4763
  963MOL0     C29891   8.834   9.977   7.575  0.2938  0.0691 -0.2023
  963MOL0     C29892   8.883  10.061   7.689  0.0628 -0.2047 -0.1942
  963MOL0     C29893   8.814  10.201   7.720 -0.5812 -0.3380  0.3199
  963MOL0     O29894   8.888  10.279   7.820  0.1936  0.4849  0.7013
  963MOL0     C29895   8.871  10.416   7.834 -1.0434 -0.0932 -0.2090
  963MOL0     C29896   8.767  10.484   7.772 -0.2191 -0.0288 -0.6679
  963MOL0     C29897   8.752  10.620   7.787 -0.3773 -0.2270 -0.1657
  963MOL0     C29898   8.845  10.693   7.860  0.4479  0.3670  0.6335
  963MOL0     C29899   8.851  10.838   7.873  1.3183 -1.3532 -0.1396
  963MOL0     O29900   8.913  10.894   7.983  0.4643 -0.3459 -0.1371
  963MOL0     C29901   8.931  11.030   7.999  0.2671 -0.2146  0.0602
  963MOL0     C29902   9.028  11.057   8.090  0.5770 -0.4936  0.0693
  963MOL0     C29903   9.066  11.184   8.122  0.7896  0.4989  0.2095
  963MOL0     C29904   9.008  11.299   8.069 -0.1899  0.1261  0.8919
  963MOL0     O29905   9.049  11.424   8.087  0.3532  0.7745 -0.2647
  963MOL0     C29906   9.181  11.470   8.043  0.9652  0.1097 -0.6794
  963MOL0     C29907   9.180  11.622   8.033 -0.2338 -0.7182 -0.1756
  963MOL0     C29908   9.329  11.668   8.004  0.0795 -0.6360 -0.2999
  963MOL0     C29909   9.353  11.816   7.998  0.1300 -1.1863  0.3536
  963MOL0     C29910   9.504  11.848   7.992  0.1588  0.5778  0.6229
  963MOL0     C29911   9.534  11.994   7.960  0.2899 -0.2577 -0.0661
  963MOL0     C29912   9.685  12.008   7.988  0.0549 -0.6001 -0.3640
  963MOL0     C29913   9.754  12.101   7.883  0.2872  0.1765  0.0246
  963MOL0    Cl29914   9.920  12.159   7.919 -0.0421  0.0930  0.4105
  963MOL0     C29915   8.904  11.274   7.975 -0.0475  1.2103 -1.1869
  963MOL0     C29916   8.863  11.141   7.939  0.7387  0.3275  0.6156
  963MOL0     O29917   8.789  10.900   7.791 -0.5264 -0.0944  0.3727
  963MOL0     C29918   8.945  10.623   7.931 -0.3010 -0.8236 -0.0569
  963MOL0     C29919   8.958  10.481   7.924  1.1615  0.6319  0.6536
  963MOL0     N29920   9.019  10.205   7.374 -1.3201  0.0662 -0.5343
  963MOL0     N29921   9.155  10.199   7.355  0.5031  0.1647  0.6801
  963MOL0     C29922   9.967   9.906   7.714  0.4475 -0.1759 -0.0904
  963MOL0     C29923   9.996   9.841   7.831  0.1201 -0.8839  0.1960
  963MOL0     C29924  10.081   9.695   8.218  0.6289 -0.6288  0.3364
  963MOL0     C29925   9.997   9.779   8.281  0.2492  0.3009  0.0671
  963MOL0     C29926   9.950   9.760   8.411  0.8149 -0.9166 -0.0734
  963MOL0     C29927   9.991   9.660   8.485  0.2172 -0.0820  0.5096
  963MOL0     O29928   9.946   9.656   8.609 -0.9914 -0.1477 -0.5494
  963MOL0     C29929  10.005   9.571   8.710 -0.1853  1.0186  0.0505
  963MOL0     C29930  10.133   9.642   8.763  0.2774  0.8270  0.6270
  963MOL0     C29931  10.197   9.560   8.887 -0.0924 -0.7675 -0.2430
  963MOL0     C29932  10.224   9.408   8.849  0.2333  0.2808 -0.1241
  963MOL0     C29933  10.315   9.394   8.731 -0.6839 -1.1781 -0.3347
  963MOL0     C29934  10.379   9.372   8.628 -0.8054 -0.1623 -0.1888
  963MOL0     C29935  10.087   9.573   8.429  0.2473  0.6881  0.9307
  963MOL0     C29936  10.130   9.585   8.292  0.2089 -0.6375 -0.8113
  963MOL0     C29937  10.233   9.485   8.244  0.4148  0.6910 -0.1022
  963MOL0     H29938  10.195  10.079   7.969  3.3817  0.3485 -3.2504
  963MOL0     H29939  10.123  10.210   7.771 -0.2693  0.4039  1.1665
  963MOL0     H29940   9.954   9.967   7.419 -0.2616 -0.3880 -0.1286
  963MOL0     H29941   9.807  10.012   7.515  0.7151 -2.7369 -1.6441
  963MOL0     H29942   9.975  10.195   7.356  1.0522 -2.2971  0.7929
  963MOL0     H29943   9.796  10.214   7.395  1.4555  1.6419  0.8683
  963MOL0     H29944   9.955  10.023   7.196  0.2178 -0.0501  0.0411
  963MOL0     H29945   9.874  10.168   7.145  0.7338  1.1100  0.1606
  963MOL0     H29946   9.737   9.952   7.110 -0.2514  0.6595  0.0402
  963MOL0     H29947   9.729   9.912   7.277 -0.2905  1.2157  1.5039
  963MOL0     H29948   9.579  10.083   7.328  4.1721  0.1297  1.3620
  963MOL0     H29949   9.609  10.150   7.160  4.4789 -3.2160 -2.2902
  963MOL0     H29950   9.510   9.960   7.053 -1.5069  2.0438 -0.5938
  963MOL0     H29951   9.493   9.881   7.211  0.5228  0.0181  1.0088
  963MOL0     H29952   9.281   9.980   7.115 -1.7798  3.1266 -0.8180
  963MOL0     H29953   9.339  10.137   7.146 -0.6576 -0.8436 -0.8097
  963MOL0     H29954   9.324   9.906   7.355  3.3480  0.1357 -2.7626
  963MOL0     H29955   9.380  10.065   7.398 -0.8830  2.0499 -0.5305
  963MOL0     H29956   9.070   9.887   7.401  0.0100  0.0161  0.2546
  963MOL0     H29957   8.772  10.118   7.422 -1.3892 -1.6373  0.1419
  963MOL0     H29958   8.800   9.958   7.359  0.4511  0.2426 -0.2657
  963MOL0     H29959   8.734   9.940   7.602  2.0023 -1.8659  4.5195
  963MOL0     H29960   8.901   9.892   7.583  1.6568  0.9438 -1.6885
  963MOL0     H29961   8.985  10.097   7.671 -0.3142  0.9817 -0.0887
  963MOL0     H29962   8.883   9.997   7.777 -0.1413  1.2203  0.8876
  963MOL0     H29963   8.712  10.180   7.752 -0.5137  2.4297  2.7613
  963MOL0     H29964   8.798  10.253   7.625  2.4272  1.1284  0.4931
  963MOL0     H29965   8.675  10.437   7.738 -0.7000  0.9946 -0.8431
  963MOL0     H29966   8.662  10.673   7.757 -1.9633  0.0869  4.3625
  963MOL0     H29967   9.074  10.976   8.146 -0.1929  1.1336  3.3207
  963MOL0     H29968   9.146  11.192   8.195  1.0876 -2.6923  0.3668
  963MOL0     H29969   9.256  11.449   8.119 -1.1151  1.5309  1.9597
  963MOL0     H29970   9.204  11.416   7.951  1.7605 -0.4485 -0.1604
  963MOL0     H29971   9.116  11.665   7.956  2.3761  0.0036 -2.0741
  963MOL0     H29972   9.142  11.662   8.128  4.8734 -0.8972  2.2976
  963MOL0     H29973   9.385  11.627   8.089  1.4214  0.3439 -0.6866
  963MOL0     H29974   9.360  11.617   7.912 -1.2507 -2.2303  0.0769
  963MOL0     H29975   9.309  11.865   8.086 -0.0329  2.0730 -1.3800
  963MOL0     H29976   9.302  11.861   7.912  0.0256  0.7998  1.3973
  963MOL0     H29977   9.537  11.806   7.896 -0.1064 -1.2161  1.2887
  963MOL0     H29978   9.553  11.806   8.080  1.4423 -0.3194 -0.4592
  963MOL0     H29979   9.516  12.014   7.853  0.2319 -0.0992 -0.0268
  963MOL0     H29980   9.465  12.050   8.024  0.4888  0.0440 -0.1184
  963MOL0     H29981   9.727  11.907   7.996  0.4349 -0.3772  0.6190
  963MOL0     H29982   9.719  12.052   8.082  0.4288 -1.8992  0.1334
  963MOL0     H29983   9.751  12.051   7.786 -3.1015  0.4283 -0.1075
  963MOL0     H29984   9.687  12.185   7.862 -1.3010 -0.9705  0.3498
  963MOL0     H29985   8.856  11.368   7.948 -0.7066  1.0910 -0.4418
  963MOL0     H29986   8.785  11.130   7.864 -0.4921  0.6841  1.7972
  963MOL0     H29987   9.022  10.680   7.982 -1.4758  1.0789 -0.3330
  963MOL0     H29988   9.034  10.426   7.980  1.0753  3.3704  3.7603
  963MOL0     H29989   9.901   9.862   7.639  0.2735 -1.3035  0.7028
  963MOL0     H29990   9.948   9.748   7.860  0.0839 -1.0753 -0.4651
  963MOL0     H29991   9.932   9.848   8.228 -0.2012 -0.4202 -0.3299
  963MOL0     H29992   9.869   9.819   8.452 -0.4996  0.3252 -4.0254
  963MOL0     H29993  10.033   9.473   8.669 -1.6151  0.2295  0.8455
  963MOL0     H29994   9.923   9.561   8.782  0.2018  1.8234  0.6236
  963MOL0     H29995  10.116   9.749   8.781  1.5634  0.8345  1.9398
  963MOL0     H29996  10.219   9.628   8.697  0.2422 -3.9587  1.2472
  963MOL0     H29997  10.131   9.580   8.972  0.6931  5.1343 -0.6115
  963MOL0     H29998  10.291   9.601   8.924 -1.1529 -0.6091  2.5681
  963MOL0     H29999  10.269   9.360   8.936  1.8374  1.7786 -0.0765
  963MOL0     H30000  10.129   9.359   8.828 -0.5205  1.8673 -0.6043
  963MOL0     H30001  10.431   9.351   8.536  0.3375 -1.0536  0.6399
  963MOL0     H30002  10.124   9.485   8.480  1.0418  0.0648 -0.6585
  963MOL0     H30003  10.310   9.459   8.317  1.0167  1.8731 -0.2969
  963MOL0     H30004  10.194   9.386   8.216 -2.2002  1.2773  1.2042
  963MOL0     H30005  10.294   9.529   8.165  3.8711 -1.5573  1.0721
  964MOL0     O30006  10.990   0.313   6.650  0.1943 -0.0613  0.0601
  964MOL0     C30007  11.023   0.261   6.545  0.4796  0.5465 -0.0720
  964MOL0     O30008  10.940   0.208   6.446 -0.3362 -0.4341  0.3034
  964MOL0     C30009  10.801   0.221   6.451  0.9706  0.2994 -0.1492
  964MOL0     C30010  10.737   0.214   6.327 -0.2643  0.0657 -0.0599
  964MOL0     C30011  10.593   0.212   6.317  0.2946  0.2783  0.8460
  964MOL0     C30012  10.516   0.202   6.432 -0.8419  0.2112  0.4352
  964MOL0     O30013  10.381   0.184   6.410  0.2417 -1.4086 -0.6073
  964MOL0     C30014  10.294   0.215   6.518 -0.2030 -0.2445  0.1154
  964MOL0     C30015  10.185   0.109   6.522 -0.2995 -0.0208 -0.3151
  964MOL0     C30016  10.052   0.176   6.557 -0.2069  0.2744  0.1892
  964MOL0     C30017   9.945   0.080   6.554 -0.4293  0.0196 -0.1733
  964MOL0     C30018   9.879   0.081   6.422  0.1847  0.6888  0.0438
  964MOL0     C30019   9.774  -0.037   6.422  1.1192  0.1302  0.1554
  964MOL0     C30020   9.641  -0.014   6.490  0.4378  0.1623 -0.0323
  964MOL0     C30021   9.531   0.025   6.394 -0.2245 -0.3430  0.0010
  964MOL0     N30022   9.481  -0.069   6.298  0.2518 -0.1353 -0.1872
  964MOL0     C30023   9.412  -0.179   6.344  0.3394 -0.5389  1.1995
  964MOL0     C30024   9.382  -0.237   6.227 -0.1923 -0.1286  0.7032
  964MOL0     C30025   9.309  -0.375   6.226  0.0259 -0.8000  0.4723
  964MOL0     C30026   9.387  -0.471   6.304 -0.1113 -0.2197 -0.0359
  964MOL0     C30027   9.534  -0.490   6.262 -0.6301  0.2944 -1.0486
  964MOL0     C30028   9.610  -0.575   6.362 -0.2383 -0.0293 -0.6549
  964MOL0     O30029   9.641  -0.499   6.476  0.8978  0.6793 -0.6467
  964MOL0     C30030   9.755  -0.432   6.486  0.0086  0.3267 -0.6762
  964MOL0     C30031   9.849  -0.421   6.382  0.0836 -0.7504  0.8592
  964MOL0     C30032   9.976  -0.373   6.401 -0.6771 -0.7896  0.0393
  964MOL0     C30033  10.012  -0.328   6.532  0.6663  0.2519 -0.1285
  964MOL0     C30034  10.152  -0.284   6.559  0.8760 -0.4562 -0.1068
  964MOL0     O30035  10.239  -0.290   6.451  0.6178  0.4190  1.0013
  964MOL0     C30036  10.375  -0.286   6.491 -0.0025  0.7385  0.2645
  964MOL0     C30037  10.452  -0.169   6.480 -0.2616 -0.3971  0.0117
  964MOL0     C30038  10.582  -0.148   6.530 -0.6726  0.8356  0.5917
  964MOL0     C30039  10.636  -0.266   6.588 -0.1560 -0.0211 -0.5166
  964MOL0     O30040  10.766  -0.242   6.632 -0.8017 -0.3716  0.2976
  964MOL0     C30041  10.849  -0.355   6.663  0.0850 -0.4352 -0.0043
  964MOL0     C30042  10.987  -0.302   6.703 -0.0842  0.4059  0.8782
  964MOL0     C30043  11.065  -0.263   6.573 -0.9183 -0.4964 -0.1249
  964MOL0     C30044  11.207  -0.241   6.618 -0.7404 -0.7688 -0.9446
  964MOL0     C30045  11.289  -0.182   6.488  0.8446  0.6702  0.4562
  964MOL0     C30046  11.421  -0.145   6.537 -0.3208  0.4669 -0.2324
  964MOL0     C30047  11.512  -0.112   6.426 -0.1830  0.2891  0.0996
  964MOL0     C30048  11.652  -0.070   6.456  0.0569 -0.6254 -0.1506
  964MOL0    Cl30049  11.710  -0.003   6.307  0.0677 -0.3288 -0.0042
  964MOL0     C30050  10.573  -0.388   6.591 -0.0647  0.1175 -0.5727
  964MOL0     C30051  10.434  -0.398   6.550 -0.3557  0.3895  0.3878
  964MOL0     O30052  10.187  -0.257   6.673 -0.6007  0.3789 -0.6042
  964MOL0     C30053   9.917  -0.337   6.640 -0.3932 -0.6126 -0.2148
  964MOL0     C30054   9.790  -0.391   6.617 -0.0619 -0.0714 -0.7115
  964MOL0     N30055   9.418  -0.157   6.117  0.3797  0.0423 -0.1499
  964MOL0     N30056   9.463  -0.047   6.166 -0.5010  0.4391 -0.5558
  964MOL0     C30057  10.578   0.215   6.557 -1.9647  1.0082 -0.1790
  964MOL0     C30058  10.720   0.229   6.564 -0.0012  0.9005 -0.0656
  964MOL0     C30059  11.170   0.262   6.521  0.7678  0.0612  0.8473
  964MOL0     C30060  11.208   0.308   6.395 -0.0563 -0.5888 -0.4392
  964MOL0     C30061  11.343   0.332   6.379 -0.8117 -0.3441  0.8405
  964MOL0     C30062  11.439   0.297   6.473 -0.5673  0.2208 -0.6676
  964MOL0     O30063  11.573   0.324   6.450  1.1147  0.6977  0.1824
  964MOL0     C30064  11.612   0.429   6.366  0.9486 -0.6238  0.3102
  964MOL0     C30065  11.770   0.445   6.372 -0.7772 -0.0393 -0.6805
  964MOL0     C30066  11.820   0.554   6.265  0.6351  0.6069 -0.1846
  964MOL0     C30067  11.967   0.541   6.254  1.1163  0.2000  0.0183
  964MOL0     C30068  12.035   0.589   6.378 -0.4120  0.2767 -0.8777
  964MOL0     C30069  12.070   0.647   6.482  0.2914 -0.4199 -0.9280
  964MOL0     C30070  11.393   0.239   6.591  0.0362  0.1108 -0.6083
  964MOL0     C30071  11.258   0.222   6.618 -0.2873 -0.0957  0.1685
  964MOL0     C30072  11.222   0.150   6.748 -0.3971  0.8123  0.5769
  964MOL0     H30073  10.788   0.226   6.233 -0.7100 -0.5731 -0.3953
  964MOL0     H30074  10.539   0.218   6.223  1.3779 -1.3023  0.0894
  964MOL0     H30075  10.339   0.215   6.618  1.6617 -2.6022 -0.6252
  964MOL0     H30076  10.252   0.314   6.499 -0.5614  0.1495  2.6130
  964MOL0     H30077  10.222   0.036   6.594  3.1776  0.7460 -1.1574
  964MOL0     H30078  10.178   0.060   6.424 -0.5401  3.4648 -2.2168
  964MOL0     H30079  10.026   0.257   6.488 -1.7150  1.1475  1.7177
  964MOL0     H30080  10.064   0.207   6.662  4.0040 -0.8026  0.1958
  964MOL0     H30081   9.988  -0.020   6.569 -1.4614 -0.4996 -0.5890
  964MOL0     H30082   9.866   0.105   6.625 -0.0431  3.9902 -0.9066
  964MOL0     H30083   9.834   0.179   6.404  1.6012  2.0527  3.1741
  964MOL0     H30084   9.949   0.060   6.340 -0.1336 -1.6019  0.2947
  964MOL0     H30085   9.762  -0.078   6.321  0.5363 -0.0165  0.2819
  964MOL0     H30086   9.822  -0.125   6.466 -0.8958 -1.7518 -1.2165
  964MOL0     H30087   9.636   0.064   6.567 -1.7970 -2.9742  3.3607
  964MOL0     H30088   9.608  -0.104   6.543 -0.0497  0.0252 -0.5616
  964MOL0     H30089   9.446   0.079   6.437 -0.2926 -1.8844  1.9452
  964MOL0     H30090   9.583   0.103   6.339  1.0640 -1.0732  0.1536
  964MOL0     H30091   9.384  -0.193   6.448  1.8631  2.3137  2.1004
  964MOL0     H30092   9.206  -0.377   6.263 -0.0255 -1.3444  0.3086
  964MOL0     H30093   9.295  -0.399   6.120 -3.8796 -1.6457  1.0186
  964MOL0     H30094   9.380  -0.439   6.409 -1.2693  2.4482 -0.8418
  964MOL0     H30095   9.337  -0.568   6.294 -2.3097  1.0482 -2.5804
  964MOL0     H30096   9.597  -0.401   6.261  0.3614 -0.3513 -3.2046
  964MOL0     H30097   9.526  -0.546   6.168 -2.3696 -0.8236 -0.2879
  964MOL0     H30098   9.700  -0.622   6.321  0.0554  0.2599 -0.3463
  964MOL0     H30099   9.546  -0.653   6.404  0.2043 -0.3374 -0.5376
  964MOL0     H30100   9.824  -0.454   6.282  2.4049 -2.8597  0.8925
  964MOL0     H30101  10.047  -0.370   6.319  0.8648  1.6614  1.3427
  964MOL0     H30102  10.414  -0.095   6.410  2.1580 -1.6625 -2.8540
  964MOL0     H30103  10.631  -0.052   6.525 -1.3495  1.2936  2.1504
  964MOL0     H30104  10.811  -0.422   6.741  3.1333 -1.3434  0.8050
  964MOL0     H30105  10.857  -0.423   6.578 -0.1561 -0.4072 -0.0526
  964MOL0     H30106  10.972  -0.216   6.770  1.5753 -0.3420  2.2815
  964MOL0     H30107  11.039  -0.378   6.761 -0.9636 -3.6503 -3.0896
  964MOL0     H30108  11.056  -0.337   6.493  0.6010 -2.1206  1.1399
  964MOL0     H30109  11.030  -0.166   6.535 -1.2956  0.6757  2.9392
  964MOL0     H30110  11.268  -0.323   6.658 -1.4925 -0.4695  0.8980
  964MOL0     H30111  11.212  -0.166   6.698  2.1858 -1.0609 -0.7366
  964MOL0     H30112  11.243  -0.094   6.441  1.2309  0.4055 -0.4567
  964MOL0     H30113  11.293  -0.254   6.406 -3.2816  0.2651  0.3657
  964MOL0     H30114  11.405  -0.055   6.596 -2.3204  1.3538 -2.0035
  964MOL0     H30115  11.466  -0.221   6.602 -0.4914 -2.9006 -3.6623
  964MOL0     H30116  11.460  -0.038   6.364 -0.8277 -0.7541 -0.6285
  964MOL0     H30117  11.533  -0.205   6.371 -1.5204 -0.8720  1.4714
  964MOL0     H30118  11.652   0.007   6.533  0.2142 -1.8300  1.0969
  964MOL0     H30119  11.716  -0.154   6.485  1.9345  0.2513 -1.4789
  964MOL0     H30120  10.611  -0.482   6.630 -4.7101 -2.8279 -2.2656
  964MOL0     H30121  10.366  -0.482   6.564 -3.6079  2.7954  0.3239
  964MOL0     H30122   9.956  -0.308   6.737  0.2818 -3.1325  0.3457
  964MOL0     H30123   9.734  -0.401   6.709 -0.1856  3.1231 -0.3152
  964MOL0     H30124  10.523   0.205   6.650 -0.7461  1.9975  0.6753
  964MOL0     H30125  10.767   0.228   6.661  2.5388 -1.1558 -1.1867
  964MOL0     H30126  11.139   0.349   6.322  0.4432 -0.3256 -0.7700
  964MOL0     H30127  11.372   0.397   6.298 -1.4529  2.7309  2.9059
  964MOL0     H30128  11.575   0.527   6.397  4.5835  0.4700  1.7651
  964MOL0     H30129  11.576   0.406   6.265 -1.3326  4.2378 -0.2583
  964MOL0     H30130  11.818   0.347   6.369  0.2124  0.1131  3.4088
  964MOL0     H30131  11.792   0.479   6.474 -0.1233  0.0106 -0.8392
  964MOL0     H30132  11.781   0.653   6.292  0.3436 -0.0459  1.9441
  964MOL0     H30133  11.777   0.532   6.167 -2.2977 -1.3720  1.3891
  964MOL0     H30134  11.983   0.434   6.237 -4.5113 -0.8497 -0.5757
  964MOL0     H30135  12.002   0.600   6.170  2.6975  2.6936  2.2694
  964MOL0     H30136  12.110   0.700   6.566  3.3589 -1.2916 -1.6946
  964MOL0     H30137  11.472   0.202   6.655 -1.0779 -0.3846  0.5163
  964MOL0     H30138  11.281   0.059   6.760  0.8698  1.3552 -1.2450
  964MOL0     H30139  11.251   0.217   6.829 -1.0542  2.2470 -0.3325
  964MOL0     H30140  11.117   0.121   6.737 -0.3131 -0.3512  2.3229
  965MOL0     O30141   3.023   5.942   5.361 -1.0626 -0.1022  0.2229
  965MOL0     C30142   3.098   5.875   5.426 -0.2391 -0.0953  0.3789
  965MOL0     O30143   3.156   5.910   5.545  0.8022  0.5153 -0.4001
  965MOL0     C30144   3.137   6.036   5.600  0.3024 -0.0370  0.1341
  965MOL0     C30145   3.252   6.099   5.657 -0.2580 -0.8472  0.0008
  965MOL0     C30146   3.253   6.227   5.719 -0.1567  0.7650 -0.0391
  965MOL0     C30147   3.126   6.283   5.736  0.0085 -0.4414 -0.0811
  965MOL0     O30148   3.119   6.389   5.821  0.1069  0.0728  0.3569
  965MOL0     C30149   3.240   6.471   5.835  0.2326 -0.8361  0.0347
  965MOL0     C30150   3.193   6.611   5.893 -0.7531 -0.0455  0.2264
  965MOL0     C30151   3.305   6.720   5.894 -0.7807 -0.2136  0.3085
  965MOL0     C30152   3.290   6.844   5.983 -0.3097  0.9598 -0.7480
  965MOL0     C30153   3.212   6.953   5.919 -1.6785  0.1391  0.1803
  965MOL0     C30154   3.063   6.942   5.957 -0.2444  0.3602  1.1597
  965MOL0     C30155   2.985   7.031   5.858  0.0822  0.3650  0.0165
  965MOL0     C30156   2.832   7.010   5.874  0.4281 -0.4311  0.1764
  965MOL0     N30157   2.775   7.114   5.792  0.5335  0.1444  0.3371
  965MOL0     C30158   2.661   7.085   5.718 -0.1138  0.5109 -0.7770
  965MOL0     C30159   2.616   7.198   5.669  0.0227 -0.3917 -1.4969
  965MOL0     C30160   2.517   7.210   5.562  0.4208  0.8246  0.1688
  965MOL0     C30161   2.595   7.265   5.445 -0.8604 -0.5884 -0.0627
  965MOL0     C30162   2.502   7.344   5.357  1.0758  0.5870  0.2328
  965MOL0     C30163   2.564   7.349   5.216 -0.3104 -0.8398 -0.1414
  965MOL0     O30164   2.592   7.223   5.148 -0.2863 -0.3868 -0.0496
  965MOL0     C30165   2.587   7.215   5.015  0.3708  0.1675  0.1312
  965MOL0     C30166   2.544   7.096   4.955  0.2303 -0.9473  0.1360
  965MOL0     C30167   2.539   7.080   4.812 -0.1960 -0.6079 -0.8807
  965MOL0     C30168   2.592   7.187   4.731 -0.8868 -0.1089  0.5170
  965MOL0     C30169   2.558   7.195   4.589 -0.0935  0.4673 -0.3221
  965MOL0     O30170   2.576   7.312   4.520  0.6350  0.9647 -0.4621
  965MOL0     C30171   2.567   7.308   4.389 -0.1138 -0.2300  0.9635
  965MOL0     C30172   2.659   7.255   4.305 -0.1281 -0.0371  0.5100
  965MOL0     C30173   2.652   7.253   4.165  0.3154  0.1849  0.3277
  965MOL0     C30174   2.536   7.312   4.102 -0.7810 -0.4437 -0.2895
  965MOL0     O30175   2.514   7.297   3.970  0.2406  0.4420  0.1525
  965MOL0     C30176   2.388   7.238   3.930 -0.4135 -0.9839 -0.2720
  965MOL0     C30177   2.382   7.195   3.782 -0.4591 -1.1723  0.1844
  965MOL0     C30178   2.498   7.129   3.714 -1.3743 -0.3378  0.4416
  965MOL0     C30179   2.463   7.085   3.568 -0.2746  0.4867 -0.6867
  965MOL0     C30180   2.543   6.960   3.535 -0.1231 -0.5836  0.2204
  965MOL0     C30181   2.692   6.996   3.509 -0.6311  0.3515  1.1295
  965MOL0     C30182   2.788   6.874   3.475 -0.9541  0.4756  0.4516
  965MOL0     C30183   2.919   6.926   3.412  0.3393 -0.4964  1.1088
  965MOL0    Cl30184   3.041   6.978   3.535 -0.3310  0.3923 -0.1483
  965MOL0     C30185   2.431   7.355   4.184 -0.6480 -0.7718 -0.5743
  965MOL0     C30186   2.451   7.359   4.326 -0.7786 -0.4784 -0.0080
  965MOL0     O30187   2.529   7.088   4.539 -0.4997 -0.2468  0.4845
  965MOL0     C30188   2.643   7.302   4.794  0.6029 -0.4439  0.1700
  965MOL0     C30189   2.641   7.320   4.931 -0.9197  1.0463 -0.2098
  965MOL0     N30190   2.691   7.300   5.729 -0.7810 -0.5942 -0.1451
  965MOL0     N30191   2.790   7.249   5.797  0.1266  0.3752 -0.0805
  965MOL0     C30192   3.012   6.231   5.679  0.6967  0.2436 -0.0005
  965MOL0     C30193   3.014   6.098   5.610 -0.3353  0.1382  0.4789
  965MOL0     C30194   3.131   5.737   5.388 -0.7418 -0.6236  0.3001
  965MOL0     C30195   3.229   5.667   5.473  1.0082 -0.0665 -1.1405
  965MOL0     C30196   3.295   5.555   5.420  0.5667  0.3802 -0.3963
  965MOL0     C30197   3.229   5.482   5.306  0.0889 -0.4098 -0.0163
  965MOL0     O30198   3.278   5.360   5.267 -0.1125  0.3788  0.4741
  965MOL0     C30199   3.172   5.260   5.289 -0.0965  0.0589  0.7740
  965MOL0     C30200   3.138   5.207   5.148  0.1726  1.4753  0.2984
  965MOL0     C30201   3.047   5.083   5.150 -0.2154  0.1708 -0.2621
  965MOL0     C30202   3.035   5.028   5.017  0.2269  0.4543  0.4498
  965MOL0     C30203   2.957   5.117   4.933  0.1066  0.3728 -0.0519
  965MOL0     C30204   2.891   5.200   4.871 -0.0410 -0.4232  0.4629
  965MOL0     C30205   3.125   5.552   5.239 -0.0339 -0.4820 -1.0539
  965MOL0     C30206   3.071   5.674   5.284 -0.8033  0.6114 -0.0568
  965MOL0     C30207   2.959   5.713   5.197 -0.6497 -0.6586  0.1930
  965MOL0     H30208   3.347   6.047   5.659  0.9363  0.9713 -2.6433
  965MOL0     H30209   3.351   6.259   5.752  0.1436 -0.8174  0.6491
  965MOL0     H30210   3.303   6.410   5.900 -0.1571 -0.1581  1.0578
  965MOL0     H30211   3.291   6.483   5.739 -1.2882  2.7194 -0.4748
  965MOL0     H30212   3.163   6.590   5.996 -1.4626  1.0953  0.2700
  965MOL0     H30213   3.112   6.658   5.838 -0.7425  0.9366  1.0139
  965MOL0     H30214   3.328   6.761   5.795  2.1870  0.5399  1.2324
  965MOL0     H30215   3.398   6.669   5.919 -0.9049  0.2948  1.9106
  965MOL0     H30216   3.237   6.829   6.078  2.4661  1.0292  0.9308
  965MOL0     H30217   3.390   6.879   6.011  0.6363 -2.5048  0.7460
  965MOL0     H30218   3.231   7.051   5.962  1.8911 -0.9011  1.3290
  965MOL0     H30219   3.218   6.947   5.810 -4.6336 -0.6250 -0.0246
  965MOL0     H30220   3.022   6.841   5.942  0.7533 -0.3935  3.0841
  965MOL0     H30221   3.045   6.974   6.060 -2.6122 -1.0439  1.2476
  965MOL0     H30222   3.003   7.017   5.751 -0.0047 -0.1436  0.0699
  965MOL0     H30223   3.012   7.135   5.881 -0.1106  0.9354 -2.0691
  965MOL0     H30224   2.802   6.910   5.843 -2.2991  0.1285  0.8033
  965MOL0     H30225   2.794   7.020   5.976 -1.1510  0.1611 -0.4484
  965MOL0     H30226   2.620   6.988   5.692 -1.8772  0.6418  1.2459
  965MOL0     H30227   2.467   7.119   5.528 -1.8492  1.4101  1.6841
  965MOL0     H30228   2.437   7.278   5.591 -0.5300  0.3335 -1.2522
  965MOL0     H30229   2.685   7.323   5.467 -1.6585  0.8637 -0.4271
  965MOL0     H30230   2.633   7.180   5.388 -1.0873 -0.2679 -0.7041
  965MOL0     H30231   2.488   7.441   5.406 -2.0243 -0.9969  2.8346
  965MOL0     H30232   2.406   7.294   5.344  0.2476  2.7276 -3.5576
  965MOL0     H30233   2.648   7.418   5.204 -0.8527 -0.3888 -1.6091
  965MOL0     H30234   2.489   7.398   5.153 -0.8421 -0.7372  0.5523
  965MOL0     H30235   2.502   7.014   5.012 -0.3331  0.6032  2.0614
  965MOL0     H30236   2.495   6.990   4.770 -2.8982  0.2442 -0.1151
  965MOL0     H30237   2.749   7.221   4.354  0.7167  2.6127  0.9602
  965MOL0     H30238   2.731   7.201   4.111  1.1836  0.0559  1.6817
  965MOL0     H30239   2.361   7.145   3.982 -4.5841 -1.7263 -3.2111
  965MOL0     H30240   2.313   7.318   3.931 -0.1037 -0.6622 -1.4072
  965MOL0     H30241   2.285   7.151   3.756  0.7901 -2.0034 -3.6604
  965MOL0     H30242   2.381   7.301   3.753  1.0201 -0.8978  1.0276
  965MOL0     H30243   2.593   7.182   3.722 -1.5605 -0.1099  1.2248
  965MOL0     H30244   2.519   7.042   3.777  0.4949 -0.5091 -0.3590
  965MOL0     H30245   2.477   7.164   3.494 -0.6072  1.9563  0.7658
  965MOL0     H30246   2.356   7.062   3.564  0.0375 -0.9330 -1.9059
  965MOL0     H30247   2.498   6.920   3.444 -2.2309  2.7295 -0.3776
  965MOL0     H30248   2.529   6.890   3.618  0.5304 -1.2802 -0.2525
  965MOL0     H30249   2.696   7.067   3.426  0.5592 -2.0904 -1.0528
  965MOL0     H30250   2.737   7.048   3.594  1.9084  0.9323 -0.4828
  965MOL0     H30251   2.729   6.801   3.419 -1.1986  1.2982 -0.3945
  965MOL0     H30252   2.814   6.817   3.564 -4.3160 -0.7142  0.8065
  965MOL0     H30253   2.978   6.852   3.357  1.8016  0.6711  1.0198
  965MOL0     H30254   2.893   7.010   3.346 -2.4061 -0.6280  1.9173
  965MOL0     H30255   2.342   7.397   4.138  0.8578  0.5075 -2.5105
  965MOL0     H30256   2.376   7.395   4.395  0.3178  0.5315  0.7055
  965MOL0     H30257   2.668   7.392   4.740  0.3578 -1.1183 -1.1038
  965MOL0     H30258   2.671   7.411   4.982 -0.0358  2.1362 -2.5552
  965MOL0     H30259   2.917   6.278   5.705  0.1839 -1.9882  2.7112
  965MOL0     H30260   2.917   6.070   5.572 -0.2709  0.4059  0.1130
  965MOL0     H30261   3.280   5.712   5.558  2.6930 -0.3279 -1.9901
  965MOL0     H30262   3.373   5.502   5.474 -2.1525  0.0219  3.6279
  965MOL0     H30263   3.079   5.295   5.336 -0.7145  0.8715 -0.9627
  965MOL0     H30264   3.209   5.178   5.352  0.7408 -0.7540 -0.7236
  965MOL0     H30265   3.228   5.167   5.100 -1.9678 -4.7629  0.5517
  965MOL0     H30266   3.092   5.287   5.090 -0.7508 -2.7405 -5.7643
  965MOL0     H30267   2.951   5.106   5.198  0.6569 -2.0089  2.8629
  965MOL0     H30268   3.094   5.010   5.217 -0.1130 -0.1380 -0.6691
  965MOL0     H30269   3.136   5.024   4.976  0.8606 -0.8303  2.0068
  965MOL0     H30270   2.989   4.929   5.021  1.2649 -0.1329 -1.2806
  965MOL0     H30271   2.833   5.273   4.818  1.4081 -1.2578 -2.4247
  965MOL0     H30272   3.080   5.503   5.153 -2.1378 -0.1568 -0.2165
  965MOL0     H30273   2.902   5.633   5.150  2.6864 -1.8932 -2.1071
  965MOL0     H30274   2.882   5.762   5.257 -0.1545  0.3295  0.0438
  965MOL0     H30275   2.992   5.778   5.116 -1.5774 -1.3395 -0.7510
  966MOL0     O30276   1.844   7.221   0.348 -0.2031  0.2906 -0.1237
  966MOL0     C30277   1.953   7.287   0.345  0.6488  0.5644  0.5848
  966MOL0     O30278   1.984   7.365   0.242  0.2705  0.2059  0.4511
  966MOL0     C30279   1.918   7.363   0.126 -0.4239 -0.3322  0.6969
  966MOL0     C30280   1.885   7.483   0.053  0.3327 -0.3579 -0.1930
  966MOL0     C30281   1.802   7.480  -0.063  0.2260 -0.4822  0.4743
  966MOL0     C30282   1.769   7.358  -0.125  0.4392 -0.8954 -0.1677
  966MOL0     O30283   1.712   7.367  -0.255  0.0879  0.4977  0.5457
  966MOL0     C30284   1.623   7.263  -0.297  1.0441 -0.6365 -0.1715
  966MOL0     C30285   1.582   7.291  -0.443 -0.3236  0.3319  1.0551
  966MOL0     C30286   1.509   7.417  -0.480  0.9780  0.5555  0.2619
  966MOL0     C30287   1.364   7.410  -0.443 -0.3891 -0.0442  1.0614
  966MOL0     C30288   1.292   7.528  -0.504  0.1755  0.2606  0.4358
  966MOL0     C30289   1.131   7.541  -0.497  0.1814  0.1709  0.2622
  966MOL0     C30290   1.060   7.436  -0.587 -0.1374 -0.1234 -0.4985
  966MOL0     C30291   0.908   7.463  -0.579 -0.3960  0.6232  0.1336
  966MOL0     N30292   0.869   7.499  -0.714  0.5253  0.0634  1.3342
  966MOL0     C30293   0.793   7.415  -0.792  1.1996  0.0975  0.3472
  966MOL0     C30294   0.799   7.459  -0.920  0.1468 -1.7026  0.2022
  966MOL0     C30295   0.721   7.404  -1.040  0.9594  0.5573 -0.4439
  966MOL0     C30296   0.800   7.342  -1.149  0.2886 -0.1448 -0.3169
  966MOL0     C30297   0.872   7.440  -1.230 -0.0467  0.4530  0.4487
  966MOL0     C30298   1.022   7.441  -1.193  0.4067 -0.4674  0.0102
  966MOL0     O30299   1.071   7.554  -1.263  0.0755 -0.4631  0.3286
  966MOL0     C30300   1.150   7.545  -1.374  0.3489  0.0903  0.1238
  966MOL0     C30301   1.166   7.427  -1.450 -0.4399 -0.2557 -1.1993
  966MOL0     C30302   1.262   7.418  -1.551 -0.0980  0.2877  0.7145
  966MOL0     C30303   1.336   7.527  -1.590 -0.7111  0.0528 -0.0484
  966MOL0     C30304   1.432   7.533  -1.703  0.5617 -0.1393 -0.1917
  966MOL0     O30305   1.433   7.420  -1.779  1.1182 -0.3381 -0.4685
  966MOL0     C30306   1.521   7.383  -1.872 -0.7795  0.5304 -0.3228
  966MOL0     C30307   1.486   7.274  -1.939  0.2092 -0.1378 -0.2025
  966MOL0     C30308   1.561   7.236  -2.041  0.6236  0.1437 -0.0213
  966MOL0     C30309   1.690   7.289  -2.068 -0.7150 -1.2366  0.9171
  966MOL0     O30310   1.787   7.250  -2.170  0.3999  0.5310 -0.0046
  966MOL0     C30311   1.744   7.177  -2.292 -0.4212 -0.0474  0.1477
  966MOL0     C30312   1.662   7.253  -2.394 -0.4127 -0.2547 -1.3867
  966MOL0     C30313   1.742   7.364  -2.463  0.1525  0.9970  0.0504
  966MOL0     C30314   1.747   7.338  -2.612 -0.0514  0.4746  0.1492
  966MOL0     C30315   1.792   7.456  -2.691  0.2116  0.1237  0.6494
  966MOL0     C30316   1.799   7.414  -2.839 -0.2508  0.0632  0.0726
  966MOL0     C30317   1.852   7.530  -2.919 -1.2018  0.3892  0.6803
  966MOL0     C30318   1.829   7.513  -3.071  0.9202  0.5899 -0.0047
  966MOL0    Cl30319   1.662   7.530  -3.117  0.3482  0.0730 -0.3760
  966MOL0     C30320   1.737   7.398  -1.990  0.2281  0.0149 -0.1829
  966MOL0     C30321   1.648   7.451  -1.895  0.0170 -0.4281  1.0998
  966MOL0     O30322   1.516   7.619  -1.707 -0.5899  0.3547 -0.4576
  966MOL0     C30323   1.328   7.649  -1.512  0.0168  0.3109 -0.0233
  966MOL0     C30324   1.234   7.653  -1.406 -0.5223 -0.1956  0.4511
  966MOL0     N30325   0.869   7.574  -0.922  0.0350  0.3262  0.8194
  966MOL0     N30326   0.910   7.595  -0.799 -0.0523 -0.3573  0.6150
  966MOL0     C30327   1.817   7.244  -0.068 -0.3960  0.1120 -0.0346
  966MOL0     C30328   1.882   7.245   0.057  0.2246  0.4402  0.2523
  966MOL0     C30329   2.048   7.281   0.455 -0.3556 -0.5036 -0.8713
  966MOL0     C30330   2.164   7.359   0.428  0.2608  0.1425 -0.0875
  966MOL0     C30331   2.257   7.369   0.523 -0.5606 -0.4410  0.0879
  966MOL0     C30332   2.249   7.307   0.650  0.7464  0.7560  0.2132
  966MOL0     O30333   2.353   7.328   0.739  0.4564  0.2700 -0.0036
  966MOL0     C30334   2.361   7.250   0.859 -0.8358  0.0047 -0.0858
  966MOL0     C30335   2.384   7.089   0.832  0.1722  0.3511  0.1840
  966MOL0     C30336   2.312   7.008   0.939  0.4937  0.1575  1.1752
  966MOL0     C30337   2.384   7.030   1.076  0.1747 -0.0871 -0.0136
  966MOL0     C30338   2.529   6.999   1.074 -0.0199  0.5198 -0.3332
  966MOL0     C30339   2.655   6.983   1.074  0.1864  0.1656 -0.5955
  966MOL0     C30340   2.138   7.220   0.671 -0.1290 -0.5364 -0.1029
  966MOL0     C30341   2.037   7.215   0.576 -0.8633 -0.7161 -0.0601
  966MOL0     C30342   1.906   7.139   0.601 -0.5913  0.6190  0.2371
  966MOL0     H30343   1.924   7.575   0.095  0.0253  0.2404 -1.1776
  966MOL0     H30344   1.780   7.577  -0.107 -0.3453 -0.8844 -0.1524
  966MOL0     H30345   1.665   7.163  -0.292  0.1305 -1.1152 -1.5103
  966MOL0     H30346   1.532   7.255  -0.236 -0.6578  0.7604 -2.3799
  966MOL0     H30347   1.532   7.206  -0.490 -0.2894  1.0391 -0.2933
  966MOL0     H30348   1.670   7.297  -0.507 -1.7427  2.7032 -0.8582
  966MOL0     H30349   1.517   7.441  -0.587 -0.2862  1.7753  0.4210
  966MOL0     H30350   1.553   7.502  -0.427 -1.5635  1.6280  0.7451
  966MOL0     H30351   1.319   7.323  -0.492  0.6999  1.1141 -2.2619
  966MOL0     H30352   1.362   7.411  -0.334  2.9096  0.8763  1.2059
  966MOL0     H30353   1.334   7.623  -0.468  1.4556 -1.0543  2.5981
  966MOL0     H30354   1.328   7.532  -0.608 -0.9970  1.4032  0.0386
  966MOL0     H30355   1.093   7.519  -0.397  0.8293 -4.2877 -0.2715
  966MOL0     H30356   1.108   7.644  -0.524  1.9103  0.0198 -2.0200
  966MOL0     H30357   1.083   7.337  -0.548  4.8722  0.7136 -0.6208
  966MOL0     H30358   1.100   7.442  -0.689  3.6901 -2.7301  0.6264
  966MOL0     H30359   0.858   7.374  -0.541 -1.2338  1.7605  1.8275
  966MOL0     H30360   0.875   7.545  -0.514 -2.7715 -1.4475  1.6960
  966MOL0     H30361   0.751   7.322  -0.757  0.3045  1.3485  2.8470
  966MOL0     H30362   0.655   7.334  -0.988  1.8040  0.7079  0.8772
  966MOL0     H30363   0.661   7.485  -1.084 -1.8437 -0.3592  1.4332
  966MOL0     H30364   0.861   7.268  -1.097 -2.2556 -1.1922  1.4298
  966MOL0     H30365   0.737   7.274  -1.208  1.9734 -1.1925 -0.9719
  966MOL0     H30366   0.846   7.545  -1.213  0.6955  0.5837  0.7797
  966MOL0     H30367   0.868   7.403  -1.333  1.8805  3.1010 -0.6799
  966MOL0     H30368   1.067   7.345  -1.218  1.2337 -1.2432  3.7787
  966MOL0     H30369   1.014   7.458  -1.085  1.9542  0.0255  0.0676
  966MOL0     H30370   1.095   7.346  -1.433 -0.8575 -0.1605 -2.4381
  966MOL0     H30371   1.258   7.334  -1.619 -1.1797  1.9036 -1.3138
  966MOL0     H30372   1.387   7.236  -1.917 -0.1716  1.4943  1.0484
  966MOL0     H30373   1.518   7.155  -2.099 -2.4051  0.2328  1.8802
  966MOL0     H30374   1.827   7.134  -2.349 -0.5677  1.0248 -0.9027
  966MOL0     H30375   1.670   7.105  -2.257 -0.9904  0.9557  1.0611
  966MOL0     H30376   1.613   7.186  -2.465 -2.7732 -0.3020  0.1932
  966MOL0     H30377   1.583   7.315  -2.353  0.2790  0.5255 -1.2015
  966MOL0     H30378   1.697   7.463  -2.448  1.7131  1.6569  0.5785
  966MOL0     H30379   1.847   7.385  -2.439  0.2134 -0.4382  1.1614
  966MOL0     H30380   1.645   7.312  -2.641 -0.4461  1.5090  0.5586
  966MOL0     H30381   1.812   7.252  -2.627 -3.4095 -2.5298  1.5460
  966MOL0     H30382   1.885   7.498  -2.652 -0.5138  1.1518  1.3443
  966MOL0     H30383   1.720   7.539  -2.687  1.0800  0.9911 -0.6147
  966MOL0     H30384   1.855   7.325  -2.871 -1.8947 -0.9879  0.0042
  966MOL0     H30385   1.696   7.397  -2.870  0.2409 -2.4589 -0.4089
  966MOL0     H30386   1.959   7.551  -2.910 -1.5766  2.7306  0.3453
  966MOL0     H30387   1.815   7.625  -2.879 -3.5137  0.2422 -0.9026
  966MOL0     H30388   1.884   7.581  -3.137 -0.7833 -1.5615 -4.0471
  966MOL0     H30389   1.856   7.411  -3.102 -3.5223 -0.4548 -1.1139
  966MOL0     H30390   1.825   7.452  -2.025 -1.6148  3.5670  0.2420
  966MOL0     H30391   1.681   7.541  -1.844 -0.2020 -0.9180  2.1442
  966MOL0     H30392   1.385   7.737  -1.538  2.0992 -1.3278 -1.2387
  966MOL0     H30393   1.238   7.744  -1.348 -2.1268  1.4722 -1.9066
  966MOL0     H30394   1.806   7.144  -0.109 -0.2279 -0.0302  0.2609
  966MOL0     H30395   1.893   7.147   0.104 -1.3622  0.9433  1.7892
  966MOL0     H30396   2.189   7.406   0.334  1.3161  1.0227  0.5983
  966MOL0     H30397   2.351   7.415   0.495  0.3978 -0.3604  3.0839
  966MOL0     H30398   2.267   7.262   0.914 -0.8541  2.3713 -0.5007
  966MOL0     H30399   2.433   7.299   0.926 -1.8603  3.8139 -1.5201
  966MOL0     H30400   2.484   7.045   0.825 -0.2538 -0.7616  0.7189
  966MOL0     H30401   2.340   7.077   0.732 -1.1659  2.1218  0.5137
  966MOL0     H30402   2.304   6.905   0.904 -0.2553  1.3224 -2.4949
  966MOL0     H30403   2.206   7.033   0.955 -0.1225 -0.3678 -1.5893
  966MOL0     H30404   2.385   7.130   1.121  3.0566 -1.4261  3.3084
  966MOL0     H30405   2.326   6.966   1.143  2.0389  0.1822  1.9184
  966MOL0     H30406   2.758   6.955   1.082 -0.0503 -0.2451  2.7795
  966MOL0     H30407   2.113   7.166   0.762 -1.3679 -0.0362 -0.1155
  966MOL0     H30408   1.818   7.202   0.618  0.1507  1.7429  0.0142
  966MOL0     H30409   1.891   7.068   0.519  2.7636 -1.1855  0.9975
  966MOL0     H30410   1.933   7.072   0.684  1.5402 -0.3489 -1.1492
  967MOL0     O30411   1.241   7.191   7.181 -0.0226  1.0988  0.0695
  967MOL0     C30412   1.167   7.102   7.139  0.1679 -0.0514 -0.2284
  967MOL0     O30413   1.181   6.969   7.166  0.3138 -0.3920 -0.2405
  967MOL0     C30414   1.295   6.929   7.231 -0.9489  0.3298 -0.4937
  967MOL0     C30415   1.288   6.899   7.366 -0.7587  0.2620  0.0330
  967MOL0     C30416   1.403   6.846   7.428  0.6248  0.2989  0.2720
  967MOL0     C30417   1.519   6.819   7.355  0.2060  0.4905 -0.3720
  967MOL0     O30418   1.636   6.767   7.403  0.3144  0.0006  0.8944
  967MOL0     C30419   1.637   6.694   7.518 -0.0535 -0.1948  0.6830
  967MOL0     C30420   1.747   6.590   7.512 -0.4167 -0.8180 -0.2406
  967MOL0     C30421   1.884   6.671   7.536  0.0103  1.2020 -1.1253
  967MOL0     C30422   1.968   6.576   7.607  0.1545 -0.1510 -0.7257
  967MOL0     C30423   2.113   6.635   7.611  0.0616 -0.2101 -0.5470
  967MOL0     C30424   2.223   6.539   7.563 -0.0803 -0.7619 -0.2373
  967MOL0     C30425   2.212   6.503   7.418 -0.2862 -0.4757 -0.0313
  967MOL0     C30426   2.271   6.597   7.322  0.4315  0.2101 -0.5856
  967MOL0     N30427   2.225   6.589   7.184  0.0904  0.1762  0.0873
  967MOL0     C30428   2.092   6.607   7.146 -0.7038  0.6274 -0.4835
  967MOL0     C30429   2.089   6.564   7.019 -0.3736 -0.2929  0.1736
  967MOL0     C30430   1.966   6.549   6.951  0.0997 -0.2865  0.4956
  967MOL0     C30431   1.867   6.450   7.012 -0.0951  0.0783 -0.5939
  967MOL0     C30432   1.739   6.449   6.928  0.0206 -0.0179 -0.1127
  967MOL0     C30433   1.631   6.353   6.976 -0.0613 -0.9889 -0.7480
  967MOL0     O30434   1.609   6.366   7.116 -0.2855 -0.5321  0.3463
  967MOL0     C30435   1.489   6.413   7.165  0.0956 -0.6349  0.3569
  967MOL0     C30436   1.456   6.371   7.294  0.6324 -0.6062 -0.1398
  967MOL0     C30437   1.332   6.405   7.356  0.9548 -0.1108  0.1872
  967MOL0     C30438   1.240   6.483   7.280 -0.6319  0.0333  0.2249
  967MOL0     C30439   1.119   6.550   7.341  0.2841  0.0696 -0.5875
  967MOL0     O30440   1.010   6.549   7.263  0.5217  0.3786 -0.1056
  967MOL0     C30441   0.895   6.616   7.298 -0.6881 -0.1006  0.7432
  967MOL0     C30442   0.874   6.731   7.224  0.6228  0.1669  0.0171
  967MOL0     C30443   0.758   6.819   7.262 -0.0171  0.5311 -0.9607
  967MOL0     C30444   0.672   6.772   7.362 -0.1349 -0.1503 -0.0977
  967MOL0     O30445   0.560   6.834   7.402  0.5687 -0.2529  0.0977
  967MOL0     C30446   0.516   6.946   7.315 -0.1510  0.1899  0.2379
  967MOL0     C30447   0.386   7.017   7.375  0.2777 -0.6424 -0.3961
  967MOL0     C30448   0.277   6.911   7.396 -1.1336 -0.8527 -0.6195
  967MOL0     C30449   0.222   6.862   7.267  0.1264 -0.5013 -0.6289
  967MOL0     C30450   0.099   6.771   7.306  0.0592 -0.3846 -0.0992
  967MOL0     C30451   0.044   6.702   7.177 -0.0375  0.4207  0.7343
  967MOL0     C30452  -0.035   6.804   7.092  0.2597 -0.1651 -0.1365
  967MOL0     C30453  -0.078   6.741   6.955 -0.0541 -0.7639 -0.5349
  967MOL0    Cl30454  -0.169   6.851   6.861 -0.2360 -0.1290 -0.6113
  967MOL0     C30455   0.705   6.662   7.438 -0.4317 -0.1204 -0.1594
  967MOL0     C30456   0.822   6.586   7.404  0.7933  0.5396  0.9101
  967MOL0     O30457   1.128   6.608   7.450 -0.9675  0.1424  0.0643
  967MOL0     C30458   1.276   6.520   7.153 -0.5724  0.0749  0.5216
  967MOL0     C30459   1.399   6.498   7.101 -0.7507  0.3336  0.2715
  967MOL0     N30460   2.214   6.522   6.980 -1.2532 -0.0664 -0.7286
  967MOL0     N30461   2.296   6.552   7.077 -0.4718  0.3581  0.2130
  967MOL0     C30462   1.516   6.839   7.217 -0.0148  0.1143 -0.1517
  967MOL0     C30463   1.407   6.900   7.156  0.2933 -0.6506  0.4441
  967MOL0     C30464   1.052   7.140   7.053  0.0757  0.4147 -0.4479
  967MOL0     C30465   0.991   7.038   6.975 -0.0029 -0.2006  0.4249
  967MOL0     C30466   0.890   7.072   6.874  0.5925  0.3913  0.5323
  967MOL0     C30467   0.849   7.204   6.859 -0.8270  0.1223  0.5424
  967MOL0     O30468   0.755   7.230   6.759  0.5766  0.0464 -0.0349
  967MOL0     C30469   0.741   7.361   6.713  0.1697 -0.6325 -0.4450
  967MOL0     C30470   0.859   7.407   6.623 -0.3339  0.4027 -0.3226
  967MOL0     C30471   0.885   7.315   6.502  1.1167  0.4463  0.5765
  967MOL0     C30472   0.770   7.317   6.391 -0.1965 -0.7471  0.0345
  967MOL0     C30473   0.790   7.435   6.301  0.8677  0.1901  0.4200
  967MOL0     C30474   0.792   7.527   6.222 -0.7109 -0.1311  0.2904
  967MOL0     C30475   0.912   7.297   6.936  0.0374  0.5874  0.8038
  967MOL0     C30476   1.009   7.277   7.027  0.2883 -0.0717  0.3706
  967MOL0     C30477   1.083   7.397   7.090  0.1888 -0.1758 -0.7479
  967MOL0     H30478   1.198   6.906   7.425 -0.9220 -0.5093 -0.1105
  967MOL0     H30479   1.408   6.814   7.531 -2.5148 -2.2008 -0.1806
  967MOL0     H30480   1.632   6.761   7.604 -0.0614  1.0923 -0.2975
  967MOL0     H30481   1.551   6.628   7.528  0.0138 -0.3442  0.2864
  967MOL0     H30482   1.752   6.547   7.412 -1.4282 -1.0816 -0.1932
  967MOL0     H30483   1.724   6.513   7.587  0.0538 -0.9296 -0.2133
  967MOL0     H30484   1.870   6.763   7.592  1.2063  1.6803 -1.5801
  967MOL0     H30485   1.922   6.688   7.434 -1.2978  2.7653 -1.3916
  967MOL0     H30486   1.937   6.543   7.707 -0.9558 -1.5143 -1.5029
  967MOL0     H30487   1.976   6.482   7.551  0.2791 -2.0394  2.2153
  967MOL0     H30488   2.116   6.733   7.562 -1.0662 -1.1214 -2.5156
  967MOL0     H30489   2.133   6.653   7.718  0.1784  1.5488 -0.8362
  967MOL0     H30490   2.318   6.589   7.586  0.0184 -1.5007  1.0471
  967MOL0     H30491   2.225   6.444   7.618  3.5870  0.4786  2.1618
  967MOL0     H30492   2.104   6.496   7.402 -1.0173  0.7840  3.5232
  967MOL0     H30493   2.232   6.397   7.400 -2.4319 -1.2765  1.8316
  967MOL0     H30494   2.232   6.695   7.351  2.2992  0.2733  2.0449
  967MOL0     H30495   2.379   6.589   7.328  0.2720 -2.0349  0.6498
  967MOL0     H30496   2.013   6.640   7.212  0.8620 -0.7403  2.2506
  967MOL0     H30497   1.905   6.639   6.942 -1.5844 -1.5321 -2.1784
  967MOL0     H30498   1.984   6.529   6.845  0.0740 -1.7113  0.7351
  967MOL0     H30499   1.909   6.350   7.024  0.8975  0.8107  3.8727
  967MOL0     H30500   1.850   6.482   7.115  1.6826 -0.7755 -0.0047
  967MOL0     H30501   1.776   6.430   6.826  0.9826  1.6529 -0.1007
  967MOL0     H30502   1.693   6.547   6.911 -2.4528 -1.1634 -0.5406
  967MOL0     H30503   1.655   6.247   6.959 -1.8463 -1.7841  1.1347
  967MOL0     H30504   1.547   6.377   6.911  0.2727 -1.9341 -1.5489
  967MOL0     H30505   1.525   6.308   7.349 -0.9071 -0.8057  1.6626
  967MOL0     H30506   1.313   6.379   7.460 -0.2526  2.3671  0.6596
  967MOL0     H30507   0.937   6.729   7.136  0.1351 -2.7199 -0.3420
  967MOL0     H30508   0.741   6.902   7.194  2.2071  2.3366  0.5137
  967MOL0     H30509   0.596   7.018   7.301  0.4027 -0.9747 -3.5018
  967MOL0     H30510   0.494   6.902   7.217 -1.8244 -3.1656  1.9263
  967MOL0     H30511   0.412   7.069   7.467  0.5285  0.9424 -1.3127
  967MOL0     H30512   0.348   7.104   7.321 -0.3543 -0.3235  0.5420
  967MOL0     H30513   0.317   6.832   7.460  0.1502 -0.3086 -0.7183
  967MOL0     H30514   0.202   6.969   7.450  3.0411  3.7418  1.1103
  967MOL0     H30515   0.292   6.790   7.223  0.6319 -0.1542 -0.3995
  967MOL0     H30516   0.186   6.941   7.200  0.4029  1.0354  0.9749
  967MOL0     H30517   0.021   6.832   7.352 -0.1796  1.3383 -2.5722
  967MOL0     H30518   0.122   6.690   7.376  0.5509 -0.2531 -0.1056
  967MOL0     H30519   0.118   6.657   7.110 -3.0205  0.9065 -3.2222
  967MOL0     H30520  -0.019   6.618   7.209 -1.1219  1.5866  1.7420
  967MOL0     H30521   0.024   6.895   7.075 -0.1775  0.3526  1.0165
  967MOL0     H30522  -0.118   6.827   7.159  1.1450 -0.2633  1.0144
  967MOL0     H30523   0.009   6.704   6.900  0.1496 -0.1040 -0.6729
  967MOL0     H30524  -0.137   6.652   6.978 -0.3609 -0.4556 -0.1221
  967MOL0     H30525   0.641   6.643   7.524 -1.6208 -0.2720 -1.0663
  967MOL0     H30526   0.849   6.490   7.447  1.3222  1.3553  2.4931
  967MOL0     H30527   1.218   6.582   7.086  0.5608  1.1411  0.5004
  967MOL0     H30528   1.424   6.532   7.002 -0.5450 -2.0557 -0.5717
  967MOL0     H30529   1.591   6.798   7.151  0.2923 -0.9822  0.8506
  967MOL0     H30530   1.404   6.914   7.048  0.8826  0.7908  0.5821
  967MOL0     H30531   1.020   6.935   6.990 -1.3323 -0.5594  0.6733
  967MOL0     H30532   0.844   6.996   6.811  1.4765  0.2761  0.0262
  967MOL0     H30533   0.726   7.438   6.789 -5.0527  0.0091 -1.7745
  967MOL0     H30534   0.650   7.369   6.654 -0.5240  1.0635  0.7766
  967MOL0     H30535   0.949   7.430   6.680  0.1757 -0.9335 -0.5584
  967MOL0     H30536   0.830   7.504   6.581 -1.8058 -0.7601 -2.1854
  967MOL0     H30537   0.881   7.210   6.535 -0.1479 -0.6751 -2.7064
  967MOL0     H30538   0.983   7.328   6.454  0.7753  0.0963 -0.2425
  967MOL0     H30539   0.778   7.231   6.324  0.8678 -2.0960  1.8025
  967MOL0     H30540   0.672   7.318   6.439 -0.4812 -2.7497 -0.4218
  967MOL0     H30541   0.799   7.613   6.159 -1.4184 -1.5713 -1.8878
  967MOL0     H30542   0.886   7.402   6.930  0.1287  0.5426 -1.3027
  967MOL0     H30543   1.089   7.388   7.199  3.7360 -0.9571 -0.8694
  967MOL0     H30544   1.186   7.408   7.055  1.4992 -4.5495  1.0154
  967MOL0     H30545   1.029   7.491   7.074 -2.6087 -1.3584  1.0364
  968MOL0     O30546   6.033   2.310   2.801  0.0862 -0.3078  0.2606
  968MOL0     C30547   5.922   2.264   2.806 -0.2503  1.0192  0.0975
  968MOL0     O30548   5.800   2.319   2.768 -0.4174 -0.4624  0.3647
  968MOL0     C30549   5.820   2.454   2.721  0.6188  0.2614  0.7666
  968MOL0     C30550   5.782   2.569   2.799 -0.5039  0.1201  0.1716
  968MOL0     C30551   5.809   2.693   2.756 -0.3577 -0.5044 -0.0952
  968MOL0     C30552   5.860   2.713   2.630  0.3980 -1.6350  0.8674
  968MOL0     O30553   5.858   2.838   2.598 -0.0818  0.1951  0.8662
  968MOL0     C30554   5.970   2.892   2.530  0.1845 -0.0850 -1.0734
  968MOL0     C30555   5.942   3.037   2.525  0.3688  0.6620  0.0846
  968MOL0     C30556   5.835   3.062   2.411 -0.1752 -0.0550 -0.4883
  968MOL0     C30557   5.768   3.195   2.408 -1.1091 -0.4091 -0.0581
  968MOL0     C30558   5.642   3.198   2.319 -0.4879  0.3508 -0.9426
  968MOL0     C30559   5.594   3.346   2.307  0.2613 -0.1154  0.6463
  968MOL0     C30560   5.449   3.367   2.262  0.0397  0.5155 -1.1331
  968MOL0     C30561   5.424   3.503   2.216  0.4418 -0.3093 -0.1581
  968MOL0     N30562   5.285   3.523   2.175  1.0638 -0.3887  0.3891
  968MOL0     C30563   5.208   3.463   2.076 -0.7980 -0.4494 -0.0208
  968MOL0     C30564   5.093   3.533   2.061 -0.4246 -0.4020  0.3184
  968MOL0     C30565   4.977   3.500   1.982  0.0101  0.2659 -0.0736
  968MOL0     C30566   4.981   3.528   1.837  0.4958  0.8231 -0.0588
  968MOL0     C30567   4.855   3.480   1.762  0.5092 -0.5210  0.8875
  968MOL0     C30568   4.726   3.557   1.789  0.2814 -0.3314  0.4554
  968MOL0     O30569   4.629   3.482   1.709 -0.4904 -0.5936  0.2296
  968MOL0     C30570   4.496   3.532   1.703  0.6595 -0.7604  1.0542
  968MOL0     C30571   4.414   3.482   1.599  0.0588  0.2193 -0.4412
  968MOL0     C30572   4.280   3.529   1.567  0.6353 -0.3870 -0.5611
  968MOL0     C30573   4.229   3.629   1.654 -0.1099  0.0616  0.9474
  968MOL0     C30574   4.093   3.681   1.638  0.3231 -0.1102 -0.1816
  968MOL0     O30575   4.060   3.764   1.737 -0.4325 -0.3325  0.0220
  968MOL0     C30576   3.925   3.773   1.756  1.3969 -0.0679  0.0543
  968MOL0     C30577   3.847   3.658   1.776 -0.0314 -0.5353  0.3399
  968MOL0     C30578   3.709   3.668   1.789 -0.6746  0.8682 -0.0164
  968MOL0     C30579   3.641   3.792   1.797  0.6476  0.2708  0.1384
  968MOL0     O30580   3.507   3.785   1.829 -0.4462  0.2334  0.0393
  968MOL0     C30581   3.419   3.899   1.820 -0.5194 -0.3940 -0.1046
  968MOL0     C30582   3.278   3.847   1.833  0.1115  0.0193 -0.1456
  968MOL0     C30583   3.198   3.928   1.939 -0.0575 -0.5475 -0.6456
  968MOL0     C30584   3.051   3.892   1.940  0.1909 -0.6437  0.1218
  968MOL0     C30585   3.015   3.757   2.009 -0.7664 -0.0292  0.3290
  968MOL0     C30586   3.041   3.783   2.168  0.0548  0.1082  0.9409
  968MOL0     C30587   3.016   3.658   2.248  0.7595 -0.6334  0.1039
  968MOL0     C30588   3.145   3.607   2.318 -0.0875  0.7373  0.0474
  968MOL0    Cl30589   3.265   3.603   2.180  0.0114  0.5590 -0.0183
  968MOL0     C30590   3.721   3.909   1.775 -0.3665  0.1748 -0.4488
  968MOL0     C30591   3.861   3.897   1.752  0.4476 -1.0508 -0.2037
  968MOL0     O30592   4.021   3.649   1.547  0.3991  0.0411 -0.5483
  968MOL0     C30593   4.307   3.683   1.759 -0.4420  0.2430  0.5812
  968MOL0     C30594   4.439   3.636   1.778 -0.5900 -0.2515  0.6393
  968MOL0     N30595   5.108   3.635   2.159  0.5048 -0.5262 -1.0186
  968MOL0     N30596   5.214   3.628   2.230  0.2541 -1.0107 -0.2609
  968MOL0     C30597   5.909   2.603   2.546 -1.0471 -1.6984  0.5041
  968MOL0     C30598   5.883   2.470   2.594  0.1069 -0.9588 -0.0171
  968MOL0     C30599   5.914   2.128   2.854  0.4032  1.5341  0.3034
  968MOL0     C30600   5.833   2.110   2.966  0.6399  1.0847 -0.3615
  968MOL0     C30601   5.805   1.979   3.009  0.1972  0.7344  0.0168
  968MOL0     C30602   5.860   1.865   2.936 -0.5656  1.2161 -0.5887
  968MOL0     O30603   5.829   1.737   2.970 -0.3351 -0.5219  0.1020
  968MOL0     C30604   5.744   1.712   3.078 -0.0588  0.3276  0.0891
  968MOL0     C30605   5.745   1.549   3.094  0.4425 -0.1114 -0.2770
  968MOL0     C30606   5.652   1.485   2.982 -0.3703 -0.6317 -0.1155
  968MOL0     C30607   5.508   1.468   3.037 -0.3146 -0.1332  0.3582
  968MOL0     C30608   5.408   1.455   2.934  0.2004 -0.3320 -0.1399
  968MOL0     C30609   5.319   1.427   2.847 -0.8462 -1.0205  0.3074
  968MOL0     C30610   5.945   1.888   2.823  0.0820  0.6335 -0.0901
  968MOL0     C30611   5.965   2.020   2.782 -1.2335  0.1687  0.2412
  968MOL0     C30612   6.067   2.036   2.665 -0.1331 -1.2806  0.5576
  968MOL0     H30613   5.744   2.541   2.897 -1.5488  0.1778 -0.2062
  968MOL0     H30614   5.777   2.780   2.811  1.6930 -0.3556  0.9583
  968MOL0     H30615   6.066   2.887   2.580  1.2403  0.2258 -2.9590
  968MOL0     H30616   5.974   2.869   2.423 -0.7092  0.4869 -1.2423
  968MOL0     H30617   6.035   3.091   2.506  0.6062  1.0097  2.0799
  968MOL0     H30618   5.889   3.072   2.614 -0.6774 -0.4016 -0.0998
  968MOL0     H30619   5.751   2.992   2.410 -0.0069 -0.2561 -1.1939
  968MOL0     H30620   5.886   3.041   2.316  1.2654  0.8116  0.0474
  968MOL0     H30621   5.737   3.229   2.508  0.7205  0.8047  0.1480
  968MOL0     H30622   5.836   3.266   2.359  0.3089 -1.6352  0.0631
  968MOL0     H30623   5.675   3.159   2.222  1.8249  2.9391 -1.3132
  968MOL0     H30624   5.556   3.153   2.370 -1.0827  3.0694  0.6333
  968MOL0     H30625   5.611   3.387   2.407  3.4731 -1.7279  0.8800
  968MOL0     H30626   5.671   3.399   2.250  3.1874 -1.1107  3.3722
  968MOL0     H30627   5.382   3.353   2.347  1.9584  1.8444  0.7065
  968MOL0     H30628   5.427   3.298   2.180  1.2847  0.2520 -1.2752
  968MOL0     H30629   5.466   3.576   2.286  0.0696 -1.1593  0.9914
  968MOL0     H30630   5.496   3.516   2.135  0.7335  2.1108  0.4048
  968MOL0     H30631   5.236   3.385   2.006  2.5148  1.0651 -0.5547
  968MOL0     H30632   4.945   3.397   2.000  3.9348 -0.8721  1.3293
  968MOL0     H30633   4.891   3.557   2.019 -3.8133 -4.5253 -0.5277
  968MOL0     H30634   4.979   3.636   1.823 -1.5020  0.8905  0.4077
  968MOL0     H30635   5.064   3.475   1.789 -0.9031  1.0023 -2.8577
  968MOL0     H30636   4.830   3.377   1.791 -1.2094 -0.6591 -0.8944
  968MOL0     H30637   4.878   3.477   1.655  0.2588 -0.6574  0.8371
  968MOL0     H30638   4.729   3.663   1.764 -1.4611 -0.3994 -0.1787
  968MOL0     H30639   4.699   3.561   1.895 -2.1681 -0.4714 -0.1101
  968MOL0     H30640   4.458   3.397   1.547  0.8611 -1.1289  2.2453
  968MOL0     H30641   4.212   3.496   1.489 -3.9267  2.8865  1.5924
  968MOL0     H30642   3.890   3.559   1.776 -2.8736 -1.8834  0.6000
  968MOL0     H30643   3.647   3.583   1.815  0.5307 -0.9718 -2.6876
  968MOL0     H30644   3.447   3.964   1.904 -1.5974 -0.5164  0.3584
  968MOL0     H30645   3.436   3.959   1.730 -1.1451 -0.5846 -0.3523
  968MOL0     H30646   3.221   3.843   1.739  0.5661  0.5194 -0.4444
  968MOL0     H30647   3.280   3.746   1.876  0.7398 -0.8825 -2.1559
  968MOL0     H30648   3.240   3.930   2.040 -2.6903  0.0188  0.5104
  968MOL0     H30649   3.199   4.034   1.913 -1.7852 -0.5581 -0.8257
  968MOL0     H30650   3.031   3.877   1.834  1.6622  1.9352 -0.5975
  968MOL0     H30651   2.981   3.974   1.957  0.7200  1.0115 -4.3260
  968MOL0     H30652   3.083   3.682   1.969  1.1317  1.1374  1.2414
  968MOL0     H30653   2.910   3.737   1.985 -0.9007 -1.6131  2.0276
  968MOL0     H30654   3.136   3.826   2.200 -0.8433  1.9992  1.2362
  968MOL0     H30655   2.967   3.859   2.195  0.7571  0.3080  2.3742
  968MOL0     H30656   2.973   3.580   2.184  0.0654 -0.1124 -0.0738
  968MOL0     H30657   2.946   3.680   2.329  0.0187 -2.1452 -0.0797
  968MOL0     H30658   3.173   3.686   2.388 -0.5506  1.9533 -1.0872
  968MOL0     H30659   3.138   3.513   2.374 -1.7569 -0.2217 -1.6226
  968MOL0     H30660   3.689   4.012   1.764 -0.6760 -0.1278 -3.0960
  968MOL0     H30661   3.911   3.992   1.741  1.6318 -1.5069  0.9841
  968MOL0     H30662   4.264   3.754   1.829 -1.0974  1.1792 -0.7293
  968MOL0     H30663   4.487   3.676   1.866  0.0218  0.5578 -0.0509
  968MOL0     H30664   5.967   2.625   2.457  0.4881 -3.1905  1.0795
  968MOL0     H30665   5.925   2.378   2.555  2.5269 -0.8271  2.0271
  968MOL0     H30666   5.798   2.197   3.021 -2.0684 -0.2305  0.1957
  968MOL0     H30667   5.747   1.960   3.099  1.0914 -0.3675  0.3937
  968MOL0     H30668   5.645   1.750   3.051 -0.4395 -1.6245 -1.4708
  968MOL0     H30669   5.768   1.753   3.177 -0.2892  1.3346 -0.2569
  968MOL0     H30670   5.708   1.525   3.194 -2.0594 -1.5298 -1.4502
  968MOL0     H30671   5.850   1.519   3.091  1.8748  3.5587  3.3754
  968MOL0     H30672   5.693   1.385   2.960  0.2840 -0.8972  2.0778
  968MOL0     H30673   5.664   1.543   2.890  0.0290 -1.2921 -0.4876
  968MOL0     H30674   5.496   1.388   3.111  0.3781  0.1976  0.8450
  968MOL0     H30675   5.476   1.559   3.089 -3.3729  0.4700 -2.2794
  968MOL0     H30676   5.233   1.390   2.794 -0.6318 -0.7060 -0.2763
  968MOL0     H30677   5.980   1.799   2.771 -2.5086 -0.3775 -0.2341
  968MOL0     H30678   6.170   2.027   2.700  0.7051  4.6955  0.5696
  968MOL0     H30679   6.050   1.976   2.575  0.8629 -2.2543  0.9949
  968MOL0     H30680   6.067   2.138   2.628  1.2977 -0.6740  2.1284
  969MOL0     O30681   1.510   2.950   8.273 -0.2908 -0.3813 -0.0479
  969MOL0     C30682   1.511   2.877   8.374  0.1216 -0.7219  0.5481
  969MOL0     O30683   1.578   2.765   8.383  0.4595  0.2778  0.2539
  969MOL0     C30684   1.655   2.718   8.281 -0.6533 -1.0281  0.4011
  969MOL0     C30685   1.779   2.670   8.313  0.8222  0.0786  0.0023
  969MOL0     C30686   1.859   2.610   8.220  0.3301  0.1186 -0.2212
  969MOL0     C30687   1.815   2.600   8.087 -0.7565  0.0654  0.6596
  969MOL0     O30688   1.873   2.528   7.988 -0.1810 -0.3594 -0.9848
  969MOL0     C30689   1.994   2.454   8.020 -0.0574 -0.5425  0.6124
  969MOL0     C30690   2.078   2.447   7.886  0.5180 -0.4201  0.1650
  969MOL0     C30691   2.178   2.327   7.886 -0.3988 -0.3210  0.9152
  969MOL0     C30692   2.329   2.374   7.920 -0.6992  1.3974  0.9300
  969MOL0     C30693   2.426   2.257   7.936  1.2512  0.0349 -1.2882
  969MOL0     C30694   2.570   2.298   7.895  0.3239  0.7137 -0.0060
  969MOL0     C30695   2.601   2.296   7.743 -0.5018  0.5231  0.1251
  969MOL0     C30696   2.556   2.182   7.657  0.3170  0.5263  0.7776
  969MOL0     N30697   2.645   2.169   7.536  0.2396  0.0387  0.0453
  969MOL0     C30698   2.725   2.267   7.487 -0.2824 -0.5823  0.1500
  969MOL0     C30699   2.792   2.201   7.388 -1.0013 -0.5797  0.2902
  969MOL0     C30700   2.896   2.254   7.301 -0.8011  0.5549  1.3776
  969MOL0     C30701   2.841   2.260   7.157 -0.0824 -0.3542 -0.0486
  969MOL0     C30702   2.714   2.347   7.144  0.1200 -0.8323  1.3296
  969MOL0     C30703   2.671   2.396   7.008 -0.0707 -0.0933 -0.0125
  969MOL0     O30704   2.689   2.280   6.924  0.2075 -1.0056  0.3520
  969MOL0     C30705   2.683   2.290   6.784 -0.6974  0.8106  0.2813
  969MOL0     C30706   2.638   2.409   6.714 -0.3206 -0.3781  0.6953
  969MOL0     C30707   2.640   2.412   6.574 -0.6852 -0.2613 -0.0614
  969MOL0     C30708   2.694   2.301   6.497 -0.1123 -0.3457  0.1765
  969MOL0     C30709   2.702   2.305   6.354  0.4325 -0.8695  0.4539
  969MOL0     O30710   2.761   2.211   6.281  0.4231  0.4743  0.4716
  969MOL0     C30711   2.711   2.196   6.155  0.9531 -0.2930  0.2157
  969MOL0     C30712   2.627   2.087   6.122 -0.0487  0.1169  0.8720
  969MOL0     C30713   2.598   2.056   5.990 -0.5311  0.1035 -0.3575
  969MOL0     C30714   2.640   2.145   5.885  0.8849  0.4848  1.0430
  969MOL0     O30715   2.611   2.133   5.750 -0.7511  0.1696 -0.2975
  969MOL0     C30716   2.523   2.024   5.719 -0.0703  0.2228 -0.1997
  969MOL0     C30717   2.504   2.028   5.571  0.4409  0.3117  0.4313
  969MOL0     C30718   2.438   2.163   5.511  0.4171 -0.3123 -0.6421
  969MOL0     C30719   2.314   2.191   5.590 -0.3471 -0.1956  1.1085
  969MOL0     C30720   2.229   2.299   5.524 -0.4509 -1.2139  0.1796
  969MOL0     C30721   2.087   2.299   5.582 -0.5739 -1.1712 -0.5841
  969MOL0     C30722   2.027   2.442   5.588  0.3169 -0.7708  0.1166
  969MOL0     C30723   1.871   2.435   5.608  0.3616  1.1856 -0.3438
  969MOL0    Cl30724   1.818   2.398   5.773 -0.1139  0.2784 -0.4864
  969MOL0     C30725   2.723   2.258   5.918 -0.2106 -0.4206 -0.9454
  969MOL0     C30726   2.762   2.282   6.053 -0.3321  0.1989  0.0123
  969MOL0     O30727   2.636   2.404   6.311  0.3624  0.6084  0.1001
  969MOL0     C30728   2.740   2.189   6.567 -0.1556 -0.7127 -0.1603
  969MOL0     C30729   2.731   2.180   6.707 -0.6578  0.1866 -0.4767
  969MOL0     N30730   2.767   2.074   7.397 -0.7285  0.4171 -0.3021
  969MOL0     N30731   2.681   2.051   7.484  0.0432  0.8781  0.4782
  969MOL0     C30732   1.697   2.667   8.050  0.2264 -0.1624  0.3702
  969MOL0     C30733   1.614   2.723   8.144 -0.1230  0.9511 -0.3081
  969MOL0     C30734   1.441   2.927   8.497 -0.1526  0.0468  0.2118
  969MOL0     C30735   1.374   2.819   8.574  0.2348 -0.4617  0.2084
  969MOL0     C30736   1.280   2.840   8.670  0.2119 -0.3122  0.0612
  969MOL0     C30737   1.269   2.970   8.714  0.0547  0.7115  0.6757
  969MOL0     O30738   1.182   3.012   8.814  0.1719  0.0531  0.8126
  969MOL0     C30739   1.076   2.920   8.855 -0.4225  0.2797  0.8679
  969MOL0     C30740   0.994   2.986   8.961 -0.1721  0.4064 -0.3354
  969MOL0     C30741   1.077   3.030   9.081 -0.1445  0.8635 -0.0271
  969MOL0     C30742   0.992   3.118   9.176 -0.5516  0.3609  0.3909
  969MOL0     C30743   1.069   3.164   9.288  0.2410  0.2470 -0.3278
  969MOL0     C30744   1.135   3.188   9.384  0.0118  0.0835 -0.9704
  969MOL0     C30745   1.341   3.076   8.656 -0.0007 -0.9223  0.2767
  969MOL0     C30746   1.410   3.063   8.538 -0.5651  0.3003  0.6111
  969MOL0     C30747   1.477   3.179   8.466  1.0803  0.4361  0.4736
  969MOL0     H30748   1.812   2.685   8.415  1.5686 -0.4584 -0.1489
  969MOL0     H30749   1.953   2.565   8.250 -1.1240 -0.8305  3.3855
  969MOL0     H30750   2.057   2.484   8.104 -1.4277 -0.1566  1.5426
  969MOL0     H30751   1.957   2.353   8.037  1.3491 -0.8957  1.7709
  969MOL0     H30752   2.137   2.539   7.881 -0.2879  0.0461 -2.4108
  969MOL0     H30753   2.005   2.455   7.804 -0.7887 -1.3449  1.1961
  969MOL0     H30754   2.190   2.276   7.791  0.4142 -2.5038  2.1213
  969MOL0     H30755   2.142   2.250   7.954  2.3550 -2.7841 -0.2043
  969MOL0     H30756   2.360   2.443   7.841  2.2454 -0.4731  0.3167
  969MOL0     H30757   2.322   2.418   8.020 -2.6986  0.0445  1.4544
  969MOL0     H30758   2.428   2.208   8.034 -2.5233 -0.7962 -1.4923
  969MOL0     H30759   2.375   2.189   7.868 -0.9966 -1.6814  1.8473
  969MOL0     H30760   2.601   2.395   7.935  1.2643 -0.0409  1.1714
  969MOL0     H30761   2.641   2.228   7.942  1.5088  1.2474 -0.9544
  969MOL0     H30762   2.711   2.303   7.747 -0.4750  3.3083 -2.0190
  969MOL0     H30763   2.553   2.385   7.701  2.1316  1.6362 -0.7838
  969MOL0     H30764   2.581   2.088   7.708  1.9724  0.3765 -0.2534
  969MOL0     H30765   2.454   2.174   7.617  0.7756 -1.7590 -0.1291
  969MOL0     H30766   2.744   2.372   7.508 -1.3823  0.7157 -4.1996
  969MOL0     H30767   2.939   2.351   7.327  1.1778  0.2595 -0.4475
  969MOL0     H30768   2.983   2.188   7.290  0.6335  2.7226 -2.7308
  969MOL0     H30769   2.931   2.306   7.116  1.6435 -1.1553  2.5601
  969MOL0     H30770   2.822   2.161   7.113  0.2745 -0.9514  1.0973
  969MOL0     H30771   2.728   2.440   7.200 -5.1857 -0.1530  2.1221
  969MOL0     H30772   2.632   2.302   7.202 -3.4637  3.4956  0.2055
  969MOL0     H30773   2.739   2.474   6.971 -1.2971  1.5487  1.0509
  969MOL0     H30774   2.571   2.439   7.009 -0.6589 -1.4145  0.6298
  969MOL0     H30775   2.587   2.485   6.771  1.0266 -0.9428  2.7664
  969MOL0     H30776   2.606   2.499   6.518 -2.1189 -1.1485 -0.6217
  969MOL0     H30777   2.589   2.031   6.207 -1.1578  3.4203  2.7114
  969MOL0     H30778   2.550   1.961   5.967 -0.5030  0.4542 -2.0145
  969MOL0     H30779   2.573   1.933   5.754 -1.2095  0.1599  1.3916
  969MOL0     H30780   2.421   2.016   5.758  0.5839 -0.0424  1.5312
  969MOL0     H30781   2.602   2.022   5.523  0.4924 -1.5525  0.7066
  969MOL0     H30782   2.441   1.944   5.542  1.3331  0.4448 -2.1384
  969MOL0     H30783   2.507   2.245   5.530 -1.7123  1.3075  0.5210
  969MOL0     H30784   2.423   2.167   5.403  0.1533  0.5733 -0.5781
  969MOL0     H30785   2.340   2.231   5.689  2.7772  0.4461  0.1388
  969MOL0     H30786   2.260   2.097   5.592 -1.9723  0.6973  0.9993
  969MOL0     H30787   2.209   2.284   5.417  1.4911 -1.3006 -0.2129
  969MOL0     H30788   2.281   2.394   5.540  0.3411 -1.8920  1.8447
  969MOL0     H30789   2.021   2.246   5.513  0.6176 -3.9953  0.2818
  969MOL0     H30790   2.091   2.249   5.680  0.3862 -0.3009 -0.1602
  969MOL0     H30791   2.045   2.499   5.496  0.1979 -2.6503 -1.1440
  969MOL0     H30792   2.075   2.497   5.669 -0.7798  0.3969  0.0034
  969MOL0     H30793   1.830   2.535   5.597 -1.9816  0.2489 -0.7082
  969MOL0     H30794   1.813   2.366   5.546 -2.4850  0.6290  2.6756
  969MOL0     H30795   2.757   2.318   5.834  0.6813  1.0298  0.3924
  969MOL0     H30796   2.841   2.352   6.078  2.3356 -2.8265  0.7266
  969MOL0     H30797   2.781   2.103   6.515 -1.6236 -2.6425  1.7025
  969MOL0     H30798   2.771   2.089   6.751 -0.9935 -0.1430 -0.8511
  969MOL0     H30799   1.679   2.666   7.943  3.8484  2.1636 -0.4453
  969MOL0     H30800   1.524   2.772   8.107 -0.6768  0.0462 -0.1702
  969MOL0     H30801   1.384   2.715   8.545  1.1850 -0.7149  1.3395
  969MOL0     H30802   1.234   2.749   8.707 -0.5830  0.9164  2.2442
  969MOL0     H30803   1.119   2.826   8.890  1.8300  0.5203 -0.9872
  969MOL0     H30804   1.016   2.893   8.767  3.9738  0.0264 -2.4038
  969MOL0     H30805   0.920   2.907   8.979  1.2511 -1.2464 -1.4221
  969MOL0     H30806   0.949   3.079   8.924  0.1327  2.5456  4.0380
  969MOL0     H30807   1.167   3.074   9.038 -0.0078  0.4435 -0.1753
  969MOL0     H30808   1.111   2.933   9.118 -2.1841 -0.7107 -2.0081
  969MOL0     H30809   0.935   3.197   9.126  1.1480 -0.1301 -2.5734
  969MOL0     H30810   0.919   3.054   9.226  2.7919 -3.4782  0.8759
  969MOL0     H30811   1.196   3.202   9.471 -0.8779 -1.4914 -0.0500
  969MOL0     H30812   1.341   3.179   8.692  1.1136 -0.7909 -0.0783
  969MOL0     H30813   1.582   3.163   8.440  1.6688  1.0078  2.3113
  969MOL0     H30814   1.411   3.208   8.384 -1.1363 -2.9726  0.8434
  969MOL0     H30815   1.487   3.268   8.529  0.4127  2.7029 -2.4485
  970MOL0     O30816   6.166   2.031   2.285  0.5596 -0.2001  0.6077
  970MOL0     C30817   6.289   2.038   2.275 -0.3387 -0.6257 -0.0267
  970MOL0     O30818   6.365   2.124   2.360  0.2768 -0.3288  0.6818
  970MOL0     C30819   6.320   2.248   2.407 -0.0959 -0.2824 -0.2233
  970MOL0     C30820   6.230   2.333   2.344 -0.6958 -0.6486  0.7574
  970MOL0     C30821   6.212   2.460   2.396  1.2394  0.1107 -0.8318
  970MOL0     C30822   6.284   2.500   2.514 -0.0402  0.1838  0.4501
  970MOL0     O30823   6.271   2.631   2.548  0.4700  1.1480  0.3865
  970MOL0     C30824   6.221   2.647   2.686 -0.6189 -0.9923  0.1415
  970MOL0     C30825   6.336   2.709   2.761  0.0394  0.3763 -0.4335
  970MOL0     C30826   6.343   2.857   2.770 -0.0947  0.3648 -0.1624
  970MOL0     C30827   6.436   2.914   2.877 -0.8388  0.5068 -0.2069
  970MOL0     C30828   6.427   3.069   2.879 -0.3763  0.2093 -0.0690
  970MOL0     C30829   6.522   3.119   2.983 -0.2939  0.0894 -0.4104
  970MOL0     C30830   6.502   3.270   3.008 -0.6489 -0.2985 -0.4473
  970MOL0     C30831   6.594   3.314   3.125 -0.0446 -0.6265 -0.2399
  970MOL0     N30832   6.569   3.232   3.243 -0.4897  0.1699  0.1250
  970MOL0     C30833   6.465   3.237   3.335  0.6169 -0.3343 -1.0426
  970MOL0     C30834   6.483   3.119   3.407  0.3845  0.0994  0.3730
  970MOL0     C30835   6.368   3.058   3.488 -0.0525 -0.1268 -0.2442
  970MOL0     C30836   6.249   2.996   3.403  0.2289 -0.8704 -0.2702
  970MOL0     C30837   6.293   2.899   3.291  0.5201 -0.2285  0.3227
  970MOL0     C30838   6.346   2.767   3.348  0.8623 -0.9108 -0.3877
  970MOL0     O30839   6.249   2.688   3.419 -0.4006  0.4092  0.9316
  970MOL0     C30840   6.283   2.560   3.468 -0.0212  0.3173  0.0620
  970MOL0     C30841   6.348   2.469   3.388  0.0761 -1.3409  0.5878
  970MOL0     C30842   6.401   2.355   3.443  0.5255  0.4923 -0.7490
  970MOL0     C30843   6.371   2.312   3.580 -0.4587 -0.8745 -0.2905
  970MOL0     C30844   6.405   2.171   3.616 -0.3650  0.1174  0.7161
  970MOL0     O30845   6.494   2.112   3.535  0.2561 -1.1591 -0.3554
  970MOL0     C30846   6.520   1.976   3.561 -0.4316 -0.4916 -0.5460
  970MOL0     C30847   6.580   1.924   3.680 -0.1487 -0.2092  0.7292
  970MOL0     C30848   6.609   1.789   3.692 -0.9414 -0.6609  0.2388
  970MOL0     C30849   6.595   1.707   3.579 -0.0995  0.7996 -1.1378
  970MOL0     O30850   6.630   1.572   3.576  0.0392 -0.4578  0.7200
  970MOL0     C30851   6.637   1.505   3.706 -0.0150  1.4318 -0.5772
  970MOL0     C30852   6.635   1.359   3.689 -0.3752 -0.4710  0.3226
  970MOL0     C30853   6.512   1.304   3.612  1.1150  0.1413  0.5549
  970MOL0     C30854   6.554   1.260   3.470  1.1220 -0.6085 -0.5332
  970MOL0     C30855   6.426   1.220   3.392  0.0568 -1.1423  0.1429
  970MOL0     C30856   6.417   1.067   3.381 -0.2784 -0.7502 -0.7701
  970MOL0     C30857   6.313   1.020   3.285  0.6561  1.1169 -0.3183
  970MOL0     C30858   6.298   0.874   3.283 -0.9324  0.6477  0.6128
  970MOL0    Cl30859   6.203   0.820   3.413  0.3841  0.2442  0.0544
  970MOL0     C30860   6.539   1.748   3.459  0.8234 -0.4492  0.4180
  970MOL0     C30861   6.507   1.883   3.450 -0.1757  0.7843  0.9090
  970MOL0     O30862   6.339   2.117   3.704 -0.3496  0.4869  0.0967
  970MOL0     C30863   6.297   2.400   3.659  0.8066  0.4882 -0.2201
  970MOL0     C30864   6.259   2.525   3.602 -0.1360 -0.6977 -0.0055
  970MOL0     N30865   6.602   3.067   3.364  0.0074  0.3209  0.1153
  970MOL0     N30866   6.652   3.135   3.277  0.7494 -0.5482  0.3295
  970MOL0     C30867   6.365   2.404   2.578 -0.2997 -0.1341 -0.8190
  970MOL0     C30868   6.389   2.285   2.519  0.1323  0.7109 -0.3272
  970MOL0     C30869   6.367   1.933   2.208  0.3525  0.8173  0.1296
  970MOL0     C30870   6.295   1.820   2.172 -0.5648 -0.8700  1.0210
  970MOL0     C30871   6.350   1.715   2.094  0.1387 -0.2524 -0.5082
  970MOL0     C30872   6.485   1.717   2.065  0.6450  0.3456  1.1473
  970MOL0     O30873   6.541   1.621   1.985  0.2810 -0.0239  0.5729
  970MOL0     C30874   6.665   1.577   2.047  1.0102  0.2494 -0.1352
  970MOL0     C30875   6.740   1.479   1.956  0.1696 -0.2243 -0.0112
  970MOL0     C30876   6.756   1.539   1.812  0.1990  0.8840  0.6523
  970MOL0     C30877   6.839   1.426   1.720 -0.4331 -0.3075 -0.1459
  970MOL0     C30878   6.770   1.306   1.666  0.5957  0.6564 -0.1356
  970MOL0     C30879   6.740   1.198   1.616 -0.0749 -0.3914  0.3369
  970MOL0     C30880   6.545   1.834   2.092 -0.6265  0.8253  0.0991
  970MOL0     C30881   6.502   1.943   2.165  0.3585  0.9019  0.7758
  970MOL0     C30882   6.589   2.062   2.191 -0.8386  0.6500  0.1554
  970MOL0     H30883   6.188   2.293   2.252  0.5968 -0.4954  0.0803
  970MOL0     H30884   6.160   2.536   2.338  0.3284 -2.4398 -3.6004
  970MOL0     H30885   6.135   2.715   2.690 -1.2779 -1.2658 -4.2145
  970MOL0     H30886   6.186   2.553   2.731 -1.0972 -0.6049  0.5967
  970MOL0     H30887   6.434   2.673   2.729  0.5918 -2.1717  3.4501
  970MOL0     H30888   6.309   2.669   2.859  0.4445 -1.0728 -0.8838
  970MOL0     H30889   6.244   2.900   2.784 -1.0236 -1.6901 -0.0765
  970MOL0     H30890   6.382   2.890   2.673 -2.9860  0.3182 -1.4446
  970MOL0     H30891   6.413   2.870   2.974 -3.4005  2.2197  0.0776
  970MOL0     H30892   6.541   2.888   2.868  0.5459  3.9006  3.3326
  970MOL0     H30893   6.451   3.113   2.782  0.8105  0.5520  0.3582
  970MOL0     H30894   6.327   3.097   2.914  0.5029  3.3171  0.2406
  970MOL0     H30895   6.490   3.065   3.072 -1.4014 -0.9251 -1.3914
  970MOL0     H30896   6.624   3.087   2.957  0.1985 -0.1049  1.5710
  970MOL0     H30897   6.399   3.300   3.030 -0.9769 -0.4569 -1.6841
  970MOL0     H30898   6.548   3.317   2.920 -1.3367 -1.0855 -1.2506
  970MOL0     H30899   6.700   3.301   3.101  0.2069  0.7284  0.0687
  970MOL0     H30900   6.575   3.416   3.157  2.8053  0.2159 -0.8780
  970MOL0     H30901   6.390   3.313   3.351  0.4175 -0.6526 -0.4349
  970MOL0     H30902   6.404   2.972   3.544 -0.9712 -0.4926 -0.2045
  970MOL0     H30903   6.338   3.138   3.556  0.8159 -0.3656  0.4391
  970MOL0     H30904   6.174   2.944   3.463  0.3910 -4.2040 -2.6437
  970MOL0     H30905   6.199   3.078   3.351 -2.9648 -1.3696  1.7943
  970MOL0     H30906   6.353   2.943   3.212  0.6591  1.8187  1.4945
  970MOL0     H30907   6.195   2.888   3.244 -0.4592 -2.0721  2.5807
  970MOL0     H30908   6.423   2.795   3.419 -0.0245  1.0123 -0.1195
  970MOL0     H30909   6.398   2.719   3.264  0.4289  0.1452 -1.2925
  970MOL0     H30910   6.372   2.500   3.287  0.5345 -3.5240 -0.0403
  970MOL0     H30911   6.458   2.287   3.381  2.3552  1.6315 -0.4192
  970MOL0     H30912   6.591   1.990   3.766  2.7762 -1.2550  1.2696
  970MOL0     H30913   6.642   1.741   3.784 -2.4954 -1.7227  0.2929
  970MOL0     H30914   6.741   1.528   3.734  0.3582 -1.1787  0.5152
  970MOL0     H30915   6.560   1.535   3.777 -1.7264 -2.8415 -0.2946
  970MOL0     H30916   6.726   1.327   3.638 -0.2543 -1.7037  1.2740
  970MOL0     H30917   6.635   1.306   3.784 -0.9494 -1.2456 -0.0980
  970MOL0     H30918   6.456   1.224   3.662 -2.6096  1.7961 -0.5920
  970MOL0     H30919   6.440   1.387   3.613  0.3167 -0.5369  0.4968
  970MOL0     H30920   6.634   1.185   3.459  1.6664  0.1452 -1.9284
  970MOL0     H30921   6.594   1.352   3.426  0.3242  1.2344  2.3229
  970MOL0     H30922   6.447   1.241   3.287  0.5223 -1.3748  0.1886
  970MOL0     H30923   6.338   1.275   3.428 -0.2578 -0.0318 -2.1449
  970MOL0     H30924   6.519   1.032   3.365 -0.9264 -2.2403 -1.8854
  970MOL0     H30925   6.388   1.030   3.480  4.2397 -0.6158  0.8157
  970MOL0     H30926   6.342   1.051   3.184  1.8558  1.3031  0.0623
  970MOL0     H30927   6.221   1.073   3.313  1.6688  2.9476 -0.2693
  970MOL0     H30928   6.253   0.857   3.185  1.8072  1.2431 -0.8439
  970MOL0     H30929   6.399   0.830   3.281 -1.6970 -1.1832 -1.0373
  970MOL0     H30930   6.521   1.683   3.374  2.7128  0.6477 -0.9014
  970MOL0     H30931   6.476   1.914   3.351  0.6885  3.1709  1.3075
  970MOL0     H30932   6.269   2.373   3.761  1.6088 -2.8333 -0.7571
  970MOL0     H30933   6.197   2.592   3.659  1.3477  0.2885  0.5161
  970MOL0     H30934   6.423   2.426   2.667 -1.1728 -0.1064 -0.2529
  970MOL0     H30935   6.469   2.215   2.541 -0.3382  0.5069  0.8508
  970MOL0     H30936   6.191   1.813   2.202  0.0777  1.5337  4.3454
  970MOL0     H30937   6.283   1.635   2.063 -1.4882  0.5213  0.8684
  970MOL0     H30938   6.648   1.529   2.143 -1.6154  0.0014 -0.6330
  970MOL0     H30939   6.728   1.663   2.072  2.0427 -0.4623 -0.2452
  970MOL0     H30940   6.688   1.383   1.942  0.1666 -0.0858 -1.0793
  970MOL0     H30941   6.838   1.452   1.997  1.2245  1.6088 -1.2018
  970MOL0     H30942   6.826   1.623   1.814 -0.2562  1.2537  2.1547
  970MOL0     H30943   6.657   1.553   1.767  1.1406 -0.5005 -2.0788
  970MOL0     H30944   6.890   1.479   1.639 -0.7436  1.7510  0.9423
  970MOL0     H30945   6.922   1.394   1.783  0.5888  1.4320 -0.5292
  970MOL0     H30946   6.701   1.115   1.560 -0.7687 -0.4812  0.9387
  970MOL0     H30947   6.643   1.854   2.048  1.2875 -5.4793  0.4604
  970MOL0     H30948   6.676   2.068   2.124  0.7701  0.1892  2.1104
  970MOL0     H30949   6.534   2.153   2.166 -1.0324  0.1172 -1.4792
  970MOL0     H30950   6.647   2.070   2.284  4.8406 -1.8086 -2.6350
  971MOL0     O30951   3.410   1.535   4.646  0.8752 -0.0457  0.1913
  971MOL0     C30952   3.469   1.433   4.673 -0.2796  1.1992  0.1424
  971MOL0     O30953   3.447   1.308   4.610 -0.4446  0.9214 -0.1968
  971MOL0     C30954   3.376   1.299   4.492 -0.3234 -0.1088 -0.6429
  971MOL0     C30955   3.230   1.318   4.476 -0.5457  0.9313 -0.4687
  971MOL0     C30956   3.171   1.293   4.346 -0.1227  0.1231 -0.3463
  971MOL0     C30957   3.259   1.280   4.236  0.3612  1.2952 -0.4700
  971MOL0     O30958   3.225   1.274   4.101  0.7711  0.1288 -0.6615
  971MOL0     C30959   3.139   1.376   4.049  0.1876 -0.7323  0.4286
  971MOL0     C30960   3.219   1.442   3.936 -0.1967  0.8094  1.0731
  971MOL0     C30961   3.344   1.525   3.994 -0.8566  0.0214  0.5909
  971MOL0     C30962   3.447   1.520   3.883 -0.3041  0.6367  0.4269
  971MOL0     C30963   3.571   1.578   3.929  0.7770 -0.0284 -0.7778
  971MOL0     C30964   3.641   1.504   4.043 -0.3051 -0.0609 -0.2440
  971MOL0     C30965   3.762   1.593   4.082 -0.7264  0.6522  0.2873
  971MOL0     C30966   3.881   1.510   4.144 -0.3568  0.5744  0.2620
  971MOL0     N30967   4.011   1.553   4.083  0.7861 -0.0987 -0.1461
  971MOL0     C30968   4.132   1.570   4.146  0.0958 -1.1874  0.1668
  971MOL0     C30969   4.220   1.595   4.043 -0.1339 -0.2778  0.6552
  971MOL0     C30970   4.369   1.615   4.062 -0.2939 -0.4400  0.7885
  971MOL0     C30971   4.403   1.747   4.135  0.7001  0.5603 -0.0713
  971MOL0     C30972   4.347   1.873   4.068 -1.1263 -0.1097 -0.9094
  971MOL0     C30973   4.442   1.995   4.065 -1.0043  0.0507 -0.5730
  971MOL0     O30974   4.406   2.065   3.959 -0.8281 -0.3952  0.1084
  971MOL0     C30975   4.437   2.193   3.959  0.4826 -0.4917 -0.0460
  971MOL0     C30976   4.353   2.280   3.899  0.3202 -0.1599 -0.4618
  971MOL0     C30977   4.376   2.413   3.888  0.0259 -0.7338 -0.2535
  971MOL0     C30978   4.481   2.471   3.947 -0.9539 -1.9528  0.1003
  971MOL0     C30979   4.505   2.623   3.927 -0.4867  0.4133 -0.0560
  971MOL0     O30980   4.643   2.660   3.912 -0.2656  0.6927 -0.3218
  971MOL0     C30981   4.658   2.797   3.921 -0.0432 -0.4156  0.6863
  971MOL0     C30982   4.630   2.868   4.040 -0.1979  0.2592  0.7987
  971MOL0     C30983   4.663   2.998   4.052  0.8907  0.4123  0.1848
  971MOL0     C30984   4.721   3.065   3.945 -0.9515  0.1094  0.4282
  971MOL0     O30985   4.760   3.199   3.965  0.8069 -0.3239  0.2021
  971MOL0     C30986   4.653   3.292   3.985 -0.1674 -0.4445 -0.3051
  971MOL0     C30987   4.591   3.351   3.859 -0.3096 -0.7707 -0.0559
  971MOL0     C30988   4.455   3.415   3.885  0.4517 -0.5565  0.0373
  971MOL0     C30989   4.449   3.546   3.957  0.1236  0.1882  0.1199
  971MOL0     C30990   4.311   3.604   3.907 -0.5949 -0.2454  0.4421
  971MOL0     C30991   4.281   3.739   3.962 -0.0299 -0.6384 -0.8665
  971MOL0     C30992   4.289   3.748   4.115  0.1744  0.5323  0.9070
  971MOL0     C30993   4.208   3.863   4.171 -0.1634 -0.3362  0.1327
  971MOL0    Cl30994   4.214   3.836   4.351 -0.3012  0.4675 -0.3578
  971MOL0     C30995   4.765   3.003   3.830  0.0648 -0.0500 -0.2597
  971MOL0     C30996   4.734   2.869   3.821 -0.6033  0.7737  0.1123
  971MOL0     O30997   4.406   2.694   3.916  0.4753 -0.4720  1.0800
  971MOL0     C30998   4.573   2.391   4.023  0.0198 -0.1975 -0.1477
  971MOL0     C30999   4.545   2.254   4.033  0.3473  0.2194 -0.1891
  971MOL0     N31000   4.143   1.616   3.927  0.2822 -0.2688 -0.3211
  971MOL0     N31001   4.017   1.574   3.945 -0.7734 -0.3962 -0.1436
  971MOL0     C31002   3.397   1.275   4.251 -0.5745 -0.9156  0.9736
  971MOL0     C31003   3.457   1.285   4.380 -0.1578 -0.8596  0.3417
  971MOL0     C31004   3.567   1.432   4.786 -0.8823  1.0519  0.2719
  971MOL0     C31005   3.687   1.361   4.755 -0.7342 -0.4180  0.0986
  971MOL0     C31006   3.797   1.379   4.848 -0.2935 -0.5982 -1.0362
  971MOL0     C31007   3.782   1.454   4.970  0.2572  0.4298 -0.3792
  971MOL0     O31008   3.894   1.479   5.047  0.3397  1.0729 -0.9423
  971MOL0     C31009   3.891   1.559   5.161 -1.0015  1.2173 -0.4251
  971MOL0     C31010   4.024   1.618   5.206 -0.2855 -0.9101  1.1185
  971MOL0     C31011   4.013   1.692   5.340 -0.3441  0.1152 -0.1500
  971MOL0     C31012   4.142   1.723   5.416  0.1806 -0.0336  0.0928
  971MOL0     C31013   4.224   1.806   5.329 -0.7592 -0.0178  0.1754
  971MOL0     C31014   4.253   1.886   5.243  0.0637 -0.0062 -0.7872
  971MOL0     C31015   3.653   1.502   5.003 -0.1273  0.2518 -0.5612
  971MOL0     C31016   3.554   1.500   4.913 -0.4029  0.3287  0.2044
  971MOL0     C31017   3.422   1.578   4.954 -0.9018  0.3350  0.0363
  971MOL0     H31018   3.163   1.347   4.556 -3.8506 -1.0980 -2.2864
  971MOL0     H31019   3.063   1.300   4.342 -0.1897 -1.1926 -2.8510
  971MOL0     H31020   3.055   1.329   3.998 -0.7166  0.3917  0.8268
  971MOL0     H31021   3.108   1.443   4.130  0.3060  1.9828 -1.6434
  971MOL0     H31022   3.153   1.502   3.873 -2.0214 -0.9098  1.2238
  971MOL0     H31023   3.251   1.361   3.870  1.6491  1.2672  1.3620
  971MOL0     H31024   3.384   1.488   4.089  1.3083  1.1939  0.2029
  971MOL0     H31025   3.316   1.630   4.001  1.2313  1.0823 -3.6338
  971MOL0     H31026   3.468   1.425   3.833 -5.0564 -0.8413  0.6750
  971MOL0     H31027   3.408   1.582   3.802 -1.8046 -2.5488 -1.5338
  971MOL0     H31028   3.636   1.578   3.840  1.0077 -1.5783 -0.6246
  971MOL0     H31029   3.556   1.683   3.956 -2.6716 -0.9908  1.5567
  971MOL0     H31030   3.584   1.477   4.133 -2.1499 -1.3505 -1.7121
  971MOL0     H31031   3.683   1.409   4.008 -1.7646 -0.1191 -1.9922
  971MOL0     H31032   3.720   1.660   4.157 -0.2433 -0.6290  1.7619
  971MOL0     H31033   3.793   1.644   3.990  1.8515  0.5478  1.0268
  971MOL0     H31034   3.891   1.520   4.252  1.4967 -0.5183  0.2319
  971MOL0     H31035   3.871   1.402   4.127  2.0978 -0.3082  3.5129
  971MOL0     H31036   4.142   1.554   4.252 -2.5429 -3.4964  0.1871
  971MOL0     H31037   4.406   1.528   4.116 -1.9157 -2.3858 -1.0867
  971MOL0     H31038   4.416   1.623   3.964 -0.2434 -1.2941  0.7417
  971MOL0     H31039   4.372   1.738   4.239  1.6622 -0.3889  0.1517
  971MOL0     H31040   4.511   1.765   4.136  0.3559  2.9222  0.1232
  971MOL0     H31041   4.255   1.906   4.116  0.0197 -0.1076  1.4245
  971MOL0     H31042   4.319   1.844   3.966 -0.2733 -1.4192 -0.8051
  971MOL0     H31043   4.546   1.964   4.053 -1.1590  0.2505 -2.9873
  971MOL0     H31044   4.425   2.054   4.156 -0.0959  1.1084 -1.0689
  971MOL0     H31045   4.263   2.263   3.840 -1.7609  2.4090  1.7260
  971MOL0     H31046   4.297   2.481   3.857  0.9933  0.2160 -0.7136
  971MOL0     H31047   4.574   2.822   4.121 -0.3326 -0.1017  0.5015
  971MOL0     H31048   4.645   3.054   4.143  0.4631  0.5031  0.0468
  971MOL0     H31049   4.575   3.235   4.037  0.0245  1.8038  2.7412
  971MOL0     H31050   4.683   3.373   4.053 -0.9495  1.3178 -1.9682
  971MOL0     H31051   4.659   3.427   3.818 -0.0469  0.5583  2.6097
  971MOL0     H31052   4.585   3.274   3.781 -1.6172  1.0241 -1.8461
  971MOL0     H31053   4.413   3.440   3.787 -1.0796  0.0971  0.8266
  971MOL0     H31054   4.399   3.340   3.941  3.4602 -2.0130  1.3516
  971MOL0     H31055   4.536   3.607   3.928  1.9096 -2.4910 -0.5424
  971MOL0     H31056   4.458   3.538   4.065 -1.5770 -0.8876  0.2191
  971MOL0     H31057   4.233   3.540   3.948 -0.6672 -0.4151  0.0498
  971MOL0     H31058   4.306   3.612   3.798 -1.7319 -3.0709  0.1959
  971MOL0     H31059   4.314   3.830   3.911 -0.9538 -2.0099 -4.1142
  971MOL0     H31060   4.174   3.748   3.943 -0.1529  1.6419  0.4016
  971MOL0     H31061   4.387   3.774   4.155 -0.3889  3.0915  0.8249
  971MOL0     H31062   4.250   3.654   4.156 -0.4602  1.2388  1.9797
  971MOL0     H31063   4.263   3.953   4.142  0.7170 -1.0890 -0.5833
  971MOL0     H31064   4.104   3.875   4.137 -0.7345 -1.8506  1.2505
  971MOL0     H31065   4.827   3.050   3.754 -0.2783 -1.4728 -1.4645
  971MOL0     H31066   4.772   2.815   3.735  1.5552  0.7522  1.0007
  971MOL0     H31067   4.664   2.439   4.056 -0.0742 -1.8336  2.7585
  971MOL0     H31068   4.627   2.191   4.068  0.0725  0.1617  0.3545
  971MOL0     H31069   3.468   1.273   4.168 -0.3181 -2.2071  1.2019
  971MOL0     H31070   3.563   1.302   4.394 -0.2194  0.1964 -0.3145
  971MOL0     H31071   3.701   1.298   4.668  1.4773 -0.9387  0.7789
  971MOL0     H31072   3.893   1.334   4.825 -0.8635 -2.1685 -0.4331
  971MOL0     H31073   3.849   1.503   5.246 -1.3718  2.2856  0.1107
  971MOL0     H31074   3.824   1.643   5.146 -2.5817 -0.5078 -4.3741
  971MOL0     H31075   4.060   1.684   5.127 -0.8070 -0.9086  0.8795
  971MOL0     H31076   4.102   1.542   5.220  0.6590 -0.6410 -1.8774
  971MOL0     H31077   3.951   1.626   5.402  0.0719  0.6064  0.8116
  971MOL0     H31078   3.955   1.784   5.335 -1.6394 -0.5171  1.8996
  971MOL0     H31079   4.118   1.772   5.511 -0.3133 -2.2267  1.1757
  971MOL0     H31080   4.191   1.632   5.453 -1.6922 -1.6544 -1.2317
  971MOL0     H31081   4.273   1.963   5.171 -0.7852  0.8154 -0.1629
  971MOL0     H31082   3.628   1.545   5.099 -2.1155 -0.5653 -0.6766
  971MOL0     H31083   3.433   1.684   4.928  0.9675 -0.2420 -1.8266
  971MOL0     H31084   3.336   1.532   4.904 -1.0933 -1.6195  2.0370
  971MOL0     H31085   3.406   1.560   5.060  0.2515  0.7957  0.3060
  972MOL0     O31086   7.064  10.691  11.153  0.6743 -0.6684  0.5116
  972MOL0     C31087   7.047  10.567  11.170  0.2026  0.6093 -0.5007
  972MOL0     O31088   7.135  10.486  11.243  0.7661 -0.2114 -0.5126
  972MOL0     C31089   7.253  10.528  11.288 -0.5657  0.5441  0.1196
  972MOL0     C31090   7.340  10.620  11.224 -0.4853 -0.2695  0.4266
  972MOL0     C31091   7.467  10.649  11.277 -0.8569 -0.1772 -0.5881
  972MOL0     C31092   7.516  10.599  11.398  0.1512  0.3079  0.3754
  972MOL0     O31093   7.636  10.639  11.448 -0.8635 -0.0461 -0.0652
  972MOL0     C31094   7.629  10.652  11.589  0.5759 -0.5273  0.5885
  972MOL0     C31095   7.770  10.629  11.640 -0.5091  0.0569  0.4960
  972MOL0     C31096   7.831  10.484  11.609 -0.3253  0.3360  0.2959
  972MOL0     C31097   7.973  10.478  11.661  0.0090 -0.2179  1.3428
  972MOL0     C31098   8.049  10.347  11.637 -0.1016  0.0452  0.3758
  972MOL0     C31099   8.151  10.314  11.750 -0.2035  0.5724  0.5704
  972MOL0     C31100   8.296  10.358  11.706 -0.3268 -0.4515  0.6087
  972MOL0     C31101   8.387  10.250  11.639 -0.4832 -0.1114 -0.0151
  972MOL0     N31102   8.367  10.215  11.498 -0.3348  0.2411  1.0169
  972MOL0     C31103   8.323  10.292  11.391  0.6554 -0.2497  0.1878
  972MOL0     C31104   8.295  10.211  11.290  0.1196 -1.0530 -0.8486
  972MOL0     C31105   8.254  10.245  11.156  0.6936 -0.6440 -0.1425
  972MOL0     C31106   8.106  10.232  11.133  0.6655 -0.4439 -0.8132
  972MOL0     C31107   8.041  10.328  11.233 -0.2503  0.3649 -0.9344
  972MOL0     C31108   7.893  10.316  11.217  0.3630 -0.1900  0.3940
  972MOL0     O31109   7.857  10.390  11.099  0.1634  0.0858  0.2563
  972MOL0     C31110   7.732  10.367  11.054 -0.1437  0.3913 -0.5026
  972MOL0     C31111   7.690  10.462  10.953 -0.3739  0.6244 -0.6535
  972MOL0     C31112   7.560  10.452  10.896  0.7818 -0.0913  0.1930
  972MOL0     C31113   7.466  10.351  10.935 -0.1330 -0.0761  0.7229
  972MOL0     C31114   7.346  10.320  10.848  0.6201 -0.8066  0.1014
  972MOL0     O31115   7.336  10.370  10.722 -0.0847  0.0238 -0.5681
  972MOL0     C31116   7.221  10.356  10.652 -0.3165  0.0792 -0.0916
  972MOL0     C31117   7.230  10.346  10.516 -0.2165 -0.0252 -0.9750
  972MOL0     C31118   7.114  10.346  10.435 -0.2440 -0.0731 -0.0120
  972MOL0     C31119   6.986  10.364  10.484  0.5361 -0.4455 -0.0255
  972MOL0     O31120   6.875  10.390  10.411 -0.0821  0.5237  0.2370
  972MOL0     C31121   6.874  10.363  10.262  0.1782  0.8795 -0.6960
  972MOL0     C31122   6.854  10.213  10.238 -0.2222  0.0427  0.5959
  972MOL0     C31123   6.785  10.185  10.102 -1.1202 -0.3055 -0.2482
  972MOL0     C31124   6.764  10.037  10.063  0.6781 -1.1946 -0.6311
  972MOL0     C31125   6.739  10.021   9.911  0.1130 -0.3925 -0.6698
  972MOL0     C31126   6.746   9.878   9.869 -0.5284  0.7555  0.2506
  972MOL0     C31127   6.717   9.889   9.716  0.5741 -0.3959 -0.1389
  972MOL0     C31128   6.744   9.764   9.640 -0.4095 -0.5683  0.3894
  972MOL0    Cl31129   6.670   9.776   9.480 -0.3936 -0.4310 -0.2063
  972MOL0     C31130   6.977  10.378  10.626  0.3958  0.6072  0.0798
  972MOL0     C31131   7.090  10.381  10.706 -0.7249 -0.6370 -0.1340
  972MOL0     O31132   7.253  10.254  10.898 -0.1894 -0.3653 -0.0824
  972MOL0     C31133   7.505  10.264  11.037 -0.6863 -0.0675  0.9663
  972MOL0     C31134   7.636  10.272  11.099 -0.1055  0.7729 -1.3921
  972MOL0     N31135   8.333  10.080  11.324 -0.1208 -0.4724  0.4840
  972MOL0     N31136   8.375  10.087  11.443 -0.7169 -0.1556 -0.3670
  972MOL0     C31137   7.431  10.496  11.457 -0.0533 -0.7684  0.5932
  972MOL0     C31138   7.309  10.461  11.398  0.0268 -0.3200 -0.1363
  972MOL0     C31139   6.945  10.487  11.096 -0.2989 -0.0125  0.1729
  972MOL0     C31140   6.958  10.345  11.056 -0.4989 -0.4429  0.3698
  972MOL0     C31141   6.858  10.281  10.991 -0.1921  1.2828 -0.1894
  972MOL0     C31142   6.732  10.331  10.974 -0.8819  0.8905  0.2510
  972MOL0     O31143   6.631  10.250  10.919 -0.3555  0.3103  0.2735
  972MOL0     C31144   6.497  10.306  10.924 -0.4258  0.3544 -0.0302
  972MOL0     C31145   6.401  10.209  10.856  0.0947  0.2760  0.4595
  972MOL0     C31146   6.262  10.276  10.882 -1.1760  0.6873 -0.5816
  972MOL0     C31147   6.164  10.242  10.776  0.5150  0.3408  0.0101
  972MOL0     C31148   6.031  10.289  10.819  0.1273  0.1770  1.6690
  972MOL0     C31149   5.931  10.338  10.870  0.2040 -0.1727  0.1041
  972MOL0     C31150   6.705  10.458  11.029 -0.1525  0.0476  0.8502
  972MOL0     C31151   6.810  10.532  11.085 -0.1336  0.1131  0.3938
  972MOL0     C31152   6.776  10.671  11.148 -0.7106 -0.1085  0.1904
  972MOL0     H31153   7.321  10.660  11.125 -0.6642 -2.8970 -0.6903
  972MOL0     H31154   7.529  10.712  11.215  1.0672 -0.4596  0.9674
  972MOL0     H31155   7.610  10.759  11.602  0.7276 -0.7218  2.7751
  972MOL0     H31156   7.557  10.593  11.646  0.6483 -1.8557 -0.6466
  972MOL0     H31157   7.759  10.655  11.745 -1.3396 -2.8672  1.2304
  972MOL0     H31158   7.834  10.703  11.591  2.5372 -1.5649  1.7729
  972MOL0     H31159   7.823  10.457  11.504 -2.4203  1.0012  0.2513
  972MOL0     H31160   7.762  10.421  11.666  1.0926  0.5288  2.3700
  972MOL0     H31161   8.035  10.552  11.611 -0.5459 -1.2695 -1.0442
  972MOL0     H31162   7.979  10.497  11.769 -2.4806 -0.2421  1.5467
  972MOL0     H31163   7.977  10.265  11.624 -0.6428  0.5501  0.1496
  972MOL0     H31164   8.098  10.360  11.540 -1.9574  0.3992 -0.5696
  972MOL0     H31165   8.125  10.363  11.844  0.6682 -0.1945  1.2329
  972MOL0     H31166   8.149  10.206  11.768 -0.7489  0.3511 -0.7097
  972MOL0     H31167   8.346  10.398  11.794 -1.5665  0.7516  0.8078
  972MOL0     H31168   8.289  10.440  11.633 -2.6985  0.1865  1.4583
  972MOL0     H31169   8.492  10.278  11.650 -0.8479  0.7616  1.6549
  972MOL0     H31170   8.382  10.156  11.694 -1.6736 -1.3824 -2.1548
  972MOL0     H31171   8.317  10.400  11.388  1.1030 -0.0425  3.3934
  972MOL0     H31172   8.285  10.348  11.133 -0.7729  0.9093  3.9526
  972MOL0     H31173   8.307  10.179  11.086 -0.8014 -0.4596 -1.4985
  972MOL0     H31174   8.069  10.247  11.031  0.1925  0.2793 -0.5418
  972MOL0     H31175   8.074  10.131  11.160 -1.2361  0.4103  0.2827
  972MOL0     H31176   8.072  10.430  11.209 -0.0561  0.3569 -0.7189
  972MOL0     H31177   8.071  10.317  11.338  0.2698 -0.1212 -1.1269
  972MOL0     H31178   7.841  10.340  11.310  0.0067 -1.3648  0.5210
  972MOL0     H31179   7.863  10.213  11.195 -0.7067 -0.0746  1.2541
  972MOL0     H31180   7.757  10.533  10.906 -0.2660  0.2855 -1.0177
  972MOL0     H31181   7.536  10.513  10.810  3.3905  0.5314 -0.1896
  972MOL0     H31182   7.329  10.345  10.472  0.1286 -1.9382 -0.2399
  972MOL0     H31183   7.141  10.319  10.333  0.6080  1.4087 -0.2049
  972MOL0     H31184   6.782  10.411  10.225  0.6792  0.7298 -2.1950
  972MOL0     H31185   6.963  10.393  10.206  1.4583 -4.0398 -1.7670
  972MOL0     H31186   6.947  10.156  10.231 -1.0690 -1.3869  0.6232
  972MOL0     H31187   6.792  10.169  10.316 -1.1157 -4.2579 -2.1938
  972MOL0     H31188   6.697  10.248  10.094  0.8020  2.6084  0.0186
  972MOL0     H31189   6.854  10.227  10.029 -1.2121  0.2396 -0.0280
  972MOL0     H31190   6.681   9.994  10.120  1.1301 -0.4700  0.6083
  972MOL0     H31191   6.849   9.977  10.094 -1.2929 -3.4435  0.7399
  972MOL0     H31192   6.803  10.085   9.848 -0.5249  0.2973 -0.6225
  972MOL0     H31193   6.640  10.056   9.881  1.1197  2.3084 -1.1199
  972MOL0     H31194   6.848   9.850   9.897 -0.2258  1.3893 -0.1978
  972MOL0     H31195   6.680   9.801   9.909  0.1096 -0.5462 -1.1192
  972MOL0     H31196   6.779   9.960   9.661  0.2458 -1.2318 -1.6519
  972MOL0     H31197   6.610   9.907   9.707  0.6528 -0.7567 -2.6910
  972MOL0     H31198   6.850   9.737   9.639 -0.3929 -0.5392  0.9481
  972MOL0     H31199   6.689   9.681   9.687 -1.8990 -0.8145 -1.6700
  972MOL0     H31200   6.872  10.385  10.652 -0.4815 -1.3119 -2.4920
  972MOL0     H31201   7.083  10.396  10.814  2.4640  1.5182 -0.0743
  972MOL0     H31202   7.443  10.180  11.066 -1.0471 -1.4158 -3.1427
  972MOL0     H31203   7.658  10.191  11.168 -5.0264 -0.4381 -0.8752
  972MOL0     H31204   7.460  10.429  11.537 -2.7614  0.1577  2.4666
  972MOL0     H31205   7.259  10.379  11.448  4.7039 -2.7311  1.0907
  972MOL0     H31206   7.051  10.293  11.074 -1.1596 -1.4589  0.9319
  972MOL0     H31207   6.874  10.181  10.952  0.1464  0.6058  1.6116
  972MOL0     H31208   6.492  10.402  10.872  1.3999  1.8422  2.3367
  972MOL0     H31209   6.460  10.323  11.025 -0.7975  2.9461 -0.5229
  972MOL0     H31210   6.391  10.106  10.891 -0.4111 -1.3106 -3.7620
  972MOL0     H31211   6.420  10.193  10.749 -1.8208  2.4628 -0.2857
  972MOL0     H31212   6.267  10.385  10.885 -1.0393  0.7943  4.7091
  972MOL0     H31213   6.229  10.239  10.980  1.4652  1.1882  0.5851
  972MOL0     H31214   6.198  10.292  10.685  0.3416 -2.4517 -1.7228
  972MOL0     H31215   6.157  10.134  10.756  1.9577 -0.2658  2.3653
  972MOL0     H31216   5.849  10.392  10.912  0.6574  0.2326  0.4714
  972MOL0     H31217   6.607  10.503  11.025  0.1257  0.6137  0.1095
  972MOL0     H31218   6.819  10.750  11.087 -0.2159  0.3533  1.1127
  972MOL0     H31219   6.669  10.666  11.169 -0.5178  1.4663  1.8595
  972MOL0     H31220   6.827  10.683  11.245 -1.6513  2.7144  0.4088
  973MOL0     O31221   1.345   4.752   0.861  0.5178  0.4715  0.1615
  973MOL0     C31222   1.367   4.641   0.915  1.1180 -0.0086 -0.2854
  973MOL0     O31223   1.281   4.533   0.922 -0.6607 -0.3196 -0.6470
  973MOL0     C31224   1.164   4.528   0.863 -0.8614 -0.0218  0.1792
  973MOL0     C31225   1.131   4.407   0.810 -0.0974 -0.3830 -0.2146
  973MOL0     C31226   1.010   4.388   0.748  0.2119  0.4450 -0.4978
  973MOL0     C31227   0.926   4.496   0.728 -0.4727  0.3045  0.3627
  973MOL0     O31228   0.817   4.455   0.658  0.2739 -0.3207 -0.2870
  973MOL0     C31229   0.700   4.452   0.750 -0.7542  0.4940 -0.2525
  973MOL0     C31230   0.608   4.576   0.741  0.4407 -0.3451 -0.0795
  973MOL0     C31231   0.494   4.564   0.636  0.1152  0.6706 -0.1039
  973MOL0     C31232   0.408   4.691   0.635  1.2269  0.2040 -0.6252
  973MOL0     C31233   0.319   4.699   0.503 -0.5515  0.2220 -0.0774
  973MOL0     C31234   0.276   4.843   0.497  0.6048  0.4142  0.3170
  973MOL0     C31235   0.202   4.866   0.366  0.8864 -0.3182  0.6442
  973MOL0     C31236   0.306   4.900   0.252  0.8838  0.6937 -0.0693
  973MOL0     N31237   0.250   4.959   0.140  0.5513 -0.0661  0.3680
  973MOL0     C31238   0.228   5.094   0.123 -0.6696 -1.2258  0.7391
  973MOL0     C31239   0.163   5.106   0.003 -0.6953  0.1413  0.8287
  973MOL0     C31240   0.107   5.244  -0.046  0.1294 -0.3115  0.4407
  973MOL0     C31241  -0.053   5.259  -0.031 -0.1024  0.0690  0.0991
  973MOL0     C31242  -0.115   5.377  -0.094  1.1011  0.2614  0.1425
  973MOL0     C31243  -0.253   5.405  -0.039  1.4477  0.3613 -1.1682
  973MOL0     O31244  -0.249   5.411   0.111  0.4899  0.2183 -0.5380
  973MOL0     C31245  -0.352   5.365   0.187  0.0839  0.1709 -0.3158
  973MOL0     C31246  -0.433   5.258   0.161  1.0525  0.1131 -0.2979
  973MOL0     C31247  -0.545   5.225   0.253  0.0348 -0.7545 -0.0363
  973MOL0     C31248  -0.549   5.290   0.365  0.6767 -0.5711 -0.6262
  973MOL0     C31249  -0.630   5.240   0.469  0.4269  0.0569  0.4395
  973MOL0     O31250  -0.749   5.180   0.428 -0.3003 -0.2280  0.6815
  973MOL0     C31251  -0.821   5.128   0.529  0.3838 -0.3230  0.4807
  973MOL0     C31252  -0.931   5.194   0.581  0.5600 -0.2862 -0.6399
  973MOL0     C31253  -1.005   5.136   0.686  0.2432  0.1751  0.5367
  973MOL0     C31254  -0.975   5.007   0.731 -0.0732  0.2002  0.2629
  973MOL0     O31255  -1.044   4.945   0.836  0.6638  0.2097 -0.6758
  973MOL0     C31256  -1.109   5.010   0.951  0.4663 -0.5600 -0.3658
  973MOL0     C31257  -0.998   5.072   1.047  0.2424 -0.6494 -0.3710
  973MOL0     C31258  -1.059   5.123   1.176 -0.2409 -0.1513 -0.3910
  973MOL0     C31259  -1.159   5.239   1.166  0.1518  0.4741  0.1043
  973MOL0     C31260  -1.086   5.377   1.185  1.1244 -0.0643 -0.0565
  973MOL0     C31261  -1.061   5.403   1.332  0.5234  0.4772  0.6176
  973MOL0     C31262  -0.943   5.495   1.355  0.6868 -0.7600 -0.0861
  973MOL0     C31263  -0.876   5.482   1.488  0.5576  0.2275 -0.6175
  973MOL0    Cl31264  -0.799   5.322   1.520 -0.5438  0.7446  0.3670
  973MOL0     C31265  -0.857   4.949   0.680 -0.4849  0.3090  0.4619
  973MOL0     C31266  -0.780   5.003   0.582  0.0301  0.4405  0.8747
  973MOL0     O31267  -0.589   5.252   0.585 -0.7757 -0.4463 -0.5186
  973MOL0     C31268  -0.467   5.401   0.396 -0.5811 -0.1916 -0.2162
  973MOL0     C31269  -0.371   5.441   0.307 -0.2528  0.7363  0.4099
  973MOL0     N31270   0.129   4.989  -0.053 -0.1315  0.0690 -0.3499
  973MOL0     N31271   0.193   4.900   0.025 -0.4728 -0.2839 -0.3944
  973MOL0     C31272   0.964   4.624   0.777  0.2443  0.3074 -0.1801
  973MOL0     C31273   1.080   4.642   0.852 -0.2989 -0.5619 -0.1608
  973MOL0     C31274   1.508   4.611   0.958 -0.1342 -0.2037 -0.6675
  973MOL0     C31275   1.525   4.500   1.048  1.0037 -0.6274  0.3883
  973MOL0     C31276   1.659   4.493   1.113  0.3132 -0.2923 -0.8806
  973MOL0     C31277   1.762   4.571   1.070 -0.2230 -0.1059 -1.2981
  973MOL0     O31278   1.891   4.560   1.110  0.2844 -0.1042  0.0962
  973MOL0     C31279   1.941   4.448   1.184  0.4633 -0.5085  0.6538
  973MOL0     C31280   2.086   4.456   1.227 -0.1286  0.6165 -0.2816
  973MOL0     C31281   2.112   4.580   1.323 -0.3949 -0.6304  0.0701
  973MOL0     C31282   2.257   4.622   1.327  0.4997  0.3200 -0.6933
  973MOL0     C31283   2.347   4.511   1.335 -0.2021 -0.8312 -0.2298
  973MOL0     C31284   2.427   4.412   1.341 -0.2664 -0.8066 -0.2348
  973MOL0     C31285   1.743   4.663   0.971 -0.4976  0.1467  0.1977
  973MOL0     C31286   1.619   4.686   0.919 -1.4724 -0.7926 -1.0849
  973MOL0     C31287   1.619   4.807   0.831  0.0334 -0.4268 -1.2085
  973MOL0     H31288   1.192   4.318   0.799 -3.1402 -2.5331 -1.2065
  973MOL0     H31289   0.992   4.287   0.711 -2.7031 -0.3008  2.4018
  973MOL0     H31290   0.642   4.361   0.730 -2.4692  1.4536  0.1652
  973MOL0     H31291   0.732   4.441   0.854 -1.2129 -0.9229 -0.2406
  973MOL0     H31292   0.669   4.665   0.728 -0.5785  0.3615 -0.1850
  973MOL0     H31293   0.572   4.583   0.845  0.4595 -2.7517  0.1539
  973MOL0     H31294   0.434   4.482   0.678  2.2095 -0.6783  0.3776
  973MOL0     H31295   0.533   4.547   0.535 -0.4842  1.9992 -0.5858
  973MOL0     H31296   0.340   4.703   0.720  0.7166  0.0223 -1.0055
  973MOL0     H31297   0.485   4.769   0.630  0.4931  0.9020 -1.2688
  973MOL0     H31298   0.390   4.679   0.422 -0.3134 -0.3513  0.2609
  973MOL0     H31299   0.248   4.616   0.496 -2.4640  1.7571  0.5104
  973MOL0     H31300   0.203   4.861   0.577 -2.8328  1.3179 -2.7182
  973MOL0     H31301   0.364   4.906   0.508  0.8345 -0.0373  1.1282
  973MOL0     H31302   0.129   4.946   0.381 -0.9611 -1.4606 -1.4708
  973MOL0     H31303   0.139   4.779   0.344  0.6533 -0.6358  2.4069
  973MOL0     H31304   0.391   4.960   0.286  1.7121 -0.5193  0.0595
  973MOL0     H31305   0.354   4.805   0.225 -1.3679 -0.0981 -1.6034
  973MOL0     H31306   0.256   5.175   0.190 -2.4391 -0.1445  0.2570
  973MOL0     H31307   0.161   5.327   0.000  0.1797  0.9050 -1.6758
  973MOL0     H31308   0.140   5.255  -0.150 -0.7729  2.0361  0.3291
  973MOL0     H31309  -0.098   5.175  -0.086 -0.6375  0.0917  0.4932
  973MOL0     H31310  -0.085   5.241   0.072 -0.5358 -0.3791 -0.1081
  973MOL0     H31311  -0.118   5.371  -0.203  2.9246 -3.4600  0.1531
  973MOL0     H31312  -0.058   5.468  -0.072  0.2277  1.2875 -1.6696
  973MOL0     H31313  -0.333   5.341  -0.077 -1.1326  3.5754 -1.6168
  973MOL0     H31314  -0.285   5.500  -0.082 -0.5648 -0.3605 -1.3758
  973MOL0     H31315  -0.417   5.201   0.070 -0.7822 -0.4878 -0.3053
  973MOL0     H31316  -0.625   5.160   0.220 -0.7605 -0.0030  0.3908
  973MOL0     H31317  -0.944   5.292   0.538 -0.7853  0.2241  0.8354
  973MOL0     H31318  -1.086   5.193   0.732 -0.0538  0.5918 -0.4585
  973MOL0     H31319  -1.180   5.089   0.927  1.7612  0.7482 -0.0444
  973MOL0     H31320  -1.153   4.937   1.019  2.1661  0.0410  1.5011
  973MOL0     H31321  -0.925   4.995   1.075  0.4982 -0.1199  0.4851
  973MOL0     H31322  -0.936   5.144   0.994  1.5238 -0.2864  1.4961
  973MOL0     H31323  -1.106   5.037   1.224 -1.9964  1.2476  0.5390
  973MOL0     H31324  -0.972   5.167   1.226 -0.3858  4.2223 -3.3952
  973MOL0     H31325  -1.219   5.223   1.256 -0.3177 -1.3570 -0.4921
  973MOL0     H31326  -1.222   5.239   1.076 -1.6130  2.6989  1.2500
  973MOL0     H31327  -1.152   5.458   1.151  3.3822  2.0961  0.3991
  973MOL0     H31328  -0.999   5.404   1.125  0.0889  0.7961 -1.2485
  973MOL0     H31329  -1.146   5.454   1.377 -0.8697  0.5497 -1.9007
  973MOL0     H31330  -1.047   5.304   1.376 -1.5199 -0.5096 -0.7673
  973MOL0     H31331  -0.977   5.596   1.331  1.8234 -0.9775 -3.1303
  973MOL0     H31332  -0.865   5.465   1.285  1.4310  0.0768  0.3501
  973MOL0     H31333  -0.797   5.557   1.502  1.5878 -1.2069  2.0540
  973MOL0     H31334  -0.948   5.491   1.570  1.3362 -1.9558  0.4018
  973MOL0     H31335  -0.820   4.854   0.719  0.0221  1.0651  1.8947
  973MOL0     H31336  -0.691   4.952   0.546  1.7405  2.3104  2.2086
  973MOL0     H31337  -0.467   5.465   0.484 -0.7865 -2.0604  1.2002
  973MOL0     H31338  -0.311   5.528   0.331  1.1681  0.4580 -1.9269
  973MOL0     H31339   0.904   4.714   0.765 -0.5869 -0.3533 -1.1103
  973MOL0     H31340   1.106   4.744   0.879 -3.2514  0.3403 -0.3440
  973MOL0     H31341   1.439   4.454   1.094 -0.4032  0.5185 -0.9871
  973MOL0     H31342   1.669   4.413   1.186 -0.9509  0.4526  0.1633
  973MOL0     H31343   1.920   4.355   1.129 -1.0653  1.8534 -3.1447
  973MOL0     H31344   1.885   4.430   1.276 -1.4673  0.2825 -0.3060
  973MOL0     H31345   2.161   4.454   1.148 -0.0307 -0.3752 -0.1836
  973MOL0     H31346   2.120   4.362   1.271  0.4786  0.2855 -1.4304
  973MOL0     H31347   2.081   4.555   1.425 -0.8984  0.2841  0.1540
  973MOL0     H31348   2.045   4.657   1.285  0.4882  0.0218 -0.1910
  973MOL0     H31349   2.283   4.674   1.234 -1.7122 -0.7971 -2.0202
  973MOL0     H31350   2.273   4.696   1.405 -0.5746 -1.1936  1.0494
  973MOL0     H31351   2.498   4.335   1.366 -1.1496 -0.9702  2.0005
  973MOL0     H31352   1.824   4.693   0.906  0.2819 -1.1131  0.5506
  973MOL0     H31353   1.718   4.852   0.819 -0.8884  1.2808 -2.9628
  973MOL0     H31354   1.595   4.781   0.728  0.2989  1.7297 -1.8647
  973MOL0     H31355   1.553   4.885   0.870  2.2387  0.4249  1.0780
  974MOL0     O31356   2.006  10.838   6.019  0.5694 -0.9680 -0.4486
  974MOL0     C31357   2.003  10.875   6.143  0.1993 -0.6617  0.9353
  974MOL0     O31358   2.017  11.009   6.186 -0.0110 -0.0677 -0.3368
  974MOL0     C31359   1.997  11.107   6.087 -0.1651  0.4876  0.1957
  974MOL0     C31360   1.898  11.098   5.983 -0.6352  0.1544  0.2246
  974MOL0     C31361   1.884  11.202   5.887 -0.5298  0.4161  0.7318
  974MOL0     C31362   1.984  11.295   5.875  0.1145 -0.6544 -0.1366
  974MOL0     O31363   1.968  11.386   5.760  0.3712  0.8072 -0.0776
  974MOL0     C31364   2.084  11.440   5.702 -0.4380 -0.3135 -0.7516
  974MOL0     C31365   2.047  11.526   5.579 -1.6110 -0.5020  0.4146
  974MOL0     C31366   2.011  11.439   5.456  0.3567 -0.6081  0.1500
  974MOL0     C31367   2.035  11.518   5.319 -0.2208  1.0659 -0.7015
  974MOL0     C31368   1.917  11.592   5.283 -0.3699  1.0384  0.5351
  974MOL0     C31369   1.958  11.707   5.189  0.4102 -0.5937 -0.4713
  974MOL0     C31370   2.010  11.661   5.051 -0.5308 -0.1335  0.2327
  974MOL0     C31371   2.057  11.781   4.973  0.0288 -0.0151 -0.4914
  974MOL0     N31372   2.184  11.838   5.034 -0.1102 -0.8215  0.1887
  974MOL0     C31373   2.311  11.782   5.029  0.4694  0.2919 -0.8646
  974MOL0     C31374   2.397  11.870   5.083 -0.3556 -0.5690  0.3046
  974MOL0     C31375   2.555  11.835   5.097  0.3160 -0.1168 -0.1098
  974MOL0     C31376   2.596  11.788   5.241 -0.1868 -0.2232  0.1915
  974MOL0     C31377   2.750  11.790   5.236  0.5029  0.7664 -0.8036
  974MOL0     C31378   2.816  11.824   5.377  0.6076  0.4606  0.2137
  974MOL0     O31379   2.954  11.789   5.356 -0.2461  0.3734 -0.6915
  974MOL0     C31380   3.043  11.842   5.446 -0.3437 -1.3516 -0.4706
  974MOL0     C31381   3.015  11.882   5.576 -0.4494  0.5609  0.0413
  974MOL0     C31382   3.110  11.948   5.655  0.6882  0.3351 -0.0893
  974MOL0     C31383   3.248  11.954   5.617  0.5662 -0.5775  0.4266
  974MOL0     C31384   3.355  12.029   5.688  0.4351 -0.2261 -0.3139
  974MOL0     O31385   3.478  12.028   5.640 -0.7817  0.1449  1.0465
  974MOL0     C31386   3.582  12.059   5.717  0.2076  0.0880 -0.6068
  974MOL0     C31387   3.590  12.008   5.848  0.3131 -0.2810  0.1731
  974MOL0     C31388   3.683  12.061   5.933 -0.3747 -0.5788  0.5899
  974MOL0     C31389   3.775  12.164   5.900  0.4146  0.2865 -0.2935
  974MOL0     O31390   3.873  12.212   5.987  0.1769  0.8212  0.1566
  974MOL0     C31391   3.993  12.137   5.999  0.3883  0.1115 -1.9853
  974MOL0     C31392   4.007  12.076   6.138  0.1130 -0.4241  0.4327
  974MOL0     C31393   4.025  12.182   6.250  0.1940  0.7702  0.3853
  974MOL0     C31394   4.063  12.130   6.395 -0.4642 -0.2092 -0.5592
  974MOL0     C31395   4.069  12.249   6.494  0.5969 -1.4660 -0.5115
  974MOL0     C31396   4.031  12.204   6.638  0.5028  0.3064 -1.2321
  974MOL0     C31397   4.062  12.307   6.757  0.5930 -0.3110  0.2131
  974MOL0     C31398   4.206  12.289   6.802  0.3479 -1.1265  0.4726
  974MOL0    Cl31399   4.305  12.377   6.675 -0.1027  0.1494 -0.5171
  974MOL0     C31400   3.769  12.211   5.772  0.0336  0.4514  0.3927
  974MOL0     C31401   3.676  12.152   5.679 -0.6802  0.4166  0.3848
  974MOL0     O31402   3.314  12.068   5.794 -0.2260 -0.0427  0.3038
  974MOL0     C31403   3.276  11.883   5.494 -0.0747  0.1433  1.1031
  974MOL0     C31404   3.173  11.843   5.407 -0.4174 -1.3174  1.0771
  974MOL0     N31405   2.314  11.977   5.122 -0.0908  0.0297  0.2147
  974MOL0     N31406   2.187  11.966   5.092 -0.1030 -0.4362  0.2867
  974MOL0     C31407   2.084  11.305   5.971  0.5769 -0.0633  0.3903
  974MOL0     C31408   2.096  11.213   6.079  0.3259 -0.0419  0.1385
  974MOL0     C31409   2.008  10.759   6.238 -0.3866  0.3831  0.9584
  974MOL0     C31410   2.121  10.684   6.240  0.3389 -0.1273 -0.2748
  974MOL0     C31411   2.141  10.567   6.313 -0.3865 -0.2411  0.3633
  974MOL0     C31412   2.030  10.524   6.388 -0.7270 -0.3744  0.9090
  974MOL0     O31413   2.045  10.413   6.462 -0.9510 -0.3136 -0.1858
  974MOL0     C31414   2.175  10.352   6.486 -0.3474  0.1218  0.6131
  974MOL0     C31415   2.154  10.219   6.550 -0.1576 -0.0338 -0.2520
  974MOL0     C31416   2.084  10.236   6.688 -0.0754  0.0487 -0.0931
  974MOL0     C31417   2.044  10.106   6.749  1.5291  0.4478  0.3565
  974MOL0     C31418   2.150  10.008   6.797 -0.3651  0.3931  0.1720
  974MOL0     C31419   2.228   9.933   6.852  0.2706 -0.4187  0.0745
  974MOL0     C31420   1.914  10.596   6.391  0.4667 -0.3012  0.2323
  974MOL0     C31421   1.904  10.717   6.322 -1.6690 -0.0787  0.0388
  974MOL0     C31422   1.786  10.803   6.341  0.4838 -0.3399  0.2811
  974MOL0     H31423   1.817  11.027   5.990 -2.4167  2.1972  1.8526
  974MOL0     H31424   1.806  11.203   5.811 -1.1719 -2.1988  1.2733
  974MOL0     H31425   2.132  11.506   5.774  1.4607 -0.0576 -2.1943
  974MOL0     H31426   2.154  11.363   5.669  0.5769  0.0212  0.5440
  974MOL0     H31427   2.140  11.582   5.572 -1.6926 -0.1391  1.9163
  974MOL0     H31428   1.972  11.601   5.606  2.0105  1.8664  5.2525
  974MOL0     H31429   1.904  11.416   5.466  0.3668 -0.5180  0.4765
  974MOL0     H31430   2.065  11.344   5.465 -0.7303 -1.1679  1.0578
  974MOL0     H31431   2.126  11.577   5.337  1.4099 -1.7487  1.2498
  974MOL0     H31432   2.058  11.441   5.245 -2.4432  0.5539 -0.9149
  974MOL0     H31433   1.843  11.527   5.236 -1.2730  2.1962  0.2799
  974MOL0     H31434   1.856  11.628   5.366 -0.2601 -0.0380  1.0886
  974MOL0     H31435   1.865  11.763   5.171  0.9367 -0.1789 -2.0245
  974MOL0     H31436   2.035  11.768   5.237  2.2215 -1.9035 -1.6282
  974MOL0     H31437   1.927  11.617   4.995  0.1505 -1.4529  0.2065
  974MOL0     H31438   2.091  11.588   5.056 -0.1887  0.0730 -1.6865
  974MOL0     H31439   2.098  11.768   4.873  2.0456  2.1311 -0.0273
  974MOL0     H31440   1.981  11.857   4.955  2.7269  2.5374 -2.1252
  974MOL0     H31441   2.343  11.686   4.990 -0.1279 -1.0872  1.8296
  974MOL0     H31442   2.579  11.752   5.029 -1.9771 -0.0636 -1.0524
  974MOL0     H31443   2.609  11.924   5.064 -1.1853  0.2483 -1.7102
  974MOL0     H31444   2.563  11.866   5.309 -1.0769  2.1281 -2.7159
  974MOL0     H31445   2.561  11.689   5.272  0.5561  0.4415  3.4180
  974MOL0     H31446   2.796  11.855   5.162 -1.6344  3.8211  0.3665
  974MOL0     H31447   2.778  11.686   5.218 -1.5296 -0.0722  0.5015
  974MOL0     H31448   2.760  11.767   5.452  1.6053 -3.9059 -2.0480
  974MOL0     H31449   2.804  11.932   5.391 -1.2642  0.4863 -1.1726
  974MOL0     H31450   2.915  11.863   5.615 -1.2934 -1.5039 -2.7859
  974MOL0     H31451   3.076  11.998   5.746 -0.4327 -3.0917  1.5351
  974MOL0     H31452   3.510  11.956   5.899 -2.4822  2.0759 -1.4414
  974MOL0     H31453   3.677  12.020   6.033  1.4727  1.2620  1.5367
  974MOL0     H31454   3.984  12.041   5.947  2.5341 -2.5257  1.9755
  974MOL0     H31455   4.084  12.188   5.968  0.9489 -0.8718 -1.9903
  974MOL0     H31456   3.925  12.004   6.151  1.2245 -1.8436 -0.1749
  974MOL0     H31457   4.106  12.030   6.135  0.9699  1.3740 -1.7773
  974MOL0     H31458   4.093  12.266   6.231 -0.8071  2.6628  4.1176
  974MOL0     H31459   3.931  12.237   6.247 -1.1656 -1.4243  0.2038
  974MOL0     H31460   4.160  12.081   6.395 -0.2980  0.0732  0.9006
  974MOL0     H31461   3.995  12.057   6.440 -0.7407 -0.3363 -1.1644
  974MOL0     H31462   3.991  12.323   6.472 -2.2718 -4.3194 -0.6808
  974MOL0     H31463   4.165  12.300   6.482 -0.9557  2.1202  0.8362
  974MOL0     H31464   3.930  12.163   6.635  0.7375 -0.3049 -0.9299
  974MOL0     H31465   4.085  12.112   6.665  1.1652 -0.1677 -3.8816
  974MOL0     H31466   4.010  12.270   6.847  2.7779  0.6127  1.9512
  974MOL0     H31467   4.025  12.405   6.728 -1.5683 -0.3110  2.5863
  974MOL0     H31468   4.223  12.331   6.901 -1.1809  0.6639  0.0314
  974MOL0     H31469   4.248  12.188   6.810 -0.2485 -1.4135  0.1384
  974MOL0     H31470   3.855  12.264   5.732 -1.2988  1.4895 -1.2287
  974MOL0     H31471   3.673  12.176   5.573 -0.1367 -0.9134  0.0409
  974MOL0     H31472   3.376  11.872   5.454 -0.8866  0.8023 -1.2620
  974MOL0     H31473   3.194  11.812   5.305  1.2751 -0.3421  1.0825
  974MOL0     H31474   2.168  11.374   5.968  2.6337 -2.4137 -0.3130
  974MOL0     H31475   2.180  11.223   6.147 -1.5779 -0.0641  2.6592
  974MOL0     H31476   2.209  10.713   6.184  0.6738 -0.0099  0.3016
  974MOL0     H31477   2.238  10.520   6.304 -1.0431 -1.2886 -1.5783
  974MOL0     H31478   2.242  10.424   6.533 -1.5101  1.9379 -0.3767
  974MOL0     H31479   2.230  10.324   6.395  1.5231  1.6429  1.2047
  974MOL0     H31480   2.250  10.176   6.583 -1.6767 -2.4160  1.4499
  974MOL0     H31481   2.099  10.154   6.481 -1.1424 -0.6507  1.0646
  974MOL0     H31482   1.999  10.297   6.658  1.0256 -0.1898 -4.2235
  974MOL0     H31483   2.152  10.292   6.753 -2.0131  3.2364 -0.6261
  974MOL0     H31484   1.975  10.125   6.832 -0.7299 -0.7905 -1.1420
  974MOL0     H31485   1.979  10.067   6.670  2.7651  0.4834 -0.7044
  974MOL0     H31486   2.281   9.856   6.904  0.4421  0.9724  2.0923
  974MOL0     H31487   1.837  10.565   6.460  1.5399  0.8022  2.0154
  974MOL0     H31488   1.794  10.863   6.432  1.9112  1.9652 -1.2493
  974MOL0     H31489   1.778  10.862   6.249 -0.0922  1.2798  1.3308
  974MOL0     H31490   1.698  10.743   6.366 -0.4237 -0.0135 -1.9250
  975MOL0     O31491   4.888   1.578  10.730 -0.3142  0.0382  0.2074
  975MOL0     C31492   4.871   1.517  10.627  0.4868 -0.1284 -0.0656
  975MOL0     O31493   4.790   1.557  10.517 -0.3800  0.6140 -0.6199
  975MOL0     C31494   4.783   1.690  10.515  0.2779 -0.6794  0.0792
  975MOL0     C31495   4.890   1.762  10.475 -0.3141 -0.0492  0.3699
  975MOL0     C31496   4.896   1.906  10.481  0.4412  0.9569  0.4069
  975MOL0     C31497   4.778   1.976  10.530  0.2791 -0.0690  0.2748
  975MOL0     O31498   4.787   2.117  10.542 -0.0203  0.3340  0.6793
  975MOL0     C31499   4.896   2.188  10.486  0.4057  0.1485 -0.7974
  975MOL0     C31500   4.889   2.339  10.507 -0.2562 -0.0372  0.6200
  975MOL0     C31501   4.914   2.379  10.652  0.3729  0.4113  0.3031
  975MOL0     C31502   4.847   2.508  10.705  0.3237 -0.1728 -0.1360
  975MOL0     C31503   4.884   2.549  10.856  0.5943  0.7088  0.7614
  975MOL0     C31504   4.804   2.467  10.957  0.5410  0.1693 -0.0519
  975MOL0     C31505   4.835   2.516  11.101 -0.4075 -0.0897 -0.2017
  975MOL0     C31506   4.756   2.448  11.216 -0.7786 -0.1269 -0.1212
  975MOL0     N31507   4.610   2.493  11.216  1.0884  0.7598 -0.4351
  975MOL0     C31508   4.570   2.618  11.198 -0.2604 -1.1519  1.0566
  975MOL0     C31509   4.436   2.622  11.219 -0.1200 -0.0701 -0.8761
  975MOL0     C31510   4.342   2.744  11.186 -0.2609 -0.9721  0.5195
  975MOL0     C31511   4.283   2.714  11.038  0.3196 -0.7716 -0.9824
  975MOL0     C31512   4.194   2.825  10.993  0.4541 -0.0776 -0.2640
  975MOL0     C31513   4.263   2.929  10.898 -0.1010 -0.5104  0.2865
  975MOL0     O31514   4.363   3.003  10.976  0.4034 -0.0464  0.0026
  975MOL0     C31515   4.446   3.082  10.913  0.7353  1.0152  0.1661
  975MOL0     C31516   4.583   3.045  10.914  0.1517  0.1304  0.7350
  975MOL0     C31517   4.671   3.139  10.849 -0.0335  0.5430 -0.1657
  975MOL0     C31518   4.631   3.250  10.771  0.6355 -0.7691 -0.5277
  975MOL0     C31519   4.720   3.335  10.682 -0.2851  0.1812 -0.0044
  975MOL0     O31520   4.850   3.286  10.667  0.5043  0.3412 -0.0365
  975MOL0     C31521   4.930   3.376  10.597  0.2752  0.7377 -0.6086
  975MOL0     C31522   4.930   3.390  10.462 -0.7445  1.1192  0.4480
  975MOL0     C31523   5.021   3.468  10.390  1.2712  0.1701  0.0464
  975MOL0     C31524   5.125   3.534  10.454  0.0829  0.5417 -0.2033
  975MOL0     O31525   5.217   3.613  10.386  0.6641  0.4035  0.4126
  975MOL0     C31526   5.166   3.705  10.296 -0.1490 -0.1730  0.8806
  975MOL0     C31527   5.102   3.822  10.370  0.3390  0.0999 -0.2068
  975MOL0     C31528   5.224   3.890  10.434 -0.8152 -0.2331  0.6740
  975MOL0     C31529   5.175   4.024  10.497 -0.9348  0.3003  0.3492
  975MOL0     C31530   5.131   3.995  10.638 -0.2949 -0.0496  0.4281
  975MOL0     C31531   5.103   4.133  10.701 -0.8960 -0.7675  0.6684
  975MOL0     C31532   5.053   4.153  10.848 -0.6743 -0.1939  0.0152
  975MOL0     C31533   5.146   4.091  10.946  0.4797 -0.0148  0.2196
  975MOL0    Cl31534   5.293   4.188  10.973 -0.1970  0.1129  0.3232
  975MOL0     C31535   5.136   3.519  10.590  0.3302  0.8987 -0.7761
  975MOL0     C31536   5.044   3.433  10.658  0.5114  0.4065 -0.5211
  975MOL0     O31537   4.677   3.446  10.639 -0.4067  0.2124  0.6047
  975MOL0     C31538   4.496   3.276  10.770  0.2432  0.5427  0.0392
  975MOL0     C31539   4.403   3.197  10.843 -0.6607 -0.1214 -0.8233
  975MOL0     N31540   4.397   2.492  11.236  0.8668  0.2435 -0.4069
  975MOL0     N31541   4.500   2.415  11.232  0.1207 -0.2757 -0.2615
  975MOL0     C31542   4.668   1.901  10.572  0.1549  0.1407  0.3047
  975MOL0     C31543   4.671   1.758  10.558 -0.2226  1.6807 -0.0230
  975MOL0     C31544   4.935   1.381  10.621  0.3059 -0.2653 -0.5077
  975MOL0     C31545   4.930   1.317  10.503 -0.2074  0.0133 -0.0312
  975MOL0     C31546   4.978   1.181  10.497 -0.0662 -0.6998  0.2958
  975MOL0     C31547   5.024   1.108  10.606 -0.6315  0.2754  1.3512
  975MOL0     O31548   5.071   0.978  10.610 -0.3548  0.7412  0.8929
  975MOL0     C31549   5.022   0.887  10.512 -0.8314 -0.1272 -0.4609
  975MOL0     C31550   5.020   0.746  10.565 -0.5345  0.2075 -0.3431
  975MOL0     C31551   4.939   0.727  10.686 -0.8272 -0.0480 -0.6774
  975MOL0     C31552   4.965   0.605  10.783  0.2736  0.0618  0.5839
  975MOL0     C31553   4.966   0.484  10.693 -1.3119  0.4513 -0.2051
  975MOL0     C31554   4.957   0.379  10.635  0.5285  0.0117  0.0214
  975MOL0     C31555   5.030   1.181  10.724  0.0209  0.3195 -0.0893
  975MOL0     C31556   4.986   1.308  10.744  0.7215 -0.1823  0.0555
  975MOL0     C31557   4.984   1.360  10.885 -0.5022 -0.1873 -0.6842
  975MOL0     H31558   4.976   1.700  10.452 -1.8770 -2.6405  1.0108
  975MOL0     H31559   4.991   1.952  10.454 -1.0760  3.0561 -1.7117
  975MOL0     H31560   4.977   2.148  10.548  0.3331  0.5812 -0.4179
  975MOL0     H31561   4.905   2.148  10.385 -2.3562 -2.7464 -0.0761
  975MOL0     H31562   4.806   2.397  10.466 -0.3539 -1.4508 -1.3375
  975MOL0     H31563   4.985   2.376  10.468 -0.8130  0.8939  0.0839
  975MOL0     H31564   5.021   2.369  10.673  0.1802 -1.4079  0.6210
  975MOL0     H31565   4.864   2.302  10.712 -2.5090 -0.6890 -3.1232
  975MOL0     H31566   4.869   2.593  10.639 -3.3574 -0.7676 -2.4279
  975MOL0     H31567   4.741   2.488  10.689 -0.2224  1.6636  0.8437
  975MOL0     H31568   4.991   2.533  10.873  0.9011  1.3830 -0.4618
  975MOL0     H31569   4.850   2.653  10.867 -1.6924 -0.0855  2.0556
  975MOL0     H31570   4.700   2.479  10.928  0.4607  0.5064  0.3724
  975MOL0     H31571   4.842   2.364  10.955 -1.4002 -0.6258  1.3866
  975MOL0     H31572   4.812   2.622  11.118  2.2202  0.5843 -0.4544
  975MOL0     H31573   4.941   2.508  11.125 -0.0688  2.3185 -0.5638
  975MOL0     H31574   4.778   2.341  11.229 -0.6830 -0.0646  0.2464
  975MOL0     H31575   4.799   2.503  11.300  0.2124  0.6840 -1.1365
  975MOL0     H31576   4.633   2.706  11.186 -0.1991 -1.0040  2.3243
  975MOL0     H31577   4.274   2.756  11.272 -0.8334 -2.8969  0.3826
  975MOL0     H31578   4.401   2.834  11.166  0.7220 -2.1092 -2.1263
  975MOL0     H31579   4.371   2.696  10.976  0.5355 -1.4096 -0.5020
  975MOL0     H31580   4.229   2.620  11.051 -1.0423  0.2192  1.0383
  975MOL0     H31581   4.160   2.875  11.084 -2.4934  0.7371 -1.6677
  975MOL0     H31582   4.100   2.792  10.947  0.3776  0.5754 -0.5851
  975MOL0     H31583   4.197   3.008  10.859  0.6795 -0.0587 -0.1489
  975MOL0     H31584   4.318   2.881  10.817  2.8419  1.9235  0.6526
  975MOL0     H31585   4.604   2.950  10.962  2.7694  0.7647  1.0182
  975MOL0     H31586   4.778   3.120  10.843  0.1056 -0.8221  3.9587
  975MOL0     H31587   4.853   3.329  10.415  1.5915 -1.5898 -0.1251
  975MOL0     H31588   5.023   3.462  10.282  3.2951  0.1462  0.0438
  975MOL0     H31589   5.251   3.748  10.243  0.5049 -3.3666 -0.9245
  975MOL0     H31590   5.097   3.669  10.220 -2.3752  1.8408  1.8093
  975MOL0     H31591   5.049   3.878  10.292  1.2992  0.9808 -0.2491
  975MOL0     H31592   5.035   3.793  10.451  1.2976  1.5519  1.1536
  975MOL0     H31593   5.258   3.832  10.520  1.4583 -0.0123  0.0146
  975MOL0     H31594   5.314   3.912  10.375 -0.2397 -1.7797  0.9252
  975MOL0     H31595   5.096   4.063  10.433  1.5176 -0.0402 -3.1981
  975MOL0     H31596   5.257   4.096  10.497 -0.9567  0.3268 -0.3367
  975MOL0     H31597   5.208   3.941  10.695  1.8530  0.6348 -1.6450
  975MOL0     H31598   5.036   3.941  10.631 -0.2715 -0.0454  0.0696
  975MOL0     H31599   5.199   4.186  10.700 -1.5140  0.5449 -2.6013
  975MOL0     H31600   5.027   4.179  10.638 -1.0115 -0.5743  0.9447
  975MOL0     H31601   4.951   4.115  10.853 -0.2871 -1.2682 -0.0700
  975MOL0     H31602   5.060   4.261  10.863 -0.4096 -0.4426  1.8624
  975MOL0     H31603   5.086   4.079  11.037 -1.6351 -2.5907 -1.3784
  975MOL0     H31604   5.168   3.987  10.920  1.9015  0.4861 -0.6927
  975MOL0     H31605   5.219   3.567  10.640  0.1525  0.0009  0.4085
  975MOL0     H31606   5.044   3.417  10.765  3.9880 -0.3247 -0.5220
  975MOL0     H31607   4.460   3.355  10.704  2.9294  1.6061 -0.2596
  975MOL0     H31608   4.296   3.213  10.859 -0.1863  1.3618  1.2497
  975MOL0     H31609   4.584   1.956  10.612  0.3144 -0.8229  2.0289
  975MOL0     H31610   4.583   1.704  10.590  0.6891  1.6889  2.8301
  975MOL0     H31611   4.884   1.365  10.417 -1.4105 -2.4091 -0.8495
  975MOL0     H31612   4.961   1.129  10.403 -0.3527  0.7237 -0.4684
  975MOL0     H31613   5.101   0.888  10.436  0.0657  0.9322  0.4415
  975MOL0     H31614   4.924   0.920  10.477 -0.7275  0.6276 -0.0611
  975MOL0     H31615   5.122   0.714  10.585 -0.9148  0.5752  2.6212
  975MOL0     H31616   4.980   0.684  10.484 -1.1137  0.0749  0.0329
  975MOL0     H31617   4.835   0.714  10.654 -1.6116  4.3757 -0.4713
  975MOL0     H31618   4.945   0.817  10.747 -0.8880 -0.9484  0.7112
  975MOL0     H31619   5.064   0.610  10.830  0.8388 -1.2529 -0.4055
  975MOL0     H31620   4.890   0.583  10.859  0.6745 -2.5179  0.3534
  975MOL0     H31621   4.969   0.288  10.580  3.6502 -0.2093  0.8533
  975MOL0     H31622   5.066   1.115  10.803  2.9477  3.2797  1.2692
  975MOL0     H31623   5.027   1.291  10.958 -2.1168  2.3390  3.0019
  975MOL0     H31624   5.062   1.436  10.889 -2.1969  1.6091  0.9892
  975MOL0     H31625   4.888   1.396  10.923 -0.0561 -2.3980  3.0361
  976MOL0     O31626   8.906   2.484   5.314 -0.1547  0.6899  0.7159
  976MOL0     C31627   9.010   2.525   5.278 -0.3481 -0.1659 -0.1219
  976MOL0     O31628   9.038   2.657   5.261 -0.2477  0.8510 -1.1985
  976MOL0     C31629   8.929   2.740   5.259  0.0676 -0.1685 -0.5194
  976MOL0     C31630   8.874   2.780   5.142 -0.1115  0.1042 -0.9103
  976MOL0     C31631   8.777   2.882   5.137  0.0785  1.2128 -0.6611
  976MOL0     C31632   8.708   2.923   5.251  0.3580  0.7434  0.6582
  976MOL0     O31633   8.604   3.009   5.224  0.1918  0.6818  0.4372
  976MOL0     C31634   8.487   3.001   5.308 -0.5392 -0.0069 -0.1408
  976MOL0     C31635   8.498   3.104   5.424  1.1598 -0.3045 -0.8232
  976MOL0     C31636   8.509   3.247   5.385 -0.2221 -0.1516  0.2905
  976MOL0     C31637   8.454   3.342   5.494 -0.4963  0.1057 -0.5322
  976MOL0     C31638   8.499   3.483   5.478  1.0774  0.9121 -0.0943
  976MOL0     C31639   8.411   3.584   5.558 -0.5090 -0.0378  0.3507
  976MOL0     C31640   8.376   3.559   5.709  0.2295 -0.0137  0.0979
  976MOL0     C31641   8.497   3.622   5.791 -0.0269  0.1081 -0.8120
  976MOL0     N31642   8.482   3.587   5.937 -0.5257 -0.2429  0.5591
  976MOL0     C31643   8.545   3.475   5.989 -0.1208  0.1276 -0.0875
  976MOL0     C31644   8.529   3.493   6.118 -0.7436 -0.3496  0.1571
  976MOL0     C31645   8.581   3.390   6.216  0.5433 -0.8580  0.7487
  976MOL0     C31646   8.487   3.279   6.236  0.7198 -0.0623  0.1369
  976MOL0     C31647   8.340   3.309   6.267 -0.4813  0.5254  0.4744
  976MOL0     C31648   8.247   3.188   6.269  0.3758 -0.2101  0.5496
  976MOL0     O31649   8.247   3.118   6.140 -0.5488 -0.1483  1.0175
  976MOL0     C31650   8.204   3.173   6.023 -0.9147 -0.9884 -0.1325
  976MOL0     C31651   8.126   3.295   6.003  0.5431  0.6680 -0.9778
  976MOL0     C31652   8.080   3.338   5.879 -0.1845 -0.1472  0.7433
  976MOL0     C31653   8.111   3.262   5.768 -0.1932  0.3624  0.4002
  976MOL0     C31654   8.068   3.302   5.623  0.1026 -0.5426  0.0523
  976MOL0     O31655   8.003   3.425   5.610 -0.5783  0.5215  1.0017
  976MOL0     C31656   7.945   3.459   5.489  0.1763 -0.7203  0.1111
  976MOL0     C31657   8.022   3.512   5.389 -0.2047  0.2035 -1.1425
  976MOL0     C31658   7.970   3.567   5.269  0.2945  0.6475 -0.8123
  976MOL0     C31659   7.833   3.588   5.253 -0.9742  0.1993  0.0454
  976MOL0     O31660   7.788   3.647   5.137  0.0778  0.0456 -0.3665
  976MOL0     C31661   7.643   3.632   5.100 -0.0964  0.1291  0.6538
  976MOL0     C31662   7.615   3.730   4.994  0.5958 -1.1327 -0.1566
  976MOL0     C31663   7.666   3.691   4.859 -0.1213  0.3045  0.4465
  976MOL0     C31664   7.655   3.820   4.769  0.6941  0.8227  0.2663
  976MOL0     C31665   7.685   3.766   4.620  0.1605 -0.6511 -0.4209
  976MOL0     C31666   7.562   3.778   4.532 -0.1027  1.0544  0.4356
  976MOL0     C31667   7.553   3.662   4.429 -0.7718 -0.0030 -0.7226
  976MOL0     C31668   7.436   3.678   4.337  0.9413 -0.3995  0.5172
  976MOL0    Cl31669   7.275   3.680   4.410 -0.2581  0.2484 -0.0532
  976MOL0     C31670   7.756   3.536   5.362 -0.4569 -0.5384  1.1580
  976MOL0     C31671   7.811   3.467   5.466 -0.0115  0.6048 -0.5272
  976MOL0     O31672   8.100   3.226   5.532  0.8033 -0.8315  0.0070
  976MOL0     C31673   8.184   3.142   5.782 -0.2075  0.6092 -0.1899
  976MOL0     C31674   8.227   3.100   5.907  0.5546  1.5416  0.7401
  976MOL0     N31675   8.450   3.599   6.144  0.4891 -0.7018  0.7104
  976MOL0     N31676   8.419   3.654   6.036  0.1864 -0.7518 -0.7095
  976MOL0     C31677   8.751   2.872   5.368  0.2738  0.6269 -0.4554
  976MOL0     C31678   8.862   2.783   5.374  0.2501  0.4318 -0.5702
  976MOL0     C31679   9.117   2.424   5.286  0.0354  0.4981 -0.7277
  976MOL0     C31680   9.080   2.285   5.300  0.7811  0.1561 -1.1181
  976MOL0     C31681   9.171   2.187   5.288 -0.2286  0.1685 -0.5963
  976MOL0     C31682   9.308   2.222   5.278 -0.2480  0.2436 -0.7628
  976MOL0     O31683   9.401   2.110   5.289  0.9302  0.1813  1.1210
  976MOL0     C31684   9.429   2.054   5.158  0.8545 -0.5476  0.0951
  976MOL0     C31685   9.481   1.915   5.175 -0.1379  1.6040 -0.2007
  976MOL0     C31686   9.380   1.804   5.229 -0.8467  0.4929  0.3316
  976MOL0     C31687   9.418   1.658   5.207  0.9751  0.2704  0.8957
  976MOL0     C31688   9.558   1.638   5.245  0.6678 -0.0236  0.0333
  976MOL0     C31689   9.672   1.606   5.289 -0.1364  0.4654  0.1838
  976MOL0     C31690   9.343   2.351   5.277 -1.1131 -0.1952 -0.7151
  976MOL0     C31691   9.252   2.457   5.281  1.0787  0.1975 -0.2627
  976MOL0     C31692   9.307   2.593   5.283 -0.5951  0.2915 -0.0791
  976MOL0     H31693   8.930   2.731   5.063  1.5411  1.6227 -0.7659
  976MOL0     H31694   8.748   2.917   5.039  1.6033  0.1956 -1.5225
  976MOL0     H31695   8.402   3.005   5.238  0.0151 -1.8726 -0.9800
  976MOL0     H31696   8.472   2.905   5.358 -0.7133  1.3020  2.4614
  976MOL0     H31697   8.575   3.073   5.496 -2.8760 -0.5391  3.8584
  976MOL0     H31698   8.404   3.081   5.474  0.8987  3.3937  0.6549
  976MOL0     H31699   8.445   3.275   5.301  1.0043  0.6655 -0.3936
  976MOL0     H31700   8.613   3.274   5.364 -1.3999  2.9349 -2.4275
  976MOL0     H31701   8.345   3.339   5.489 -0.4902 -1.7944  0.0351
  976MOL0     H31702   8.498   3.309   5.589  0.3234  0.9309 -0.5989
  976MOL0     H31703   8.597   3.491   5.526  0.5062  1.2527  1.0489
  976MOL0     H31704   8.505   3.505   5.371 -1.1568  0.0846 -0.4322
  976MOL0     H31705   8.444   3.686   5.537 -3.8693  1.1135  0.0288
  976MOL0     H31706   8.314   3.577   5.506  0.0079 -1.0860 -0.5120
  976MOL0     H31707   8.365   3.452   5.730  0.5749 -0.0920 -0.1081
  976MOL0     H31708   8.287   3.618   5.732  1.7475  2.5475 -0.2122
  976MOL0     H31709   8.597   3.590   5.760  0.1670  1.7074 -1.9638
  976MOL0     H31710   8.494   3.731   5.778 -2.6519  0.2204  0.1465
  976MOL0     H31711   8.592   3.398   5.928 -1.2693  2.6290 -4.5632
  976MOL0     H31712   8.673   3.338   6.188 -1.9017 -4.6736 -1.1694
  976MOL0     H31713   8.602   3.440   6.311  2.2512 -2.5176  1.3081
  976MOL0     H31714   8.491   3.219   6.145  1.6673 -1.9678  1.3788
  976MOL0     H31715   8.521   3.227   6.326 -1.2526  2.9809  2.8902
  976MOL0     H31716   8.296   3.386   6.204  0.4601 -0.2845 -1.2626
  976MOL0     H31717   8.343   3.361   6.363 -3.2523 -1.0963  1.5385
  976MOL0     H31718   8.150   3.227   6.301  0.8770  1.2566  0.3668
  976MOL0     H31719   8.285   3.124   6.349  3.8516  2.4199  1.2680
  976MOL0     H31720   8.095   3.360   6.084 -4.6072 -1.3417 -0.9676
  976MOL0     H31721   8.012   3.422   5.884 -1.2559 -1.0327  2.0663
  976MOL0     H31722   8.130   3.514   5.400  0.0193 -3.4368 -1.6075
  976MOL0     H31723   8.034   3.613   5.194  1.3219  1.9536  0.7873
  976MOL0     H31724   7.617   3.528   5.081 -1.7320  0.0044  3.0505
  976MOL0     H31725   7.577   3.661   5.183  1.4360  0.0708  1.9487
  976MOL0     H31726   7.507   3.747   4.996  0.6828 -0.4126 -1.1679
  976MOL0     H31727   7.652   3.824   5.037 -0.9989 -0.9423  0.8646
  976MOL0     H31728   7.771   3.663   4.862 -0.0451  0.3765 -0.9688
  976MOL0     H31729   7.607   3.609   4.817  1.4656 -1.1001  0.8380
  976MOL0     H31730   7.721   3.903   4.796 -0.1438  1.6438 -0.1360
  976MOL0     H31731   7.551   3.853   4.776  0.9934  1.4375  3.3516
  976MOL0     H31732   7.726   3.665   4.615 -0.2266 -0.8319 -0.0793
  976MOL0     H31733   7.754   3.842   4.583 -1.5016  1.6794  1.0346
  976MOL0     H31734   7.467   3.775   4.586 -1.0534  0.3249 -1.2106
  976MOL0     H31735   7.564   3.874   4.480 -1.9433  1.2477  0.6690
  976MOL0     H31736   7.529   3.566   4.474  1.0188 -0.4793 -0.7072
  976MOL0     H31737   7.648   3.655   4.374  0.5991 -1.2689  1.6493
  976MOL0     H31738   7.428   3.769   4.275 -1.0543 -1.6113 -1.1262
  976MOL0     H31739   7.437   3.602   4.259 -3.8928  0.4070 -0.6505
  976MOL0     H31740   7.649   3.555   5.363 -0.4932 -0.6879  0.5916
  976MOL0     H31741   7.749   3.435   5.549  3.0994  0.8105  2.0967
  976MOL0     H31742   8.198   3.079   5.695  1.7601 -1.6651  1.6402
  976MOL0     H31743   8.284   3.008   5.907 -0.9501  0.5584  0.2768
  976MOL0     H31744   8.710   2.896   5.466  2.2393  1.5319  0.1949
  976MOL0     H31745   8.884   2.751   5.476 -3.4427  2.3959  1.0508
  976MOL0     H31746   8.973   2.272   5.311  0.7473  1.9681  1.3456
  976MOL0     H31747   9.132   2.087   5.296  0.8428 -0.1772  0.6154
  976MOL0     H31748   9.513   2.112   5.119 -0.6074  2.1431  0.7071
  976MOL0     H31749   9.339   2.059   5.095  1.5204  3.7326 -0.8203
  976MOL0     H31750   9.570   1.915   5.238  0.2496 -0.0767 -0.7116
  976MOL0     H31751   9.517   1.889   5.075  1.9604  2.6410  0.2394
  976MOL0     H31752   9.289   1.821   5.170  0.4169 -0.2857 -1.9338
  976MOL0     H31753   9.362   1.824   5.335  0.2474 -1.8515  1.0159
  976MOL0     H31754   9.352   1.578   5.241  0.0820  0.5728 -0.0607
  976MOL0     H31755   9.402   1.638   5.100  2.1203 -2.6705  1.1828
  976MOL0     H31756   9.768   1.583   5.330  0.2394 -1.9324 -1.8564
  976MOL0     H31757   9.450   2.370   5.287 -1.1294  1.1392 -2.6005
  976MOL0     H31758   9.262   2.659   5.208 -0.0945  0.3218 -0.3540
  976MOL0     H31759   9.273   2.636   5.377  1.1008 -0.7889  1.0822
  976MOL0     H31760   9.415   2.594   5.263 -0.9551  2.8100 -2.5094
  977MOL0     O31761  10.259   0.461   0.257 -0.6630  1.1335  0.3927
  977MOL0     C31762  10.355   0.407   0.318  0.1405  0.8605 -0.0452
  977MOL0     O31763  10.470   0.460   0.362 -0.6666  0.1292  0.3422
  977MOL0     C31764  10.476   0.595   0.357  0.1642 -0.8703  0.3533
  977MOL0     C31765  10.412   0.677   0.457  0.1184  0.3584 -0.1061
  977MOL0     C31766  10.398   0.815   0.422 -0.2597 -0.3588 -0.1528
  977MOL0     C31767  10.475   0.870   0.317 -0.4935 -0.4206 -0.9524
  977MOL0     O31768  10.467   0.996   0.274  0.1790  0.4582 -0.1501
  977MOL0     C31769  10.337   1.065   0.278  0.3543 -0.4196  0.2020
  977MOL0     C31770  10.338   1.181   0.178  0.0885  0.6409  0.1394
  977MOL0     C31771  10.381   1.145   0.026  0.2436  0.3899  0.4463
  977MOL0     C31772  10.379   1.263  -0.079 -0.1632 -1.1181 -0.7452
  977MOL0     C31773  10.526   1.319  -0.104  0.3293 -0.2572  0.8042
  977MOL0     C31774  10.537   1.450  -0.190 -0.5180  0.1800  0.2532
  977MOL0     C31775  10.481   1.430  -0.343  0.2905  0.0060 -1.2179
  977MOL0     C31776  10.577   1.349  -0.430 -0.2152  0.0523  0.4574
  977MOL0     N31777  10.701   1.422  -0.457  0.6701  0.0011 -1.0553
  977MOL0     C31778  10.728   1.519  -0.551 -0.8856 -0.0139 -0.2666
  977MOL0     C31779  10.858   1.553  -0.533 -0.9768 -0.3445 -0.0833
  977MOL0     C31780  10.943   1.655  -0.609  0.1198 -0.3872  0.3952
  977MOL0     C31781  10.877   1.787  -0.593 -0.3722 -0.0001 -0.0879
  977MOL0     C31782  10.967   1.914  -0.611 -0.3121  0.4764  0.0176
  977MOL0     C31783  10.906   2.058  -0.607  0.9203  1.3476  0.0901
  977MOL0     O31784  10.883   2.088  -0.467 -0.0475 -0.8021  0.0518
  977MOL0     C31785  10.818   2.208  -0.453  0.6887  0.2745 -0.7892
  977MOL0     C31786  10.821   2.319  -0.544 -0.1119  0.5304  0.2612
  977MOL0     C31787  10.770   2.441  -0.514  0.3670  0.1137  0.5746
  977MOL0     C31788  10.708   2.471  -0.394 -0.0047  0.4960  0.9389
  977MOL0     C31789  10.657   2.605  -0.364  0.0717  0.6305 -0.6593
  977MOL0     O31790  10.699   2.712  -0.438  0.6211 -0.1757 -0.1391
  977MOL0     C31791  10.645   2.833  -0.410 -0.4258  0.1035 -0.2337
  977MOL0     C31792  10.591   2.908  -0.516 -0.6743 -0.2805 -0.2245
  977MOL0     C31793  10.539   3.031  -0.485  0.9975  0.2632  0.4338
  977MOL0     C31794  10.538   3.093  -0.359 -0.2078  0.6890 -0.3475
  977MOL0     O31795  10.480   3.210  -0.356 -0.2750 -0.2857 -0.2716
  977MOL0     C31796  10.504   3.295  -0.241  0.7678  0.3250  0.0035
  977MOL0     C31797  10.430   3.434  -0.254 -0.5693 -0.1797  0.6358
  977MOL0     C31798  10.491   3.536  -0.165  0.4574 -0.1024  0.4968
  977MOL0     C31799  10.401   3.665  -0.138  0.5495  0.7097  0.7662
  977MOL0     C31800  10.354   3.746  -0.260  0.1801 -0.5605  1.0180
  977MOL0     C31801  10.244   3.847  -0.206 -0.9625 -0.7983 -0.2718
  977MOL0     C31802  10.180   3.935  -0.317 -0.3527 -0.1113 -1.0516
  977MOL0     C31803  10.082   4.031  -0.255 -1.1618 -0.3516 -0.6328
  977MOL0    Cl31804   9.971   4.094  -0.398 -0.2619 -0.0031  0.2099
  977MOL0     C31805  10.588   3.011  -0.255  0.0369  0.1477  0.1827
  977MOL0     C31806  10.639   2.886  -0.277 -0.1698  0.2046 -0.3247
  977MOL0     O31807  10.570   2.602  -0.279  0.1049 -0.3642  0.1638
  977MOL0     C31808  10.709   2.371  -0.302 -0.2149  0.6371 -0.5019
  977MOL0     C31809  10.752   2.238  -0.327  0.2074  0.1311  0.3180
  977MOL0     N31810  10.921   1.477  -0.436  0.1417  0.7975  0.8073
  977MOL0     N31811  10.821   1.397  -0.395  0.4568  0.8859  0.3094
  977MOL0     C31812  10.551   0.795   0.239  0.3843  1.1979  0.1983
  977MOL0     C31813  10.547   0.659   0.251 -0.0566  1.4033  0.2676
  977MOL0     C31814  10.337   0.264   0.385  0.1927 -1.0381 -0.3403
  977MOL0     C31815  10.399   0.229   0.510 -0.4438 -1.1478  0.0060
  977MOL0     C31816  10.404   0.097   0.562 -1.1930 -0.5810 -0.4107
  977MOL0     C31817  10.347  -0.009   0.482  1.0172  0.1748 -0.4392
  977MOL0     O31818  10.354  -0.139   0.522  0.4168  0.3826  0.3552
  977MOL0     C31819  10.311  -0.242   0.434  0.9164 -0.7327  0.0007
  977MOL0     C31820  10.298  -0.379   0.507 -0.0700  0.1514  0.7232
  977MOL0     C31821  10.428  -0.462   0.537 -0.0305  0.1382 -0.7784
  977MOL0     C31822  10.399  -0.610   0.577 -0.3999  0.4451 -0.9219
  977MOL0     C31823  10.311  -0.614   0.699 -0.8157  0.1212  0.8357
  977MOL0     C31824  10.233  -0.625   0.794 -0.2232  0.0447 -0.1475
  977MOL0     C31825  10.268   0.029   0.370 -0.1016 -0.0018  0.4545
  977MOL0     C31826  10.270   0.161   0.314  0.3107  0.7085  0.0588
  977MOL0     C31827  10.190   0.180   0.182 -0.1560  0.2672 -0.2567
  977MOL0     H31828  10.345   0.638   0.533  0.5388 -0.4648 -0.1532
  977MOL0     H31829  10.328   0.884   0.468  0.0288  0.2911 -0.6678
  977MOL0     H31830  10.269   0.984   0.247  1.5327 -1.2835 -0.1837
  977MOL0     H31831  10.306   1.101   0.376  3.5833  1.0012  0.8083
  977MOL0     H31832  10.411   1.248   0.222  3.0677  1.1440 -4.7773
  977MOL0     H31833  10.243   1.235   0.174 -0.9210 -0.9925  0.9389
  977MOL0     H31834  10.308   1.076  -0.018 -1.2021  0.6178  2.3398
  977MOL0     H31835  10.475   1.091   0.032 -0.1846 -0.2284  2.2270
  977MOL0     H31836  10.334   1.238  -0.175  1.0377 -0.4575 -1.4961
  977MOL0     H31837  10.330   1.348  -0.030  1.0622  0.5929 -2.3522
  977MOL0     H31838  10.569   1.332  -0.004 -0.4490 -1.2946  1.2958
  977MOL0     H31839  10.576   1.239  -0.158  1.3343  2.0565 -1.9143
  977MOL0     H31840  10.490   1.530  -0.131 -1.8605  0.1997 -0.8021
  977MOL0     H31841  10.642   1.477  -0.198  0.2866 -2.5313  0.6878
  977MOL0     H31842  10.486   1.530  -0.386  4.0781  1.0707  1.2113
  977MOL0     H31843  10.379   1.391  -0.342 -0.1355  0.8538 -3.9045
  977MOL0     H31844  10.595   1.253  -0.381  1.6811  0.6515  1.0458
  977MOL0     H31845  10.526   1.330  -0.524  1.3131 -0.6372 -0.2668
  977MOL0     H31846  10.665   1.553  -0.633 -0.6878 -0.7248 -0.7266
  977MOL0     H31847  11.048   1.652  -0.578  0.4485 -0.6319 -0.7012
  977MOL0     H31848  10.948   1.635  -0.716 -0.3264  0.4337  0.2100
  977MOL0     H31849  10.797   1.794  -0.668  0.5240 -0.0914 -1.0865
  977MOL0     H31850  10.832   1.799  -0.494 -2.8071  0.8422 -1.2321
  977MOL0     H31851  11.019   1.909  -0.707 -2.2957  1.2092 -1.1430
  977MOL0     H31852  11.042   1.909  -0.531 -0.8967 -0.2853  0.5343
  977MOL0     H31853  10.825   2.067  -0.681 -0.6287  1.2386  1.6892
  977MOL0     H31854  10.984   2.124  -0.646  1.7967 -1.4284 -3.3743
  977MOL0     H31855  10.866   2.308  -0.643 -0.8783 -0.5510  0.0155
  977MOL0     H31856  10.773   2.509  -0.599 -4.2589  3.8453  2.9103
  977MOL0     H31857  10.571   2.875  -0.617 -1.7562  1.4621 -0.6153
  977MOL0     H31858  10.497   3.079  -0.573 -1.1651 -3.1139 -0.5673
  977MOL0     H31859  10.482   3.270  -0.136  1.7958  0.1598  0.1844
  977MOL0     H31860  10.611   3.316  -0.247  0.8958 -0.3576 -0.1565
  977MOL0     H31861  10.447   3.455  -0.360  0.3763  0.5097  0.9028
  977MOL0     H31862  10.323   3.436  -0.235 -1.1976  1.3190 -2.4809
  977MOL0     H31863  10.505   3.489  -0.068  0.9416 -1.0833 -0.0313
  977MOL0     H31864  10.595   3.554  -0.192 -0.2461  2.1118 -0.9840
  977MOL0     H31865  10.472   3.729  -0.084  2.3425 -1.9540  1.7731
  977MOL0     H31866  10.309   3.645  -0.083 -0.6328  0.9563 -1.0499
  977MOL0     H31867  10.314   3.681  -0.338  1.5990  0.0862 -0.2976
  977MOL0     H31868  10.432   3.810  -0.302 -2.0708  0.3831 -2.0747
  977MOL0     H31869  10.162   3.794  -0.157  0.5503 -1.1178  2.0435
  977MOL0     H31870  10.300   3.914  -0.141 -0.5847  0.6383 -2.0102
  977MOL0     H31871  10.129   3.868  -0.386 -0.1285  0.7494 -2.0911
  977MOL0     H31872  10.254   3.984  -0.381 -3.2929  1.4695 -3.5000
  977MOL0     H31873  10.012   3.995  -0.179 -0.4222 -0.6864 -0.0994
  977MOL0     H31874  10.137   4.120  -0.223 -0.6867  0.0233 -2.3650
  977MOL0     H31875  10.595   3.049  -0.153  0.6915  1.8841 -0.4850
  977MOL0     H31876  10.690   2.843  -0.191 -2.7325  1.9861  2.2838
  977MOL0     H31877  10.671   2.392  -0.202  1.3715  1.2057  0.0058
  977MOL0     H31878  10.733   2.173  -0.241 -0.0905  1.4168  1.2541
  977MOL0     H31879  10.605   0.827   0.150 -2.8378  3.2241 -1.2277
  977MOL0     H31880  10.594   0.596   0.176 -3.0877 -0.9982  0.1924
  977MOL0     H31881  10.438   0.303   0.578 -1.3438 -0.1693 -0.5199
  977MOL0     H31882  10.459   0.066   0.650  2.8851 -0.1992 -2.5762
  977MOL0     H31883  10.375  -0.242   0.345 -0.5132  1.2732 -1.1054
  977MOL0     H31884  10.209  -0.221   0.403  1.1137  0.9083  0.3940
  977MOL0     H31885  10.238  -0.439   0.437 -0.8920  0.5643  1.0572
  977MOL0     H31886  10.233  -0.371   0.595 -2.7095 -0.6260 -1.0211
  977MOL0     H31887  10.484  -0.411   0.616 -1.7960  2.7146 -1.0684
  977MOL0     H31888  10.493  -0.466   0.449  0.3094 -0.3835 -0.5062
  977MOL0     H31889  10.351  -0.675   0.503  1.9920 -2.8118  0.1843
  977MOL0     H31890  10.492  -0.660   0.603  0.0596  2.1090  0.9012
  977MOL0     H31891  10.158  -0.623   0.870 -0.9221  0.2402 -0.8382
  977MOL0     H31892  10.204  -0.032   0.306  1.0525 -0.6115 -0.1476
  977MOL0     H31893  10.134   0.090   0.154  1.9990 -0.8264 -1.2618
  977MOL0     H31894  10.114   0.258   0.185 -1.7968 -1.2380 -0.9312
  977MOL0     H31895  10.258   0.202   0.099 -0.4243  1.8498 -0.0875
  978MOL0     O31896   0.152   6.612   5.008 -0.3209 -0.1888  0.4584
  978MOL0     C31897   0.214   6.549   4.918  1.4900 -0.1405  0.5705
  978MOL0     O31898   0.207   6.576   4.786  0.3991 -0.5354  0.5367
  978MOL0     C31899   0.115   6.668   4.729  0.7942 -0.1630 -0.2002
  978MOL0     C31900   0.148   6.735   4.616 -0.2869 -0.4924  0.4520
  978MOL0     C31901   0.058   6.815   4.554 -0.2344  0.3189 -0.1049
  978MOL0     C31902  -0.067   6.838   4.609  0.0390 -0.0715  0.3905
  978MOL0     O31903  -0.158   6.919   4.540  0.0261 -0.6327 -0.4043
  978MOL0     C31904  -0.296   6.871   4.548  0.1443 -0.2707  0.6267
  978MOL0     C31905  -0.373   6.933   4.441  0.2211  1.2040 -0.2349
  978MOL0     C31906  -0.338   6.884   4.301 -0.0188 -0.2296  0.0625
  978MOL0     C31907  -0.365   6.996   4.199  0.2911  0.4673  0.0013
  978MOL0     C31908  -0.326   6.958   4.053 -0.3671 -0.2557 -0.7660
  978MOL0     C31909  -0.340   7.072   3.959 -0.2234 -0.4267 -0.3776
  978MOL0     C31910  -0.357   7.019   3.823  0.2581 -0.9089  0.3534
  978MOL0     C31911  -0.228   6.981   3.747 -0.3474 -0.5200  0.1293
  978MOL0     N31912  -0.246   6.990   3.600 -0.7109  0.1147  0.8156
  978MOL0     C31913  -0.258   7.102   3.528 -0.8039  0.0833  0.7352
  978MOL0     C31914  -0.269   7.058   3.399 -0.1782  0.9091  0.9852
  978MOL0     C31915  -0.287   7.141   3.276  0.2771  0.1946  0.0535
  978MOL0     C31916  -0.176   7.244   3.250  0.2940  0.1441 -0.3671
  978MOL0     C31917  -0.199   7.381   3.339 -0.0389  0.1829  0.0542
  978MOL0     C31918  -0.064   7.446   3.376 -1.0857 -0.4820 -0.1204
  978MOL0     O31919  -0.018   7.367   3.487  0.0020  0.0637 -0.0449
  978MOL0     C31920  -0.068   7.401   3.613 -0.3480 -0.0468 -0.2751
  978MOL0     C31921  -0.160   7.505   3.649  1.2860  0.6153 -0.0792
  978MOL0     C31922  -0.187   7.515   3.787 -1.0511 -0.7987  0.0497
  978MOL0     C31923  -0.143   7.424   3.885  0.8750  0.2530 -0.2196
  978MOL0     C31924  -0.185   7.446   4.023 -0.8325 -0.0974 -0.4541
  978MOL0     O31925  -0.143   7.351   4.120  0.0665 -1.2422  0.1900
  978MOL0     C31926  -0.176   7.352   4.251  0.6221 -0.3234  0.0483
  978MOL0     C31927  -0.096   7.299   4.349 -0.4263 -0.5450  0.7699
  978MOL0     C31928  -0.114   7.297   4.483 -0.0914 -0.1819  1.0794
  978MOL0     C31929  -0.245   7.331   4.527 -0.0567  0.0114 -0.3343
  978MOL0     O31930  -0.290   7.337   4.660  0.1717 -0.3115  0.3828
  978MOL0     C31931  -0.226   7.268   4.770 -0.8589  0.1709 -1.4491
  978MOL0     C31932  -0.314   7.250   4.895 -0.0659 -0.7325  0.2085
  978MOL0     C31933  -0.232   7.183   5.004  1.2991  0.4435 -0.4817
  978MOL0     C31934  -0.319   7.166   5.141  0.7804  0.1041 -0.7627
  978MOL0     C31935  -0.225   7.083   5.236  0.8787 -0.6519 -0.3319
  978MOL0     C31936  -0.310   7.046   5.365 -0.0117 -0.4544  0.5186
  978MOL0     C31937  -0.213   6.993   5.468 -0.4565 -0.1738 -0.6979
  978MOL0     C31938  -0.153   7.109   5.551 -0.8751 -0.2545  0.6774
  978MOL0    Cl31939  -0.029   7.032   5.649 -0.0246  0.1768  0.0311
  978MOL0     C31940  -0.338   7.382   4.436 -0.3732 -0.8615 -1.0610
  978MOL0     C31941  -0.297   7.394   4.300  0.2223 -0.8303  0.0664
  978MOL0     O31942  -0.253   7.543   4.045  0.2283  0.1591  0.1010
  978MOL0     C31943  -0.061   7.323   3.847 -0.1017  0.0254 -0.0788
  978MOL0     C31944  -0.025   7.315   3.708 -0.4860  0.3351 -0.1971
  978MOL0     N31945  -0.262   6.922   3.396 -0.5737 -0.2627  0.7049
  978MOL0     N31946  -0.233   6.884   3.517 -0.1890 -1.0602 -0.5349
  978MOL0     C31947  -0.099   6.769   4.728  0.0665  0.1891  0.0140
  978MOL0     C31948  -0.007   6.680   4.790  0.0473 -0.1648  0.0934
  978MOL0     C31949   0.293   6.446   4.960 -0.1931 -0.2717  0.2737
  978MOL0     C31950   0.255   6.366   5.075  0.4334  0.1725  0.0670
  978MOL0     C31951   0.328   6.256   5.118  0.1068  0.8515  0.7751
  978MOL0     C31952   0.443   6.220   5.053 -0.3522  0.3822 -0.0236
  978MOL0     O31953   0.500   6.110   5.104 -0.0514  0.4411 -0.1724
  978MOL0     C31954   0.643   6.105   5.090 -0.3458  0.7649 -0.9560
  978MOL0     C31955   0.702   6.049   5.232  0.7762 -0.3444 -0.4700
  978MOL0     C31956   0.622   6.086   5.361 -0.5708  0.2952  0.1978
  978MOL0     C31957   0.629   6.238   5.374 -0.7599  0.3219  0.1988
  978MOL0     C31958   0.762   6.291   5.378  0.3375 -0.4834  0.1809
  978MOL0     C31959   0.875   6.334   5.374  0.1256  0.4014  0.0012
  978MOL0     C31960   0.493   6.304   4.945 -0.2901 -0.0460 -0.8051
  978MOL0     C31961   0.414   6.409   4.896 -0.9400 -0.6973  0.9114
  978MOL0     C31962   0.467   6.484   4.772  0.7982 -0.4364  0.6286
  978MOL0     H31963   0.246   6.730   4.569  0.0662  2.3199  0.7385
  978MOL0     H31964   0.089   6.873   4.467  1.2241  0.1032  0.2417
  978MOL0     H31965  -0.311   6.763   4.550 -1.5958 -0.0594  1.0145
  978MOL0     H31966  -0.338   6.911   4.641 -0.2252  0.1846  0.2710
  978MOL0     H31967  -0.355   7.041   4.432 -0.5976  1.2509 -1.5234
  978MOL0     H31968  -0.478   6.909   4.460  0.9169 -1.3125  0.7876
  978MOL0     H31969  -0.401   6.799   4.274  0.2489  0.3298 -2.5127
  978MOL0     H31970  -0.234   6.851   4.294 -0.1180 -0.3212 -1.1420
  978MOL0     H31971  -0.474   7.007   4.194  0.2057 -0.4967 -0.3900
  978MOL0     H31972  -0.315   7.093   4.202  1.3050 -0.0305 -0.1905
  978MOL0     H31973  -0.220   6.932   4.050  0.0851  1.5119 -1.0649
  978MOL0     H31974  -0.389   6.871   4.028  0.1141 -1.3409  1.5268
  978MOL0     H31975  -0.434   7.121   3.988 -0.1173  0.0209 -0.7967
  978MOL0     H31976  -0.262   7.147   3.971 -1.8935  1.3306 -0.0486
  978MOL0     H31977  -0.400   7.103   3.767 -1.6192  0.0785  3.0606
  978MOL0     H31978  -0.428   6.935   3.822  1.1470 -1.8081 -3.4992
  978MOL0     H31979  -0.140   7.033   3.787 -0.2960 -0.4448 -0.0798
  978MOL0     H31980  -0.219   6.873   3.767 -3.5341 -0.3950  3.1407
  978MOL0     H31981  -0.282   7.201   3.563 -2.8235 -0.3755  0.7291
  978MOL0     H31982  -0.288   7.060   3.202  2.2766 -2.1778  2.4166
  978MOL0     H31983  -0.386   7.185   3.260  1.8608  3.0568 -3.1307
  978MOL0     H31984  -0.078   7.200   3.266 -0.9008 -2.6409 -0.2337
  978MOL0     H31985  -0.173   7.268   3.143 -1.4762  2.8998  0.0801
  978MOL0     H31986  -0.261   7.363   3.427  0.0828 -1.1446 -0.1235
  978MOL0     H31987  -0.258   7.450   3.278  0.4065 -0.5235 -1.2121
  978MOL0     H31988  -0.075   7.552   3.401  3.3740 -0.3341  2.1964
  978MOL0     H31989   0.005   7.435   3.291 -1.5994  1.1649 -0.7971
  978MOL0     H31990  -0.193   7.574   3.572  3.7125  0.6271 -1.2005
  978MOL0     H31991  -0.257   7.594   3.811 -1.3547 -0.1215 -2.7481
  978MOL0     H31992   0.001   7.270   4.309 -1.4237 -2.6682 -0.2298
  978MOL0     H31993  -0.031   7.252   4.535  0.5444 -2.1062 -1.4149
  978MOL0     H31994  -0.170   7.177   4.749  3.4637  1.5295  2.4231
  978MOL0     H31995  -0.149   7.332   4.815  0.2211  0.4695 -3.5896
  978MOL0     H31996  -0.356   7.342   4.936  0.5894 -1.6090  3.1135
  978MOL0     H31997  -0.392   7.177   4.872  0.4689 -2.1197  2.4308
  978MOL0     H31998  -0.179   7.093   4.971  1.1254 -0.1507  0.8189
  978MOL0     H31999  -0.152   7.253   5.030  3.2086 -1.8572  0.1128
  978MOL0     H32000  -0.409   7.108   5.117  0.2147  0.1517  1.0992
  978MOL0     H32001  -0.341   7.262   5.190  0.3711  1.4011 -3.3316
  978MOL0     H32002  -0.137   7.141   5.262  0.4407 -0.6773  1.2659
  978MOL0     H32003  -0.197   6.987   5.192  3.1919  0.3240 -1.1260
  978MOL0     H32004  -0.363   7.133   5.405  2.4369  0.7230  1.3999
  978MOL0     H32005  -0.380   6.965   5.344  2.9513 -3.6362  1.8985
  978MOL0     H32006  -0.132   6.945   5.410  1.0595  0.0654  1.1256
  978MOL0     H32007  -0.260   6.915   5.528  1.2245 -0.4990  0.2722
  978MOL0     H32008  -0.117   7.190   5.486  2.1857 -0.6055  1.7957
  978MOL0     H32009  -0.235   7.144   5.613 -2.4745 -1.3900 -0.6948
  978MOL0     H32010  -0.430   7.414   4.484  0.9831  1.0595  0.3799
  978MOL0     H32011  -0.365   7.451   4.237  1.1170 -0.7611 -0.8612
  978MOL0     H32012  -0.024   7.251   3.919  0.4384  0.9168  0.5501
  978MOL0     H32013   0.051   7.242   3.683  1.0867  1.1955  1.7850
  978MOL0     H32014  -0.191   6.785   4.784 -0.5524 -0.8428 -0.6834
  978MOL0     H32015  -0.039   6.628   4.880 -0.3917  2.6505  1.7109
  978MOL0     H32016   0.153   6.376   5.112 -0.2457 -3.0207 -0.6476
  978MOL0     H32017   0.286   6.190   5.193 -4.1363  1.1733 -1.0263
  978MOL0     H32018   0.688   6.202   5.070  0.8296 -0.1381 -3.0400
  978MOL0     H32019   0.685   6.061   4.999  1.5998 -1.0156  0.7048
  978MOL0     H32020   0.807   6.080   5.229  0.5916  0.2506 -2.0255
  978MOL0     H32021   0.692   5.940   5.230 -0.6588 -0.2373 -0.0056
  978MOL0     H32022   0.653   6.037   5.454  0.9309  0.4399 -0.1928
  978MOL0     H32023   0.519   6.054   5.343 -0.2383  0.2844 -2.0272
  978MOL0     H32024   0.576   6.288   5.292 -0.6511 -0.4908 -0.3707
  978MOL0     H32025   0.571   6.248   5.467  0.5141 -0.3586  1.0986
  978MOL0     H32026   0.975   6.363   5.351  0.5385 -1.3113 -0.4504
  978MOL0     H32027   0.589   6.272   4.904  0.3269 -4.1774  3.0001
  978MOL0     H32028   0.442   6.589   4.785 -0.3015 -0.1826 -2.5577
  978MOL0     H32029   0.575   6.483   4.757  0.7691  0.9685  0.2141
  978MOL0     H32030   0.409   6.450   4.686  1.5116  0.4472 -0.2180
  979MOL0     O32031   8.512   5.904   5.076  0.0576  0.0491  0.5914
  979MOL0     C32032   8.445   5.994   5.132 -0.2095 -1.0493  0.2177
  979MOL0     O32033   8.477   6.131   5.143  0.4557 -0.0194  0.2580
  979MOL0     C32034   8.582   6.185   5.070 -0.9257 -0.2264 -0.1032
  979MOL0     C32035   8.691   6.240   5.138  0.3068  0.2637 -0.3608
  979MOL0     C32036   8.794   6.302   5.073  0.9758  0.4396  1.3771
  979MOL0     C32037   8.788   6.317   4.934  0.6004 -0.2364  0.4729
  979MOL0     O32038   8.894   6.383   4.877  0.8036 -0.9411 -0.7339
  979MOL0     C32039   8.897   6.380   4.735  0.6112 -0.3531 -0.1246
  979MOL0     C32040   9.032   6.439   4.691 -0.1432  0.2037 -0.0183
  979MOL0     C32041   9.158   6.353   4.735  0.4158  0.6389 -0.3970
  979MOL0     C32042   9.293   6.411   4.685  0.5668  0.4267  0.5413
  979MOL0     C32043   9.423   6.365   4.728  0.0479  0.3904  0.1783
  979MOL0     C32044   9.458   6.232   4.662 -0.3390  0.8983 -0.7414
  979MOL0     C32045   9.451   6.230   4.509 -0.5768  0.6968 -0.5314
  979MOL0     C32046   9.510   6.107   4.445  1.1129 -0.4700 -0.7044
  979MOL0     N32047   9.483   6.116   4.300 -0.3846 -0.0370 -0.1021
  979MOL0     C32048   9.549   6.189   4.214  0.1734  0.5596  0.3369
  979MOL0     C32049   9.487   6.184   4.094 -0.9229 -0.2334  0.5633
  979MOL0     C32050   9.526   6.268   3.967 -0.4772  0.5074 -0.4632
  979MOL0     C32051   9.412   6.344   3.901 -0.5341  0.1305  0.2837
  979MOL0     C32052   9.450   6.425   3.773 -0.1405  0.3946 -0.0518
  979MOL0     C32053   9.562   6.528   3.779  0.2000  0.8640 -0.7208
  979MOL0     O32054   9.688   6.465   3.805 -0.1219 -1.4537  0.1650
  979MOL0     C32055   9.794   6.549   3.785  0.2953  1.2467  0.4423
  979MOL0     C32056   9.792   6.690   3.764 -0.1326  0.5827 -0.3580
  979MOL0     C32057   9.904   6.768   3.761  0.2401  0.1294  0.6742
  979MOL0     C32058  10.027   6.713   3.788  1.1847  0.2953  0.4419
  979MOL0     C32059  10.146   6.797   3.797  0.6088 -0.8599  0.6528
  979MOL0     O32060  10.124   6.921   3.765 -0.4513 -0.9629  0.9393
  979MOL0     C32061  10.231   7.010   3.730 -0.9530  0.5364  0.0250
  979MOL0     C32062  10.225   7.146   3.763 -0.5914  0.1351 -1.3469
  979MOL0     C32063  10.306   7.241   3.701  0.2146 -0.4148  0.8183
  979MOL0     C32064  10.419   7.200   3.644 -0.9872  0.3787 -0.3500
  979MOL0     O32065  10.487   7.292   3.568 -0.7053 -0.4388 -0.4020
  979MOL0     C32066  10.542   7.409   3.646  0.2781  0.8178  1.5669
  979MOL0     C32067  10.600   7.501   3.538 -0.0819  0.4291  0.1960
  979MOL0     C32068  10.671   7.624   3.589 -0.0770  0.8313  0.7575
  979MOL0     C32069  10.734   7.713   3.478  0.0670  0.0206 -0.2114
  979MOL0     C32070  10.771   7.852   3.539  0.4009 -0.2747  0.9379
  979MOL0     C32071  10.818   7.940   3.415  0.1167 -0.5722 -0.6739
  979MOL0     C32072  10.705   7.981   3.313  0.4210  0.9233 -0.1524
  979MOL0     C32073  10.771   8.012   3.182  0.3943  0.0193  0.0876
  979MOL0    Cl32074  10.882   8.164   3.187  0.0583  0.2403  0.0262
  979MOL0     C32075  10.434   7.066   3.612  0.6220 -0.2814  0.7741
  979MOL0     C32076  10.331   6.968   3.644 -0.5745 -0.2174 -0.5185
  979MOL0     O32077  10.254   6.745   3.825  0.0587  0.3497 -0.2331
  979MOL0     C32078  10.029   6.575   3.820  0.2832  0.2665 -0.1702
  979MOL0     C32079   9.908   6.498   3.829  1.1765 -0.0477 -0.5185
  979MOL0     N32080   9.399   6.084   4.105 -0.3338  0.2928  0.3554
  979MOL0     N32081   9.377   6.058   4.231 -0.2602 -0.3869 -0.5870
  979MOL0     C32082   8.683   6.249   4.861  0.6628  0.7300  0.0481
  979MOL0     C32083   8.585   6.175   4.932  0.5481 -0.2576  0.2553
  979MOL0     C32084   8.305   5.957   5.185  0.8674 -0.4305 -0.5083
  979MOL0     C32085   8.230   6.069   5.231  0.0083 -0.6186  0.5087
  979MOL0     C32086   8.122   6.058   5.317  0.4728 -0.4704 -0.6459
  979MOL0     C32087   8.067   5.928   5.348  0.0913 -0.2991  0.0147
  979MOL0     O32088   7.949   5.895   5.414  0.1687 -0.0425  0.2008
  979MOL0     C32089   7.901   5.999   5.495 -0.2454 -0.0145  0.0775
  979MOL0     C32090   7.784   5.947   5.580 -0.3505 -1.0461  0.3624
  979MOL0     C32091   7.662   5.954   5.489 -0.1455  0.2798  0.6811
  979MOL0     C32092   7.556   5.858   5.542  0.8922  0.4175  0.5636
  979MOL0     C32093   7.422   5.903   5.531  0.8559 -0.7471  0.3809
  979MOL0     C32094   7.301   5.944   5.530 -0.0355  0.3144 -0.1319
  979MOL0     C32095   8.145   5.817   5.303 -0.3822  0.0794 -1.2921
  979MOL0     C32096   8.261   5.831   5.226  0.2756  0.3751 -0.4392
  979MOL0     C32097   8.326   5.704   5.188 -0.1460 -0.1516 -0.4644
  979MOL0     H32098   8.679   6.249   5.245 -3.7231 -2.5305 -0.3908
  979MOL0     H32099   8.873   6.340   5.137  2.4256 -1.3867  0.7635
  979MOL0     H32100   8.900   6.279   4.693 -4.0028 -0.7648 -0.0183
  979MOL0     H32101   8.806   6.433   4.706  1.5024  3.6842  3.5159
  979MOL0     H32102   9.048   6.539   4.732 -0.1818  0.4806 -0.6608
  979MOL0     H32103   9.038   6.454   4.583  0.2942 -1.2935 -0.2244
  979MOL0     H32104   9.141   6.253   4.694 -0.9535  0.7268 -0.0960
  979MOL0     H32105   9.175   6.338   4.842  2.2717 -2.2486 -0.9731
  979MOL0     H32106   9.295   6.411   4.575  0.3566 -3.1830  0.4181
  979MOL0     H32107   9.287   6.518   4.709 -3.2309  1.1518 -2.5183
  979MOL0     H32108   9.503   6.430   4.694  1.8210 -3.5560 -4.3322
  979MOL0     H32109   9.428   6.360   4.837 -1.5636  2.5693  0.4193
  979MOL0     H32110   9.565   6.218   4.678  0.0208  0.5785 -3.1225
  979MOL0     H32111   9.398   6.155   4.711 -0.8357  1.7665  0.0611
  979MOL0     H32112   9.491   6.326   4.473 -0.1654  1.9377  2.9042
  979MOL0     H32113   9.344   6.227   4.486 -0.0136 -0.1276 -3.4814
  979MOL0     H32114   9.613   6.084   4.475  0.4013 -0.6682  1.8458
  979MOL0     H32115   9.446   6.024   4.475  2.0142 -0.5834  1.0500
  979MOL0     H32116   9.634   6.255   4.228  0.8794 -0.4079  0.7135
  979MOL0     H32117   9.603   6.341   3.991 -1.7286  1.9808 -0.7220
  979MOL0     H32118   9.576   6.196   3.900  1.1329  2.2799 -1.2637
  979MOL0     H32119   9.321   6.288   3.876 -0.5618  0.2724  0.0659
  979MOL0     H32120   9.371   6.427   3.960  0.3664  0.6867  0.1437
  979MOL0     H32121   9.360   6.481   3.748 -0.6012 -0.3144 -0.0064
  979MOL0     H32122   9.480   6.359   3.690  1.9069  2.3267 -0.9486
  979MOL0     H32123   9.533   6.602   3.854  1.9152  2.1054 -1.2002
  979MOL0     H32124   9.579   6.583   3.686  1.7011  1.1072 -0.3452
  979MOL0     H32125   9.701   6.747   3.750  0.2565  1.2327 -0.2472
  979MOL0     H32126   9.905   6.876   3.749 -0.1846  0.5100  3.3399
  979MOL0     H32127  10.136   7.173   3.820  1.0777 -0.4727  1.7782
  979MOL0     H32128  10.284   7.346   3.683 -0.9344 -0.3288  2.4435
  979MOL0     H32129  10.466   7.468   3.698  3.5931  4.3314  2.8842
  979MOL0     H32130  10.617   7.365   3.714  2.7074 -0.3109 -1.6067
  979MOL0     H32131  10.667   7.451   3.467 -0.2371 -1.4552  1.3039
  979MOL0     H32132  10.514   7.531   3.477 -1.0967 -0.2805  1.2203
  979MOL0     H32133  10.592   7.684   3.635 -1.6381 -0.7366  0.2264
  979MOL0     H32134  10.752   7.600   3.658 -1.2114 -2.3775  1.1430
  979MOL0     H32135  10.654   7.725   3.404  1.4975  1.3312 -1.6241
  979MOL0     H32136  10.811   7.658   3.424 -2.3285 -0.5588 -3.3374
  979MOL0     H32137  10.849   7.839   3.615 -0.1009  0.8578  1.6600
  979MOL0     H32138  10.683   7.897   3.585  0.2502 -0.5254  0.8947
  979MOL0     H32139  10.863   8.025   3.467  0.4631 -2.1615  1.7721
  979MOL0     H32140  10.892   7.885   3.356  0.9973  0.9368 -1.0381
  979MOL0     H32141  10.648   8.066   3.352 -1.9207 -0.7459  0.2984
  979MOL0     H32142  10.636   7.898   3.295 -2.5198  2.7528  1.7726
  979MOL0     H32143  10.831   7.926   3.152 -0.3723 -0.6235  0.3414
  979MOL0     H32144  10.692   8.038   3.111 -1.4276  0.3040  2.0783
  979MOL0     H32145  10.506   7.019   3.546  0.1133 -0.3170  0.2474
  979MOL0     H32146  10.343   6.867   3.607  2.2008 -0.4994  0.8493
  979MOL0     H32147  10.129   6.535   3.834  0.2383  0.6445  1.3992
  979MOL0     H32148   9.913   6.397   3.870  0.7981 -0.3364 -1.1669
  979MOL0     H32149   8.688   6.241   4.753  0.7413  1.7228 -0.0248
  979MOL0     H32150   8.514   6.125   4.866  3.9759 -4.0378 -1.0215
  979MOL0     H32151   8.262   6.166   5.196  2.7124 -1.8368 -0.6364
  979MOL0     H32152   8.066   6.147   5.342  1.5901 -0.5763  2.8551
  979MOL0     H32153   7.858   6.072   5.426 -0.0648 -1.1973 -1.3542
  979MOL0     H32154   7.970   6.038   5.571 -0.5877 -0.1970  0.4841
  979MOL0     H32155   7.779   6.010   5.669  0.5077  0.7274 -0.7744
  979MOL0     H32156   7.792   5.840   5.601 -0.7181 -1.7578 -2.7094
  979MOL0     H32157   7.682   5.933   5.384 -1.5352  0.5151  0.3492
  979MOL0     H32158   7.629   6.058   5.499 -0.6163 -0.0482  3.2259
  979MOL0     H32159   7.573   5.757   5.504  2.2009  1.0613 -0.6703
  979MOL0     H32160   7.571   5.837   5.649 -0.7206  0.7193  0.8704
  979MOL0     H32161   7.198   5.971   5.535 -0.0532  0.3703 -0.7371
  979MOL0     H32162   8.119   5.714   5.323  0.2151  0.5384  2.9306
  979MOL0     H32163   8.323   5.685   5.080  1.8564 -0.6983 -0.4700
  979MOL0     H32164   8.434   5.704   5.206  0.2433 -2.7163 -2.2339
  979MOL0     H32165   8.281   5.619   5.238 -3.6174  0.6724 -1.9048
  980MOL0     O32166   4.775   9.344   0.810 -0.2219 -0.5222 -0.0337
  980MOL0     C32167   4.823   9.376   0.921  0.4318  0.6236  1.0503
  980MOL0     O32168   4.921   9.464   0.934  0.4097 -0.1196  0.3078
  980MOL0     C32169   4.920   9.570   0.843 -0.2065  0.1817  0.2696
  980MOL0     C32170   4.840   9.679   0.882  0.0559 -0.2989  0.3047
  980MOL0     C32171   4.858   9.800   0.803  0.3532 -0.7860  0.1123
  980MOL0     C32172   4.944   9.801   0.691  0.9792  0.9161  0.4127
  980MOL0     O32173   4.958   9.922   0.614  0.2289  0.0089  0.1308
  980MOL0     C32174   4.872  10.028   0.606 -0.8071  0.0821  0.6175
  980MOL0     C32175   4.903  10.097   0.464  0.3193  0.0982  0.1681
  980MOL0     C32176   4.813  10.226   0.440  0.4228 -0.3140 -0.4477
  980MOL0     C32177   4.866  10.334   0.340  0.1563  1.0672  0.1183
  980MOL0     C32178   4.780  10.456   0.331 -0.4677 -0.1255  0.2888
  980MOL0     C32179   4.819  10.518   0.197 -0.7396  0.0616  0.6493
  980MOL0     C32180   4.785  10.665   0.210 -0.9300 -0.5790  0.2444
  980MOL0     C32181   4.837  10.753   0.101 -0.5745  0.9072 -0.2526
  980MOL0     N32182   4.824  10.898   0.133  0.6306 -0.5428  0.0896
  980MOL0     C32183   4.718  10.959   0.197 -0.0213  0.5682 -0.2070
  980MOL0     C32184   4.768  11.085   0.230  0.7063  0.6765  0.8137
  980MOL0     C32185   4.687  11.184   0.309  0.2230 -0.2190 -0.2337
  980MOL0     C32186   4.556  11.198   0.245 -0.5377 -0.3792  0.3040
  980MOL0     C32187   4.465  11.276   0.342  0.3083  0.4244  0.0099
  980MOL0     C32188   4.346  11.335   0.278  0.4038  0.4870 -0.0697
  980MOL0     O32189   4.382  11.454   0.201 -0.3702 -0.4005 -0.1424
  980MOL0     C32190   4.281  11.544   0.161 -0.0698  0.2903 -0.4064
  980MOL0     C32191   4.148  11.513   0.190 -0.0489 -0.0334  0.2475
  980MOL0     C32192   4.056  11.612   0.174  0.8583 -0.3686 -0.6265
  980MOL0     C32193   4.091  11.731   0.111 -0.7581 -0.2647 -0.4570
  980MOL0     C32194   3.993  11.844   0.081 -0.3895 -0.1346 -0.5821
  980MOL0     O32195   3.864  11.819   0.109 -0.2864  0.3967  0.6228
  980MOL0     C32196   3.775  11.920   0.098  0.4717 -0.1503  0.4937
  980MOL0     C32197   3.718  11.969   0.214 -0.0310 -0.4792 -0.6628
  980MOL0     C32198   3.621  12.069   0.205 -1.2270  0.1331 -0.1780
  980MOL0     C32199   3.587  12.126   0.078  0.1230  0.0553  0.8666
  980MOL0     O32200   3.506  12.231   0.063  0.3223  0.3229  0.1720
  980MOL0     C32201   3.565  12.352   0.115  0.7931  0.1841 -0.9587
  980MOL0     C32202   3.490  12.476   0.062 -0.1740  1.3692 -0.4157
  980MOL0     C32203   3.511  12.605   0.149  0.0482 -0.2563  0.4239
  980MOL0     C32204   3.652  12.670   0.137  0.2567  0.4090  0.0209
  980MOL0     C32205   3.703  12.792   0.215 -0.4802  0.0784  0.0564
  980MOL0     C32206   3.840  12.771   0.261  0.0770 -0.7505  0.1919
  980MOL0     C32207   3.915  12.885   0.340  0.1471  0.2338 -0.0054
  980MOL0     C32208   3.936  13.003   0.248  0.3120  0.6841  0.7079
  980MOL0    Cl32209   4.042  12.944   0.121  0.1329 -0.0833  0.2786
  980MOL0     C32210   3.637  12.063  -0.037  0.3294  0.0639 -0.2950
  980MOL0     C32211   3.731  11.966  -0.032  0.5957  0.9809 -0.2973
  980MOL0     O32212   4.042  11.941   0.027  0.1142 -0.3236  0.5346
  980MOL0     C32213   4.224  11.751   0.066 -0.7253  0.8480  0.3174
  980MOL0     C32214   4.318  11.655   0.093  0.6445  0.9016 -0.1806
  980MOL0     N32215   4.897  11.106   0.189 -0.4336  0.3791  0.1369
  980MOL0     N32216   4.918  10.996   0.131 -0.8217  1.2727 -0.1896
  980MOL0     C32217   5.010   9.678   0.649  0.2620  1.3275  1.1471
  980MOL0     C32218   4.999   9.561   0.729 -0.8166 -1.2698  0.6371
  980MOL0     C32219   4.780   9.299   1.043  0.0822 -1.0918 -0.9406
  980MOL0     C32220   4.880   9.272   1.146  0.3785 -0.3118  0.6545
  980MOL0     C32221   4.844   9.189   1.248 -0.6667 -0.4435  0.3607
  980MOL0     C32222   4.712   9.127   1.263 -0.7463 -0.0958  0.1935
  980MOL0     O32223   4.702   9.044   1.372 -0.1867 -0.1620 -0.1418
  980MOL0     C32224   4.593   9.068   1.459  0.5402 -0.8085  0.3249
  980MOL0     C32225   4.644   9.163   1.573  0.6320 -0.0647  0.1523
  980MOL0     C32226   4.705   9.078   1.685 -0.0900  0.0448 -0.2413
  980MOL0     C32227   4.712   9.144   1.830  0.4900  0.7264 -0.1356
  980MOL0     C32228   4.780   9.275   1.836 -0.6176 -0.4609  0.0487
  980MOL0     C32229   4.832   9.384   1.849 -0.1148 -0.2616 -0.2705
  980MOL0     C32230   4.624   9.169   1.172  0.2446  0.4123  0.0309
  980MOL0     C32231   4.644   9.264   1.069 -0.6182  0.8582  0.1295
  980MOL0     C32232   4.523   9.316   0.991 -0.1110 -0.2471 -0.0948
  980MOL0     H32233   4.770   9.689   0.964  0.6419 -0.1593  0.7951
  980MOL0     H32234   4.793   9.884   0.826  1.9907  1.0236 -1.4097
  980MOL0     H32235   4.768   9.993   0.605 -1.0317  0.7159 -0.7376
  980MOL0     H32236   4.884  10.097   0.690  3.1736  0.3737  0.0056
  980MOL0     H32237   4.872  10.021   0.392 -0.2647 -0.6475  1.1830
  980MOL0     H32238   5.009  10.123   0.453  1.0334 -3.1055 -1.7620
  980MOL0     H32239   4.801  10.279   0.535  3.0542 -2.6659  1.3467
  980MOL0     H32240   4.710  10.199   0.417 -0.4078  2.7987 -0.8279
  980MOL0     H32241   4.968  10.364   0.368  0.0994  0.9957  0.4007
  980MOL0     H32242   4.876  10.288   0.241 -0.4541  3.4141 -1.1023
  980MOL0     H32243   4.678  10.418   0.330 -0.5344 -0.0282  1.4446
  980MOL0     H32244   4.801  10.527   0.412  2.1512  1.1529 -1.3724
  980MOL0     H32245   4.925  10.510   0.170 -0.3616  3.9918  0.2925
  980MOL0     H32246   4.755  10.486   0.115 -0.7021 -0.0696  0.6721
  980MOL0     H32247   4.816  10.708   0.306  1.4351  0.5668 -0.9506
  980MOL0     H32248   4.679  10.691   0.201  0.1520  3.8650 -3.3337
  980MOL0     H32249   4.944  10.739   0.087 -0.9014  1.0366 -3.9199
  980MOL0     H32250   4.788  10.726   0.007  2.9329 -2.5840 -1.3717
  980MOL0     H32251   4.623  10.912   0.221 -0.5504  1.3431 -0.7377
  980MOL0     H32252   4.674  11.145   0.410  0.3740 -1.3423 -0.6335
  980MOL0     H32253   4.731  11.278   0.344  0.9957 -0.6673  0.0275
  980MOL0     H32254   4.572  11.259   0.156 -0.5986 -0.5538  0.1726
  980MOL0     H32255   4.508  11.102   0.226  0.9534 -0.9552 -0.7024
  980MOL0     H32256   4.520  11.353   0.396 -2.9231  3.0300 -0.0860
  980MOL0     H32257   4.439  11.205   0.420  3.6343 -0.0092  0.8632
  980MOL0     H32258   4.273  11.361   0.355  0.6286  1.1194 -0.0623
  980MOL0     H32259   4.304  11.267   0.204 -1.3693  0.6632  0.7167
  980MOL0     H32260   4.116  11.417   0.229  2.9433 -0.9933  0.6544
  980MOL0     H32261   3.952  11.589   0.198  0.8210 -1.3517 -1.6310
  980MOL0     H32262   3.752  11.941   0.313 -2.0835  1.4959  0.7057
  980MOL0     H32263   3.575  12.096   0.299  0.2529 -0.5757  0.7704
  980MOL0     H32264   3.542  12.357   0.222  0.1926  1.6180 -1.1332
  980MOL0     H32265   3.674  12.356   0.125  1.1367 -2.5373 -2.4882
  980MOL0     H32266   3.523  12.497  -0.040 -0.7275 -0.3438 -0.9777
  980MOL0     H32267   3.382  12.467   0.081 -0.1900  2.7696  0.3282
  980MOL0     H32268   3.440  12.680   0.112  3.8725  2.4690 -2.0913
  980MOL0     H32269   3.482  12.585   0.253 -0.9398 -2.9817 -0.2867
  980MOL0     H32270   3.651  12.691   0.029  1.6744  0.6813  0.0449
  980MOL0     H32271   3.726  12.591   0.153  4.3156  3.6807 -1.0474
  980MOL0     H32272   3.637  12.799   0.301 -1.9023 -1.8088 -0.7894
  980MOL0     H32273   3.692  12.885   0.158 -2.8507  0.7096  1.4225
  980MOL0     H32274   3.846  12.685   0.329 -1.7079 -0.9695  0.1074
  980MOL0     H32275   3.895  12.741   0.171 -3.6476 -3.5779 -1.3993
  980MOL0     H32276   4.009  12.852   0.385  0.8366 -1.3873 -2.4239
  980MOL0     H32277   3.854  12.924   0.422 -0.2673 -3.0756  1.4513
  980MOL0     H32278   3.847  13.034   0.192  1.0992  0.2205 -0.8499
  980MOL0     H32279   3.972  13.096   0.292  0.6075  0.1837  1.5314
  980MOL0     H32280   3.586  12.099  -0.126 -1.8489 -3.0893 -0.4878
  980MOL0     H32281   3.773  11.931  -0.126 -0.6291 -0.4194 -0.3674
  980MOL0     H32282   4.253  11.838   0.007  1.1982  0.3618  0.4925
  980MOL0     H32283   4.424  11.673   0.081  1.0459 -0.1045  1.6319
  980MOL0     H32284   5.077   9.664   0.565 -2.4098  1.1164 -1.0713
  980MOL0     H32285   5.039   9.465   0.700 -2.2856 -1.3161 -1.5411
  980MOL0     H32286   4.978   9.317   1.134  0.0984 -0.3286 -2.3560
  980MOL0     H32287   4.925   9.168   1.317  1.6084  0.2893 -1.9499
  980MOL0     H32288   4.541   8.978   1.494  0.3714 -0.5568  0.7292
  980MOL0     H32289   4.517   9.128   1.407 -0.2541 -1.8457  0.2567
  980MOL0     H32290   4.559   9.221   1.610  0.4956 -0.7902  1.0053
  980MOL0     H32291   4.717   9.237   1.537 -1.7662  0.5102 -4.1627
  980MOL0     H32292   4.805   9.062   1.643 -0.2913  3.1462 -2.1630
  980MOL0     H32293   4.657   8.980   1.691  0.2500 -0.1080 -0.0093
  980MOL0     H32294   4.612   9.161   1.872 -0.6932 -2.6043 -1.2418
  980MOL0     H32295   4.752   9.072   1.903  0.5639  1.7660  0.8850
  980MOL0     H32296   4.887   9.476   1.844  0.7367 -0.7499 -0.1452
  980MOL0     H32297   4.525   9.124   1.167 -0.4697  2.0098 -1.9801
  980MOL0     H32298   4.427   9.283   1.029  0.8797  0.0849  2.9407
  980MOL0     H32299   4.536   9.424   1.002  1.2335 -0.3922 -0.0131
  980MOL0     H32300   4.538   9.284   0.887 -0.8570 -1.8336  0.2568
  981MOL0     O32301   4.716  10.987   6.571  0.0198 -0.3532  0.3432
  981MOL0     C32302   4.691  11.012   6.451  0.3496  0.4867  0.0954
  981MOL0     O32303   4.566  10.996   6.396 -0.2181 -0.5079 -0.2093
  981MOL0     C32304   4.451  10.970   6.462  0.5802  0.6131 -0.3571
  981MOL0     C32305   4.359  10.878   6.395 -0.9105 -0.6925 -0.0672
  981MOL0     C32306   4.228  10.866   6.439  0.5317 -0.2042 -0.2962
  981MOL0     C32307   4.182  10.946   6.546 -0.2930  0.4510  0.9289
  981MOL0     O32308   4.051  10.944   6.588  0.1581  0.4900  0.5560
  981MOL0     C32309   3.975  10.821   6.590 -0.0446 -1.2505  0.7063
  981MOL0     C32310   3.832  10.862   6.628  0.5427  0.3450 -0.6027
  981MOL0     C32311   3.740  10.739   6.643 -0.1656 -0.1442 -0.1114
  981MOL0     C32312   3.602  10.805   6.665  0.2622  0.0488 -1.1260
  981MOL0     C32313   3.484  10.698   6.666  0.1417  0.5166  0.4766
  981MOL0     C32314   3.356  10.759   6.612  0.3774  1.0538  0.4257
  981MOL0     C32315   3.240  10.653   6.613 -0.4383  0.0803  0.6173
  981MOL0     C32316   3.109  10.715   6.571  0.9396 -0.2618  0.1375
  981MOL0     N32317   3.025  10.635   6.482  0.8894 -0.4924 -0.1149
  981MOL0     C32318   2.964  10.509   6.498  0.6188 -0.3895 -0.2186
  981MOL0     C32319   2.917  10.478   6.381 -0.1420  0.7658 -0.4468
  981MOL0     C32320   2.871  10.342   6.345 -0.0122  0.4991 -0.6147
  981MOL0     C32321   2.752  10.289   6.431  0.2840 -0.2251  0.5078
  981MOL0     C32322   2.608  10.345   6.392  0.4807  0.5669  0.0278
  981MOL0     C32323   2.602  10.494   6.407  0.1039  0.7535  0.0794
  981MOL0     O32324   2.473  10.557   6.384 -0.2114  0.8552  0.0561
  981MOL0     C32325   2.459  10.692   6.404  0.0384 -0.1019 -0.3244
  981MOL0     C32326   2.527  10.782   6.325 -0.8103  0.7083  1.1213
  981MOL0     C32327   2.492  10.918   6.334 -0.0799  0.3989  0.2502
  981MOL0     C32328   2.395  10.968   6.421  0.4237 -0.2783  0.3724
  981MOL0     C32329   2.372  11.114   6.431 -1.6293 -0.8051 -0.0006
  981MOL0     O32330   2.274  11.159   6.514  0.2016 -0.0290  0.4724
  981MOL0     C32331   2.237  11.290   6.529 -0.6596 -0.2831  0.8490
  981MOL0     C32332   2.158  11.344   6.430 -0.3724  0.8948  0.1234
  981MOL0     C32333   2.107  11.468   6.441 -0.2025  0.9438  0.3519
  981MOL0     C32334   2.126  11.549   6.554  0.4290  0.5473 -0.9901
  981MOL0     O32335   2.064  11.673   6.579 -1.0120  0.2580  0.1585
  981MOL0     C32336   1.928  11.698   6.543  1.3810 -0.1473 -0.6126
  981MOL0     C32337   1.855  11.747   6.671  0.3314  0.3134  0.2568
  981MOL0     C32338   1.841  11.890   6.692 -0.6296 -1.0227  0.4135
  981MOL0     C32339   1.985  11.957   6.696  0.5084  0.7195  0.0918
  981MOL0     C32340   2.003  12.096   6.762  0.1538  1.4488 -0.2907
  981MOL0     C32341   2.152  12.139   6.768 -0.0491 -0.4897  0.2863
  981MOL0     C32342   2.225  12.086   6.884 -0.1641 -0.0187  0.2031
  981MOL0     C32343   2.376  12.154   6.878  0.2602 -0.2090 -0.9125
  981MOL0    Cl32344   2.494  12.089   7.002  0.1260 -0.8521 -0.4524
  981MOL0     C32345   2.192  11.486   6.657  0.5699  0.2650 -0.5006
  981MOL0     C32346   2.251  11.356   6.651 -0.6196  0.2684 -0.2225
  981MOL0     O32347   2.443  11.189   6.359  0.2818 -0.5657 -0.8463
  981MOL0     C32348   2.327  10.871   6.504  0.9332 -0.0055  1.6004
  981MOL0     C32349   2.355  10.734   6.487  0.1255 -0.4302 -0.1041
  981MOL0     N32350   2.959  10.575   6.293 -1.5640 -0.2752 -0.0717
  981MOL0     N32351   3.017  10.672   6.353  0.6902 -0.3300  0.9622
  981MOL0     C32352   4.275  11.037   6.603 -0.3489 -0.5241 -1.0499
  981MOL0     C32353   4.406  11.049   6.566 -0.1826 -0.4491  0.6783
  981MOL0     C32354   4.803  11.033   6.356  0.0706 -0.2771 -0.2636
  981MOL0     C32355   4.776  11.049   6.220  0.2616 -0.6698  0.3658
  981MOL0     C32356   4.868  11.081   6.122 -0.7708  0.4129  0.3282
  981MOL0     C32357   5.003  11.088   6.159 -0.8223 -0.1355  0.5072
  981MOL0     O32358   5.117  11.115   6.083  0.2127  0.3952  0.0021
  981MOL0     C32359   5.134  11.013   5.975 -0.9153 -0.8516 -0.9873
  981MOL0     C32360   5.273  11.040   5.909  0.1608  0.3921  0.2808
  981MOL0     C32361   5.309  10.925   5.810 -0.1664  0.1200 -0.0930
  981MOL0     C32362   5.231  10.937   5.676 -0.2929  0.2728  0.3004
  981MOL0     C32363   5.251  11.062   5.600  0.5328 -0.4716  0.0666
  981MOL0     C32364   5.257  11.159   5.527 -1.4496  0.2250 -0.1574
  981MOL0     C32365   5.027  11.086   6.297 -0.2518 -1.3512 -0.1238
  981MOL0     C32366   4.936  11.052   6.391  0.1143 -0.9100  0.5367
  981MOL0     C32367   4.989  11.046   6.530  0.1955  0.9371 -0.3893
  981MOL0     H32368   4.392  10.822   6.308  1.5724 -1.6281  1.3583
  981MOL0     H32369   4.162  10.806   6.377  1.8279  1.3169 -3.3439
  981MOL0     H32370   3.976  10.769   6.494  3.0288  0.6008 -0.4123
  981MOL0     H32371   4.018  10.751   6.662  0.9396 -4.9808 -3.0859
  981MOL0     H32372   3.785  10.939   6.566 -0.7788  1.2232  1.3625
  981MOL0     H32373   3.837  10.922   6.719  2.8147  0.8926 -1.0507
  981MOL0     H32374   3.777  10.686   6.731 -0.5532 -0.0725  0.0984
  981MOL0     H32375   3.735  10.679   6.552  1.6622  0.3604 -0.5861
  981MOL0     H32376   3.607  10.850   6.765  1.4212 -0.4150 -0.9702
  981MOL0     H32377   3.590  10.875   6.582  0.5977  0.0015 -1.2124
  981MOL0     H32378   3.489  10.604   6.610 -1.6186  0.2957  0.6230
  981MOL0     H32379   3.471  10.659   6.767  0.9896  2.2624  1.2952
  981MOL0     H32380   3.332  10.844   6.676  0.0927  2.5863 -1.5923
  981MOL0     H32381   3.378  10.790   6.509  3.9498  0.5777  0.9350
  981MOL0     H32382   3.230  10.614   6.715 -0.3153 -1.6573 -0.0015
  981MOL0     H32383   3.257  10.564   6.551 -1.2767  2.8612 -4.0819
  981MOL0     H32384   3.049  10.735   6.660 -1.3673 -1.7851 -0.9408
  981MOL0     H32385   3.138  10.803   6.514  0.5037 -2.7352 -4.4119
  981MOL0     H32386   2.967  10.438   6.580  1.5867 -1.6450 -1.2994
  981MOL0     H32387   2.847  10.340   6.238  2.6064  0.3850 -1.2634
  981MOL0     H32388   2.948  10.267   6.365 -1.1551  0.1442  3.2584
  981MOL0     H32389   2.750  10.181   6.414 -1.1459 -0.2499  0.7412
  981MOL0     H32390   2.769  10.308   6.538  0.8230  1.1285  0.1907
  981MOL0     H32391   2.537  10.307   6.466  0.3671  1.6649  0.5048
  981MOL0     H32392   2.579  10.323   6.289 -0.7711  3.0793 -0.2466
  981MOL0     H32393   2.662  10.532   6.324 -0.7070  1.5888 -0.1373
  981MOL0     H32394   2.631  10.518   6.510 -1.0455  0.1826  0.5508
  981MOL0     H32395   2.612  10.757   6.261 -0.9119  2.7227  0.1211
  981MOL0     H32396   2.545  10.990   6.272 -3.9527  1.3817 -2.2589
  981MOL0     H32397   2.152  11.288   6.337  3.8650  0.6637 -0.2019
  981MOL0     H32398   2.042  11.497   6.359  0.1097 -0.5296 -0.4646
  981MOL0     H32399   1.920  11.756   6.451 -1.1440 -0.9137 -0.9548
  981MOL0     H32400   1.875  11.604   6.525 -0.3356  0.5883  0.4009
  981MOL0     H32401   1.752  11.710   6.666 -0.3080  2.0037  0.1849
  981MOL0     H32402   1.903  11.710   6.761  1.0738  0.9781  0.1540
  981MOL0     H32403   1.782  11.931   6.610  2.3029 -0.1744 -1.3969
  981MOL0     H32404   1.785  11.897   6.786  0.6789 -1.8911  1.2891
  981MOL0     H32405   2.011  11.954   6.589 -1.7022  1.5674 -0.5229
  981MOL0     H32406   2.052  11.888   6.749  2.2557  2.2944  0.0290
  981MOL0     H32407   1.968  12.074   6.863  1.4627 -1.2449 -0.3564
  981MOL0     H32408   1.945  12.170   6.706  1.1838  2.7869  0.3348
  981MOL0     H32409   2.207  12.105   6.680  0.0534 -0.0283  0.1705
  981MOL0     H32410   2.152  12.249   6.772  1.2794 -0.2373 -3.3147
  981MOL0     H32411   2.230  11.977   6.895 -2.7707 -0.6064 -3.0834
  981MOL0     H32412   2.177  12.122   6.976 -1.6637 -0.9138 -0.1996
  981MOL0     H32413   2.412  12.130   6.777 -1.0854  0.9596 -1.7116
  981MOL0     H32414   2.372  12.263   6.886 -0.3124 -0.2094 -1.1259
  981MOL0     H32415   2.198  11.542   6.750  2.0926 -1.4541  0.5262
  981MOL0     H32416   2.304  11.306   6.731 -0.6297  0.0020 -0.3813
  981MOL0     H32417   2.260  10.906   6.582  2.9110  0.8049  3.0065
  981MOL0     H32418   2.311  10.666   6.560 -2.9057 -0.3207 -1.6927
  981MOL0     H32419   4.240  11.111   6.674  2.7450  0.5141 -0.4209
  981MOL0     H32420   4.482  11.102   6.621 -0.1614 -1.9665  2.1869
  981MOL0     H32421   4.675  11.044   6.181  0.7893 -2.0827 -0.9367
  981MOL0     H32422   4.855  11.102   6.017  3.4363  2.4431 -0.0126
  981MOL0     H32423   5.048  11.024   5.908 -1.7840 -0.2910  0.1825
  981MOL0     H32424   5.132  10.918   6.028 -1.3471 -0.7912 -0.8948
  981MOL0     H32425   5.348  11.028   5.987 -2.0208 -1.3116  2.2791
  981MOL0     H32426   5.272  11.139   5.862 -1.8127  0.0114 -0.6021
  981MOL0     H32427   5.290  10.825   5.850  1.2681  0.3236  1.1800
  981MOL0     H32428   5.416  10.929   5.791 -0.1662  0.8502  0.0325
  981MOL0     H32429   5.268  10.855   5.614 -1.6132 -2.4191  2.8514
  981MOL0     H32430   5.127  10.909   5.696  0.8325 -2.3242  3.5741
  981MOL0     H32431   5.261  11.241   5.459  3.5383  2.0448  1.8240
  981MOL0     H32432   5.125  11.121   6.330 -1.5602  0.7986  1.8238
  981MOL0     H32433   4.957  11.130   6.592 -0.0918  0.7572 -0.2932
  981MOL0     H32434   4.964  10.952   6.581  1.1053  1.9979  2.1387
  981MOL0     H32435   5.098  11.051   6.530  0.2203  0.4260 -0.4164
  982MOL0     O32436   2.529   5.052  11.451 -0.1297 -0.0147  0.0118
  982MOL0     C32437   2.462   5.145  11.492 -0.2547 -0.7740  0.0487
  982MOL0     O32438   2.331   5.154  11.488 -0.4860 -1.0440 -0.2908
  982MOL0     C32439   2.266   5.037  11.490  0.3196  0.3898  0.0525
  982MOL0     C32440   2.224   4.984  11.614  0.3246 -0.4584  0.2436
  982MOL0     C32441   2.139   4.863  11.606  0.1628 -1.0703  0.0953
  982MOL0     C32442   2.105   4.810  11.481  0.4144  0.1985  0.1859
  982MOL0     O32443   2.015   4.705  11.482 -0.3929 -0.1294  0.1958
  982MOL0     C32444   2.000   4.619  11.367  0.2287  1.3659  0.1873
  982MOL0     C32445   1.912   4.502  11.418 -0.0353  0.1536  0.1524
  982MOL0     C32446   1.831   4.448  11.295  0.5395  0.2835  0.1807
  982MOL0     C32447   1.726   4.338  11.318 -0.5281 -0.5638 -0.4849
  982MOL0     C32448   1.666   4.286  11.190  0.1228  0.3179  1.0472
  982MOL0     C32449   1.532   4.210  11.209  0.0321 -0.1223  0.3528
  982MOL0     C32450   1.546   4.064  11.259  0.2103 -0.2893  0.1792
  982MOL0     C32451   1.628   3.974  11.144  0.4202 -1.3540  0.4577
  982MOL0     N32452   1.584   3.838  11.160 -0.5547  1.4386 -0.2179
  982MOL0     C32453   1.602   3.747  11.268  0.1306  0.1560  0.2389
  982MOL0     C32454   1.553   3.625  11.224 -0.3441  0.0574 -0.1122
  982MOL0     C32455   1.552   3.497  11.298  0.0738  0.2039  0.1637
  982MOL0     C32456   1.635   3.385  11.215 -0.4460 -0.8037 -0.8128
  982MOL0     C32457   1.789   3.391  11.232  0.4189 -0.1109 -0.2710
  982MOL0     C32458   1.862   3.256  11.212 -0.7929  0.5757 -0.1163
  982MOL0     O32459   1.825   3.200  11.090 -0.2696 -0.1268 -0.5440
  982MOL0     C32460   1.908   3.243  10.992 -0.2293  0.1713  0.5270
  982MOL0     C32461   2.047   3.223  10.994  0.4742  1.4213  0.1062
  982MOL0     C32462   2.122   3.243  10.875 -0.7240  0.2545 -0.0526
  982MOL0     C32463   2.062   3.294  10.755  0.1854  0.3161 -1.0501
  982MOL0     C32464   2.146   3.329  10.638 -0.1318  0.3697 -0.5216
  982MOL0     O32465   2.087   3.400  10.535  0.1838  0.4322  0.3164
  982MOL0     C32466   2.163   3.452  10.424  0.1010  0.2725  0.9317
  982MOL0     C32467   2.091   3.476  10.299 -0.1138 -0.7267  0.1081
  982MOL0     C32468   2.155   3.522  10.189  0.1642  0.3652  0.4825
  982MOL0     C32469   2.298   3.551  10.196 -0.4259  1.0740 -0.4338
  982MOL0     O32470   2.377   3.591  10.091 -1.0901 -0.0754 -0.0923
  982MOL0     C32471   2.340   3.578   9.954 -0.7235 -0.1214  0.6283
  982MOL0     C32472   2.472   3.557   9.873  0.3741  0.9089 -1.3132
  982MOL0     C32473   2.457   3.544   9.724 -0.4073 -0.1678 -0.2105
  982MOL0     C32474   2.326   3.598   9.653 -0.0416 -0.1712 -0.7233
  982MOL0     C32475   2.317   3.570   9.506 -0.4238 -1.6299  0.4488
  982MOL0     C32476   2.334   3.426   9.468 -0.1390  0.7424 -0.4170
  982MOL0     C32477   2.209   3.346   9.504 -0.3891 -0.2226 -0.4249
  982MOL0     C32478   2.197   3.232   9.407 -1.2478 -0.3027  0.0627
  982MOL0    Cl32479   2.329   3.118   9.456 -0.2444 -0.3977 -0.2420
  982MOL0     C32480   2.353   3.541  10.324 -0.7175  0.0249 -0.6672
  982MOL0     C32481   2.298   3.484  10.426 -0.0066 -0.7932 -0.6114
  982MOL0     O32482   2.265   3.296  10.650 -0.2191 -0.3989  0.6724
  982MOL0     C32483   1.924   3.306  10.754  0.4935  0.2986 -0.2370
  982MOL0     C32484   1.852   3.285  10.873 -0.0644  0.3398  0.3213
  982MOL0     N32485   1.505   3.639  11.096  0.1104 -0.3896 -0.2957
  982MOL0     N32486   1.517   3.763  11.062 -1.2457 -0.4161  0.3082
  982MOL0     C32487   2.154   4.865  11.362 -0.0836 -0.0515 -0.2306
  982MOL0     C32488   2.236   4.973  11.369  0.1413 -0.1639 -0.1794
  982MOL0     C32489   2.527   5.248  11.572 -0.2354 -0.2051  0.2620
  982MOL0     C32490   2.645   5.216  11.644 -0.0879  0.1233 -1.2167
  982MOL0     C32491   2.715   5.315  11.711  0.9443  0.1206 -0.5369
  982MOL0     C32492   2.654   5.449  11.730  0.0338  0.8471  0.7442
  982MOL0     O32493   2.716   5.553  11.800 -0.3720  0.2477 -0.5569
  982MOL0     C32494   2.857   5.561  11.800  0.3498  0.1280 -0.7081
  982MOL0     C32495   2.925   5.599  11.669  0.3770  0.7071  0.7123
  982MOL0     C32496   3.076   5.615  11.698 -0.1732  1.2193 -0.3616
  982MOL0     C32497   3.132   5.736  11.776  0.2717  0.3482  0.1198
  982MOL0     C32498   3.179   5.826  11.669 -0.0615 -0.6744  0.5991
  982MOL0     C32499   3.203   5.899  11.580  0.4463 -1.0634 -0.7653
  982MOL0     C32500   2.536   5.473  11.659  1.4652 -0.1058 -0.3998
  982MOL0     C32501   2.474   5.377  11.582 -0.2067 -0.1124  0.0223
  982MOL0     C32502   2.372   5.437  11.490 -0.0462 -1.6307  1.1261
  982MOL0     H32503   2.247   5.036  11.707  0.9133 -0.6424  0.2010
  982MOL0     H32504   2.089   4.816  11.690 -2.5143  1.0134 -0.1664
  982MOL0     H32505   1.946   4.672  11.288 -0.6960  1.8463  1.1180
  982MOL0     H32506   2.091   4.581  11.318 -2.3702  0.0462 -4.1338
  982MOL0     H32507   1.843   4.531  11.497 -2.4160 -2.8602 -0.5912
  982MOL0     H32508   1.976   4.423  11.457 -1.6972 -2.0093 -1.2314
  982MOL0     H32509   1.913   4.419  11.228 -0.3779  2.1080 -1.8925
  982MOL0     H32510   1.781   4.528  11.239  0.7137  1.1438  1.2244
  982MOL0     H32511   1.780   4.253  11.361  0.6383  0.7679  0.7395
  982MOL0     H32512   1.650   4.378  11.386 -0.6897 -0.6026 -0.6389
  982MOL0     H32513   1.649   4.382  11.141 -0.7753  0.8915  2.4460
  982MOL0     H32514   1.732   4.229  11.123  0.7901  0.4971  1.5381
  982MOL0     H32515   1.471   4.268  11.279  2.1781  4.6999 -1.2938
  982MOL0     H32516   1.468   4.216  11.121 -1.5614  0.8858  1.5221
  982MOL0     H32517   1.446   4.026  11.282  0.1712  1.1237  2.6662
  982MOL0     H32518   1.595   4.058  11.356 -0.3725  1.0877  0.5844
  982MOL0     H32519   1.590   4.012  11.049 -0.0233  3.5492  2.3103
  982MOL0     H32520   1.737   3.984  11.149  0.2026  0.6687  2.8042
  982MOL0     H32521   1.645   3.773  11.365 -2.1631 -1.0281  1.6656
  982MOL0     H32522   1.591   3.502  11.400  2.8268  1.8624 -0.8490
  982MOL0     H32523   1.447   3.466  11.302 -0.3666  1.7413  2.1405
  982MOL0     H32524   1.603   3.292  11.263 -0.0729  0.3866  1.8714
  982MOL0     H32525   1.603   3.393  11.110 -3.2109  1.5946  0.0809
  982MOL0     H32526   1.815   3.421  11.334 -1.7879 -2.6404  1.1473
  982MOL0     H32527   1.834   3.465  11.165 -2.9933 -0.8057 -3.7121
  982MOL0     H32528   1.838   3.190  11.296  2.1159 -0.4608 -0.0001
  982MOL0     H32529   1.970   3.264  11.227 -1.0826  2.2779  1.5696
  982MOL0     H32530   2.091   3.171  11.078 -1.2355 -1.7356 -0.7985
  982MOL0     H32531   2.230   3.227  10.875 -0.0869  3.6093  2.0062
  982MOL0     H32532   1.984   3.458  10.298 -1.3135  4.6277 -2.1221
  982MOL0     H32533   2.094   3.527  10.100  1.3339 -2.2848 -0.5689
  982MOL0     H32534   2.269   3.502   9.920 -0.9419  0.8092 -1.1340
  982MOL0     H32535   2.303   3.673   9.914  1.5061 -0.1879 -1.9411
  982MOL0     H32536   2.540   3.640   9.898 -2.7791  2.5543  2.9198
  982MOL0     H32537   2.519   3.463   9.904 -1.1604  1.4099  3.1992
  982MOL0     H32538   2.546   3.583   9.674 -0.9807  0.5012 -0.7251
  982MOL0     H32539   2.469   3.436   9.710  1.7432  0.2994 -2.6499
  982MOL0     H32540   2.333   3.706   9.667  1.6458 -0.5483  2.2443
  982MOL0     H32541   2.243   3.552   9.708  0.0115  0.4491 -0.1112
  982MOL0     H32542   2.383   3.634   9.447 -2.7885 -1.9943 -2.8876
  982MOL0     H32543   2.214   3.592   9.478 -1.1830 -1.8488  2.8869
  982MOL0     H32544   2.337   3.424   9.359 -4.3582 -1.6305 -0.6776
  982MOL0     H32545   2.425   3.384   9.514 -0.6605  3.4173  3.4702
  982MOL0     H32546   2.114   3.399   9.505 -0.0167  0.4495  0.5931
  982MOL0     H32547   2.223   3.309   9.606  0.6498  1.2145 -0.0049
  982MOL0     H32548   2.100   3.184   9.419 -1.2847 -0.2628 -0.0723
  982MOL0     H32549   2.211   3.274   9.306  2.6566 -0.4461  0.3988
  982MOL0     H32550   2.454   3.578  10.336 -1.9247  4.2371 -1.7475
  982MOL0     H32551   2.348   3.469  10.521  0.7128 -4.9728 -1.4407
  982MOL0     H32552   1.859   3.326  10.669 -0.4929 -1.5769  0.0096
  982MOL0     H32553   1.744   3.296  10.878 -0.0814  0.0305  0.6051
  982MOL0     H32554   2.141   4.824  11.262 -0.9429 -2.4043  0.7601
  982MOL0     H32555   2.260   5.012  11.271 -1.3581  0.2898 -0.3848
  982MOL0     H32556   2.677   5.113  11.650 -1.0832 -0.1340  1.5668
  982MOL0     H32557   2.800   5.294  11.776  0.8320 -1.2795 -0.8104
  982MOL0     H32558   2.892   5.470  11.850 -0.1647  1.6573  2.7206
  982MOL0     H32559   2.888   5.634  11.875 -0.0912 -0.3534 -0.0387
  982MOL0     H32560   2.881   5.689  11.625  1.7910 -0.0203 -2.4756
  982MOL0     H32561   2.913   5.521  11.594  0.5977  2.0239 -0.7351
  982MOL0     H32562   3.123   5.603  11.600  1.9379 -2.0782  0.8653
  982MOL0     H32563   3.105   5.524  11.752 -2.1947  0.6985 -0.0643
  982MOL0     H32564   3.056   5.788  11.835 -1.3570 -0.0641 -1.5345
  982MOL0     H32565   3.217   5.714  11.842  0.3527 -1.5398 -0.5504
  982MOL0     H32566   3.241   5.961  11.501 -1.0505 -0.4898 -1.0665
  982MOL0     H32567   2.489   5.571  11.654 -0.3369 -0.9823 -3.1863
  982MOL0     H32568   2.407   5.525  11.436 -0.8081 -1.7105  0.4807
  982MOL0     H32569   2.334   5.374  11.409  2.4006 -1.8004  0.0098
  982MOL0     H32570   2.292   5.484  11.548  0.4267  2.0156 -0.9286
  983MOL0     O32571   4.140   3.662   3.388 -0.1294 -0.2094 -0.0300
  983MOL0     C32572   4.152   3.546   3.429 -0.3230  0.3594 -1.0269
  983MOL0     O32573   4.196   3.440   3.354  0.1964 -0.0539 -0.0008
  983MOL0     C32574   4.190   3.443   3.222 -0.3697 -0.1974 -0.3422
  983MOL0     C32575   4.088   3.509   3.148 -0.1638  0.1851 -0.3899
  983MOL0     C32576   4.091   3.516   3.016  1.1824  0.4118 -0.1225
  983MOL0     C32577   4.174   3.446   2.939 -0.9411  0.2482 -0.7068
  983MOL0     O32578   4.153   3.443   2.801 -0.3807  0.0639  0.4561
  983MOL0     C32579   4.258   3.408   2.715  0.1718  1.6941 -0.3830
  983MOL0     C32580   4.228   3.433   2.562 -0.3153  0.0413 -0.1041
  983MOL0     C32581   4.189   3.590   2.545  0.4943  0.2459 -1.0072
  983MOL0     C32582   4.205   3.625   2.392  0.6825 -0.0849  0.0405
  983MOL0     C32583   4.119   3.554   2.291  0.0678 -0.0191 -0.1316
  983MOL0     C32584   3.964   3.564   2.320 -0.4310  0.7498 -0.7758
  983MOL0     C32585   3.883   3.507   2.208 -0.2459 -0.2585 -0.1971
  983MOL0     C32586   3.737   3.539   2.245 -0.1503  0.0196  0.2746
  983MOL0     N32587   3.648   3.446   2.171  0.1391 -0.2982 -0.1875
  983MOL0     C32588   3.563   3.479   2.061 -0.2621 -0.4337 -0.6593
  983MOL0     C32589   3.503   3.366   2.029 -0.1785 -0.6720 -0.4383
  983MOL0     C32590   3.398   3.365   1.930 -0.2820  0.2448  0.2315
  983MOL0     C32591   3.446   3.271   1.812  0.5775 -0.5569 -0.6620
  983MOL0     C32592   3.564   3.336   1.729  0.1480 -0.3611 -0.3859
  983MOL0     C32593   3.607   3.248   1.611 -0.0673  0.6186 -0.2801
  983MOL0     O32594   3.502   3.232   1.513  0.3045 -0.1624 -0.3617
  983MOL0     C32595   3.505   3.126   1.428 -0.3224 -1.0016  0.8804
  983MOL0     C32596   3.589   3.016   1.425  0.5265  0.8192  1.0342
  983MOL0     C32597   3.567   2.906   1.337  0.1663 -0.3584  0.1281
  983MOL0     C32598   3.451   2.893   1.263 -0.1730 -0.7694 -0.3726
  983MOL0     C32599   3.434   2.787   1.172  0.2187 -0.3005  0.2204
  983MOL0     O32600   3.320   2.796   1.083  1.0036 -0.8765 -0.0095
  983MOL0     C32601   3.298   2.696   0.995 -0.0813  0.2049  0.2243
  983MOL0     C32602   3.298   2.562   1.016  0.3329  0.7405  0.5059
  983MOL0     C32603   3.273   2.468   0.908 -0.7583 -0.4525 -0.4498
  983MOL0     C32604   3.253   2.506   0.777  1.1669  0.4068  0.7203
  983MOL0     O32605   3.233   2.413   0.678  0.2265 -0.0136  1.1899
  983MOL0     C32606   3.099   2.402   0.632  0.0973 -0.3059  0.0482
  983MOL0     C32607   2.989   2.358   0.726 -0.1796  0.2861 -0.0992
  983MOL0     C32608   2.842   2.347   0.676  0.4323 -0.4167  0.4117
  983MOL0     C32609   2.779   2.475   0.606  0.5103 -0.2861 -0.4634
  983MOL0     C32610   2.630   2.501   0.652 -0.1982 -0.1112 -0.3838
  983MOL0     C32611   2.623   2.576   0.789  1.4534 -0.2200 -0.3410
  983MOL0     C32612   2.478   2.557   0.846 -0.2062 -0.6591  0.6133
  983MOL0     C32613   2.454   2.657   0.956  0.6053  0.3914 -0.9834
  983MOL0    Cl32614   2.285   2.633   1.001 -0.0482 -0.0141  0.0310
  983MOL0     C32615   3.257   2.644   0.753 -0.8815  0.4045 -0.2100
  983MOL0     C32616   3.287   2.737   0.855  0.6046  1.0890 -0.5682
  983MOL0     O32617   3.520   2.696   1.172 -0.3729  0.2406  0.8999
  983MOL0     C32618   3.371   3.004   1.266  0.3695  0.6102 -0.1219
  983MOL0     C32619   3.395   3.120   1.342  0.2852 -0.5958 -0.2043
  983MOL0     N32620   3.563   3.259   2.100  0.2866  0.5392  0.5257
  983MOL0     N32621   3.650   3.315   2.181 -0.2298 -0.2480 -0.5728
  983MOL0     C32622   4.281   3.373   3.004 -0.1549 -0.1239  0.5139
  983MOL0     C32623   4.278   3.370   3.145 -0.4253 -0.2700  0.7471
  983MOL0     C32624   4.115   3.510   3.565  0.6106  0.4911  0.9599
  983MOL0     C32625   4.134   3.381   3.611  0.0431  0.0729  0.3126
  983MOL0     C32626   4.099   3.343   3.737 -0.1066  0.4556  0.1170
  983MOL0     C32627   4.014   3.416   3.814  0.1940  1.0453 -0.6782
  983MOL0     O32628   3.963   3.379   3.939  0.1308 -1.2936  0.4300
  983MOL0     C32629   3.938   3.244   3.968  0.7805  0.3671  0.3432
  983MOL0     C32630   3.932   3.226   4.113 -0.2380 -0.1718 -0.1662
  983MOL0     C32631   3.870   3.093   4.154  0.2680 -0.1206 -0.3727
  983MOL0     C32632   3.877   3.081   4.305  0.5422  0.2439  0.1868
  983MOL0     C32633   3.783   3.166   4.376 -0.1182 -0.6786 -0.3645
  983MOL0     C32634   3.715   3.252   4.437  0.2069 -0.7154  0.0020
  983MOL0     C32635   3.970   3.536   3.769  0.3333 -0.6776 -0.2256
  983MOL0     C32636   4.017   3.587   3.644  0.1941 -0.5908  0.7224
  983MOL0     C32637   3.995   3.739   3.629 -1.0856  0.7169  0.2298
  983MOL0     H32638   4.005   3.551   3.205  0.6437  2.3294 -0.7002
  983MOL0     H32639   4.008   3.572   2.975 -0.2948 -1.2442  0.4775
  983MOL0     H32640   4.344   3.463   2.753  1.6443  1.0931 -2.5935
  983MOL0     H32641   4.280   3.301   2.719  1.3649  1.9692  1.7449
  983MOL0     H32642   4.154   3.360   2.529 -0.1950 -0.2223  0.2026
  983MOL0     H32643   4.316   3.414   2.500 -1.1328 -0.7717 -1.0624
  983MOL0     H32644   4.264   3.641   2.606  1.2784 -1.9951  0.0188
  983MOL0     H32645   4.091   3.623   2.580  1.5504  4.1254 -1.2285
  983MOL0     H32646   4.176   3.731   2.395  0.3017 -0.1735 -0.3922
  983MOL0     H32647   4.311   3.612   2.370  0.9985 -0.1352  1.4793
  983MOL0     H32648   4.155   3.583   2.192  1.8971 -3.8146 -0.7756
  983MOL0     H32649   4.139   3.447   2.292  1.3526  0.1905  0.8949
  983MOL0     H32650   3.959   3.497   2.408  0.1392 -0.0519 -1.3355
  983MOL0     H32651   3.937   3.669   2.334 -3.5706 -0.1918  1.2532
  983MOL0     H32652   3.895   3.399   2.201  2.4289 -0.2119  1.9421
  983MOL0     H32653   3.932   3.540   2.116  2.6046  1.8021  1.8778
  983MOL0     H32654   3.716   3.523   2.351 -0.3712 -0.4267  0.1619
  983MOL0     H32655   3.715   3.642   2.214 -0.4298 -0.2148 -0.3131
  983MOL0     H32656   3.539   3.578   2.023 -4.1731  0.1254  2.5722
  983MOL0     H32657   3.304   3.323   1.967  0.3696  0.0469  1.7712
  983MOL0     H32658   3.383   3.466   1.892  1.3039 -0.5947 -2.9650
  983MOL0     H32659   3.468   3.176   1.862  3.5579  0.5796  0.4130
  983MOL0     H32660   3.359   3.263   1.746 -1.5012 -1.1290  1.9883
  983MOL0     H32661   3.650   3.345   1.797 -0.8845  0.6815  0.8354
  983MOL0     H32662   3.536   3.436   1.695 -0.9244 -1.4049 -2.7682
  983MOL0     H32663   3.636   3.154   1.660 -3.7643  0.3073  1.6847
  983MOL0     H32664   3.702   3.286   1.572  1.1042  0.9195  2.5591
  983MOL0     H32665   3.686   3.018   1.473  1.1793  0.2149 -0.1877
  983MOL0     H32666   3.644   2.829   1.338  1.7551  1.1696  1.7143
  983MOL0     H32667   3.301   2.522   1.116 -0.2235  0.1915  0.3122
  983MOL0     H32668   3.279   2.366   0.944 -0.4628  0.1996  1.5087
  983MOL0     H32669   3.073   2.499   0.590  2.8092  0.9296  0.9857
  983MOL0     H32670   3.092   2.332   0.548 -1.5753 -1.1994  0.8948
  983MOL0     H32671   3.020   2.265   0.775 -0.8034  1.0300  1.7940
  983MOL0     H32672   2.999   2.429   0.808  0.3147 -2.1628  2.1103
  983MOL0     H32673   2.837   2.273   0.595  0.8218  1.0919 -1.0527
  983MOL0     H32674   2.783   2.312   0.762 -0.7446 -0.0728 -0.2320
  983MOL0     H32675   2.778   2.470   0.496  1.4132 -0.2034 -0.4860
  983MOL0     H32676   2.830   2.567   0.637 -1.1735  0.6430 -0.3446
  983MOL0     H32677   2.580   2.404   0.655  1.0542 -0.8434 -1.7975
  983MOL0     H32678   2.588   2.572   0.579 -0.6446 -1.6479 -1.6615
  983MOL0     H32679   2.681   2.528   0.869  0.3549 -0.3810  0.3810
  983MOL0     H32680   2.656   2.680   0.780  1.3347 -0.1792 -0.3020
  983MOL0     H32681   2.456   2.456   0.882  0.1553 -1.4100 -1.1625
  983MOL0     H32682   2.401   2.586   0.774  0.4078 -1.2300 -0.2917
  983MOL0     H32683   2.529   2.634   1.032  0.8740  1.4088 -0.9263
  983MOL0     H32684   2.466   2.762   0.925  0.3037 -0.0887 -2.8667
  983MOL0     H32685   3.248   2.682   0.652  2.3254 -0.5827 -0.9699
  983MOL0     H32686   3.300   2.844   0.840  1.0186  2.0939  4.8644
  983MOL0     H32687   3.288   3.001   1.196  0.8008 -0.6545 -0.6000
  983MOL0     H32688   3.324   3.202   1.338 -0.3616 -1.1913 -1.3555
  983MOL0     H32689   4.364   3.327   2.951 -1.0275 -0.3157 -0.7178
  983MOL0     H32690   4.357   3.323   3.202 -1.7714 -2.6292  0.8001
  983MOL0     H32691   4.197   3.313   3.554  0.8719 -0.0400  1.3226
  983MOL0     H32692   4.142   3.253   3.780 -3.4483 -3.1669 -3.3321
  983MOL0     H32693   4.012   3.180   3.920  0.1787  1.0253 -1.5783
  983MOL0     H32694   3.843   3.215   3.922  1.0209  0.5430 -0.2715
  983MOL0     H32695   3.879   3.315   4.151  1.0046 -0.0127  1.2961
  983MOL0     H32696   4.035   3.241   4.148 -0.6791  2.0084  0.3607
  983MOL0     H32697   3.941   3.017   4.119  4.3314  2.4220  1.5270
  983MOL0     H32698   3.772   3.067   4.114  1.8136 -3.9498 -2.1566
  983MOL0     H32699   3.847   2.977   4.314 -2.3279  0.6614 -2.6762
  983MOL0     H32700   3.981   3.109   4.325  1.3540  0.0277 -3.1275
  983MOL0     H32701   3.644   3.314   4.488  2.9557  0.1293  3.1484
  983MOL0     H32702   3.910   3.601   3.831  1.9141  0.4759  0.1788
  983MOL0     H32703   3.909   3.773   3.687 -0.6935 -0.6013  1.6706
  983MOL0     H32704   4.083   3.803   3.639  0.5841 -1.5267  0.8402
  983MOL0     H32705   3.960   3.753   3.527 -1.2431  0.7485  0.2876
  984MOL0     O32706  10.711   4.052   5.973  0.2225  0.3156 -0.3538
  984MOL0     C32707  10.831   4.018   5.948  0.8865  0.1496 -0.2988
  984MOL0     O32708  10.923   3.989   6.040  0.3421 -0.0426  0.0053
  984MOL0     C32709  10.897   3.982   6.181  0.8371 -0.5532  0.3652
  984MOL0     C32710  10.942   3.869   6.249 -0.4000  0.4176  0.1423
  984MOL0     C32711  10.934   3.850   6.389  0.3832 -0.0538  0.4069
  984MOL0     C32712  10.901   3.962   6.466  0.5595 -0.5872 -0.2028
  984MOL0     O32713  10.886   3.964   6.601  0.1949  0.4374  0.2934
  984MOL0     C32714  10.907   3.843   6.675 -0.4156  0.4483  0.0213
  984MOL0     C32715  10.923   3.863   6.834  0.3533 -0.3959 -0.1338
  984MOL0     C32716  11.049   3.934   6.872 -0.8903  0.0949 -0.8666
  984MOL0     C32717  11.050   3.984   7.018 -0.3362 -0.0953  0.0786
  984MOL0     C32718  11.189   4.048   7.054  0.2202 -0.2558  0.0961
  984MOL0     C32719  11.214   4.178   6.979  0.4358  0.0520 -1.4192
  984MOL0     C32720  11.253   4.283   7.088  0.5248  0.1811  0.7756
  984MOL0     C32721  11.314   4.418   7.049 -0.1228 -0.5439 -0.2815
  984MOL0     N32722  11.279   4.520   7.145  0.0344  0.5902  0.5520
  984MOL0     C32723  11.362   4.571   7.239  0.1681 -0.6716  0.4214
  984MOL0     C32724  11.285   4.655   7.315  0.8477  1.3803  0.5951
  984MOL0     C32725  11.314   4.725   7.442 -0.5407 -0.5081  1.2050
  984MOL0     C32726  11.368   4.636   7.549 -1.2861 -0.5327 -0.2183
  984MOL0     C32727  11.300   4.486   7.554  0.3115 -1.0228 -0.3443
  984MOL0     C32728  11.348   4.398   7.662 -0.6155 -0.7613 -0.4851
  984MOL0     O32729  11.269   4.277   7.669 -0.0590 -0.5911  0.6730
  984MOL0     C32730  11.294   4.181   7.565 -0.6467  0.0626  0.1799
  984MOL0     C32731  11.413   4.174   7.481 -0.5040  0.5820  0.3028
  984MOL0     C32732  11.424   4.070   7.383 -0.0559  0.1739  0.5634
  984MOL0     C32733  11.329   3.965   7.375  0.8183 -0.5163 -0.9983
  984MOL0     C32734  11.346   3.851   7.291 -0.0890 -0.1009 -0.7573
  984MOL0     O32735  11.274   3.738   7.318  0.0487 -0.0474 -0.4418
  984MOL0     C32736  11.310   3.624   7.266 -0.3004 -0.4575  0.3660
  984MOL0     C32737  11.424   3.552   7.299  0.0319  0.8581 -0.4310
  984MOL0     C32738  11.462   3.445   7.217 -0.1369 -0.8403 -1.5761
  984MOL0     C32739  11.378   3.409   7.107 -0.5452 -0.5301 -0.2870
  984MOL0     O32740  11.425   3.305   7.035 -0.4085 -0.0255  0.1658
  984MOL0     C32741  11.396   3.293   6.891  0.1638 -0.8280  0.0966
  984MOL0     C32742  11.453   3.170   6.830 -1.0067  0.2539  0.6057
  984MOL0     C32743  11.428   3.041   6.916 -0.9752 -0.8359 -0.1895
  984MOL0     C32744  11.414   2.917   6.834  0.1252 -0.0534  0.3899
  984MOL0     C32745  11.330   2.813   6.905  0.0020  0.5143 -0.0218
  984MOL0     C32746  11.372   2.782   7.049 -0.6706  0.0115 -0.8955
  984MOL0     C32747  11.331   2.645   7.111 -0.5351  0.3924 -0.7008
  984MOL0     C32748  11.189   2.599   7.096  0.0827  0.1655 -0.5847
  984MOL0    Cl32749  11.160   2.492   6.955 -0.2987  0.5224 -0.1114
  984MOL0     C32750  11.254   3.468   7.103  0.3836  0.3509  0.7764
  984MOL0     C32751  11.213   3.582   7.171 -0.3261  0.1256  0.8351
  984MOL0     O32752  11.440   3.855   7.217  0.0171  0.1665  0.1591
  984MOL0     C32753  11.212   3.994   7.449 -0.5882 -0.1933  0.9237
  984MOL0     C32754  11.194   4.094   7.545  1.1257 -0.6771 -0.1685
  984MOL0     N32755  11.159   4.651   7.260 -0.0585  0.5405  0.3271
  984MOL0     N32756  11.160   4.572   7.153  0.1927 -0.1915 -0.1426
  984MOL0     C32757  10.863   4.076   6.392 -1.5440 -0.3880 -0.3173
  984MOL0     C32758  10.847   4.089   6.254 -1.0162  0.1772  0.3705
  984MOL0     C32759  10.864   4.025   5.799  0.0690 -1.0002 -1.7826
  984MOL0     C32760  10.980   4.095   5.771 -0.1766 -0.9097  0.1574
  984MOL0     C32761  11.011   4.115   5.638  0.8546  0.5397 -0.5344
  984MOL0     C32762  10.943   4.048   5.536  0.2508  0.2605  0.1557
  984MOL0     O32763  10.979   4.039   5.406  0.3121  0.6655  0.2934
  984MOL0     C32764  11.084   3.940   5.380 -0.8273  0.1526  0.4387
  984MOL0     C32765  11.119   3.942   5.227  0.4017 -0.1660  0.5546
  984MOL0     C32766  11.263   3.902   5.190 -1.1154 -1.0523 -1.0064
  984MOL0     C32767  11.379   3.962   5.265 -0.3161  0.3409 -1.7902
  984MOL0     C32768  11.450   3.871   5.360 -0.2296  0.6485  0.2585
  984MOL0     C32769  11.513   3.787   5.418 -0.6871  0.4030 -0.3887
  984MOL0     C32770  10.834   3.969   5.566  0.1067 -0.5709 -0.4279
  984MOL0     C32771  10.788   3.964   5.701 -0.3528  0.2717 -0.7115
  984MOL0     C32772  10.682   3.870   5.729  0.2780 -0.0821  0.1544
  984MOL0     H32773  10.979   3.793   6.181  0.2744  1.4956 -0.7439
  984MOL0     H32774  10.957   3.754   6.435 -2.6668 -2.1690 -1.9959
  984MOL0     H32775  10.819   3.778   6.671 -0.9571  1.0672  1.3233
  984MOL0     H32776  10.986   3.776   6.640 -1.4292 -0.4703 -0.5757
  984MOL0     H32777  10.917   3.767   6.887  2.0006 -1.1947 -1.3074
  984MOL0     H32778  10.838   3.925   6.864  0.5293 -0.4193  0.4187
  984MOL0     H32779  11.062   4.023   6.809  2.4651  1.7841  1.9045
  984MOL0     H32780  11.139   3.873   6.864 -1.1305 -0.8568  2.3080
  984MOL0     H32781  10.966   4.054   7.023 -0.1805  0.6705 -4.1798
  984MOL0     H32782  11.047   3.905   7.093  2.2597  1.0250  1.4830
  984MOL0     H32783  11.189   4.070   7.161  3.6033  3.0456 -0.3820
  984MOL0     H32784  11.263   3.970   7.033 -2.9180 -3.2179 -0.9551
  984MOL0     H32785  11.300   4.159   6.914  1.5253 -0.7710  0.1980
  984MOL0     H32786  11.119   4.197   6.929 -0.8770 -0.4705  0.7678
  984MOL0     H32787  11.338   4.239   7.140 -0.4988 -2.0245  0.6810
  984MOL0     H32788  11.173   4.291   7.162 -2.1811 -0.3268 -1.9098
  984MOL0     H32789  11.423   4.409   7.042  0.0746 -0.2071  1.8394
  984MOL0     H32790  11.273   4.452   6.954  0.8792  0.4212 -0.3977
  984MOL0     H32791  11.466   4.545   7.258 -0.6702 -3.2025  2.0487
  984MOL0     H32792  11.388   4.802   7.417 -1.3073 -0.1130  0.0869
  984MOL0     H32793  11.221   4.771   7.477 -0.8320 -1.0800  1.1864
  984MOL0     H32794  11.475   4.630   7.531 -1.0813  2.7080 -0.6276
  984MOL0     H32795  11.366   4.680   7.649  0.6832 -1.2834  0.1984
  984MOL0     H32796  11.305   4.445   7.452 -0.8469  1.3308 -1.4416
  984MOL0     H32797  11.193   4.496   7.578  0.4304 -0.1095 -0.1572
  984MOL0     H32798  11.314   4.439   7.757 -1.1790  0.4879 -1.2007
  984MOL0     H32799  11.456   4.386   7.658 -0.4341  0.6288 -0.0514
  984MOL0     H32800  11.486   4.253   7.481  0.3816 -0.2108  1.0031
  984MOL0     H32801  11.507   4.063   7.313 -1.9365 -0.5202 -1.7376
  984MOL0     H32802  11.471   3.582   7.392 -3.6762 -2.7918  3.0281
  984MOL0     H32803  11.553   3.393   7.247  1.1555  0.9097 -2.2766
  984MOL0     H32804  11.288   3.284   6.874  0.0461  0.9293 -0.2385
  984MOL0     H32805  11.439   3.381   6.844  1.8214 -2.7980 -2.3434
  984MOL0     H32806  11.425   3.161   6.725 -3.0952  0.0388  1.1299
  984MOL0     H32807  11.560   3.191   6.835 -1.4347  2.3810  2.3193
  984MOL0     H32808  11.499   3.038   6.999 -0.9269  0.8886 -0.1469
  984MOL0     H32809  11.328   3.049   6.960 -1.2559 -0.6675 -0.8524
  984MOL0     H32810  11.509   2.864   6.825 -0.8976 -2.4470  2.2489
  984MOL0     H32811  11.386   2.924   6.728 -1.0824  0.2638  0.7072
  984MOL0     H32812  11.329   2.726   6.838 -1.0412  1.0680 -0.7509
  984MOL0     H32813  11.226   2.848   6.911  0.8003  2.8320  1.5892
  984MOL0     H32814  11.481   2.789   7.048 -0.3992 -1.4448  2.8584
  984MOL0     H32815  11.326   2.853   7.118  0.7674 -1.3074  1.5561
  984MOL0     H32816  11.349   2.661   7.218  0.3615  1.7206 -1.0285
  984MOL0     H32817  11.407   2.571   7.082 -0.2864  1.1359 -2.0253
  984MOL0     H32818  11.172   2.545   7.190  2.9954 -1.3049 -0.7846
  984MOL0     H32819  11.132   2.691   7.078 -1.0366 -0.2291  0.7440
  984MOL0     H32820  11.181   3.434   7.030 -0.4876 -0.2167  1.8638
  984MOL0     H32821  11.123   3.641   7.156  0.0398  0.0428 -2.3469
  984MOL0     H32822  11.129   3.925   7.437 -1.5062  1.3825 -3.1193
  984MOL0     H32823  11.095   4.111   7.587  0.2575 -0.6443 -2.1136
  984MOL0     H32824  10.846   4.163   6.455  2.9808  0.8901 -0.5185
  984MOL0     H32825  10.836   4.179   6.195 -0.7853  0.8118  1.2787
  984MOL0     H32826  11.039   4.144   5.848  1.1012 -3.1562  0.6878
  984MOL0     H32827  11.102   4.170   5.618 -0.0212  2.0496 -0.5971
  984MOL0     H32828  11.060   3.843   5.425  0.4015 -0.3359  0.0875
  984MOL0     H32829  11.168   3.969   5.443  1.6850 -2.7179 -1.3196
  984MOL0     H32830  11.111   4.046   5.194  5.2898  1.3973  3.2739
  984MOL0     H32831  11.069   3.867   5.165 -0.0739  0.3311  0.3354
  984MOL0     H32832  11.276   3.914   5.082  4.6523  2.8131 -0.3758
  984MOL0     H32833  11.268   3.794   5.203  1.0568 -0.9373 -0.4723
  984MOL0     H32834  11.451   4.006   5.195  0.5925  0.4006 -0.8330
  984MOL0     H32835  11.352   4.051   5.323 -1.5109 -0.9790 -0.2391
  984MOL0     H32836  11.571   3.707   5.457 -0.6757 -0.2522 -1.6969
  984MOL0     H32837  10.769   3.933   5.488 -1.2413  2.0391 -0.6048
  984MOL0     H32838  10.677   3.797   5.648 -2.6723  1.1718 -0.9519
  984MOL0     H32839  10.679   3.806   5.818 -2.1204  0.9087  0.9065
  984MOL0     H32840  10.586   3.923   5.733 -0.3651 -1.2011  3.8086
  985MOL0     O32841   8.802   6.478   7.354  0.0784 -0.1604 -0.0137
  985MOL0     C32842   8.878   6.445   7.450  0.4197  0.4611  0.9138
  985MOL0     O32843   8.934   6.522   7.545  0.7317 -0.4146 -0.8086
  985MOL0     C32844   8.916   6.654   7.543 -0.0182  0.2942  0.3942
  985MOL0     C32845   8.939   6.741   7.429  0.0887 -0.2736  0.3634
  985MOL0     C32846   8.952   6.877   7.441 -0.0730 -0.3852  0.3664
  985MOL0     C32847   8.901   6.942   7.552 -0.7148  0.5833  0.3854
  985MOL0     O32848   8.897   7.080   7.550  0.1485  0.3454  0.6871
  985MOL0     C32849   8.828   7.137   7.655  0.4398  0.0338 -0.6166
  985MOL0     C32850   8.848   7.285   7.619  0.3106  0.8550 -0.3389
  985MOL0     C32851   8.792   7.376   7.723  0.3865 -0.6651 -0.4117
  985MOL0     C32852   8.894   7.492   7.729 -0.3055  0.7616 -0.9988
  985MOL0     C32853   8.834   7.609   7.800 -0.7751 -0.6207  0.1529
  985MOL0     C32854   8.936   7.674   7.892 -0.7431  0.2451 -0.7496
  985MOL0     C32855   8.891   7.815   7.925 -0.1716 -0.9649 -0.5366
  985MOL0     C32856   8.802   7.830   8.056 -0.5124  0.0340  0.0526
  985MOL0     N32857   8.673   7.762   8.064 -0.1225  0.1535  0.5721
  985MOL0     C32858   8.557   7.817   8.025  0.6747  0.0183  0.3555
  985MOL0     C32859   8.467   7.720   8.051  0.4358 -1.0466  0.6733
  985MOL0     C32860   8.319   7.734   8.032  0.1446 -0.0395 -0.2381
  985MOL0     C32861   8.259   7.655   7.911 -0.2771  0.2332 -0.1886
  985MOL0     C32862   8.125   7.709   7.880 -0.5679 -0.4530 -0.8244
  985MOL0     C32863   8.044   7.667   7.766  0.4571  0.7664  0.0752
  985MOL0     O32864   7.996   7.529   7.772  0.4545  0.1617  0.2800
  985MOL0     C32865   8.058   7.435   7.693 -0.2010 -0.0294  0.0397
  985MOL0     C32866   7.981   7.317   7.670 -0.6075 -0.0247 -1.0875
  985MOL0     C32867   8.035   7.211   7.597 -0.2350 -0.8906  0.2802
  985MOL0     C32868   8.157   7.219   7.536 -0.5812  0.1247  0.1540
  985MOL0     C32869   8.204   7.122   7.433  0.3603  0.6978  0.5823
  985MOL0     O32870   8.329   7.152   7.393 -0.6573 -0.7983 -0.6146
  985MOL0     C32871   8.403   7.070   7.313  0.4163 -0.5058  0.1646
  985MOL0     C32872   8.351   7.023   7.196 -0.2725 -0.0657  0.0802
  985MOL0     C32873   8.421   6.939   7.103 -0.4637  0.2665 -0.1942
  985MOL0     C32874   8.539   6.879   7.151 -0.2506  0.6733  0.1931
  985MOL0     O32875   8.602   6.786   7.072 -0.2495  0.1035 -0.5900
  985MOL0     C32876   8.585   6.649   7.135  0.2296 -0.3699 -0.2384
  985MOL0     C32877   8.445   6.604   7.099  0.1711  0.5622 -0.3930
  985MOL0     C32878   8.409   6.605   6.946 -0.6782  0.0799 -0.0737
  985MOL0     C32879   8.271   6.544   6.900  0.0591 -0.2683  0.1701
  985MOL0     C32880   8.136   6.581   6.963 -0.0245 -0.0045 -0.6084
  985MOL0     C32881   8.096   6.729   6.963 -0.3970  0.2131  0.5809
  985MOL0     C32882   7.954   6.757   7.025 -0.2090  0.2306  0.4409
  985MOL0     C32883   7.949   6.858   7.147 -0.8128 -0.1878 -0.6521
  985MOL0    Cl32884   7.792   6.897   7.226 -0.0714 -0.1198  0.1660
  985MOL0     C32885   8.606   6.929   7.270  0.3119 -0.1559  0.6976
  985MOL0     C32886   8.535   7.021   7.344  0.5043  0.2615  0.1463
  985MOL0     O32887   8.141   7.020   7.400  0.2322 -0.2379 -0.2971
  985MOL0     C32888   8.240   7.328   7.573  0.3614  0.0905 -0.0111
  985MOL0     C32889   8.191   7.433   7.654 -0.5085 -0.0670  0.0281
  985MOL0     N32890   8.527   7.615   8.118 -0.0671  0.1833 -0.4393
  985MOL0     N32891   8.649   7.644   8.131 -0.7861 -0.1484  0.6107
  985MOL0     C32892   8.869   6.863   7.667 -0.2670 -0.1531  1.1184
  985MOL0     C32893   8.876   6.716   7.657 -1.0533 -0.3690  0.1985
  985MOL0     C32894   8.871   6.301   7.489  0.3675  0.3110  0.0103
  985MOL0     C32895   8.880   6.270   7.624  0.4362 -0.1256 -0.8968
  985MOL0     C32896   8.899   6.138   7.669 -0.2241  0.8395  0.5087
  985MOL0     C32897   8.892   6.032   7.577  0.3624 -0.0189 -0.2908
  985MOL0     O32898   8.921   5.908   7.637 -0.5623 -0.8015 -0.1494
  985MOL0     C32899   8.850   5.806   7.582  0.2853  0.2976  0.7082
  985MOL0     C32900   8.936   5.724   7.487 -0.1733  0.0696  0.3589
  985MOL0     C32901   8.861   5.617   7.407 -0.0187  1.0137 -0.1748
  985MOL0     C32902   8.835   5.490   7.495  0.1797  0.2485 -0.8358
  985MOL0     C32903   8.950   5.412   7.538  0.0430 -0.3009  0.0994
  985MOL0     C32904   9.049   5.349   7.582 -0.5732 -0.2149  0.7450
  985MOL0     C32905   8.876   6.059   7.442  0.1123 -0.1515  0.2388
  985MOL0     C32906   8.864   6.195   7.390 -0.6560 -0.3864  0.2149
  985MOL0     C32907   8.846   6.217   7.245 -0.0840 -0.1126  0.1497
  985MOL0     H32908   8.970   6.699   7.334  0.6391 -1.8300  1.1950
  985MOL0     H32909   8.982   6.933   7.353 -0.5219  0.8612  0.9823
  985MOL0     H32910   8.722   7.112   7.661  0.1496  1.4895  1.6921
  985MOL0     H32911   8.879   7.110   7.748 -0.6235  2.3844  0.7365
  985MOL0     H32912   8.810   7.304   7.518  2.5314 -0.6977 -1.5593
  985MOL0     H32913   8.956   7.301   7.626  0.4404  0.2255 -0.7863
  985MOL0     H32914   8.786   7.325   7.820 -1.8798 -1.5661 -0.9692
  985MOL0     H32915   8.691   7.412   7.702  1.2006  1.8213 -0.3481
  985MOL0     H32916   8.978   7.460   7.791 -0.4893 -0.8213 -1.5169
  985MOL0     H32917   8.917   7.514   7.624 -0.8215  0.0653 -1.2690
  985MOL0     H32918   8.805   7.677   7.720  1.9097  0.1734 -0.2439
  985MOL0     H32919   8.742   7.592   7.856 -2.4968  4.5961 -0.5887
  985MOL0     H32920   8.949   7.613   7.982 -0.4055 -1.4164 -1.8854
  985MOL0     H32921   9.036   7.681   7.847  0.1961  2.8883  1.4421
  985MOL0     H32922   8.847   7.870   7.842 -1.3674 -0.7832  0.1901
  985MOL0     H32923   8.979   7.874   7.954 -2.0658  1.7402  0.0719
  985MOL0     H32924   8.861   7.804   8.145 -0.5407  0.8630  0.3217
  985MOL0     H32925   8.792   7.939   8.061 -0.5996  0.1411 -1.8974
  985MOL0     H32926   8.544   7.911   7.972 -0.5411  0.2366  1.0182
  985MOL0     H32927   8.272   7.700   8.125 -2.0127  0.9277 -0.9102
  985MOL0     H32928   8.296   7.841   8.020 -1.2779  0.1394  2.9457
  985MOL0     H32929   8.314   7.667   7.817 -0.3156  2.4735  0.0292
  985MOL0     H32930   8.248   7.553   7.950 -0.2988  0.5546  0.6679
  985MOL0     H32931   8.137   7.817   7.870  1.1153 -0.3139  1.8292
  985MOL0     H32932   8.057   7.698   7.965 -0.6333  1.6470 -0.5700
  985MOL0     H32933   8.100   7.685   7.674  2.5429 -4.3130  0.0073
  985MOL0     H32934   7.953   7.727   7.761 -1.0689 -1.3348  0.9359
  985MOL0     H32935   7.882   7.308   7.712 -0.8732  0.1134 -1.6859
  985MOL0     H32936   7.976   7.120   7.596  0.2936 -1.2394 -0.9169
  985MOL0     H32937   8.252   7.054   7.162  1.7031  1.6430 -5.1112
  985MOL0     H32938   8.373   6.903   7.012 -1.2925  1.4628 -0.2599
  985MOL0     H32939   8.650   6.600   7.062 -1.1913 -0.4076 -1.5093
  985MOL0     H32940   8.626   6.644   7.237  1.5562  0.5978 -0.6989
  985MOL0     H32941   8.423   6.507   7.146  0.7351  0.5241 -0.1987
  985MOL0     H32942   8.368   6.659   7.153  2.7166  1.2235  2.9435
  985MOL0     H32943   8.406   6.709   6.914 -2.5592 -0.2872 -1.2035
  985MOL0     H32944   8.493   6.551   6.900  0.7160  0.0577  2.3168
  985MOL0     H32945   8.288   6.436   6.890 -1.2776 -0.3564 -1.5394
  985MOL0     H32946   8.266   6.567   6.793 -1.2353 -0.6285  0.1461
  985MOL0     H32947   8.133   6.541   7.065  0.8840 -1.4347 -1.1105
  985MOL0     H32948   8.062   6.527   6.904 -0.2654  1.4729 -1.7136
  985MOL0     H32949   8.166   6.802   7.005 -0.5674  3.0862 -3.5647
  985MOL0     H32950   8.086   6.754   6.857  1.6589 -2.0685 -0.2549
  985MOL0     H32951   7.913   6.665   7.066 -2.1777  0.7804 -0.1865
  985MOL0     H32952   7.892   6.793   6.942  2.5440 -0.3765 -2.0704
  985MOL0     H32953   8.010   6.810   7.224  0.3559  0.9939 -0.7999
  985MOL0     H32954   8.003   6.951   7.125  2.6266 -2.5914 -3.6188
  985MOL0     H32955   8.708   6.906   7.299  0.1587 -0.8989  0.6732
  985MOL0     H32956   8.580   7.074   7.428  2.4226  1.0640 -1.3047
  985MOL0     H32957   8.338   7.358   7.535 -0.0714 -0.6426 -1.8201
  985MOL0     H32958   8.246   7.525   7.672 -1.4291 -0.2519  4.9954
  985MOL0     H32959   8.838   6.902   7.763 -0.9695  0.4835  0.6472
  985MOL0     H32960   8.855   6.653   7.742  0.8651  1.2715  1.9835
  985MOL0     H32961   8.901   6.347   7.697  1.7362 -0.2076 -1.1754
  985MOL0     H32962   8.927   6.120   7.773  1.7285  2.0720  0.2531
  985MOL0     H32963   8.768   5.844   7.520  1.4103  1.2994 -0.1836
  985MOL0     H32964   8.793   5.760   7.664  0.4426 -0.7646  0.2354
  985MOL0     H32965   9.018   5.680   7.544 -0.1013  0.0446  0.2387
  985MOL0     H32966   8.967   5.794   7.409 -1.2606  2.3493  1.8912
  985MOL0     H32967   8.909   5.594   7.312  1.3110 -0.2826  0.7545
  985MOL0     H32968   8.758   5.648   7.385 -1.1205 -1.2106  1.4578
  985MOL0     H32969   8.793   5.529   7.588  2.8690  1.5645 -0.0667
  985MOL0     H32970   8.759   5.425   7.451 -1.9019 -0.0237  2.7576
  985MOL0     H32971   9.140   5.296   7.602 -1.2682 -1.1017  1.6550
  985MOL0     H32972   8.889   5.985   7.363  0.3644  0.7928 -0.6172
  985MOL0     H32973   8.833   6.121   7.194 -2.8410  0.0963  0.2687
  985MOL0     H32974   8.751   6.270   7.229  0.4018  0.6542 -0.2659
  985MOL0     H32975   8.932   6.268   7.201  0.4217 -2.6333 -2.0770
  986MOL0     O32976   2.543   5.941   2.320  0.0750 -0.2071  0.2847
  986MOL0     C32977   2.665   5.910   2.322  1.1274 -0.3426  0.0484
  986MOL0     O32978   2.735   5.923   2.432  0.2173  1.0208  0.2863
  986MOL0     C32979   2.683   5.953   2.553  0.2016 -0.2268  0.4056
  986MOL0     C32980   2.719   6.070   2.633  0.7187  0.3218  0.4118
  986MOL0     C32981   2.667   6.086   2.758  0.0557  0.6274 -0.0153
  986MOL0     C32982   2.577   5.995   2.817  0.1800  0.9263  1.1951
  986MOL0     O32983   2.509   6.003   2.931  0.0151  0.6090 -0.1438
  986MOL0     C32984   2.558   6.099   3.026 -0.6236  0.5828  0.7283
  986MOL0     C32985   2.499   6.075   3.164  0.2307  0.9225 -0.6599
  986MOL0     C32986   2.527   5.924   3.213 -0.1161 -1.1133 -0.5291
  986MOL0     C32987   2.396   5.853   3.192 -0.8750  0.8947  0.8548
  986MOL0     C32988   2.423   5.702   3.243 -0.0198  0.1948  0.0763
  986MOL0     C32989   2.499   5.622   3.135  0.5322  0.3853  0.2703
  986MOL0     C32990   2.615   5.557   3.195 -0.6608 -0.1389  0.3819
  986MOL0     C32991   2.728   5.514   3.097  0.6104  0.3585  0.8383
  986MOL0     N32992   2.687   5.409   3.004 -0.1786 -0.0158  0.5157
  986MOL0     C32993   2.620   5.428   2.886 -0.1511 -0.8545  0.8194
  986MOL0     C32994   2.593   5.304   2.839  0.4544 -0.3056 -1.5776
  986MOL0     C32995   2.515   5.269   2.718  0.4052  0.4153  0.3290
  986MOL0     C32996   2.405   5.159   2.735 -0.2105  0.2429 -0.2418
  986MOL0     C32997   2.352   5.101   2.599  0.8905  0.1242  0.6408
  986MOL0     C32998   2.264   5.197   2.515  0.2839  0.2691 -0.4930
  986MOL0     O32999   2.174   5.257   2.611 -0.1960  0.0460  0.5786
  986MOL0     C33000   2.039   5.255   2.577 -1.1851  0.4151  0.7804
  986MOL0     C33001   1.958   5.145   2.600  0.3645 -0.0963 -0.0198
  986MOL0     C33002   1.828   5.157   2.558  0.9103  0.3476 -0.2710
  986MOL0     C33003   1.772   5.263   2.495  1.0431 -0.4286  0.6825
  986MOL0     C33004   1.629   5.259   2.429 -0.6423 -0.2305 -0.4331
  986MOL0     O33005   1.605   5.334   2.312  0.2723  0.6780  0.4367
  986MOL0     C33006   1.506   5.294   2.232  0.9431 -2.2281  0.4359
  986MOL0     C33007   1.428   5.178   2.229  1.7511  0.4250  0.5287
  986MOL0     C33008   1.339   5.144   2.133 -0.6960 -0.4424  0.7856
  986MOL0     C33009   1.334   5.219   2.013 -0.2817 -0.2471 -0.2768
  986MOL0     O33010   1.248   5.181   1.916 -0.1630 -0.1872 -0.4630
  986MOL0     C33011   1.311   5.099   1.812 -0.2334 -0.2037 -0.1304
  986MOL0     C33012   1.207   5.065   1.713 -0.0633  0.1779  0.4305
  986MOL0     C33013   1.164   5.202   1.651 -0.1255  0.0160  0.4125
  986MOL0     C33014   1.059   5.197   1.539  0.7500 -0.7922  0.7553
  986MOL0     C33015   0.935   5.104   1.569  0.5909  0.7314 -0.1494
  986MOL0     C33016   0.839   5.119   1.451  0.1305  0.1261 -0.7650
  986MOL0     C33017   0.702   5.048   1.466  0.4201 -0.3728 -0.5281
  986MOL0     C33018   0.605   5.079   1.353 -0.6225 -0.6269  0.0327
  986MOL0    Cl33019   0.469   4.975   1.368 -0.0219  0.1800  0.7343
  986MOL0     C33020   1.405   5.343   2.015 -0.4146 -0.3200  1.3287
  986MOL0     C33021   1.492   5.382   2.122  0.5674  0.0785 -0.2303
  986MOL0     O33022   1.541   5.215   2.504 -1.2626 -0.0198  0.3540
  986MOL0     C33023   1.858   5.369   2.458  0.3513 -0.4549  0.8463
  986MOL0     C33024   1.989   5.365   2.512 -0.3738  0.6144  0.1172
  986MOL0     N33025   2.643   5.216   2.926 -0.0230  0.4088 -0.4113
  986MOL0     N33026   2.702   5.274   3.026 -0.2629 -0.2037  1.2010
  986MOL0     C33027   2.540   5.882   2.738 -1.1044 -0.6569  0.1015
  986MOL0     C33028   2.593   5.862   2.608  0.0803  0.0011  0.5599
  986MOL0     C33029   2.732   5.875   2.192 -0.2613  0.1285  0.8640
  986MOL0     C33030   2.872   5.856   2.196  0.0796 -0.1279  1.4815
  986MOL0     C33031   2.946   5.835   2.082  0.2958  0.3965  0.4908
  986MOL0     C33032   2.884   5.819   1.963 -0.1408  0.2908  0.3338
  986MOL0     O33033   2.938   5.795   1.840 -0.1527  0.5592 -0.0665
  986MOL0     C33034   3.088   5.790   1.831 -0.3137  0.9349  0.9982
  986MOL0     C33035   3.125   5.779   1.682  0.0339 -0.0692  0.4813
  986MOL0     C33036   3.070   5.889   1.591  0.3143 -0.2098  0.2329
  986MOL0     C33037   3.107   5.875   1.439  0.4484  0.0890 -0.3618
  986MOL0     C33038   3.054   5.986   1.356 -0.2951  0.9269  0.7042
  986MOL0     C33039   3.013   6.064   1.273 -0.3862  0.0781 -0.0180
  986MOL0     C33040   2.753   5.829   1.966 -0.0274 -0.6526 -0.0941
  986MOL0     C33041   2.667   5.851   2.069  0.1019  1.0576 -0.4496
  986MOL0     C33042   2.521   5.840   2.038  0.1737 -0.3791  0.4999
  986MOL0     H33043   2.776   6.149   2.585  1.1103 -0.1252  0.1316
  986MOL0     H33044   2.694   6.174   2.816 -1.3482  0.6798  0.6004
  986MOL0     H33045   2.667   6.091   3.017 -0.8472 -0.4079 -2.0563
  986MOL0     H33046   2.522   6.198   2.997 -2.6290 -0.2835  0.0840
  986MOL0     H33047   2.391   6.091   3.163 -0.1276 -1.2371 -0.1366
  986MOL0     H33048   2.546   6.144   3.235  0.8743  0.2148 -0.3883
  986MOL0     H33049   2.564   5.931   3.315 -3.2575 -0.0470  0.6413
  986MOL0     H33050   2.602   5.867   3.156  0.7436  0.9397 -1.5842
  986MOL0     H33051   2.329   5.901   3.265 -1.3675 -0.9362  1.6644
  986MOL0     H33052   2.358   5.849   3.090 -1.6129  0.6910  1.1268
  986MOL0     H33053   2.480   5.692   3.336  0.2175  0.4276 -0.0466
  986MOL0     H33054   2.325   5.656   3.260 -0.0833  0.7435  1.2804
  986MOL0     H33055   2.438   5.542   3.091 -0.5043  1.5405 -0.4540
  986MOL0     H33056   2.535   5.688   3.056 -1.7505 -0.4609 -1.6140
  986MOL0     H33057   2.583   5.470   3.252  0.4159 -1.7393 -1.3314
  986MOL0     H33058   2.658   5.619   3.274  1.8933 -2.7394  1.1780
  986MOL0     H33059   2.757   5.607   3.048  0.3292 -0.9274 -1.9337
  986MOL0     H33060   2.813   5.461   3.143 -0.5407 -2.3642  0.0498
  986MOL0     H33061   2.584   5.523   2.849  1.5003  0.6188  2.7161
  986MOL0     H33062   2.452   5.357   2.699 -1.8304 -1.4939 -1.8602
  986MOL0     H33063   2.581   5.251   2.634  0.0210 -0.2681  0.1706
  986MOL0     H33064   2.460   5.078   2.784 -2.6199 -0.6851  1.0748
  986MOL0     H33065   2.328   5.186   2.808  0.3637  0.5105  0.2728
  986MOL0     H33066   2.291   5.017   2.632  0.6848  0.4234  1.0376
  986MOL0     H33067   2.429   5.059   2.534 -0.0450 -4.4111  2.1087
  986MOL0     H33068   2.216   5.137   2.438  0.3147 -2.0534  1.1811
  986MOL0     H33069   2.326   5.270   2.463  2.2632 -2.0393 -1.5637
  986MOL0     H33070   2.009   5.055   2.635 -2.3305 -0.4834  3.4057
  986MOL0     H33071   1.776   5.063   2.571  0.6859  0.5013 -0.0506
  986MOL0     H33072   1.427   5.107   2.311  1.3261  0.3325  0.4476
  986MOL0     H33073   1.277   5.056   2.146  0.3650 -0.9557  2.7010
  986MOL0     H33074   1.391   5.148   1.754  0.4336 -0.4873  0.5328
  986MOL0     H33075   1.352   5.007   1.856  2.3634  0.9941  0.1650
  986MOL0     H33076   1.247   4.993   1.641 -0.4285 -0.6128  1.0072
  986MOL0     H33077   1.116   5.024   1.757 -2.1672  0.9998 -2.7579
  986MOL0     H33078   1.123   5.264   1.731 -0.8310  2.0497 -1.4206
  986MOL0     H33079   1.251   5.256   1.613 -0.5020 -0.4943 -1.2709
  986MOL0     H33080   1.094   5.143   1.450  0.5860 -1.8540  1.3147
  986MOL0     H33081   1.034   5.301   1.516  0.5204 -0.9852  0.1213
  986MOL0     H33082   0.876   5.124   1.659 -0.8890  1.3610 -1.2284
  986MOL0     H33083   0.954   4.997   1.582 -1.9545  0.3274  0.8485
  986MOL0     H33084   0.823   5.226   1.436 -0.2596  0.3407  0.9209
  986MOL0     H33085   0.880   5.076   1.360 -1.6565  0.8941 -1.9746
  986MOL0     H33086   0.653   5.082   1.558 -1.4007 -2.2642 -0.7322
  986MOL0     H33087   0.714   4.940   1.474 -0.8477 -0.4515  0.7228
  986MOL0     H33088   0.585   5.187   1.357 -0.9445 -0.6913  0.1787
  986MOL0     H33089   0.657   5.072   1.257 -1.2160 -0.1956 -0.3271
  986MOL0     H33090   1.400   5.404   1.925  2.2537  0.6783  1.7631
  986MOL0     H33091   1.555   5.469   2.109 -2.0867  1.9842 -1.3795
  986MOL0     H33092   1.822   5.454   2.401 -2.6201 -1.3990  1.1450
  986MOL0     H33093   2.052   5.452   2.495  0.8768  0.3770  2.9493
  986MOL0     H33094   2.490   5.801   2.790  1.3324 -1.4246  1.4264
  986MOL0     H33095   2.562   5.775   2.553 -3.2603 -0.1667  2.4645
  986MOL0     H33096   2.925   5.853   2.291  1.3540 -2.6917  0.7548
  986MOL0     H33097   3.054   5.847   2.082 -0.0246  4.6201  1.3461
  986MOL0     H33098   3.133   5.706   1.885 -1.3745  0.5943  1.3969
  986MOL0     H33099   3.127   5.885   1.870  0.9167  0.9580 -0.2267
  986MOL0     H33100   3.087   5.682   1.649  1.3422 -0.1229 -0.9734
  986MOL0     H33101   3.233   5.774   1.667 -0.2346  0.4730 -1.9951
  986MOL0     H33102   3.108   5.987   1.621 -0.3340  0.0269  0.3020
  986MOL0     H33103   2.961   5.897   1.598  0.3708 -0.1093  1.0927
  986MOL0     H33104   3.215   5.860   1.428  0.5955  0.0657  0.9526
  986MOL0     H33105   3.058   5.788   1.394  0.5362 -0.1789  0.0588
  986MOL0     H33106   2.984   6.120   1.186  2.1074 -0.4373 -1.2709
  986MOL0     H33107   2.700   5.798   1.877  1.1111 -0.6365 -0.7978
  986MOL0     H33108   2.453   5.899   2.100 -0.0769 -0.1142 -0.0210
  986MOL0     H33109   2.508   5.851   1.930 -0.4821 -2.7677  0.2888
  986MOL0     H33110   2.486   5.743   2.073 -0.3548 -0.3521  0.0421
  987MOL0     O33111   5.201   3.753  11.169  0.5512 -0.1342 -0.1876
  987MOL0     C33112   5.300   3.688  11.213  1.2378  0.0275  0.0308
  987MOL0     O33113   5.401   3.642  11.145 -0.7160  0.7159  0.5264
  987MOL0     C33114   5.415   3.680  11.014  0.4643 -0.4457  0.0730
  987MOL0     C33115   5.437   3.809  10.973 -0.1285 -0.4235  0.5753
  987MOL0     C33116   5.463   3.846  10.841  0.1326 -0.8160  0.4037
  987MOL0     C33117   5.470   3.747  10.749 -0.5582 -0.7745  0.1682
  987MOL0     O33118   5.502   3.798  10.626  0.2053 -0.0522 -0.1138
  987MOL0     C33119   5.525   3.714  10.509 -0.6686  0.5958 -0.8385
  987MOL0     C33120   5.648   3.626  10.531  0.2611  0.6370 -0.8240
  987MOL0     C33121   5.767   3.713  10.581  0.2370  1.9082  1.5502
  987MOL0     C33122   5.880   3.630  10.639  0.6672  0.1722 -0.6189
  987MOL0     C33123   5.996   3.728  10.665 -0.0550 -0.4840  0.3204
  987MOL0     C33124   6.116   3.650  10.724  0.1289 -0.3822  0.5362
  987MOL0     C33125   6.237   3.740  10.753  0.0982  0.0311 -0.2917
  987MOL0     C33126   6.339   3.658  10.817 -0.3411  0.2962 -0.5413
  987MOL0     N33127   6.423   3.737  10.902  0.1971 -0.6441 -0.5155
  987MOL0     C33128   6.511   3.829  10.849  0.7448  0.4146 -0.6033
  987MOL0     C33129   6.565   3.880  10.960  0.9090 -0.5936  0.1551
  987MOL0     C33130   6.646   4.010  10.973 -0.9724  0.3360  0.1941
  987MOL0     C33131   6.559   4.128  11.001  0.8348 -0.6235  0.1057
  987MOL0     C33132   6.658   4.252  11.021  1.7355 -0.1174 -0.8382
  987MOL0     C33133   6.585   4.364  11.096 -0.4443  0.0464  0.5912
  987MOL0     O33134   6.494   4.445  11.012 -0.2690 -0.3308  0.8508
  987MOL0     C33135   6.435   4.557  11.062 -0.6821  0.3325 -0.0218
  987MOL0     C33136   6.364   4.645  10.977 -0.1790  0.9621  0.3854
  987MOL0     C33137   6.322   4.768  11.014  0.0810 -0.1876  0.3925
  987MOL0     C33138   6.332   4.814  11.140  0.7755  0.4869  0.0362
  987MOL0     C33139   6.289   4.947  11.183  0.1229 -0.4836 -0.3002
  987MOL0     O33140   6.263   4.978  11.316  0.1516  0.0287  0.8366
  987MOL0     C33141   6.203   5.096  11.360  0.8876 -0.2799 -0.4139
  987MOL0     C33142   6.143   5.201  11.289 -0.3785 -0.2383  0.1784
  987MOL0     C33143   6.100   5.320  11.350 -0.2030  0.7891  1.4759
  987MOL0     C33144   6.105   5.336  11.489  0.4610  0.2847 -0.2884
  987MOL0     O33145   6.065   5.442  11.559 -0.2118 -0.5785  0.0553
  987MOL0     C33146   5.919   5.452  11.555  0.1885 -0.0173 -0.1468
  987MOL0     C33147   5.856   5.592  11.578  0.3945  1.0074  0.4320
  987MOL0     C33148   5.933   5.657  11.702 -0.3114 -0.0525  0.2026
  987MOL0     C33149   5.914   5.803  11.688  0.4738  0.4485 -1.1098
  987MOL0     C33150   6.002   5.872  11.795  1.0804  0.5561 -0.1702
  987MOL0     C33151   5.984   6.023  11.806 -0.5025  0.4636 -0.4951
  987MOL0     C33152   6.067   6.077  11.936 -0.4371  0.7817  0.6608
  987MOL0     C33153   6.035   6.230  11.953 -0.5379  0.6677 -0.5429
  987MOL0    Cl33154   5.867   6.254  11.983  0.2784 -0.1091  0.2288
  987MOL0     C33155   6.170   5.233  11.561  0.8913  0.2615 -0.0334
  987MOL0     C33156   6.199   5.113  11.499 -0.0522 -0.6147  0.1234
  987MOL0     O33157   6.284   5.026  11.093 -0.4671  0.5277 -0.4165
  987MOL0     C33158   6.392   4.721  11.234  0.7683 -0.0386  0.4017
  987MOL0     C33159   6.447   4.592  11.193  0.5527  0.1283  0.7417
  987MOL0     N33160   6.526   3.805  11.068  0.8064 -0.6993  0.6185
  987MOL0     N33161   6.447   3.711  11.030 -1.2473  0.0871 -0.2281
  987MOL0     C33162   5.425   3.625  10.776 -0.6363 -0.0182 -0.0808
  987MOL0     C33163   5.414   3.584  10.910  0.5700 -0.0093 -0.3446
  987MOL0     C33164   5.322   3.641  11.358 -0.4492  0.4187 -0.3975
  987MOL0     C33165   5.430   3.551  11.396 -1.5688  0.8828 -0.9685
  987MOL0     C33166   5.454   3.507  11.527 -0.8905  0.0870 -0.2631
  987MOL0     C33167   5.363   3.537  11.625 -0.7050 -0.1441 -0.0170
  987MOL0     O33168   5.377   3.502  11.757  0.5645  0.0286  0.4679
  987MOL0     C33169   5.420   3.370  11.787 -0.0196 -0.3918  0.4590
  987MOL0     C33170   5.307   3.295  11.860  0.8098 -0.5814 -0.4251
  987MOL0     C33171   5.344   3.155  11.869  0.1441 -1.3322  0.4246
  987MOL0     C33172   5.233   3.085  11.943  0.4452 -0.0916  0.6363
  987MOL0     C33173   5.197   2.969  11.865 -0.9128  0.7350 -0.5371
  987MOL0     C33174   5.190   2.864  11.813 -0.7471 -0.1491  0.3382
  987MOL0     C33175   5.257   3.626  11.597 -0.1759 -0.4306 -0.5091
  987MOL0     C33176   5.234   3.671  11.465 -0.5136  1.6190 -0.7832
  987MOL0     C33177   5.099   3.747  11.449 -0.2928 -0.4397  0.1907
  987MOL0     H33178   5.444   3.885  11.049 -0.3047 -0.9995  1.1753
  987MOL0     H33179   5.487   3.949  10.816  0.0435 -1.2729 -1.7123
  987MOL0     H33180   5.428   3.663  10.503 -1.9750  2.3829  2.4762
  987MOL0     H33181   5.546   3.775  10.421 -0.9300 -1.5894 -2.5073
  987MOL0     H33182   5.670   3.580  10.435  0.8908 -0.0485 -0.3702
  987MOL0     H33183   5.620   3.549  10.603 -0.4001  1.4004 -0.2413
  987MOL0     H33184   5.737   3.782  10.660  0.4962  1.8317  1.7165
  987MOL0     H33185   5.802   3.780  10.502  1.5605  1.2779  1.5772
  987MOL0     H33186   5.840   3.587  10.732 -0.8617  0.5888 -1.0591
  987MOL0     H33187   5.918   3.544  10.582  0.9811 -0.8541  1.0488
  987MOL0     H33188   6.030   3.773  10.571 -0.5562 -0.4850  0.1373
  987MOL0     H33189   5.973   3.804  10.741  4.0402  2.1332 -0.7466
  987MOL0     H33190   6.077   3.602  10.815 -0.6862 -1.0715 -0.1605
  987MOL0     H33191   6.139   3.564  10.660  3.2290 -0.1508  1.1991
  987MOL0     H33192   6.193   3.810  10.825  2.8223  2.0781 -0.4428
  987MOL0     H33193   6.268   3.792  10.663 -2.8395  0.0734 -1.3917
  987MOL0     H33194   6.295   3.577  10.876 -0.7417  0.1457 -1.0368
  987MOL0     H33195   6.397   3.620  10.733 -0.5954  2.7771 -1.9261
  987MOL0     H33196   6.499   3.887  10.758 -1.9720 -0.8489 -1.1374
  987MOL0     H33197   6.703   3.987  11.063 -0.4345 -3.1126 -0.8764
  987MOL0     H33198   6.713   4.022  10.888 -1.9455  0.0820 -0.6316
  987MOL0     H33199   6.495   4.158  10.918 -0.7652  3.6310  2.5603
  987MOL0     H33200   6.489   4.116  11.085 -1.4001  0.6187 -1.4709
  987MOL0     H33201   6.684   4.286  10.920 -0.1284  1.5115 -0.8258
  987MOL0     H33202   6.746   4.217  11.076  0.5734 -0.4400  0.9054
  987MOL0     H33203   6.670   4.425  11.130  0.4183 -1.4884  1.2855
  987MOL0     H33204   6.535   4.326  11.185 -1.5441  5.7314  2.8218
  987MOL0     H33205   6.348   4.612  10.875 -0.0035  0.7415  0.4281
  987MOL0     H33206   6.272   4.837  10.947  0.7567  0.8793  0.9579
  987MOL0     H33207   6.119   5.199  11.183 -1.8082 -3.5677  0.4506
  987MOL0     H33208   6.053   5.394  11.286 -1.9738 -1.3911  0.0947
  987MOL0     H33209   5.890   5.426  11.453  1.4747  0.6416 -0.7014
  987MOL0     H33210   5.872   5.391  11.633  2.6414 -0.0941  1.3939
  987MOL0     H33211   5.859   5.664  11.496 -1.4047 -0.2541 -0.8100
  987MOL0     H33212   5.751   5.577  11.607  1.2368 -1.9528  2.3939
  987MOL0     H33213   5.891   5.617  11.795 -1.5729 -2.3992 -1.2694
  987MOL0     H33214   6.039   5.631  11.697 -0.1091  0.8263 -0.4147
  987MOL0     H33215   5.808   5.823  11.708  1.3271  2.7715  1.7463
  987MOL0     H33216   5.937   5.852  11.594  3.6779  1.8565  0.2722
  987MOL0     H33217   6.109   5.851  11.786  0.9427 -1.1891  1.4640
  987MOL0     H33218   5.975   5.819  11.887  1.1965  0.4610 -0.1913
  987MOL0     H33219   6.002   6.070  11.709 -0.9395 -1.9555 -1.8253
  987MOL0     H33220   5.878   6.043  11.828 -0.8413 -1.1800 -0.5310
  987MOL0     H33221   6.174   6.068  11.911 -0.8246  1.7109 -1.5135
  987MOL0     H33222   6.032   6.025  12.025 -1.2019 -3.3556 -1.8279
  987MOL0     H33223   6.098   6.266  12.035 -1.6766 -2.7993  2.0774
  987MOL0     H33224   6.059   6.281  11.859  1.1342  4.3896  1.6623
  987MOL0     H33225   6.177   5.248  11.669 -2.6850 -0.5517  0.4616
  987MOL0     H33226   6.247   5.025  11.540 -3.3628 -3.1178 -0.9316
  987MOL0     H33227   6.398   4.743  11.340  2.2586 -0.9918  0.5497
  987MOL0     H33228   6.508   4.523  11.250  2.2751 -1.0569 -2.3326
  987MOL0     H33229   5.420   3.545  10.702  0.2203  0.9338 -1.1946
  987MOL0     H33230   5.383   3.482  10.933  0.7393  0.5899  2.9672
  987MOL0     H33231   5.503   3.525  11.320  0.1703  1.4195  0.4457
  987MOL0     H33232   5.537   3.446  11.560 -1.5934  0.1623  1.7866
  987MOL0     H33233   5.516   3.376  11.839  1.3415  0.7621 -2.0131
  987MOL0     H33234   5.449   3.316  11.697  3.2544  2.1339 -0.1835
  987MOL0     H33235   5.210   3.311  11.810 -1.1775 -2.5954  2.4890
  987MOL0     H33236   5.302   3.328  11.964 -1.2621  0.8508 -0.9091
  987MOL0     H33237   5.446   3.151  11.908  0.5724  5.1785  0.9788
  987MOL0     H33238   5.355   3.119  11.766  0.7601 -3.2290  1.1143
  987MOL0     H33239   5.273   3.052  12.039  0.0309  0.8134  1.1355
  987MOL0     H33240   5.144   3.146  11.964  1.1045  0.0440  3.3790
  987MOL0     H33241   5.182   2.760  11.788 -0.0339 -0.2206  0.3949
  987MOL0     H33242   5.207   3.656  11.689 -1.1924  1.8081 -1.7082
  987MOL0     H33243   5.038   3.765  11.538 -0.6860  0.6272 -0.2764
  987MOL0     H33244   5.113   3.842  11.397  2.1233 -0.0493  1.4015
  987MOL0     H33245   5.035   3.683  11.389  0.0581 -2.5048  1.9155
  988MOL0     O33246   4.223   1.555   6.790 -0.7943  0.1479  0.4641
  988MOL0     C33247   4.228   1.580   6.906  1.1312  0.0975 -1.4238
  988MOL0     O33248   4.121   1.638   6.976  0.3950 -0.0430  0.0907
  988MOL0     C33249   4.008   1.636   6.899 -0.5172 -0.5884  0.1224
  988MOL0     C33250   3.883   1.576   6.937  0.3382 -0.1996 -0.1883
  988MOL0     C33251   3.765   1.580   6.862  0.2764 -0.1334  0.2933
  988MOL0     C33252   3.757   1.652   6.747 -0.0647  0.3139 -0.0671
  988MOL0     O33253   3.641   1.646   6.681  0.8073 -0.0584  0.1591
  988MOL0     C33254   3.516   1.673   6.745  0.3547 -1.0722 -0.0526
  988MOL0     C33255   3.524   1.819   6.798 -0.0147 -0.5565  0.0071
  988MOL0     C33256   3.569   1.924   6.692  0.3412  1.0666 -0.1561
  988MOL0     C33257   3.525   2.077   6.703 -0.0581 -0.8159  0.9302
  988MOL0     C33258   3.587   2.160   6.816 -0.4708 -0.8656  0.1452
  988MOL0     C33259   3.513   2.291   6.857  0.0358  0.3815  0.0465
  988MOL0     C33260   3.471   2.390   6.750  0.8055  0.5137 -0.0493
  988MOL0     C33261   3.583   2.448   6.676 -0.3464 -1.1099  0.4843
  988MOL0     N33262   3.544   2.540   6.567 -0.1202 -0.1974 -0.3549
  988MOL0     C33263   3.561   2.504   6.435  0.3776 -0.8557 -0.4695
  988MOL0     C33264   3.526   2.616   6.369 -1.4895  0.6898  0.3411
  988MOL0     C33265   3.514   2.622   6.212 -0.0439 -0.1742  0.3634
  988MOL0     C33266   3.659   2.617   6.150 -0.0191 -0.2812 -0.4729
  988MOL0     C33267   3.741   2.735   6.210  1.1970 -0.3780  0.0089
  988MOL0     C33268   3.875   2.764   6.133 -0.0010  0.8609 -0.0959
  988MOL0     O33269   3.963   2.836   6.223 -0.0685 -0.9826 -0.5637
  988MOL0     C33270   4.096   2.817   6.204  0.1017  0.0943 -0.1458
  988MOL0     C33271   4.155   2.841   6.072  0.3115  0.3001  0.0698
  988MOL0     C33272   4.288   2.826   6.053  0.0224 -0.0600 -0.0290
  988MOL0     C33273   4.368   2.777   6.160  0.1143  1.0593 -0.2062
  988MOL0     C33274   4.513   2.740   6.132  1.1877 -0.6298  0.1426
  988MOL0     O33275   4.557   2.803   6.015  0.7704 -0.0228  0.6846
  988MOL0     C33276   4.687   2.772   5.981 -0.2026 -0.2199 -0.8272
  988MOL0     C33277   4.802   2.852   6.016 -0.7987  0.3976 -0.5709
  988MOL0     C33278   4.929   2.825   5.964  0.5422  0.1094  0.1804
  988MOL0     C33279   4.956   2.712   5.885  0.2647 -0.7375  0.4765
  988MOL0     O33280   5.089   2.687   5.853  0.2104 -1.3983  0.3253
  988MOL0     C33281   5.119   2.618   5.729  0.4309 -0.1381 -0.4514
  988MOL0     C33282   5.265   2.629   5.700 -1.1105 -0.2239 -0.3402
  988MOL0     C33283   5.298   2.533   5.582 -0.2954 -0.2556 -0.5490
  988MOL0     C33284   5.447   2.535   5.552 -1.0466 -0.8610 -0.5848
  988MOL0     C33285   5.494   2.434   5.448 -0.1864  0.6948  0.1511
  988MOL0     C33286   5.450   2.286   5.471  0.7836  1.1590  0.9369
  988MOL0     C33287   5.513   2.193   5.365  0.6162 -0.2928  0.3100
  988MOL0     C33288   5.455   2.047   5.354  0.0895 -0.0143  0.3702
  988MOL0    Cl33289   5.522   1.956   5.229  0.1943  0.2312  0.0724
  988MOL0     C33290   4.843   2.634   5.849 -0.4435  0.1317  0.4460
  988MOL0     C33291   4.713   2.659   5.894  0.4292  0.1665 -0.2905
  988MOL0     O33292   4.580   2.685   6.217  0.5735 -0.0513 -0.3345
  988MOL0     C33293   4.313   2.756   6.293 -0.7864 -0.2495  0.3815
  988MOL0     C33294   4.170   2.773   6.314 -0.4358 -0.0822  0.2960
  988MOL0     N33295   3.479   2.715   6.447 -0.4246  0.1040 -0.4386
  988MOL0     N33296   3.495   2.666   6.565  0.2781 -0.1379 -0.1464
  988MOL0     C33297   3.880   1.715   6.703 -0.0840 -0.0737 -0.0434
  988MOL0     C33298   3.998   1.707   6.781  0.0642 -0.8846  0.1638
  988MOL0     C33299   4.350   1.552   6.989 -0.3183 -0.0549 -0.2815
  988MOL0     C33300   4.342   1.537   7.131  1.6813 -1.0722 -0.0313
  988MOL0     C33301   4.452   1.511   7.212  0.6957 -0.6732  0.2856
  988MOL0     C33302   4.577   1.495   7.159  0.0565  0.1993 -0.2251
  988MOL0     O33303   4.675   1.459   7.248  0.1559 -0.1344 -0.3177
  988MOL0     C33304   4.810   1.445   7.211  0.3027 -0.5995  0.1692
  988MOL0     C33305   4.882   1.378   7.333  1.2010  0.1436 -0.2710
  988MOL0     C33306   4.838   1.239   7.364 -0.5645  0.4739 -0.7834
  988MOL0     C33307   4.947   1.164   7.442  0.4256  0.5183  0.2615
  988MOL0     C33308   5.033   1.099   7.343  0.3702 -0.8196  0.2564
  988MOL0     C33309   5.097   1.037   7.269 -0.4278 -0.2914 -0.0312
  988MOL0     C33310   4.591   1.513   7.016  0.0996  0.4186 -0.8110
  988MOL0     C33311   4.479   1.541   6.935 -0.6938  0.5558  0.6159
  988MOL0     C33312   4.508   1.569   6.786 -0.1909 -0.5466  0.1651
  988MOL0     H33313   3.878   1.540   7.039 -1.2571 -1.8622 -0.8004
  988MOL0     H33314   3.678   1.538   6.912 -1.4036  0.7081 -1.8050
  988MOL0     H33315   3.441   1.650   6.669  0.8194  2.2524 -1.6784
  988MOL0     H33316   3.492   1.603   6.826 -0.4308 -0.9833 -0.2048
  988MOL0     H33317   3.591   1.815   6.885 -0.4846 -0.8989  0.3621
  988MOL0     H33318   3.432   1.859   6.843  0.0870  0.1508 -0.4050
  988MOL0     H33319   3.519   1.892   6.601 -2.9407  1.8582  1.2401
  988MOL0     H33320   3.678   1.913   6.692  0.1698 -3.3734  2.8572
  988MOL0     H33321   3.558   2.117   6.607  1.4668 -1.2110  1.2615
  988MOL0     H33322   3.416   2.084   6.706 -0.2915 -0.2395 -3.3031
  988MOL0     H33323   3.599   2.093   6.901 -2.7219 -3.0698 -1.1363
  988MOL0     H33324   3.689   2.185   6.785 -1.0649  0.0017 -1.2042
  988MOL0     H33325   3.421   2.260   6.907 -0.8570  1.6990 -0.7220
  988MOL0     H33326   3.564   2.344   6.938  0.2317 -1.7568  1.3962
  988MOL0     H33327   3.402   2.464   6.791  0.0673 -0.1014 -0.1437
  988MOL0     H33328   3.407   2.334   6.681  1.6906 -1.7619  0.8768
  988MOL0     H33329   3.627   2.518   6.747  0.5434 -0.7974 -0.3495
  988MOL0     H33330   3.658   2.377   6.642 -0.3601 -0.3312 -1.2986
  988MOL0     H33331   3.588   2.409   6.388  2.6726 -0.6833  0.3622
  988MOL0     H33332   3.475   2.529   6.169 -0.5139 -0.0582  0.5298
  988MOL0     H33333   3.456   2.710   6.181  0.3789 -0.8986 -2.8692
  988MOL0     H33334   3.698   2.518   6.174  2.5788  0.1821 -2.2765
  988MOL0     H33335   3.641   2.630   6.043 -2.0355 -2.8938 -0.5210
  988MOL0     H33336   3.760   2.710   6.315 -1.0770 -0.4233  0.4540
  988MOL0     H33337   3.689   2.831   6.208  1.1618 -0.3125 -3.7459
  988MOL0     H33338   3.869   2.827   6.043 -0.8517  1.2219  0.2044
  988MOL0     H33339   3.911   2.661   6.124  0.6139  0.9271  1.4663
  988MOL0     H33340   4.089   2.879   5.995  2.2457  2.1256 -0.8115
  988MOL0     H33341   4.332   2.834   5.953  0.5762 -1.6575  0.0640
  988MOL0     H33342   4.790   2.934   6.085 -0.0786 -2.2179  2.9447
  988MOL0     H33343   5.010   2.892   5.993  1.4330 -0.2605 -1.3414
  988MOL0     H33344   5.087   2.515   5.742  2.6300 -0.7008  1.2977
  988MOL0     H33345   5.060   2.660   5.647 -1.7969  1.5382  1.8369
  988MOL0     H33346   5.287   2.731   5.666 -0.9002  0.2429  1.0946
  988MOL0     H33347   5.328   2.617   5.789 -2.3899 -0.4933  0.5616
  988MOL0     H33348   5.272   2.434   5.620  1.7602 -0.3174  0.8449
  988MOL0     H33349   5.247   2.565   5.490  1.0327 -1.7125 -1.8539
  988MOL0     H33350   5.498   2.514   5.647 -2.8427  0.9110  0.8622
  988MOL0     H33351   5.474   2.639   5.529  0.8347 -0.8508  1.3215
  988MOL0     H33352   5.603   2.443   5.442  0.2873 -2.4689  1.6106
  988MOL0     H33353   5.462   2.477   5.353 -2.2167  1.1688  1.0052
  988MOL0     H33354   5.489   2.255   5.568  1.1090  2.1820  1.1513
  988MOL0     H33355   5.341   2.275   5.472  0.9845 -2.0732 -0.2190
  988MOL0     H33356   5.622   2.185   5.361  0.6810  0.0204 -4.6613
  988MOL0     H33357   5.488   2.240   5.270  2.6595 -0.5468 -0.4027
  988MOL0     H33358   5.489   1.999   5.446  0.2966  0.1316  0.3714
  988MOL0     H33359   5.346   2.054   5.359  0.1543  3.8570 -0.2956
  988MOL0     H33360   4.865   2.540   5.799 -3.0785 -0.9157  1.0640
  988MOL0     H33361   4.628   2.597   5.867  0.9879 -1.2410  1.0410
  988MOL0     H33362   4.381   2.725   6.372 -2.9094 -0.4253  2.2431
  988MOL0     H33363   4.124   2.749   6.409 -1.3631 -0.5377 -0.2497
  988MOL0     H33364   3.888   1.775   6.613  0.6443  1.1712  0.8271
  988MOL0     H33365   4.081   1.764   6.742 -1.4748  0.2802 -1.6157
  988MOL0     H33366   4.249   1.545   7.185  3.4381  1.3818  2.9492
  988MOL0     H33367   4.440   1.517   7.320 -2.5547 -0.8656  0.0574
  988MOL0     H33368   4.859   1.540   7.187  2.0943 -2.2964 -3.6962
  988MOL0     H33369   4.827   1.389   7.119  1.7879 -0.1911  0.1650
  988MOL0     H33370   4.865   1.434   7.425 -0.4047  1.2521 -1.1884
  988MOL0     H33371   4.989   1.383   7.311  1.4548  0.1621  0.9437
  988MOL0     H33372   4.803   1.184   7.277 -3.9415  0.9642  0.1454
  988MOL0     H33373   4.756   1.256   7.434  1.4597  4.2798  0.9359
  988MOL0     H33374   5.007   1.234   7.501  3.3041  0.4800 -2.3724
  988MOL0     H33375   4.904   1.101   7.521 -0.5680  1.2742  0.3401
  988MOL0     H33376   5.149   0.974   7.201 -2.4567 -1.1440 -0.8532
  988MOL0     H33377   4.691   1.512   6.975  0.1659 -2.2526 -0.7331
  988MOL0     H33378   4.614   1.548   6.767 -0.5965 -1.7724 -0.8682
  988MOL0     H33379   4.447   1.503   6.725  0.5479  0.6383 -1.9856
  988MOL0     H33380   4.492   1.670   6.746 -1.3353 -1.0368 -0.6658
  989MOL0     O33381   6.533   6.500   0.473 -0.3941  0.0580 -0.5850
  989MOL0     C33382   6.421   6.486   0.506 -1.2071 -0.0814 -0.3640
  989MOL0     O33383   6.330   6.392   0.448 -1.3014 -0.2949 -0.7801
  989MOL0     C33384   6.403   6.298   0.386 -0.6265  0.0426  0.7441
  989MOL0     C33385   6.462   6.191   0.464  0.5490  0.8702  0.4323
  989MOL0     C33386   6.523   6.081   0.401 -0.0711  0.1332 -0.0438
  989MOL0     C33387   6.541   6.077   0.257  0.1348  0.7896 -0.5329
  989MOL0     O33388   6.625   5.995   0.187 -0.4559 -0.5160  0.2431
  989MOL0     C33389   6.655   5.871   0.252 -0.0491 -1.0079  0.2458
  989MOL0     C33390   6.737   5.776   0.163  0.3923 -0.5062 -0.0766
  989MOL0     C33391   6.876   5.845   0.133  0.2887  0.1442  0.6411
  989MOL0     C33392   6.995   5.750   0.083  0.5469  0.3279  0.4396
  989MOL0     C33393   7.067   5.679   0.203 -0.1780 -0.0363  0.1421
  989MOL0     C33394   7.142   5.777   0.300 -0.3265  0.3257  0.0898
  989MOL0     C33395   7.201   5.717   0.425 -0.6183  0.0897  0.9253
  989MOL0     C33396   7.313   5.615   0.393  1.2121 -0.5088 -0.1005
  989MOL0     N33397   7.397   5.635   0.513 -0.0307  1.6313  0.7321
  989MOL0     C33398   7.506   5.710   0.529 -0.3840 -0.8710  0.0229
  989MOL0     C33399   7.549   5.688   0.663  0.7681 -0.3945  0.0883
  989MOL0     C33400   7.669   5.743   0.742 -0.5856 -0.9625 -0.4427
  989MOL0     C33401   7.801   5.661   0.722 -0.2069 -0.1383 -0.3183
  989MOL0     C33402   7.781   5.528   0.787 -0.3422 -0.1155 -0.2574
  989MOL0     C33403   7.906   5.442   0.791  0.5417 -0.0138  0.5654
  989MOL0     O33404   7.865   5.319   0.846 -0.0617 -0.5425  0.8800
  989MOL0     C33405   7.955   5.214   0.848  0.5833  0.5563  0.1286
  989MOL0     C33406   8.085   5.224   0.801  0.3855 -0.0586 -0.0232
  989MOL0     C33407   8.170   5.120   0.789 -0.0570  0.2455 -0.5489
  989MOL0     C33408   8.128   4.986   0.822  0.1312  0.4494 -1.1652
  989MOL0     C33409   8.222   4.873   0.829 -0.9948  0.1059  0.7760
  989MOL0     O33410   8.350   4.909   0.800 -0.0167  0.0118 -0.1420
  989MOL0     C33411   8.459   4.835   0.827  0.6840 -0.6423  0.3878
  989MOL0     C33412   8.490   4.760   0.939  1.1575 -0.6118  0.6405
  989MOL0     C33413   8.622   4.702   0.955 -0.3287  0.8419 -0.2468
  989MOL0     C33414   8.722   4.721   0.855 -0.0715  0.1883 -0.4966
  989MOL0     O33415   8.844   4.657   0.863 -0.2156 -0.0345  0.4835
  989MOL0     C33416   8.848   4.535   0.780  0.8361  0.0604  0.2367
  989MOL0     C33417   8.867   4.409   0.875 -0.7151 -0.0466  0.0733
  989MOL0     C33418   8.861   4.271   0.810  1.3722 -0.7899 -0.9758
  989MOL0     C33419   8.771   4.248   0.688  0.6874  0.1091  0.0693
  989MOL0     C33420   8.620   4.280   0.709 -0.0717 -0.0696  0.2686
  989MOL0     C33421   8.530   4.156   0.687  0.0650  0.5197  0.2450
  989MOL0     C33422   8.522   4.030   0.788 -0.2779 -0.1460  0.4905
  989MOL0     C33423   8.426   3.917   0.728 -0.1163  1.0059  0.9070
  989MOL0    Cl33424   8.494   3.846   0.576 -0.2962 -0.0922  0.0515
  989MOL0     C33425   8.696   4.805   0.747  0.3677 -0.3689 -0.9436
  989MOL0     C33426   8.568   4.859   0.740  0.0400 -0.5585 -0.8930
  989MOL0     O33427   8.188   4.760   0.856 -0.3733  0.1639 -0.4192
  989MOL0     C33428   8.000   4.969   0.864 -0.0153  0.9717  0.2977
  989MOL0     C33429   7.916   5.076   0.868  0.4703  0.6465 -1.1271
  989MOL0     N33430   7.458   5.613   0.722 -0.7255 -0.7241 -0.4772
  989MOL0     N33431   7.372   5.576   0.633 -0.1221 -0.1408  0.5246
  989MOL0     C33432   6.485   6.174   0.178  0.5363 -0.3999 -0.9666
  989MOL0     C33433   6.415   6.280   0.243 -0.0639  0.1893  0.0659
  989MOL0     C33434   6.364   6.579   0.603 -0.8236  0.0863  0.7879
  989MOL0     C33435   6.246   6.535   0.664  0.7401 -0.4938 -1.3377
  989MOL0     C33436   6.177   6.617   0.762  0.2689  0.1282 -0.0045
  989MOL0     C33437   6.219   6.746   0.792 -0.8269  0.2008 -0.5159
  989MOL0     O33438   6.181   6.823   0.893 -0.5784 -0.3114 -0.6620
  989MOL0     C33439   6.048   6.802   0.953  0.3575 -0.0684  0.8502
  989MOL0     C33440   5.936   6.869   0.863  0.0682  1.0674  0.4046
  989MOL0     C33441   5.895   7.016   0.874 -0.9989  0.7997 -0.0329
  989MOL0     C33442   5.908   7.077   1.011  0.5108  1.1122  0.7732
  989MOL0     C33443   5.847   7.212   0.998 -1.2205 -0.5355 -0.2660
  989MOL0     C33444   5.789   7.322   0.974  0.4504 -0.1631  0.2286
  989MOL0     C33445   6.339   6.784   0.735  0.3235 -0.2830  1.3629
  989MOL0     C33446   6.415   6.699   0.645  0.4290 -1.0436  0.4073
  989MOL0     C33447   6.550   6.751   0.583  1.2045  0.2636  0.2989
  989MOL0     H33448   6.455   6.188   0.572  1.1667 -3.2777  0.5329
  989MOL0     H33449   6.565   5.998   0.458 -0.8914  1.3447  2.4575
  989MOL0     H33450   6.717   5.888   0.341 -0.6111  1.4639  0.2387
  989MOL0     H33451   6.557   5.826   0.271 -1.1918  0.2438 -2.3007
  989MOL0     H33452   6.673   5.752   0.078 -0.5383  0.2456  0.3898
  989MOL0     H33453   6.746   5.678   0.211 -1.9623 -1.6586 -1.7921
  989MOL0     H33454   6.910   5.895   0.224 -2.0395  1.2981  0.9337
  989MOL0     H33455   6.856   5.931   0.069 -2.7982  0.6688  2.1533
  989MOL0     H33456   6.956   5.674   0.014  2.0400 -0.1238  0.0494
  989MOL0     H33457   7.071   5.802   0.023 -1.2290 -1.3322 -3.6601
  989MOL0     H33458   6.999   5.616   0.262  1.8058 -0.3875  2.2160
  989MOL0     H33459   7.141   5.610   0.160  0.6076  2.0477 -2.0992
  989MOL0     H33460   7.218   5.834   0.246  1.3220 -3.6184 -2.1994
  989MOL0     H33461   7.070   5.853   0.331 -1.4854  0.5619 -2.8342
  989MOL0     H33462   7.128   5.678   0.497  0.1426 -1.7576  0.7430
  989MOL0     H33463   7.248   5.805   0.471 -0.8557  1.6417 -1.6358
  989MOL0     H33464   7.281   5.513   0.372  0.5255 -0.3525  0.1433
  989MOL0     H33465   7.359   5.653   0.302  0.4701 -1.5235 -0.9157
  989MOL0     H33466   7.570   5.772   0.468 -0.4508 -0.6384  0.1853
  989MOL0     H33467   7.689   5.843   0.704  0.6871 -0.8327  0.4910
  989MOL0     H33468   7.639   5.763   0.845  3.5170  1.1743  0.5649
  989MOL0     H33469   7.825   5.637   0.618  0.8463 -1.6440  0.2396
  989MOL0     H33470   7.889   5.717   0.753  1.2719 -2.6534  0.3100
  989MOL0     H33471   7.692   5.481   0.743  0.9640 -1.9385 -1.0468
  989MOL0     H33472   7.751   5.549   0.890  0.3359  2.2082 -0.4743
  989MOL0     H33473   7.969   5.494   0.864  0.6967  1.3106 -0.4794
  989MOL0     H33474   7.953   5.434   0.693 -1.1364  0.7332 -0.3358
  989MOL0     H33475   8.121   5.322   0.769 -0.0603  1.1102  2.7534
  989MOL0     H33476   8.272   5.138   0.754 -0.5897  0.4108 -2.1058
  989MOL0     H33477   8.413   4.760   1.015  3.1981 -0.0702  2.8171
  989MOL0     H33478   8.648   4.644   1.043  1.7398 -1.4192 -2.1916
  989MOL0     H33479   8.773   4.521   0.701  3.8476  1.0520 -3.0515
  989MOL0     H33480   8.936   4.552   0.717  0.4234  1.5460  0.0390
  989MOL0     H33481   8.965   4.420   0.921  0.0681  0.3745 -1.6043
  989MOL0     H33482   8.787   4.414   0.949 -0.5296 -0.9714  0.3482
  989MOL0     H33483   8.962   4.244   0.776  1.9888 -0.4771  0.5285
  989MOL0     H33484   8.821   4.204   0.887  1.0550  1.8403  1.3149
  989MOL0     H33485   8.783   4.143   0.658 -1.1014 -0.3862  0.9036
  989MOL0     H33486   8.800   4.305   0.600  1.4704 -0.5842 -0.1296
  989MOL0     H33487   8.599   4.345   0.624  1.6761  0.0105 -0.1356
  989MOL0     H33488   8.609   4.330   0.806  1.6464  0.4240  0.2304
  989MOL0     H33489   8.426   4.190   0.690 -0.4523 -1.0197  0.2987
  989MOL0     H33490   8.549   4.123   0.584  4.4568  0.3024  0.9330
  989MOL0     H33491   8.471   4.060   0.881 -0.8864  0.1278  0.0749
  989MOL0     H33492   8.621   3.992   0.815 -0.6245 -0.6045  1.1601
  989MOL0     H33493   8.404   3.834   0.797  0.2990 -0.2356 -0.3874
  989MOL0     H33494   8.333   3.956   0.686  0.0383 -3.7587 -5.6622
  989MOL0     H33495   8.769   4.831   0.671  0.5016  0.4759 -0.5327
  989MOL0     H33496   8.545   4.919   0.652  0.3876  0.4262 -0.3315
  989MOL0     H33497   7.974   4.869   0.896  1.8192  1.3071  3.1733
  989MOL0     H33498   7.814   5.056   0.897  1.2724 -2.3914  0.0213
  989MOL0     H33499   6.484   6.163   0.070 -2.6344  0.3036 -1.1217
  989MOL0     H33500   6.370   6.345   0.169  0.8037  1.1392  0.3582
  989MOL0     H33501   6.204   6.435   0.659 -0.2019 -0.0494 -3.0804
  989MOL0     H33502   6.098   6.568   0.817 -0.8335  2.3312  0.4857
  989MOL0     H33503   6.040   6.850   1.051  1.4806 -1.2727  1.5574
  989MOL0     H33504   6.019   6.698   0.969  3.0740 -0.9619  0.4795
  989MOL0     H33505   5.836   6.826   0.873 -0.0772  0.1953 -3.3191
  989MOL0     H33506   5.971   6.836   0.765 -0.6683 -0.6139  0.6653
  989MOL0     H33507   5.789   7.024   0.848 -0.5565 -1.1614 -2.8841
  989MOL0     H33508   5.957   7.068   0.800 -0.5308  1.3388  0.7156
  989MOL0     H33509   5.847   7.018   1.080 -0.3341 -0.0356 -0.9181
  989MOL0     H33510   6.007   7.092   1.055  0.9977  1.1340 -0.3076
  989MOL0     H33511   5.733   7.408   0.946  1.1106 -0.3060 -1.7023
  989MOL0     H33512   6.381   6.883   0.747  1.0661 -0.1676 -1.5093
  989MOL0     H33513   6.576   6.842   0.638  4.2291 -0.6319  0.5113
  989MOL0     H33514   6.622   6.672   0.602 -2.1742 -2.8202  1.4609
  989MOL0     H33515   6.536   6.781   0.479 -3.7318  1.6273  1.0864
  990MOL0     O33516   7.855   9.821   0.734 -0.3118 -0.0060  0.1205
  990MOL0     C33517   7.949   9.751   0.722 -0.4879 -0.4924 -0.0625
  990MOL0     O33518   7.974   9.666   0.617 -0.7340 -0.0573  0.1521
  990MOL0     C33519   7.875   9.659   0.518 -0.1556  1.3900 -0.3595
  990MOL0     C33520   7.768   9.576   0.542  0.4080  0.4582  0.0682
  990MOL0     C33521   7.672   9.560   0.443  0.7374 -0.4460 -0.1208
  990MOL0     C33522   7.692   9.621   0.313  0.7485 -0.3527 -0.4767
  990MOL0     O33523   7.612   9.607   0.204 -0.6454 -0.7486 -0.2757
  990MOL0     C33524   7.525   9.495   0.202  0.0354 -0.3585  0.0511
  990MOL0     C33525   7.500   9.477   0.053  0.1655 -0.6916 -0.1651
  990MOL0     C33526   7.620   9.426  -0.015 -0.1318  0.4146  0.0059
  990MOL0     C33527   7.593   9.388  -0.167  0.0610 -0.1160  0.4805
  990MOL0     C33528   7.488   9.271  -0.196 -0.1900 -0.8407 -0.8087
  990MOL0     C33529   7.345   9.322  -0.236 -0.4963  0.4273  0.3995
  990MOL0     C33530   7.248   9.209  -0.276 -0.7458 -0.0699  0.6299
  990MOL0     C33531   7.213   9.115  -0.168 -0.9913 -0.1513  0.0056
  990MOL0     N33532   7.127   9.171  -0.063 -1.2020  0.0562  0.5330
  990MOL0     C33533   6.990   9.177  -0.068 -0.3017  0.5579 -0.5520
  990MOL0     C33534   6.946   9.250   0.041  0.0266  0.7003  0.9464
  990MOL0     C33535   6.801   9.279   0.061 -0.2662 -0.7036  0.2369
  990MOL0     C33536   6.783   9.394   0.160  0.1880 -0.3824 -0.3305
  990MOL0     C33537   6.625   9.426   0.184 -0.1822 -1.0595 -0.3324
  990MOL0     C33538   6.608   9.522   0.302 -1.1803 -0.4120  0.5595
  990MOL0     O33539   6.496   9.607   0.271  0.1453 -0.2424  0.6899
  990MOL0     C33540   6.384   9.546   0.321 -0.2480 -0.0389 -0.2656
  990MOL0     C33541   6.345   9.577   0.451  0.5242  0.5414 -0.0746
  990MOL0     C33542   6.241   9.500   0.510 -1.2266  0.1315 -0.1006
  990MOL0     C33543   6.186   9.390   0.442  0.3606 -0.6612  0.7421
  990MOL0     C33544   6.089   9.303   0.511  0.8235 -0.4634  0.9985
  990MOL0     O33545   6.054   9.329   0.642 -0.4595 -0.3534  0.3163
  990MOL0     C33546   5.947   9.268   0.713 -0.2841 -0.5923  0.3109
  990MOL0     C33547   5.900   9.145   0.684 -0.8922  0.6417  0.9288
  990MOL0     C33548   5.780   9.091   0.742 -0.6701  0.2841 -0.0408
  990MOL0     C33549   5.721   9.153   0.854 -0.2195 -0.1097 -0.1075
  990MOL0     O33550   5.613   9.101   0.912  0.3610  0.1965 -0.0722
  990MOL0     C33551   5.593   9.119   1.055  0.7762 -0.1510 -0.3676
  990MOL0     C33552   5.508   9.009   1.095  0.2520 -0.0033  0.6756
  990MOL0     C33553   5.580   8.881   1.102  0.1780 -1.1601  0.0736
  990MOL0     C33554   5.504   8.763   1.158  0.3918 -0.3144 -0.2924
  990MOL0     C33555   5.584   8.673   1.261 -0.2950 -1.0291 -0.3370
  990MOL0     C33556   5.524   8.541   1.283 -0.7377 -0.3697  0.1243
  990MOL0     C33557   5.589   8.461   1.395 -0.5067  0.5442 -0.6660
  990MOL0     C33558   5.544   8.312   1.398  1.5653  0.3072 -0.5885
  990MOL0    Cl33559   5.627   8.234   1.530  0.0178 -0.3335  0.4294
  990MOL0     C33560   5.781   9.270   0.897  0.1651  0.9259 -0.1668
  990MOL0     C33561   5.884   9.334   0.825  0.8373 -0.0225  0.6615
  990MOL0     O33562   6.037   9.218   0.433  0.2935  0.5156 -0.5128
  990MOL0     C33563   6.215   9.377   0.300 -0.6107 -0.1729 -1.6021
  990MOL0     C33564   6.305   9.464   0.244  0.0357 -0.1169  0.2299
  990MOL0     N33565   7.058   9.299   0.099  1.0978  0.1973 -0.4630
  990MOL0     N33566   7.165   9.246   0.046  0.7284  0.5131 -0.6025
  990MOL0     C33567   7.795   9.706   0.299  0.5370 -0.7324 -0.1029
  990MOL0     C33568   7.884   9.726   0.402  0.3273 -0.9685 -0.9795
  990MOL0     C33569   8.049   9.734   0.833 -0.7348  0.1827 -0.4363
  990MOL0     C33570   8.174   9.691   0.791 -0.4118 -0.1292 -0.1538
  990MOL0     C33571   8.271   9.671   0.883  0.0742  0.0168  0.3396
  990MOL0     C33572   8.263   9.703   1.019  0.7834  0.8260  0.1913
  990MOL0     O33573   8.367   9.659   1.102  0.6613  0.0832 -0.0729
  990MOL0     C33574   8.360   9.690   1.245 -1.2342 -0.1814 -0.2361
  990MOL0     C33575   8.489   9.686   1.315 -0.3737  0.2598  1.1978
  990MOL0     C33576   8.591   9.786   1.266 -0.5378 -0.2046 -0.3129
  990MOL0     C33577   8.721   9.769   1.359  1.1358 -0.3702  0.5910
  990MOL0     C33578   8.700   9.787   1.498 -0.5687  1.1416  0.1217
  990MOL0     C33579   8.668   9.803   1.613 -0.0564 -0.0530  0.1048
  990MOL0     C33580   8.151   9.770   1.062  0.3760  0.0062 -0.5033
  990MOL0     C33581   8.043   9.787   0.966 -0.6967  0.3569 -0.0673
  990MOL0     C33582   7.913   9.857   1.012 -0.0780 -0.6084 -0.6613
  990MOL0     H33583   7.752   9.524   0.636 -1.4916 -0.2497 -0.5875
  990MOL0     H33584   7.583   9.501   0.462  1.5745 -0.9633  2.6372
  990MOL0     H33585   7.568   9.403   0.244  1.0835  1.4848  3.3824
  990MOL0     H33586   7.437   9.519   0.263 -0.2790 -2.0234  0.3088
  990MOL0     H33587   7.474   9.579   0.022  0.4227 -0.1452  1.2953
  990MOL0     H33588   7.413   9.411   0.042  0.0988 -0.3521 -1.9609
  990MOL0     H33589   7.650   9.335   0.039  0.7451  0.6640 -0.0418
  990MOL0     H33590   7.709   9.489  -0.009  0.9329 -0.9438 -0.6167
  990MOL0     H33591   7.557   9.478  -0.218 -2.2372 -0.7407  0.8496
  990MOL0     H33592   7.685   9.343  -0.205 -0.4423  0.3620 -1.3885
  990MOL0     H33593   7.533   9.210  -0.275  1.5139 -2.1152  1.0712
  990MOL0     H33594   7.483   9.208  -0.107 -0.9344  0.6878  0.2704
  990MOL0     H33595   7.302   9.387  -0.158  0.3323  1.8716 -0.3022
  990MOL0     H33596   7.353   9.386  -0.324 -3.8308 -0.5306 -0.7557
  990MOL0     H33597   7.291   9.158  -0.363 -1.9043 -1.0706  0.6183
  990MOL0     H33598   7.147   9.240  -0.305 -0.8689 -2.5146 -1.9722
  990MOL0     H33599   7.162   9.024  -0.200  0.2485 -1.9881  2.8826
  990MOL0     H33600   7.306   9.079  -0.123  0.0110  1.6556 -0.4759
  990MOL0     H33601   6.928   9.127  -0.143 -1.3438 -0.1835  0.7677
  990MOL0     H33602   6.752   9.306  -0.033 -3.5134 -1.6453  1.5000
  990MOL0     H33603   6.751   9.188   0.097 -0.3363 -0.9552 -0.4756
  990MOL0     H33604   6.825   9.363   0.256 -1.6046  2.5276  1.5542
  990MOL0     H33605   6.834   9.479   0.114  1.6241 -1.3142 -0.5210
  990MOL0     H33606   6.566   9.335   0.201  1.0502 -1.7489  0.4732
  990MOL0     H33607   6.584   9.472   0.094 -0.2969  1.7355  1.0691
  990MOL0     H33608   6.699   9.583   0.307 -1.4133  0.1557 -1.4426
  990MOL0     H33609   6.610   9.467   0.397 -3.3334 -3.3149 -0.9216
  990MOL0     H33610   6.386   9.655   0.514 -1.6198  1.3145  0.4383
  990MOL0     H33611   6.217   9.530   0.612  1.8461 -0.4274  0.9070
  990MOL0     H33612   5.931   9.074   0.608  0.3945 -1.2304  3.0957
  990MOL0     H33613   5.743   9.000   0.697  1.1790  0.6265 -2.4580
  990MOL0     H33614   5.683   9.137   1.114  1.0458 -0.8018 -0.5784
  990MOL0     H33615   5.543   9.216   1.070  2.5610  1.1604 -2.2875
  990MOL0     H33616   5.449   9.030   1.184  0.5395 -3.3048  1.7866
  990MOL0     H33617   5.442   8.987   1.010  0.5830 -2.1720  0.9182
  990MOL0     H33618   5.603   8.851   1.000 -3.9204 -0.5283 -1.2408
  990MOL0     H33619   5.665   8.906   1.166  0.3939  1.7190 -1.1894
  990MOL0     H33620   5.481   8.694   1.076 -3.4709  0.9955 -0.4975
  990MOL0     H33621   5.407   8.791   1.199  0.3226 -0.3788 -0.4086
  990MOL0     H33622   5.608   8.730   1.351 -3.7801  2.0643 -1.0932
  990MOL0     H33623   5.678   8.655   1.209  0.1998  2.9101 -1.1535
  990MOL0     H33624   5.422   8.549   1.324  0.4145  2.3793  2.8256
  990MOL0     H33625   5.516   8.492   1.186  1.5714  1.0784 -0.8716
  990MOL0     H33626   5.546   8.504   1.486 -0.5939  3.1480 -1.8503
  990MOL0     H33627   5.697   8.476   1.392  0.2829 -3.0862 -6.6446
  990MOL0     H33628   5.437   8.315   1.422  1.1556  2.0790 -2.3681
  990MOL0     H33629   5.560   8.258   1.304 -1.2232 -3.0096  0.6060
  990MOL0     H33630   5.742   9.320   0.985 -0.0944  0.4826 -0.0296
  990MOL0     H33631   5.926   9.431   0.850  3.5585 -1.1975  1.0074
  990MOL0     H33632   6.160   9.303   0.243  1.6901 -1.3360 -2.4613
  990MOL0     H33633   6.330   9.448   0.140 -1.6977 -0.2295 -0.2045
  990MOL0     H33634   7.807   9.756   0.203 -0.6496 -2.4771 -1.2032
  990MOL0     H33635   7.964   9.799   0.394 -3.1078  3.4869  0.8707
  990MOL0     H33636   8.198   9.668   0.688  2.5986 -0.3418  0.5053
  990MOL0     H33637   8.358   9.610   0.859 -1.0159 -1.9361  1.0899
  990MOL0     H33638   8.299   9.613   1.293 -2.8413  0.7157 -0.7646
  990MOL0     H33639   8.318   9.788   1.270 -1.8582 -0.7221  0.9238
  990MOL0     H33640   8.534   9.587   1.299  2.7037  1.4073  2.0480
  990MOL0     H33641   8.466   9.711   1.419  1.2493 -0.0494  1.6620
  990MOL0     H33642   8.557   9.887   1.289 -3.3268 -1.0104 -0.5628
  990MOL0     H33643   8.607   9.766   1.159 -0.7048  1.2062 -0.6274
  990MOL0     H33644   8.774   9.673   1.357 -1.2923 -1.8097  1.3185
  990MOL0     H33645   8.795   9.837   1.316 -0.1573  0.6667 -0.1088
  990MOL0     H33646   8.632   9.801   1.714  0.6260 -1.1103  0.3433
  990MOL0     H33647   8.131   9.792   1.166 -0.3324  0.0723 -0.6458
  990MOL0     H33648   7.920   9.880   1.119 -1.1014  2.9144 -1.2335
  990MOL0     H33649   7.896   9.953   0.963 -2.5328 -0.7961 -0.2972
  990MOL0     H33650   7.828   9.793   0.989 -0.5498 -1.0267  1.9625
  991MOL0     O33651   0.417   5.338   1.169  0.2976 -0.3308  0.0928
  991MOL0     C33652   0.335   5.402   1.226  0.0750 -0.5354  0.2364
  991MOL0     O33653   0.357   5.466   1.339  0.6369 -0.1869  0.5395
  991MOL0     C33654   0.485   5.456   1.398  0.9389  0.4234  1.2586
  991MOL0     C33655   0.593   5.520   1.340  0.4454  0.3543 -1.2516
  991MOL0     C33656   0.717   5.527   1.405 -0.2207 -0.4151  0.6494
  991MOL0     C33657   0.745   5.461   1.529 -0.3059 -1.0436 -0.2648
  991MOL0     O33658   0.871   5.481   1.586  0.5835  0.3402 -0.2479
  991MOL0     C33659   0.942   5.610   1.584 -0.6199 -0.2440  1.0273
  991MOL0     C33660   1.044   5.604   1.696 -1.1905  0.1078 -0.4119
  991MOL0     C33661   1.106   5.741   1.730 -0.1546  0.0811 -0.3445
  991MOL0     C33662   1.226   5.734   1.825 -0.0940  0.7931  0.0123
  991MOL0     C33663   1.181   5.691   1.971 -0.0157 -0.3940  0.5651
  991MOL0     C33664   1.306   5.678   2.053  0.6395 -0.5465 -0.5045
  991MOL0     C33665   1.273   5.655   2.195  0.1429  0.5026 -0.0475
  991MOL0     C33666   1.387   5.697   2.285  0.2763  0.3867 -0.4289
  991MOL0     N33667   1.343   5.668   2.424 -0.5478 -0.0964  0.7969
  991MOL0     C33668   1.313   5.544   2.487  0.4952 -0.4880 -0.3297
  991MOL0     C33669   1.241   5.583   2.592 -0.7382 -0.2081 -0.0955
  991MOL0     C33670   1.172   5.488   2.686 -0.1873  0.5932  0.3861
  991MOL0     C33671   1.231   5.344   2.724  0.8885 -0.5782 -0.4181
  991MOL0     C33672   1.190   5.281   2.858  0.3498 -0.4214 -0.1931
  991MOL0     C33673   1.035   5.260   2.884 -0.8807  0.2802 -0.0510
  991MOL0     O33674   0.985   5.375   2.952 -0.3447 -0.0510 -0.1533
  991MOL0     C33675   0.854   5.376   2.977  0.8777 -0.6667  0.3769
  991MOL0     C33676   0.803   5.491   3.044  0.1720 -0.2971 -0.0542
  991MOL0     C33677   0.668   5.512   3.072  0.2108  1.1081  0.4645
  991MOL0     C33678   0.581   5.406   3.047 -0.5871  0.3750 -0.4581
  991MOL0     C33679   0.443   5.400   3.100  0.4688 -0.0983 -0.7453
  991MOL0     O33680   0.390   5.517   3.145 -0.5018 -0.5070 -0.3074
  991MOL0     C33681   0.257   5.538   3.178 -0.1745 -0.6633  0.0386
  991MOL0     C33682   0.145   5.476   3.120 -0.0843  0.5483  0.0633
  991MOL0     C33683   0.014   5.494   3.163 -0.3701  0.3630 -0.0637
  991MOL0     C33684  -0.003   5.590   3.266  0.2100  0.4856  0.1321
  991MOL0     O33685  -0.131   5.624   3.298 -0.3934  0.5452 -0.4254
  991MOL0     C33686  -0.216   5.529   3.366  0.4917  0.2160 -0.9351
  991MOL0     C33687  -0.147   5.443   3.481  0.5311 -0.6822  0.3617
  991MOL0     C33688  -0.253   5.367   3.567 -0.4059 -0.6773 -0.2303
  991MOL0     C33689  -0.203   5.330   3.704  0.5816  0.4423 -1.0556
  991MOL0     C33690  -0.315   5.285   3.789 -0.2605  0.5012 -0.9426
  991MOL0     C33691  -0.274   5.204   3.925 -0.6660  0.3006 -0.0979
  991MOL0     C33692  -0.398   5.161   4.006 -0.8758  0.5321 -0.4854
  991MOL0     C33693  -0.368   5.075   4.129 -0.1123 -0.4168 -0.2515
  991MOL0    Cl33694  -0.517   5.060   4.233  0.0257  0.2448  0.0304
  991MOL0     C33695   0.105   5.660   3.318 -0.2178  0.1136  0.4972
  991MOL0     C33696   0.238   5.627   3.279 -0.3661  0.0641  0.6038
  991MOL0     O33697   0.377   5.297   3.099  0.7222 -0.6166 -0.2231
  991MOL0     C33698   0.623   5.291   2.983 -0.3812  0.1874 -1.4043
  991MOL0     C33699   0.761   5.277   2.946  0.3501  0.3701  0.3604
  991MOL0     N33700   1.250   5.722   2.602  0.1709 -0.3518 -0.6872
  991MOL0     N33701   1.313   5.774   2.498  0.0046  0.4871  0.4344
  991MOL0     C33702   0.634   5.395   1.588 -0.1889 -0.1177  0.3207
  991MOL0     C33703   0.506   5.390   1.519 -0.1874 -0.6987 -0.1761
  991MOL0     C33704   0.210   5.420   1.147  0.0482 -0.1531  0.5947
  991MOL0     C33705   0.214   5.441   1.009  0.4368  0.2586  0.3872
  991MOL0     C33706   0.101   5.449   0.929  0.3391 -0.1671 -0.4790
  991MOL0     C33707  -0.021   5.444   0.992  0.2168  0.6445  0.5512
  991MOL0     O33708  -0.129   5.445   0.904  0.0360  0.2480 -0.0705
  991MOL0     C33709  -0.168   5.314   0.843  0.2072 -0.0796 -0.6290
  991MOL0     C33710  -0.323   5.296   0.834 -0.8556  0.6254 -0.2675
  991MOL0     C33711  -0.372   5.262   0.974  0.0541 -0.3496 -0.3097
  991MOL0     C33712  -0.524   5.224   0.977 -0.6568  0.8527 -0.1475
  991MOL0     C33713  -0.574   5.178   1.110  1.0073 -0.0337 -0.0523
  991MOL0     C33714  -0.613   5.129   1.213  0.2754 -0.2254 -0.1248
  991MOL0     C33715  -0.032   5.405   1.124 -0.5654  0.2477 -0.6594
  991MOL0     C33716   0.079   5.405   1.205 -1.0852  0.5344  0.9491
  991MOL0     C33717   0.068   5.380   1.358 -0.9530 -0.1487 -0.6359
  991MOL0     H33718   0.573   5.558   1.240 -0.8554  2.0428 -0.4023
  991MOL0     H33719   0.803   5.569   1.353 -0.9873 -0.9768 -1.1780
  991MOL0     H33720   0.994   5.630   1.490  4.0401  0.9385  3.5644
  991MOL0     H33721   0.868   5.689   1.602 -0.1349  0.2431  0.8966
  991MOL0     H33722   1.133   5.543   1.676 -2.0230 -1.1622 -0.3089
  991MOL0     H33723   1.007   5.560   1.789  1.9069 -4.6121 -1.0488
  991MOL0     H33724   1.031   5.804   1.780  0.4018  0.6583 -0.2196
  991MOL0     H33725   1.148   5.786   1.640  1.0880  0.0366  0.1857
  991MOL0     H33726   1.310   5.675   1.786 -1.3239 -1.0107 -0.0204
  991MOL0     H33727   1.263   5.836   1.838 -0.8980  1.0335  0.4779
  991MOL0     H33728   1.103   5.753   2.017  0.0474 -2.4923  3.8476
  991MOL0     H33729   1.144   5.588   1.968  0.3162 -0.4997 -2.1921
  991MOL0     H33730   1.358   5.588   2.018 -0.5374 -2.2020  1.7503
  991MOL0     H33731   1.365   5.768   2.032  1.4374 -1.5108 -2.6748
  991MOL0     H33732   1.252   5.549   2.215  2.1646  0.3659  1.7233
  991MOL0     H33733   1.181   5.705   2.225 -2.8673 -3.4387 -1.7851
  991MOL0     H33734   1.483   5.660   2.248  0.5326  0.6121 -0.0031
  991MOL0     H33735   1.402   5.804   2.266  0.5224 -0.0708 -3.2035
  991MOL0     H33736   1.327   5.440   2.458 -0.1045  0.1089 -3.1101
  991MOL0     H33737   1.141   5.540   2.778 -0.9275 -2.1216  1.7984
  991MOL0     H33738   1.079   5.468   2.631 -0.0468 -1.5964  0.8614
  991MOL0     H33739   1.204   5.273   2.645  3.2491 -0.7114 -1.1649
  991MOL0     H33740   1.339   5.359   2.724  1.3607 -3.3621 -1.7659
  991MOL0     H33741   1.239   5.338   2.938 -1.3655  0.8292  0.0073
  991MOL0     H33742   1.236   5.181   2.854  0.4403 -0.3279 -2.7928
  991MOL0     H33743   1.020   5.172   2.946 -1.0693  0.0417 -0.4347
  991MOL0     H33744   0.983   5.229   2.793 -0.7951 -1.0551  0.3414
  991MOL0     H33745   0.872   5.568   3.078 -0.6013 -0.6105  2.4178
  991MOL0     H33746   0.640   5.598   3.131 -2.4870  0.5389  0.1147
  991MOL0     H33747   0.170   5.400   3.046  1.3665  0.1886  0.8886
  991MOL0     H33748  -0.073   5.434   3.139 -1.2693  0.6742  2.1664
  991MOL0     H33749  -0.295   5.590   3.412  2.8037  1.5606  1.5818
  991MOL0     H33750  -0.250   5.462   3.287  3.4816  1.5222 -3.5368
  991MOL0     H33751  -0.066   5.379   3.443  0.0964 -0.9636 -0.1076
  991MOL0     H33752  -0.101   5.527   3.533  1.5731  1.0157 -3.0418
  991MOL0     H33753  -0.342   5.429   3.577 -0.6127 -0.9652 -0.2792
  991MOL0     H33754  -0.277   5.281   3.504  2.1896 -1.2363 -0.5793
  991MOL0     H33755  -0.160   5.408   3.767 -0.2586  1.2287 -1.4343
  991MOL0     H33756  -0.124   5.253   3.706 -2.6719 -3.2136  0.8969
  991MOL0     H33757  -0.402   5.235   3.745  0.0136 -0.0764 -0.8407
  991MOL0     H33758  -0.358   5.377   3.830  1.6192  0.5924  1.0329
  991MOL0     H33759  -0.225   5.110   3.899 -0.3303  1.0434 -2.3197
  991MOL0     H33760  -0.206   5.262   3.989 -3.5650  1.1703  2.4424
  991MOL0     H33761  -0.468   5.106   3.942 -1.4673  0.8493 -0.1144
  991MOL0     H33762  -0.455   5.247   4.041 -2.6130 -0.7152 -0.0873
  991MOL0     H33763  -0.328   4.982   4.088  0.2139  1.5345 -4.9837
  991MOL0     H33764  -0.288   5.117   4.191 -0.9674  0.5674  0.2179
  991MOL0     H33765   0.069   5.734   3.388 -0.9490 -0.5002  0.7942
  991MOL0     H33766   0.320   5.683   3.322 -1.5840  1.1935  1.5704
  991MOL0     H33767   0.552   5.212   2.960 -1.0193  0.1862  0.3833
  991MOL0     H33768   0.798   5.185   2.901  4.3578  2.8115 -2.0169
  991MOL0     H33769   0.639   5.356   1.689 -0.2771  1.5065  0.9694
  991MOL0     H33770   0.425   5.338   1.571 -0.2865 -0.3048  0.0651
  991MOL0     H33771   0.298   5.429   0.940  1.0595  0.3169  1.1247
  991MOL0     H33772   0.101   5.462   0.822 -2.1208  1.4641 -0.3531
  991MOL0     H33773  -0.112   5.237   0.896 -1.4605 -1.2504 -0.5163
  991MOL0     H33774  -0.125   5.313   0.742  1.8600 -0.7408  0.0512
  991MOL0     H33775  -0.340   5.211   0.767  0.0210  0.2714 -0.0571
  991MOL0     H33776  -0.371   5.386   0.795 -0.4066  1.0282  0.0793
  991MOL0     H33777  -0.364   5.351   1.037  0.8831  0.5674 -1.6448
  991MOL0     H33778  -0.315   5.179   1.017  0.3888 -1.4180 -2.6402
  991MOL0     H33779  -0.588   5.310   0.955 -1.1252  0.9087  1.3465
  991MOL0     H33780  -0.540   5.138   0.911  0.7814  0.3189  0.1575
  991MOL0     H33781  -0.644   5.093   1.309 -2.4941 -0.6960 -1.1148
  991MOL0     H33782  -0.129   5.390   1.169  0.5600 -2.1456  1.1944
  991MOL0     H33783  -0.032   5.386   1.402  0.4096  1.0052  2.6138
  991MOL0     H33784   0.105   5.280   1.384 -1.5488  0.1347  1.4570
  991MOL0     H33785   0.135   5.451   1.408  0.0333 -1.8335  0.5517
  992MOL0     O33786   7.392   8.868  11.254  0.0994  0.2457  0.0871
  992MOL0     C33787   7.392   8.750  11.232  0.0498  0.1266  0.4320
  992MOL0     O33788   7.451   8.682  11.123  0.7201 -0.9445  0.2553
  992MOL0     C33789   7.473   8.739  11.004  0.1250 -1.0261  0.2368
  992MOL0     C33790   7.560   8.674  10.920 -0.5933 -0.7433 -0.4029
  992MOL0     C33791   7.599   8.721  10.787  0.0165 -0.6423  0.3953
  992MOL0     C33792   7.512   8.819  10.726  0.0750 -0.7095  0.6253
  992MOL0     O33793   7.528   8.855  10.596 -0.5439 -0.4070  0.3071
  992MOL0     C33794   7.608   8.783  10.505 -1.0701 -0.9771  1.1068
  992MOL0     C33795   7.565   8.813  10.354 -0.7239  0.0269  0.2676
  992MOL0     C33796   7.669   8.779  10.247 -0.8787 -0.8631 -0.2868
  992MOL0     C33797   7.716   8.630  10.264 -0.7957  0.2559 -0.6624
  992MOL0     C33798   7.844   8.591  10.182  0.4002 -1.5320 -0.8481
  992MOL0     C33799   7.807   8.590  10.035 -0.0682 -0.6195 -0.4464
  992MOL0     C33800   7.918   8.527   9.946  0.8293  0.3741 -0.0309
  992MOL0     C33801   7.916   8.370   9.933  0.9641 -0.4096 -0.7100
  992MOL0     N33802   7.783   8.317   9.894  0.2218  0.1143 -0.1657
  992MOL0     C33803   7.680   8.274   9.973  0.0491 -0.2204  0.3356
  992MOL0     C33804   7.592   8.238   9.876  0.5909  0.4175 -0.2477
  992MOL0     C33805   7.451   8.183   9.905  0.4196  0.7944 -0.2682
  992MOL0     C33806   7.448   8.034   9.876  0.1960 -0.5989 -0.0243
  992MOL0     C33807   7.312   7.965   9.876  0.3149 -0.0251  0.0636
  992MOL0     C33808   7.208   7.988   9.984 -0.2170 -0.2139 -0.0648
  992MOL0     O33809   7.258   7.939  10.104 -0.5251 -0.3711 -0.9337
  992MOL0     C33810   7.190   7.974  10.215  0.1874  1.2244  0.6176
  992MOL0     C33811   7.049   7.983  10.227  1.0127  0.3403 -0.3514
  992MOL0     C33812   6.981   8.019  10.345  0.2707  0.7769 -0.4015
  992MOL0     C33813   7.068   8.039  10.462  0.1624 -0.9495  0.1427
  992MOL0     C33814   7.011   8.060  10.593 -0.6816 -0.2035  0.1182
  992MOL0     O33815   7.061   7.987  10.704  0.3478 -0.6843 -1.0447
  992MOL0     C33816   6.968   7.986  10.816 -0.0152 -0.0530  0.7007
  992MOL0     C33817   7.027   7.986  10.939  1.0109 -0.7175 -0.3197
  992MOL0     C33818   6.953   7.975  11.055 -0.2839 -0.2536  0.5695
  992MOL0     C33819   6.815   7.951  11.051  0.0312  0.3541 -0.2538
  992MOL0     O33820   6.773   7.940  11.181 -0.1609  0.1508 -0.4411
  992MOL0     C33821   6.634   7.919  11.205  0.0194  0.3330  0.3951
  992MOL0     C33822   6.622   7.937  11.352 -0.1304 -0.3732  0.5466
  992MOL0     C33823   6.497   7.879  11.410  0.0023 -0.0391  0.0696
  992MOL0     C33824   6.369   7.944  11.346  0.4791  0.1772 -0.0798
  992MOL0     C33825   6.243   7.891  11.424 -0.9318 -0.3545  0.9535
  992MOL0     C33826   6.209   7.960  11.562  0.1844 -0.1154  0.1960
  992MOL0     C33827   6.085   7.895  11.617  0.0794 -0.0390  0.8943
  992MOL0     C33828   6.029   7.975  11.743  0.2761  0.2983 -0.5964
  992MOL0    Cl33829   5.881   7.903  11.806  0.5418  0.2145  0.3341
  992MOL0     C33830   6.750   7.949  10.928 -0.2141  1.0444  0.7001
  992MOL0     C33831   6.832   7.961  10.813 -0.2486  0.4437  0.2949
  992MOL0     O33832   6.916   8.137  10.594 -0.2375 -0.7258  0.2381
  992MOL0     C33833   7.203   8.021  10.455 -1.3464  0.0027  0.1297
  992MOL0     C33834   7.270   7.985  10.332 -0.0852 -1.1493  0.1343
  992MOL0     N33835   7.635   8.261   9.751 -0.2436  0.6001 -1.1117
  992MOL0     N33836   7.755   8.300   9.761 -0.2902 -0.3690 -0.0794
  992MOL0     C33837   7.437   8.893  10.815  0.2752 -0.7391 -0.2340
  992MOL0     C33838   7.411   8.855  10.946  0.7157 -1.4945  0.6126
  992MOL0     C33839   7.329   8.666  11.329  0.9661 -0.6132  0.6232
  992MOL0     C33840   7.195   8.695  11.369  0.1012 -0.4094 -1.2916
  992MOL0     C33841   7.139   8.618  11.470  0.1752  0.1181  0.1837
  992MOL0     C33842   7.211   8.512  11.526  1.3828  0.1965  0.5219
  992MOL0     O33843   7.136   8.427  11.610  0.1396 -0.2418 -0.2770
  992MOL0     C33844   7.199   8.366  11.729  0.3696 -0.1652  0.4212
  992MOL0     C33845   7.227   8.473  11.826  0.0035  0.9102 -0.1089
  992MOL0     C33846   7.246   8.422  11.966 -0.0011  0.3579  0.0702
  992MOL0     C33847   7.370   8.328  12.003  0.4851  0.8701  0.2412
  992MOL0     C33848   7.407   8.340  12.148 -0.0956  0.4775 -0.5168
  992MOL0     C33849   7.409   8.333  12.271  0.3963  0.7240 -0.0615
  992MOL0     C33850   7.332   8.480  11.476  0.6145  0.0588  0.3085
  992MOL0     C33851   7.396   8.549  11.376  0.2294 -0.3349 -0.2889
  992MOL0     C33852   7.544   8.514  11.357  0.1866 -0.4819  0.2707
  992MOL0     H33853   7.617   8.585  10.947 -0.9081 -1.1550 -1.0644
  992MOL0     H33854   7.678   8.684  10.722 -1.8811 -0.5247 -2.1184
  992MOL0     H33855   7.716   8.800  10.501 -1.4789  1.7826 -1.4717
  992MOL0     H33856   7.586   8.676  10.518  0.7409 -1.3138  1.7180
  992MOL0     H33857   7.544   8.920  10.347 -1.3378 -0.0887  0.3377
  992MOL0     H33858   7.473   8.761  10.325 -2.7600  2.7624  1.3900
  992MOL0     H33859   7.749   8.848  10.272 -0.5864 -2.0133  2.2583
  992MOL0     H33860   7.640   8.795  10.142  0.7647 -3.3049 -1.2053
  992MOL0     H33861   7.734   8.622  10.372 -3.6759  0.1795 -0.1015
  992MOL0     H33862   7.640   8.552  10.248  0.5562 -1.2980  0.1598
  992MOL0     H33863   7.925   8.665  10.189 -3.1932  2.8965 -1.5901
  992MOL0     H33864   7.885   8.495  10.217  1.4941  0.4786  4.3695
  992MOL0     H33865   7.711   8.541  10.020 -0.0455 -0.6248 -0.5808
  992MOL0     H33866   7.794   8.688   9.988  0.6245 -0.5548 -0.5233
  992MOL0     H33867   8.012   8.570   9.981  1.7860 -0.5524 -1.3771
  992MOL0     H33868   7.904   8.568   9.845  0.6473  2.6125  0.8448
  992MOL0     H33869   7.998   8.345   9.865  2.6440  1.2812  0.5680
  992MOL0     H33870   7.946   8.327  10.030  1.7382  1.6714  0.0410
  992MOL0     H33871   7.678   8.259  10.081  1.8106 -1.8166  0.1934
  992MOL0     H33872   7.422   8.194  10.010 -2.9403  0.0582 -1.0034
  992MOL0     H33873   7.381   8.242   9.845  1.5985  1.6461 -0.8298
  992MOL0     H33874   7.487   8.017   9.775  3.2642 -0.2514  1.0010
  992MOL0     H33875   7.508   7.975   9.946 -1.0992 -1.7024  0.2067
  992MOL0     H33876   7.327   7.856   9.873  2.5694  0.2136  1.0132
  992MOL0     H33877   7.261   7.969   9.780  0.4176  0.2935  0.0209
  992MOL0     H33878   7.125   7.922   9.955  2.7427 -2.8153 -3.5204
  992MOL0     H33879   7.170   8.091   9.988  0.9339  0.3834 -2.5988
  992MOL0     H33880   6.988   7.959  10.140 -0.9630  2.0247  0.5136
  992MOL0     H33881   6.874   8.008  10.363  0.5780 -4.0308 -0.1783
  992MOL0     H33882   7.133   7.995  10.960  0.7768 -3.0808  2.5960
  992MOL0     H33883   7.007   7.981  11.149  0.4649  0.0546  0.1344
  992MOL0     H33884   6.567   8.000  11.175 -3.3813 -2.3320  0.2068
  992MOL0     H33885   6.585   7.830  11.166  0.0067  0.4009  0.2559
  992MOL0     H33886   6.712   7.894  11.398  1.8045  0.1927 -2.4012
  992MOL0     H33887   6.627   8.045  11.366 -4.6357  0.5449 -2.8024
  992MOL0     H33888   6.487   7.773  11.385 -2.9475  0.5542 -1.7531
  992MOL0     H33889   6.483   7.901  11.517  0.4244 -0.8262  0.2989
  992MOL0     H33890   6.352   7.922  11.240 -3.7773  1.9156  0.0783
  992MOL0     H33891   6.372   8.053  11.357 -3.0212  0.3543  0.2517
  992MOL0     H33892   6.248   7.782  11.432 -1.4472 -0.4102  0.5553
  992MOL0     H33893   6.164   7.920  11.355 -1.4762  0.5095  1.9220
  992MOL0     H33894   6.293   7.944  11.631  1.4498 -0.5632 -1.3944
  992MOL0     H33895   6.198   8.065  11.535 -1.0154 -0.9813 -3.1389
  992MOL0     H33896   6.102   7.791  11.646  1.4722  0.2943  1.3855
  992MOL0     H33897   6.011   7.905  11.537  1.2768 -2.0441 -0.5554
  992MOL0     H33898   6.113   7.982  11.813  1.2266  1.4020 -1.7980
  992MOL0     H33899   6.001   8.080  11.728 -1.8083  0.4177  3.0138
  992MOL0     H33900   6.644   7.934  10.909  0.3099  0.7557 -2.5229
  992MOL0     H33901   6.780   7.958  10.718 -0.6309  1.6563  0.4412
  992MOL0     H33902   7.265   8.013  10.543 -0.9171  3.3520  0.2792
  992MOL0     H33903   7.377   7.964  10.331  0.2497  0.1527  1.9117
  992MOL0     H33904   7.384   8.971  10.762  0.9128 -0.1328 -0.0006
  992MOL0     H33905   7.340   8.904  11.011  4.3485  0.5559  3.4074
  992MOL0     H33906   7.143   8.768  11.309  2.0511 -0.1618 -2.7799
  992MOL0     H33907   7.040   8.640  11.508  0.3792 -1.2913  1.6180
  992MOL0     H33908   7.289   8.306  11.709 -0.5362 -2.1435  1.8713
  992MOL0     H33909   7.131   8.292  11.772 -1.7866  1.4474 -0.0670
  992MOL0     H33910   7.134   8.530  11.820  1.3802  3.6263  2.0086
  992MOL0     H33911   7.313   8.533  11.795  1.1432 -1.3631 -1.6116
  992MOL0     H33912   7.151   8.377  11.996  0.3309 -1.3702 -1.3298
  992MOL0     H33913   7.253   8.514  12.024  3.0283  1.2038 -1.4436
  992MOL0     H33914   7.335   8.226  11.984  0.6877  1.0881 -1.4679
  992MOL0     H33915   7.455   8.355  11.940  0.4824 -0.4669 -0.3661
  992MOL0     H33916   7.403   8.309  12.375  0.0365 -0.8721 -0.4331
  992MOL0     H33917   7.379   8.392  11.518 -2.3276 -2.5175 -1.3369
  992MOL0     H33918   7.614   8.598  11.366  2.7438 -2.4011 -0.3602
  992MOL0     H33919   7.579   8.436  11.426  0.2480 -0.6545  0.0463
  992MOL0     H33920   7.563   8.491  11.252  1.5869  0.4611  0.2811
  993MOL0     O33921   7.039   4.867   5.137  0.1789  0.7562 -0.5187
  993MOL0     C33922   6.984   4.812   5.237 -0.5310 -0.5612  0.8541
  993MOL0     O33923   7.025   4.694   5.284 -0.7898  0.7731  0.1018
  993MOL0     C33924   7.148   4.656   5.239  0.9094  0.3348  0.8518
  993MOL0     C33925   7.259   4.685   5.313 -0.7054  0.4709 -0.5436
  993MOL0     C33926   7.390   4.653   5.267 -0.8151  0.2643 -0.3156
  993MOL0     C33927   7.404   4.572   5.158  0.4285 -0.3201 -0.2439
  993MOL0     O33928   7.523   4.527   5.113  0.8239  0.8798 -0.8688
  993MOL0     C33929   7.571   4.557   4.976 -0.1266  0.0825  0.3622
  993MOL0     C33930   7.571   4.708   4.940 -0.1205  1.0938 -0.0669
  993MOL0     C33931   7.596   4.740   4.788 -0.3082  0.5998  0.3040
  993MOL0     C33932   7.742   4.733   4.754 -0.0223  0.7053 -0.1740
  993MOL0     C33933   7.773   4.671   4.619 -0.1276  0.7870  0.2759
  993MOL0     C33934   7.734   4.763   4.493 -0.1503 -0.0631 -0.3431
  993MOL0     C33935   7.799   4.897   4.462  0.4931  0.8957 -0.1328
  993MOL0     C33936   7.715   4.981   4.371 -0.5785 -0.1538  0.4302
  993MOL0     N33937   7.736   4.958   4.219 -0.0959 -0.8273 -0.9941
  993MOL0     C33938   7.688   4.850   4.147 -0.6965  0.4750 -0.9314
  993MOL0     C33939   7.712   4.879   4.013  0.1412 -1.0375 -0.7809
  993MOL0     C33940   7.687   4.790   3.892 -0.1946  0.0150  1.4932
  993MOL0     C33941   7.536   4.791   3.863 -0.6051  0.1744 -0.7059
  993MOL0     C33942   7.512   4.719   3.731  0.5154  0.0320 -0.0164
  993MOL0     C33943   7.465   4.574   3.751 -0.2643 -0.4293 -0.3193
  993MOL0     O33944   7.567   4.499   3.819  0.2315 -0.6306 -0.4157
  993MOL0     C33945   7.530   4.367   3.844 -0.5585  0.9883 -0.1943
  993MOL0     C33946   7.615   4.300   3.934  0.3421 -0.0559 -0.1141
  993MOL0     C33947   7.584   4.168   3.980  0.3981  0.1562  0.7853
  993MOL0     C33948   7.472   4.107   3.923  0.5040 -0.2757  1.1463
  993MOL0     C33949   7.437   3.975   3.966 -0.1339 -0.4292  0.4584
  993MOL0     O33950   7.389   3.902   3.862  0.5568  0.5168 -0.8338
  993MOL0     C33951   7.406   3.763   3.856  0.6144 -0.8160  0.6395
  993MOL0     C33952   7.315   3.688   3.775  0.1351  0.2431 -0.3925
  993MOL0     C33953   7.324   3.556   3.767  0.4011  0.2516 -0.6051
  993MOL0     C33954   7.416   3.484   3.838  0.0377 -0.8586  0.8592
  993MOL0     O33955   7.421   3.353   3.810 -0.6810 -0.5875 -0.2940
  993MOL0     C33956   7.445   3.260   3.920  0.6316  0.6880 -0.9301
  993MOL0     C33957   7.594   3.221   3.952 -0.0088  0.0440  0.8639
  993MOL0     C33958   7.670   3.173   3.825  0.3773  0.3861 -0.6134
  993MOL0     C33959   7.711   3.280   3.732  0.5002 -0.0192 -0.7410
  993MOL0     C33960   7.765   3.220   3.603  0.1004  0.5266  0.0341
  993MOL0     C33961   7.777   3.327   3.501  0.3204 -0.4680  1.5836
  993MOL0     C33962   7.835   3.271   3.370 -0.6775 -0.3208 -0.2296
  993MOL0     C33963   7.832   3.378   3.264 -0.3828 -0.3615 -0.4564
  993MOL0    Cl33964   7.923   3.526   3.311 -0.0250 -0.2422 -0.6812
  993MOL0     C33965   7.501   3.552   3.923 -0.3260 -0.5066 -0.4926
  993MOL0     C33966   7.508   3.692   3.918 -0.1911  0.0511  0.3601
  993MOL0     O33967   7.453   3.936   4.078  0.1307  0.5094 -1.4368
  993MOL0     C33968   7.394   4.171   3.816  0.3754  0.0926 -0.2319
  993MOL0     C33969   7.431   4.300   3.776  0.6052 -0.9116  0.6121
  993MOL0     N33970   7.760   5.007   4.002 -0.6306 -0.7717 -0.3442
  993MOL0     N33971   7.767   5.055   4.125  0.1754 -0.3313  0.0419
  993MOL0     C33972   7.284   4.529   5.094  0.2372 -0.0813  0.3962
  993MOL0     C33973   7.158   4.570   5.130 -0.6326 -1.0166 -0.0167
  993MOL0     C33974   6.858   4.868   5.292  0.0294 -1.0232 -0.0939
  993MOL0     C33975   6.774   4.781   5.367  0.3823 -0.1161 -0.3412
  993MOL0     C33976   6.672   4.830   5.445  0.0780  0.2455 -0.2503
  993MOL0     C33977   6.641   4.964   5.447 -0.0792 -1.0386 -0.2113
  993MOL0     O33978   6.538   5.026   5.514 -0.6297  0.2115  0.2356
  993MOL0     C33979   6.465   4.960   5.619  0.0234 -0.7216 -0.1381
  993MOL0     C33980   6.393   5.070   5.700  0.7162  0.0144 -0.0780
  993MOL0     C33981   6.292   5.138   5.601 -0.0185  0.6105  0.3909
  993MOL0     C33982   6.264   5.270   5.657  0.1724  1.0050  0.0064
  993MOL0     C33983   6.162   5.332   5.578  0.4925 -0.5532  0.4338
  993MOL0     C33984   6.080   5.405   5.527  0.4545  0.3675  0.4386
  993MOL0     C33985   6.718   5.057   5.369  0.3470  0.0945 -1.3611
  993MOL0     C33986   6.823   5.008   5.287  0.1481 -0.1086 -0.6621
  993MOL0     C33987   6.902   5.113   5.215  0.0178  0.1135  0.4247
  993MOL0     H33988   7.248   4.735   5.409 -1.0310  1.9513 -1.3351
  993MOL0     H33989   7.479   4.687   5.318 -0.5968  0.6823 -0.9624
  993MOL0     H33990   7.675   4.525   4.963 -0.6140 -1.6658  0.5808
  993MOL0     H33991   7.518   4.493   4.905  2.0264  0.9143 -2.1476
  993MOL0     H33992   7.629   4.758   5.018  0.0627 -0.5399  0.9045
  993MOL0     H33993   7.467   4.737   4.959 -1.1511 -2.4092  0.4397
  993MOL0     H33994   7.568   4.843   4.766  0.8748  0.3010 -3.1932
  993MOL0     H33995   7.541   4.671   4.723  0.0629  1.5983 -1.1227
  993MOL0     H33996   7.798   4.827   4.763  0.2815  0.3399  2.4065
  993MOL0     H33997   7.785   4.665   4.828  1.5762  1.0733 -0.7271
  993MOL0     H33998   7.877   4.637   4.618 -0.4375 -0.3497 -2.7616
  993MOL0     H33999   7.715   4.579   4.615 -1.1861  1.4890 -2.3676
  993MOL0     H34000   7.742   4.690   4.413  0.3119 -2.6842  1.9285
  993MOL0     H34001   7.628   4.783   4.512 -0.1520 -1.7876  1.9830
  993MOL0     H34002   7.895   4.876   4.415  0.8588 -1.3955  1.4900
  993MOL0     H34003   7.806   4.959   4.551  0.6001 -0.3471  0.7558
  993MOL0     H34004   7.610   4.977   4.402 -0.1179 -1.1679  2.0062
  993MOL0     H34005   7.746   5.081   4.402 -2.3234  1.0969 -1.5652
  993MOL0     H34006   7.648   4.758   4.187 -1.2747 -0.0451 -2.5962
  993MOL0     H34007   7.745   4.813   3.802 -1.3134  0.0956  0.7694
  993MOL0     H34008   7.719   4.691   3.927  0.5862  0.5093  2.1997
  993MOL0     H34009   7.482   4.757   3.951 -0.1593  0.1394 -0.4421
  993MOL0     H34010   7.504   4.894   3.849 -2.9674 -0.7563 -2.8847
  993MOL0     H34011   7.600   4.709   3.667  1.3728  3.3685  0.4643
  993MOL0     H34012   7.433   4.772   3.677 -0.4701 -1.6341 -0.2996
  993MOL0     H34013   7.453   4.536   3.649  2.0868 -0.8554 -0.4946
  993MOL0     H34014   7.375   4.576   3.814  0.7018 -1.2802  1.1267
  993MOL0     H34015   7.697   4.361   3.972 -0.3458  1.4230 -0.8969
  993MOL0     H34016   7.656   4.140   4.056 -1.2216  0.1821  2.3903
  993MOL0     H34017   7.244   3.734   3.707 -0.3726  1.9520  1.2115
  993MOL0     H34018   7.264   3.511   3.689  0.4214  0.9968 -1.0548
  993MOL0     H34019   7.412   3.285   4.021  1.2378 -0.7312 -0.3488
  993MOL0     H34020   7.390   3.169   3.893 -1.5282  1.9870 -1.1218
  993MOL0     H34021   7.647   3.296   4.011  0.4944 -0.5143  1.1275
  993MOL0     H34022   7.598   3.132   4.014 -0.5340 -2.9705 -3.0364
  993MOL0     H34023   7.763   3.121   3.852  1.5377  2.4414 -0.4197
  993MOL0     H34024   7.608   3.099   3.775  2.6409 -1.5777 -0.7208
  993MOL0     H34025   7.797   3.322   3.785 -0.2117 -1.9980  2.2649
  993MOL0     H34026   7.631   3.352   3.713 -1.6549 -0.9213  3.5965
  993MOL0     H34027   7.692   3.152   3.559  0.4323 -0.6324  1.2329
  993MOL0     H34028   7.859   3.170   3.626 -0.9932 -0.4261  2.9940
  993MOL0     H34029   7.680   3.368   3.472  0.9807  1.1124  1.5423
  993MOL0     H34030   7.837   3.410   3.538 -0.2641  0.4073  0.6287
  993MOL0     H34031   7.767   3.196   3.328 -1.3434 -1.4014  2.5459
  993MOL0     H34032   7.929   3.226   3.402 -0.0255  0.0382 -1.5600
  993MOL0     H34033   7.846   3.332   3.166  2.5097 -0.8545  0.0998
  993MOL0     H34034   7.728   3.412   3.265  0.3944  2.2364 -0.4058
  993MOL0     H34035   7.570   3.496   3.985  0.4681 -0.1430 -1.0174
  993MOL0     H34036   7.587   3.742   3.973  3.0450 -1.2161 -2.8172
  993MOL0     H34037   7.309   4.125   3.767  0.0271  2.4339 -1.9994
  993MOL0     H34038   7.390   4.343   3.684  1.2414  2.6727  1.8680
  993MOL0     H34039   7.278   4.458   5.012  0.7442  0.6702 -0.3151
  993MOL0     H34040   7.072   4.555   5.065 -0.2132 -1.9784 -0.3679
  993MOL0     H34041   6.800   4.676   5.374 -0.6094 -0.2552  3.3094
  993MOL0     H34042   6.621   4.753   5.502 -0.3696 -0.0892 -1.0785
  993MOL0     H34043   6.531   4.898   5.681  0.9151 -0.6948 -1.0326
  993MOL0     H34044   6.388   4.895   5.578 -1.8498 -0.3298  2.5154
  993MOL0     H34045   6.465   5.147   5.728 -0.1288  0.7104  0.2340
  993MOL0     H34046   6.353   5.023   5.790 -0.6364  0.0404 -0.6377
  993MOL0     H34047   6.203   5.080   5.577  0.4861  0.0633 -0.1716
  993MOL0     H34048   6.340   5.157   5.504  0.0537 -0.1079  0.2840
  993MOL0     H34049   6.244   5.256   5.764  4.1079 -1.0872  0.6283
  993MOL0     H34050   6.361   5.320   5.653  0.5676  0.3100  0.5903
  993MOL0     H34051   5.999   5.469   5.497 -0.5990  0.7448  3.6168
  993MOL0     H34052   6.679   5.158   5.367 -0.1663 -0.0140  0.9765
  993MOL0     H34053   6.981   5.158   5.276  0.4172  1.8491 -1.2772
  993MOL0     H34054   6.947   5.077   5.122 -0.1896 -0.6307  0.6045
  993MOL0     H34055   6.838   5.200   5.200  2.2698  1.7709 -0.2372
  994MOL0     O34056   7.653   2.322   2.245  0.9302  0.4804  0.4989
  994MOL0     C34057   7.571   2.399   2.212  1.6673 -0.2960  0.0481
  994MOL0     O34058   7.558   2.533   2.244 -0.0466  0.4997 -0.5264
  994MOL0     C34059   7.638   2.587   2.346 -0.2860 -0.1113  0.3119
  994MOL0     C34060   7.663   2.727   2.363  0.5598 -0.3801  0.0790
  994MOL0     C34061   7.722   2.781   2.470  0.3638 -0.1072 -0.8783
  994MOL0     C34062   7.756   2.706   2.580  0.3624  0.9717  0.1611
  994MOL0     O34063   7.803   2.758   2.694  0.4090 -0.6578 -0.3685
  994MOL0     C34064   7.712   2.859   2.755 -0.3868 -0.4540 -0.8396
  994MOL0     C34065   7.775   2.947   2.862 -0.5997 -0.8285  0.9670
  994MOL0     C34066   7.868   3.050   2.792  0.9918 -0.3082  0.4575
  994MOL0     C34067   7.964   3.103   2.893 -0.0914  0.4101  1.3188
  994MOL0     C34068   8.038   3.225   2.833  0.2458 -0.9122  0.0584
  994MOL0     C34069   8.160   3.268   2.920  0.1260 -0.1132 -0.8657
  994MOL0     C34070   8.212   3.393   2.851 -0.3779  1.1323  0.2661
  994MOL0     C34071   8.345   3.445   2.908  0.0265 -0.3392 -0.8769
  994MOL0     N34072   8.456   3.371   2.854 -0.2252  0.6836 -0.4857
  994MOL0     C34073   8.571   3.341   2.921  0.8656 -0.9455  0.0798
  994MOL0     C34074   8.659   3.311   2.831 -1.1633  1.3745 -0.0090
  994MOL0     C34075   8.794   3.258   2.851 -0.7405 -1.0493 -0.6393
  994MOL0     C34076   8.877   3.378   2.896  0.4158 -0.2430  0.3218
  994MOL0     C34077   9.029   3.355   2.927  0.3008 -0.0752  0.3158
  994MOL0     C34078   9.106   3.284   2.809  0.3128  0.3725 -0.2459
  994MOL0     O34079   9.234   3.243   2.846  0.7639 -0.3167  0.4127
  994MOL0     C34080   9.343   3.324   2.838 -0.6459  0.9488 -0.1672
  994MOL0     C34081   9.471   3.255   2.874  0.2705  0.0826 -0.8959
  994MOL0     C34082   9.601   3.318   2.871  0.5928  0.7108  0.6598
  994MOL0     C34083   9.607   3.458   2.854  0.5444  0.1409 -0.0548
  994MOL0     C34084   9.738   3.534   2.864  0.1877 -0.1951  0.1835
  994MOL0     O34085   9.857   3.456   2.869 -0.1952  0.5015  0.7656
  994MOL0     C34086   9.980   3.513   2.861  0.3808 -0.8136 -0.3811
  994MOL0     C34087  10.077   3.419   2.846  0.0607 -0.2086  0.2625
  994MOL0     C34088  10.212   3.451   2.832  0.5124  1.3057 -0.3149
  994MOL0     C34089  10.251   3.582   2.819 -0.7333  0.5052 -0.0916
  994MOL0     O34090  10.386   3.593   2.785  0.2746 -0.2970  0.0008
  994MOL0     C34091  10.434   3.709   2.717  0.1170  0.0021  0.0407
  994MOL0     C34092  10.581   3.698   2.696 -0.6056 -1.6410 -0.1712
  994MOL0     C34093  10.612   3.593   2.595  0.0516 -0.9633  0.5304
  994MOL0     C34094  10.758   3.597   2.542  0.7721  0.2548 -0.1491
  994MOL0     C34095  10.787   3.486   2.442  0.3056  0.1665  0.0242
  994MOL0     C34096  10.940   3.477   2.419  0.1646 -0.0728  0.0469
  994MOL0     C34097  10.963   3.426   2.275  0.3340 -0.9787 -0.7083
  994MOL0     C34098  11.106   3.363   2.265  0.3251  0.2677 -0.7314
  994MOL0    Cl34099  11.121   3.303   2.098 -0.0900  0.0759  0.3987
  994MOL0     C34100  10.156   3.682   2.828 -0.7982  0.6906 -1.4072
  994MOL0     C34101  10.021   3.649   2.859 -0.3382 -0.3610  0.0380
  994MOL0     O34102   9.724   3.655   2.842 -0.6070 -0.4853  0.0296
  994MOL0     C34103   9.485   3.527   2.831  1.1903 -0.1480 -0.1652
  994MOL0     C34104   9.360   3.460   2.817  0.7051 -0.0006  0.7708
  994MOL0     N34105   8.602   3.304   2.710  0.4625 -0.0739  0.2189
  994MOL0     N34106   8.479   3.343   2.726  0.0400 -1.2350  0.7520
  994MOL0     C34107   7.744   2.570   2.564 -0.0866  1.2392  0.6492
  994MOL0     C34108   7.686   2.507   2.451  0.8438  0.0717  0.4633
  994MOL0     C34109   7.476   2.362   2.087 -0.8116 -0.0289 -1.2583
  994MOL0     C34110   7.438   2.460   1.998 -0.2366 -1.4520  0.0230
  994MOL0     C34111   7.369   2.422   1.882 -0.5007  1.4588  0.5012
  994MOL0     C34112   7.340   2.287   1.853  1.6263 -0.3304 -0.7737
  994MOL0     O34113   7.279   2.260   1.738  0.2343  0.0831  0.2831
  994MOL0     C34114   7.325   2.133   1.682 -0.3099  0.0485  0.2034
  994MOL0     C34115   7.209   2.039   1.677  0.0404  0.0920 -0.1025
  994MOL0     C34116   7.196   1.968   1.543 -0.1559  0.4854 -0.1377
  994MOL0     C34117   7.088   1.863   1.519  0.2852  0.2254  0.1755
  994MOL0     C34118   7.097   1.754   1.611 -0.3551 -0.7284 -0.5125
  994MOL0     C34119   7.097   1.679   1.703  0.7033 -0.0919  0.0894
  994MOL0     C34120   7.349   2.199   1.959 -0.3617  0.6793 -0.1067
  994MOL0     C34121   7.429   2.230   2.072  0.1748  0.0983 -0.1544
  994MOL0     C34122   7.445   2.123   2.178 -0.3119 -0.3323 -0.5692
  994MOL0     H34123   7.637   2.807   2.295  5.2518  2.4276  1.1782
  994MOL0     H34124   7.732   2.889   2.463  1.6692 -0.2615 -1.9889
  994MOL0     H34125   7.659   2.920   2.682 -0.2340 -1.6571 -2.0048
  994MOL0     H34126   7.640   2.790   2.800 -0.1766 -0.6735 -0.8350
  994MOL0     H34127   7.836   2.891   2.933 -0.1300 -1.5848 -0.0074
  994MOL0     H34128   7.698   3.000   2.919  0.3562  0.3027  1.2563
  994MOL0     H34129   7.801   3.125   2.749 -0.6292 -0.5435  2.4715
  994MOL0     H34130   7.932   3.003   2.716  1.1048  0.6263 -0.0504
  994MOL0     H34131   7.912   3.141   2.981 -7.0037  3.0614 -3.0691
  994MOL0     H34132   8.037   3.023   2.910 -2.9065 -2.3922  1.0023
  994MOL0     H34133   8.075   3.193   2.735  0.8892 -0.9881  0.3232
  994MOL0     H34134   7.985   3.319   2.817  1.0210 -0.5114 -0.1681
  994MOL0     H34135   8.134   3.293   3.023  0.8912  0.9411 -0.9180
  994MOL0     H34136   8.235   3.188   2.916 -1.0954 -1.5419  1.9528
  994MOL0     H34137   8.134   3.467   2.870 -0.8329  0.0213  3.2214
  994MOL0     H34138   8.221   3.386   2.742  2.3698  0.1393  0.4862
  994MOL0     H34139   8.362   3.548   2.874  0.1904 -0.6133 -1.6410
  994MOL0     H34140   8.332   3.445   3.017 -2.6514  3.9609 -0.9593
  994MOL0     H34141   8.582   3.331   3.029 -0.5944 -0.6392  0.2733
  994MOL0     H34142   8.798   3.178   2.926 -2.6861  1.0848  1.9395
  994MOL0     H34143   8.844   3.218   2.762  2.8961 -1.5729  1.4366
  994MOL0     H34144   8.883   3.444   2.808  3.4575  0.7184  1.1132
  994MOL0     H34145   8.830   3.430   2.980  0.1009 -1.4804  0.9286
  994MOL0     H34146   9.044   3.305   3.023  0.6700  2.1955  1.5167
  994MOL0     H34147   9.074   3.455   2.937  2.2325 -0.8015 -0.5240
  994MOL0     H34148   9.112   3.344   2.718  0.0515 -0.7147 -1.0049
  994MOL0     H34149   9.061   3.189   2.776  2.0845 -0.8866  0.7695
  994MOL0     H34150   9.481   3.148   2.884  1.4008  0.3526  1.1778
  994MOL0     H34151   9.696   3.265   2.867 -0.3110 -0.9223 -2.4744
  994MOL0     H34152  10.050   3.313   2.848  2.0879 -0.7610  1.4836
  994MOL0     H34153  10.275   3.363   2.828 -1.0078  0.1523  0.0690
  994MOL0     H34154  10.377   3.719   2.624  1.7470 -1.1449 -1.1531
  994MOL0     H34155  10.407   3.797   2.776  3.4773  0.6682  0.7879
  994MOL0     H34156  10.618   3.794   2.661 -3.7277  0.2567  1.2937
  994MOL0     H34157  10.644   3.682   2.784 -1.2628  1.6147  1.0311
  994MOL0     H34158  10.602   3.493   2.638  0.0960 -2.7126 -3.1011
  994MOL0     H34159  10.539   3.605   2.514 -0.2515 -1.0191  0.7971
  994MOL0     H34160  10.817   3.577   2.632 -0.5231  0.0852  0.6906
  994MOL0     H34161  10.783   3.695   2.499  1.8721 -0.1684 -0.5032
  994MOL0     H34162  10.730   3.517   2.354 -1.0455  0.1208  0.8536
  994MOL0     H34163  10.756   3.385   2.469  1.3807 -1.9354 -5.3400
  994MOL0     H34164  10.997   3.570   2.428 -2.3201  1.9422 -2.9939
  994MOL0     H34165  10.979   3.404   2.491  1.6929  1.7852  1.2168
  994MOL0     H34166  10.955   3.508   2.202 -1.5783 -0.6231 -0.1582
  994MOL0     H34167  10.892   3.349   2.241  2.7901 -3.3149 -0.8714
  994MOL0     H34168  11.181   3.436   2.298 -0.3610  0.4049  0.5685
  994MOL0     H34169  11.125   3.295   2.348  2.0060  0.3481 -0.9950
  994MOL0     H34170  10.203   3.780   2.834  1.2510 -0.2991 -0.6355
  994MOL0     H34171   9.973   3.747   2.863  0.5893  0.1033 -0.0043
  994MOL0     H34172   9.492   3.635   2.822 -2.8337  0.5915  2.7671
  994MOL0     H34173   9.280   3.524   2.781  0.9546  0.2136  0.5917
  994MOL0     H34174   7.781   2.517   2.652  0.5563  0.4362 -0.0914
  994MOL0     H34175   7.670   2.402   2.470  0.0496  0.1369  0.2131
  994MOL0     H34176   7.487   2.556   2.012  1.8736 -2.6464  1.3640
  994MOL0     H34177   7.352   2.487   1.797  3.5179  0.2131 -1.5192
  994MOL0     H34178   7.420   2.094   1.721 -0.5622  2.5257  3.8418
  994MOL0     H34179   7.359   2.160   1.582 -1.1899  1.1249  0.1787
  994MOL0     H34180   7.122   2.099   1.704  0.4688  3.3103 -4.6742
  994MOL0     H34181   7.217   1.968   1.759 -1.7914  0.2992  0.2851
  994MOL0     H34182   7.287   1.906   1.540 -2.3870 -3.3109  2.0601
  994MOL0     H34183   7.174   2.044   1.468 -0.0745  0.6430 -0.0022
  994MOL0     H34184   6.986   1.902   1.517  0.4406  0.6150 -0.4265
  994MOL0     H34185   7.102   1.809   1.424 -1.6900 -3.4583  1.7726
  994MOL0     H34186   7.097   1.606   1.782  0.4052 -0.9734 -0.7084
  994MOL0     H34187   7.329   2.093   1.947  3.6476 -0.1008 -1.4101
  994MOL0     H34188   7.545   2.085   2.200 -0.5516 -1.5235 -1.4045
  994MOL0     H34189   7.382   2.148   2.264 -0.7048 -1.3568 -0.5456
  994MOL0     H34190   7.399   2.035   2.131  0.4390 -0.8899 -0.2879
  995MOL0     O34191  10.510   3.914   4.432  0.2192 -0.1203  0.2557
  995MOL0     C34192  10.477   3.895   4.538 -0.6127 -0.1227 -0.6801
  995MOL0     O34193  10.497   3.785   4.604 -0.5503  0.7090  0.5606
  995MOL0     C34194  10.577   3.685   4.544  0.3389 -0.9640 -1.1201
  995MOL0     C34195  10.719   3.693   4.548  0.4493  0.3729 -0.7899
  995MOL0     C34196  10.801   3.580   4.498 -0.2250 -1.3340  0.0882
  995MOL0     C34197  10.742   3.472   4.443 -0.2898 -0.1150  0.3737
  995MOL0     O34198  10.814   3.366   4.395  0.1741  0.4263 -0.1894
  995MOL0     C34199  10.955   3.360   4.427  0.2255  0.6698 -0.1040
  995MOL0     C34200  11.049   3.402   4.317  0.0752 -0.7896  0.3248
  995MOL0     C34201  11.164   3.493   4.363 -0.2306 -0.7450  0.4676
  995MOL0     C34202  11.143   3.637   4.311  0.1707 -0.3144 -0.6419
  995MOL0     C34203  11.227   3.751   4.385 -0.2520 -0.6878 -0.5515
  995MOL0     C34204  11.155   3.797   4.506  0.8160  0.0207  0.2772
  995MOL0     C34205  11.238   3.900   4.592 -0.2847  0.1256 -0.3925
  995MOL0     C34206  11.176   3.917   4.732  0.9091  0.0746 -0.4967
  995MOL0     N34207  11.028   3.958   4.725  0.5301 -0.0096 -0.0880
  995MOL0     C34208  10.981   4.069   4.660 -0.5777 -0.3002  0.6429
  995MOL0     C34209  10.854   4.089   4.702 -0.3456  1.4698 -0.2469
  995MOL0     C34210  10.762   4.206   4.667  0.2118  0.0396 -0.1470
  995MOL0     C34211  10.709   4.204   4.524  0.2356  0.3622  0.0420
  995MOL0     C34212  10.804   4.179   4.408  0.2237  0.8220  0.2345
  995MOL0     C34213  10.808   4.027   4.365  0.8655 -0.5552 -0.2215
  995MOL0     O34214  10.878   4.006   4.245  0.2100  0.4431  0.2325
  995MOL0     C34215  10.854   3.893   4.172 -0.7141  0.0149  0.2965
  995MOL0     C34216  10.920   3.883   4.045 -0.2748  0.5082 -0.4480
  995MOL0     C34217  10.899   3.774   3.962  0.9437 -0.5689 -0.5380
  995MOL0     C34218  10.824   3.658   4.012  0.3189 -0.5555 -0.4548
  995MOL0     C34219  10.818   3.534   3.924 -0.0158 -0.0673 -0.2792
  995MOL0     O34220  10.881   3.542   3.805  0.1951 -0.1975 -0.3520
  995MOL0     C34221  10.917   3.428   3.737 -0.0241  0.5786  0.2408
  995MOL0     C34222  10.936   3.439   3.598 -0.6454 -0.3401 -0.4120
  995MOL0     C34223  10.993   3.336   3.524  0.1381 -0.3262  0.6775
  995MOL0     C34224  11.033   3.215   3.590 -0.0667 -0.0619 -0.0634
  995MOL0     O34225  11.075   3.098   3.527 -0.0077 -0.5032  0.9401
  995MOL0     C34226  11.067   3.098   3.380 -0.6159  0.4314 -0.0326
  995MOL0     C34227  11.098   2.963   3.323 -0.0179  0.7049 -0.2960
  995MOL0     C34228  11.235   2.921   3.365  1.0881 -0.6461 -0.8217
  995MOL0     C34229  11.295   2.803   3.294  0.0637  0.5730  0.6993
  995MOL0     C34230  11.192   2.684   3.285  0.0380 -0.5940 -0.0851
  995MOL0     C34231  11.244   2.569   3.212 -0.4032  0.1629  0.2499
  995MOL0     C34232  11.142   2.494   3.127  0.2170 -0.1329 -0.3085
  995MOL0     C34233  11.203   2.377   3.046 -1.0767  0.7899  0.3209
  995MOL0    Cl34234  11.070   2.276   2.982 -0.1152  0.7304  0.3843
  995MOL0     C34235  11.019   3.201   3.724  0.8290 -0.2496  0.2754
  995MOL0     C34236  10.965   3.305   3.802 -0.9434  0.2561  0.2682
  995MOL0     O34237  10.768   3.427   3.965 -0.0620 -0.2009  0.4151
  995MOL0     C34238  10.761   3.667   4.138  0.1889  0.3849  0.2536
  995MOL0     C34239  10.785   3.780   4.213  0.3452 -0.0241 -0.5402
  995MOL0     N34240  10.821   3.980   4.787 -0.6808 -0.2425 -0.1967
  995MOL0     N34241  10.928   3.898   4.792 -0.6827 -0.1899 -0.9215
  995MOL0     C34242  10.604   3.473   4.418  0.1110  0.1041 -0.4024
  995MOL0     C34243  10.523   3.569   4.477 -0.9243  0.1112  0.1598
  995MOL0     C34244  10.423   4.010   4.620 -0.3524  0.1693  0.1487
  995MOL0     C34245  10.477   4.019   4.748  0.2549 -0.1775 -0.3167
  995MOL0     C34246  10.434   4.104   4.838  0.0884 -0.8099 -0.4920
  995MOL0     C34247  10.348   4.209   4.802 -0.9023  0.0374 -0.6376
  995MOL0     O34248  10.304   4.305   4.882  0.6454  0.6234 -0.3508
  995MOL0     C34249  10.350   4.313   5.017  0.1996  1.0807  0.5381
  995MOL0     C34250  10.501   4.360   5.024  0.0918 -0.2362  0.7176
  995MOL0     C34251  10.540   4.471   4.921  0.0128 -0.3699 -0.0350
  995MOL0     C34252  10.648   4.565   4.957 -0.5008  1.1937  0.2871
  995MOL0     C34253  10.775   4.488   4.945 -0.4057 -0.2531  0.1232
  995MOL0     C34254  10.878   4.426   4.921  0.2220 -0.4373  0.6442
  995MOL0     C34255  10.295   4.210   4.667 -0.3418 -0.1799 -0.2088
  995MOL0     C34256  10.332   4.110   4.578  1.0800  0.2810 -0.1528
  995MOL0     C34257  10.268   4.104   4.441 -0.3221 -0.4208  1.4847
  995MOL0     H34258  10.772   3.775   4.593  2.4204  0.5668 -3.2432
  995MOL0     H34259  10.904   3.611   4.489 -0.2367 -0.6179  1.9782
  995MOL0     H34260  10.984   3.404   4.523  0.4561 -1.5302  0.9100
  995MOL0     H34261  10.982   3.254   4.438 -2.4653  0.1133  2.5874
  995MOL0     H34262  10.987   3.456   4.245  3.9983  4.1452  0.0841
  995MOL0     H34263  11.087   3.317   4.260  2.3277  1.4712 -1.8205
  995MOL0     H34264  11.242   3.446   4.302  1.0817  2.9380 -1.0424
  995MOL0     H34265  11.181   3.486   4.471  0.7097  2.4930  0.6366
  995MOL0     H34266  11.177   3.626   4.208 -0.9166  2.0367 -1.3174
  995MOL0     H34267  11.040   3.674   4.303  1.4340  3.6578 -0.9709
  995MOL0     H34268  11.323   3.707   4.412  0.3258  1.0686  0.4427
  995MOL0     H34269  11.250   3.844   4.331  0.9059 -0.2642  0.6274
  995MOL0     H34270  11.069   3.855   4.472  1.1638 -0.1820 -0.9987
  995MOL0     H34271  11.134   3.714   4.574 -1.0197 -0.3853 -0.7332
  995MOL0     H34272  11.246   4.000   4.550 -0.1207 -0.0716 -0.8386
  995MOL0     H34273  11.335   3.855   4.616  0.2798  0.8000 -1.3606
  995MOL0     H34274  11.180   3.823   4.788 -0.4499 -0.9103 -1.9972
  995MOL0     H34275  11.230   3.991   4.792  1.5274 -2.8383  2.8974
  995MOL0     H34276  11.030   4.141   4.595 -1.2370 -0.4807 -0.0680
  995MOL0     H34277  10.680   4.210   4.739  1.5114  1.1982  1.3453
  995MOL0     H34278  10.818   4.300   4.679  0.0388  0.3277 -1.4396
  995MOL0     H34279  10.623   4.136   4.514  0.7092 -0.2492  0.0524
  995MOL0     H34280  10.662   4.302   4.514 -2.4777 -0.9150 -0.6019
  995MOL0     H34281  10.900   4.226   4.434  0.5754  0.8113 -1.0028
  995MOL0     H34282  10.765   4.239   4.325  1.9151  1.9848  0.2201
  995MOL0     H34283  10.708   3.996   4.332  1.4077 -2.3488 -0.2654
  995MOL0     H34284  10.845   3.962   4.445  2.1074 -1.1549 -1.2589
  995MOL0     H34285  10.969   3.969   3.999 -0.5787  0.8633 -0.1158
  995MOL0     H34286  10.942   3.785   3.864 -1.1512 -0.6201 -1.5262
  995MOL0     H34287  10.894   3.532   3.559 -0.2145  0.8729  1.8503
  995MOL0     H34288  10.999   3.346   3.416 -0.7817 -1.4239  0.4999
  995MOL0     H34289  10.970   3.125   3.339 -0.0217  1.3147 -0.9059
  995MOL0     H34290  11.141   3.168   3.339 -4.1424  3.5865 -1.6133
  995MOL0     H34291  11.030   2.888   3.364  1.9818  0.9330  3.9807
  995MOL0     H34292  11.097   2.964   3.214  3.0523 -2.1518 -0.5289
  995MOL0     H34293  11.300   3.006   3.343  1.4693 -0.3709  1.1915
  995MOL0     H34294  11.247   2.906   3.473  2.8415  0.4842 -0.8139
  995MOL0     H34295  11.376   2.770   3.359  2.0908  1.1636 -1.3895
  995MOL0     H34296  11.335   2.825   3.194  0.7288 -2.5883  0.1625
  995MOL0     H34297  11.104   2.717   3.230 -0.6492  0.6846  1.6878
  995MOL0     H34298  11.151   2.652   3.381  0.5260 -4.0470 -0.8868
  995MOL0     H34299  11.325   2.598   3.144 -0.5864 -1.0358 -0.5157
  995MOL0     H34300  11.291   2.500   3.283 -1.0316  0.8292  1.3351
  995MOL0     H34301  11.089   2.561   3.060 -1.0679  0.3397  1.1211
  995MOL0     H34302  11.058   2.452   3.184 -2.2379  0.3106 -3.3650
  995MOL0     H34303  11.270   2.416   2.969 -2.0744  0.4926 -0.7281
  995MOL0     H34304  11.265   2.324   3.118 -1.1093  1.1964  0.6481
  995MOL0     H34305  11.044   3.102   3.758 -0.5769 -1.1285 -1.0706
  995MOL0     H34306  10.941   3.288   3.906  2.0543 -4.1913  0.5088
  995MOL0     H34307  10.700   3.582   4.167 -2.3210  2.2457  0.7427
  995MOL0     H34308  10.738   3.794   4.310  0.8650 -0.1545 -0.2692
  995MOL0     H34309  10.558   3.394   4.360  0.4370 -1.5905  1.4981
  995MOL0     H34310  10.416   3.557   4.464 -0.4420 -2.8742 -2.0862
  995MOL0     H34311  10.553   3.954   4.791  1.8449  1.8717  0.1687
  995MOL0     H34312  10.475   4.091   4.937  0.9492  0.0653 -0.7181
  995MOL0     H34313  10.331   4.222   5.076 -0.9637  0.2904 -0.9820
  995MOL0     H34314  10.295   4.390   5.071 -1.6864  0.2915 -0.1860
  995MOL0     H34315  10.567   4.276   4.999 -0.0251 -0.8169  2.2491
  995MOL0     H34316  10.523   4.392   5.126 -0.6164  0.3101  0.7036
  995MOL0     H34317  10.453   4.537   4.910 -3.6759 -4.4913  1.2129
  995MOL0     H34318  10.551   4.435   4.818 -1.1214  5.4181 -2.5513
  995MOL0     H34319  10.652   4.648   4.886  0.2971  0.9691  0.0538
  995MOL0     H34320  10.626   4.607   5.055  0.2695  2.4447 -0.0516
  995MOL0     H34321  10.970   4.372   4.909 -0.2817 -1.8859  2.7442
  995MOL0     H34322  10.221   4.281   4.632  0.8707 -0.3728 -3.5295
  995MOL0     H34323  10.342   4.133   4.366 -0.1825 -1.1000  1.3468
  995MOL0     H34324  10.216   4.010   4.416  0.9620 -0.6440 -0.5568
  995MOL0     H34325  10.195   4.184   4.429  2.4982  2.1050 -0.1871
  996MOL0     O34326   8.004   6.704   8.118 -0.0585  0.3021 -0.7129
  996MOL0     C34327   7.944   6.775   8.047  0.6368  0.3207 -0.4002
  996MOL0     O34328   7.865   6.729   7.945  0.2540  0.2629  0.2025
  996MOL0     C34329   7.888   6.599   7.902 -0.3114 -0.2533  0.6383
  996MOL0     C34330   7.784   6.516   7.903  0.5010 -0.2117  0.2669
  996MOL0     C34331   7.785   6.383   7.862  0.3991 -0.0842  0.9056
  996MOL0     C34332   7.903   6.341   7.806 -0.2611 -0.2163 -0.0149
  996MOL0     O34333   7.916   6.212   7.766  0.0348 -0.1840 -0.0092
  996MOL0     C34334   7.838   6.176   7.656 -0.6603  0.0843  0.2371
  996MOL0     C34335   7.833   6.020   7.634 -0.6282 -0.8874 -0.3259
  996MOL0     C34336   7.806   5.968   7.490  0.6115  0.1066  0.7505
  996MOL0     C34337   7.818   5.821   7.505  0.7481  0.1767  0.1980
  996MOL0     C34338   7.830   5.751   7.364  1.1043 -0.0756  0.3197
  996MOL0     C34339   7.977   5.727   7.326 -0.9753 -0.5136 -0.4162
  996MOL0     C34340   7.984   5.667   7.185  0.0176  0.0345  0.3344
  996MOL0     C34341   7.956   5.515   7.180  0.1286 -0.4313  0.1045
  996MOL0     N34342   8.007   5.464   7.057 -0.0934 -0.2010  0.6535
  996MOL0     C34343   8.082   5.358   7.057 -0.9013 -0.9238  0.2112
  996MOL0     C34344   8.068   5.310   6.927 -0.4782  0.1616  0.4185
  996MOL0     C34345   8.135   5.187   6.859 -0.0280 -0.5506  0.2881
  996MOL0     C34346   8.274   5.172   6.922  0.1997 -0.6976  0.1084
  996MOL0     C34347   8.391   5.253   6.854 -0.0691  0.2066  0.4673
  996MOL0     C34348   8.401   5.382   6.926 -0.1704  0.3484  1.1262
  996MOL0     O34349   8.444   5.359   7.053  0.4557 -0.5275  0.4022
  996MOL0     C34350   8.430   5.456   7.149 -0.8753 -0.5574 -0.8624
  996MOL0     C34351   8.374   5.584   7.136  0.6337 -0.2465  0.0290
  996MOL0     C34352   8.393   5.680   7.235 -1.1130 -0.0042  1.2960
  996MOL0     C34353   8.461   5.644   7.353  0.5925 -0.7856 -0.3497
  996MOL0     C34354   8.460   5.750   7.463 -0.3616  0.6894 -0.1774
  996MOL0     O34355   8.367   5.847   7.444  0.4449  0.1767 -0.1611
  996MOL0     C34356   8.361   5.939   7.547  0.9517  0.2024 -0.5696
  996MOL0     C34357   8.255   5.940   7.641 -1.0808  0.1197  0.7214
  996MOL0     C34358   8.243   6.045   7.728 -0.1119 -0.1139 -0.8815
  996MOL0     C34359   8.330   6.156   7.728 -0.3135  0.2140  0.0831
  996MOL0     O34360   8.320   6.272   7.803  0.1104  0.5658  0.7080
  996MOL0     C34361   8.267   6.268   7.937  0.1989  0.0919 -0.3612
  996MOL0     C34362   8.297   6.391   8.022 -0.0044 -0.8630  0.3750
  996MOL0     C34363   8.200   6.392   8.142 -0.3680 -0.5727 -0.2384
  996MOL0     C34364   8.251   6.492   8.234  0.4615 -0.0482 -0.7216
  996MOL0     C34365   8.158   6.535   8.345 -0.1993 -0.4056  0.1547
  996MOL0     C34366   8.115   6.411   8.427 -0.2028 -0.3439 -0.0750
  996MOL0     C34367   8.032   6.458   8.550  0.7460  0.2459  0.8543
  996MOL0     C34368   7.950   6.340   8.613 -0.4659 -0.4040 -0.5586
  996MOL0    Cl34369   7.851   6.416   8.735  0.1689  0.9008 -0.1676
  996MOL0     C34370   8.438   6.144   7.640  0.4660 -0.0856 -0.0125
  996MOL0     C34371   8.464   6.029   7.562 -0.0130  0.4296  0.6609
  996MOL0     O34372   8.539   5.734   7.559 -0.5901 -0.4361  0.5767
  996MOL0     C34373   8.508   5.516   7.364 -0.0845 -0.3504 -0.8107
  996MOL0     C34374   8.497   5.422   7.266 -0.7069  0.7781  0.1628
  996MOL0     N34375   7.967   5.377   6.867 -0.2514  0.1239 -0.3372
  996MOL0     N34376   7.924   5.462   6.949  1.1073  0.1976  0.6762
  996MOL0     C34377   8.018   6.429   7.789  0.7026  0.0154 -0.1167
  996MOL0     C34378   8.006   6.563   7.839  0.0902 -0.1155  0.1844
  996MOL0     C34379   7.940   6.916   8.082 -0.5244  0.4352 -0.5117
  996MOL0     C34380   7.859   7.003   7.998  0.0965 -0.1442  0.1168
  996MOL0     C34381   7.839   7.139   8.021 -0.3104 -0.1445  0.1200
  996MOL0     C34382   7.897   7.197   8.139  0.5533 -0.5295  0.1221
  996MOL0     O34383   7.876   7.335   8.174 -0.6185  0.3310 -0.2786
  996MOL0     C34384   7.998   7.414   8.191  1.0308 -0.1123  0.9807
  996MOL0     C34385   7.968   7.558   8.211 -0.5721 -0.1084 -0.3082
  996MOL0     C34386   7.874   7.585   8.332 -0.7186  0.7353  0.2165
  996MOL0     C34387   7.923   7.536   8.464 -0.5338 -0.4033 -0.1912
  996MOL0     C34388   7.848   7.593   8.573  0.2782  0.6525  0.7456
  996MOL0     C34389   7.779   7.642   8.658  0.1543 -0.4946 -0.6030
  996MOL0     C34390   7.972   7.113   8.217 -0.4866  0.2270  0.5305
  996MOL0     C34391   7.990   6.977   8.205 -0.1505  0.5120  0.4539
  996MOL0     C34392   8.064   6.898   8.308 -0.4573  0.0635  0.9395
  996MOL0     H34393   7.694   6.568   7.933  0.0572  0.2826 -1.7926
  996MOL0     H34394   7.700   6.325   7.896  1.7120 -0.8334  3.1367
  996MOL0     H34395   7.732   6.197   7.669 -0.6847 -0.1684  0.4443
  996MOL0     H34396   7.894   6.222   7.574 -1.1152 -0.7139 -0.5436
  996MOL0     H34397   7.754   5.990   7.704 -1.1805  0.4541 -0.3575
  996MOL0     H34398   7.931   5.983   7.664 -0.7108 -0.2866  0.7638
  996MOL0     H34399   7.872   6.017   7.417 -3.0053  0.8728 -2.2888
  996MOL0     H34400   7.702   5.976   7.459  0.9774 -1.4985 -1.0296
  996MOL0     H34401   7.898   5.790   7.573 -0.9853 -3.8921  0.6822
  996MOL0     H34402   7.726   5.794   7.557  0.2191 -0.2596 -0.9149
  996MOL0     H34403   7.795   5.650   7.390  0.6463 -0.3976 -1.3843
  996MOL0     H34404   7.764   5.794   7.288 -0.0813 -0.8191  0.8947
  996MOL0     H34405   8.026   5.825   7.327 -1.2250 -0.3685  1.3131
  996MOL0     H34406   8.025   5.661   7.399  0.1087 -1.6994 -2.1312
  996MOL0     H34407   8.083   5.676   7.137 -0.0609 -1.3308 -0.1308
  996MOL0     H34408   7.917   5.714   7.113 -1.9657 -1.2043  1.2850
  996MOL0     H34409   8.003   5.465   7.265 -2.6200 -0.6255  1.6165
  996MOL0     H34410   7.848   5.507   7.196  0.0335  0.9783  0.3367
  996MOL0     H34411   8.150   5.325   7.134  1.5725  2.7830 -0.1431
  996MOL0     H34412   8.075   5.099   6.885  0.1458 -0.1846  2.0432
  996MOL0     H34413   8.148   5.208   6.753  0.6580  1.2129  0.6924
  996MOL0     H34414   8.272   5.171   7.031 -1.7562  0.2594  0.1213
  996MOL0     H34415   8.309   5.073   6.893  2.0099 -0.1715  0.3480
  996MOL0     H34416   8.363   5.271   6.750 -3.1557 -1.1707  0.9404
  996MOL0     H34417   8.482   5.195   6.866  0.9382  1.9992  2.0678
  996MOL0     H34418   8.312   5.442   6.904  1.8103  2.6957 -1.2493
  996MOL0     H34419   8.485   5.425   6.870  0.1693  0.1221  1.4575
  996MOL0     H34420   8.332   5.606   7.038  2.1341  1.0664 -0.3659
  996MOL0     H34421   8.363   5.783   7.218  1.6875  0.5800 -0.9418
  996MOL0     H34422   8.170   5.874   7.656 -1.2584  0.6866  2.3560
  996MOL0     H34423   8.149   6.046   7.783  1.2106 -0.3029  1.4890
  996MOL0     H34424   8.159   6.252   7.935  0.0878 -0.1641  2.5723
  996MOL0     H34425   8.308   6.187   7.998 -2.7583 -0.4076  1.1587
  996MOL0     H34426   8.402   6.376   8.050  0.0633 -1.2879 -0.0935
  996MOL0     H34427   8.286   6.491   7.980 -1.5103 -2.0446 -2.2864
  996MOL0     H34428   8.102   6.426   8.107  0.0401  1.8662  0.7705
  996MOL0     H34429   8.200   6.288   8.177 -0.4440 -1.0811 -1.6533
  996MOL0     H34430   8.272   6.587   8.185  2.0327  1.2903  2.2767
  996MOL0     H34431   8.347   6.460   8.276 -0.0552 -0.6760  0.0282
  996MOL0     H34432   8.066   6.588   8.320  1.7044  3.8775  1.2877
  996MOL0     H34433   8.206   6.616   8.401 -0.3854 -0.5295  0.4992
  996MOL0     H34434   8.061   6.357   8.349  0.5695 -0.0115 -0.8485
  996MOL0     H34435   8.205   6.357   8.459  0.3516 -0.1848 -1.3097
  996MOL0     H34436   7.961   6.525   8.501  2.7131 -0.1583 -2.9412
  996MOL0     H34437   8.089   6.511   8.627  1.5005 -3.5762  3.1963
  996MOL0     H34438   7.884   6.285   8.546  0.5109 -1.5583 -0.6099
  996MOL0     H34439   8.017   6.277   8.672 -1.3062  0.2085  1.1183
  996MOL0     H34440   8.516   6.219   7.647  1.9788 -1.7451  2.9848
  996MOL0     H34441   8.555   6.026   7.502 -0.3547 -1.7200  0.1765
  996MOL0     H34442   8.548   5.484   7.460  0.0186 -1.7746 -1.3131
  996MOL0     H34443   8.543   5.326   7.288  0.2215  1.4559  1.2897
  996MOL0     H34444   8.115   6.405   7.746  1.3621  0.9621  0.8180
  996MOL0     H34445   8.086   6.636   7.835  1.9975 -1.8640  3.1260
  996MOL0     H34446   7.799   6.971   7.914 -0.6531  1.1240  0.1548
  996MOL0     H34447   7.787   7.203   7.951 -2.9469 -0.6065  1.5186
  996MOL0     H34448   8.055   7.398   8.099 -0.7451  0.9322 -0.3606
  996MOL0     H34449   8.062   7.379   8.273  0.1221  0.8534  2.1390
  996MOL0     H34450   7.920   7.608   8.127  0.8520  0.7717 -0.6322
  996MOL0     H34451   8.064   7.604   8.236 -1.0443 -0.2452  2.0124
  996MOL0     H34452   7.783   7.528   8.314  0.6671 -2.1262  1.5986
  996MOL0     H34453   7.854   7.692   8.318  2.3329  1.3133 -0.7088
  996MOL0     H34454   7.912   7.428   8.464 -1.5651 -0.3378 -2.2954
  996MOL0     H34455   8.030   7.561   8.472 -0.9477  1.0221  2.0808
  996MOL0     H34456   7.708   7.680   8.728 -2.2074 -0.0348 -3.1006
  996MOL0     H34457   8.007   7.153   8.311 -1.5474 -0.7112  1.3575
  996MOL0     H34458   8.122   6.968   8.368  0.4373 -0.2450  0.4642
  996MOL0     H34459   7.995   6.853   8.379  1.3031 -0.9140  2.1155
  996MOL0     H34460   8.136   6.825   8.268  0.9439  0.9917  1.6899
  997MOL0     O34461   9.507   7.884   8.694 -1.5645  0.2128 -0.1327
  997MOL0     C34462   9.422   7.805   8.674 -0.5715  0.0969  0.5496
  997MOL0     O34463   9.402   7.731   8.560 -0.0291  0.2546 -0.1314
  997MOL0     C34464   9.473   7.745   8.441 -0.8897  0.3410 -0.8105
  997MOL0     C34465   9.505   7.638   8.360 -0.3460  0.5219 -0.5309
  997MOL0     C34466   9.575   7.663   8.243 -0.9441  0.1173 -0.1401
  997MOL0     C34467   9.598   7.795   8.195  0.5513 -1.0916  0.4283
  997MOL0     O34468   9.661   7.811   8.075 -0.2865  0.1866 -0.0666
  997MOL0     C34469   9.667   7.936   8.019  0.8992 -0.0941  0.2497
  997MOL0     C34470   9.725   7.925   7.878 -0.5879  0.7400 -0.3273
  997MOL0     C34471   9.679   8.042   7.787 -0.4828 -0.5532 -0.2572
  997MOL0     C34472   9.720   8.025   7.643  0.0946  0.4944 -0.0318
  997MOL0     C34473   9.694   8.148   7.563 -0.1054 -0.4117  1.0309
  997MOL0     C34474   9.797   8.261   7.574 -0.1690  0.7302  0.1900
  997MOL0     C34475   9.938   8.234   7.512 -1.7271 -0.0424 -0.1333
  997MOL0     C34476  10.041   8.341   7.555 -0.8189 -0.2298  0.2287
  997MOL0     N34477  10.177   8.311   7.507 -1.5630 -0.0686 -0.1087
  997MOL0     C34478  10.242   8.378   7.409  0.0505 -0.4692  0.6002
  997MOL0     C34479  10.340   8.298   7.364 -0.2611  0.0605  0.1136
  997MOL0     C34480  10.444   8.336   7.268 -0.2988 -0.2469 -1.4099
  997MOL0     C34481  10.382   8.364   7.135  0.7859  0.6553 -0.1870
  997MOL0     C34482  10.474   8.405   7.022 -0.1332  0.2347 -0.5245
  997MOL0     C34483  10.583   8.303   6.996 -0.0550 -0.1265  0.4866
  997MOL0     O34484  10.541   8.171   6.969  0.0772  0.4586 -0.3670
  997MOL0     C34485  10.648   8.078   6.946 -0.9381 -0.3234  0.1603
  997MOL0     C34486  10.789   8.115   6.937  0.1989  0.1955 -0.0865
  997MOL0     C34487  10.886   8.016   6.910 -1.5494 -0.7063  0.4868
  997MOL0     C34488  10.857   7.885   6.886  0.5072 -0.5068  0.0552
  997MOL0     C34489  10.959   7.792   6.835 -0.1984  0.4863 -0.9055
  997MOL0     O34490  11.087   7.833   6.813 -0.1993  0.1970 -0.4005
  997MOL0     C34491  11.181   7.742   6.761 -0.3943  0.2698 -0.3786
  997MOL0     C34492  11.314   7.736   6.808 -0.3326 -0.6926  0.3209
  997MOL0     C34493  11.411   7.655   6.741 -0.2118 -0.1112  0.5901
  997MOL0     C34494  11.357   7.564   6.642  0.2849  0.6361 -0.9401
  997MOL0     O34495  11.446   7.467   6.597 -0.2296 -0.3776 -0.2431
  997MOL0     C34496  11.425   7.383   6.481  0.3056 -0.9388  0.5458
  997MOL0     C34497  11.413   7.457   6.354 -0.2992  0.0743  0.4213
  997MOL0     C34498  11.448   7.368   6.235  0.0839 -0.2846 -0.6041
  997MOL0     C34499  11.402   7.425   6.103  0.7595 -1.0213  0.0188
  997MOL0     C34500  11.506   7.488   6.006  0.6505  0.2204  0.3180
  997MOL0     C34501  11.465   7.502   5.860  0.5206  0.4917  0.7525
  997MOL0     C34502  11.515   7.397   5.764 -0.0322  1.0436  0.0415
  997MOL0     C34503  11.578   7.474   5.650  0.5740  0.4401  0.6176
  997MOL0    Cl34504  11.744   7.525   5.703  0.1210  0.1875 -0.4347
  997MOL0     C34505  11.234   7.571   6.599 -0.2739 -0.3983 -0.2162
  997MOL0     C34506  11.146   7.666   6.657  0.2025  1.0168  0.5426
  997MOL0     O34507  10.918   7.675   6.832  0.3416 -0.4266  0.2678
  997MOL0     C34508  10.718   7.854   6.890  0.3632  0.3568 -0.4836
  997MOL0     C34509  10.617   7.945   6.933 -0.5235  0.5292  0.1157
  997MOL0     N34510  10.334   8.173   7.438  0.2417 -0.4830 -0.0253
  997MOL0     N34511  10.236   8.190   7.525 -0.4484  1.1066 -0.0884
  997MOL0     C34512   9.558   7.905   8.278  0.6146  0.0284  0.1696
  997MOL0     C34513   9.502   7.873   8.402  0.3169  0.3759 -0.0570
  997MOL0     C34514   9.313   7.793   8.775 -1.0437 -0.3540 -0.4251
  997MOL0     C34515   9.181   7.767   8.729 -0.1992  0.1382  0.4721
  997MOL0     C34516   9.071   7.763   8.820 -0.6213  0.1708  0.2722
  997MOL0     C34517   9.097   7.791   8.956  0.0158  0.4051  0.7647
  997MOL0     O34518   8.985   7.802   9.039  0.3393 -0.0304  0.9116
  997MOL0     C34519   8.878   7.885   9.009 -0.1042  0.2435  0.0919
  997MOL0     C34520   8.754   7.810   8.985 -0.7413  0.2158 -0.9923
  997MOL0     C34521   8.713   7.741   9.121  0.9951 -0.5320 -0.2009
  997MOL0     C34522   8.583   7.660   9.106  0.5222 -0.6250  0.3467
  997MOL0     C34523   8.478   7.765   9.087 -0.6278  0.1660 -0.4908
  997MOL0     C34524   8.401   7.855   9.061  0.2292  0.6533  0.0637
  997MOL0     C34525   9.230   7.801   8.998  0.6841  0.2638  0.1374
  997MOL0     C34526   9.338   7.808   8.913 -0.0045  1.1128 -0.4289
  997MOL0     C34527   9.474   7.805   8.976  0.0169  0.0971 -0.2635
  997MOL0     H34528   9.491   7.537   8.397 -1.9988  1.5272  1.7651
  997MOL0     H34529   9.598   7.581   8.176  0.3622  0.3796 -0.0391
  997MOL0     H34530   9.566   7.979   8.016  0.1386 -1.8588 -1.2501
  997MOL0     H34531   9.729   8.007   8.074  1.4323 -0.7209  0.4753
  997MOL0     H34532   9.693   7.833   7.829 -0.7499  0.9921 -0.6948
  997MOL0     H34533   9.834   7.923   7.886 -0.6474 -2.4048  0.7837
  997MOL0     H34534   9.717   8.139   7.822  3.0298 -0.6894 -3.0404
  997MOL0     H34535   9.570   8.040   7.793 -0.4353 -1.7412  0.6028
  997MOL0     H34536   9.823   7.989   7.637 -0.0103  0.2142 -0.1441
  997MOL0     H34537   9.658   7.946   7.599 -0.0016 -0.2733  1.4169
  997MOL0     H34538   9.685   8.124   7.457  1.4034  1.5386  0.4046
  997MOL0     H34539   9.596   8.187   7.591 -0.4909 -1.0731  0.6383
  997MOL0     H34540   9.760   8.347   7.517  0.8234  0.7137 -0.4984
  997MOL0     H34541   9.794   8.288   7.680 -4.4150  0.3384  0.3519
  997MOL0     H34542   9.931   8.226   7.403 -0.0864  0.2591 -0.2805
  997MOL0     H34543   9.973   8.139   7.555  2.0557  1.0785 -0.4271
  997MOL0     H34544  10.006   8.429   7.501 -1.4692 -1.5191 -1.5456
  997MOL0     H34545  10.030   8.353   7.663 -0.7049 -0.3892  0.2593
  997MOL0     H34546  10.223   8.481   7.381 -1.5208 -0.4708  1.5715
  997MOL0     H34547  10.504   8.424   7.291  2.0462 -2.5245  2.2612
  997MOL0     H34548  10.507   8.248   7.250 -1.6370 -1.1298 -1.9531
  997MOL0     H34549  10.340   8.268   7.104 -0.9711  1.2869  0.1240
  997MOL0     H34550  10.303   8.440   7.142  1.3393  1.1627  0.8233
  997MOL0     H34551  10.500   8.512   7.016 -4.3454  1.3967 -1.2317
  997MOL0     H34552  10.407   8.394   6.936 -0.2622 -3.7807 -0.0497
  997MOL0     H34553  10.650   8.309   7.082 -0.4951  0.1589  0.8134
  997MOL0     H34554  10.634   8.337   6.905 -0.3256 -1.5674 -0.2456
  997MOL0     H34555  10.825   8.216   6.950 -2.7707  1.1958  1.2591
  997MOL0     H34556  10.989   8.047   6.897 -0.8705 -3.2774 -0.8769
  997MOL0     H34557  11.351   7.786   6.897  1.7633 -2.2103  0.3790
  997MOL0     H34558  11.517   7.648   6.763 -0.0367 -3.7587 -0.7609
  997MOL0     H34559  11.512   7.319   6.463 -0.0184 -1.3432  0.3917
  997MOL0     H34560  11.341   7.313   6.484  0.2220 -0.8849 -0.2372
  997MOL0     H34561  11.310   7.491   6.344  0.1127  1.6437  1.2341
  997MOL0     H34562  11.483   7.541   6.361 -1.0890  0.8202 -0.4371
  997MOL0     H34563  11.556   7.367   6.224  0.0373 -2.7864 -1.6399
  997MOL0     H34564  11.401   7.269   6.244 -1.0277  0.3267  0.7805
  997MOL0     H34565  11.329   7.504   6.118  0.6817 -0.4451 -2.8173
  997MOL0     H34566  11.344   7.344   6.058  0.5481 -0.2935 -1.0711
  997MOL0     H34567  11.588   7.416   6.011  0.9980  0.6984  3.8263
  997MOL0     H34568  11.542   7.586   6.036  1.3032 -0.0689  0.4918
  997MOL0     H34569  11.357   7.514   5.849  0.9746  2.5671 -3.0249
  997MOL0     H34570  11.507   7.596   5.822  0.8468  0.6786  1.5499
  997MOL0     H34571  11.441   7.326   5.726  1.7418 -0.6320 -0.4108
  997MOL0     H34572  11.587   7.331   5.812 -0.8905  0.8161  1.0724
  997MOL0     H34573  11.591   7.401   5.569 -2.5439  0.2280  0.1836
  997MOL0     H34574  11.518   7.556   5.610  2.5565  0.3526 -2.9238
  997MOL0     H34575  11.192   7.508   6.521 -1.2669 -1.5945  1.2221
  997MOL0     H34576  11.043   7.681   6.627 -0.1455 -1.0773  0.5113
  997MOL0     H34577  10.683   7.757   6.856 -1.3944  0.7873  0.0258
  997MOL0     H34578  10.520   7.901   6.953 -0.7632  0.3527 -1.3314
  997MOL0     H34579   9.579   8.009   8.254 -0.9092  0.4146  0.3864
  997MOL0     H34580   9.490   7.951   8.477  2.4884  2.6888 -1.9491
  997MOL0     H34581   9.160   7.728   8.630 -1.8843  1.8601  0.0770
  997MOL0     H34582   8.978   7.728   8.776  0.2624  1.7012 -3.0901
  997MOL0     H34583   8.892   7.944   8.918 -0.5788 -0.5205 -0.4889
  997MOL0     H34584   8.875   7.959   9.090  0.1307  0.5189 -0.1519
  997MOL0     H34585   8.786   7.732   8.916 -1.0100 -0.8361  0.0366
  997MOL0     H34586   8.678   7.869   8.934 -0.6469  0.6213 -0.6731
  997MOL0     H34587   8.692   7.821   9.193 -0.9555 -0.2836 -0.9732
  997MOL0     H34588   8.792   7.682   9.167  1.3273  0.1950  0.1840
  997MOL0     H34589   8.595   7.599   9.016  0.5052  0.4189 -0.3693
  997MOL0     H34590   8.560   7.600   9.195  1.2485  1.4112  1.9839
  997MOL0     H34591   8.343   7.943   9.046  3.4393  2.8085 -0.8160
  997MOL0     H34592   9.246   7.811   9.105  0.9374 -0.2022  0.1468
  997MOL0     H34593   9.483   7.897   9.035  0.9823 -0.6154  0.7367
  997MOL0     H34594   9.481   7.717   9.041  0.2093  0.3218  0.0175
  997MOL0     H34595   9.553   7.793   8.902 -1.3717  0.9992 -1.9696
  998MOL0     O34596  10.278   6.456   8.328 -0.6351 -0.9066 -0.1923
  998MOL0     C34597  10.389   6.484   8.283  0.0986 -1.0580 -1.1170
  998MOL0     O34598  10.473   6.405   8.215  0.4739 -0.5933  0.3482
  998MOL0     C34599  10.441   6.274   8.202  0.4793  0.0236 -0.1328
  998MOL0     C34600  10.407   6.214   8.085 -0.3972 -0.2669 -0.3354
  998MOL0     C34601  10.368   6.077   8.077 -0.3364 -0.2771 -0.3515
  998MOL0     C34602  10.362   5.984   8.184  0.4393 -0.1830 -1.3004
  998MOL0     O34603  10.320   5.856   8.156 -0.2952 -0.7233 -0.8198
  998MOL0     C34604  10.288   5.773   8.267 -0.1970  0.4496 -0.7714
  998MOL0     C34605  10.213   5.647   8.235  0.0043 -0.5835  0.1238
  998MOL0     C34606  10.302   5.555   8.140 -0.9975  0.2149 -0.3387
  998MOL0     C34607  10.238   5.422   8.092 -0.2168 -0.0891 -0.9984
  998MOL0     C34608  10.331   5.363   7.983  0.2310 -0.0781  0.3798
  998MOL0     C34609  10.304   5.212   7.978  0.5910  0.4640 -0.3780
  998MOL0     C34610  10.379   5.118   7.880 -0.1180 -0.4940  0.8611
  998MOL0     C34611  10.326   5.091   7.742  0.1760 -0.3960  0.4808
  998MOL0     N34612  10.401   4.983   7.682 -0.1419  0.1822  0.0780
  998MOL0     C34613  10.540   4.966   7.665 -0.0825  0.7986  0.6191
  998MOL0     C34614  10.547   4.844   7.596  0.0771  0.0228 -0.4942
  998MOL0     C34615  10.662   4.756   7.571 -0.7859  0.2714  0.5407
  998MOL0     C34616  10.806   4.817   7.541  0.4445  0.6670 -0.7463
  998MOL0     C34617  10.908   4.696   7.492 -0.1919 -1.2546  0.0716
  998MOL0     C34618  10.906   4.576   7.587  0.0612 -0.1761  0.1490
  998MOL0     O34619  10.937   4.607   7.725  0.3493  0.1365  1.0774
  998MOL0     C34620  10.977   4.519   7.826  0.3223  0.2166 -0.5797
  998MOL0     C34621  11.005   4.383   7.800  0.3977  0.1001  0.1424
  998MOL0     C34622  11.017   4.285   7.902 -0.6427 -0.2728  0.6650
  998MOL0     C34623  11.019   4.325   8.041  0.2617 -0.3169  0.2281
  998MOL0     C34624  11.045   4.227   8.146 -0.3196  0.0080  0.1052
  998MOL0     O34625  11.076   4.094   8.103 -0.5027 -0.4241  0.1311
  998MOL0     C34626  11.065   3.986   8.187  0.4184 -0.1597 -0.3111
  998MOL0     C34627  10.994   3.976   8.307 -0.2789 -0.4926  0.4221
  998MOL0     C34628  10.987   3.851   8.370  0.4571  0.8750  0.3951
  998MOL0     C34629  11.071   3.744   8.326  0.8956  0.9969 -0.0255
  998MOL0     O34630  11.073   3.615   8.375  0.9054 -0.2722  0.0988
  998MOL0     C34631  10.984   3.575   8.482  0.0614  0.0446 -0.1955
  998MOL0     C34632  11.003   3.428   8.515  0.0682  0.1385  0.1288
  998MOL0     C34633  10.945   3.327   8.409 -0.5625 -0.5016 -0.2043
  998MOL0     C34634  10.799   3.334   8.400  0.0524  0.4191  0.3270
  998MOL0     C34635  10.750   3.208   8.324  0.1977 -0.2755 -0.6116
  998MOL0     C34636  10.603   3.194   8.310 -0.3225 -0.3733  1.2880
  998MOL0     C34637  10.519   3.221   8.428  0.3628 -0.3217 -0.6004
  998MOL0     C34638  10.373   3.168   8.443 -0.3930 -0.1975  0.3346
  998MOL0    Cl34639  10.293   3.177   8.284 -0.1239 -0.6993  0.0890
  998MOL0     C34640  11.154   3.751   8.215 -0.2126 -0.1511  0.8877
  998MOL0     C34641  11.148   3.871   8.145  0.3392  0.5982  0.3971
  998MOL0     O34642  11.033   4.257   8.268  0.4472 -0.1219 -0.2101
  998MOL0     C34643  11.009   4.461   8.065 -0.2102 -0.3689 -0.1301
  998MOL0     C34644  10.987   4.560   7.966  0.5324  0.4722  0.7115
  998MOL0     N34645  10.422   4.816   7.550 -0.6440  0.5569  0.3812
  998MOL0     N34646  10.343   4.896   7.601 -0.1467  0.4373 -0.2776
  998MOL0     C34647  10.410   6.045   8.307 -0.0472 -0.5693  0.1338
  998MOL0     C34648  10.437   6.184   8.316 -0.5130  0.1615 -0.3675
  998MOL0     C34649  10.440   6.616   8.316 -0.0114  0.3744  0.1028
  998MOL0     C34650  10.496   6.676   8.204  0.1173  0.1407  1.0186
  998MOL0     C34651  10.549   6.804   8.210  0.2246  0.2894 -0.8082
  998MOL0     C34652  10.544   6.874   8.326 -0.3474 -0.6876  0.0743
  998MOL0     O34653  10.601   7.000   8.316  0.4534 -0.1129  0.2775
  998MOL0     C34654  10.667   7.063   8.424 -0.2562  0.1200  0.1787
  998MOL0     C34655  10.725   7.202   8.381 -0.2122 -0.4458 -0.1793
  998MOL0     C34656  10.852   7.184   8.285  0.1359 -0.8489  0.5784
  998MOL0     C34657  10.817   7.136   8.142  0.5184  0.3734  0.2088
  998MOL0     C34658  10.720   7.207   8.070  1.0204  0.3711 -0.5699
  998MOL0     C34659  10.629   7.270   8.020  1.3017  0.2757 -0.5960
  998MOL0     C34660  10.478   6.811   8.441  0.0171 -0.5945  0.6834
  998MOL0     C34661  10.429   6.684   8.445  0.5395 -0.6064 -0.0071
  998MOL0     C34662  10.380   6.623   8.576 -0.4443 -0.2353 -0.2124
  998MOL0     H34663  10.416   6.283   8.001 -0.8732 -0.1808 -0.3192
  998MOL0     H34664  10.349   6.048   7.974 -2.3015  3.0341 -1.0762
  998MOL0     H34665  10.380   5.736   8.313 -1.7119  0.8578  2.8967
  998MOL0     H34666  10.231   5.823   8.345  1.0346  1.3932 -0.4251
  998MOL0     H34667  10.115   5.665   8.190 -0.7701 -5.0104 -0.4327
  998MOL0     H34668  10.199   5.600   8.333  0.2878  1.8266  1.3840
  998MOL0     H34669  10.398   5.543   8.191 -1.1766  0.6376  0.1128
  998MOL0     H34670  10.334   5.613   8.052 -0.2539  0.2189 -0.0747
  998MOL0     H34671  10.221   5.356   8.178  3.2348  2.4038  1.8926
  998MOL0     H34672  10.135   5.438   8.059 -0.6511 -2.1523 -0.8037
  998MOL0     H34673  10.316   5.413   7.887 -1.9969  0.6037  1.0383
  998MOL0     H34674  10.436   5.366   8.014 -0.3109  1.0317  2.2205
  998MOL0     H34675  10.295   5.177   8.081 -1.7701 -1.1381 -1.0202
  998MOL0     H34676  10.200   5.199   7.945  0.9435  1.4731 -1.9947
  998MOL0     H34677  10.399   5.031   7.944  0.1198  0.8218  2.6468
  998MOL0     H34678  10.475   5.166   7.861 -1.2380  1.4025 -0.2924
  998MOL0     H34679  10.220   5.068   7.737  0.0088  0.0250  1.7958
  998MOL0     H34680  10.326   5.185   7.687 -0.7399  1.0673  2.8210
  998MOL0     H34681  10.619   5.031   7.703  0.2214  0.0756  1.2537
  998MOL0     H34682  10.659   4.700   7.665 -4.3622  2.1005  1.7032
  998MOL0     H34683  10.639   4.697   7.481  0.2609  1.2890 -0.4211
  998MOL0     H34684  10.780   4.892   7.466  1.6127  2.8033  0.8707
  998MOL0     H34685  10.847   4.855   7.635 -1.4577 -0.9881  0.8355
  998MOL0     H34686  11.008   4.738   7.477 -0.6825 -0.5239 -1.4708
  998MOL0     H34687  10.901   4.652   7.391  3.0483  0.7401 -1.1704
  998MOL0     H34688  10.977   4.503   7.547 -1.1437 -2.3889  1.8460
  998MOL0     H34689  10.810   4.524   7.580 -0.2947  0.6723 -1.9344
  998MOL0     H34690  11.017   4.341   7.701  2.0490  1.2702 -0.1856
  998MOL0     H34691  11.039   4.183   7.873  1.5235  0.2173  0.4040
  998MOL0     H34692  10.930   4.049   8.356 -0.3424 -1.1176  1.2840
  998MOL0     H34693  10.939   3.840   8.467  2.0294 -0.3286  1.1063
  998MOL0     H34694  11.006   3.632   8.573 -2.6174 -3.2004  2.8121
  998MOL0     H34695  10.883   3.597   8.448  0.3781 -3.4136 -4.2149
  998MOL0     H34696  11.112   3.424   8.516  0.1929  1.9359  2.5704
  998MOL0     H34697  10.954   3.418   8.612 -1.5768 -0.1451 -0.6909
  998MOL0     H34698  10.977   3.353   8.308  1.1210  2.6724  0.9917
  998MOL0     H34699  10.977   3.230   8.448  1.2477  0.5152  1.0270
  998MOL0     H34700  10.773   3.423   8.343 -0.1033 -1.5336 -2.9110
  998MOL0     H34701  10.756   3.338   8.500  2.0391 -0.2646  1.2745
  998MOL0     H34702  10.795   3.117   8.364  1.7679  0.8569  0.3276
  998MOL0     H34703  10.793   3.208   8.223 -0.2447 -2.9241 -0.8802
  998MOL0     H34704  10.570   3.258   8.228 -1.5788 -3.1272 -0.5120
  998MOL0     H34705  10.589   3.094   8.269 -3.2910  1.6908 -3.7328
  998MOL0     H34706  10.506   3.329   8.438 -1.1324 -0.6017  0.9635
  998MOL0     H34707  10.581   3.199   8.515  1.3154 -0.2823 -1.2572
  998MOL0     H34708  10.364   3.064   8.477  1.6183 -0.9522 -1.2544
  998MOL0     H34709  10.326   3.227   8.523  1.9319  1.3545  0.6327
  998MOL0     H34710  11.217   3.666   8.188  0.4758  0.4663  0.5329
  998MOL0     H34711  11.204   3.885   8.053  1.6551 -2.2627  0.6297
  998MOL0     H34712  11.005   4.491   8.169 -0.8420  1.7536 -0.7232
  998MOL0     H34713  10.971   4.661   8.003  2.4148 -0.0484  3.3012
  998MOL0     H34714  10.441   5.986   8.393  1.0749  0.2435  0.3168
  998MOL0     H34715  10.467   6.218   8.414  0.9218  2.3019 -1.4710
  998MOL0     H34716  10.521   6.622   8.113  0.6083  1.2610  0.4764
  998MOL0     H34717  10.605   6.843   8.126  2.5945  2.2172  1.4749
  998MOL0     H34718  10.738   6.987   8.457 -0.8974 -0.3237  0.5596
  998MOL0     H34719  10.600   7.077   8.510  3.1060 -1.2841  3.3068
  998MOL0     H34720  10.750   7.262   8.469  0.6095 -0.0162 -0.6836
  998MOL0     H34721  10.656   7.258   8.317  1.7027 -0.2929 -2.2512
  998MOL0     H34722  10.924   7.113   8.328 -0.8350 -2.2729 -0.0747
  998MOL0     H34723  10.913   7.273   8.267 -0.8259 -0.6984 -2.3443
  998MOL0     H34724  10.912   7.130   8.088  0.1340 -1.9598 -0.3276
  998MOL0     H34725  10.782   7.033   8.125  2.2573 -0.2183  0.0399
  998MOL0     H34726  10.549   7.334   7.989  0.1372 -1.6003 -1.6035
  998MOL0     H34727  10.497   6.875   8.526 -1.4533  0.3874  0.3005
  998MOL0     H34728  10.416   6.676   8.665 -3.0204  0.8360  0.2855
  998MOL0     H34729  10.272   6.613   8.573 -0.5306  0.5827 -0.1747
  998MOL0     H34730  10.420   6.522   8.583 -2.5523 -1.1209 -0.3409
  999MOL0     O34731   7.881   1.855   8.050  0.3467 -0.7186 -0.4963
  999MOL0     C34732   7.825   1.813   8.143 -0.6008 -0.3418  0.2888
  999MOL0     O34733   7.853   1.696   8.202  0.6414 -0.8970  0.2277
  999MOL0     C34734   7.922   1.613   8.126 -0.1595 -0.7027 -0.3836
  999MOL0     C34735   7.847   1.503   8.073 -0.0661  1.0565 -0.3333
  999MOL0     C34736   7.911   1.398   7.998  0.3963  0.4501 -0.8483
  999MOL0     C34737   8.051   1.405   7.987  0.3233 -0.5995  0.6755
  999MOL0     O34738   8.133   1.306   7.939 -0.4408  0.2209 -0.1545
  999MOL0     C34739   8.112   1.285   7.799 -0.1272  0.1135 -0.0978
  999MOL0     C34740   8.162   1.404   7.708  0.4219 -0.4873  0.1083
  999MOL0     C34741   8.129   1.378   7.564 -0.5112  0.2838  0.0762
  999MOL0     C34742   8.227   1.408   7.446 -0.5920 -0.2786 -0.0144
  999MOL0     C34743   8.250   1.556   7.419  0.3842 -0.4855 -0.3781
  999MOL0     C34744   8.316   1.655   7.523  0.3354  0.0178 -0.3666
  999MOL0     C34745   8.463   1.625   7.557 -0.3472 -0.3548 -0.8251
  999MOL0     C34746   8.550   1.654   7.432 -0.0116  0.1237  0.7074
  999MOL0     N34747   8.687   1.610   7.432  0.3370  0.2667 -0.2178
  999MOL0     C34748   8.745   1.494   7.383 -0.2685 -0.3874 -0.2084
  999MOL0     C34749   8.874   1.495   7.420  0.5562  0.5217  0.4441
  999MOL0     C34750   8.993   1.400   7.391 -0.4683 -0.2654 -0.5027
  999MOL0     C34751   9.096   1.467   7.301  0.9716 -0.6483  0.3107
  999MOL0     C34752   9.044   1.530   7.164 -0.6058  0.6236  0.0576
  999MOL0     C34753   9.147   1.519   7.050 -0.4504 -0.5290  0.2532
  999MOL0     O34754   9.271   1.585   7.095 -0.0178 -0.1278  0.6297
  999MOL0     C34755   9.373   1.569   7.006 -0.5715 -0.2849  0.5300
  999MOL0     C34756   9.373   1.515   6.868  0.1930 -0.1481  0.3937
  999MOL0     C34757   9.491   1.506   6.795  0.4094  0.2638  0.4463
  999MOL0     C34758   9.611   1.524   6.863  0.4818  0.2644 -0.2638
  999MOL0     C34759   9.739   1.497   6.801  0.5747 -0.6349 -0.1969
  999MOL0     O34760   9.840   1.582   6.824  0.1868 -0.2050 -0.2296
  999MOL0     C34761   9.969   1.552   6.778  0.2061 -0.4983 -0.4726
  999MOL0     C34762  10.079   1.584   6.858  0.6066  0.1877 -0.0080
  999MOL0     C34763  10.203   1.581   6.811 -0.7345  1.0004  0.1439
  999MOL0     C34764  10.233   1.536   6.677 -0.2985  0.1944 -0.5985
  999MOL0     O34765  10.369   1.542   6.626  0.0864  0.0163 -0.4096
  999MOL0     C34766  10.406   1.428   6.547 -0.1578  0.9794 -0.1384
  999MOL0     C34767  10.465   1.483   6.416 -0.0432  0.7185 -0.5139
  999MOL0     C34768  10.494   1.376   6.306 -0.7632  0.1316  0.4989
  999MOL0     C34769  10.643   1.344   6.323 -0.3563 -0.6722 -0.0635
  999MOL0     C34770  10.720   1.357   6.192  0.4499 -0.2092  0.1686
  999MOL0     C34771  10.861   1.284   6.200 -0.2466 -0.1880  0.1409
  999MOL0     C34772  10.852   1.144   6.145  0.4953  0.1844  0.9149
  999MOL0     C34773  10.895   1.162   5.996 -0.3949  0.2194 -0.4676
  999MOL0    Cl34774  10.854   1.009   5.918  0.4636 -0.2808 -0.1187
  999MOL0     C34775  10.131   1.499   6.595  1.1351  0.2193 -0.4464
  999MOL0     C34776   9.996   1.510   6.647 -0.2065  1.0049  0.1203
  999MOL0     O34777   9.743   1.396   6.735  0.1072  0.7895 -0.2923
  999MOL0     C34778   9.613   1.579   6.991 -0.1680 -0.0403 -0.8880
  999MOL0     C34779   9.493   1.589   7.064  0.8763 -0.0453  0.4339
  999MOL0     N34780   8.886   1.609   7.509 -0.1555 -0.6574  0.2519
  999MOL0     N34781   8.771   1.669   7.513  0.1985 -0.5525 -0.8540
  999MOL0     C34782   8.124   1.519   8.036  0.9924  0.2929 -0.8783
  999MOL0     C34783   8.057   1.616   8.108 -0.3244 -0.6530  0.5580
  999MOL0     C34784   7.718   1.900   8.202 -0.5895  0.0487 -0.4236
  999MOL0     C34785   7.637   1.848   8.311 -0.6906 -0.0182  0.1115
  999MOL0     C34786   7.537   1.922   8.360  0.9794 -0.1768 -0.4755
  999MOL0     C34787   7.499   2.048   8.307 -0.9349  0.7056 -0.4657
  999MOL0     O34788   7.391   2.121   8.348 -0.4526 -0.2364  0.4157
  999MOL0     C34789   7.273   2.057   8.394 -0.2972  0.8102 -0.0886
  999MOL0     C34790   7.156   2.139   8.326  0.5922 -0.0537 -0.1008
  999MOL0     C34791   7.031   2.093   8.404  0.1902 -0.0238 -0.5246
  999MOL0     C34792   6.901   2.135   8.335 -1.4330 -0.0611 -0.1490
  999MOL0     C34793   6.877   2.278   8.356 -0.3178 -1.1016 -0.2265
  999MOL0     C34794   6.851   2.403   8.362 -0.6073 -0.2879 -0.5326
  999MOL0     C34795   7.567   2.100   8.207 -0.9040 -0.7756  0.4908
  999MOL0     C34796   7.681   2.029   8.156 -0.1339 -0.4311 -0.9059
  999MOL0     C34797   7.753   2.101   8.044 -0.6442  0.2227  0.1186
  999MOL0     H34798   7.741   1.492   8.097  0.3137 -0.8004  0.6439
  999MOL0     H34799   7.864   1.306   7.966  1.5300 -0.8562  1.0444
  999MOL0     H34800   8.161   1.196   7.759  0.6104  1.8736 -3.4779
  999MOL0     H34801   8.010   1.249   7.785  0.4478 -0.4981 -3.8047
  999MOL0     H34802   8.269   1.426   7.709  0.3894 -0.2336 -0.8867
  999MOL0     H34803   8.118   1.501   7.731  1.0827  0.8885 -3.7090
  999MOL0     H34804   8.043   1.445   7.550  0.3624  1.1625 -1.3705
  999MOL0     H34805   8.096   1.275   7.551 -1.5303  0.4691  0.9834
  999MOL0     H34806   8.322   1.365   7.482  0.0929  0.8674 -0.4161
  999MOL0     H34807   8.189   1.364   7.354 -0.0481  1.6780 -1.2223
  999MOL0     H34808   8.302   1.564   7.323  1.0697 -0.7028 -0.0333
  999MOL0     H34809   8.147   1.590   7.405  0.3651 -0.1474  0.5676
  999MOL0     H34810   8.301   1.758   7.491  1.1785  0.5583  0.8934
  999MOL0     H34811   8.258   1.655   7.616 -1.8368 -0.0687 -1.6416
  999MOL0     H34812   8.468   1.518   7.580 -1.5939  0.1014  2.0036
  999MOL0     H34813   8.494   1.676   7.648 -2.4529 -0.6457  0.1126
  999MOL0     H34814   8.495   1.595   7.358 -3.3837 -1.0202  3.8716
  999MOL0     H34815   8.549   1.754   7.387 -0.8603 -0.1957  0.0008
  999MOL0     H34816   8.698   1.411   7.330  0.3835 -2.2831  1.9816
  999MOL0     H34817   9.027   1.380   7.493 -0.6453  1.6487 -0.0216
  999MOL0     H34818   8.967   1.312   7.332 -0.6548 -0.3546 -0.2917
  999MOL0     H34819   9.139   1.552   7.355  0.0301  0.5876 -0.7940
  999MOL0     H34820   9.176   1.393   7.293  1.0536 -0.6729  1.2227
  999MOL0     H34821   9.020   1.635   7.181  0.4263  0.9435 -0.3895
  999MOL0     H34822   8.954   1.475   7.136 -0.4908 -0.0174  0.9143
  999MOL0     H34823   9.101   1.575   6.968  2.4999  0.6834 -0.7444
  999MOL0     H34824   9.149   1.412   7.030 -1.8062 -0.5932  0.4066
  999MOL0     H34825   9.274   1.481   6.840 -0.2066  2.1434 -1.2591
  999MOL0     H34826   9.477   1.467   6.695 -1.2241 -0.1255  0.8011
  999MOL0     H34827  10.061   1.609   6.962 -0.5537  0.0726 -0.1687
  999MOL0     H34828  10.293   1.613   6.862  2.5177 -1.1052 -3.6832
  999MOL0     H34829  10.478   1.366   6.601 -2.5157 -4.4558 -2.4955
  999MOL0     H34830  10.324   1.357   6.533  1.9403 -1.7365  0.5507
  999MOL0     H34831  10.388   1.550   6.376 -1.5024 -1.3412 -1.3157
  999MOL0     H34832  10.553   1.543   6.443  0.1395 -0.2904  1.2923
  999MOL0     H34833  10.433   1.286   6.319 -1.4903  0.3866 -0.8944
  999MOL0     H34834  10.472   1.410   6.204  0.9109 -1.0532 -0.3045
  999MOL0     H34835  10.651   1.241   6.360  1.3552  0.0395  1.7458
  999MOL0     H34836  10.694   1.396   6.405  0.0653 -0.3423 -0.5322
  999MOL0     H34837  10.730   1.463   6.171  1.7572 -0.3216  0.1447
  999MOL0     H34838  10.659   1.309   6.115  2.1418 -0.8720 -0.8126
  999MOL0     H34839  10.948   1.337   6.160  2.7161 -2.0510  3.4991
  999MOL0     H34840  10.880   1.278   6.307 -0.0273 -1.4709  0.0499
  999MOL0     H34841  10.749   1.110   6.150  0.7256 -0.8040 -0.4852
  999MOL0     H34842  10.925   1.086   6.202  3.6256  2.8115 -0.0899
  999MOL0     H34843  10.851   1.253   5.954 -3.1231 -1.0769 -0.6322
  999MOL0     H34844  11.003   1.174   5.995 -0.3597  0.1134  0.6716
  999MOL0     H34845  10.147   1.467   6.493 -0.5052  1.9099 -1.2899
  999MOL0     H34846   9.916   1.470   6.585  0.8961 -0.8289 -0.2074
  999MOL0     H34847   9.707   1.598   7.042 -1.4801  0.1692  1.6164
  999MOL0     H34848   9.501   1.620   7.167 -0.3925  1.1682  0.1939
  999MOL0     H34849   8.228   1.527   8.005  1.2186 -0.4652 -0.3415
  999MOL0     H34850   8.112   1.705   8.138 -1.2614  3.0540 -6.6921
  999MOL0     H34851   7.663   1.755   8.362  0.9553  0.6704  0.5776
  999MOL0     H34852   7.476   1.874   8.436  0.5171  2.9193  1.2799
  999MOL0     H34853   7.266   2.078   8.501 -2.7170 -1.4693  0.3084
  999MOL0     H34854   7.253   1.951   8.377 -2.2750  1.5133 -2.8809
  999MOL0     H34855   7.155   2.128   8.217  3.4616  0.3593 -0.2601
  999MOL0     H34856   7.168   2.247   8.343 -0.2985 -0.0406  0.4688
  999MOL0     H34857   7.044   2.145   8.499  1.2075  2.3025 -1.8476
  999MOL0     H34858   7.031   1.990   8.439 -2.3091  0.8775  2.6233
  999MOL0     H34859   6.906   2.112   8.228  0.8198  2.2846 -0.6668
  999MOL0     H34860   6.818   2.094   8.394  0.0130 -0.1901  1.9081
  999MOL0     H34861   6.817   2.504   8.362  0.6596  0.1548 -1.2622
  999MOL0     H34862   7.535   2.199   8.177  2.7743  0.5323  0.3736
  999MOL0     H34863   7.709   2.200   8.036 -0.0039  0.6754  1.8348
  999MOL0     H34864   7.861   2.111   8.058 -0.7708 -2.1448  4.2888
  999MOL0     H34865   7.734   2.048   7.950 -2.3691  0.7828  0.1105
 1000MOL0     O34866   6.872   6.651   5.748 -0.2250 -0.0835 -0.0942
 1000MOL0     C34867   6.990   6.652   5.723 -0.0844  0.4110 -0.0617
 1000MOL0     O34868   7.088   6.662   5.819 -0.5541  0.6692 -0.5723
 1000MOL0     C34869   7.058   6.718   5.949 -1.3472 -0.3245  0.6435
 1000MOL0     C34870   6.976   6.817   5.969 -0.7237 -0.2368  0.3962
 1000MOL0     C34871   6.972   6.877   6.094 -0.3323 -0.8975  0.4389
 1000MOL0     C34872   7.049   6.846   6.201  0.6686  0.4840  0.3544
 1000MOL0     O34873   7.027   6.902   6.320  0.1067  0.1230 -0.5183
 1000MOL0     C34874   6.889   6.895   6.372 -1.3660  0.2868  0.5220
 1000MOL0     C34875   6.830   7.036   6.404 -0.1844 -0.7582 -0.0184
 1000MOL0     C34876   6.679   7.046   6.446 -0.1196  0.0054 -0.1710
 1000MOL0     C34877   6.648   6.941   6.553 -0.3149 -0.2124  0.5278
 1000MOL0     C34878   6.496   6.953   6.566  0.0797  0.7418 -0.1295
 1000MOL0     C34879   6.446   6.849   6.675 -0.4982  0.3348  0.7436
 1000MOL0     C34880   6.301   6.835   6.677 -0.0201  0.9614 -0.5686
 1000MOL0     C34881   6.232   6.807   6.818  0.1957  0.8441 -0.0099
 1000MOL0     N34882   6.227   6.936   6.896  0.4647  0.2138 -0.6085
 1000MOL0     C34883   6.165   6.966   7.018 -0.3783  0.3998  0.3664
 1000MOL0     C34884   6.207   7.098   7.059 -0.3718 -0.0746  0.5958
 1000MOL0     C34885   6.195   7.151   7.196  1.0327  0.8113 -0.4992
 1000MOL0     C34886   6.328   7.158   7.269 -0.7201 -0.2742  0.9176
 1000MOL0     C34887   6.411   7.030   7.277 -0.0743 -0.2955 -0.1615
 1000MOL0     C34888   6.352   6.919   7.353 -0.0050 -0.2392  0.8165
 1000MOL0     O34889   6.455   6.829   7.406 -0.0214  0.3856 -0.0194
 1000MOL0     C34890   6.415   6.696   7.426 -0.5650 -0.8136  0.6176
 1000MOL0     C34891   6.518   6.607   7.434 -0.2336 -0.6494 -0.6658
 1000MOL0     C34892   6.497   6.469   7.454 -0.1191  0.4783 -0.3503
 1000MOL0     C34893   6.370   6.419   7.470 -0.6543 -0.2152  0.1328
 1000MOL0     C34894   6.352   6.272   7.486 -1.6379 -0.6622 -0.4525
 1000MOL0     O34895   6.462   6.214   7.540  0.7905 -0.3612 -0.2608
 1000MOL0     C34896   6.465   6.078   7.559 -1.2904 -0.0606 -1.1189
 1000MOL0     C34897   6.544   5.996   7.473  0.8455 -0.4023 -0.6970
 1000MOL0     C34898   6.536   5.851   7.495  1.0876 -0.1810 -0.2515
 1000MOL0     C34899   6.460   5.798   7.604 -0.4849  0.3828  0.2172
 1000MOL0     O34900   6.453   5.659   7.615  0.2475  0.4655  0.2735
 1000MOL0     C34901   6.319   5.610   7.596 -0.0829 -0.5202  0.3573
 1000MOL0     C34902   6.316   5.520   7.476  0.0180 -0.3678 -0.1135
 1000MOL0     C34903   6.387   5.383   7.486 -0.3222 -0.3772  0.0889
 1000MOL0     C34904   6.325   5.271   7.416 -0.2822  0.3416  0.0238
 1000MOL0     C34905   6.429   5.158   7.397  0.4099  0.2139 -0.1605
 1000MOL0     C34906   6.390   5.046   7.299 -0.4713 -0.4597 -0.1912
 1000MOL0     C34907   6.516   4.968   7.249 -0.6519  0.5375 -0.2087
 1000MOL0     C34908   6.463   4.863   7.156 -0.1375 -0.1762 -0.6040
 1000MOL0    Cl34909   6.377   4.930   7.008  0.2314 -0.0654 -0.2399
 1000MOL0     C34910   6.393   5.886   7.690 -0.2496  0.1622 -0.3623
 1000MOL0     C34911   6.400   6.022   7.663  0.4320  0.4621 -0.6369
 1000MOL0     O34912   6.246   6.219   7.464  0.5672  0.2133 -0.0468
 1000MOL0     C34913   6.260   6.506   7.466 -0.2241  0.2493  0.7644
 1000MOL0     C34914   6.282   6.643   7.435 -0.3384 -0.0306  0.0372
 1000MOL0     N34915   6.276   7.145   6.946 -0.0306 -0.5449  0.2971
 1000MOL0     N34916   6.285   7.052   6.849  0.3614 -0.1010 -0.4376
 1000MOL0     C34917   7.146   6.745   6.182 -0.3226 -0.2901  0.4624
 1000MOL0     C34918   7.137   6.675   6.053  0.2120 -0.9644  0.4898
 1000MOL0     C34919   7.029   6.636   5.586 -1.0220  0.7340  0.5963
 1000MOL0     C34920   6.937   6.639   5.482 -0.3558  0.5839  0.9111
 1000MOL0     C34921   6.971   6.652   5.344 -0.5856  1.0125 -0.1594
 1000MOL0     C34922   7.110   6.637   5.306 -0.1184 -0.3998 -0.3045
 1000MOL0     O34923   7.156   6.620   5.177  0.0499  0.9176  0.3319
 1000MOL0     C34924   7.071   6.609   5.068  0.0459  0.4757 -0.5441
 1000MOL0     C34925   7.029   6.739   4.990 -0.7066 -0.3086 -0.6305
 1000MOL0     C34926   6.995   6.865   5.064 -0.3796  0.0321 -0.1078
 1000MOL0     C34927   6.871   6.938   5.017  0.6420  0.3019 -0.9580
 1000MOL0     C34928   6.893   7.028   4.906 -0.6209  0.5799 -0.5433
 1000MOL0     C34929   6.889   7.116   4.818  0.3913  0.0913  0.2763
 1000MOL0     C34930   7.205   6.615   5.412  0.3042 -0.2318 -0.4502
 1000MOL0     C34931   7.170   6.618   5.544 -0.0113 -0.1213  0.3075
 1000MOL0     C34932   7.283   6.578   5.637 -0.5558 -0.0560 -0.4030
 1000MOL0     H34933   6.920   6.858   5.886 -0.6160 -2.0529 -0.6337
 1000MOL0     H34934   6.909   6.965   6.097 -1.4501 -1.6938  1.0960
 1000MOL0     H34935   6.824   6.848   6.298 -3.8451  2.0193  1.4386
 1000MOL0     H34936   6.884   6.830   6.459 -1.6905 -1.6327 -0.8784
 1000MOL0     H34937   6.845   7.101   6.317  0.1283  2.4276  2.2356
 1000MOL0     H34938   6.894   7.083   6.479 -1.7107  1.2356  0.1280
 1000MOL0     H34939   6.624   7.026   6.353 -1.2140 -2.2064  0.8631
 1000MOL0     H34940   6.647   7.141   6.489 -1.4646 -1.2065  1.6988
 1000MOL0     H34941   6.682   6.840   6.527  1.3907  0.9849 -2.3661
 1000MOL0     H34942   6.697   6.967   6.646 -1.2218 -0.9994  1.2505
 1000MOL0     H34943   6.463   7.048   6.610  0.2436  0.5578  0.3964
 1000MOL0     H34944   6.450   6.944   6.467  3.4329  1.3913 -1.8816
 1000MOL0     H34945   6.477   6.747   6.650 -1.5653  0.9772 -4.3622
 1000MOL0     H34946   6.487   6.888   6.769  0.6874 -0.6542  0.6607
 1000MOL0     H34947   6.279   6.753   6.608 -2.2331  1.4076 -0.4738
 1000MOL0     H34948   6.250   6.926   6.645 -0.9157  0.0852 -1.7360
 1000MOL0     H34949   6.138   6.752   6.815  1.7360 -2.4489  3.3367
 1000MOL0     H34950   6.297   6.735   6.868  0.4832 -0.1045 -1.6763
 1000MOL0     H34951   6.119   6.892   7.083 -0.2110  1.6716  2.0003
 1000MOL0     H34952   6.149   7.250   7.189 -2.1193 -0.5273 -0.7006
 1000MOL0     H34953   6.127   7.094   7.261  0.8252  0.8329 -0.6983
 1000MOL0     H34954   6.389   7.225   7.207 -0.1881 -1.3152  0.2998
 1000MOL0     H34955   6.312   7.204   7.367 -4.0930  1.6268 -0.3221
 1000MOL0     H34956   6.504   7.044   7.332 -0.0583 -1.7804  0.2262
 1000MOL0     H34957   6.430   7.007   7.172  0.0708  3.3299 -1.0592
 1000MOL0     H34958   6.271   6.881   7.291 -2.4369  2.3092  2.2243
 1000MOL0     H34959   6.294   6.965   7.433  0.0015  1.9290 -0.3730
 1000MOL0     H34960   6.622   6.639   7.428 -0.9931  1.9181 -1.2902
 1000MOL0     H34961   6.583   6.404   7.452  0.4273  1.1968 -2.4871
 1000MOL0     H34962   6.608   6.038   7.397 -1.1502 -1.4887 -3.1251
 1000MOL0     H34963   6.591   5.786   7.426  1.7372 -0.8359  0.8444
 1000MOL0     H34964   6.298   5.558   7.690  1.8748  1.2114  1.8407
 1000MOL0     H34965   6.244   5.683   7.565  1.8103  0.7862 -1.4616
 1000MOL0     H34966   6.210   5.492   7.476 -1.1440  3.4443  1.5375
 1000MOL0     H34967   6.342   5.549   7.373  3.2127 -2.4173 -0.0209
 1000MOL0     H34968   6.482   5.399   7.434  0.1579 -1.4894  0.5900
 1000MOL0     H34969   6.409   5.365   7.591 -0.8096 -0.8488  0.1129
 1000MOL0     H34970   6.291   5.303   7.317  1.4865  1.8635 -0.1220
 1000MOL0     H34971   6.239   5.230   7.471 -0.5734  2.1070  0.9519
 1000MOL0     H34972   6.454   5.109   7.491 -0.8234  2.8778  1.6572
 1000MOL0     H34973   6.521   5.212   7.370 -1.2546  3.8858  0.8772
 1000MOL0     H34974   6.324   4.975   7.349  0.1228 -0.1761  1.0295
 1000MOL0     H34975   6.333   5.080   7.212 -1.3136 -1.6250 -0.1174
 1000MOL0     H34976   6.563   4.925   7.338 -0.4960  0.3585 -0.3779
 1000MOL0     H34977   6.593   5.032   7.205 -1.5119  1.6256 -0.1786
 1000MOL0     H34978   6.545   4.805   7.113 -0.4899  1.0666 -3.1315
 1000MOL0     H34979   6.390   4.802   7.210 -1.7348  1.2820 -1.0660
 1000MOL0     H34980   6.344   5.849   7.780 -2.0817  0.5751 -1.1479
 1000MOL0     H34981   6.338   6.081   7.728  1.6411  1.1601 -0.0786
 1000MOL0     H34982   6.161   6.469   7.493  0.9782 -2.5947  1.7505
 1000MOL0     H34983   6.198   6.711   7.443  0.3610  1.0591 -1.5798
 1000MOL0     H34984   7.204   6.700   6.262  2.7275 -0.8994 -1.9061
 1000MOL0     H34985   7.195   6.584   6.051  2.6242  0.4982 -0.4418
 1000MOL0     H34986   6.830   6.654   5.494 -0.9589  2.6193 -4.2718
 1000MOL0     H34987   6.898   6.660   5.264  0.0735 -0.2831 -0.9301
 1000MOL0     H34988   6.985   6.547   5.095  1.1613  0.2962  3.1293
 1000MOL0     H34989   7.130   6.560   4.990  2.5855  3.8217 -0.9660
 1000MOL0     H34990   6.960   6.714   4.909  0.5295 -1.0737 -1.4959
 1000MOL0     H34991   7.121   6.766   4.938  1.1138  1.7479  3.2380
 1000MOL0     H34992   7.079   6.935   5.056 -0.1420 -0.2688 -0.2897
 1000MOL0     H34993   6.988   6.858   5.173  1.5676 -2.9546 -0.0635
 1000MOL0     H34994   6.805   6.857   4.985 -1.6965  2.3641 -1.7419
 1000MOL0     H34995   6.828   6.982   5.107 -0.9535 -2.6466 -0.1353
 1000MOL0     H34996   6.899   7.187   4.739  3.2229 -0.3502  0.1405
 1000MOL0     H34997   7.306   6.603   5.372  1.4770  2.9953  1.2074
 1000MOL0     H34998   7.367   6.648   5.648  0.1444 -1.1046  1.3067
 1000MOL0     H34999   7.249   6.545   5.735 -1.9951  0.3632 -0.7420
 1000MOL0     H35000   7.328   6.494   5.584 -1.3940 -0.6954 -0.1068
 1001MOL0     O35001   0.886   7.899   2.932  0.0767  0.0135  0.1636
 1001MOL0     C35002   0.773   7.871   2.897  0.1172  0.3092 -0.2559
 1001MOL0     O35003   0.737   7.745   2.870  0.6159 -0.5680 -0.3747
 1001MOL0     C35004   0.816   7.643   2.915  0.0879  0.4953  0.2300
 1001MOL0     C35005   0.874   7.560   2.829  0.1175  1.1364 -0.9558
 1001MOL0     C35006   0.959   7.446   2.877  0.6724  0.6517  0.3942
 1001MOL0     C35007   0.960   7.422   3.009  1.0129  0.2415 -0.3475
 1001MOL0     O35008   1.035   7.314   3.047 -0.0099 -0.0529  0.2329
 1001MOL0     C35009   1.085   7.298   3.184  0.0261 -0.3212 -0.5943
 1001MOL0     C35010   1.201   7.399   3.220  1.1632  0.3258  0.0647
 1001MOL0     C35011   1.305   7.430   3.113 -0.2580  0.1573 -0.4429
 1001MOL0     C35012   1.417   7.515   3.167 -1.0705  0.4321  0.3837
 1001MOL0     C35013   1.530   7.538   3.075  0.5307 -0.1041  0.0392
 1001MOL0     C35014   1.644   7.432   3.072  0.4879  0.1603 -0.4809
 1001MOL0     C35015   1.724   7.417   2.938  0.3067  0.0248 -0.0343
 1001MOL0     C35016   1.806   7.545   2.914  0.5710  0.3147  0.4576
 1001MOL0     N35017   1.904   7.509   2.804 -0.3224  0.2492 -0.5607
 1001MOL0     C35018   1.926   7.605   2.715  0.0648 -0.0800  0.8415
 1001MOL0     C35019   2.022   7.564   2.636 -0.2847 -0.0841 -0.4395
 1001MOL0     C35020   2.091   7.635   2.522 -0.6849 -0.6003 -0.3665
 1001MOL0     C35021   2.098   7.543   2.399  0.6756 -0.3988  1.0351
 1001MOL0     C35022   1.965   7.536   2.325  0.0142 -0.2912  0.1839
 1001MOL0     C35023   1.923   7.675   2.264  0.1015  0.1298 -0.0437
 1001MOL0     O35024   2.033   7.715   2.181  0.1474 -0.6705  0.0356
 1001MOL0     C35025   2.000   7.732   2.052  0.0057  0.4105  0.4679
 1001MOL0     C35026   1.869   7.794   2.014  0.0642  0.2732 -0.4643
 1001MOL0     C35027   1.831   7.795   1.881 -0.6711 -0.7848  0.0157
 1001MOL0     C35028   1.905   7.728   1.779  0.9530 -0.3657 -0.7603
 1001MOL0     C35029   1.868   7.719   1.639  0.1451  0.2357 -1.1014
 1001MOL0     O35030   1.763   7.794   1.600 -0.3323 -0.1489 -0.1149
 1001MOL0     C35031   1.729   7.826   1.470 -0.0181  0.3715  0.0712
 1001MOL0     C35032   1.760   7.743   1.353 -0.4324 -0.0656 -0.3633
 1001MOL0     C35033   1.716   7.784   1.225  0.1914  0.6416 -0.1655
 1001MOL0     C35034   1.622   7.886   1.211 -0.3976 -0.5661  0.4229
 1001MOL0     O35035   1.577   7.927   1.090 -0.2014  0.7125  0.6478
 1001MOL0     C35036   1.636   7.879   0.966 -0.2497  0.1226 -0.9030
 1001MOL0     C35037   1.556   7.945   0.858 -0.0974  0.9241 -0.1344
 1001MOL0     C35038   1.412   7.891   0.873 -0.0622 -0.2659  1.0925
 1001MOL0     C35039   1.312   7.941   0.769 -0.5545 -0.3963  0.5208
 1001MOL0     C35040   1.179   7.864   0.776 -0.0949  0.1319 -0.1141
 1001MOL0     C35041   1.102   7.882   0.654  0.1478 -0.5204  0.0971
 1001MOL0     C35042   0.984   7.785   0.641 -0.5815 -0.6028 -0.5204
 1001MOL0     C35043   1.019   7.647   0.590  0.3826 -0.6342  0.6400
 1001MOL0    Cl35044   1.128   7.672   0.446 -0.4052  0.2904  0.4158
 1001MOL0     C35045   1.576   7.954   1.322 -0.2611  0.4664  0.8774
 1001MOL0     C35046   1.623   7.927   1.452  0.3663 -0.0830 -0.6391
 1001MOL0     O35047   1.947   7.661   1.565 -0.3879  0.4692 -0.6230
 1001MOL0     C35048   2.023   7.662   1.827  0.1873  0.1739 -0.7932
 1001MOL0     C35049   2.071   7.672   1.957 -0.1637  1.2842 -0.6746
 1001MOL0     N35050   2.058   7.438   2.683  0.6797  0.6616 -0.2426
 1001MOL0     N35051   1.993   7.411   2.791 -0.6691  0.2094 -0.5586
 1001MOL0     C35052   0.902   7.511   3.097 -0.0130  0.6473  0.5007
 1001MOL0     C35053   0.824   7.618   3.052  0.2205  0.1014  0.4296
 1001MOL0     C35054   0.666   7.965   2.893  0.8412 -0.1090  0.5770
 1001MOL0     C35055   0.529   7.919   2.926  1.1510 -0.3321  0.3006
 1001MOL0     C35056   0.424   8.001   2.909 -0.1065  0.0101  0.2803
 1001MOL0     C35057   0.438   8.136   2.870 -0.8044  0.1850 -1.0136
 1001MOL0     O35058   0.330   8.206   2.843  0.5343  0.0571 -0.6078
 1001MOL0     C35059   0.288   8.286   2.950 -0.5476 -0.0927 -0.1052
 1001MOL0     C35060   0.247   8.419   2.897 -0.3504  0.0052  0.5961
 1001MOL0     C35061   0.123   8.417   2.803  0.2926  0.1870  0.8019
 1001MOL0     C35062   0.130   8.529   2.695 -0.4601 -0.0707  0.3191
 1001MOL0     C35063   0.028   8.513   2.600 -0.0800 -0.1578 -0.5102
 1001MOL0     C35064  -0.044   8.500   2.507  0.0374 -0.9794  0.0366
 1001MOL0     C35065   0.568   8.186   2.846 -0.1524  1.2269  0.0644
 1001MOL0     C35066   0.685   8.099   2.856  1.1833  0.5485 -0.1535
 1001MOL0     C35067   0.822   8.159   2.812 -0.2144 -0.5569 -0.1602
 1001MOL0     H35068   0.868   7.571   2.721  1.1333 -3.9326 -1.7599
 1001MOL0     H35069   1.011   7.393   2.799 -1.4963  2.5802 -2.5832
 1001MOL0     H35070   1.007   7.300   3.261  0.4900  2.6560 -0.0744
 1001MOL0     H35071   1.126   7.197   3.181  2.4056  0.3418  3.0073
 1001MOL0     H35072   1.246   7.356   3.310 -0.7951 -1.6859  0.2042
 1001MOL0     H35073   1.150   7.489   3.255 -0.1363 -0.8587  1.3602
 1001MOL0     H35074   1.261   7.489   3.032  1.0565  2.2726  0.3065
 1001MOL0     H35075   1.342   7.335   3.073  0.4986  0.7393 -1.1713
 1001MOL0     H35076   1.370   7.611   3.185 -1.8239 -0.2404  2.1726
 1001MOL0     H35077   1.455   7.458   3.252 -0.1734 -3.2947 -2.2389
 1001MOL0     H35078   1.479   7.543   2.978 -0.9470  2.7682  0.8348
 1001MOL0     H35079   1.572   7.638   3.092  0.0090  0.2737 -0.7780
 1001MOL0     H35080   1.709   7.453   3.158 -0.8645 -0.7618  0.8113
 1001MOL0     H35081   1.592   7.338   3.093 -1.0577  0.3517 -3.0914
 1001MOL0     H35082   1.657   7.391   2.856 -0.1911 -1.4047  0.7936
 1001MOL0     H35083   1.789   7.330   2.952 -1.3847 -1.4910 -1.2269
 1001MOL0     H35084   1.741   7.628   2.882  0.0946 -0.4034 -0.5116
 1001MOL0     H35085   1.869   7.569   3.000  0.3342  2.5899  0.0644
 1001MOL0     H35086   1.866   7.695   2.717  0.6738  0.3335  0.6797
 1001MOL0     H35087   2.055   7.736   2.505  3.5797  1.4901  1.5302
 1001MOL0     H35088   2.192   7.659   2.556 -1.1918  1.2780 -0.1163
 1001MOL0     H35089   2.181   7.581   2.340 -0.6361  1.4133  0.2739
 1001MOL0     H35090   2.119   7.439   2.427 -0.1445 -0.3515  1.8823
 1001MOL0     H35091   1.883   7.494   2.385 -1.5941 -1.3666 -2.5956
 1001MOL0     H35092   1.981   7.460   2.248  1.9817 -0.2529  0.5203
 1001MOL0     H35093   1.898   7.748   2.342 -4.9265 -1.1248 -0.1187
 1001MOL0     H35094   1.823   7.654   2.223 -0.4006 -2.8965  2.3632
 1001MOL0     H35095   1.806   7.851   2.081  0.8663  0.1869  0.3864
 1001MOL0     H35096   1.734   7.832   1.850 -0.3360 -1.0524 -1.4053
 1001MOL0     H35097   1.829   7.660   1.359  1.2571  1.2478 -0.7242
 1001MOL0     H35098   1.752   7.725   1.141 -0.7853 -0.0300 -0.1223
 1001MOL0     H35099   1.739   7.916   0.964  1.0415 -3.1714 -2.6275
 1001MOL0     H35100   1.639   7.770   0.967  3.4760  0.0936 -0.6206
 1001MOL0     H35101   1.544   8.053   0.873 -3.0460  0.6695 -0.0838
 1001MOL0     H35102   1.605   7.928   0.761  0.1025  1.4547 -0.1297
 1001MOL0     H35103   1.418   7.783   0.855  0.2432  0.1180 -1.5442
 1001MOL0     H35104   1.371   7.913   0.972 -0.6949  0.8578  0.6030
 1001MOL0     H35105   1.347   7.938   0.666 -3.3607  2.3252 -0.6777
 1001MOL0     H35106   1.301   8.048   0.789 -2.0686  0.2953 -3.2480
 1001MOL0     H35107   1.119   7.897   0.862  1.6878  0.7542  0.9446
 1001MOL0     H35108   1.197   7.757   0.790  0.6784  0.0257 -1.7047
 1001MOL0     H35109   1.070   7.987   0.659  0.4691 -0.4506  1.0871
 1001MOL0     H35110   1.155   7.894   0.559  0.0773 -0.7065  0.0342
 1001MOL0     H35111   0.915   7.831   0.571  0.5488 -0.7167 -1.7485
 1001MOL0     H35112   0.944   7.773   0.742  1.3470  3.1244  0.9211
 1001MOL0     H35113   1.051   7.589   0.677  0.6429  0.0672  1.0252
 1001MOL0     H35114   0.935   7.590   0.549  1.3753  0.3115 -3.1390
 1001MOL0     H35115   1.503   8.028   1.292  2.9431  3.3565 -0.4432
 1001MOL0     H35116   1.589   7.988   1.536 -0.3138 -3.0106  1.3407
 1001MOL0     H35117   2.092   7.604   1.766  2.6332  2.3668 -0.2826
 1001MOL0     H35118   2.155   7.610   1.987 -2.1981 -1.8168 -1.0350
 1001MOL0     H35119   0.924   7.491   3.202  0.3316 -2.9831 -0.1286
 1001MOL0     H35120   0.761   7.680   3.115  0.1004  0.2806  0.1325
 1001MOL0     H35121   0.505   7.820   2.963  1.0358 -0.2886  0.3440
 1001MOL0     H35122   0.324   7.961   2.920  0.5521 -1.7830  0.0424
 1001MOL0     H35123   0.368   8.310   3.020 -0.2477 -0.7581 -0.2074
 1001MOL0     H35124   0.207   8.249   3.014  1.6071 -0.7654  2.3805
 1001MOL0     H35125   0.334   8.453   2.840  0.7343 -0.7320  1.7760
 1001MOL0     H35126   0.234   8.485   2.983  0.9598 -1.1326  1.7193
 1001MOL0     H35127   0.030   8.429   2.858  0.3586  1.2450  0.6908
 1001MOL0     H35128   0.111   8.317   2.761  1.1461 -0.1074  1.2164
 1001MOL0     H35129   0.116   8.620   2.754 -0.4003  0.5835 -0.6619
 1001MOL0     H35130   0.226   8.546   2.645 -0.7953 -2.5043 -1.3309
 1001MOL0     H35131  -0.120   8.478   2.435 -1.4703 -0.1061  1.3099
 1001MOL0     H35132   0.597   8.287   2.818  2.7402 -0.3313 -3.3238
 1001MOL0     H35133   0.852   8.109   2.719 -3.7501 -1.6190 -0.8797
 1001MOL0     H35134   0.824   8.263   2.780  2.1496 -1.2648 -2.7395
 1001MOL0     H35135   0.891   8.160   2.896  1.4093 -1.8903 -1.3990
 1002MOL0     O35136   4.722  11.094   7.140  0.7005  0.3481 -0.5917
 1002MOL0     C35137   4.841  11.120   7.175 -0.4013 -0.4548 -0.8832
 1002MOL0     O35138   4.921  11.214   7.117 -0.4224 -1.0159  0.0519
 1002MOL0     C35139   4.876  11.289   7.007  0.4752  0.4624  0.7698
 1002MOL0     C35140   4.826  11.221   6.893 -0.5898 -0.1304  1.2449
 1002MOL0     C35141   4.797  11.295   6.777  1.1418 -0.5604  0.0306
 1002MOL0     C35142   4.825  11.438   6.767 -0.5469  0.8302 -0.5090
 1002MOL0     O35143   4.796  11.494   6.645  0.0078  1.1239 -0.4166
 1002MOL0     C35144   4.884  11.590   6.601 -0.0994 -0.1119 -0.2393
 1002MOL0     C35145   4.849  11.639   6.463  0.2241 -0.8428 -0.3086
 1002MOL0     C35146   4.713  11.711   6.484  0.1536 -0.5309 -0.5219
 1002MOL0     C35147   4.741  11.861   6.537 -0.2994  0.2467  0.0544
 1002MOL0     C35148   4.617  11.939   6.536 -0.4864  0.1406 -0.1380
 1002MOL0     C35149   4.582  11.990   6.399  0.1153 -0.9615  1.1144
 1002MOL0     C35150   4.466  12.097   6.402 -0.6903  0.0442 -0.5533
 1002MOL0     C35151   4.449  12.165   6.274 -0.1466 -0.4130 -0.0795
 1002MOL0     N35152   4.538  12.287   6.262  0.6655  1.2443 -0.1836
 1002MOL0     C35153   4.535  12.396   6.345 -0.1699  0.3805  0.3351
 1002MOL0     C35154   4.651  12.464   6.325 -0.2634 -0.0652 -0.6060
 1002MOL0     C35155   4.703  12.584   6.412 -0.3741 -0.1394 -0.1811
 1002MOL0     C35156   4.665  12.569   6.560  0.1792  0.3891  0.4261
 1002MOL0     C35157   4.763  12.474   6.623  0.4226  0.2587  0.1257
 1002MOL0     C35158   4.892  12.523   6.660 -0.0913  0.5615 -0.5384
 1002MOL0     O35159   4.893  12.639   6.745  0.5277  0.8495  0.7326
 1002MOL0     C35160   5.008  12.694   6.788 -1.2838 -0.3606 -0.9335
 1002MOL0     C35161   4.995  12.819   6.846  0.3624  1.2142  0.2917
 1002MOL0     C35162   5.107  12.889   6.895  0.2282 -0.3665  0.2743
 1002MOL0     C35163   5.233  12.827   6.887  0.0057  0.4517  0.2562
 1002MOL0     C35164   5.349  12.887   6.965  0.0277  0.4034  1.2355
 1002MOL0     O35165   5.353  13.020   6.963 -0.2104  0.4537  0.1505
 1002MOL0     C35166   5.462  13.090   7.003 -0.0579 -0.2487  0.3136
 1002MOL0     C35167   5.439  13.215   7.051  0.7429  0.6799  0.1485
 1002MOL0     C35168   5.537  13.299   7.087  0.5938 -1.1798  0.5787
 1002MOL0     C35169   5.672  13.267   7.079 -0.0739  0.3412 -0.1273
 1002MOL0     O35170   5.778  13.349   7.117  0.0326  0.3323  0.3902
 1002MOL0     C35171   5.748  13.438   7.220  0.6093  0.7681 -0.3941
 1002MOL0     C35172   5.868  13.450   7.320  0.3832  0.0064 -0.9355
 1002MOL0     C35173   5.978  13.543   7.261  0.2900 -0.0746  0.0232
 1002MOL0     C35174   6.109  13.544   7.339 -0.2451  0.0913 -0.4381
 1002MOL0     C35175   6.194  13.653   7.271  0.2623  0.3742  0.2860
 1002MOL0     C35176   6.276  13.588   7.161 -0.2123 -0.4173  0.5270
 1002MOL0     C35177   6.343  13.690   7.068 -0.3362 -0.1255 -0.4354
 1002MOL0     C35178   6.440  13.650   6.950 -0.7762  0.2933 -0.0033
 1002MOL0    Cl35179   6.542  13.787   6.904 -0.3093  0.1045 -0.0668
 1002MOL0     C35180   5.706  13.138   7.034  1.3173 -0.0944  0.1831
 1002MOL0     C35181   5.600  13.057   6.980  0.3792 -0.7740 -0.3841
 1002MOL0     O35182   5.429  12.817   7.019 -0.0776  0.1195  0.5244
 1002MOL0     C35183   5.253  12.692   6.850  0.1611  0.0764 -0.5059
 1002MOL0     C35184   5.137  12.632   6.797 -0.1756  0.3213  0.7731
 1002MOL0     N35185   4.722  12.383   6.241 -0.1480 -0.1560 -0.0218
 1002MOL0     N35186   4.659  12.281   6.193 -0.2020 -0.0911 -0.9210
 1002MOL0     C35187   4.874  11.499   6.874  0.0904 -0.1944 -0.4021
 1002MOL0     C35188   4.904  11.421   6.988 -0.1594  0.9385 -0.4115
 1002MOL0     C35189   4.899  11.037   7.287 -0.4816  0.7071 -0.0039
 1002MOL0     C35190   4.814  10.988   7.390 -0.0962 -0.0488  0.1871
 1002MOL0     C35191   4.865  10.895   7.477 -0.7164 -0.6678  0.3837
 1002MOL0     C35192   5.002  10.849   7.473  0.3875 -0.7831 -0.1033
 1002MOL0     O35193   5.058  10.771   7.563 -0.3391  0.0201 -0.2337
 1002MOL0     C35194   4.976  10.682   7.634  0.1624 -0.9787 -0.2396
 1002MOL0     C35195   5.062  10.593   7.725 -0.1434  0.6979 -0.0972
 1002MOL0     C35196   4.977  10.472   7.765  0.7947 -0.6238  0.3831
 1002MOL0     C35197   5.049  10.353   7.845 -0.1268  0.4095  0.5588
 1002MOL0     C35198   4.947  10.252   7.896 -0.1677  0.1783 -0.6939
 1002MOL0     C35199   4.859  10.174   7.936  0.0548  0.8081  0.6506
 1002MOL0     C35200   5.089  10.912   7.388  0.4621 -0.3166  0.3927
 1002MOL0     C35201   5.038  11.006   7.291 -0.2888 -0.8001  1.0052
 1002MOL0     C35202   5.139  11.063   7.179 -0.5354 -0.0703  0.3791
 1002MOL0     H35203   4.808  11.114   6.895 -0.3643 -0.3285 -1.8389
 1002MOL0     H35204   4.759  11.252   6.685 -2.2178  1.3394  0.3407
 1002MOL0     H35205   4.892  11.678   6.665  0.3994 -0.2559 -0.1019
 1002MOL0     H35206   4.984  11.549   6.587  0.4762 -0.0554  3.0173
 1002MOL0     H35207   4.851  11.553   6.395 -2.2823 -1.0319 -0.2479
 1002MOL0     H35208   4.922  11.715   6.435 -3.4618  2.4753 -1.8398
 1002MOL0     H35209   4.635  11.660   6.540  0.8776 -0.6839  0.3690
 1002MOL0     H35210   4.683  11.712   6.379 -2.8493 -0.1040  0.2674
 1002MOL0     H35211   4.778  11.862   6.640 -0.5277  5.3940  0.3559
 1002MOL0     H35212   4.820  11.913   6.483 -1.1649  1.3435 -0.2035
 1002MOL0     H35213   4.531  11.883   6.575 -1.2261  0.2711 -1.5247
 1002MOL0     H35214   4.635  12.027   6.598  0.9544 -0.7152  0.6980
 1002MOL0     H35215   4.662  12.049   6.354 -1.2216  1.2816  1.5047
 1002MOL0     H35216   4.544  11.909   6.338 -0.9259 -0.4696  1.0939
 1002MOL0     H35217   4.478  12.172   6.481  0.4810  0.2358 -0.8885
 1002MOL0     H35218   4.375  12.037   6.416 -1.5730  1.9973  3.8151
 1002MOL0     H35219   4.479  12.086   6.204  1.3402  0.1422 -0.1014
 1002MOL0     H35220   4.345  12.192   6.252  0.2691 -1.8715 -5.3868
 1002MOL0     H35221   4.452  12.419   6.410 -3.0474  1.0528 -3.2181
 1002MOL0     H35222   4.813  12.584   6.405 -0.4194 -0.4080 -0.9083
 1002MOL0     H35223   4.660  12.680   6.380 -1.9793  0.5207  3.4256
 1002MOL0     H35224   4.676  12.659   6.621 -2.6044 -0.8129  3.0194
 1002MOL0     H35225   4.563  12.531   6.575  0.6139 -1.8942 -1.7512
 1002MOL0     H35226   4.760  12.382   6.564 -2.3213 -0.7601  1.6284
 1002MOL0     H35227   4.708  12.450   6.715 -2.1892  2.0930 -0.8389
 1002MOL0     H35228   4.943  12.535   6.563 -1.1125  1.2322 -1.0054
 1002MOL0     H35229   4.945  12.440   6.709  1.6552  1.0570 -1.5009
 1002MOL0     H35230   4.900  12.868   6.865  1.4490  5.1988 -3.1420
 1002MOL0     H35231   5.110  12.982   6.951 -2.0333  0.0198 -0.1555
 1002MOL0     H35232   5.334  13.239   7.066  0.3207 -1.3997  0.8908
 1002MOL0     H35233   5.500  13.396   7.121 -1.3578 -1.0876 -1.5746
 1002MOL0     H35234   5.732  13.541   7.185  2.8369  1.0637 -0.6465
 1002MOL0     H35235   5.665  13.408   7.285  2.5498  0.9244  2.2891
 1002MOL0     H35236   5.829  13.480   7.417  2.1443 -0.2264 -0.1170
 1002MOL0     H35237   5.912  13.350   7.329 -0.6936 -0.8841 -4.2242
 1002MOL0     H35238   5.998  13.517   7.156  1.5557  0.2844  0.1591
 1002MOL0     H35239   5.936  13.643   7.254  2.9850  1.5325  3.7950
 1002MOL0     H35240   6.156  13.446   7.333 -1.9695 -1.1848  3.5891
 1002MOL0     H35241   6.091  13.565   7.444  1.8935  1.0215 -0.1893
 1002MOL0     H35242   6.262  13.698   7.343  0.4531 -1.7176  1.4838
 1002MOL0     H35243   6.134  13.730   7.220 -3.0694 -1.4478  1.1172
 1002MOL0     H35244   6.353  13.530   7.212 -0.0386  2.1007  3.4423
 1002MOL0     H35245   6.210  13.519   7.108 -0.5149  1.3836 -1.6318
 1002MOL0     H35246   6.406  13.745   7.137 -1.8328 -1.6333  2.3214
 1002MOL0     H35247   6.262  13.751   7.025 -1.3110 -0.7649  0.4409
 1002MOL0     H35248   6.510  13.574   6.984  0.2376  2.1072  2.2943
 1002MOL0     H35249   6.377  13.619   6.867 -0.3093 -0.9996  0.1162
 1002MOL0     H35250   5.810  13.106   7.022  0.3603 -2.6421 -2.7648
 1002MOL0     H35251   5.630  12.972   6.920  4.8052  1.4382 -1.6921
 1002MOL0     H35252   5.348  12.641   6.851  0.9882  1.5186 -1.6161
 1002MOL0     H35253   5.131  12.540   6.741  2.0343  0.8472 -0.4561
 1002MOL0     H35254   4.903  11.603   6.867 -1.5133  0.3433  0.4045
 1002MOL0     H35255   4.958  11.469   7.070  2.1539  2.1648 -2.5018
 1002MOL0     H35256   4.708  11.011   7.398 -0.1986 -0.1160 -0.8490
 1002MOL0     H35257   4.806  10.858   7.560  1.8307 -4.1820  0.8623
 1002MOL0     H35258   4.923  10.625   7.557  0.4007  0.1183 -1.2491
 1002MOL0     H35259   4.905  10.738   7.695 -0.3505 -3.7798  1.9099
 1002MOL0     H35260   5.103  10.649   7.809 -1.1615 -1.0444  1.6726
 1002MOL0     H35261   5.134  10.547   7.657  0.6184 -0.3955  1.3834
 1002MOL0     H35262   4.933  10.430   7.674  0.3932 -2.2971  1.3127
 1002MOL0     H35263   4.907  10.518   7.834  1.5232  2.2718 -0.6617
 1002MOL0     H35264   5.119  10.301   7.779 -0.3254 -1.0402  1.4557
 1002MOL0     H35265   5.105  10.378   7.936  2.8769 -2.1585 -0.4116
 1002MOL0     H35266   4.774  10.114   7.960  1.0502 -0.2709  1.5443
 1002MOL0     H35267   5.194  10.887   7.399  0.0935 -1.0784  2.9939
 1002MOL0     H35268   5.105  11.046   7.077  3.8386  0.6538 -1.3942
 1002MOL0     H35269   5.163  11.169   7.192  2.1924 -0.2311 -2.2544
 1002MOL0     H35270   5.235  11.013   7.194  0.5467  1.3182 -1.4822
 1003MOL0     O35271   7.835   3.539  11.293 -0.4000  1.1235 -0.9990
 1003MOL0     C35272   7.940   3.545  11.224  0.4435 -1.2098  0.5191
 1003MOL0     O35273   7.954   3.491  11.100 -0.2060  0.1920 -0.2624
 1003MOL0     C35274   7.855   3.421  11.054 -0.4742  0.1771  0.6503
 1003MOL0     C35275   7.794   3.458  10.932 -0.5590  0.5424  0.1192
 1003MOL0     C35276   7.692   3.378  10.875 -0.0773 -0.7811  0.8141
 1003MOL0     C35277   7.651   3.251  10.926  0.4679 -0.3376 -0.6092
 1003MOL0     O35278   7.550   3.184  10.859 -0.3276 -0.2840 -0.4688
 1003MOL0     C35279   7.433   3.244  10.818  0.4735 -0.3362 -0.3028
 1003MOL0     C35280   7.331   3.149  10.869  0.9300 -0.7068  0.7386
 1003MOL0     C35281   7.189   3.210  10.857  0.5633  0.6823  0.2286
 1003MOL0     C35282   7.104   3.135  10.750 -0.1177 -1.0980  0.2406
 1003MOL0     C35283   7.152   3.157  10.609 -0.5952  0.3839 -0.0282
 1003MOL0     C35284   7.034   3.123  10.519 -0.2716  0.0999  0.0615
 1003MOL0     C35285   6.913   3.225  10.501  0.1210  0.6562 -0.2268
 1003MOL0     C35286   6.939   3.357  10.423 -0.8855  0.5570  0.0814
 1003MOL0     N35287   6.958   3.336  10.281 -0.4413  0.2670 -0.0094
 1003MOL0     C35288   6.960   3.434  10.195  0.4582 -0.5700  0.0082
 1003MOL0     C35289   6.964   3.380  10.072  0.4507 -0.6161 -0.2563
 1003MOL0     C35290   6.977   3.455   9.940 -0.7614  0.0575 -0.1274
 1003MOL0     C35291   7.014   3.613   9.950  0.6334  0.9172 -0.0807
 1003MOL0     C35292   6.887   3.693   9.945 -0.1611  0.0468  0.1509
 1003MOL0     C35293   6.922   3.844   9.931 -0.0467  0.1165  0.3509
 1003MOL0     O35294   6.985   3.859   9.804  0.5062 -0.7222  0.7218
 1003MOL0     C35295   7.005   3.985   9.761 -0.0572 -0.5741 -0.9162
 1003MOL0     C35296   7.015   4.092   9.858 -0.1851 -0.1311  0.1233
 1003MOL0     C35297   7.043   4.223   9.807 -0.4330 -0.4956  0.6313
 1003MOL0     C35298   7.061   4.256   9.679 -0.5419  0.1885  0.2628
 1003MOL0     C35299   7.077   4.390   9.626  0.2470 -0.3466 -0.3258
 1003MOL0     O35300   7.090   4.415   9.495 -0.8137 -0.2959 -0.7549
 1003MOL0     C35301   7.140   4.538   9.463 -0.8304 -0.5688 -0.2370
 1003MOL0     C35302   7.051   4.643   9.427  0.3931 -0.2877  0.1883
 1003MOL0     C35303   7.109   4.756   9.369 -0.1978  0.2967 -0.2328
 1003MOL0     C35304   7.251   4.772   9.352 -0.2769 -0.2941  0.1203
 1003MOL0     O35305   7.326   4.885   9.331  0.8594 -0.3205  0.2119
 1003MOL0     C35306   7.253   5.004   9.302 -0.8106 -0.1061  1.4582
 1003MOL0     C35307   7.342   5.132   9.313 -0.5706 -0.7577  0.3046
 1003MOL0     C35308   7.255   5.259   9.342  0.1347  0.0919  1.0515
 1003MOL0     C35309   7.186   5.298   9.215 -0.8931 -0.4135  0.8254
 1003MOL0     C35310   7.045   5.315   9.223  0.4492  0.4476 -0.1963
 1003MOL0     C35311   6.995   5.420   9.323 -0.6810  0.2560 -0.2646
 1003MOL0     C35312   6.855   5.453   9.298  0.5299 -0.0149 -0.0595
 1003MOL0     C35313   6.809   5.552   9.401 -0.9096  0.0885  0.6597
 1003MOL0    Cl35314   6.651   5.617   9.358  0.2951 -0.2660 -0.1731
 1003MOL0     C35315   7.332   4.665   9.393 -0.9386 -0.5778  0.9764
 1003MOL0     C35316   7.280   4.551   9.446  1.0297 -0.2087  0.0595
 1003MOL0     O35317   7.077   4.482   9.710 -0.1031  0.1045 -0.0638
 1003MOL0     C35318   7.060   4.141   9.586 -0.0611  0.3060  0.0199
 1003MOL0     C35319   7.035   4.011   9.627 -0.3772 -0.2268 -0.3093
 1003MOL0     N35320   6.982   3.242  10.095 -0.4275 -0.6388 -0.1247
 1003MOL0     N35321   6.966   3.212  10.213 -0.3161 -0.6426 -1.1989
 1003MOL0     C35322   7.711   3.217  11.053  0.2234  0.6678 -0.4542
 1003MOL0     C35323   7.804   3.301  11.114 -0.7069 -1.3855 -0.1512
 1003MOL0     C35324   8.060   3.612  11.290  0.5177 -0.7826 -1.0523
 1003MOL0     C35325   8.186   3.556  11.266 -0.3305 -0.2773  0.0508
 1003MOL0     C35326   8.296   3.572  11.351 -0.5612  0.8155 -1.1153
 1003MOL0     C35327   8.297   3.680  11.443 -0.1011 -0.4696  0.8683
 1003MOL0     O35328   8.399   3.720  11.516  0.3108 -0.5554  0.2511
 1003MOL0     C35329   8.524   3.654  11.493  0.1342 -0.3638  0.9439
 1003MOL0     C35330   8.647   3.734  11.530  0.3440  0.6032  0.5711
 1003MOL0     C35331   8.637   3.801  11.663 -0.0967 -0.0761 -0.4454
 1003MOL0     C35332   8.773   3.848  11.719 -0.2741  1.1766 -0.7248
 1003MOL0     C35333   8.868   3.735  11.709 -0.9315  0.2635  1.4530
 1003MOL0     C35334   8.934   3.634  11.715  0.0678  0.7424  0.3465
 1003MOL0     C35335   8.175   3.755  11.447  0.4049 -0.3793  0.5347
 1003MOL0     C35336   8.051   3.716  11.387 -0.0487  0.4876 -0.4913
 1003MOL0     C35337   7.928   3.791  11.407 -0.0615  0.6502 -1.4731
 1003MOL0     H35338   7.846   3.545  10.891 -0.6119  0.3029 -0.4736
 1003MOL0     H35339   7.651   3.417  10.782  0.3026  0.5546  1.1835
 1003MOL0     H35340   7.429   3.342  10.866  0.4624 -1.7911  2.8729
 1003MOL0     H35341   7.436   3.251  10.708 -2.2426 -0.9697 -0.5060
 1003MOL0     H35342   7.333   3.133  10.977  0.1663  1.7634  1.1887
 1003MOL0     H35343   7.338   3.055  10.814 -0.1013  0.2457 -1.1325
 1003MOL0     H35344   7.182   3.316  10.832 -0.9975  1.1442  2.3401
 1003MOL0     H35345   7.127   3.195  10.946  0.2193 -1.4948 -0.3125
 1003MOL0     H35346   7.103   3.027  10.772 -0.5778 -1.2288 -0.4293
 1003MOL0     H35347   7.004   3.176  10.762  0.0925  0.7023 -3.2278
 1003MOL0     H35348   7.186   3.259  10.585  0.1441 -0.1022 -1.1230
 1003MOL0     H35349   7.226   3.081  10.585 -0.3364  0.7369 -0.3698
 1003MOL0     H35350   7.067   3.088  10.420 -0.8494 -2.4112  0.7025
 1003MOL0     H35351   6.996   3.032  10.566  0.8974  0.4331  1.7349
 1003MOL0     H35352   6.878   3.245  10.603  3.3685 -0.8168  1.3089
 1003MOL0     H35353   6.826   3.185  10.448  0.3278  4.4731 -4.0631
 1003MOL0     H35354   6.853   3.422  10.439  0.2387  1.9834  0.5721
 1003MOL0     H35355   7.028   3.396  10.473 -0.4576 -1.6348  1.1669
 1003MOL0     H35356   6.948   3.532  10.239  0.4239 -0.5705  0.0001
 1003MOL0     H35357   7.056   3.402   9.886  0.8121  0.3994  1.7644
 1003MOL0     H35358   6.890   3.449   9.873 -0.5973 -1.5071 -0.2521
 1003MOL0     H35359   7.074   3.645  10.035  2.5327  0.6267 -1.2411
 1003MOL0     H35360   7.089   3.629   9.871  3.3912 -0.1286  2.1407
 1003MOL0     H35361   6.825   3.671  10.032 -0.7739  1.7993  0.1986
 1003MOL0     H35362   6.825   3.673   9.857  0.5142 -0.3353 -0.2522
 1003MOL0     H35363   6.985   3.865  10.018 -0.9774  0.9364  0.8379
 1003MOL0     H35364   6.826   3.896   9.930 -0.6399 -0.6577 -4.0734
 1003MOL0     H35365   7.007   4.077   9.965  1.5724  0.9303  0.4448
 1003MOL0     H35366   7.066   4.295   9.885 -2.1097  2.2390 -1.2080
 1003MOL0     H35367   6.944   4.650   9.437  0.5147  2.7691  0.1760
 1003MOL0     H35368   7.053   4.842   9.335  0.9827  1.5496  0.8566
 1003MOL0     H35369   7.230   4.998   9.196 -0.1261  1.6887  1.1784
 1003MOL0     H35370   7.168   5.006   9.371 -0.6634 -3.2822  1.8681
 1003MOL0     H35371   7.407   5.123   9.401 -2.0049  0.5149  1.5672
 1003MOL0     H35372   7.398   5.145   9.221 -2.7829  0.2063 -0.9884
 1003MOL0     H35373   7.184   5.220   9.416  0.2325 -1.7272  0.2361
 1003MOL0     H35374   7.313   5.341   9.385 -3.3321  1.9697  2.5591
 1003MOL0     H35375   7.209   5.224   9.137  0.9047 -1.5759  2.3728
 1003MOL0     H35376   7.228   5.386   9.164 -0.9030 -0.6920  0.3239
 1003MOL0     H35377   7.008   5.215   9.249 -2.8758  0.5184 -3.7168
 1003MOL0     H35378   7.007   5.343   9.124  2.4121  1.0481 -0.8262
 1003MOL0     H35379   7.021   5.389   9.424 -0.7298  1.3032  0.0875
 1003MOL0     H35380   7.052   5.512   9.306 -1.0477 -0.1053 -4.4668
 1003MOL0     H35381   6.785   5.369   9.305  1.2670 -0.6571 -0.1614
 1003MOL0     H35382   6.836   5.478   9.193  3.2202  0.5593 -0.4749
 1003MOL0     H35383   6.793   5.500   9.496 -1.9006 -0.5278  0.1761
 1003MOL0     H35384   6.885   5.630   9.412  0.0069 -1.0163  2.6736
 1003MOL0     H35385   7.439   4.680   9.400 -0.8942  1.5347 -2.3579
 1003MOL0     H35386   7.341   4.472   9.487  0.7429 -3.3666 -4.8343
 1003MOL0     H35387   7.094   4.155   9.484 -2.1886 -0.7536 -0.8728
 1003MOL0     H35388   7.032   3.935   9.550 -0.0405 -2.3509  1.6658
 1003MOL0     H35389   7.665   3.132  11.104 -0.6372  2.0572  1.1975
 1003MOL0     H35390   7.844   3.267  11.209 -1.1588 -2.5902 -0.3819
 1003MOL0     H35391   8.202   3.489  11.183  0.4982  2.3576 -2.0539
 1003MOL0     H35392   8.380   3.506  11.332 -2.8225 -2.0366 -1.9551
 1003MOL0     H35393   8.532   3.633  11.386  0.4403 -1.9269  1.2548
 1003MOL0     H35394   8.528   3.557  11.543  4.4763 -0.8999 -0.0144
 1003MOL0     H35395   8.659   3.812  11.454  0.6648  0.2552  0.2571
 1003MOL0     H35396   8.732   3.666  11.516  1.0058  1.7416 -1.3604
 1003MOL0     H35397   8.598   3.728  11.735  0.7474  0.6756  0.8068
 1003MOL0     H35398   8.570   3.887  11.656  0.2275  0.3890  1.5831
 1003MOL0     H35399   8.814   3.928  11.657  3.3432 -0.1351 -0.2470
 1003MOL0     H35400   8.759   3.891  11.819 -4.8071 -1.2337 -0.0810
 1003MOL0     H35401   8.985   3.541  11.698 -2.1438 -0.1128 -2.4069
 1003MOL0     H35402   8.168   3.837  11.519  0.3282  1.6914 -1.7076
 1003MOL0     H35403   7.961   3.894  11.425  2.7242 -0.3188 -0.4287
 1003MOL0     H35404   7.865   3.783  11.318 -1.7193 -2.8511 -0.1929
 1003MOL0     H35405   7.860   3.753  11.484  0.7127  0.7374 -0.7308
 1004MOL0     O35406   4.138   5.848   2.715  0.0948  0.1413 -0.2169
 1004MOL0     C35407   4.023   5.860   2.682  0.2302 -0.2530  0.3974
 1004MOL0     O35408   3.947   5.970   2.713  0.2389  0.5605 -0.4035
 1004MOL0     C35409   3.993   6.096   2.757 -0.2861 -0.0387  0.6551
 1004MOL0     C35410   3.895   6.185   2.794  0.5207  0.7017 -0.6173
 1004MOL0     C35411   3.926   6.314   2.834 -0.7632 -0.0944 -0.3245
 1004MOL0     C35412   4.059   6.359   2.830  0.6887  0.1312 -0.7137
 1004MOL0     O35413   4.090   6.492   2.867 -0.2129  0.3330 -0.2908
 1004MOL0     C35414   4.195   6.567   2.804 -0.7880  0.6273 -0.6306
 1004MOL0     C35415   4.184   6.719   2.819 -0.3677 -0.0432 -0.7843
 1004MOL0     C35416   4.279   6.781   2.718  0.7215 -0.8822 -0.0404
 1004MOL0     C35417   4.259   6.937   2.743  0.2990  0.3046  0.6917
 1004MOL0     C35418   4.288   7.003   2.601  0.8944  0.2024 -0.4456
 1004MOL0     C35419   4.327   7.155   2.611  0.2123  0.3366  0.1568
 1004MOL0     C35420   4.446   7.184   2.692 -0.2990  0.2281  0.2362
 1004MOL0     C35421   4.495   7.322   2.662 -0.9062 -0.4445 -0.6917
 1004MOL0     N35422   4.556   7.405   2.772 -0.2313 -0.1567 -0.4850
 1004MOL0     C35423   4.480   7.475   2.872 -0.3343  0.4872  0.0095
 1004MOL0     C35424   4.553   7.582   2.919 -0.5575 -0.3020 -0.0271
 1004MOL0     C35425   4.531   7.676   3.037 -0.0175  0.1413 -1.5638
 1004MOL0     C35426   4.612   7.802   3.025  1.8472  0.3110 -1.0396
 1004MOL0     C35427   4.572   7.904   3.131  0.0622  0.7874 -0.3066
 1004MOL0     C35428   4.680   8.014   3.141  0.4356 -0.0856  0.4723
 1004MOL0     O35429   4.809   7.951   3.163  0.1666 -0.1661  0.1573
 1004MOL0     C35430   4.915   8.034   3.184 -0.4185 -0.6371 -0.2341
 1004MOL0     C35431   4.908   8.177   3.159 -0.7043 -0.1294 -0.1895
 1004MOL0     C35432   5.022   8.261   3.166  0.0215  0.2332 -0.1389
 1004MOL0     C35433   5.149   8.200   3.173  0.2564  0.5854  0.1522
 1004MOL0     C35434   5.269   8.282   3.182  0.9104  0.9098  0.1179
 1004MOL0     O35435   5.244   8.421   3.186 -0.0202 -0.2963  0.7352
 1004MOL0     C35436   5.352   8.501   3.205 -0.6348 -1.4112  0.1993
 1004MOL0     C35437   5.443   8.532   3.099 -0.3818  0.7513  0.1142
 1004MOL0     C35438   5.559   8.620   3.110  0.8464  0.0508 -0.6875
 1004MOL0     C35439   5.575   8.669   3.241  0.4682 -0.2007 -0.9808
 1004MOL0     O35440   5.681   8.759   3.258  0.2473  0.7698 -0.6021
 1004MOL0     C35441   5.662   8.883   3.339 -0.2830  0.4771 -0.2784
 1004MOL0     C35442   5.747   8.999   3.297  1.0215 -0.7064 -0.5410
 1004MOL0     C35443   5.899   8.988   3.277 -0.9887  0.3873 -0.0327
 1004MOL0     C35444   5.989   8.975   3.403  0.3324  0.2592  0.3406
 1004MOL0     C35445   6.141   8.960   3.373 -0.5586  1.2311  0.9419
 1004MOL0     C35446   6.225   8.979   3.494  0.6852 -0.1640 -1.0041
 1004MOL0     C35447   6.379   8.973   3.472 -0.0340 -0.6285  0.5290
 1004MOL0     C35448   6.428   9.100   3.399  0.9407 -0.1046 -0.2298
 1004MOL0    Cl35449   6.438   9.233   3.517  0.1888 -0.1909  0.6768
 1004MOL0     C35450   5.478   8.644   3.348  0.7809  0.1722 -0.2979
 1004MOL0     C35451   5.368   8.564   3.325 -0.6737  0.1164  0.8978
 1004MOL0     O35452   5.377   8.224   3.187 -0.3658 -0.1705 -0.0151
 1004MOL0     C35453   5.161   8.054   3.191  0.2966 -0.9206 -0.2861
 1004MOL0     C35454   5.041   7.980   3.189 -0.9734  0.2948 -0.1135
 1004MOL0     N35455   4.671   7.568   2.855 -0.5000  0.8292 -0.3020
 1004MOL0     N35456   4.671   7.469   2.771 -0.4862  0.3928  0.0056
 1004MOL0     C35457   4.160   6.269   2.790 -1.1469  0.6612 -0.7487
 1004MOL0     C35458   4.127   6.141   2.744  0.7225 -0.3033 -0.8418
 1004MOL0     C35459   3.962   5.737   2.614  0.3221  0.0071  0.0424
 1004MOL0     C35460   4.049   5.659   2.537 -0.0000 -1.0466 -0.1640
 1004MOL0     C35461   3.991   5.567   2.460 -0.1558  0.3907  0.0981
 1004MOL0     C35462   3.853   5.542   2.457 -0.0952  0.0578 -1.4021
 1004MOL0     O35463   3.783   5.450   2.387  0.2417 -0.1449  0.0361
 1004MOL0     C35464   3.858   5.356   2.311 -0.3917  0.2829  0.1113
 1004MOL0     C35465   3.737   5.282   2.255  0.2727  0.0474 -0.2162
 1004MOL0     C35466   3.767   5.201   2.123  0.0030 -0.4202  0.0879
 1004MOL0     C35467   3.663   5.110   2.071 -0.4689  0.0919 -0.1117
 1004MOL0     C35468   3.550   5.186   2.025 -0.6069 -0.3083  0.1639
 1004MOL0     C35469   3.445   5.232   1.988 -0.1961  0.4942  0.3185
 1004MOL0     C35470   3.768   5.615   2.542  0.7375 -0.2626  0.7477
 1004MOL0     C35471   3.817   5.728   2.615  0.1083 -0.1666  0.3443
 1004MOL0     C35472   3.714   5.799   2.697 -0.7255 -0.4707  0.2650
 1004MOL0     H35473   3.792   6.154   2.809  0.4501  1.0963 -0.2486
 1004MOL0     H35474   3.851   6.379   2.879 -0.4158 -1.0857  1.8210
 1004MOL0     H35475   4.293   6.535   2.838 -1.1991 -0.0320 -0.0414
 1004MOL0     H35476   4.200   6.536   2.699  1.2313 -0.8933 -0.1404
 1004MOL0     H35477   4.220   6.745   2.919  0.4995 -2.5108 -0.3824
 1004MOL0     H35478   4.083   6.754   2.794 -0.4062 -1.9136 -3.6132
 1004MOL0     H35479   4.232   6.744   2.627 -1.0631 -1.4454  1.0554
 1004MOL0     H35480   4.385   6.755   2.722  1.0244 -0.8521 -3.9254
 1004MOL0     H35481   4.157   6.965   2.772  0.5525  1.9432  0.1346
 1004MOL0     H35482   4.332   6.968   2.818  0.6039  2.0287 -0.2549
 1004MOL0     H35483   4.364   6.950   2.543  1.5268  0.7061 -0.0920
 1004MOL0     H35484   4.196   6.998   2.541  0.0875  2.0673  0.5554
 1004MOL0     H35485   4.344   7.195   2.511 -0.6180 -0.4854 -0.3228
 1004MOL0     H35486   4.238   7.199   2.656  0.1490  1.4664 -1.0199
 1004MOL0     H35487   4.531   7.127   2.655  0.3764  1.7702 -0.6700
 1004MOL0     H35488   4.424   7.182   2.799 -0.1533 -2.9870  0.3004
 1004MOL0     H35489   4.566   7.305   2.581  0.5199 -0.0050  0.4417
 1004MOL0     H35490   4.407   7.380   2.631  0.5869  2.2498 -0.1198
 1004MOL0     H35491   4.390   7.425   2.904  2.2782 -3.1765  2.4874
 1004MOL0     H35492   4.423   7.693   3.044 -0.0060 -0.1681 -0.3794
 1004MOL0     H35493   4.561   7.616   3.123 -0.5518 -1.0723 -2.1999
 1004MOL0     H35494   4.716   7.782   3.053  1.7624  2.5624  1.2861
 1004MOL0     H35495   4.609   7.848   2.926 -0.3367  1.4989 -0.4888
 1004MOL0     H35496   4.566   7.858   3.231  1.4855  1.3265  0.0534
 1004MOL0     H35497   4.474   7.941   3.100  0.8821  1.8444 -1.7173
 1004MOL0     H35498   4.635   8.073   3.221 -1.1168 -1.9697  1.0352
 1004MOL0     H35499   4.685   8.066   3.044  1.5781  0.3225  0.7300
 1004MOL0     H35500   4.812   8.227   3.147 -1.5582 -1.3804  1.1099
 1004MOL0     H35501   5.019   8.369   3.158  0.0165  0.2145 -0.4094
 1004MOL0     H35502   5.415   8.481   3.007  0.2245 -0.9149  0.8140
 1004MOL0     H35503   5.627   8.639   3.028 -0.8211 -1.0675 -2.4321
 1004MOL0     H35504   5.555   8.905   3.341 -0.0045  1.8553  0.4248
 1004MOL0     H35505   5.683   8.873   3.446  0.4275  0.0010 -0.4525
 1004MOL0     H35506   5.716   9.045   3.203 -0.5068  0.1220  0.3363
 1004MOL0     H35507   5.726   9.077   3.371  3.1799  1.2015 -1.8128
 1004MOL0     H35508   5.912   8.895   3.221 -1.2654  0.3402 -0.0163
 1004MOL0     H35509   5.935   9.072   3.216 -1.0620 -0.4459 -1.2568
 1004MOL0     H35510   5.951   8.889   3.459  0.7038 -2.5639 -3.3202
 1004MOL0     H35511   5.979   9.061   3.469  0.2678 -0.1893  0.9218
 1004MOL0     H35512   6.171   9.021   3.287 -2.1512 -2.2602 -2.4006
 1004MOL0     H35513   6.153   8.860   3.329 -0.4656  3.0205 -3.6969
 1004MOL0     H35514   6.195   9.077   3.531 -2.1006 -0.9434 -0.9912
 1004MOL0     H35515   6.202   8.903   3.570  1.1899  1.4919  0.8986
 1004MOL0     H35516   6.422   8.891   3.413  3.3531  1.8054 -0.7262
 1004MOL0     H35517   6.414   8.960   3.575  0.2795 -0.3170  0.4638
 1004MOL0     H35518   6.527   9.074   3.359  0.0328 -2.4842 -1.1003
 1004MOL0     H35519   6.357   9.132   3.323 -0.4337 -1.9931  0.1877
 1004MOL0     H35520   5.491   8.691   3.445  1.3138  0.4027 -0.4771
 1004MOL0     H35521   5.295   8.547   3.403 -1.4785  0.4414  0.2255
 1004MOL0     H35522   5.254   8.014   3.230 -0.7077 -0.1237  3.2995
 1004MOL0     H35523   5.051   7.871   3.187  0.3056  0.3789  0.5176
 1004MOL0     H35524   4.255   6.313   2.761  0.0457 -0.6332  1.0150
 1004MOL0     H35525   4.200   6.080   2.690  2.2586  1.5111 -0.9248
 1004MOL0     H35526   4.156   5.677   2.534 -0.1446 -0.2307 -2.0809
 1004MOL0     H35527   4.057   5.520   2.388  0.3954 -0.3451  1.0699
 1004MOL0     H35528   3.910   5.292   2.382 -1.2552  2.3568  2.7942
 1004MOL0     H35529   3.917   5.404   2.232  2.5838 -0.4784  1.7442
 1004MOL0     H35530   3.663   5.360   2.233  0.7554  0.5885  0.0656
 1004MOL0     H35531   3.702   5.207   2.326 -1.1659  0.5347 -0.3721
 1004MOL0     H35532   3.860   5.144   2.110 -0.7110 -1.2833 -1.5094
 1004MOL0     H35533   3.780   5.277   2.044 -0.2152  0.9517  1.3278
 1004MOL0     H35534   3.707   5.069   1.979  0.0268 -0.5535  0.4079
 1004MOL0     H35535   3.642   5.025   2.136 -1.1025 -1.1213 -1.8228
 1004MOL0     H35536   3.354   5.270   1.949  0.5005  0.6826 -1.1798
 1004MOL0     H35537   3.667   5.575   2.545  0.5858 -0.0385 -0.5157
 1004MOL0     H35538   3.702   5.904   2.669  2.5629 -0.3548 -1.1351
 1004MOL0     H35539   3.618   5.749   2.678 -0.5711 -0.3351 -0.9977
 1004MOL0     H35540   3.737   5.790   2.803  1.0514  0.8440  0.0336
 1005MOL0     O35541   6.347   8.605   2.013 -0.3385 -0.1710  0.0932
 1005MOL0     C35542   6.446   8.595   2.083  1.1124  0.4499  0.0360
 1005MOL0     O35543   6.543   8.688   2.107 -0.5391 -0.3458 -0.3351
 1005MOL0     C35544   6.522   8.814   2.054 -0.2031  0.8579  0.5829
 1005MOL0     C35545   6.538   8.823   1.919 -0.0023 -0.0564  0.5915
 1005MOL0     C35546   6.535   8.944   1.852  0.3344 -0.4297  0.0470
 1005MOL0     C35547   6.497   9.065   1.924 -0.3793  0.5723  0.2555
 1005MOL0     O35548   6.459   9.182   1.866  0.1331 -0.0914  0.6121
 1005MOL0     C35549   6.494   9.196   1.722 -0.9735  0.2133 -0.1352
 1005MOL0     C35550   6.446   9.338   1.681 -0.3008  0.5606  0.9678
 1005MOL0     C35551   6.472   9.368   1.529  0.0370 -0.5576 -0.2730
 1005MOL0     C35552   6.616   9.380   1.479  0.5188 -0.1966  0.5549
 1005MOL0     C35553   6.609   9.399   1.320 -0.0815  0.0131  0.3017
 1005MOL0     C35554   6.526   9.521   1.276 -0.9971  0.3347 -0.5889
 1005MOL0     C35555   6.580   9.653   1.335 -0.1494  0.0534  0.2915
 1005MOL0     C35556   6.501   9.759   1.273  0.1027 -0.1402  0.7331
 1005MOL0     N35557   6.350   9.746   1.267  0.9965  0.6731 -0.4969
 1005MOL0     C35558   6.262   9.711   1.371 -0.8052 -0.5528  0.0782
 1005MOL0     C35559   6.143   9.724   1.323  1.0887 -0.1102  0.4168
 1005MOL0     C35560   6.015   9.678   1.382  0.1423 -0.0425  0.1455
 1005MOL0     C35561   6.018   9.526   1.413 -0.3576  0.3942 -0.1763
 1005MOL0     C35562   5.998   9.444   1.282  0.9213  0.3145  0.0247
 1005MOL0     C35563   5.955   9.303   1.319 -0.3397  0.7844 -0.4266
 1005MOL0     O35564   5.822   9.275   1.291  1.0395 -0.0435 -0.3511
 1005MOL0     C35565   5.779   9.160   1.344  0.0802 -0.0149 -0.0872
 1005MOL0     C35566   5.645   9.151   1.381 -0.7681  0.9253 -0.0397
 1005MOL0     C35567   5.595   9.041   1.459 -0.3604 -0.4479  0.7229
 1005MOL0     C35568   5.678   8.930   1.489 -0.6227 -0.2756 -0.7623
 1005MOL0     C35569   5.627   8.825   1.584  0.1490  0.2816  0.3225
 1005MOL0     O35570   5.715   8.752   1.651 -0.1220 -0.1284 -1.2732
 1005MOL0     C35571   5.677   8.664   1.750 -0.4751 -0.1238  0.6048
 1005MOL0     C35572   5.708   8.532   1.737  0.2805  0.5047 -0.7545
 1005MOL0     C35573   5.681   8.441   1.843  0.4364 -0.3623  0.3400
 1005MOL0     C35574   5.604   8.484   1.949 -0.2950  0.2984 -0.2705
 1005MOL0     O35575   5.570   8.383   2.033 -0.4145 -0.1457 -0.4342
 1005MOL0     C35576   5.518   8.423   2.159 -0.4521  0.3991 -0.0753
 1005MOL0     C35577   5.498   8.283   2.232  0.0724  1.2663 -0.1498
 1005MOL0     C35578   5.635   8.247   2.307  0.4413  0.6569  0.8917
 1005MOL0     C35579   5.624   8.174   2.440 -0.1908 -0.2264 -0.3243
 1005MOL0     C35580   5.536   8.053   2.442  0.4636 -0.0086  1.1396
 1005MOL0     C35581   5.595   7.936   2.376 -0.8012 -0.2185 -0.4394
 1005MOL0     C35582   5.555   7.803   2.444 -0.2103 -0.2961  0.4273
 1005MOL0     C35583   5.561   7.686   2.347  0.7418  1.3552  0.7821
 1005MOL0    Cl35584   5.541   7.537   2.438 -0.0619 -0.5695 -0.2456
 1005MOL0     C35585   5.573   8.621   1.958  0.6876  0.3508  0.0343
 1005MOL0     C35586   5.609   8.708   1.863 -0.8499 -0.3712 -0.3494
 1005MOL0     O35587   5.505   8.814   1.600 -0.4438  0.0497  0.0083
 1005MOL0     C35588   5.809   8.933   1.444 -0.2106  0.7418 -0.0376
 1005MOL0     C35589   5.862   9.042   1.380  0.9417 -1.0090  0.4762
 1005MOL0     N35590   6.150   9.785   1.198 -0.6848  0.0967  0.2293
 1005MOL0     N35591   6.273   9.799   1.171 -0.2545 -1.1799 -0.7603
 1005MOL0     C35592   6.493   9.047   2.066  0.0659 -0.0750 -0.1043
 1005MOL0     C35593   6.505   8.926   2.132 -0.3224 -0.0481  0.7441
 1005MOL0     C35594   6.445   8.462   2.162  1.4256 -0.0315 -0.7507
 1005MOL0     C35595   6.351   8.369   2.123  0.4305  0.8400 -0.0907
 1005MOL0     C35596   6.367   8.242   2.178  0.7325  0.4866 -0.3955
 1005MOL0     C35597   6.456   8.202   2.277 -0.3050 -0.3442 -0.8848
 1005MOL0     O35598   6.476   8.070   2.317  0.0073  0.1923 -0.3560
 1005MOL0     C35599   6.428   7.969   2.223 -0.2209 -0.5863  1.1238
 1005MOL0     C35600   6.482   7.839   2.265  0.2750  0.3378  0.2829
 1005MOL0     C35601   6.379   7.767   2.349  0.4908  0.5027 -0.8406
 1005MOL0     C35602   6.425   7.616   2.375  0.5298 -0.0875 -0.0185
 1005MOL0     C35603   6.319   7.527   2.433  0.7305 -0.3353  0.0730
 1005MOL0     C35604   6.233   7.447   2.480 -0.1259 -0.8017  0.1910
 1005MOL0     C35605   6.529   8.305   2.327 -0.3371  0.4259 -0.0860
 1005MOL0     C35606   6.524   8.437   2.277 -0.5734 -0.1653 -0.3234
 1005MOL0     C35607   6.610   8.542   2.336 -0.3102  0.1890 -0.2887
 1005MOL0     H35608   6.547   8.729   1.866 -2.7471 -0.0327 -0.0722
 1005MOL0     H35609   6.545   8.927   1.745 -2.9731  0.1087 -0.4569
 1005MOL0     H35610   6.603   9.193   1.719 -0.9095 -2.9459  1.5440
 1005MOL0     H35611   6.453   9.120   1.655 -0.3128 -1.2184  1.0241
 1005MOL0     H35612   6.517   9.410   1.725 -0.4048  2.8482 -2.2900
 1005MOL0     H35613   6.340   9.354   1.699 -0.5588 -2.0646  2.3495
 1005MOL0     H35614   6.416   9.458   1.502  0.1184 -0.7488 -1.1127
 1005MOL0     H35615   6.432   9.284   1.472 -2.3280 -0.1339  0.6092
 1005MOL0     H35616   6.658   9.457   1.543  0.8658 -0.5484  0.7558
 1005MOL0     H35617   6.667   9.286   1.504  3.7112  0.3203 -3.0774
 1005MOL0     H35618   6.709   9.415   1.278  0.1488  0.9830  1.1748
 1005MOL0     H35619   6.569   9.312   1.268  2.0350 -2.2675  2.2591
 1005MOL0     H35620   6.544   9.533   1.168  1.7995 -0.5759 -0.3025
 1005MOL0     H35621   6.418   9.509   1.288 -0.4819 -2.9352  2.1953
 1005MOL0     H35622   6.686   9.675   1.315  0.0292 -1.5509 -0.7139
 1005MOL0     H35623   6.570   9.649   1.444  0.1712 -0.7222  0.3023
 1005MOL0     H35624   6.533   9.843   1.336  2.8072 -1.5587  1.4042
 1005MOL0     H35625   6.549   9.777   1.177  0.6715  1.3728  1.2752
 1005MOL0     H35626   6.293   9.677   1.469 -0.4683  1.5312  0.7612
 1005MOL0     H35627   5.996   9.732   1.476  1.8738  1.4506 -0.3091
 1005MOL0     H35628   5.938   9.689   1.305  1.3438  0.8611 -0.9568
 1005MOL0     H35629   6.100   9.489   1.475 -1.5361  2.4591  2.8171
 1005MOL0     H35630   5.926   9.520   1.471 -0.2931 -2.1575 -0.2230
 1005MOL0     H35631   6.100   9.436   1.244  0.5855  1.4803 -1.1846
 1005MOL0     H35632   5.925   9.485   1.212  0.2159  3.1609  2.2367
 1005MOL0     H35633   5.986   9.278   1.421  0.6516  1.4218 -0.5508
 1005MOL0     H35634   6.013   9.229   1.262 -2.1251 -0.0618 -1.2184
 1005MOL0     H35635   5.587   9.239   1.356 -1.4817  0.3810 -0.3353
 1005MOL0     H35636   5.494   9.052   1.496 -1.2635  1.4852 -2.0297
 1005MOL0     H35637   5.768   8.509   1.649 -0.0468  0.3358 -0.9322
 1005MOL0     H35638   5.696   8.335   1.822 -1.3809 -0.3253 -1.5678
 1005MOL0     H35639   5.594   8.491   2.198  3.1449 -3.4086  0.2253
 1005MOL0     H35640   5.423   8.478   2.164  0.7141  2.8077 -2.2834
 1005MOL0     H35641   5.411   8.281   2.298 -0.9441 -1.4488 -1.4176
 1005MOL0     H35642   5.490   8.198   2.164  2.9330 -1.5539  2.7559
 1005MOL0     H35643   5.698   8.184   2.244  1.1586 -0.1245  2.3616
 1005MOL0     H35644   5.688   8.342   2.303 -0.9783  1.4602  0.0177
 1005MOL0     H35645   5.578   8.246   2.508  1.1900  0.8184 -0.4490
 1005MOL0     H35646   5.721   8.155   2.485  0.7138 -2.2054 -2.8855
 1005MOL0     H35647   5.439   8.084   2.404  0.0464  1.0643  2.9697
 1005MOL0     H35648   5.517   8.020   2.544  2.1760 -4.9369  0.1321
 1005MOL0     H35649   5.563   7.949   2.273  2.4542  0.6146 -1.4833
 1005MOL0     H35650   5.704   7.946   2.377 -0.5445  0.3149 -5.9269
 1005MOL0     H35651   5.458   7.801   2.495 -0.9842 -2.3594 -1.0173
 1005MOL0     H35652   5.633   7.785   2.519 -0.3504 -2.5165  0.1005
 1005MOL0     H35653   5.480   7.709   2.277 -0.1744  0.8225  1.6274
 1005MOL0     H35654   5.648   7.673   2.283  1.5977 -3.3804  2.5535
 1005MOL0     H35655   5.519   8.660   2.044  1.8919  0.0813  0.9339
 1005MOL0     H35656   5.590   8.813   1.879 -1.6520 -0.5756  0.0496
 1005MOL0     H35657   5.863   8.839   1.452  1.4946  1.8313  2.5112
 1005MOL0     H35658   5.965   9.033   1.346  0.7567 -2.7820  0.2667
 1005MOL0     H35659   6.462   9.127   2.133 -2.2141 -0.8249 -0.1497
 1005MOL0     H35660   6.498   8.911   2.239 -3.3247 -0.3385  0.5854
 1005MOL0     H35661   6.289   8.372   2.034 -3.1748 -3.3516  1.8804
 1005MOL0     H35662   6.302   8.163   2.141  0.1618  0.1364  1.2593
 1005MOL0     H35663   6.473   7.986   2.124 -1.0129 -0.7100  0.7327
 1005MOL0     H35664   6.319   7.970   2.224 -0.2347 -1.2889  0.7353
 1005MOL0     H35665   6.576   7.836   2.319  1.2363 -2.0382 -1.3667
 1005MOL0     H35666   6.505   7.783   2.174 -0.0211  1.4915 -0.5205
 1005MOL0     H35667   6.283   7.768   2.296  0.5175  0.9114 -0.8850
 1005MOL0     H35668   6.376   7.814   2.448 -0.4293  1.6053 -1.3756
 1005MOL0     H35669   6.464   7.574   2.282  0.1933 -2.1672  0.7408
 1005MOL0     H35670   6.508   7.603   2.445  0.2646  0.8222  0.4863
 1005MOL0     H35671   6.170   7.372   2.524  3.7795 -4.7972 -0.2926
 1005MOL0     H35672   6.591   8.293   2.415 -2.6843  1.4083  1.8393
 1005MOL0     H35673   6.548   8.627   2.366 -2.4261 -1.2227 -0.4919
 1005MOL0     H35674   6.676   8.510   2.417  0.7241  1.8916 -0.4106
 1005MOL0     H35675   6.685   8.589   2.272 -3.2064  0.1760 -3.9984
 1006MOL0     O35676   2.756   9.927   6.526 -0.1957 -0.2909  0.0045
 1006MOL0     C35677   2.686   9.881   6.615  1.3334  0.5290  0.0655
 1006MOL0     O35678   2.689   9.938   6.745 -0.1020  0.2409 -0.1236
 1006MOL0     C35679   2.669  10.071   6.745  0.7086 -0.0740 -0.3571
 1006MOL0     C35680   2.768  10.165   6.782 -0.0489 -1.1086 -0.0053
 1006MOL0     C35681   2.728  10.299   6.792  0.2350 -0.0177  0.1707
 1006MOL0     C35682   2.597  10.337   6.757 -1.1591 -1.2788 -0.8071
 1006MOL0     O35683   2.555  10.472   6.742 -0.0570 -0.0992  0.0784
 1006MOL0     C35684   2.628  10.581   6.811 -0.2077 -1.0432  0.1141
 1006MOL0     C35685   2.580  10.717   6.760  0.1820  0.3775  0.2773
 1006MOL0     C35686   2.664  10.832   6.812 -0.3325 -0.4747  0.0306
 1006MOL0     C35687   2.617  10.959   6.761  0.7573 -0.0656 -0.2601
 1006MOL0     C35688   2.662  10.995   6.615 -0.0509  0.3222  0.0134
 1006MOL0     C35689   2.815  11.022   6.593 -0.3345  0.0025  0.0271
 1006MOL0     C35690   2.843  11.116   6.471 -0.0650 -0.6097  0.0995
 1006MOL0     C35691   2.873  11.039   6.349  0.2321 -0.4960  0.5951
 1006MOL0     N35692   2.916  11.120   6.233  0.1396 -0.1765 -0.4817
 1006MOL0     C35693   3.014  11.218   6.215  0.6132 -0.3790  0.9460
 1006MOL0     C35694   2.989  11.273   6.093 -0.1948  0.4356 -0.2718
 1006MOL0     C35695   3.065  11.381   6.017 -0.6718 -1.2680  0.2629
 1006MOL0     C35696   3.163  11.334   5.910 -0.2724  0.8265 -0.8975
 1006MOL0     C35697   3.306  11.298   5.972 -0.0882 -0.1928 -0.5798
 1006MOL0     C35698   3.409  11.265   5.870 -0.7475  0.4026  0.2789
 1006MOL0     O35699   3.483  11.149   5.912  0.1522  0.1164 -0.2687
 1006MOL0     C35700   3.607  11.166   5.977  0.2279 -1.2964  0.1068
 1006MOL0     C35701   3.640  11.252   6.079  0.2812  0.0849 -1.4148
 1006MOL0     C35702   3.769  11.276   6.126 -0.9819  0.1982 -0.6242
 1006MOL0     C35703   3.877  11.204   6.075 -0.3226  0.3081  0.6863
 1006MOL0     C35704   4.011  11.249   6.110 -0.2106 -0.0151  0.9494
 1006MOL0     O35705   4.110  11.206   6.028 -0.1777 -0.6294  0.5225
 1006MOL0     C35706   4.238  11.248   6.047 -0.6479 -0.2710 -0.0790
 1006MOL0     C35707   4.311  11.283   5.934 -0.4321  0.3655  0.2553
 1006MOL0     C35708   4.452  11.297   5.940 -0.1461 -0.4934  0.4127
 1006MOL0     C35709   4.513  11.302   6.066 -0.4979 -0.6313 -0.6336
 1006MOL0     O35710   4.653  11.325   6.076  0.1982 -1.1875 -0.5500
 1006MOL0     C35711   4.679  11.471   6.069  0.2679  0.7264 -1.0639
 1006MOL0     C35712   4.803  11.506   5.982  0.3830  0.6941  0.4858
 1006MOL0     C35713   4.928  11.426   6.024  1.1463 -0.3712 -0.2976
 1006MOL0     C35714   5.052  11.522   6.016  0.7468 -0.7629 -0.8010
 1006MOL0     C35715   5.094  11.568   5.873 -0.3174 -0.5119  0.0209
 1006MOL0     C35716   5.118  11.457   5.770  0.6522 -1.6264  0.4223
 1006MOL0     C35717   5.160  11.529   5.647 -0.5137  0.1398 -0.4530
 1006MOL0     C35718   5.310  11.582   5.656 -0.4214 -0.8215  0.8353
 1006MOL0    Cl35719   5.372  11.588   5.497  0.3764  0.4049  0.2639
 1006MOL0     C35720   4.435  11.272   6.183 -0.4038 -0.5272 -0.4607
 1006MOL0     C35721   4.301  11.238   6.178 -0.0296 -0.0124 -0.0797
 1006MOL0     O35722   4.024  11.339   6.199  0.3202 -0.4608 -0.6284
 1006MOL0     C35723   3.849  11.106   5.980 -0.8888 -0.6969 -0.2857
 1006MOL0     C35724   3.716  11.087   5.930 -1.1809  0.0543 -0.4017
 1006MOL0     N35725   2.883  11.202   6.032  0.5012 -0.1930 -0.4581
 1006MOL0     N35726   2.839  11.112   6.120 -0.2066 -0.7546  0.1103
 1006MOL0     C35727   2.506  10.249   6.703 -0.1528  0.2141  1.1741
 1006MOL0     C35728   2.538  10.114   6.701 -0.2120 -0.2263 -0.0387
 1006MOL0     C35729   2.602   9.758   6.587  0.1990 -0.0638  0.1135
 1006MOL0     C35730   2.541   9.687   6.692 -0.8187 -0.8841  0.1396
 1006MOL0     C35731   2.470   9.572   6.675 -0.9560 -0.3822  0.1469
 1006MOL0     C35732   2.448   9.525   6.547 -0.1240  0.3878 -0.0192
 1006MOL0     O35733   2.380   9.405   6.535  0.0702 -0.5874  0.6313
 1006MOL0     C35734   2.315   9.377   6.415 -0.4039 -1.3523  0.1005
 1006MOL0     C35735   2.254   9.235   6.420 -0.3136  0.1117 -0.0865
 1006MOL0     C35736   2.206   9.189   6.281 -0.4102  0.0148  1.0964
 1006MOL0     C35737   2.124   9.072   6.288  0.3525 -0.8407 -0.4406
 1006MOL0     C35738   1.983   9.100   6.344 -0.8707  1.2428 -0.4637
 1006MOL0     C35739   1.871   9.123   6.383  0.0262 -0.3838 -0.3109
 1006MOL0     C35740   2.509   9.591   6.433  1.1899  0.8338  0.4631
 1006MOL0     C35741   2.584   9.712   6.453  0.6533 -0.3225 -0.6125
 1006MOL0     C35742   2.657   9.769   6.323  0.2685 -0.1367  0.3308
 1006MOL0     H35743   2.866  10.137   6.820  1.3573  4.6945  1.6513
 1006MOL0     H35744   2.798  10.378   6.814  1.0337 -0.8370  0.6244
 1006MOL0     H35745   2.613  10.581   6.919 -1.8183  1.5482 -0.0198
 1006MOL0     H35746   2.732  10.572   6.780 -0.6630 -1.6849 -1.3580
 1006MOL0     H35747   2.474  10.718   6.787  0.1435 -1.1889  0.2608
 1006MOL0     H35748   2.584  10.718   6.650 -0.0839  3.4891  0.1883
 1006MOL0     H35749   2.769  10.833   6.782  0.1591 -0.4223  1.6334
 1006MOL0     H35750   2.653  10.835   6.921  0.3911 -2.8051  0.2037
 1006MOL0     H35751   2.508  10.958   6.762  0.7591 -0.0390 -0.0225
 1006MOL0     H35752   2.649  11.039   6.829  0.2180  0.5949 -0.7685
 1006MOL0     H35753   2.632  10.911   6.552 -5.5550  2.1825 -0.3462
 1006MOL0     H35754   2.611  11.086   6.581 -2.1515 -0.7606  0.1539
 1006MOL0     H35755   2.861  11.060   6.685 -2.0012 -1.0982  1.3724
 1006MOL0     H35756   2.871  10.929   6.577 -1.3880 -0.4715 -1.0384
 1006MOL0     H35757   2.934  11.176   6.485  1.8619 -2.8287 -2.0484
 1006MOL0     H35758   2.758  11.181   6.449  1.9846  1.0554 -4.0458
 1006MOL0     H35759   2.951  10.967   6.374  1.1346 -0.7012 -2.3581
 1006MOL0     H35760   2.784  10.982   6.320 -1.4568  1.4927  1.6280
 1006MOL0     H35761   3.102  11.240   6.275  0.9251 -0.9713  0.7088
 1006MOL0     H35762   2.991  11.430   5.954  2.6336  0.0470 -2.9566
 1006MOL0     H35763   3.118  11.438   6.094 -0.2758 -1.5745  0.2201
 1006MOL0     H35764   3.128  11.242   5.863 -1.7433 -1.6866  4.3092
 1006MOL0     H35765   3.179  11.420   5.844  3.3958  1.1157  0.1521
 1006MOL0     H35766   3.294  11.223   6.051 -2.6759  1.0417  0.3148
 1006MOL0     H35767   3.335  11.384   6.033  0.2201 -1.3560  0.9968
 1006MOL0     H35768   3.472  11.353   5.856  0.8601 -0.8538 -0.8227
 1006MOL0     H35769   3.359  11.253   5.773 -0.9998  3.0988  0.0193
 1006MOL0     H35770   3.571  11.316   6.133  1.8560  2.1173 -1.6703
 1006MOL0     H35771   3.784  11.353   6.202  2.0343  1.0869 -1.9768
 1006MOL0     H35772   4.251  11.278   5.843  1.7435  1.3306 -1.3214
 1006MOL0     H35773   4.514  11.316   5.854 -0.6751  2.0856  0.5162
 1006MOL0     H35774   4.590  11.527   6.042 -0.5365  0.4814  0.8744
 1006MOL0     H35775   4.695  11.501   6.173 -5.5182  1.1960  0.0002
 1006MOL0     H35776   4.783  11.484   5.877 -1.9493 -0.0270  1.0257
 1006MOL0     H35777   4.817  11.614   5.991 -1.5892  0.9765  0.5967
 1006MOL0     H35778   4.907  11.371   6.116 -0.6779  0.8954  0.1070
 1006MOL0     H35779   4.952  11.352   5.948  0.4612  0.2260 -1.1131
 1006MOL0     H35780   5.140  11.467   6.050  1.7779 -0.0166 -2.1174
 1006MOL0     H35781   5.051  11.611   6.080 -0.5487 -1.3347  0.0046
 1006MOL0     H35782   5.184  11.629   5.885 -0.4455 -0.6752  2.2715
 1006MOL0     H35783   5.019  11.633   5.827 -0.3887 -1.6210 -1.4975
 1006MOL0     H35784   5.192  11.381   5.797  1.3097 -0.7390  1.2046
 1006MOL0     H35785   5.032  11.392   5.756  1.3567 -2.5288  0.2366
 1006MOL0     H35786   5.096  11.614   5.621 -0.1565 -0.4889 -3.9913
 1006MOL0     H35787   5.158  11.454   5.567  0.8840 -0.9527  0.4851
 1006MOL0     H35788   5.300  11.680   5.702 -1.1378 -0.9649  0.9855
 1006MOL0     H35789   5.377  11.518   5.714  2.5734 -1.5378 -2.9712
 1006MOL0     H35790   4.493  11.276   6.275  1.0947  0.3791 -1.3878
 1006MOL0     H35791   4.245  11.220   6.269 -0.0555  0.1201 -0.0693
 1006MOL0     H35792   3.932  11.049   5.939 -0.7849  0.7628 -2.2086
 1006MOL0     H35793   3.706  11.001   5.864  0.8251 -0.7624  0.2993
 1006MOL0     H35794   2.417  10.297   6.664  0.1854 -0.2928 -0.2779
 1006MOL0     H35795   2.468  10.036   6.674 -2.0419  1.4577 -0.4137
 1006MOL0     H35796   2.542   9.740   6.787 -0.0787  2.2541 -1.4941
 1006MOL0     H35797   2.439   9.528   6.769 -3.7213  2.0118  0.5110
 1006MOL0     H35798   2.391   9.379   6.336 -2.2604 -1.0572 -1.7835
 1006MOL0     H35799   2.235   9.446   6.388  1.5890  0.5158 -1.4598
 1006MOL0     H35800   2.180   9.238   6.501 -0.7198  1.6721 -0.4807
 1006MOL0     H35801   2.329   9.174   6.471  2.0142  5.1999  3.4203
 1006MOL0     H35802   2.279   9.162   6.204 -2.1373  2.1387 -1.4731
 1006MOL0     H35803   2.141   9.269   6.244  1.0984  0.8356  0.1092
 1006MOL0     H35804   2.121   9.027   6.188  3.2718 -1.1223 -0.4683
 1006MOL0     H35805   2.189   9.004   6.343  2.1165  1.8455  1.0091
 1006MOL0     H35806   1.778   9.163   6.416  1.3177  2.1626  0.4950
 1006MOL0     H35807   2.506   9.547   6.334  0.8786 -2.0809  1.6850
 1006MOL0     H35808   2.636   9.876   6.311 -1.0023 -0.5170 -1.0650
 1006MOL0     H35809   2.764   9.752   6.338  0.4690 -0.1148 -1.0080
 1006MOL0     H35810   2.637   9.722   6.226  1.9345  0.2436 -0.2319
 1007MOL0     O35811   6.377   6.340   6.227  0.5879  0.3953  0.2177
 1007MOL0     C35812   6.468   6.377   6.154  0.3336 -0.3305  0.1930
 1007MOL0     O35813   6.541   6.292   6.070  0.2679 -0.2185  0.3545
 1007MOL0     C35814   6.516   6.157   6.064  0.1292 -0.0393  0.7037
 1007MOL0     C35815   6.390   6.092   6.088 -0.2549 -0.8811 -0.0505
 1007MOL0     C35816   6.378   5.957   6.093  0.1970  0.3242 -0.3214
 1007MOL0     C35817   6.485   5.879   6.067 -0.1773 -1.1341 -0.2249
 1007MOL0     O35818   6.486   5.743   6.086  0.7276 -0.6797  0.2605
 1007MOL0     C35819   6.463   5.711   6.228 -0.2048  0.4565  0.0903
 1007MOL0     C35820   6.491   5.569   6.268  0.3603 -0.3016 -0.8851
 1007MOL0     C35821   6.411   5.455   6.204 -0.7912 -0.6913  0.4252
 1007MOL0     C35822   6.256   5.434   6.232  0.9641  0.6843 -0.1301
 1007MOL0     C35823   6.210   5.297   6.158 -0.9393  0.0136  0.1503
 1007MOL0     C35824   6.065   5.239   6.188  0.4677 -0.5576 -0.0293
 1007MOL0     C35825   6.043   5.198   6.334  0.3138  0.3525  0.9767
 1007MOL0     C35826   5.899   5.137   6.357 -0.0867  1.5986  0.3206
 1007MOL0     N35827   5.766   5.212   6.338  0.2369 -0.0531  0.6944
 1007MOL0     C35828   5.751   5.346   6.366 -0.7317  1.8568  0.8517
 1007MOL0     C35829   5.645   5.389   6.293 -0.3779  0.8422  0.1508
 1007MOL0     C35830   5.583   5.523   6.290  0.8908 -0.3056  0.9764
 1007MOL0     C35831   5.434   5.518   6.326  0.1230  0.0813  0.2278
 1007MOL0     C35832   5.373   5.652   6.384 -0.0914  1.0873 -0.1952
 1007MOL0     C35833   5.221   5.651   6.369 -0.1698 -0.1325  0.2934
 1007MOL0     O35834   5.155   5.550   6.453  0.5521  0.2061 -0.1835
 1007MOL0     C35835   5.018   5.530   6.445  0.2941  0.3019 -1.0497
 1007MOL0     C35836   4.925   5.633   6.443 -0.6134  0.2993 -1.1247
 1007MOL0     C35837   4.781   5.605   6.443 -0.3914  0.9173  0.2882
 1007MOL0     C35838   4.724   5.473   6.447  1.0544 -0.0649 -0.1943
 1007MOL0     C35839   4.579   5.442   6.445  0.7250 -0.8658 -0.7016
 1007MOL0     O35840   4.507   5.557   6.456  0.4297  0.0252  0.1943
 1007MOL0     C35841   4.372   5.550   6.503 -0.4956  0.5188  0.5138
 1007MOL0     C35842   4.332   5.462   6.609 -0.0137  1.1794 -1.0008
 1007MOL0     C35843   4.199   5.447   6.644  0.0590 -0.2422  0.2894
 1007MOL0     C35844   4.110   5.541   6.594  0.0425 -0.5638 -0.7201
 1007MOL0     O35845   3.984   5.537   6.645 -0.2455  0.0277 -0.4722
 1007MOL0     C35846   3.913   5.657   6.617  0.6130  1.1633  0.6014
 1007MOL0     C35847   3.791   5.679   6.710  0.7144 -0.3206 -0.1446
 1007MOL0     C35848   3.707   5.799   6.659 -0.5844  0.1966  0.1273
 1007MOL0     C35849   3.610   5.828   6.773 -0.1725  0.5880 -0.4521
 1007MOL0     C35850   3.529   5.959   6.756  0.3699 -0.1062  0.3343
 1007MOL0     C35851   3.394   5.934   6.675 -0.1699 -1.0831 -0.9746
 1007MOL0     C35852   3.301   6.064   6.663 -0.0234  0.3739  0.6663
 1007MOL0     C35853   3.260   6.127   6.797  0.2147  0.4070  0.6505
 1007MOL0    Cl35854   3.389   6.244   6.861 -0.3666 -0.0829  0.0893
 1007MOL0     C35855   4.147   5.618   6.478 -0.7425 -0.3303  0.3717
 1007MOL0     C35856   4.283   5.627   6.432 -0.3245 -0.1879  0.7553
 1007MOL0     O35857   4.541   5.330   6.435 -0.6910  0.6764 -0.5790
 1007MOL0     C35858   4.823   5.370   6.454 -0.0461 -1.0831  0.2929
 1007MOL0     C35859   4.962   5.399   6.446  0.4093  0.1918  0.4440
 1007MOL0     N35860   5.597   5.277   6.213 -0.1158  0.1877 -0.9264
 1007MOL0     N35861   5.673   5.178   6.248 -0.7170  0.2916 -0.2445
 1007MOL0     C35862   6.611   5.940   6.034  0.4946  0.4683  0.5019
 1007MOL0     C35863   6.628   6.078   6.031  0.4440  0.5441  0.4321
 1007MOL0     C35864   6.504   6.518   6.147 -0.6155 -1.2223 -0.2261
 1007MOL0     C35865   6.592   6.554   6.036  0.4489 -0.5989 -0.6221
 1007MOL0     C35866   6.639   6.683   6.014 -0.4429  0.1841 -0.3900
 1007MOL0     C35867   6.585   6.783   6.086 -0.6452 -0.9412  0.1557
 1007MOL0     O35868   6.621   6.915   6.059  0.0149 -0.1339  0.0812
 1007MOL0     C35869   6.618   6.962   5.927 -0.3415 -0.4402  0.4118
 1007MOL0     C35870   6.479   7.000   5.875 -0.0527  0.2392  0.2537
 1007MOL0     C35871   6.366   6.888   5.887 -0.7911 -0.3268 -0.0277
 1007MOL0     C35872   6.244   6.925   5.807  0.5887  0.1558  0.0423
 1007MOL0     C35873   6.271   6.912   5.657 -0.2381  0.1848  0.0110
 1007MOL0     C35874   6.296   6.887   5.540  0.1517 -0.4168 -0.1334
 1007MOL0     C35875   6.495   6.758   6.189 -0.5903  0.8143  0.7116
 1007MOL0     C35876   6.446   6.627   6.221 -0.7342 -0.4055 -0.6676
 1007MOL0     C35877   6.333   6.610   6.330  0.3722  0.4795  0.9806
 1007MOL0     H35878   6.299   6.148   6.109 -0.5636  0.3532 -3.9672
 1007MOL0     H35879   6.288   5.908   6.129  0.9103  0.1268  1.3044
 1007MOL0     H35880   6.541   5.762   6.285 -0.1254  1.3002 -0.7380
 1007MOL0     H35881   6.360   5.729   6.261  0.8055  2.2422  2.5953
 1007MOL0     H35882   6.455   5.566   6.371  1.3029 -1.1858 -0.5621
 1007MOL0     H35883   6.596   5.537   6.267  1.4163  2.8291 -0.5569
 1007MOL0     H35884   6.464   5.363   6.229 -0.1462 -0.2495  0.7027
 1007MOL0     H35885   6.421   5.470   6.096 -2.1878  1.0203  0.4864
 1007MOL0     H35886   6.247   5.436   6.341  2.2399 -2.5087  0.1451
 1007MOL0     H35887   6.182   5.501   6.186 -2.4735 -3.0696 -0.5891
 1007MOL0     H35888   6.223   5.317   6.051  2.3574 -1.5933  0.1321
 1007MOL0     H35889   6.286   5.222   6.180  0.9897  2.0250  0.6808
 1007MOL0     H35890   5.988   5.314   6.170  0.7193 -0.6891 -1.7677
 1007MOL0     H35891   6.045   5.150   6.129  0.6864 -1.4104  1.1405
 1007MOL0     H35892   6.050   5.293   6.388  4.0114  1.5874 -1.2879
 1007MOL0     H35893   6.121   5.122   6.350  0.0864 -1.3068 -4.0393
 1007MOL0     H35894   5.899   5.042   6.304 -1.0167  1.6066  0.2808
 1007MOL0     H35895   5.905   5.105   6.462  3.6042 -1.7394 -0.6821
 1007MOL0     H35896   5.814   5.397   6.438 -0.1215 -0.0567  1.7581
 1007MOL0     H35897   5.639   5.588   6.357  2.4659  1.1588 -1.5764
 1007MOL0     H35898   5.604   5.551   6.186  1.0645 -3.7998 -0.0660
 1007MOL0     H35899   5.379   5.485   6.237 -0.3146 -2.7563  1.4218
 1007MOL0     H35900   5.409   5.435   6.394  0.8045 -0.1062  0.2586
 1007MOL0     H35901   5.421   5.738   6.336  0.9850 -0.9607 -3.1211
 1007MOL0     H35902   5.393   5.663   6.491  2.5157 -2.5912 -0.0920
 1007MOL0     H35903   5.198   5.631   6.264 -1.9249 -0.5400  0.7267
 1007MOL0     H35904   5.173   5.747   6.391 -2.0105  0.0815 -3.7397
 1007MOL0     H35905   4.966   5.732   6.463 -1.1103 -0.1546  3.1267
 1007MOL0     H35906   4.722   5.696   6.450 -0.9193  0.7025 -1.0655
 1007MOL0     H35907   4.402   5.402   6.666 -1.2415 -0.2778 -0.9799
 1007MOL0     H35908   4.161   5.376   6.718 -0.0448  0.0020  0.4719
 1007MOL0     H35909   3.980   5.744   6.621 -1.3493  2.7694  0.2602
 1007MOL0     H35910   3.873   5.643   6.516  0.5578 -1.9904  0.9607
 1007MOL0     H35911   3.724   5.593   6.715  2.4592 -1.7260  0.0017
 1007MOL0     H35912   3.826   5.700   6.811 -1.7249 -2.3859  1.2590
 1007MOL0     H35913   3.773   5.883   6.634 -0.5622  0.0035 -0.4579
 1007MOL0     H35914   3.655   5.774   6.566  2.8603  0.1537 -1.9429
 1007MOL0     H35915   3.674   5.845   6.859  0.2988 -2.4048 -0.1108
 1007MOL0     H35916   3.545   5.744   6.801 -0.0627  0.2578 -1.1450
 1007MOL0     H35917   3.585   6.043   6.712 -2.4010  1.4336 -0.4843
 1007MOL0     H35918   3.500   5.992   6.856 -1.1144  0.4135 -0.2512
 1007MOL0     H35919   3.415   5.905   6.572  1.6052 -1.0631 -0.6379
 1007MOL0     H35920   3.339   5.853   6.723  0.7314 -2.4171 -2.1119
 1007MOL0     H35921   3.215   6.027   6.606 -2.0222  1.6674  2.6874
 1007MOL0     H35922   3.344   6.143   6.601  0.1408 -0.2420 -0.0331
 1007MOL0     H35923   3.169   6.186   6.784  0.3013  0.2142 -1.0221
 1007MOL0     H35924   3.236   6.048   6.868  1.6156 -1.8218 -1.2115
 1007MOL0     H35925   4.071   5.675   6.425 -1.9061 -1.4327  0.7942
 1007MOL0     H35926   4.321   5.685   6.348  0.8273 -2.3670 -0.3284
 1007MOL0     H35927   4.784   5.269   6.461 -2.2000 -0.3190  0.2272
 1007MOL0     H35928   5.042   5.332   6.417 -0.1571 -0.1552 -0.3700
 1007MOL0     H35929   6.693   5.874   6.006 -0.6275  0.4714 -3.4124
 1007MOL0     H35930   6.718   6.135   6.012  0.6704 -0.1866 -0.7466
 1007MOL0     H35931   6.624   6.481   5.962  0.8524 -0.1698 -0.8771
 1007MOL0     H35932   6.729   6.694   5.954  2.2895 -1.7708  3.0201
 1007MOL0     H35933   6.645   6.881   5.859  0.5494  2.4234 -2.9454
 1007MOL0     H35934   6.687   7.046   5.914  0.9171 -1.7162 -1.8307
 1007MOL0     H35935   6.504   7.024   5.771 -0.9751 -1.3896 -0.3749
 1007MOL0     H35936   6.443   7.085   5.933 -1.8090  1.1554 -2.0193
 1007MOL0     H35937   6.338   6.885   5.993 -1.1588  1.5360 -0.0419
 1007MOL0     H35938   6.407   6.794   5.849  0.1248 -1.0537  2.4907
 1007MOL0     H35939   6.159   6.858   5.821  1.2627 -0.5383  0.9218
 1007MOL0     H35940   6.207   7.020   5.846  0.0822  0.3482 -0.8751
 1007MOL0     H35941   6.312   6.855   5.439  0.0390 -2.2436  0.3792
 1007MOL0     H35942   6.458   6.847   6.238  1.5139  2.8010 -1.0790
 1007MOL0     H35943   6.311   6.710   6.367 -3.7759 -0.4083  1.3614
 1007MOL0     H35944   6.238   6.564   6.304  1.3882 -0.5526 -1.1977
 1007MOL0     H35945   6.382   6.540   6.398  2.0287  0.1550 -0.4784
 1008MOL0     O35946   0.353   7.699  10.231 -0.1538 -0.1820 -0.7977
 1008MOL0     C35947   0.423   7.614  10.173  0.0752 -0.9010 -0.1947
 1008MOL0     O35948   0.402   7.481  10.187  0.1360 -0.2868 -0.1178
 1008MOL0     C35949   0.316   7.417  10.280  1.0011  0.4571  0.6244
 1008MOL0     C35950   0.363   7.319  10.366  0.6521 -0.3584  0.4449
 1008MOL0     C35951   0.267   7.258  10.458 -0.1104 -0.3597  0.3020
 1008MOL0     C35952   0.131   7.298  10.456 -0.6032 -0.3100 -0.3999
 1008MOL0     O35953   0.033   7.231  10.523 -0.1512 -0.2902  0.5914
 1008MOL0     C35954   0.050   7.212  10.666 -0.3106  0.6058 -0.5587
 1008MOL0     C35955   0.039   7.347  10.736 -0.1372 -0.6008  0.2067
 1008MOL0     C35956   0.002   7.325  10.877  0.6124  0.3134  0.3753
 1008MOL0     C35957  -0.041   7.458  10.943  0.5082 -0.9828  0.6887
 1008MOL0     C35958  -0.167   7.438  11.029 -0.4864  0.3736  0.3955
 1008MOL0     C35959  -0.229   7.566  11.085 -0.1972 -0.4258  0.0775
 1008MOL0     C35960  -0.376   7.542  11.130 -0.6835  0.0346 -0.7855
 1008MOL0     C35961  -0.430   7.682  11.189 -0.5949 -0.7887  0.1641
 1008MOL0     N35962  -0.431   7.786  11.082  0.0218  0.4215 -0.4757
 1008MOL0     C35963  -0.329   7.868  11.037 -0.2442  0.4894 -0.0703
 1008MOL0     C35964  -0.375   7.911  10.915  0.6035  0.7685  0.0776
 1008MOL0     C35965  -0.268   7.977  10.826  0.3170 -1.2000 -0.9435
 1008MOL0     C35966  -0.168   7.875  10.766 -0.3614  0.1254  0.4070
 1008MOL0     C35967  -0.043   7.930  10.703 -0.2379  0.2534 -0.3610
 1008MOL0     C35968  -0.051   8.074  10.646 -0.0782  0.0526 -0.1639
 1008MOL0     O35969  -0.036   8.180  10.747 -0.1337  0.2971 -1.0426
 1008MOL0     C35970  -0.018   8.308  10.691 -0.0570 -0.5226  0.1172
 1008MOL0     C35971  -0.006   8.339  10.552 -0.0468  0.3770 -1.3343
 1008MOL0     C35972   0.021   8.469  10.506 -0.1071  0.4707 -0.3315
 1008MOL0     C35973   0.022   8.577  10.594 -0.0433  0.2780  0.0886
 1008MOL0     C35974   0.052   8.717  10.543  0.3692 -0.4693  0.7292
 1008MOL0     O35975   0.061   8.740  10.407  0.0645  0.6843 -0.8731
 1008MOL0     C35976   0.129   8.839  10.347  0.1761  0.1147  0.4022
 1008MOL0     C35977   0.232   8.804  10.262  1.0137  0.2162  0.6950
 1008MOL0     C35978   0.305   8.904  10.195  0.8560  0.0813 -0.5144
 1008MOL0     C35979   0.267   9.042  10.201 -0.7612 -0.4034 -0.3005
 1008MOL0     O35980   0.337   9.142  10.140 -0.7917 -1.0296 -0.7427
 1008MOL0     C35981   0.276   9.225  10.040  0.3917 -0.1781  0.5992
 1008MOL0     C35982   0.366   9.240   9.915 -0.5420 -0.4247 -0.5863
 1008MOL0     C35983   0.377   9.101   9.857  0.1510 -0.7795  0.0006
 1008MOL0     C35984   0.449   9.123   9.716 -0.0255 -0.9597 -0.2889
 1008MOL0     C35985   0.495   9.001   9.647  1.2208  0.4354 -0.3850
 1008MOL0     C35986   0.564   9.036   9.515  0.3237  0.4241 -0.0574
 1008MOL0     C35987   0.624   8.912   9.437  0.7500  0.3332  1.5786
 1008MOL0     C35988   0.525   8.797   9.395 -0.1253  0.2964 -0.3811
 1008MOL0    Cl35989   0.522   8.679   9.528 -0.5669  0.2902  0.0578
 1008MOL0     C35990   0.168   9.073  10.282  0.3440 -0.6404 -0.2517
 1008MOL0     C35991   0.104   8.979  10.365  0.2311  0.5860  0.5368
 1008MOL0     O35992   0.049   8.809  10.625  0.6190 -0.4262 -0.1554
 1008MOL0     C35993   0.029   8.541  10.725 -0.7451  1.1075 -0.7809
 1008MOL0     C35994  -0.002   8.412  10.779  0.8817 -0.2922 -1.0502
 1008MOL0     N35995  -0.502   7.869  10.894  0.2297 -0.6821  0.3257
 1008MOL0     N35996  -0.535   7.789  10.993  0.7732 -1.0228  0.5632
 1008MOL0     C35997   0.098   7.406  10.373 -0.9872 -0.0287 -0.1706
 1008MOL0     C35998   0.182   7.462  10.280 -0.4302 -0.2653  0.4992
 1008MOL0     C35999   0.529   7.654  10.084  0.2515  0.7552  0.1803
 1008MOL0     C36000   0.544   7.573   9.972 -0.7423 -0.0929 -0.3471
 1008MOL0     C36001   0.654   7.581   9.890 -0.0081  0.2323 -0.5139
 1008MOL0     C36002   0.731   7.689   9.902  0.0214 -0.8495 -1.2508
 1008MOL0     O36003   0.816   7.718   9.802 -0.3128 -0.0059  0.7256
 1008MOL0     C36004   0.950   7.662   9.825  0.0010 -0.4722  0.3165
 1008MOL0     C36005   1.054   7.682   9.714  0.2597  0.2680 -0.9292
 1008MOL0     C36006   1.050   7.826   9.664  0.2682  0.0962  0.6212
 1008MOL0     C36007   1.162   7.871   9.570 -0.3699  0.0307 -0.1745
 1008MOL0     C36008   1.286   7.866   9.648 -0.0642 -0.3233  0.1910
 1008MOL0     C36009   1.384   7.858   9.706 -0.2575  0.5843 -0.0882
 1008MOL0     C36010   0.717   7.781  10.006 -0.2525  0.0842 -0.6598
 1008MOL0     C36011   0.610   7.767  10.098 -0.0772 -0.0484 -0.7658
 1008MOL0     C36012   0.597   7.867  10.209  0.0323 -0.2545 -0.0899
 1008MOL0     H36013   0.461   7.272  10.361 -0.3056 -2.3607 -3.1153
 1008MOL0     H36014   0.302   7.170  10.510  1.7216 -1.2098 -2.1539
 1008MOL0     H36015  -0.039   7.152  10.687 -1.5597  2.6862  0.3731
 1008MOL0     H36016   0.133   7.146  10.693  0.7877  1.0729 -2.6569
 1008MOL0     H36017  -0.019   7.423  10.683 -0.7457 -0.6821  0.7490
 1008MOL0     H36018   0.139   7.390  10.749  0.0149 -1.8889  5.0343
 1008MOL0     H36019   0.089   7.287  10.932 -0.6442 -0.3720  1.9690
 1008MOL0     H36020  -0.080   7.254  10.889 -0.2497  1.5575  2.2276
 1008MOL0     H36021   0.048   7.503  10.989  0.0770  0.3040  0.2869
 1008MOL0     H36022  -0.078   7.518  10.860  0.6022 -1.9806 -0.1005
 1008MOL0     H36023  -0.248   7.385  10.977 -0.8791 -1.6144  2.8312
 1008MOL0     H36024  -0.137   7.376  11.114  2.7575  4.3294  2.4666
 1008MOL0     H36025  -0.160   7.604  11.161  2.6812 -1.4110 -1.8738
 1008MOL0     H36026  -0.225   7.634  10.999 -4.0562 -2.0099 -1.6326
 1008MOL0     H36027  -0.380   7.457  11.198 -0.4169 -1.2135 -2.2764
 1008MOL0     H36028  -0.437   7.499  11.050  0.8201 -0.6422 -1.6123
 1008MOL0     H36029  -0.536   7.672  11.213 -0.7271 -0.1388 -0.1291
 1008MOL0     H36030  -0.390   7.733  11.278 -0.6414  1.7485 -1.1907
 1008MOL0     H36031  -0.226   7.865  11.070  0.5350 -2.8379 -2.3108
 1008MOL0     H36032  -0.316   8.040  10.750 -2.5591 -0.7851  1.0959
 1008MOL0     H36033  -0.201   8.045  10.879 -1.0908 -1.3326  1.0767
 1008MOL0     H36034  -0.129   7.813  10.847  0.3112 -3.0031 -2.1353
 1008MOL0     H36035  -0.213   7.799  10.702  0.3122  0.1995 -0.1571
 1008MOL0     H36036  -0.027   7.862  10.619 -4.2141  0.9313 -1.9164
 1008MOL0     H36037   0.042   7.922  10.770  0.1965  2.3380 -0.5788
 1008MOL0     H36038  -0.146   8.078  10.591 -1.5790  0.6108  2.3307
 1008MOL0     H36039   0.031   8.093  10.576 -3.2037  1.3756 -3.8579
 1008MOL0     H36040   0.003   8.262  10.476  1.9130 -0.0655 -0.7159
 1008MOL0     H36041   0.033   8.476  10.398 -1.9106 -1.8124 -0.7459
 1008MOL0     H36042   0.243   8.697  10.250 -1.1641  0.1370 -1.2257
 1008MOL0     H36043   0.379   8.888  10.117 -0.1048 -1.4924 -1.1640
 1008MOL0     H36044   0.179   9.189  10.006 -0.9806  4.0549 -0.5635
 1008MOL0     H36045   0.254   9.322  10.086 -0.8166  1.0912 -2.4354
 1008MOL0     H36046   0.336   9.304   9.832 -0.7891  0.7477  0.3769
 1008MOL0     H36047   0.460   9.275   9.959 -0.1551 -1.6041 -0.4212
 1008MOL0     H36048   0.424   9.031   9.926 -1.2538 -2.4361 -0.6289
 1008MOL0     H36049   0.278   9.065   9.824 -0.0099 -0.0155 -0.3901
 1008MOL0     H36050   0.539   9.175   9.749 -3.1692  3.9838  1.6651
 1008MOL0     H36051   0.391   9.190   9.653  0.2225  2.6976  3.0065
 1008MOL0     H36052   0.412   8.932   9.627  0.6714  0.6436  1.0769
 1008MOL0     H36053   0.566   8.953   9.714  0.3818 -1.0293 -0.5046
 1008MOL0     H36054   0.488   9.078   9.447 -2.8130 -1.6747  1.8937
 1008MOL0     H36055   0.646   9.108   9.524 -0.9777  1.9214  0.4763
 1008MOL0     H36056   0.714   8.870   9.482  1.6206 -1.5057 -1.6278
 1008MOL0     H36057   0.665   8.946   9.342 -1.1142 -2.3589 -0.3371
 1008MOL0     H36058   0.422   8.830   9.381 -2.5452 -4.9957  1.8630
 1008MOL0     H36059   0.559   8.754   9.300 -0.1502 -1.8778  0.5301
 1008MOL0     H36060   0.131   9.175  10.294 -1.8767 -1.2932 -0.9010
 1008MOL0     H36061   0.020   9.005  10.429 -1.3818  1.1276 -1.6714
 1008MOL0     H36062   0.061   8.616  10.797 -0.2529 -1.7071  2.1196
 1008MOL0     H36063  -0.004   8.401  10.886  0.0260  1.1966 -0.8827
 1008MOL0     H36064  -0.008   7.429  10.373 -1.4020 -1.8106 -1.0606
 1008MOL0     H36065   0.146   7.537  10.211 -1.5956 -1.1130  0.1608
 1008MOL0     H36066   0.474   7.490   9.961  1.0588 -1.8763  1.0523
 1008MOL0     H36067   0.674   7.511   9.810  3.5715 -2.1864  2.1880
 1008MOL0     H36068   0.948   7.553   9.833 -2.8132 -0.4119  1.7934
 1008MOL0     H36069   0.987   7.702   9.920  1.4553 -2.0474  0.4567
 1008MOL0     H36070   1.031   7.612   9.632  0.3458 -1.9327  0.8423
 1008MOL0     H36071   1.151   7.652   9.754  0.6456  1.7241 -0.7343
 1008MOL0     H36072   1.049   7.893   9.751 -5.4193 -0.8491  1.6470
 1008MOL0     H36073   0.958   7.850   9.609  1.9375  2.7975 -1.2386
 1008MOL0     H36074   1.166   7.803   9.484  2.0643  1.1733 -1.0681
 1008MOL0     H36075   1.152   7.975   9.537  0.3489  0.1069 -0.1656
 1008MOL0     H36076   1.478   7.843   9.755 -0.4547 -0.6074 -0.0396
 1008MOL0     H36077   0.782   7.867   9.999  0.2041 -0.3317 -1.6890
 1008MOL0     H36078   0.555   7.825  10.301  2.0303  0.9693  1.4747
 1008MOL0     H36079   0.692   7.907  10.244  1.2144 -2.5871 -0.4022
 1008MOL0     H36080   0.548   7.960  10.179  2.3627  1.3742  0.8558
 1009MOL0     O36081   0.228   6.460   9.481  0.0396 -0.5247 -0.0919
 1009MOL0     C36082   0.143   6.401   9.552  0.0840  0.2791  1.0787
 1009MOL0     O36083   0.171   6.273   9.598  0.7709 -0.0159  0.6326
 1009MOL0     C36084   0.287   6.202   9.576  0.0241 -0.8114 -0.6610
 1009MOL0     C36085   0.350   6.124   9.678  0.7787 -0.7080 -1.2972
 1009MOL0     C36086   0.463   6.048   9.659 -0.2580  0.4671 -0.1731
 1009MOL0     C36087   0.528   6.047   9.537  0.1720 -0.2981  0.5793
 1009MOL0     O36088   0.638   5.963   9.518 -0.3855  0.0372  0.3959
 1009MOL0     C36089   0.674   5.920   9.384  0.6196 -0.0782 -0.2641
 1009MOL0     C36090   0.773   5.804   9.396 -0.0955 -1.0602  0.1310
 1009MOL0     C36091   0.770   5.713   9.522  0.1114  0.7468 -0.9351
 1009MOL0     C36092   0.897   5.628   9.537 -0.4802  0.4816  0.6397
 1009MOL0     C36093   0.887   5.549   9.669 -0.1407  0.6327  0.2439
 1009MOL0     C36094   0.983   5.426   9.664  0.0478 -0.3050  0.3536
 1009MOL0     C36095   1.034   5.384   9.806 -0.0292 -0.0506 -0.2093
 1009MOL0     C36096   0.905   5.360   9.907 -1.7858  1.0053 -0.5848
 1009MOL0     N36097   0.939   5.261  10.004 -0.3697  0.2267  0.8998
 1009MOL0     C36098   1.046   5.268  10.094  0.7241 -1.0054  0.2244
 1009MOL0     C36099   1.037   5.158  10.169 -1.2324  0.1524  1.0208
 1009MOL0     C36100   1.150   5.108  10.249  0.2042  0.1930  1.0733
 1009MOL0     C36101   1.145   5.129  10.403 -0.5269 -0.3278  0.0488
 1009MOL0     C36102   1.032   5.060  10.470 -0.5562 -0.6220  0.1468
 1009MOL0     C36103   0.895   5.128  10.470 -0.3230 -0.2576  0.4634
 1009MOL0     O36104   0.913   5.260  10.529  0.2645  0.5398 -0.1205
 1009MOL0     C36105   0.801   5.330  10.557 -0.2755  0.2704 -0.3159
 1009MOL0     C36106   0.663   5.298  10.533 -0.1733  0.4989  0.5987
 1009MOL0     C36107   0.557   5.379  10.578  0.3737  0.5180 -0.4091
 1009MOL0     C36108   0.585   5.503  10.630  0.0766 -0.3442 -0.5290
 1009MOL0     C36109   0.475   5.597  10.643  0.0554  0.3550  0.3172
 1009MOL0     O36110   0.491   5.716  10.717 -0.0566 -0.1031 -0.8032
 1009MOL0     C36111   0.391   5.808  10.731  0.4292  0.8559  0.3773
 1009MOL0     C36112   0.306   5.794  10.840  0.2506 -1.2048 -0.6262
 1009MOL0     C36113   0.209   5.898  10.873 -1.0434 -0.4933  0.4908
 1009MOL0     C36114   0.202   6.016  10.787 -0.9183  0.9396 -0.2729
 1009MOL0     O36115   0.099   6.106  10.798 -0.1688 -0.6158  0.7642
 1009MOL0     C36116   0.050   6.152  10.919 -0.5815 -0.7393  0.1856
 1009MOL0     C36117   0.153   6.258  10.955 -0.0249  0.1707  0.2293
 1009MOL0     C36118   0.163   6.377  10.856 -0.4743 -0.8283 -1.0854
 1009MOL0     C36119   0.278   6.466  10.887  1.5691 -1.0025  0.8337
 1009MOL0     C36120   0.244   6.614  10.852  0.4056 -1.0223 -0.1735
 1009MOL0     C36121   0.142   6.677  10.947  0.3491 -0.0294 -0.0723
 1009MOL0     C36122   0.122   6.817  10.899 -0.6036  0.4325 -0.2918
 1009MOL0     C36123   0.069   6.916  11.001  1.2187  0.1412 -0.3990
 1009MOL0    Cl36124  -0.098   6.863  11.046  0.2895  0.6081 -0.3676
 1009MOL0     C36125   0.282   6.015  10.675  0.6168 -0.4714 -0.7946
 1009MOL0     C36126   0.382   5.922  10.652  0.1348 -0.4035 -0.3209
 1009MOL0     O36127   0.364   5.565  10.607  0.9364  0.1089  0.7216
 1009MOL0     C36128   0.719   5.546  10.638 -0.4246  0.1288  0.0497
 1009MOL0     C36129   0.828   5.459  10.609  0.1190  0.0504 -0.3695
 1009MOL0     N36130   0.923   5.090  10.125  0.3796 -0.0164 -0.1601
 1009MOL0     N36131   0.864   5.154  10.028  0.9187 -0.7008 -0.3506
 1009MOL0     C36132   0.471   6.128   9.436  1.2865 -0.0958 -0.2626
 1009MOL0     C36133   0.352   6.198   9.447  0.0952  0.1896 -0.5083
 1009MOL0     C36134   0.014   6.456   9.601 -1.3243  0.3329  0.3608
 1009MOL0     C36135  -0.102   6.375   9.582  0.6277  0.5049 -0.4155
 1009MOL0     C36136  -0.223   6.426   9.619 -0.7462  1.2760  0.6993
 1009MOL0     C36137  -0.238   6.560   9.659 -0.2414 -0.1223 -0.3965
 1009MOL0     O36138  -0.364   6.599   9.676  0.6469  0.2335  0.1648
 1009MOL0     C36139  -0.377   6.739   9.710 -0.2323  0.8041 -0.1344
 1009MOL0     C36140  -0.528   6.760   9.746 -0.5912  0.0837  0.1339
 1009MOL0     C36141  -0.561   6.895   9.801 -0.2868 -0.6470 -0.3051
 1009MOL0     C36142  -0.537   7.003   9.696  1.1943  0.4750 -0.6183
 1009MOL0     C36143  -0.624   7.118   9.736  0.1173  0.3549  0.1497
 1009MOL0     C36144  -0.696   7.200   9.782  0.8996  0.2149  0.8241
 1009MOL0     C36145  -0.120   6.641   9.668 -0.1000 -0.3288  0.8844
 1009MOL0     C36146  -0.002   6.588   9.639  0.3987  0.3066 -0.7106
 1009MOL0     C36147   0.124   6.678   9.647 -1.0235 -0.2903  0.0933
 1009MOL0     H36148   0.309   6.118   9.778 -2.5051  2.0838 -2.2572
 1009MOL0     H36149   0.494   5.990   9.746 -0.2048 -0.3351 -0.7217
 1009MOL0     H36150   0.579   5.878   9.348  0.6449 -1.1160  0.8142
 1009MOL0     H36151   0.700   6.009   9.325 -0.8006  1.3892  1.2224
 1009MOL0     H36152   0.875   5.845   9.392 -0.5359  0.0466 -0.0777
 1009MOL0     H36153   0.757   5.736   9.313 -0.6087  0.0514 -0.6988
 1009MOL0     H36154   0.682   5.649   9.508 -0.9837  1.4702  1.8774
 1009MOL0     H36155   0.766   5.758   9.622  0.0786 -2.2821  0.5653
 1009MOL0     H36156   0.909   5.567   9.447  0.4389  2.0180 -0.3352
 1009MOL0     H36157   0.986   5.691   9.546  0.1764 -0.2867 -0.2588
 1009MOL0     H36158   0.905   5.608   9.760 -1.7493  0.8584  0.4469
 1009MOL0     H36159   0.786   5.510   9.685 -0.6032  2.1678  1.3369
 1009MOL0     H36160   0.928   5.342   9.621 -2.5952  1.3736  0.2531
 1009MOL0     H36161   1.071   5.446   9.602 -2.2458 -0.5284 -3.2497
 1009MOL0     H36162   1.117   5.443   9.845  1.1371 -1.5411 -0.3219
 1009MOL0     H36163   1.073   5.282   9.793  1.2850  0.4383 -0.3171
 1009MOL0     H36164   0.866   5.449   9.957 -0.4577  0.1899  2.1060
 1009MOL0     H36165   0.816   5.327   9.853 -1.0829  3.4422 -3.4696
 1009MOL0     H36166   1.120   5.346  10.103  0.0814 -0.0135 -2.3126
 1009MOL0     H36167   1.151   5.002  10.223 -2.4906  0.5514 -0.8340
 1009MOL0     H36168   1.230   5.169  10.206 -0.7944  1.7017  1.2592
 1009MOL0     H36169   1.238   5.076  10.429 -0.8027  0.0169  1.9033
 1009MOL0     H36170   1.156   5.231  10.442 -0.2980  0.1977 -1.3382
 1009MOL0     H36171   1.064   5.033  10.571 -0.3749  2.8395  1.1278
 1009MOL0     H36172   1.017   4.966  10.416 -0.4841 -0.6869  0.2398
 1009MOL0     H36173   0.823   5.068  10.527 -1.1168  1.2421  1.0997
 1009MOL0     H36174   0.862   5.146  10.367  1.0060  0.8703  0.1969
 1009MOL0     H36175   0.649   5.198  10.493 -0.5398  1.1492 -0.9820
 1009MOL0     H36176   0.458   5.336  10.584  0.9414 -0.6255  1.6507
 1009MOL0     H36177   0.314   5.698  10.890  4.6121 -0.2807  0.9106
 1009MOL0     H36178   0.139   5.872  10.952  1.1668 -1.4396  2.2148
 1009MOL0     H36179  -0.048   6.200  10.909  0.0135  0.6050  0.6019
 1009MOL0     H36180   0.057   6.073  10.996  0.4481 -1.7324 -0.8855
 1009MOL0     H36181   0.142   6.296  11.057  5.0127  0.5556  0.8977
 1009MOL0     H36182   0.253   6.214  10.960  0.5549  1.0279 -2.4723
 1009MOL0     H36183   0.182   6.351  10.751 -1.1376  3.9205 -2.6098
 1009MOL0     H36184   0.067   6.429  10.849  0.2122  0.3507 -2.1745
 1009MOL0     H36185   0.359   6.439  10.819  0.1901  2.9211 -2.8443
 1009MOL0     H36186   0.325   6.449  10.984  3.9831 -0.9996 -0.2583
 1009MOL0     H36187   0.216   6.620  10.747  0.9716 -0.1465 -0.2868
 1009MOL0     H36188   0.340   6.665  10.868 -0.5278  1.2513 -1.4618
 1009MOL0     H36189   0.049   6.621  10.932  0.1872 -0.0643  0.9825
 1009MOL0     H36190   0.166   6.674  11.054  1.3985  2.3173 -0.1801
 1009MOL0     H36191   0.046   6.808  10.822 -1.1483 -1.7166  0.4241
 1009MOL0     H36192   0.214   6.864  10.863  0.0142  2.2178  3.1455
 1009MOL0     H36193   0.128   6.919  11.093  1.6440  0.4426 -0.6788
 1009MOL0     H36194   0.056   7.016  10.959  2.0552  0.9568  1.2141
 1009MOL0     H36195   0.265   6.097  10.607 -3.5889  1.8410  2.4764
 1009MOL0     H36196   0.459   5.945  10.579 -2.6253  1.3669 -2.9257
 1009MOL0     H36197   0.738   5.645  10.676 -3.2587  1.4269 -1.6208
 1009MOL0     H36198   0.931   5.489  10.627 -0.5336  1.5600  1.2330
 1009MOL0     H36199   0.511   6.132   9.335 -0.3500  0.9713 -0.9243
 1009MOL0     H36200   0.311   6.243   9.357  0.2127  1.5045  0.0804
 1009MOL0     H36201  -0.085   6.281   9.530  0.5512  0.7929 -0.9688
 1009MOL0     H36202  -0.309   6.362   9.603  1.6470 -2.0914  0.3186
 1009MOL0     H36203  -0.352   6.800   9.622  0.4309  0.1459 -0.4094
 1009MOL0     H36204  -0.319   6.779   9.794  0.0133  1.8886 -0.7884
 1009MOL0     H36205  -0.551   6.682   9.819 -0.1740 -0.4574 -0.3052
 1009MOL0     H36206  -0.591   6.743   9.658 -1.2484  3.1654 -0.0999
 1009MOL0     H36207  -0.497   6.914   9.887 -3.1712 -1.6668  2.2379
 1009MOL0     H36208  -0.662   6.871   9.833 -1.1320  0.8825 -1.6540
 1009MOL0     H36209  -0.436   7.041   9.716  0.3831  1.8505  1.1324
 1009MOL0     H36210  -0.555   6.963   9.596 -0.1845 -2.3020  0.6331
 1009MOL0     H36211  -0.762   7.262   9.838 -0.2639 -2.1153  2.1853
 1009MOL0     H36212  -0.135   6.746   9.693  2.0128  0.6540 -1.4840
 1009MOL0     H36213   0.179   6.637   9.733  3.4775  0.8704 -1.9358
 1009MOL0     H36214   0.193   6.680   9.562  1.8375 -1.6181  2.2251
 1009MOL0     H36215   0.097   6.781   9.670 -2.9269 -0.9531  1.1307
 1010MOL0     O36216   6.485   5.082   4.176 -0.2269  0.6407  0.3581
 1010MOL0     C36217   6.479   5.175   4.258  0.4121 -0.1356  0.6781
 1010MOL0     O36218   6.436   5.159   4.381  1.0068  1.0214  0.0355
 1010MOL0     C36219   6.418   5.035   4.444  0.1061 -0.6683 -0.3187
 1010MOL0     C36220   6.313   5.027   4.542  0.7578  0.9346  0.0979
 1010MOL0     C36221   6.286   4.908   4.612 -0.1898 -0.2957 -0.1912
 1010MOL0     C36222   6.371   4.806   4.603 -0.8118  0.4359  0.7800
 1010MOL0     O36223   6.352   4.686   4.671 -0.7169  0.3003  0.2240
 1010MOL0     C36224   6.238   4.656   4.749 -0.2344 -0.8808 -0.8250
 1010MOL0     C36225   6.250   4.516   4.810 -0.7807  0.4223 -0.0928
 1010MOL0     C36226   6.141   4.474   4.909 -0.1805  0.4033 -0.0349
 1010MOL0     C36227   6.160   4.546   5.039 -0.1958  0.0016 -0.1806
 1010MOL0     C36228   6.056   4.500   5.145  0.2059  0.4184 -0.4164
 1010MOL0     C36229   6.109   4.506   5.290 -0.2835 -1.0688  0.4634
 1010MOL0     C36230   6.205   4.393   5.311 -0.7261  0.0699 -0.8159
 1010MOL0     C36231   6.315   4.435   5.421 -0.1619 -0.5161  0.0299
 1010MOL0     N36232   6.399   4.543   5.378  0.0790 -0.3167 -0.4355
 1010MOL0     C36233   6.478   4.537   5.260 -0.1166  0.6278 -0.2844
 1010MOL0     C36234   6.482   4.656   5.199 -0.2874 -0.0218 -0.8398
 1010MOL0     C36235   6.524   4.691   5.067 -0.5787  0.0476 -0.1945
 1010MOL0     C36236   6.613   4.815   5.062  0.0173  0.2356  0.6476
 1010MOL0     C36237   6.608   4.890   4.934 -1.4628 -0.3678 -0.4443
 1010MOL0     C36238   6.484   4.982   4.919  0.1757  0.0635  0.5803
 1010MOL0     O36239   6.496   5.065   4.799 -0.2706 -0.1509 -1.0161
 1010MOL0     C36240   6.560   5.184   4.811 -0.0658  0.2787  0.1322
 1010MOL0     C36241   6.523   5.264   4.705  0.8811 -0.2851 -1.0721
 1010MOL0     C36242   6.571   5.397   4.700  0.8862  0.0491 -0.2711
 1010MOL0     C36243   6.660   5.452   4.799 -0.2773 -1.5759  0.4690
 1010MOL0     C36244   6.696   5.594   4.786  0.5065 -0.7920  0.2323
 1010MOL0     O36245   6.666   5.667   4.670 -0.6501 -0.2287 -0.3167
 1010MOL0     C36246   6.700   5.804   4.658  0.0179 -0.5499 -0.3515
 1010MOL0     C36247   6.819   5.853   4.707 -0.7393 -0.0384 -0.5225
 1010MOL0     C36248   6.852   5.983   4.679 -1.1745 -0.4606 -0.1350
 1010MOL0     C36249   6.770   6.057   4.600 -0.6118 -0.5011 -0.3454
 1010MOL0     O36250   6.832   6.162   4.541 -0.0602  0.0631 -0.2224
 1010MOL0     C36251   6.894   6.265   4.628  0.8129  0.2666  0.2374
 1010MOL0     C36252   6.798   6.322   4.732  0.1597 -0.1009 -0.8367
 1010MOL0     C36253   6.685   6.392   4.677  0.5717  0.6018 -0.0337
 1010MOL0     C36254   6.592   6.405   4.792  1.0106  0.0372 -0.3481
 1010MOL0     C36255   6.447   6.451   4.763 -0.2228  0.8506 -0.9105
 1010MOL0     C36256   6.377   6.452   4.898  0.5098  0.6760 -0.7783
 1010MOL0     C36257   6.245   6.531   4.900 -0.3473 -0.2079  0.0324
 1010MOL0     C36258   6.196   6.551   5.042  1.1267 -0.0706  0.2504
 1010MOL0    Cl36259   6.199   6.409   5.160  0.1967 -0.5626  0.0118
 1010MOL0     C36260   6.647   6.019   4.553 -0.3655 -0.2561 -0.4203
 1010MOL0     C36261   6.608   5.887   4.587  0.6282  0.5010 -0.4182
 1010MOL0     O36262   6.743   5.644   4.887 -0.3313 -0.5172  0.2606
 1010MOL0     C36263   6.706   5.371   4.906 -0.1605 -0.0736 -1.0679
 1010MOL0     C36264   6.645   5.243   4.912  0.5192  0.1336 -0.3595
 1010MOL0     N36265   6.421   4.741   5.294 -0.2125  0.0018  0.8035
 1010MOL0     N36266   6.375   4.676   5.391 -0.2335 -0.5875 -0.5477
 1010MOL0     C36267   6.480   4.816   4.516 -0.7159  0.6205  0.0721
 1010MOL0     C36268   6.510   4.927   4.436 -0.4219  0.3258 -1.1625
 1010MOL0     C36269   6.515   5.316   4.217  0.0060  0.4343  0.4187
 1010MOL0     C36270   6.483   5.412   4.313 -0.3618 -1.4415 -0.2805
 1010MOL0     C36271   6.512   5.552   4.286 -0.6650  0.1094  0.4069
 1010MOL0     C36272   6.570   5.594   4.161 -0.2264 -0.0128 -0.3674
 1010MOL0     O36273   6.594   5.722   4.129  0.0965 -0.2132 -0.8821
 1010MOL0     C36274   6.600   5.807   4.240 -0.3116 -0.0881 -0.0489
 1010MOL0     C36275   6.640   5.943   4.185  0.9120  0.0711  0.3094
 1010MOL0     C36276   6.543   6.010   4.099 -0.7622 -0.5151 -0.2779
 1010MOL0     C36277   6.458   6.121   4.169 -0.4393 -0.0995 -0.1702
 1010MOL0     C36278   6.522   6.228   4.222 -0.2946 -0.3504  0.1888
 1010MOL0     C36279   6.584   6.326   4.280 -0.2482  0.3642  0.9379
 1010MOL0     C36280   6.617   5.479   4.080  0.3356 -0.5802  0.1132
 1010MOL0     C36281   6.579   5.348   4.092  0.3015  0.7414  0.3002
 1010MOL0     C36282   6.589   5.256   3.965  0.4368  0.0331  0.2735
 1010MOL0     H36283   6.253   5.116   4.556 -0.6355  0.3649 -1.8353
 1010MOL0     H36284   6.206   4.908   4.685  1.7297  2.7090  2.1975
 1010MOL0     H36285   6.235   4.731   4.829 -2.1731 -1.1742 -0.5794
 1010MOL0     H36286   6.145   4.662   4.691 -0.5694  1.1188 -0.1671
 1010MOL0     H36287   6.343   4.518   4.868 -0.5795  0.9118 -0.4317
 1010MOL0     H36288   6.258   4.436   4.737 -2.1980 -0.6328  0.8410
 1010MOL0     H36289   6.143   4.367   4.932 -0.6533 -0.0064 -1.7746
 1010MOL0     H36290   6.046   4.505   4.862 -2.2870 -0.9758  2.9908
 1010MOL0     H36291   6.263   4.534   5.074 -0.3793  0.6215  0.6002
 1010MOL0     H36292   6.151   4.655   5.034 -3.7265 -0.2519 -2.5084
 1010MOL0     H36293   5.966   4.562   5.139  0.5506  1.0116  0.3652
 1010MOL0     H36294   6.027   4.395   5.132 -2.1719  0.9990 -0.3389
 1010MOL0     H36295   6.142   4.606   5.320  3.9417 -2.0937 -0.0590
 1010MOL0     H36296   6.022   4.480   5.350 -0.3590 -0.6059  0.5562
 1010MOL0     H36297   6.261   4.361   5.223  0.4164  0.6346 -0.3150
 1010MOL0     H36298   6.161   4.304   5.356  0.0894 -0.7283 -1.5540
 1010MOL0     H36299   6.255   4.477   5.503  0.5471 -0.4898  0.5368
 1010MOL0     H36300   6.370   4.345   5.448 -1.3456 -1.8859 -1.8899
 1010MOL0     H36301   6.515   4.444   5.218  2.9356  1.4714  0.2634
 1010MOL0     H36302   6.583   4.608   5.027  1.2891  1.6088 -0.8256
 1010MOL0     H36303   6.439   4.705   4.999  0.4075  1.5261 -1.1841
 1010MOL0     H36304   6.590   4.877   5.149 -1.3603 -0.3776  0.7484
 1010MOL0     H36305   6.716   4.784   5.083  0.2029 -0.2294 -0.8138
 1010MOL0     H36306   6.616   4.808   4.862  4.4558  0.3352 -1.0134
 1010MOL0     H36307   6.701   4.947   4.931 -0.9175 -1.2382 -3.9977
 1010MOL0     H36308   6.466   5.047   5.006 -3.2458  0.6763 -0.4169
 1010MOL0     H36309   6.399   4.914   4.906  0.7093 -0.0222 -3.8115
 1010MOL0     H36310   6.449   5.223   4.637  1.9695 -0.1911 -2.3594
 1010MOL0     H36311   6.525   5.451   4.618  1.4202  0.6857 -0.1585
 1010MOL0     H36312   6.896   5.793   4.754  0.8027  1.0870 -1.5136
 1010MOL0     H36313   6.954   6.018   4.694 -0.4754 -0.9218 -3.1248
 1010MOL0     H36314   6.985   6.228   4.677  1.0672 -1.7748 -1.6329
 1010MOL0     H36315   6.932   6.339   4.557 -1.1142 -0.7436 -1.9636
 1010MOL0     H36316   6.765   6.237   4.793 -2.1582  0.1617 -1.6213
 1010MOL0     H36317   6.855   6.378   4.807 -1.9703 -2.2271  2.6291
 1010MOL0     H36318   6.715   6.490   4.637 -1.0402  0.7906 -0.8332
 1010MOL0     H36319   6.635   6.336   4.598  2.0921 -1.8767  0.6584
 1010MOL0     H36320   6.644   6.451   4.877  0.3142 -1.3112  0.8773
 1010MOL0     H36321   6.578   6.303   4.831 -1.2896  1.1021  1.8864
 1010MOL0     H36322   6.405   6.378   4.693  0.4486 -0.1790 -0.2558
 1010MOL0     H36323   6.449   6.544   4.704 -2.5827 -0.6379 -3.6210
 1010MOL0     H36324   6.351   6.349   4.925  1.4884  0.0685 -2.0068
 1010MOL0     H36325   6.440   6.491   4.978 -0.4507  0.9276 -0.1261
 1010MOL0     H36326   6.168   6.476   4.844 -0.2505 -0.4951  0.1788
 1010MOL0     H36327   6.254   6.627   4.849  1.0889  0.1963  0.9978
 1010MOL0     H36328   6.242   6.644   5.077 -1.7091  1.3291  0.5701
 1010MOL0     H36329   6.095   6.592   5.042  1.8237  1.8077 -0.9883
 1010MOL0     H36330   6.578   6.083   4.499  0.0514  0.9212  0.4294
 1010MOL0     H36331   6.523   5.837   4.540  0.4837 -1.0408  1.3753
 1010MOL0     H36332   6.772   5.399   4.986 -1.4874  0.2043 -0.0273
 1010MOL0     H36333   6.667   5.184   5.000 -0.7749  2.3701  1.5992
 1010MOL0     H36334   6.544   4.730   4.503 -0.7833  0.6114 -0.2031
 1010MOL0     H36335   6.597   4.937   4.372 -1.8437  2.8823 -2.8669
 1010MOL0     H36336   6.443   5.395   4.412 -1.6814  0.9864 -0.3219
 1010MOL0     H36337   6.486   5.622   4.364  2.0032  3.3640 -1.3265
 1010MOL0     H36338   6.672   5.758   4.306 -4.2604 -5.7316  0.8802
 1010MOL0     H36339   6.503   5.820   4.290 -0.1493 -0.2467  0.3107
 1010MOL0     H36340   6.730   5.939   4.123  1.9471 -1.2329  1.8232
 1010MOL0     H36341   6.662   6.017   4.263 -1.9144 -0.7098  1.9891
 1010MOL0     H36342   6.471   5.938   4.060 -1.3584 -0.3999  0.5901
 1010MOL0     H36343   6.595   6.056   4.014 -0.0530 -1.3753 -0.3194
 1010MOL0     H36344   6.390   6.165   4.095 -0.0626  0.6149 -0.0969
 1010MOL0     H36345   6.401   6.067   4.246 -2.3497  2.2914  0.1939
 1010MOL0     H36346   6.636   6.412   4.316  0.1537  1.0156 -1.0412
 1010MOL0     H36347   6.676   5.502   3.991 -0.0296  1.2359  0.3097
 1010MOL0     H36348   6.658   5.172   3.984  2.1749  0.8836 -1.8208
 1010MOL0     H36349   6.486   5.222   3.952 -0.1151  0.0135  3.7233
 1010MOL0     H36350   6.615   5.308   3.872 -2.9816 -2.1849 -2.1779
 1011MOL0     O36351   2.692   2.818   6.810  0.2251 -0.1538 -0.3717
 1011MOL0     C36352   2.617   2.914   6.841  0.1740 -0.9472  0.5570
 1011MOL0     O36353   2.492   2.900   6.891 -0.7843  0.6457  0.2157
 1011MOL0     C36354   2.434   2.780   6.924 -0.4351  0.0380 -0.6915
 1011MOL0     C36355   2.390   2.744   7.054  0.8188  1.0363 -0.3276
 1011MOL0     C36356   2.334   2.612   7.079 -0.6474 -1.4306  0.1103
 1011MOL0     C36357   2.305   2.523   6.968 -0.0400 -1.0175 -0.0692
 1011MOL0     O36358   2.236   2.407   6.973  0.0783 -0.4505  0.1434
 1011MOL0     C36359   2.183   2.379   7.107 -0.0442 -0.0090  0.2362
 1011MOL0     C36360   2.107   2.242   7.102 -0.4477  0.3979  0.9175
 1011MOL0     C36361   2.193   2.124   7.041  0.2735  0.0562 -0.2241
 1011MOL0     C36362   2.334   2.107   7.107  0.0194  0.3176  0.2881
 1011MOL0     C36363   2.388   1.968   7.070  0.7437  1.3174  1.5625
 1011MOL0     C36364   2.530   1.951   7.124 -0.2358 -0.1211 -0.4749
 1011MOL0     C36365   2.604   1.825   7.089 -0.1945 -0.5627  0.6990
 1011MOL0     C36366   2.742   1.819   7.144 -0.3752  0.6548 -1.3951
 1011MOL0     N36367   2.825   1.708   7.086 -0.0640  0.6673 -0.1680
 1011MOL0     C36368   2.886   1.598   7.147  0.4211  0.0430  0.2352
 1011MOL0     C36369   2.914   1.518   7.046  0.5049  0.5771  0.4757
 1011MOL0     C36370   2.958   1.376   7.073 -0.0500  0.1684 -0.1029
 1011MOL0     C36371   2.852   1.294   7.141  0.5057  0.3649  0.2168
 1011MOL0     C36372   2.890   1.152   7.164  0.7342  0.5455  0.2679
 1011MOL0     C36373   2.803   1.073   7.262  0.8798  0.1632  0.8853
 1011MOL0     O36374   2.856   0.937   7.249 -0.1252  0.1249 -0.3431
 1011MOL0     C36375   2.982   0.913   7.299 -1.0003  0.6764 -0.4672
 1011MOL0     C36376   3.033   0.964   7.420  0.9426 -1.1893 -0.0391
 1011MOL0     C36377   3.167   0.950   7.460  0.2637  0.9602 -0.3119
 1011MOL0     C36378   3.253   0.877   7.376 -0.0791  0.1422 -0.5354
 1011MOL0     C36379   3.385   0.837   7.429  0.5178  0.0299 -0.7248
 1011MOL0     O36380   3.418   0.875   7.556 -0.3934  0.1401 -0.2236
 1011MOL0     C36381   3.476   0.776   7.622  0.6683 -0.1677 -0.3270
 1011MOL0     C36382   3.608   0.776   7.650 -0.8047  0.0653 -0.1157
 1011MOL0     C36383   3.652   0.672   7.734  0.0816  0.0320 -0.7491
 1011MOL0     C36384   3.573   0.557   7.764  0.4617 -0.5362  0.3797
 1011MOL0     O36385   3.632   0.457   7.824  0.1837 -0.0854 -0.5734
 1011MOL0     C36386   3.579   0.320   7.812  0.3150  0.0623 -0.5034
 1011MOL0     C36387   3.668   0.214   7.865  0.0931 -0.0912 -0.0877
 1011MOL0     C36388   3.713   0.228   8.008 -0.3019  0.7332  0.5334
 1011MOL0     C36389   3.592   0.190   8.110 -0.4829  0.2924 -0.0327
 1011MOL0     C36390   3.627   0.195   8.265 -0.8422  1.0764  0.2966
 1011MOL0     C36391   3.748   0.097   8.303  0.1530  0.5221  0.1006
 1011MOL0     C36392   3.713  -0.044   8.253  0.5921  0.6056 -0.2321
 1011MOL0     C36393   3.841  -0.116   8.246  0.5525  0.1276 -0.1683
 1011MOL0    Cl36394   3.825  -0.284   8.181  0.6387  0.0483 -0.2144
 1011MOL0     C36395   3.439   0.565   7.726  0.0140  0.0928 -0.0087
 1011MOL0     C36396   3.389   0.676   7.655  0.3719  0.3044  0.7260
 1011MOL0     O36397   3.442   0.753   7.365  0.0692 -0.8117  0.3028
 1011MOL0     C36398   3.197   0.823   7.258 -0.1430  0.6590  0.2553
 1011MOL0     C36399   3.069   0.839   7.214  0.2304  0.1713 -0.2143
 1011MOL0     N36400   2.879   1.574   6.925 -0.9105  0.1177  0.0514
 1011MOL0     N36401   2.823   1.687   6.953  0.4370  0.0108 -0.7242
 1011MOL0     C36402   2.335   2.573   6.832  0.3176  0.0605  0.2012
 1011MOL0     C36403   2.395   2.700   6.812 -0.3096  1.7378 -0.3317
 1011MOL0     C36404   2.672   3.051   6.819 -0.5740 -0.0864 -0.3286
 1011MOL0     C36405   2.810   3.056   6.780  0.0497  0.4786  0.2030
 1011MOL0     C36406   2.870   3.179   6.761  0.4719  0.5528  0.2567
 1011MOL0     C36407   2.812   3.308   6.783 -0.6263 -0.0145 -0.2013
 1011MOL0     O36408   2.881   3.425   6.749  0.1867  0.1704 -0.2290
 1011MOL0     C36409   2.812   3.512   6.660 -0.8983 -0.1378 -0.2560
 1011MOL0     C36410   2.892   3.614   6.581 -0.2392  0.0355  0.2760
 1011MOL0     C36411   3.009   3.544   6.509  0.1660 -0.0022  0.1762
 1011MOL0     C36412   3.133   3.508   6.594  0.0830  0.3964 -0.8412
 1011MOL0     C36413   3.236   3.430   6.512 -0.2212 -0.9061  0.2227
 1011MOL0     C36414   3.314   3.371   6.438 -0.5192  0.3708 -0.1102
 1011MOL0     C36415   2.680   3.305   6.822  0.6708  0.9042 -0.0491
 1011MOL0     C36416   2.609   3.181   6.844  0.1886 -0.5046  0.1519
 1011MOL0     C36417   2.462   3.196   6.881 -0.4232  0.3295  0.1560
 1011MOL0     H36418   2.406   2.812   7.136 -2.0982  1.1926  0.2208
 1011MOL0     H36419   2.328   2.580   7.182  0.0151 -0.3485  0.5055
 1011MOL0     H36420   2.271   2.387   7.171  0.8761  0.5613 -1.0447
 1011MOL0     H36421   2.113   2.458   7.137 -1.1585 -1.0352  0.4099
 1011MOL0     H36422   2.010   2.258   7.054  0.3835  2.9922 -0.0699
 1011MOL0     H36423   2.088   2.210   7.205 -0.7110 -0.8090  0.5057
 1011MOL0     H36424   2.217   2.154   6.938  1.3537  0.3899  0.1087
 1011MOL0     H36425   2.141   2.028   7.032  0.6840 -0.2360  0.4591
 1011MOL0     H36426   2.393   2.190   7.067 -2.7391  2.1778 -0.2225
 1011MOL0     H36427   2.346   2.114   7.216  0.8572 -4.1666  0.6502
 1011MOL0     H36428   2.328   1.881   7.097 -0.1675  1.0678 -1.0401
 1011MOL0     H36429   2.384   1.947   6.963 -0.4726  0.2091  1.7976
 1011MOL0     H36430   2.591   2.028   7.077  2.4757  0.2497  3.2281
 1011MOL0     H36431   2.526   1.963   7.232  1.5897  3.2793 -0.6686
 1011MOL0     H36432   2.613   1.827   6.980 -2.5693 -2.0010  0.4092
 1011MOL0     H36433   2.541   1.738   7.113 -0.8827 -1.4769 -3.5740
 1011MOL0     H36434   2.794   1.911   7.115  2.0895 -0.9271 -2.3347
 1011MOL0     H36435   2.737   1.805   7.252  1.0767 -1.9707 -1.6018
 1011MOL0     H36436   2.892   1.570   7.252  0.3038 -0.6003  0.0758
 1011MOL0     H36437   2.987   1.333   6.977  1.1983  1.4464 -0.3278
 1011MOL0     H36438   3.046   1.366   7.137 -0.1461  4.1283  0.9407
 1011MOL0     H36439   2.834   1.336   7.241 -2.6299  1.5998 -0.7462
 1011MOL0     H36440   2.763   1.291   7.078  2.5595 -2.1345 -2.8797
 1011MOL0     H36441   2.991   1.143   7.205 -0.1830 -1.6357  2.2823
 1011MOL0     H36442   2.896   1.095   7.071 -0.8378  0.2465  0.3156
 1011MOL0     H36443   2.698   1.059   7.233  1.1668  0.6155 -0.4401
 1011MOL0     H36444   2.810   1.115   7.362  0.5444 -0.0065  0.9811
 1011MOL0     H36445   2.964   1.021   7.481  0.8505 -0.3342 -0.9125
 1011MOL0     H36446   3.206   1.020   7.533 -0.2795 -1.0446  2.0279
 1011MOL0     H36447   3.667   0.854   7.602 -1.1183  0.3653 -0.0138
 1011MOL0     H36448   3.753   0.674   7.774 -0.0556  3.8472 -0.1759
 1011MOL0     H36449   3.477   0.314   7.851  0.9248 -1.0467  1.0753
 1011MOL0     H36450   3.571   0.291   7.707 -0.3054 -2.2936  0.1350
 1011MOL0     H36451   3.611   0.121   7.852  0.3130 -0.0028 -1.9174
 1011MOL0     H36452   3.755   0.208   7.799 -1.4599 -1.1896 -2.1634
 1011MOL0     H36453   3.773   0.137   8.021 -3.1889 -1.6297 -1.1597
 1011MOL0     H36454   3.761   0.322   8.036 -1.0035  2.3257 -3.0594
 1011MOL0     H36455   3.532   0.107   8.073 -0.5460  1.5261 -2.9867
 1011MOL0     H36456   3.517   0.267   8.087 -2.4778 -2.3730 -3.2479
 1011MOL0     H36457   3.532   0.168   8.312 -2.7326  1.5823 -2.9247
 1011MOL0     H36458   3.665   0.296   8.282  2.0572  0.5705 -2.2760
 1011MOL0     H36459   3.840   0.136   8.258 -1.8025  5.0271 -0.4975
 1011MOL0     H36460   3.755   0.100   8.412  0.0862 -3.1162  0.3460
 1011MOL0     H36461   3.663  -0.045   8.155 -1.6208  0.0663  0.8473
 1011MOL0     H36462   3.650  -0.100   8.322  0.1458 -1.2823 -2.0412
 1011MOL0     H36463   3.913  -0.056   8.191 -0.8483  0.5617 -1.6051
 1011MOL0     H36464   3.880  -0.118   8.348 -2.3353  2.1037  1.1107
 1011MOL0     H36465   3.374   0.480   7.743  1.6497 -0.9566  1.3025
 1011MOL0     H36466   3.284   0.693   7.634 -0.1542  0.3375  3.0775
 1011MOL0     H36467   3.267   0.777   7.188  3.3800  4.5364  0.8527
 1011MOL0     H36468   3.031   0.797   7.122 -2.0231 -5.1916  2.7332
 1011MOL0     H36469   2.309   2.512   6.745 -0.2854  0.6852 -0.0675
 1011MOL0     H36470   2.409   2.738   6.711 -1.9745  1.5438 -0.6577
 1011MOL0     H36471   2.874   2.969   6.766  1.1019  1.0584  1.2219
 1011MOL0     H36472   2.975   3.179   6.735  0.5158  0.8616  0.4216
 1011MOL0     H36473   2.751   3.578   6.722 -3.5853  0.5322 -3.3231
 1011MOL0     H36474   2.749   3.456   6.591 -3.3323 -0.5890  2.1926
 1011MOL0     H36475   2.925   3.697   6.643 -2.9017  3.1669 -2.1448
 1011MOL0     H36476   2.824   3.658   6.507 -0.9320 -0.9133  0.3258
 1011MOL0     H36477   3.042   3.600   6.421  1.4108 -0.5320  0.2851
 1011MOL0     H36478   2.966   3.456   6.460 -1.0659  1.1860 -0.9645
 1011MOL0     H36479   3.184   3.601   6.619 -1.0725  0.8620 -0.1451
 1011MOL0     H36480   3.109   3.467   6.693  4.4951 -0.7335 -0.0287
 1011MOL0     H36481   3.375   3.336   6.357 -0.6222  0.9198 -0.4289
 1011MOL0     H36482   2.634   3.400   6.849 -2.4374  0.0512 -1.8567
 1011MOL0     H36483   2.427   3.297   6.858  2.1443  1.2032 -0.1677
 1011MOL0     H36484   2.395   3.123   6.833 -1.8729  1.7502 -0.0583
 1011MOL0     H36485   2.449   3.187   6.990 -0.3232  1.6883  0.2947
 1012MOL0     O36486   8.125  10.615   5.757 -0.4473  0.4935 -0.2082
 1012MOL0     C36487   8.112  10.731   5.717  0.2910  0.1341 -0.2543
 1012MOL0     O36488   8.000  10.815   5.729  0.6088  0.1994  0.5282
 1012MOL0     C36489   7.880  10.757   5.756  0.6489 -0.5563  0.1112
 1012MOL0     C36490   7.845  10.626   5.722  0.0877 -0.6921 -0.5022
 1012MOL0     C36491   7.721  10.570   5.757 -1.4683 -0.5035  0.1128
 1012MOL0     C36492   7.619  10.645   5.817 -0.0279 -0.7774 -0.3512
 1012MOL0     O36493   7.514  10.586   5.890  0.2147 -0.0590 -0.1978
 1012MOL0     C36494   7.376  10.613   5.845 -0.1992  0.1130  0.5397
 1012MOL0     C36495   7.267  10.588   5.952 -0.2904 -0.7009 -0.8819
 1012MOL0     C36496   7.134  10.572   5.887  0.0068  0.3902  0.0174
 1012MOL0     C36497   7.096  10.668   5.773 -0.5948 -0.5156 -0.3423
 1012MOL0     C36498   6.979  10.619   5.690 -0.2898  0.6902  0.5569
 1012MOL0     C36499   6.911  10.716   5.578  0.0485 -0.3226 -0.2102
 1012MOL0     C36500   6.761  10.672   5.524 -0.2899  0.3188 -0.3296
 1012MOL0     C36501   6.709  10.751   5.405 -0.2294  0.3969  0.3300
 1012MOL0     N36502   6.718  10.897   5.421  0.2961 -1.1940  0.7788
 1012MOL0     C36503   6.608  10.972   5.449 -0.6664  0.2254  0.1467
 1012MOL0     C36504   6.656  11.105   5.467  0.5073  0.3907 -0.5955
 1012MOL0     C36505   6.560  11.207   5.524  0.0407  1.1295 -0.1003
 1012MOL0     C36506   6.571  11.334   5.434  0.0850  0.1545 -0.0472
 1012MOL0     C36507   6.518  11.451   5.511  0.1912 -0.1745 -0.4608
 1012MOL0     C36508   6.606  11.490   5.631 -0.4374 -0.0636  0.1803
 1012MOL0     O36509   6.728  11.539   5.591 -0.5368 -0.3611 -0.0463
 1012MOL0     C36510   6.831  11.509   5.685  0.1447  0.3816  0.0708
 1012MOL0     C36511   6.941  11.432   5.651 -1.6041 -0.6646  0.7244
 1012MOL0     C36512   7.041  11.415   5.749  0.6225 -0.4733 -0.1286
 1012MOL0     C36513   7.037  11.487   5.873  1.0727 -0.4020 -0.2474
 1012MOL0     C36514   7.146  11.487   5.967 -0.0838  1.1489  0.3287
 1012MOL0     O36515   7.118  11.531   6.095 -0.5909  0.8093  0.1190
 1012MOL0     C36516   7.220  11.525   6.182 -0.4557 -0.5870 -0.3622
 1012MOL0     C36517   7.271  11.644   6.238 -0.3439 -0.1908 -0.0060
 1012MOL0     C36518   7.367  11.642   6.340 -1.0101  0.4117  0.0482
 1012MOL0     C36519   7.431  11.520   6.375  1.3153 -0.9856  0.3840
 1012MOL0     O36520   7.538  11.525   6.462 -0.1514 -0.8450  0.3497
 1012MOL0     C36521   7.669  11.514   6.400 -0.5970 -0.1264  0.6914
 1012MOL0     C36522   7.762  11.599   6.494  0.1180  0.0225  0.8994
 1012MOL0     C36523   7.901  11.595   6.432 -0.0492 -0.9998  0.0502
 1012MOL0     C36524   7.981  11.468   6.480 -0.3727  0.6285  0.4138
 1012MOL0     C36525   8.129  11.453   6.436 -0.1053  0.4999 -0.6276
 1012MOL0     C36526   8.184  11.319   6.474  0.3318  0.4118 -0.2450
 1012MOL0     C36527   8.342  11.301   6.462  0.4745 -0.2165 -0.8428
 1012MOL0     C36528   8.392  11.169   6.525  0.5668 -0.3248 -0.2507
 1012MOL0    Cl36529   8.394  11.196   6.714  0.3942 -0.5691  0.1777
 1012MOL0     C36530   7.391  11.404   6.310  0.1433  0.2376  0.4566
 1012MOL0     C36531   7.285  11.407   6.212 -0.8220  0.4501  0.3222
 1012MOL0     O36532   7.252  11.431   5.928 -0.4610  0.5650  0.1066
 1012MOL0     C36533   6.924  11.569   5.899  0.8695  0.2650 -0.4141
 1012MOL0     C36534   6.818  11.572   5.806 -0.3553  0.7365 -0.2069
 1012MOL0     N36535   6.792  11.104   5.459  0.1961  1.1060  0.2354
 1012MOL0     N36536   6.824  10.989   5.430 -0.3141  0.4182  0.3395
 1012MOL0     C36537   7.651  10.780   5.839  0.5462  0.3114  0.1484
 1012MOL0     C36538   7.775  10.837   5.804  0.7200 -0.1889 -0.5036
 1012MOL0     C36539   8.225  10.770   5.634 -0.1118 -0.3513 -0.7164
 1012MOL0     C36540   8.352  10.725   5.671 -0.0279  0.2575  0.1505
 1012MOL0     C36541   8.467  10.760   5.596 -0.7272  0.4510  0.1603
 1012MOL0     C36542   8.453  10.843   5.486 -0.7676 -0.4827  0.5378
 1012MOL0     O36543   8.572  10.879   5.429 -0.5814  0.1465 -0.0295
 1012MOL0     C36544   8.579  11.021   5.388  0.4279  0.3778  0.9870
 1012MOL0     C36545   8.574  11.120   5.497 -0.6021 -0.3930  0.5209
 1012MOL0     C36546   8.690  11.090   5.588  0.0944 -0.1850 -0.7077
 1012MOL0     C36547   8.722  11.225   5.662  0.0622  0.2843 -0.0020
 1012MOL0     C36548   8.794  11.198   5.788  0.1708 -0.4276  0.5357
 1012MOL0     C36549   8.850  11.169   5.892  0.2030  0.1022  0.2325
 1012MOL0     C36550   8.328  10.886   5.448  0.1523  0.3531 -0.2394
 1012MOL0     C36551   8.220  10.853   5.523  1.7756 -0.3079 -0.8348
 1012MOL0     C36552   8.091  10.901   5.455 -0.5298  0.5811  0.2759
 1012MOL0     H36553   7.912  10.561   5.667  1.3527  1.3702 -1.5643
 1012MOL0     H36554   7.722  10.462   5.742  0.9879 -0.5337 -0.0112
 1012MOL0     H36555   7.361  10.719   5.822  0.8293  1.0787  3.8040
 1012MOL0     H36556   7.373  10.559   5.749  0.3043  0.2996  0.4159
 1012MOL0     H36557   7.262  10.668   6.026 -3.8750 -2.3562  0.9443
 1012MOL0     H36558   7.303  10.497   5.999 -1.5811 -1.1555 -0.7215
 1012MOL0     H36559   7.050  10.585   5.957 -1.1756  1.9495 -1.5975
 1012MOL0     H36560   7.131  10.471   5.843  0.8859  0.0581  0.6924
 1012MOL0     H36561   7.067  10.761   5.822  0.5851  0.3215 -1.1653
 1012MOL0     H36562   7.176  10.692   5.703 -1.0117  1.8816 -0.0548
 1012MOL0     H36563   7.022  10.531   5.641  0.0253  2.0830 -1.7959
 1012MOL0     H36564   6.890  10.593   5.747 -4.5362  1.2136 -5.0048
 1012MOL0     H36565   6.905  10.816   5.621 -0.4759 -0.6171  0.4165
 1012MOL0     H36566   6.966  10.714   5.483 -2.6301  2.2515 -2.0109
 1012MOL0     H36567   6.698  10.689   5.612 -0.9502  0.5265 -0.8285
 1012MOL0     H36568   6.759  10.568   5.493  1.1366 -0.2950  1.4797
 1012MOL0     H36569   6.766  10.723   5.316 -0.9941 -0.5983  0.1377
 1012MOL0     H36570   6.609  10.710   5.387  0.6575 -1.2369 -1.2279
 1012MOL0     H36571   6.512  10.925   5.469  0.6318 -2.4482  0.5602
 1012MOL0     H36572   6.452  11.192   5.530 -0.0753  1.8554 -0.2888
 1012MOL0     H36573   6.588  11.217   5.630 -3.7217 -1.9802  1.4407
 1012MOL0     H36574   6.675  11.350   5.404 -0.4886  3.3231 -0.7656
 1012MOL0     H36575   6.523  11.320   5.337  0.4351 -2.3296  0.0926
 1012MOL0     H36576   6.415  11.430   5.544  0.7773  1.5639  2.9220
 1012MOL0     H36577   6.515  11.535   5.441  0.1120 -1.5600 -2.1801
 1012MOL0     H36578   6.620  11.414   5.709  4.8484  0.6839  0.3173
 1012MOL0     H36579   6.552  11.569   5.684 -1.4062 -0.1950 -0.5781
 1012MOL0     H36580   6.927  11.366   5.566 -1.9956  2.1102 -1.5134
 1012MOL0     H36581   7.130  11.358   5.722 -0.6112 -2.0448 -1.0035
 1012MOL0     H36582   7.225  11.732   6.194 -3.8259 -2.5182 -1.4900
 1012MOL0     H36583   7.404  11.738   6.376 -0.8918  0.1597  0.6002
 1012MOL0     H36584   7.703  11.412   6.416 -0.1589 -0.3272 -1.3251
 1012MOL0     H36585   7.659  11.546   6.296 -1.4344 -2.0860  0.1326
 1012MOL0     H36586   7.732  11.704   6.493  0.5197  0.1406 -0.4849
 1012MOL0     H36587   7.754  11.563   6.597  1.3155  1.6513  1.6049
 1012MOL0     H36588   7.901  11.609   6.324 -0.3821  1.9832  0.3301
 1012MOL0     H36589   7.957  11.679   6.476 -0.4919 -2.3350  3.4817
 1012MOL0     H36590   7.913  11.384   6.463 -1.3910  1.3395  0.8214
 1012MOL0     H36591   7.991  11.460   6.589 -1.5022  1.1655  0.5769
 1012MOL0     H36592   8.194  11.534   6.470 -1.4390  0.9357  1.0214
 1012MOL0     H36593   8.117  11.459   6.328  1.1783  2.5808 -0.7170
 1012MOL0     H36594   8.161  11.304   6.580 -2.0941  1.3158 -0.5863
 1012MOL0     H36595   8.132  11.248   6.408 -1.0409  2.7311 -1.7959
 1012MOL0     H36596   8.397  11.382   6.512 -1.5802 -0.4425  2.0540
 1012MOL0     H36597   8.353  11.303   6.353 -2.6360 -0.7705 -1.2524
 1012MOL0     H36598   8.335  11.081   6.494 -0.0483 -0.7886  2.0537
 1012MOL0     H36599   8.491  11.156   6.480  1.1248  1.8822  0.2141
 1012MOL0     H36600   7.453  11.319   6.337  2.4825  1.6600 -0.1460
 1012MOL0     H36601   7.257  11.312   6.168 -0.1263  0.1288  0.5528
 1012MOL0     H36602   6.919  11.624   5.993 -0.5981 -4.3580  2.5866
 1012MOL0     H36603   6.726  11.625   5.828  0.0940  1.0046  1.1302
 1012MOL0     H36604   7.569  10.842   5.874 -0.0501  1.9254 -3.6074
 1012MOL0     H36605   7.798  10.942   5.821  1.8256 -0.5190  0.1914
 1012MOL0     H36606   8.372  10.649   5.746 -1.6300 -0.8940 -0.5220
 1012MOL0     H36607   8.561  10.719   5.630  0.0154  0.4045 -1.8002
 1012MOL0     H36608   8.489  11.042   5.329 -0.5943 -0.2281  2.2672
 1012MOL0     H36609   8.667  11.041   5.326  1.1450  0.6340  2.0618
 1012MOL0     H36610   8.484  11.099   5.555 -0.6108 -0.9444  0.3141
 1012MOL0     H36611   8.582  11.223   5.461 -0.0592 -0.8916 -0.8728
 1012MOL0     H36612   8.779  11.035   5.557  1.2090 -0.6570  2.9017
 1012MOL0     H36613   8.659  11.017   5.663 -0.6619  0.4133 -0.4199
 1012MOL0     H36614   8.782  11.286   5.594  0.9411 -0.0897  0.4149
 1012MOL0     H36615   8.635  11.279   5.700  1.3105  2.1187  0.4428
 1012MOL0     H36616   8.904  11.122   5.972 -0.5693 -4.9013 -1.7681
 1012MOL0     H36617   8.321  10.950   5.361  1.5033 -0.9128 -1.3214
 1012MOL0     H36618   8.103  10.926   5.349  0.6334 -1.6802 -0.1838
 1012MOL0     H36619   7.999  10.846   5.480 -0.0754 -1.1140 -1.5782
 1012MOL0     H36620   8.064  10.995   5.505 -1.7830 -0.0009  0.7455
 1013MOL0     O36621   9.847   5.596   0.586  0.2751  0.4213  1.1053
 1013MOL0     C36622   9.946   5.668   0.566  0.2528 -0.2995  0.2770
 1013MOL0     O36623   9.952   5.793   0.609 -0.0259 -0.3047  0.3758
 1013MOL0     C36624   9.844   5.847   0.668  0.7786 -0.7041 -0.1170
 1013MOL0     C36625   9.730   5.863   0.591  0.8589  0.4081  0.4463
 1013MOL0     C36626   9.614   5.916   0.650  1.4498 -0.7840  0.5642
 1013MOL0     C36627   9.613   5.959   0.779 -0.8702  0.2600  0.2529
 1013MOL0     O36628   9.495   5.992   0.843  0.2697  0.0791 -0.9290
 1013MOL0     C36629   9.501   6.058   0.968  0.1959 -0.3852 -0.5552
 1013MOL0     C36630   9.360   6.115   1.007  0.2380  0.3231 -0.4901
 1013MOL0     C36631   9.309   6.230   0.912  0.7940  0.3876 -0.2932
 1013MOL0     C36632   9.153   6.229   0.907 -0.0673  0.3696 -0.0386
 1013MOL0     C36633   9.106   6.370   0.889  0.0112 -0.3018 -0.5695
 1013MOL0     C36634   8.954   6.372   0.883 -1.2982 -0.3703  0.5534
 1013MOL0     C36635   8.905   6.336   0.738  0.1803 -0.0361 -0.2261
 1013MOL0     C36636   8.764   6.363   0.712 -0.9850 -0.2486 -0.0778
 1013MOL0     N36637   8.720   6.321   0.577  0.5481 -0.7227 -0.0380
 1013MOL0     C36638   8.636   6.223   0.548  0.2805  0.5059  1.2223
 1013MOL0     C36639   8.616   6.231   0.409 -0.6363  0.3535 -0.8262
 1013MOL0     C36640   8.529   6.134   0.343 -0.7479 -0.7685  1.1110
 1013MOL0     C36641   8.388   6.122   0.391 -0.1918 -0.2549 -0.6943
 1013MOL0     C36642   8.297   6.244   0.362 -0.9239  0.1834 -0.4596
 1013MOL0     C36643   8.150   6.216   0.370 -0.2069 -0.2141  0.3144
 1013MOL0     O36644   8.109   6.104   0.288 -0.2602  0.6793  1.0450
 1013MOL0     C36645   8.069   6.127   0.151  0.1543 -0.1275 -1.3272
 1013MOL0     C36646   8.032   6.009   0.093 -0.0477  0.5710 -0.1089
 1013MOL0     C36647   7.979   5.993  -0.039  0.6923  0.2062  0.0053
 1013MOL0     C36648   7.956   6.109  -0.109 -0.2428 -0.4831 -0.2544
 1013MOL0     C36649   7.914   6.101  -0.254  0.0651  0.0236  0.0236
 1013MOL0     O36650   7.925   6.207  -0.326  0.1222  0.5547  0.0653
 1013MOL0     C36651   7.834   6.228  -0.426  0.0407 -0.3623 -0.2172
 1013MOL0     C36652   7.854   6.186  -0.554  0.1611  0.0821  0.7119
 1013MOL0     C36653   7.758   6.189  -0.655 -0.1526 -0.0349  1.0453
 1013MOL0     C36654   7.640   6.255  -0.636 -0.5259  0.9457  0.2765
 1013MOL0     O36655   7.550   6.256  -0.740  0.0692  0.0323 -0.2221
 1013MOL0     C36656   7.492   6.386  -0.763  0.4650  0.5159  0.7202
 1013MOL0     C36657   7.431   6.399  -0.899 -0.0948 -0.3367 -0.3299
 1013MOL0     C36658   7.319   6.318  -0.956  0.1882 -0.6872  0.5425
 1013MOL0     C36659   7.179   6.357  -0.895 -0.1400 -0.2934 -0.5084
 1013MOL0     C36660   7.062   6.272  -0.951 -0.0429 -0.2219 -0.0772
 1013MOL0     C36661   7.017   6.322  -1.092  0.3468 -0.4429 -0.1095
 1013MOL0     C36662   6.914   6.230  -1.152  0.0014 -0.2399 -0.3419
 1013MOL0     C36663   6.949   6.097  -1.208 -0.1250 -0.0152 -0.6014
 1013MOL0    Cl36664   6.829   6.047  -1.334  0.2340 -0.5181  0.2485
 1013MOL0     C36665   7.622   6.316  -0.507  0.9506  0.6596 -0.8734
 1013MOL0     C36666   7.709   6.296  -0.402 -0.7180  0.2166  1.4813
 1013MOL0     O36667   7.865   5.993  -0.288 -0.4247  1.2650 -0.4647
 1013MOL0     C36668   7.995   6.237  -0.049  0.1347  0.0024 -0.0974
 1013MOL0     C36669   8.056   6.241   0.081  0.8013 -0.0575  0.5086
 1013MOL0     N36670   8.695   6.341   0.354  0.1566  0.7126 -0.5833
 1013MOL0     N36671   8.759   6.385   0.458  0.4911 -0.3507  0.1623
 1013MOL0     C36672   9.732   5.933   0.853 -0.3340  0.1834  0.0557
 1013MOL0     C36673   9.848   5.895   0.802 -1.1264 -0.2040  0.7913
 1013MOL0     C36674  10.066   5.608   0.494 -0.1696 -0.4474  1.3104
 1013MOL0     C36675  10.078   5.469   0.496  0.3731  0.9621  0.0675
 1013MOL0     C36676  10.176   5.398   0.433  0.0828  0.4738 -0.7060
 1013MOL0     C36677  10.279   5.461   0.376  0.3936  0.0971 -0.3485
 1013MOL0     O36678  10.383   5.387   0.326  0.1992 -0.4513  0.3299
 1013MOL0     C36679  10.383   5.360   0.185 -0.1935 -0.1577  1.3614
 1013MOL0     C36680  10.489   5.465   0.121  0.9404  0.2171 -0.5533
 1013MOL0     C36681  10.631   5.465   0.178 -0.1038 -0.0463  0.2900
 1013MOL0     C36682  10.665   5.562   0.293  0.3682 -0.7396  0.3723
 1013MOL0     C36683  10.634   5.707   0.268  0.8440  0.1199 -0.7112
 1013MOL0     C36684  10.587   5.821   0.250  0.8492  0.7583  0.3666
 1013MOL0     C36685  10.277   5.603   0.375 -0.7622 -0.3061  0.3195
 1013MOL0     C36686  10.167   5.684   0.422 -1.1774  0.0337  0.6186
 1013MOL0     C36687  10.161   5.826   0.397 -0.3294 -0.3805  0.7063
 1013MOL0     H36688   9.737   5.817   0.494  0.4196 -1.8452  1.4257
 1013MOL0     H36689   9.526   5.916   0.587  1.1448  2.9296  0.7901
 1013MOL0     H36690   9.534   5.978   1.035 -2.8079 -2.0453 -0.8543
 1013MOL0     H36691   9.571   6.140   0.953 -0.7430  0.4704 -0.3642
 1013MOL0     H36692   9.381   6.143   1.111  0.3357 -2.6004  0.3525
 1013MOL0     H36693   9.290   6.031   1.009 -0.1584  0.6503  0.6859
 1013MOL0     H36694   9.365   6.220   0.819  1.5361 -4.3960  0.4240
 1013MOL0     H36695   9.347   6.314   0.971 -0.2115 -0.0972  1.1232
 1013MOL0     H36696   9.112   6.159   0.833  2.3827 -0.2295 -0.9320
 1013MOL0     H36697   9.127   6.191   1.006 -0.6589 -0.4621 -0.4947
 1013MOL0     H36698   9.143   6.429   0.973  1.0072 -1.4304 -0.1849
 1013MOL0     H36699   9.139   6.425   0.800 -0.6410  0.6902 -0.2226
 1013MOL0     H36700   8.922   6.293   0.953  0.0724 -0.6492  0.9011
 1013MOL0     H36701   8.933   6.477   0.902  2.2155  0.6626 -0.6118
 1013MOL0     H36702   8.909   6.227   0.735 -2.9400 -0.3642  2.2615
 1013MOL0     H36703   8.976   6.365   0.660  0.2148  1.1643  0.2217
 1013MOL0     H36704   8.707   6.305   0.786 -0.7631 -3.0434 -1.9437
 1013MOL0     H36705   8.740   6.467   0.737 -1.7774  0.0024 -1.7864
 1013MOL0     H36706   8.595   6.146   0.613 -0.7565  0.0518  0.0726
 1013MOL0     H36707   8.530   6.148   0.235  0.0581  1.6866  1.3863
 1013MOL0     H36708   8.577   6.036   0.356 -0.4652 -1.1683 -2.1186
 1013MOL0     H36709   8.348   6.037   0.335 -5.0485  1.6823 -0.6356
 1013MOL0     H36710   8.386   6.106   0.499 -0.1456  0.1532 -0.6289
 1013MOL0     H36711   8.320   6.278   0.261  0.0449 -3.4231 -1.5904
 1013MOL0     H36712   8.302   6.311   0.449 -2.6266 -2.2000  1.6357
 1013MOL0     H36713   8.089   6.303   0.344 -0.3697 -0.3170  0.3551
 1013MOL0     H36714   8.126   6.195   0.475 -0.5808 -3.2496 -0.2942
 1013MOL0     H36715   8.070   5.918   0.139  2.8082  1.5416 -0.3399
 1013MOL0     H36716   7.951   5.898  -0.082 -1.5228  1.7002 -2.1528
 1013MOL0     H36717   7.943   6.127  -0.577  0.3259 -0.4406  2.5284
 1013MOL0     H36718   7.782   6.131  -0.743 -0.1027 -2.8776  2.8075
 1013MOL0     H36719   7.419   6.405  -0.683 -1.0135  0.7204 -0.6099
 1013MOL0     H36720   7.566   6.466  -0.759  0.8117  0.2874 -0.6390
 1013MOL0     H36721   7.407   6.504  -0.917  2.0988  0.3933  0.7017
 1013MOL0     H36722   7.511   6.382  -0.972  1.7296 -0.3340  1.5772
 1013MOL0     H36723   7.310   6.329  -1.064  0.6737 -0.6989  0.4977
 1013MOL0     H36724   7.336   6.212  -0.934  1.0485 -0.2395  2.2838
 1013MOL0     H36725   7.174   6.462  -0.923  0.9596  0.2809  1.2375
 1013MOL0     H36726   7.181   6.336  -0.787 -1.5840 -2.1909 -0.7946
 1013MOL0     H36727   6.978   6.297  -0.885  2.6281  0.5650  3.3477
 1013MOL0     H36728   7.084   6.166  -0.942 -1.2808 -0.3281  3.7926
 1013MOL0     H36729   6.990   6.428  -1.096  0.5789 -0.2897  1.5215
 1013MOL0     H36730   7.093   6.315  -1.170 -1.2766  0.5274 -1.8371
 1013MOL0     H36731   6.876   6.288  -1.237 -0.4212  2.1463  1.3728
 1013MOL0     H36732   6.834   6.225  -1.078  0.0837 -0.2071 -0.2496
 1013MOL0     H36733   7.050   6.084  -1.249  0.0342 -2.0502  0.3019
 1013MOL0     H36734   6.954   6.025  -1.126 -0.2683  2.0920  1.3504
 1013MOL0     H36735   7.539   6.381  -0.481 -1.1521 -2.5603  1.2261
 1013MOL0     H36736   7.705   6.337  -0.302 -0.4608  1.9585  0.8204
 1013MOL0     H36737   7.979   6.326  -0.110  0.3617  0.0875 -0.0323
 1013MOL0     H36738   8.084   6.337   0.124 -3.0936  1.0170  1.0397
 1013MOL0     H36739   9.735   5.948   0.961 -2.8849  1.9246 -0.0461
 1013MOL0     H36740   9.940   5.879   0.857  2.4732  3.3837 -3.4438
 1013MOL0     H36741   9.992   5.416   0.536  0.4250  0.6457 -0.2341
 1013MOL0     H36742  10.164   5.293   0.456 -1.2500  0.9734  1.1681
 1013MOL0     H36743  10.294   5.378   0.124 -1.6629 -0.2472  3.3546
 1013MOL0     H36744  10.425   5.260   0.169 -0.6574  0.0896 -2.2596
 1013MOL0     H36745  10.453   5.568   0.126  0.7848  0.1644 -0.5905
 1013MOL0     H36746  10.488   5.431   0.017 -0.9116  0.0079 -0.5040
 1013MOL0     H36747  10.692   5.495   0.093  0.6866  2.1914  1.5644
 1013MOL0     H36748  10.669   5.363   0.191 -1.3425 -0.4379  1.0551
 1013MOL0     H36749  10.610   5.530   0.382  0.5847 -1.9971  0.0681
 1013MOL0     H36750  10.771   5.561   0.320  0.3724  2.4789  0.9141
 1013MOL0     H36751  10.549   5.920   0.236 -3.2035 -0.5372  1.0845
 1013MOL0     H36752  10.360   5.643   0.318  0.9760 -1.2988  1.9744
 1013MOL0     H36753  10.187   5.870   0.493 -2.7881  1.5735  0.5898
 1013MOL0     H36754  10.225   5.852   0.312  0.7634 -1.9872  1.0075
 1013MOL0     H36755  10.055   5.849   0.380 -0.7947 -1.2527  2.2813
 1014MOL0     O36756   5.072   4.487   9.651 -0.0993  0.0264 -0.3187
 1014MOL0     C36757   5.022   4.407   9.727  0.2336  0.2514 -0.8425
 1014MOL0     O36758   5.043   4.271   9.730 -0.2997 -0.2286 -0.3236
 1014MOL0     C36759   5.129   4.224   9.633 -0.5834  0.3495  0.1464
 1014MOL0     C36760   5.265   4.170   9.659  0.3019 -0.5640 -1.1493
 1014MOL0     C36761   5.339   4.121   9.554  1.0744  0.5671  1.3211
 1014MOL0     C36762   5.289   4.118   9.424  0.0052 -0.2904 -0.0039
 1014MOL0     O36763   5.382   4.105   9.321  0.2261  0.0655 -0.9552
 1014MOL0     C36764   5.361   4.000   9.228 -0.2283 -0.3663  0.2847
 1014MOL0     C36765   5.486   3.979   9.139 -0.3685 -0.0700  0.2193
 1014MOL0     C36766   5.474   3.858   9.052 -1.2582 -0.5225 -0.5096
 1014MOL0     C36767   5.450   3.729   9.123 -0.8690  0.2574  0.6128
 1014MOL0     C36768   5.508   3.607   9.049 -0.7577  0.0782 -1.2342
 1014MOL0     C36769   5.395   3.547   8.957  0.3067  0.5983 -1.1081
 1014MOL0     C36770   5.425   3.502   8.817 -0.8237 -0.0458  0.0863
 1014MOL0     C36771   5.442   3.608   8.717 -0.1370  0.3208  0.2824
 1014MOL0     N36772   5.452   3.550   8.582  0.1788 -0.0704 -0.3942
 1014MOL0     C36773   5.526   3.446   8.545  0.7332 -0.0224  0.7455
 1014MOL0     C36774   5.494   3.435   8.408  0.2152 -0.4397 -1.1405
 1014MOL0     C36775   5.550   3.343   8.312 -0.4860  0.2839  0.0401
 1014MOL0     C36776   5.705   3.323   8.324  0.2855 -0.7670  1.3385
 1014MOL0     C36777   5.752   3.216   8.220  0.0372 -0.2443  0.0441
 1014MOL0     C36778   5.894   3.244   8.168 -0.2386 -0.1955 -0.6037
 1014MOL0     O36779   5.932   3.166   8.057 -0.0895  0.2840  0.0354
 1014MOL0     C36780   6.060   3.176   8.015 -0.7560 -0.8674 -0.3994
 1014MOL0     C36781   6.170   3.217   8.091  0.5999  0.3137 -0.0784
 1014MOL0     C36782   6.293   3.205   8.037  0.2830 -0.1338  0.0177
 1014MOL0     C36783   6.311   3.172   7.897  0.0586 -0.4389  0.6094
 1014MOL0     C36784   6.437   3.194   7.834  0.2364 -0.3258 -0.5270
 1014MOL0     O36785   6.437   3.225   7.704 -0.1144 -0.1347 -0.4334
 1014MOL0     C36786   6.555   3.269   7.643  0.3190  0.3402 -0.6535
 1014MOL0     C36787   6.682   3.201   7.643 -0.1419  0.6069 -0.0487
 1014MOL0     C36788   6.800   3.257   7.585  1.0551  1.4872  0.9825
 1014MOL0     C36789   6.788   3.378   7.520  0.1115 -0.3889 -0.8497
 1014MOL0     O36790   6.906   3.438   7.477  1.1117  0.4041  0.4366
 1014MOL0     C36791   6.893   3.453   7.336  0.2747  0.1034  0.6422
 1014MOL0     C36792   7.036   3.450   7.280  1.0853  0.7703 -0.1730
 1014MOL0     C36793   7.033   3.485   7.136  0.6088  0.3325  0.2059
 1014MOL0     C36794   7.174   3.480   7.091 -0.1147  0.3903 -0.1178
 1014MOL0     C36795   7.222   3.348   7.060  0.3098  1.1531 -0.0238
 1014MOL0     C36796   7.323   3.346   6.941 -0.5352 -0.2034  1.0346
 1014MOL0     C36797   7.396   3.208   6.919  0.6901  0.1484 -0.9605
 1014MOL0     C36798   7.529   3.212   6.844  0.2004  0.7495  0.6485
 1014MOL0    Cl36799   7.500   3.261   6.677 -0.3367 -0.0953  0.6349
 1014MOL0     C36800   6.670   3.445   7.516  0.8849 -0.1314 -0.1776
 1014MOL0     C36801   6.552   3.389   7.571  0.6068  0.1406  0.0616
 1014MOL0     O36802   6.533   3.183   7.902  0.0426  0.1365 -0.5676
 1014MOL0     C36803   6.202   3.130   7.812 -0.8174  0.8815  0.0355
 1014MOL0     C36804   6.083   3.127   7.878  0.2754 -0.7285  0.0676
 1014MOL0     N36805   5.407   3.536   8.372  0.2820  0.4862  0.7685
 1014MOL0     N36806   5.388   3.607   8.476 -0.1354  0.3577 -0.5900
 1014MOL0     C36807   5.165   4.163   9.398 -1.9003 -0.3000  0.0934
 1014MOL0     C36808   5.085   4.207   9.496 -0.3663 -0.8058  0.5892
 1014MOL0     C36809   4.913   4.453   9.830  0.3386  0.3636  0.2822
 1014MOL0     C36810   4.831   4.357   9.888 -0.2914 -0.2552  0.4117
 1014MOL0     C36811   4.722   4.394   9.967 -0.4228 -0.4365 -0.0087
 1014MOL0     C36812   4.693   4.527  10.001  0.7677 -0.3912 -0.2079
 1014MOL0     O36813   4.576   4.542  10.065 -0.2764  0.0272 -0.3411
 1014MOL0     C36814   4.549   4.677  10.108 -0.4998 -1.5361  0.6114
 1014MOL0     C36815   4.405   4.681  10.175  0.4188 -0.2929  0.1265
 1014MOL0     C36816   4.396   4.753  10.308 -0.0448 -0.7842  0.3436
 1014MOL0     C36817   4.425   4.904  10.301 -0.5729  1.4586 -0.1817
 1014MOL0     C36818   4.398   4.975  10.427 -0.5632  0.0052  0.7566
 1014MOL0     C36819   4.368   5.022  10.536 -0.6652 -0.6004  0.0807
 1014MOL0     C36820   4.777   4.632   9.952  0.4919  0.4548 -0.4645
 1014MOL0     C36821   4.879   4.590   9.860 -0.8440  0.7616  0.0871
 1014MOL0     C36822   4.972   4.696   9.814 -0.3659  0.5339  0.4368
 1014MOL0     H36823   5.303   4.161   9.761 -0.0345  4.0602 -0.4220
 1014MOL0     H36824   5.441   4.093   9.578  0.4390 -1.1775  2.1707
 1014MOL0     H36825   5.345   3.910   9.288  0.0546  0.4427  1.5998
 1014MOL0     H36826   5.272   4.018   9.168  1.8629 -1.4057 -3.5215
 1014MOL0     H36827   5.569   3.963   9.208 -1.1026  1.2681  1.4794
 1014MOL0     H36828   5.501   4.070   9.080 -0.9620  1.0343  1.7039
 1014MOL0     H36829   5.564   3.854   8.991 -1.7638 -0.6364 -1.2694
 1014MOL0     H36830   5.399   3.880   8.975  1.2297  1.0583 -2.6362
 1014MOL0     H36831   5.489   3.731   9.225 -0.1690  0.7170  0.3475
 1014MOL0     H36832   5.341   3.720   9.124 -0.8996  0.5878  0.3806
 1014MOL0     H36833   5.590   3.618   8.977  0.6432 -2.0220 -0.0786
 1014MOL0     H36834   5.528   3.525   9.120  1.3306  2.0205  0.6035
 1014MOL0     H36835   5.353   3.465   9.016 -2.1052  1.5381 -1.4319
 1014MOL0     H36836   5.310   3.615   8.956 -0.4016 -0.2246  0.2089
 1014MOL0     H36837   5.338   3.446   8.782 -3.3957  1.8553  2.9430
 1014MOL0     H36838   5.506   3.429   8.818 -0.8754 -0.1038  0.9647
 1014MOL0     H36839   5.360   3.681   8.718  1.0999  1.7956  2.8639
 1014MOL0     H36840   5.540   3.654   8.732  1.1231 -1.8625 -0.8375
 1014MOL0     H36841   5.594   3.385   8.603  2.5960  1.8192  0.6244
 1014MOL0     H36842   5.495   3.254   8.345 -1.6566  1.1274  0.4316
 1014MOL0     H36843   5.511   3.376   8.215 -1.4648  0.6222  0.5364
 1014MOL0     H36844   5.755   3.418   8.303  0.9114 -1.2694  0.4892
 1014MOL0     H36845   5.742   3.299   8.424  1.5703 -1.0028  0.8317
 1014MOL0     H36846   5.692   3.215   8.129  3.1238 -1.0802 -2.1341
 1014MOL0     H36847   5.742   3.119   8.268 -3.4766  1.2963  2.8935
 1014MOL0     H36848   5.967   3.229   8.248  2.1059 -1.6822 -2.8847
 1014MOL0     H36849   5.905   3.347   8.134  2.1707  0.3000  1.3343
 1014MOL0     H36850   6.155   3.238   8.197 -1.3487 -0.2188 -0.2041
 1014MOL0     H36851   6.380   3.239   8.092  1.1599  1.9807 -2.4584
 1014MOL0     H36852   6.681   3.100   7.681 -0.9988 -0.2928 -2.2808
 1014MOL0     H36853   6.894   3.205   7.597  1.6423  2.6130  1.3546
 1014MOL0     H36854   6.848   3.370   7.279  1.0946  0.8448 -1.1597
 1014MOL0     H36855   6.852   3.551   7.309  0.9500  0.4442  0.8358
 1014MOL0     H36856   7.106   3.510   7.340  0.3746 -0.6148  2.1642
 1014MOL0     H36857   7.080   3.351   7.291  0.6568  0.3211 -2.0459
 1014MOL0     H36858   6.967   3.415   7.082  1.5172  2.1680 -3.6351
 1014MOL0     H36859   6.988   3.583   7.120  0.0342  0.1081  0.4073
 1014MOL0     H36860   7.238   3.536   7.160  0.9122 -1.8521  0.8534
 1014MOL0     H36861   7.179   3.528   6.992 -1.3305  2.3175  0.6829
 1014MOL0     H36862   7.138   3.280   7.045  1.3575 -0.2211  0.1096
 1014MOL0     H36863   7.271   3.305   7.148  0.7002 -0.7596 -1.1134
 1014MOL0     H36864   7.261   3.361   6.853 -1.1739 -1.8044  1.1797
 1014MOL0     H36865   7.400   3.422   6.955 -0.7951  0.6725 -1.7132
 1014MOL0     H36866   7.337   3.130   6.870  1.2909 -0.3437 -0.9154
 1014MOL0     H36867   7.417   3.169   7.019  2.5343 -1.8304 -2.0301
 1014MOL0     H36868   7.590   3.293   6.886 -1.8096  3.2395 -0.9293
 1014MOL0     H36869   7.575   3.113   6.851 -3.1725 -0.8499  3.1591
 1014MOL0     H36870   6.669   3.545   7.474  2.6454 -0.4250 -1.0326
 1014MOL0     H36871   6.459   3.446   7.578 -0.3223 -1.2956 -0.1111
 1014MOL0     H36872   6.217   3.118   7.706  2.0819 -0.1772  0.4602
 1014MOL0     H36873   5.993   3.092   7.828  0.9344  0.6807 -2.2720
 1014MOL0     H36874   5.148   4.178   9.292 -1.3528 -1.2234 -0.1322
 1014MOL0     H36875   4.988   4.252   9.475  0.4837  1.5766  1.3337
 1014MOL0     H36876   4.848   4.250   9.880 -0.1663 -0.2926  1.1007
 1014MOL0     H36877   4.651   4.328  10.016 -1.2389  0.1868 -0.3372
 1014MOL0     H36878   4.561   4.747  10.025  0.6958 -3.0210 -0.5182
 1014MOL0     H36879   4.619   4.719  10.181  0.4472 -2.7114  0.4189
 1014MOL0     H36880   4.373   4.577  10.186  1.6995 -1.2217 -3.6028
 1014MOL0     H36881   4.339   4.733  10.106  1.4061  0.5927 -0.1701
 1014MOL0     H36882   4.471   4.709  10.375  0.3937 -1.0948 -0.3348
 1014MOL0     H36883   4.295   4.743  10.347 -0.2714  0.7471  0.1996
 1014MOL0     H36884   4.526   4.922  10.264 -0.4101 -1.7921 -1.6516
 1014MOL0     H36885   4.363   4.947  10.221 -3.3516 -1.3015  0.2780
 1014MOL0     H36886   4.345   5.058  10.634 -0.6314  1.4793 -0.6248
 1014MOL0     H36887   4.758   4.730   9.995 -0.2062  1.2128 -2.4064
 1014MOL0     H36888   5.072   4.664   9.844 -0.7778 -0.5481  0.7081
 1014MOL0     H36889   4.965   4.702   9.705  1.2576  1.6203  0.3611
 1014MOL0     H36890   4.960   4.799   9.850 -1.4168  0.4251  0.4344
 1015MOL0     O36891   9.912   4.065   6.655 -0.8609 -0.0304 -0.2266
 1015MOL0     C36892   9.970   4.123   6.749 -0.7251  0.0056 -0.0157
 1015MOL0     O36893  10.105   4.158   6.750 -0.5278 -1.0809  0.2553
 1015MOL0     C36894  10.184   4.097   6.655 -0.3585  0.1554  0.5345
 1015MOL0     C36895  10.217   3.962   6.651  0.1417 -0.4432  0.5405
 1015MOL0     C36896  10.263   3.901   6.538  0.6229 -0.1562  1.3049
 1015MOL0     C36897  10.306   3.985   6.429 -0.4437 -0.4218  0.1377
 1015MOL0     O36898  10.352   3.930   6.315 -0.1704  0.3747  0.1734
 1015MOL0     C36899  10.499   3.926   6.323 -0.3994  0.1378 -0.0026
 1015MOL0     C36900  10.557   3.879   6.187  0.7665 -0.1264  0.1183
 1015MOL0     C36901  10.531   3.729   6.165 -0.3999  0.9502 -0.1196
 1015MOL0     C36902  10.381   3.685   6.134 -1.0806 -0.0242  0.0043
 1015MOL0     C36903  10.366   3.565   6.044 -0.0494  0.9423 -0.1288
 1015MOL0     C36904  10.472   3.449   6.068 -0.5126  1.3257  0.6180
 1015MOL0     C36905  10.429   3.311   6.012  0.1009 -1.5884  0.6387
 1015MOL0     C36906  10.455   3.185   6.095 -0.6137 -0.4093 -0.3237
 1015MOL0     N36907  10.432   3.068   6.028 -1.0952 -0.2390 -0.0581
 1015MOL0     C36908  10.305   2.997   6.022 -0.1399 -0.4126 -0.1007
 1015MOL0     C36909  10.331   2.895   5.942  0.0458 -0.9231  0.4510
 1015MOL0     C36910  10.232   2.792   5.894  0.0158  0.5643 -0.4688
 1015MOL0     C36911  10.116   2.851   5.818 -0.1081  0.7984  0.3801
 1015MOL0     C36912  10.000   2.765   5.834 -0.5434  0.2195  0.5083
 1015MOL0     C36913   9.874   2.821   5.760  0.1603 -0.8157  0.7181
 1015MOL0     O36914   9.883   2.793   5.619 -0.5494  0.2554  0.1226
 1015MOL0     C36915   9.804   2.858   5.535  1.2554  0.1589  0.5355
 1015MOL0     C36916   9.762   2.787   5.421  1.0410 -0.1984  0.2223
 1015MOL0     C36917   9.671   2.838   5.324  1.4530 -0.0614 -0.3868
 1015MOL0     C36918   9.601   2.963   5.344  0.3995  0.2227  0.6973
 1015MOL0     C36919   9.486   3.002   5.264  0.2387  0.0618 -0.7997
 1015MOL0     O36920   9.415   3.109   5.319  0.1550 -0.4138 -0.4898
 1015MOL0     C36921   9.297   3.136   5.252  1.0766  0.0752 -0.0389
 1015MOL0     C36922   9.176   3.080   5.283  1.2514 -0.7521 -0.4008
 1015MOL0     C36923   9.053   3.133   5.226 -0.3340  0.2578 -0.1132
 1015MOL0     C36924   9.055   3.232   5.128  0.3831 -0.3172 -0.5684
 1015MOL0     O36925   8.950   3.295   5.062 -0.5554  0.5764  0.2605
 1015MOL0     C36926   8.819   3.261   5.110 -0.7408 -0.0751 -0.8052
 1015MOL0     C36927   8.704   3.309   5.024  0.4199  0.5645  0.0840
 1015MOL0     C36928   8.702   3.448   4.958  0.5530  0.2689 -0.3376
 1015MOL0     C36929   8.579   3.457   4.875  0.4937  0.4784 -0.2726
 1015MOL0     C36930   8.554   3.598   4.830 -0.0068  0.0990  0.2363
 1015MOL0     C36931   8.440   3.600   4.726  0.2180 -0.7423  0.6526
 1015MOL0     C36932   8.418   3.748   4.675  0.1787 -0.2702  0.1636
 1015MOL0     C36933   8.293   3.805   4.739  0.6315  0.0447 -0.3674
 1015MOL0    Cl36934   8.154   3.733   4.664 -0.3514 -0.0086  0.5115
 1015MOL0     C36935   9.179   3.278   5.085 -0.4737  0.8064  0.5127
 1015MOL0     C36936   9.298   3.232   5.143 -0.2818  0.7347  0.0761
 1015MOL0     O36937   9.461   2.930   5.165  0.0282 -0.3215  0.4743
 1015MOL0     C36938   9.646   3.036   5.456 -0.1230  0.8564 -0.3189
 1015MOL0     C36939   9.739   2.981   5.547  0.7129 -0.1981 -0.1641
 1015MOL0     N36940  10.460   2.898   5.906  0.6844 -0.8442 -0.9953
 1015MOL0     N36941  10.528   2.989   5.965 -0.1284  0.0990 -0.4164
 1015MOL0     C36942  10.281   4.123   6.438  0.2455 -0.0828  0.4281
 1015MOL0     C36943  10.234   4.179   6.551  0.5048  0.6656 -0.0268
 1015MOL0     C36944   9.891   4.169   6.867 -1.1630  0.7265 -0.5873
 1015MOL0     C36945   9.955   4.266   6.949 -0.4283  0.0105 -0.5006
 1015MOL0     C36946   9.902   4.298   7.078  0.0717 -0.2269  1.0724
 1015MOL0     C36947   9.783   4.245   7.119 -0.8154  1.4692 -0.3050
 1015MOL0     O36948   9.733   4.286   7.247  0.4813  0.6861  0.4022
 1015MOL0     C36949   9.621   4.216   7.304  0.1254  0.0406 -0.9042
 1015MOL0     C36950   9.507   4.312   7.289  0.5884 -0.1987  0.3311
 1015MOL0     C36951   9.364   4.270   7.334 -0.0441 -0.0897 -0.3946
 1015MOL0     C36952   9.253   4.356   7.287  0.7236 -0.0168  0.7364
 1015MOL0     C36953   9.135   4.328   7.366  0.0130  1.1620  0.3398
 1015MOL0     C36954   9.053   4.300   7.453 -0.4161  0.5302  0.3295
 1015MOL0     C36955   9.714   4.158   7.029  0.0801  0.1121  0.0808
 1015MOL0     C36956   9.760   4.134   6.899 -0.9304  0.8119  0.0175
 1015MOL0     C36957   9.677   4.030   6.814  0.1230 -0.9134  1.0515
 1015MOL0     H36958  10.182   3.905   6.736  0.2958  0.0554  0.9406
 1015MOL0     H36959  10.270   3.793   6.537  0.9872 -0.2113 -2.3357
 1015MOL0     H36960  10.542   4.023   6.349  0.3814 -0.2463  0.1484
 1015MOL0     H36961  10.533   3.854   6.398  0.9443 -0.2224 -0.9201
 1015MOL0     H36962  10.664   3.901   6.186  0.3162  2.2586  0.1412
 1015MOL0     H36963  10.514   3.931   6.101  0.4366  0.3372  0.5571
 1015MOL0     H36964  10.563   3.674   6.254  0.5932  2.3940  0.4370
 1015MOL0     H36965  10.593   3.702   6.080 -0.9970  1.7208 -0.8181
 1015MOL0     H36966  10.344   3.659   6.234  0.0996 -0.4276  0.3611
 1015MOL0     H36967  10.323   3.772   6.103 -1.1919 -0.2693 -0.4882
 1015MOL0     H36968  10.270   3.518   6.066  0.3490  0.0944 -0.1883
 1015MOL0     H36969  10.375   3.598   5.940  1.9111 -1.7961 -0.9476
 1015MOL0     H36970  10.568   3.476   6.025  0.0533 -1.3320  0.0244
 1015MOL0     H36971  10.473   3.441   6.177  0.9072  2.2504  0.6922
 1015MOL0     H36972  10.479   3.304   5.915  0.8870 -0.1834  0.9231
 1015MOL0     H36973  10.322   3.307   5.991  0.0818 -1.8465  0.7800
 1015MOL0     H36974  10.554   3.198   6.139 -0.3180  1.0430 -1.3603
 1015MOL0     H36975  10.385   3.194   6.179 -1.4194  0.2791 -1.0542
 1015MOL0     H36976  10.209   3.015   6.068 -0.2718 -0.2925 -0.4173
 1015MOL0     H36977  10.271   2.709   5.834 -2.3666  1.4462 -3.5355
 1015MOL0     H36978  10.197   2.743   5.985  0.8386  1.0843  0.1373
 1015MOL0     H36979  10.097   2.952   5.856 -1.3268  1.5815 -2.1478
 1015MOL0     H36980  10.141   2.860   5.712 -1.4873  0.7865  0.0345
 1015MOL0     H36981   9.983   2.770   5.942  1.4216  1.0469  0.8309
 1015MOL0     H36982  10.013   2.663   5.794 -0.7167 -0.0112  1.0364
 1015MOL0     H36983   9.866   2.929   5.774  2.3415 -0.1741 -2.1356
 1015MOL0     H36984   9.783   2.776   5.802 -1.7329  2.8997  1.0717
 1015MOL0     H36985   9.799   2.689   5.393  1.8092  0.9749 -3.2944
 1015MOL0     H36986   9.639   2.764   5.252 -0.8686  0.1191  0.3714
 1015MOL0     H36987   9.178   2.991   5.345  3.2566 -1.3511 -1.2490
 1015MOL0     H36988   8.960   3.101   5.270  0.1933 -0.6286  0.3838
 1015MOL0     H36989   8.812   3.154   5.132  1.4716 -0.1148  0.0408
 1015MOL0     H36990   8.799   3.313   5.204 -2.0219  0.0853 -1.1544
 1015MOL0     H36991   8.708   3.239   4.941 -1.2910  3.7368 -2.9259
 1015MOL0     H36992   8.614   3.296   5.084 -0.6178  1.1955 -1.3029
 1015MOL0     H36993   8.695   3.514   5.045  0.1658 -0.8066  0.4633
 1015MOL0     H36994   8.789   3.478   4.898 -0.6831 -0.7140 -2.7586
 1015MOL0     H36995   8.498   3.437   4.946 -1.0871  5.5025 -0.2937
 1015MOL0     H36996   8.585   3.387   4.791 -2.0948 -1.0419  0.6834
 1015MOL0     H36997   8.652   3.639   4.805  0.1090 -0.1311  0.3174
 1015MOL0     H36998   8.528   3.660   4.917 -2.8156 -1.1455  0.3740
 1015MOL0     H36999   8.452   3.534   4.640  2.6369 -0.7745  0.9556
 1015MOL0     H37000   8.344   3.566   4.766 -1.9786  1.0500 -2.5992
 1015MOL0     H37001   8.399   3.759   4.568 -0.0812  0.4225  0.2765
 1015MOL0     H37002   8.514   3.793   4.701 -0.5053 -0.2022  2.7956
 1015MOL0     H37003   8.284   3.786   4.847  0.9871  0.0427 -0.3376
 1015MOL0     H37004   8.284   3.913   4.727 -0.1209 -0.1211 -1.3898
 1015MOL0     H37005   9.181   3.351   5.005 -0.8933 -2.1211 -2.3712
 1015MOL0     H37006   9.397   3.265   5.113  1.4773 -2.4015  1.7961
 1015MOL0     H37007   9.607   3.134   5.482 -0.7421  0.3295  0.7881
 1015MOL0     H37008   9.759   3.049   5.629 -2.6582  0.7564  0.0303
 1015MOL0     H37009  10.320   4.175   6.352  0.7436 -2.0983 -0.6173
 1015MOL0     H37010  10.219   4.286   6.549  4.0486  1.4026  2.6182
 1015MOL0     H37011  10.046   4.319   6.921 -0.0057 -0.0188  0.7532
 1015MOL0     H37012   9.957   4.371   7.137  0.5556  0.2746  0.0233
 1015MOL0     H37013   9.645   4.198   7.409 -0.9543  0.4647 -0.5661
 1015MOL0     H37014   9.589   4.117   7.270 -3.6674  1.1419 -1.0150
 1015MOL0     H37015   9.505   4.334   7.181 -1.6955  0.2356  0.4056
 1015MOL0     H37016   9.527   4.396   7.355 -0.1128  0.7532 -0.6213
 1015MOL0     H37017   9.369   4.264   7.443  1.6380  0.2125 -0.4165
 1015MOL0     H37018   9.333   4.170   7.303  0.4240  0.2058 -1.9140
 1015MOL0     H37019   9.277   4.463   7.295  2.1844 -0.1185 -1.5014
 1015MOL0     H37020   9.236   4.323   7.184  0.3380 -0.3020  0.8895
 1015MOL0     H37021   8.977   4.284   7.526 -0.7777  3.3544  0.6643
 1015MOL0     H37022   9.618   4.118   7.061 -0.0312 -0.9371 -1.4502
 1015MOL0     H37023   9.571   4.028   6.841 -0.8449  4.0445 -1.2472
 1015MOL0     H37024   9.684   4.061   6.709 -0.6944  1.3960  1.5976
 1015MOL0     H37025   9.732   3.939   6.838 -0.6812 -1.1855  1.9610
 1016MOL0     O37026   0.545   6.419   1.168 -0.3616  0.5300 -0.2212
 1016MOL0     C37027   0.483   6.496   1.098 -0.0114  0.6728  0.3859
 1016MOL0     O37028   0.548   6.577   1.006  0.0064 -0.2786  0.6366
 1016MOL0     C37029   0.677   6.537   0.974 -0.1471 -0.4496 -0.5366
 1016MOL0     C37030   0.777   6.608   1.026 -0.9185 -0.0796  0.0277
 1016MOL0     C37031   0.913   6.582   1.017  0.1601 -0.5061  0.3273
 1016MOL0     C37032   0.945   6.463   0.937 -0.6913  0.5873  0.6707
 1016MOL0     O37033   1.075   6.424   0.911  0.3660  0.2662  0.1017
 1016MOL0     C37034   1.174   6.535   0.902  0.5584  1.3079  0.3322
 1016MOL0     C37035   1.269   6.522   1.019  0.2005 -0.2551 -0.3960
 1016MOL0     C37036   1.342   6.393   1.036  1.3020 -0.4989 -0.7919
 1016MOL0     C37037   1.453   6.377   0.931  0.9006 -0.0298 -0.2130
 1016MOL0     C37038   1.431   6.253   0.837 -0.0621  0.3001  0.1491
 1016MOL0     C37039   1.550   6.173   0.796 -0.1852 -0.3757  0.4132
 1016MOL0     C37040   1.658   6.264   0.733 -0.0901  0.8314  0.3967
 1016MOL0     C37041   1.791   6.193   0.704  0.7789  1.2201  0.6822
 1016MOL0     N37042   1.780   6.067   0.625  0.3345 -0.9395  0.2082
 1016MOL0     C37043   1.763   5.941   0.679 -0.1842 -0.0986 -0.3466
 1016MOL0     C37044   1.754   5.863   0.574 -0.6303 -0.1168  0.4138
 1016MOL0     C37045   1.744   5.711   0.588  0.3388  1.1744  0.0285
 1016MOL0     C37046   1.605   5.669   0.639 -0.4424 -0.5102  0.2568
 1016MOL0     C37047   1.602   5.523   0.630  0.7775  0.0831 -0.5564
 1016MOL0     C37048   1.561   5.457   0.493  0.6595 -0.7034 -0.6677
 1016MOL0     O37049   1.552   5.321   0.518  0.3175 -0.5581 -0.3363
 1016MOL0     C37050   1.431   5.254   0.489 -0.4033  0.8279  1.4608
 1016MOL0     C37051   1.403   5.142   0.556  0.0305 -0.2697 -0.1306
 1016MOL0     C37052   1.286   5.073   0.517 -0.4025  0.0697 -0.2118
 1016MOL0     C37053   1.202   5.110   0.410  0.5471 -0.6337  0.4268
 1016MOL0     C37054   1.083   5.029   0.371 -0.6489 -0.5624  0.1318
 1016MOL0     O37055   1.040   4.937   0.465 -1.1102 -0.5853 -0.4581
 1016MOL0     C37056   0.956   4.841   0.425 -0.2859  0.3609 -0.2523
 1016MOL0     C37057   0.822   4.844   0.467 -0.0878 -0.3403  0.8267
 1016MOL0     C37058   0.723   4.764   0.419 -0.6433 -0.3238 -0.0536
 1016MOL0     C37059   0.761   4.662   0.332  0.2477  0.2249 -0.0933
 1016MOL0     O37060   0.665   4.570   0.293 -0.0019  0.3558  0.3570
 1016MOL0     C37061   0.707   4.468   0.193 -0.2626 -0.5391  0.5831
 1016MOL0     C37062   0.598   4.371   0.151  0.0379 -0.5331 -0.7174
 1016MOL0     C37063   0.546   4.295   0.275 -0.6534  0.5054  0.6795
 1016MOL0     C37064   0.451   4.189   0.236  0.3603  0.1637 -0.1295
 1016MOL0     C37065   0.393   4.108   0.351  0.5515  1.1062  0.1974
 1016MOL0     C37066   0.319   4.201   0.443 -0.1190 -0.6198 -0.1313
 1016MOL0     C37067   0.220   4.119   0.535  0.5148  0.0916  0.5424
 1016MOL0     C37068   0.279   4.079   0.678  0.7242 -0.5356  1.0100
 1016MOL0    Cl37069   0.353   4.204   0.777 -0.3512 -0.6546 -0.0334
 1016MOL0     C37070   0.903   4.647   0.306  0.0239  0.2098  0.0989
 1016MOL0     C37071   1.000   4.736   0.347 -0.4163  1.5432 -0.1725
 1016MOL0     O37072   1.037   5.039   0.255  0.3578  0.3183  0.0179
 1016MOL0     C37073   1.246   5.217   0.328  0.0900 -0.1157  0.7641
 1016MOL0     C37074   1.350   5.291   0.376 -0.7779  0.2224  0.8232
 1016MOL0     N37075   1.769   5.941   0.465  0.5500 -0.4339  0.4415
 1016MOL0     N37076   1.776   6.066   0.488 -0.1044 -0.2547  1.4225
 1016MOL0     C37077   0.840   6.383   0.879  0.6525 -0.2305  0.6268
 1016MOL0     C37078   0.709   6.427   0.897  0.5882 -0.2035  0.6620
 1016MOL0     C37079   0.331   6.502   1.107 -0.3640  0.8791  0.7318
 1016MOL0     C37080   0.267   6.618   1.061  0.2413 -0.0369 -0.2677
 1016MOL0     C37081   0.127   6.632   1.067  0.6455 -0.3724  0.1290
 1016MOL0     C37082   0.043   6.535   1.123  0.3301 -0.0552  0.9688
 1016MOL0     O37083  -0.095   6.534   1.135  0.0506 -0.0877 -0.2423
 1016MOL0     C37084  -0.155   6.659   1.118  0.6728  0.1963 -0.2204
 1016MOL0     C37085  -0.301   6.660   1.156 -1.1707  0.4228  0.0870
 1016MOL0     C37086  -0.309   6.624   1.311  0.6120  0.4842 -0.2017
 1016MOL0     C37087  -0.459   6.605   1.355 -0.1126 -0.2691  0.0358
 1016MOL0     C37088  -0.511   6.479   1.295  0.1356 -0.3603 -0.6447
 1016MOL0     C37089  -0.554   6.378   1.250 -0.2082 -0.1394  0.0505
 1016MOL0     C37090   0.112   6.429   1.174 -0.1676  0.0670 -1.3740
 1016MOL0     C37091   0.243   6.403   1.157 -0.0827  0.3475 -0.1212
 1016MOL0     C37092   0.287   6.269   1.208  0.5766 -0.4021 -0.1279
 1016MOL0     H37093   0.738   6.697   1.075 -0.5255  2.0232 -3.1339
 1016MOL0     H37094   0.992   6.648   1.050  2.2188 -2.2266 -0.8888
 1016MOL0     H37095   1.227   6.524   0.807 -1.8702 -2.4313 -0.8135
 1016MOL0     H37096   1.139   6.639   0.902  2.1438  1.9334 -1.9928
 1016MOL0     H37097   1.212   6.532   1.112  1.8849 -2.2025  0.9457
 1016MOL0     H37098   1.345   6.600   1.006 -0.2503  0.4208  0.8196
 1016MOL0     H37099   1.273   6.309   1.036  1.2623 -0.4711 -0.3625
 1016MOL0     H37100   1.390   6.395   1.135 -0.7546 -2.0730  0.3045
 1016MOL0     H37101   1.463   6.463   0.865  0.5211 -1.9945 -3.0098
 1016MOL0     H37102   1.535   6.349   0.998 -0.4912 -0.8274  1.2485
 1016MOL0     H37103   1.378   6.172   0.889  2.7283 -0.5728  1.8627
 1016MOL0     H37104   1.367   6.272   0.750  0.3432 -1.2724 -0.5417
 1016MOL0     H37105   1.597   6.141   0.889  0.7291 -0.9739 -0.2373
 1016MOL0     H37106   1.517   6.084   0.743 -1.9069 -0.0759  0.9298
 1016MOL0     H37107   1.679   6.349   0.797  0.2350  0.4605  0.7890
 1016MOL0     H37108   1.610   6.308   0.645 -2.0780 -2.0533 -0.1340
 1016MOL0     H37109   1.861   6.264   0.657  0.4842  0.3458 -1.1785
 1016MOL0     H37110   1.834   6.154   0.797 -1.2354  1.1632  1.6399
 1016MOL0     H37111   1.748   5.914   0.783  0.7722 -0.7371 -0.3623
 1016MOL0     H37112   1.761   5.668   0.489 -1.3197  0.2664  0.0862
 1016MOL0     H37113   1.825   5.666   0.646 -0.5796 -2.2205 -1.0679
 1016MOL0     H37114   1.601   5.710   0.740  0.1452  2.8888 -0.9651
 1016MOL0     H37115   1.526   5.721   0.583  0.1366 -0.5879 -0.6629
 1016MOL0     H37116   1.531   5.476   0.699  3.0896 -1.5024  0.8988
 1016MOL0     H37117   1.695   5.471   0.655 -0.6186 -3.2441 -1.6493
 1016MOL0     H37118   1.620   5.473   0.403  0.6881  0.1429 -0.5099
 1016MOL0     H37119   1.459   5.493   0.479  0.9892 -0.4541 -2.7757
 1016MOL0     H37120   1.465   5.108   0.639 -1.1046  0.3131  0.9939
 1016MOL0     H37121   1.257   4.988   0.578 -3.2568  2.0739  1.4643
 1016MOL0     H37122   0.794   4.908   0.550 -0.5170 -0.5631  0.8567
 1016MOL0     H37123   0.622   4.781   0.454 -1.2203  2.4436 -2.6490
 1016MOL0     H37124   0.745   4.513   0.101 -0.4021  0.5113  1.0190
 1016MOL0     H37125   0.783   4.405   0.241 -1.1463 -1.2498  1.0782
 1016MOL0     H37126   0.512   4.424   0.110 -0.0130  0.4248  0.5649
 1016MOL0     H37127   0.628   4.315   0.062  0.1615  0.7370 -1.4952
 1016MOL0     H37128   0.630   4.244   0.323 -0.9800  2.0653  3.0937
 1016MOL0     H37129   0.496   4.359   0.348  0.3232 -1.9963  3.8251
 1016MOL0     H37130   0.506   4.117   0.174 -0.2258  2.0064 -2.9475
 1016MOL0     H37131   0.370   4.237   0.180 -0.7109 -0.4406  0.8458
 1016MOL0     H37132   0.466   4.062   0.418 -0.6979 -0.2714  0.6755
 1016MOL0     H37133   0.333   4.024   0.314 -0.1281  1.1780  1.1106
 1016MOL0     H37134   0.388   4.273   0.489 -1.0949  3.5793 -4.3779
 1016MOL0     H37135   0.250   4.268   0.391  1.4420  0.6358 -0.6575
 1016MOL0     H37136   0.183   4.022   0.500 -3.1924  0.3735  3.1626
 1016MOL0     H37137   0.142   4.190   0.564 -0.3627  0.2793 -2.0824
 1016MOL0     H37138   0.198   4.028   0.731  0.5983 -2.0715 -0.5508
 1016MOL0     H37139   0.356   4.004   0.656  1.9066  1.4444 -2.3466
 1016MOL0     H37140   0.936   4.553   0.263 -2.0799 -0.4958 -0.0606
 1016MOL0     H37141   1.105   4.713   0.328 -0.5985  0.5351 -0.0445
 1016MOL0     H37142   1.193   5.232   0.234 -1.8772 -0.9629  1.6809
 1016MOL0     H37143   1.405   5.361   0.313  1.0889 -0.9547  1.0698
 1016MOL0     H37144   0.865   6.297   0.818  0.9863 -0.1972  0.7140
 1016MOL0     H37145   0.621   6.385   0.848 -0.3446  1.3051  0.9784
 1016MOL0     H37146   0.331   6.698   1.024 -0.0521  0.4535  0.2779
 1016MOL0     H37147   0.093   6.726   1.024 -1.5799 -1.6120 -1.0135
 1016MOL0     H37148  -0.127   6.680   1.014  3.6785 -0.6445  0.3162
 1016MOL0     H37149  -0.110   6.740   1.176 -0.3281  0.6058 -0.0026
 1016MOL0     H37150  -0.362   6.586   1.103  1.3676 -1.9909  0.2760
 1016MOL0     H37151  -0.327   6.762   1.126  0.8276  0.5600 -1.4181
 1016MOL0     H37152  -0.266   6.708   1.366 -0.8407  1.2360 -0.1621
 1016MOL0     H37153  -0.248   6.535   1.328  2.0262  1.5253  0.4101
 1016MOL0     H37154  -0.470   6.613   1.464  2.4325  1.8691  0.2486
 1016MOL0     H37155  -0.513   6.687   1.307 -1.2602 -1.1643 -0.2346
 1016MOL0     H37156  -0.592   6.287   1.208 -0.0345  0.1967 -0.8504
 1016MOL0     H37157   0.050   6.354   1.222 -0.6102  2.7512  2.7476
 1016MOL0     H37158   0.225   6.189   1.166  1.0318  0.0479 -1.7286
 1016MOL0     H37159   0.391   6.240   1.189  0.5494 -1.2628  0.9455
 1016MOL0     H37160   0.289   6.269   1.317  3.0409 -3.4142 -0.0432
 1017MOL0     O37161   9.466   9.349   1.844  0.6188 -0.2852 -0.2512
 1017MOL0     C37162   9.497   9.242   1.885  0.7264 -1.2762  0.4239
 1017MOL0     O37163   9.596   9.221   1.974 -0.0331  0.2448  0.3093
 1017MOL0     C37164   9.682   9.326   2.004  0.3672  0.0719  0.1322
 1017MOL0     C37165   9.823   9.312   1.990  0.8397 -0.4574 -0.3936
 1017MOL0     C37166   9.910   9.418   2.028  0.3876  0.3822  1.4653
 1017MOL0     C37167   9.863   9.545   2.056  0.2602 -0.6317 -0.2553
 1017MOL0     O37168   9.947   9.657   2.076 -0.1236  0.3213 -0.2095
 1017MOL0     C37169   9.928   9.773   1.990 -0.0504  0.9439  1.0133
 1017MOL0     C37170  10.052   9.861   2.002  0.8524  0.5345 -0.3740
 1017MOL0     C37171  10.043   9.936   2.128 -0.2779 -0.2349  0.0965
 1017MOL0     C37172  10.127  10.063   2.134  0.5460  0.3271 -0.7143
 1017MOL0     C37173  10.277  10.013   2.155 -0.2325  1.0432 -0.5597
 1017MOL0     C37174  10.381  10.117   2.101 -0.4631 -0.1008 -0.2154
 1017MOL0     C37175  10.521  10.092   2.147  0.5872 -1.1314 -0.3849
 1017MOL0     C37176  10.602  10.230   2.131  0.1956  0.1503 -0.5634
 1017MOL0     N37177  10.745  10.203   2.152  1.3600 -0.2445 -0.5497
 1017MOL0     C37178  10.827  10.247   2.259  0.4402  0.0409 -0.1609
 1017MOL0     C37179  10.947  10.195   2.219  0.0579  0.2490 -0.3688
 1017MOL0     C37180  11.090  10.208   2.277  0.3935  0.3167  0.3594
 1017MOL0     C37181  11.085  10.178   2.427  0.5803 -0.1103  0.1302
 1017MOL0     C37182  11.226  10.209   2.489 -0.2340  0.1992  0.5047
 1017MOL0     C37183  11.221  10.288   2.608 -0.2987 -0.7879 -0.4421
 1017MOL0     O37184  11.162  10.413   2.578  0.7130 -0.4749  0.2122
 1017MOL0     C37185  11.205  10.499   2.480  0.3167  0.0703 -0.0701
 1017MOL0     C37186  11.122  10.601   2.431 -0.5301 -0.8248 -0.0568
 1017MOL0     C37187  11.163  10.677   2.321 -0.3315  0.8493  0.1093
 1017MOL0     C37188  11.286  10.663   2.262 -0.5992 -0.3712  0.3307
 1017MOL0     C37189  11.326  10.743   2.144 -0.0934  0.2069  1.0081
 1017MOL0     O37190  11.240  10.835   2.091 -0.1629 -0.2024  0.6153
 1017MOL0     C37191  11.286  10.928   2.003  0.6780  0.1065  0.8406
 1017MOL0     C37192  11.196  10.970   1.899 -1.0531 -0.0825  0.2108
 1017MOL0     C37193  11.252  11.049   1.797 -0.8450  0.0343  0.2424
 1017MOL0     C37194  11.384  11.104   1.811  0.3458  0.5610  0.0717
 1017MOL0     O37195  11.442  11.184   1.725 -0.3752 -1.0874  0.3374
 1017MOL0     C37196  11.363  11.261   1.630  0.3980 -0.8118  0.8076
 1017MOL0     C37197  11.374  11.208   1.485  0.2359  0.2292 -0.0916
 1017MOL0     C37198  11.320  11.073   1.447 -0.3736  0.4525 -0.1260
 1017MOL0     C37199  11.330  11.065   1.291 -0.6603 -1.0491 -0.1219
 1017MOL0     C37200  11.258  10.941   1.238 -0.4999  0.1722 -0.3770
 1017MOL0     C37201  11.342  10.877   1.120  0.9530  0.1397 -0.0625
 1017MOL0     C37202  11.266  10.746   1.079 -1.3294 -0.0860 -0.6562
 1017MOL0     C37203  11.273  10.696   0.933 -0.8126  0.0862  0.8233
 1017MOL0    Cl37204  11.204  10.820   0.824  0.4647 -0.0152  0.3820
 1017MOL0     C37205  11.454  11.066   1.914  0.1014  1.3926  0.6647
 1017MOL0     C37206  11.410  10.985   2.005 -0.1012  0.0418  0.4171
 1017MOL0     O37207  11.438  10.704   2.091  0.7519  0.2175 -0.1411
 1017MOL0     C37208  11.370  10.568   2.321  0.0202  0.2411 -0.0339
 1017MOL0     C37209  11.335  10.490   2.429  0.0894 -0.2529  0.0040
 1017MOL0     N37210  10.936  10.120   2.102  0.2412 -0.6283  0.6080
 1017MOL0     N37211  10.822  10.134   2.064  0.2005 -0.6382 -0.4023
 1017MOL0     C37212   9.728   9.559   2.074  0.1200  0.4785 -0.3445
 1017MOL0     C37213   9.640   9.447   2.066 -0.0559  0.4495  0.1004
 1017MOL0     C37214   9.426   9.123   1.852 -0.0627 -1.1168  0.2411
 1017MOL0     C37215   9.442   9.005   1.930  0.3618 -0.9205  0.6437
 1017MOL0     C37216   9.377   8.891   1.880 -0.2519 -0.0577  0.1286
 1017MOL0     C37217   9.304   8.892   1.760 -0.0936 -0.0473  0.7613
 1017MOL0     O37218   9.244   8.771   1.721 -0.5591  0.3442  0.3046
 1017MOL0     C37219   9.268   8.712   1.592  0.0555  0.3726  0.9682
 1017MOL0     C37220   9.268   8.560   1.580  0.5048  0.3543 -0.0104
 1017MOL0     C37221   9.332   8.482   1.697  0.8321  0.4743 -0.2997
 1017MOL0     C37222   9.485   8.507   1.710 -0.7909 -0.3582 -0.2926
 1017MOL0     C37223   9.576   8.454   1.606 -0.3796  0.3755  0.0657
 1017MOL0     C37224   9.646   8.413   1.514  0.6101 -0.3300 -1.5043
 1017MOL0     C37225   9.272   9.007   1.695  1.0953 -0.0607 -0.0560
 1017MOL0     C37226   9.337   9.121   1.734  0.5013  0.3002  1.0424
 1017MOL0     C37227   9.303   9.242   1.652 -0.4152  0.6508 -0.1783
 1017MOL0     H37228   9.865   9.215   1.968  2.8659  0.6150 -1.6229
 1017MOL0     H37229  10.017   9.402   2.028  0.6021  1.3391 -1.1496
 1017MOL0     H37230   9.935   9.740   1.885 -2.1082 -0.0770  1.1376
 1017MOL0     H37231   9.834   9.828   1.989 -1.1290 -0.8205  1.3764
 1017MOL0     H37232  10.057   9.941   1.928 -0.9920 -0.5388 -1.7442
 1017MOL0     H37233  10.137   9.792   1.994 -0.5631 -1.2668 -0.3779
 1017MOL0     H37234  10.075   9.876   2.214 -1.7135  1.5640  1.9790
 1017MOL0     H37235   9.940   9.965   2.148  0.4615  0.6704  3.2083
 1017MOL0     H37236  10.115  10.116   2.039  0.7852 -1.0788 -1.5682
 1017MOL0     H37237  10.090  10.122   2.217 -2.9193 -1.1360 -1.0645
 1017MOL0     H37238  10.291   9.972   2.255  1.2753  2.0090 -0.3439
 1017MOL0     H37239  10.299   9.924   2.094  1.1208  1.7036 -1.0800
 1017MOL0     H37240  10.376  10.125   1.992 -0.5867 -1.5111 -0.3217
 1017MOL0     H37241  10.349  10.217   2.134 -1.8730 -0.9488  1.1155
 1017MOL0     H37242  10.573  10.012   2.094 -0.1476 -0.8623 -1.5379
 1017MOL0     H37243  10.504  10.086   2.255 -2.2597  0.6814 -0.6120
 1017MOL0     H37244  10.590  10.280   2.034  1.3587 -2.1683 -1.9864
 1017MOL0     H37245  10.569  10.297   2.211 -2.6631 -1.6918 -0.0399
 1017MOL0     H37246  10.798  10.300   2.349 -2.3217  2.3894 -2.2410
 1017MOL0     H37247  11.162  10.145   2.224  1.3295  2.5642 -1.2213
 1017MOL0     H37248  11.124  10.310   2.260 -1.0857  0.9188  0.8354
 1017MOL0     H37249  11.011  10.245   2.473  1.7586  1.0304  0.4200
 1017MOL0     H37250  11.050  10.076   2.443 -2.0516  0.8454  1.2573
 1017MOL0     H37251  11.292  10.247   2.410 -0.4718 -3.5003 -1.7747
 1017MOL0     H37252  11.271  10.116   2.525  0.2734 -0.5834 -1.8966
 1017MOL0     H37253  11.308  10.310   2.671 -1.1236  0.5863  0.2714
 1017MOL0     H37254  11.157  10.232   2.677  2.0756 -0.7188  2.0080
 1017MOL0     H37255  11.026  10.623   2.476 -0.5818 -0.3443 -0.3851
 1017MOL0     H37256  11.097  10.755   2.286  0.1470  0.0941 -2.7079
 1017MOL0     H37257  11.099  10.924   1.887 -1.2309  0.6615 -1.4339
 1017MOL0     H37258  11.199  11.087   1.710  2.6252 -0.2247 -2.1759
 1017MOL0     H37259  11.260  11.269   1.665  0.1827 -0.5181  0.1205
 1017MOL0     H37260  11.403  11.363   1.629  0.8514 -0.9814  1.0789
 1017MOL0     H37261  11.332  11.293   1.430 -0.0612  0.4337  0.4437
 1017MOL0     H37262  11.481  11.217   1.465  0.1716  1.3757  0.0218
 1017MOL0     H37263  11.374  10.996   1.503  1.1489 -0.1588 -2.2875
 1017MOL0     H37264  11.214  11.062   1.470 -0.8508  0.2378 -2.1978
 1017MOL0     H37265  11.435  11.050   1.267 -0.9226 -2.1371 -0.6727
 1017MOL0     H37266  11.296  11.158   1.245 -1.1437 -1.3586 -0.4040
 1017MOL0     H37267  11.158  10.973   1.208 -0.3190 -0.3852 -1.6746
 1017MOL0     H37268  11.249  10.872   1.322  1.5404  0.5881  0.2397
 1017MOL0     H37269  11.330  10.949   1.039 -0.6620  0.3126  0.2917
 1017MOL0     H37270  11.446  10.849   1.140  1.4669  1.0106 -1.4411
 1017MOL0     H37271  11.163  10.747   1.116 -0.6503 -1.5785  1.5393
 1017MOL0     H37272  11.310  10.681   1.156  1.3845  3.5154  1.1312
 1017MOL0     H37273  11.376  10.675   0.902 -2.1711 -0.7801 -3.9019
 1017MOL0     H37274  11.223  10.600   0.920  1.5545 -1.0225 -0.8869
 1017MOL0     H37275  11.549  11.116   1.931  1.1348 -0.1297 -0.4028
 1017MOL0     H37276  11.486  10.957   2.078  1.1515 -0.3434 -0.9851
 1017MOL0     H37277  11.466  10.540   2.277 -0.6253  0.2493 -1.5119
 1017MOL0     H37278  11.398  10.423   2.486 -2.5472  0.0783  3.6802
 1017MOL0     H37279   9.681   9.649   2.111 -0.1869 -0.2531  1.1268
 1017MOL0     H37280   9.534   9.469   2.075  0.3742  2.1932  1.6298
 1017MOL0     H37281   9.510   9.000   2.014  1.1565 -1.6897 -0.0159
 1017MOL0     H37282   9.395   8.794   1.925  0.7755 -1.3867 -2.8727
 1017MOL0     H37283   9.366   8.740   1.552 -1.1646  3.4978 -0.2122
 1017MOL0     H37284   9.192   8.754   1.525  0.4526  0.3979  0.5337
 1017MOL0     H37285   9.301   8.533   1.480 -0.7975 -0.5513 -0.2199
 1017MOL0     H37286   9.162   8.534   1.575  0.6702 -0.0649 -2.0118
 1017MOL0     H37287   9.314   8.376   1.679  0.6410 -0.2786  3.4968
 1017MOL0     H37288   9.267   8.503   1.783  0.5415 -0.7369 -0.2158
 1017MOL0     H37289   9.503   8.614   1.713  2.7548 -0.8515 -0.0170
 1017MOL0     H37290   9.519   8.461   1.803  1.5810 -0.7208 -1.2662
 1017MOL0     H37291   9.717   8.359   1.455  1.7342 -3.4818  2.2479
 1017MOL0     H37292   9.190   9.020   1.625  3.3918  1.1290 -2.6799
 1017MOL0     H37293   9.388   9.303   1.620  4.1875 -4.4302  0.8337
 1017MOL0     H37294   9.250   9.217   1.560  0.3490  0.4471 -0.5773
 1017MOL0     H37295   9.231   9.304   1.706 -1.6472  1.4121 -2.5372
 1018MOL0     O37296   4.140   0.765   4.685 -0.7341  0.6796 -0.2771
 1018MOL0     C37297   4.192   0.788   4.790 -0.2075  0.0317 -0.3703
 1018MOL0     O37298   4.175   0.707   4.907  0.0279  0.5725 -0.1955
 1018MOL0     C37299   4.098   0.589   4.901 -0.5440 -0.2107 -0.1561
 1018MOL0     C37300   4.157   0.457   4.903 -0.3817 -0.7880  0.6951
 1018MOL0     C37301   4.088   0.342   4.898  0.4591 -0.7222  0.3974
 1018MOL0     C37302   3.944   0.351   4.899 -0.4556  0.3703 -0.0365
 1018MOL0     O37303   3.870   0.239   4.914  0.3731  0.4254  0.3457
 1018MOL0     C37304   3.911   0.167   5.031  0.3395  1.0392  0.2169
 1018MOL0     C37305   3.832   0.038   5.037 -0.0147 -0.3447 -0.1020
 1018MOL0     C37306   3.840  -0.040   5.173 -1.1018  0.7789 -0.1058
 1018MOL0     C37307   3.949  -0.153   5.173  0.2386 -0.3088  0.4560
 1018MOL0     C37308   4.092  -0.116   5.147 -0.1647  0.1165 -0.2413
 1018MOL0     C37309   4.192  -0.228   5.152  0.4823  0.1912 -0.0697
 1018MOL0     C37310   4.268  -0.271   5.019 -0.0369  0.5720 -0.7028
 1018MOL0     C37311   4.378  -0.377   5.028 -0.2865  0.2314  0.8878
 1018MOL0     N37312   4.329  -0.490   5.118 -0.3381  0.1507 -0.4849
 1018MOL0     C37313   4.377  -0.502   5.247 -0.2254  0.0520  0.5023
 1018MOL0     C37314   4.291  -0.592   5.305 -1.3484 -0.0115  0.1251
 1018MOL0     C37315   4.303  -0.637   5.441  0.1155 -0.1423 -0.3713
 1018MOL0     C37316   4.298  -0.523   5.540  0.3564 -0.3500 -0.5173
 1018MOL0     C37317   4.168  -0.450   5.553 -0.3859 -0.0804 -1.0577
 1018MOL0     C37318   4.062  -0.541   5.614 -0.1615 -0.4347  0.2863
 1018MOL0     O37319   3.936  -0.470   5.655  0.6419  0.2209 -0.9045
 1018MOL0     C37320   3.840  -0.440   5.558 -0.4390 -0.3950  0.3843
 1018MOL0     C37321   3.710  -0.398   5.590  0.0713 -1.0930  0.2188
 1018MOL0     C37322   3.610  -0.372   5.491  0.4873 -0.1106 -0.8074
 1018MOL0     C37323   3.643  -0.369   5.358  0.5321  0.0447 -0.0399
 1018MOL0     C37324   3.543  -0.339   5.245 -0.0025 -0.3112  0.1330
 1018MOL0     O37325   3.592  -0.344   5.118  0.0433 -0.0621  0.5184
 1018MOL0     C37326   3.528  -0.303   5.006  0.0238  0.2427  0.1346
 1018MOL0     C37327   3.585  -0.205   4.927  0.5793 -0.9135  0.8803
 1018MOL0     C37328   3.516  -0.159   4.814 -0.1938  0.2942  0.4462
 1018MOL0     C37329   3.398  -0.217   4.770 -0.6566 -1.4128  0.1515
 1018MOL0     O37330   3.326  -0.182   4.661 -0.5231 -0.4123 -0.4090
 1018MOL0     C37331   3.369  -0.055   4.602  0.8598 -0.3845  0.5164
 1018MOL0     C37332   3.266  -0.010   4.491  0.3198 -0.1983 -0.0651
 1018MOL0     C37333   3.163   0.075   4.569  1.1918 -0.7355 -0.0826
 1018MOL0     C37334   3.069   0.153   4.470  0.6827 -0.0076  0.7006
 1018MOL0     C37335   2.949   0.219   4.541 -1.0388 -0.7159 -0.1351
 1018MOL0     C37336   2.842   0.114   4.594  0.5822 -0.6468  0.7262
 1018MOL0     C37337   2.723   0.191   4.645  0.1446 -0.3876  0.5376
 1018MOL0     C37338   2.615   0.100   4.702 -0.5170  1.2224 -0.5110
 1018MOL0    Cl37339   2.452   0.173   4.659  0.2889 -0.1537  0.0408
 1018MOL0     C37340   3.345  -0.316   4.850 -0.3712  0.2673  0.6299
 1018MOL0     C37341   3.409  -0.361   4.969  0.0138 -0.2411  1.3814
 1018MOL0     O37342   3.431  -0.324   5.275  0.1981 -0.4860  0.1151
 1018MOL0     C37343   3.772  -0.415   5.322  0.1777  0.4761 -0.1872
 1018MOL0     C37344   3.868  -0.455   5.415  0.2795  0.0607 -0.3827
 1018MOL0     N37345   4.205  -0.646   5.202 -0.0812 -0.1755 -0.0060
 1018MOL0     N37346   4.231  -0.576   5.096  0.0349  0.3060 -0.4506
 1018MOL0     C37347   3.886   0.477   4.900  0.7409 -0.6071  0.5748
 1018MOL0     C37348   3.956   0.596   4.891 -0.7606 -0.5284  0.9176
 1018MOL0     C37349   4.247   0.920   4.821  0.3975 -0.0851 -0.1099
 1018MOL0     C37350   4.187   1.037   4.758 -0.3430  0.3564 -0.4466
 1018MOL0     C37351   4.230   1.165   4.787 -0.1195  0.4351  0.2356
 1018MOL0     C37352   4.314   1.179   4.891  0.2363 -0.2732  0.0059
 1018MOL0     O37353   4.351   1.297   4.935 -0.0332 -0.6546  0.8108
 1018MOL0     C37354   4.254   1.402   4.940  0.3352 -0.4029  1.1923
 1018MOL0     C37355   4.317   1.525   4.998 -0.1765 -0.2765 -0.2707
 1018MOL0     C37356   4.411   1.590   4.884  0.3453  0.6334  0.1459
 1018MOL0     C37357   4.462   1.725   4.952 -0.1199 -0.5391  0.0005
 1018MOL0     C37358   4.572   1.687   5.044 -0.7524  0.0794 -0.3835
 1018MOL0     C37359   4.676   1.653   5.108 -0.6366 -0.3350  0.1117
 1018MOL0     C37360   4.371   1.075   4.960  0.3807  0.2162 -0.4714
 1018MOL0     C37361   4.341   0.939   4.926  0.8078 -0.6051 -0.0262
 1018MOL0     C37362   4.411   0.824   4.987 -0.6301 -0.5544 -0.1696
 1018MOL0     H37363   4.265   0.472   4.897 -0.7605  1.9567 -1.2366
 1018MOL0     H37364   4.148   0.252   4.897  1.9336  0.1892  1.4542
 1018MOL0     H37365   4.016   0.140   5.044  0.9323  3.8998  2.5482
 1018MOL0     H37366   3.888   0.229   5.119  4.1937  2.3103  0.5165
 1018MOL0     H37367   3.870  -0.031   4.961 -2.2540  0.1822 -1.7879
 1018MOL0     H37368   3.727   0.064   5.023  0.0538  1.4620  2.1362
 1018MOL0     H37369   3.747  -0.080   5.213 -0.4448  0.5223  1.2211
 1018MOL0     H37370   3.881   0.025   5.251 -1.6499 -0.4171  1.2202
 1018MOL0     H37371   3.947  -0.203   5.270 -0.8073 -2.4829 -0.6382
 1018MOL0     H37372   3.913  -0.234   5.110  0.8198  0.1774 -0.5115
 1018MOL0     H37373   4.111  -0.076   5.047  2.4759  0.8055  0.4719
 1018MOL0     H37374   4.116  -0.037   5.218  0.1344 -0.4621  0.3093
 1018MOL0     H37375   4.273  -0.190   5.215  1.2491 -1.6012  0.0858
 1018MOL0     H37376   4.148  -0.315   5.200  0.9501  0.0176  0.0533
 1018MOL0     H37377   4.307  -0.174   4.985  1.7384 -0.1956 -0.9942
 1018MOL0     H37378   4.192  -0.303   4.947  0.0780  0.6300 -0.8516
 1018MOL0     H37379   4.400  -0.413   4.927  1.4366  1.9518  0.5722
 1018MOL0     H37380   4.468  -0.322   5.058  0.8586 -0.3389 -1.2976
 1018MOL0     H37381   4.457  -0.442   5.289  0.6985 -0.1429 -0.9288
 1018MOL0     H37382   4.222  -0.706   5.465 -0.3297  0.4981 -0.0066
 1018MOL0     H37383   4.389  -0.701   5.464 -0.1325  0.3592  2.2957
 1018MOL0     H37384   4.325  -0.562   5.639  0.4641  1.5126  0.2351
 1018MOL0     H37385   4.383  -0.458   5.514  0.7093 -0.0487  1.2215
 1018MOL0     H37386   4.141  -0.413   5.453  1.4519  1.5864 -1.0011
 1018MOL0     H37387   4.178  -0.367   5.623  0.8015 -0.6550 -0.5240
 1018MOL0     H37388   4.096  -0.599   5.700  0.1880 -2.0109 -0.8685
 1018MOL0     H37389   4.038  -0.623   5.545  1.8925 -1.3581  0.5964
 1018MOL0     H37390   3.676  -0.380   5.692  2.5186  3.8060  0.4697
 1018MOL0     H37391   3.505  -0.363   5.520 -0.6242 -4.0686 -2.8504
 1018MOL0     H37392   3.679  -0.161   4.960  0.9749 -0.7965 -0.3137
 1018MOL0     H37393   3.558  -0.076   4.757  0.7612 -1.2902 -1.2772
 1018MOL0     H37394   3.370   0.020   4.681  0.3034  0.3195 -0.1385
 1018MOL0     H37395   3.466  -0.063   4.552 -0.8492 -0.1662 -3.1379
 1018MOL0     H37396   3.311   0.051   4.412 -1.0561  1.6117  0.4811
 1018MOL0     H37397   3.227  -0.102   4.447 -1.9980  1.1109 -0.9025
 1018MOL0     H37398   3.094   0.008   4.621  1.2365 -3.1099 -2.8553
 1018MOL0     H37399   3.208   0.146   4.639  1.1151 -0.4873 -0.2847
 1018MOL0     H37400   3.035   0.083   4.393 -2.4460 -1.4127  3.1058
 1018MOL0     H37401   3.119   0.237   4.422 -2.4594  0.6111 -1.8106
 1018MOL0     H37402   2.899   0.292   4.477 -0.0910  1.4040  1.4003
 1018MOL0     H37403   2.988   0.269   4.630 -2.3272 -3.0420  1.8733
 1018MOL0     H37404   2.824   0.035   4.521  0.8443  0.1719 -0.2603
 1018MOL0     H37405   2.892   0.053   4.669  1.0866 -0.0197  0.9177
 1018MOL0     H37406   2.685   0.242   4.556 -0.4959 -1.4235  0.1970
 1018MOL0     H37407   2.748   0.264   4.723 -0.1793 -0.4430  0.6976
 1018MOL0     H37408   2.629   0.000   4.661 -0.7569  0.0164  2.1521
 1018MOL0     H37409   2.618   0.095   4.811 -2.4198  0.2407 -0.4674
 1018MOL0     H37410   3.245  -0.352   4.827  0.0373 -1.5190  1.5318
 1018MOL0     H37411   3.367  -0.444   5.025  3.5924 -2.3121  1.2817
 1018MOL0     H37412   3.803  -0.437   5.221  2.3550 -0.7284  0.6616
 1018MOL0     H37413   3.965  -0.491   5.382  3.0930  3.3865  3.3578
 1018MOL0     H37414   3.777   0.477   4.905  0.7694 -1.6653  1.5531
 1018MOL0     H37415   3.903   0.690   4.888 -0.4773 -0.3927 -0.1530
 1018MOL0     H37416   4.114   1.036   4.678  0.9732  0.3283 -1.6885
 1018MOL0     H37417   4.184   1.246   4.731 -1.3815 -0.6739 -0.4097
 1018MOL0     H37418   4.165   1.386   5.002 -2.1157  2.5637 -1.2540
 1018MOL0     H37419   4.216   1.430   4.842  0.9299  2.7282  1.7264
 1018MOL0     H37420   4.374   1.504   5.089 -2.2961 -0.3732  1.0970
 1018MOL0     H37421   4.241   1.596   5.031  0.3026  1.7946 -3.1353
 1018MOL0     H37422   4.348   1.621   4.800  0.3755 -3.4955 -1.6431
 1018MOL0     H37423   4.494   1.525   4.856  2.5026  1.8866  3.0789
 1018MOL0     H37424   4.498   1.796   4.878  2.6333  1.2431  2.8292
 1018MOL0     H37425   4.394   1.789   5.008 -0.3720  0.5707 -1.5193
 1018MOL0     H37426   4.764   1.623   5.161  1.5197  1.5095 -2.2353
 1018MOL0     H37427   4.443   1.095   5.039 -0.0982  0.2115 -0.0226
 1018MOL0     H37428   4.441   0.761   4.902  1.2799 -0.4276  0.3592
 1018MOL0     H37429   4.504   0.850   5.038 -0.6602  0.2681 -0.5260
 1018MOL0     H37430   4.343   0.766   5.050 -0.8205 -0.2762 -0.1183
 1019MOL0     O37431   7.702   2.743   5.675  0.2583 -0.4675  0.5529
 1019MOL0     C37432   7.823   2.727   5.658 -0.0517 -0.0490  0.1531
 1019MOL0     O37433   7.909   2.826   5.649  0.2411  0.3224  0.2519
 1019MOL0     C37434   7.861   2.952   5.695  0.3826 -0.8678 -0.0907
 1019MOL0     C37435   7.860   2.987   5.834  1.0024  1.0891  0.6146
 1019MOL0     C37436   7.818   3.115   5.873  0.6168  0.5404 -0.5666
 1019MOL0     C37437   7.759   3.205   5.787 -0.1963  0.7131  0.4048
 1019MOL0     O37438   7.706   3.329   5.825  0.3788  0.5515 -0.5444
 1019MOL0     C37439   7.593   3.309   5.912  0.1450  0.0885  0.5523
 1019MOL0     C37440   7.555   3.453   5.973 -1.3482  0.2281 -0.1171
 1019MOL0     C37441   7.699   3.523   6.013 -0.1131 -0.3415  0.2543
 1019MOL0     C37442   7.686   3.632   6.114 -0.2328  0.3158  0.3411
 1019MOL0     C37443   7.800   3.728   6.098 -0.7777 -0.2552  0.5154
 1019MOL0     C37444   7.955   3.683   6.099  0.8797 -0.4721  0.0928
 1019MOL0     C37445   8.055   3.809   6.074  0.6980  0.2618 -0.2232
 1019MOL0     C37446   8.135   3.793   5.937 -0.1914 -0.0534  0.4575
 1019MOL0     N37447   8.043   3.832   5.833 -0.3428  0.0518 -0.1844
 1019MOL0     C37448   7.953   3.749   5.774  0.3865  0.1062 -0.1892
 1019MOL0     C37449   7.885   3.839   5.690 -0.5201 -1.6170 -0.3354
 1019MOL0     C37450   7.779   3.792   5.598  0.6353  0.6968 -0.5651
 1019MOL0     C37451   7.660   3.898   5.626 -0.2220  0.1856  0.0008
 1019MOL0     C37452   7.594   3.897   5.760  0.1878 -0.4341  0.6296
 1019MOL0     C37453   7.469   3.986   5.776 -0.1622  0.5669  0.4281
 1019MOL0     O37454   7.511   4.121   5.767  0.3487 -0.8479  0.1397
 1019MOL0     C37455   7.440   4.211   5.858  0.1038  0.8384  1.0389
 1019MOL0     C37456   7.301   4.190   5.891  0.4359 -0.8435  0.0057
 1019MOL0     C37457   7.253   4.256   6.001  0.9548 -0.2127 -0.2003
 1019MOL0     C37458   7.334   4.347   6.078  0.3265  0.8223 -0.1082
 1019MOL0     C37459   7.279   4.422   6.197 -0.7351 -0.4317  0.5878
 1019MOL0     O37460   7.355   4.528   6.242  0.1147  1.3975  0.3948
 1019MOL0     C37461   7.295   4.577   6.355 -0.1943  0.0747  0.1153
 1019MOL0     C37462   7.196   4.672   6.337 -0.1229  0.7347 -0.5905
 1019MOL0     C37463   7.145   4.735   6.442  0.9505 -0.3180 -0.3903
 1019MOL0     C37464   7.202   4.725   6.572 -0.0772 -0.8421  0.3797
 1019MOL0     O37465   7.173   4.818   6.674  0.8890 -0.3268 -0.5062
 1019MOL0     C37466   7.203   4.951   6.636 -0.3147  0.3822 -0.0352
 1019MOL0     C37467   7.130   5.050   6.725 -0.0421 -0.1824  0.5541
 1019MOL0     C37468   6.972   5.051   6.701 -0.5987  0.5315  0.3536
 1019MOL0     C37469   6.912   5.173   6.761  0.6138 -0.0545 -0.1361
 1019MOL0     C37470   6.761   5.200   6.712 -0.2223  0.9345  0.2622
 1019MOL0     C37471   6.712   5.333   6.773 -0.0702  0.1156  1.2854
 1019MOL0     C37472   6.681   5.334   6.926  0.1452  0.0778 -0.1478
 1019MOL0     C37473   6.660   5.477   6.995 -0.1258  0.1839 -0.6790
 1019MOL0    Cl37474   6.601   5.466   7.162  0.3793  0.0933 -0.2279
 1019MOL0     C37475   7.299   4.627   6.588 -0.3832 -0.3905  0.4584
 1019MOL0     C37476   7.340   4.542   6.482  0.2008  0.6552  0.6204
 1019MOL0     O37477   7.176   4.382   6.241  0.5527 -0.4014  0.3340
 1019MOL0     C37478   7.466   4.369   6.036 -0.6886  0.0107  1.3492
 1019MOL0     C37479   7.519   4.307   5.916 -0.0504  0.2118 -0.8549
 1019MOL0     N37480   7.934   3.970   5.710  0.3449 -0.2292  0.4665
 1019MOL0     N37481   8.027   3.960   5.798 -0.4701  0.2043  0.8871
 1019MOL0     C37482   7.764   3.168   5.651 -0.2376  0.7705 -0.0091
 1019MOL0     C37483   7.815   3.046   5.608 -1.1118 -0.0271 -0.0623
 1019MOL0     C37484   7.866   2.595   5.639 -0.5066 -0.1904  0.6132
 1019MOL0     C37485   7.891   2.563   5.508 -0.4050 -1.2139 -0.5386
 1019MOL0     C37486   7.938   2.440   5.480  0.0746 -0.5636 -0.7189
 1019MOL0     C37487   7.982   2.352   5.579  0.5237  0.1023  0.4668
 1019MOL0     O37488   8.021   2.233   5.523  0.3253 -0.3118 -0.4623
 1019MOL0     C37489   8.076   2.124   5.602 -0.4122  0.6323  0.1898
 1019MOL0     C37490   8.100   2.003   5.509 -0.0190 -0.2647 -0.8657
 1019MOL0     C37491   7.966   1.944   5.451  0.4467  0.7868 -0.7552
 1019MOL0     C37492   7.983   1.829   5.350  0.4480 -0.1590  0.4733
 1019MOL0     C37493   7.851   1.759   5.336 -0.7021  0.6895  0.2523
 1019MOL0     C37494   7.761   1.687   5.301  0.3026 -0.7258 -0.2690
 1019MOL0     C37495   7.949   2.380   5.712  0.0906 -0.4202 -0.7353
 1019MOL0     C37496   7.894   2.499   5.740  0.3405  1.2751 -0.1825
 1019MOL0     C37497   7.866   2.527   5.888  0.4384  0.0355 -0.4513
 1019MOL0     H37498   7.907   2.919   5.904 -0.5772 -0.2408  0.4395
 1019MOL0     H37499   7.839   3.142   5.977  4.7064  3.6677 -1.9257
 1019MOL0     H37500   7.506   3.273   5.856 -0.0942 -1.2728  1.7501
 1019MOL0     H37501   7.607   3.230   5.986 -0.7030 -0.0031  0.6164
 1019MOL0     H37502   7.497   3.438   6.064  0.6431 -2.8223  0.8480
 1019MOL0     H37503   7.505   3.518   5.901  3.5988  2.2024 -2.2672
 1019MOL0     H37504   7.747   3.564   5.923  0.4357  1.4781  1.3227
 1019MOL0     H37505   7.766   3.444   6.048  0.3880  0.0854  0.2613
 1019MOL0     H37506   7.601   3.698   6.093  0.2894  0.1648 -2.5833
 1019MOL0     H37507   7.671   3.584   6.212 -1.7947 -1.3500 -0.6569
 1019MOL0     H37508   7.786   3.777   6.001 -0.1494  1.2353  1.1518
 1019MOL0     H37509   7.788   3.805   6.174 -0.5143 -0.7175  1.0334
 1019MOL0     H37510   7.980   3.646   6.199  3.1369  1.5920  0.3796
 1019MOL0     H37511   7.981   3.608   6.024 -2.0884 -0.2297 -1.2932
 1019MOL0     H37512   8.117   3.797   6.163  0.9461  1.3446 -0.2372
 1019MOL0     H37513   8.004   3.906   6.074  0.4126  0.1233  0.5732
 1019MOL0     H37514   8.223   3.858   5.938  0.1093 -0.3884  2.9817
 1019MOL0     H37515   8.171   3.691   5.919 -3.6019 -1.7761  2.3590
 1019MOL0     H37516   7.935   3.644   5.791 -3.0647  0.9332  2.5154
 1019MOL0     H37517   7.802   3.778   5.492 -0.5649  0.5407 -0.8167
 1019MOL0     H37518   7.739   3.697   5.636 -1.6237  2.3817  1.6799
 1019MOL0     H37519   7.695   3.995   5.590  4.7793 -2.3949 -3.1424
 1019MOL0     H37520   7.574   3.872   5.563 -3.2952  1.7959  3.1726
 1019MOL0     H37521   7.661   3.936   5.836  0.4694  0.0028  0.1574
 1019MOL0     H37522   7.574   3.791   5.783 -0.7863 -0.3850  0.0570
 1019MOL0     H37523   7.413   3.964   5.868 -0.9609  0.5719 -0.0520
 1019MOL0     H37524   7.406   3.961   5.690  1.9820  1.1694 -1.4170
 1019MOL0     H37525   7.244   4.108   5.849 -0.5669  0.6998 -1.7995
 1019MOL0     H37526   7.156   4.235   6.046  1.1779  0.2265  0.5187
 1019MOL0     H37527   7.166   4.696   6.235  0.0704 -0.4190 -0.9257
 1019MOL0     H37528   7.070   4.811   6.418 -1.8339 -2.0760  2.0656
 1019MOL0     H37529   7.311   4.966   6.633 -0.3534  1.5136  2.0866
 1019MOL0     H37530   7.158   4.973   6.539  1.2326 -1.3386 -1.1957
 1019MOL0     H37531   7.160   5.033   6.828 -0.5377 -1.3618  0.5232
 1019MOL0     H37532   7.173   5.150   6.717  2.3906 -1.0180  2.3785
 1019MOL0     H37533   6.953   5.056   6.594 -0.9388 -2.0870  0.2454
 1019MOL0     H37534   6.924   4.960   6.738 -1.3992 -0.1854 -2.2680
 1019MOL0     H37535   6.973   5.263   6.749 -0.7971  0.7745 -1.4379
 1019MOL0     H37536   6.900   5.154   6.868  1.7902  1.7409  0.3666
 1019MOL0     H37537   6.703   5.111   6.739  0.2783  0.8000  0.9274
 1019MOL0     H37538   6.753   5.202   6.603 -3.7483  0.2873  0.4024
 1019MOL0     H37539   6.792   5.407   6.763 -1.4103  1.3204 -1.6731
 1019MOL0     H37540   6.627   5.363   6.710 -0.6592  0.7042  2.3373
 1019MOL0     H37541   6.763   5.290   6.984 -2.4980 -1.3803  2.7979
 1019MOL0     H37542   6.590   5.275   6.944  1.4086 -1.8367  0.3186
 1019MOL0     H37543   6.753   5.534   6.985 -1.6661  2.9451 -0.0616
 1019MOL0     H37544   6.580   5.521   6.936  0.0200 -2.2693 -2.8707
 1019MOL0     H37545   7.333   4.604   6.689 -0.7017 -1.0997  0.4073
 1019MOL0     H37546   7.416   4.467   6.498  0.5386  0.5651 -1.1998
 1019MOL0     H37547   7.531   4.444   6.082  2.6194 -0.4795 -2.0052
 1019MOL0     H37548   7.616   4.313   5.870  0.5990 -1.9055  0.0740
 1019MOL0     H37549   7.722   3.218   5.564 -0.2758 -2.5351 -2.0993
 1019MOL0     H37550   7.822   3.020   5.502 -1.4708 -3.0339  0.5549
 1019MOL0     H37551   7.889   2.643   5.434 -1.7241 -1.5782 -0.9192
 1019MOL0     H37552   7.963   2.417   5.377 -0.0294  0.4013 -0.9737
 1019MOL0     H37553   8.006   2.096   5.681 -1.4146  0.6830 -0.6456
 1019MOL0     H37554   8.174   2.151   5.642 -0.2814 -0.6697  0.7780
 1019MOL0     H37555   8.166   1.927   5.551 -0.4372 -0.4116 -0.4649
 1019MOL0     H37556   8.157   2.047   5.426  1.4523 -0.4118  0.0237
 1019MOL0     H37557   7.905   2.013   5.391 -0.2300 -1.0536 -2.3057
 1019MOL0     H37558   7.911   1.901   5.536 -1.9836  1.7974 -1.7338
 1019MOL0     H37559   8.018   1.884   5.263 -0.7880  1.5959  1.0425
 1019MOL0     H37560   8.062   1.760   5.383 -0.5509 -2.0983 -1.0088
 1019MOL0     H37561   7.673   1.637   5.267 -2.1097  2.4039  0.8579
 1019MOL0     H37562   7.967   2.299   5.782  1.7441  1.4010  1.0545
 1019MOL0     H37563   7.853   2.430   5.936 -1.5993 -0.6855 -2.3095
 1019MOL0     H37564   7.940   2.601   5.921 -1.3102  2.3839 -1.4979
 1019MOL0     H37565   7.770   2.579   5.888 -0.3096 -1.2446  1.1182
 1020MOL0     O37566   9.638   0.784   0.530 -0.5249  0.7350  0.3599
 1020MOL0     C37567   9.538   0.848   0.534  0.1792 -1.0424 -0.0708
 1020MOL0     O37568   9.546   0.969   0.492  0.3781 -0.0634  0.5771
 1020MOL0     C37569   9.612   1.017   0.373  1.0392  0.1318  0.6825
 1020MOL0     C37570   9.641   1.158   0.363  0.2928 -0.3006  0.1239
 1020MOL0     C37571   9.686   1.215   0.242 -0.5842 -0.3908  0.4970
 1020MOL0     C37572   9.723   1.133   0.138  0.1486  0.1379  1.1378
 1020MOL0     O37573   9.783   1.181   0.020  0.1794  0.5989 -0.4603
 1020MOL0     C37574   9.906   1.244   0.036  0.5495 -0.4351 -1.0845
 1020MOL0     C37575   9.990   1.277  -0.092  0.1605  0.5364  0.3002
 1020MOL0     C37576   9.960   1.181  -0.211  0.2214 -0.0892 -0.4114
 1020MOL0     C37577  10.014   1.038  -0.197  0.0481  0.1906  0.0404
 1020MOL0     C37578   9.948   0.949  -0.306 -0.0255  0.6103 -0.6408
 1020MOL0     C37579   9.978   0.788  -0.299 -0.1924  0.1584 -0.7860
 1020MOL0     C37580   9.905   0.701  -0.397  0.3196 -0.5587 -0.5494
 1020MOL0     C37581   9.757   0.686  -0.371  0.1136  0.0510 -0.0854
 1020MOL0     N37582   9.686   0.579  -0.421 -0.5276  0.0252  0.6758
 1020MOL0     C37583   9.636   0.470  -0.352  0.1956 -0.1320 -0.0458
 1020MOL0     C37584   9.572   0.386  -0.441  0.9339  0.0159  0.7364
 1020MOL0     C37585   9.513   0.256  -0.401  0.5235 -0.7368  0.6188
 1020MOL0     C37586   9.615   0.145  -0.441 -0.3600  0.1810  0.6931
 1020MOL0     C37587   9.604   0.017  -0.357 -0.0928  0.8093  0.3573
 1020MOL0     C37588   9.464  -0.057  -0.360 -0.7563 -0.1250  0.0789
 1020MOL0     O37589   9.429  -0.080  -0.495  0.0269  0.0283 -0.7916
 1020MOL0     C37590   9.509  -0.168  -0.566  0.2749 -0.3507 -0.4710
 1020MOL0     C37591   9.488  -0.175  -0.703  0.3432  0.1588  0.5047
 1020MOL0     C37592   9.564  -0.252  -0.785 -0.7875 -0.4554  0.3807
 1020MOL0     C37593   9.649  -0.346  -0.726  1.2630 -0.1580 -0.9762
 1020MOL0     C37594   9.736  -0.435  -0.809  0.0584 -0.5010 -0.5718
 1020MOL0     O37595   9.744  -0.405  -0.945  0.1050  0.3725 -0.6416
 1020MOL0     C37596   9.813  -0.486  -1.022 -0.7827  0.1344 -0.3125
 1020MOL0     C37597   9.768  -0.591  -1.097 -0.1432  0.1395  0.3628
 1020MOL0     C37598   9.861  -0.670  -1.176 -0.7843  0.1249 -0.5720
 1020MOL0     C37599  10.002  -0.634  -1.183 -0.3924  0.1349 -0.9928
 1020MOL0     O37600  10.090  -0.689  -1.272 -0.0744  0.7100  0.2980
 1020MOL0     C37601  10.160  -0.798  -1.220 -0.5413  0.4529  0.5994
 1020MOL0     C37602  10.253  -0.841  -1.328 -0.7505  0.4487  0.0465
 1020MOL0     C37603  10.172  -0.915  -1.439 -0.2154  0.8595  1.2895
 1020MOL0     C37604  10.241  -0.895  -1.574 -0.2435 -0.7238  0.1532
 1020MOL0     C37605  10.193  -0.998  -1.685  1.0484 -0.4825 -0.5540
 1020MOL0     C37606  10.263  -0.964  -1.823 -0.7604  0.7968 -0.2388
 1020MOL0     C37607  10.243  -1.074  -1.927  0.1224 -0.5245  1.0004
 1020MOL0     C37608  10.275  -1.029  -2.070  0.4841  0.4790  0.2761
 1020MOL0    Cl37609  10.278  -1.165  -2.191 -0.5591 -0.2997  0.2117
 1020MOL0     C37610  10.050  -0.529  -1.103  0.4854 -0.0203 -0.2504
 1020MOL0     C37611   9.955  -0.470  -1.020 -0.8715  0.4612 -0.8856
 1020MOL0     O37612   9.804  -0.524  -0.753  0.6208 -0.3268 -0.4155
 1020MOL0     C37613   9.653  -0.359  -0.586 -0.4885 -0.1659  0.9285
 1020MOL0     C37614   9.582  -0.271  -0.508 -0.4528 -0.1918 -0.3948
 1020MOL0     N37615   9.567   0.460  -0.559 -0.5770  0.3722  0.3060
 1020MOL0     N37616   9.631   0.568  -0.547  0.0654  0.9198 -0.7718
 1020MOL0     C37617   9.691   0.996   0.155  0.4882  0.5299 -0.6581
 1020MOL0     C37618   9.638   0.934   0.269 -0.8075 -0.7511 -0.9470
 1020MOL0     C37619   9.430   0.795   0.622  0.5239 -0.2348 -0.7434
 1020MOL0     C37620   9.429   0.658   0.651 -0.5287 -0.6789 -0.9028
 1020MOL0     C37621   9.333   0.615   0.738  0.5152 -0.2500 -0.4126
 1020MOL0     C37622   9.229   0.698   0.793 -0.0949  0.4986 -1.0317
 1020MOL0     O37623   9.134   0.675   0.892  0.3188  0.5917 -0.1362
 1020MOL0     C37624   9.126   0.552   0.951 -0.8272  0.1719  0.5026
 1020MOL0     C37625   9.049   0.446   0.864  0.9961  0.7873 -0.2753
 1020MOL0     C37626   8.901   0.442   0.888 -0.3075  0.1370  0.1374
 1020MOL0     C37627   8.854   0.410   1.035 -0.9179  0.3530 -0.1878
 1020MOL0     C37628   8.710   0.419   1.027 -1.0579  0.3879 -1.4195
 1020MOL0     C37629   8.589   0.413   1.027  0.5341  0.1550 -0.2678
 1020MOL0     C37630   9.228   0.836   0.754  0.6886  0.4654  0.3053
 1020MOL0     C37631   9.322   0.889   0.676 -0.3375  0.6735  0.7743
 1020MOL0     C37632   9.313   1.030   0.627 -0.6057 -0.1379  0.6533
 1020MOL0     H37633   9.628   1.227   0.446  0.2781  0.6818 -0.6849
 1020MOL0     H37634   9.694   1.322   0.227  1.4130 -0.1205  2.8015
 1020MOL0     H37635   9.895   1.340   0.087  4.1081  1.1976 -2.9656
 1020MOL0     H37636   9.976   1.182   0.092 -1.1736 -0.0436  1.6844
 1020MOL0     H37637  10.094   1.270  -0.060 -0.1924 -1.5588  1.2206
 1020MOL0     H37638   9.967   1.381  -0.117 -0.2180  0.1794 -0.9090
 1020MOL0     H37639   9.999   1.210  -0.309 -1.4357 -0.6983 -1.2875
 1020MOL0     H37640   9.852   1.171  -0.220 -0.0009  0.9588  0.7402
 1020MOL0     H37641  10.122   1.023  -0.192  0.0123  0.0308  0.3298
 1020MOL0     H37642   9.978   1.005  -0.099 -0.9235 -1.5751 -0.8582
 1020MOL0     H37643   9.843   0.977  -0.314 -0.3419 -0.8426 -1.9037
 1020MOL0     H37644   9.986   0.972  -0.406 -2.7181  1.7852 -1.4776
 1020MOL0     H37645  10.086   0.788  -0.313  0.1044  2.5925  0.9530
 1020MOL0     H37646   9.959   0.750  -0.198  1.2795 -0.8696 -0.8652
 1020MOL0     H37647   9.960   0.606  -0.391  3.2252  1.0789  2.0575
 1020MOL0     H37648   9.923   0.742  -0.497 -1.1675 -0.9993 -1.0227
 1020MOL0     H37649   9.732   0.695  -0.265  1.4698  2.4237  0.0979
 1020MOL0     H37650   9.708   0.775  -0.412 -0.6283 -0.3303 -0.0274
 1020MOL0     H37651   9.670   0.450  -0.250  2.1732  2.1482 -0.1546
 1020MOL0     H37652   9.492   0.258  -0.294 -0.1234  1.0504  0.4907
 1020MOL0     H37653   9.421   0.216  -0.445 -0.0286 -1.2392  2.1637
 1020MOL0     H37654   9.615   0.126  -0.549 -0.2739 -1.8449  1.0044
 1020MOL0     H37655   9.720   0.174  -0.427  0.8000 -3.9326  1.8362
 1020MOL0     H37656   9.632   0.053  -0.257 -1.6896  1.0414  0.7570
 1020MOL0     H37657   9.681  -0.056  -0.380 -1.4908 -1.5277  2.5853
 1020MOL0     H37658   9.398   0.021  -0.320 -3.1463 -1.8379 -0.3269
 1020MOL0     H37659   9.458  -0.131  -0.280 -1.1475  0.3293  0.4778
 1020MOL0     H37660   9.428  -0.102  -0.755 -0.0616 -2.0245 -2.2982
 1020MOL0     H37661   9.569  -0.237  -0.892  2.1208 -0.4654  0.4160
 1020MOL0     H37662   9.663  -0.613  -1.086  0.2451 -1.5017  1.1305
 1020MOL0     H37663   9.826  -0.756  -1.233 -1.2133  0.9433 -1.5870
 1020MOL0     H37664  10.205  -0.781  -1.122 -1.7933  0.6673  1.1636
 1020MOL0     H37665  10.080  -0.872  -1.210 -2.7954  2.4071 -1.3732
 1020MOL0     H37666  10.317  -0.764  -1.373  0.0780 -0.5038 -0.4406
 1020MOL0     H37667  10.322  -0.913  -1.284  1.3468  1.5105 -1.2896
 1020MOL0     H37668  10.178  -1.022  -1.418  2.0905  0.7414  0.3970
 1020MOL0     H37669  10.072  -0.872  -1.446  0.4827  2.6432  1.7663
 1020MOL0     H37670  10.350  -0.900  -1.563 -0.1189  2.0443  0.8112
 1020MOL0     H37671  10.210  -0.796  -1.609 -1.9611 -1.4894 -0.6220
 1020MOL0     H37672  10.085  -0.985  -1.689  0.4717 -3.5895  1.4670
 1020MOL0     H37673  10.201  -1.103  -1.656  0.7798  0.0667  1.6880
 1020MOL0     H37674  10.235  -0.862  -1.854 -1.6380  1.1228  1.4497
 1020MOL0     H37675  10.371  -0.955  -1.816 -0.3076 -0.2940 -3.9191
 1020MOL0     H37676  10.145  -1.121  -1.916 -0.3416  0.5814  1.8016
 1020MOL0     H37677  10.310  -1.159  -1.910 -0.6816 -1.4742 -0.3530
 1020MOL0     H37678  10.212  -0.949  -2.108 -0.9737 -1.5261 -1.8206
 1020MOL0     H37679  10.378  -0.994  -2.079  1.6470 -2.8671 -0.8610
 1020MOL0     H37680  10.152  -0.492  -1.094  0.3418  0.0819  1.1981
 1020MOL0     H37681   9.995  -0.386  -0.965 -0.6161 -0.1910 -0.0456
 1020MOL0     H37682   9.707  -0.446  -0.550 -0.1369 -0.1645  0.4067
 1020MOL0     H37683   9.576  -0.278  -0.400 -0.7584  0.8273 -0.3401
 1020MOL0     H37684   9.713   0.917   0.083 -3.0143  0.6241 -2.0346
 1020MOL0     H37685   9.623   0.826   0.274  1.7093 -1.2812 -2.8815
 1020MOL0     H37686   9.518   0.600   0.628 -1.6413 -2.7478 -0.2723
 1020MOL0     H37687   9.347   0.511   0.767  2.4227  0.5707  1.9691
 1020MOL0     H37688   9.089   0.566   1.053  1.4652 -1.2019  1.6154
 1020MOL0     H37689   9.225   0.509   0.970 -0.8011 -0.0499 -0.0980
 1020MOL0     H37690   9.093   0.349   0.891 -0.9344 -1.5213 -4.4267
 1020MOL0     H37691   9.068   0.450   0.756 -2.2678  0.7653 -0.9319
 1020MOL0     H37692   8.851   0.373   0.820 -1.7461  0.1632  1.1297
 1020MOL0     H37693   8.868   0.542   0.859 -4.2050 -0.3976  2.1102
 1020MOL0     H37694   8.893   0.318   1.080  1.0965  0.3886 -1.7284
 1020MOL0     H37695   8.889   0.494   1.096 -1.3413  0.1903  0.2880
 1020MOL0     H37696   8.482   0.421   1.028  0.4941 -0.3707  1.0524
 1020MOL0     H37697   9.139   0.888   0.788  0.9700 -0.1348  2.0436
 1020MOL0     H37698   9.316   1.020   0.518  0.8175  0.5715  0.5997
 1020MOL0     H37699   9.225   1.086   0.660 -1.5308 -1.2483  0.1243
 1020MOL0     H37700   9.403   1.084   0.658  1.6968 -2.3621 -1.6553
 1021MOL0     O37701   6.358   1.102   7.692  0.1652 -0.0330  1.1947
 1021MOL0     C37702   6.452   1.043   7.748 -0.3421  0.0111  0.1155
 1021MOL0     O37703   6.462   0.911   7.755  0.5888  0.7520 -0.2744
 1021MOL0     C37704   6.353   0.837   7.720  0.3636 -0.3607 -0.9077
 1021MOL0     C37705   6.242   0.826   7.805 -0.3798 -0.2412 -0.7436
 1021MOL0     C37706   6.123   0.761   7.769 -1.1081  0.0148  0.0964
 1021MOL0     C37707   6.108   0.703   7.647  0.6671 -0.0418  0.8457
 1021MOL0     O37708   5.990   0.645   7.587  0.3578  0.3984 -0.8984
 1021MOL0     C37709   5.872   0.726   7.588 -0.4649  0.2608  0.4151
 1021MOL0     C37710   5.864   0.828   7.487  0.1110 -0.7810 -0.7209
 1021MOL0     C37711   5.844   0.763   7.343  0.1934  0.2818  0.0758
 1021MOL0     C37712   5.694   0.745   7.316 -0.3232  0.7994  0.7292
 1021MOL0     C37713   5.662   0.703   7.175 -0.7121 -0.0361 -0.0328
 1021MOL0     C37714   5.648   0.833   7.096 -0.7162  0.1011 -0.1666
 1021MOL0     C37715   5.556   0.803   6.982 -0.2466  0.2452 -0.1136
 1021MOL0     C37716   5.552   0.923   6.881  0.5782 -0.3134  1.2599
 1021MOL0     N37717   5.484   0.888   6.754 -1.3769  0.1246  0.3481
 1021MOL0     C37718   5.564   0.844   6.638  0.6749 -0.9460  0.3303
 1021MOL0     C37719   5.469   0.776   6.558  0.9464  0.1004 -0.4707
 1021MOL0     C37720   5.488   0.704   6.426  1.9848  0.6858  0.4514
 1021MOL0     C37721   5.466   0.784   6.293 -0.1801  0.1228  0.1556
 1021MOL0     C37722   5.340   0.867   6.290 -0.2701 -1.2085  0.5864
 1021MOL0     C37723   5.209   0.784   6.292 -0.2699  0.0427  0.2421
 1021MOL0     O37724   5.212   0.669   6.201  0.1031  0.2470  0.1058
 1021MOL0     C37725   5.092   0.627   6.149 -0.2361 -0.0962 -0.9975
 1021MOL0     C37726   5.015   0.699   6.066  0.0059 -0.4683 -0.2386
 1021MOL0     C37727   4.888   0.647   6.028 -0.4949 -0.0011  0.4146
 1021MOL0     C37728   4.846   0.522   6.067  0.1331  0.6377  0.8828
 1021MOL0     C37729   4.712   0.457   6.027 -0.1191 -0.2874 -0.0775
 1021MOL0     O37730   4.628   0.533   5.949 -0.3995  0.6575  0.1516
 1021MOL0     C37731   4.514   0.492   5.887  1.0135 -0.6152 -0.7759
 1021MOL0     C37732   4.483   0.363   5.867  1.1435  0.9763 -1.3915
 1021MOL0     C37733   4.363   0.327   5.804 -0.1746  0.2346 -0.0823
 1021MOL0     C37734   4.274   0.427   5.762  0.0008 -0.2979 -0.3598
 1021MOL0     O37735   4.155   0.400   5.705  0.2423  0.1378  0.2832
 1021MOL0     C37736   4.065   0.324   5.785 -0.0409  0.6902  0.1666
 1021MOL0     C37737   3.919   0.352   5.741 -0.8558 -1.1508  1.0332
 1021MOL0     C37738   3.906   0.290   5.605  1.2651  1.4409  0.6100
 1021MOL0     C37739   3.780   0.329   5.533  1.4274 -0.5454  0.8192
 1021MOL0     C37740   3.772   0.276   5.393  0.4235  0.7612  0.4678
 1021MOL0     C37741   3.671   0.351   5.318  0.0239  0.0660  0.2060
 1021MOL0     C37742   3.697   0.504   5.293 -0.1855  0.2016  0.4718
 1021MOL0     C37743   3.576   0.578   5.239  0.1403 -0.5623 -1.5017
 1021MOL0    Cl37744   3.523   0.538   5.081 -0.1766  0.2340  0.1841
 1021MOL0     C37745   4.316   0.556   5.764 -0.8205 -0.1392 -0.3261
 1021MOL0     C37746   4.427   0.594   5.837  0.0234  0.2375  0.0347
 1021MOL0     O37747   4.690   0.351   6.079  0.0220 -0.4106  0.2779
 1021MOL0     C37748   4.932   0.445   6.144  0.1402  0.5458  0.6614
 1021MOL0     C37749   5.050   0.499   6.192  0.3308 -0.2634  0.3627
 1021MOL0     N37750   5.345   0.777   6.622  0.5558 -0.0431  0.8752
 1021MOL0     N37751   5.360   0.845   6.735 -0.5220  0.5255  0.7100
 1021MOL0     C37752   6.216   0.709   7.554  0.0744 -0.1907 -0.1827
 1021MOL0     C37753   6.342   0.770   7.600 -0.6643 -0.6502  1.1397
 1021MOL0     C37754   6.569   1.125   7.785 -0.4228  0.2387 -0.3640
 1021MOL0     C37755   6.688   1.060   7.781 -0.0089 -0.1168  0.0170
 1021MOL0     C37756   6.809   1.122   7.800 -1.3404 -0.2775 -0.6814
 1021MOL0     C37757   6.811   1.258   7.827  0.3453  0.5590 -0.4254
 1021MOL0     O37758   6.928   1.324   7.871 -0.9208 -0.0645  0.2119
 1021MOL0     C37759   7.049   1.244   7.903  0.9162  0.0832  0.0823
 1021MOL0     C37760   7.135   1.233   7.773  1.2824 -0.0596 -0.5848
 1021MOL0     C37761   7.213   1.362   7.735 -0.5945  0.4444 -0.5629
 1021MOL0     C37762   7.150   1.491   7.693  0.1321  0.2389 -0.1989
 1021MOL0     C37763   7.248   1.598   7.676  0.1122  0.7946  0.9390
 1021MOL0     C37764   7.322   1.692   7.663 -0.0917  0.3800 -0.0017
 1021MOL0     C37765   6.694   1.329   7.807 -0.4157 -0.6108 -1.0245
 1021MOL0     C37766   6.570   1.266   7.796 -0.0959 -0.5384 -0.5325
 1021MOL0     C37767   6.452   1.358   7.787  0.2181  0.0906 -0.9600
 1021MOL0     H37768   6.251   0.859   7.908 -1.0665 -0.0865 -0.7327
 1021MOL0     H37769   6.048   0.764   7.847 -0.1870 -0.4910  1.0221
 1021MOL0     H37770   5.783   0.663   7.581 -1.4756  1.4959  1.7485
 1021MOL0     H37771   5.864   0.775   7.685 -1.7535  0.0170  0.4500
 1021MOL0     H37772   5.957   0.884   7.484 -0.1158 -0.4086 -4.2258
 1021MOL0     H37773   5.792   0.905   7.515 -0.4736 -2.2203  2.1793
 1021MOL0     H37774   5.900   0.671   7.328  0.9134  0.9895 -1.9433
 1021MOL0     H37775   5.898   0.832   7.277  1.8027  0.0718  1.1267
 1021MOL0     H37776   5.656   0.663   7.379  0.4142  1.2586  1.7911
 1021MOL0     H37777   5.630   0.830   7.342  1.3058  2.5983 -0.8271
 1021MOL0     H37778   5.734   0.627   7.144 -0.7009 -2.4475  4.9263
 1021MOL0     H37779   5.565   0.652   7.176 -0.9081  0.2580  2.3238
 1021MOL0     H37780   5.600   0.913   7.152 -3.1526 -3.5500  3.4859
 1021MOL0     H37781   5.745   0.873   7.064 -0.2029  1.3135  2.5823
 1021MOL0     H37782   5.457   0.781   7.024 -0.3847  0.3202 -0.3990
 1021MOL0     H37783   5.595   0.713   6.934 -0.7561 -0.4550  0.7590
 1021MOL0     H37784   5.497   1.010   6.918  1.3529  0.6704  0.1421
 1021MOL0     H37785   5.655   0.952   6.863 -0.5458  2.4912 -1.6637
 1021MOL0     H37786   5.667   0.862   6.609 -0.5271  3.5903 -2.1094
 1021MOL0     H37787   5.590   0.670   6.443  0.6721 -2.5175  3.1808
 1021MOL0     H37788   5.419   0.620   6.430  0.3745  1.6966 -2.6289
 1021MOL0     H37789   5.541   0.863   6.296 -0.2319  0.3454 -2.5334
 1021MOL0     H37790   5.470   0.731   6.198  0.4998  0.3727  0.0377
 1021MOL0     H37791   5.341   0.918   6.193 -1.3584 -0.5809  0.8899
 1021MOL0     H37792   5.331   0.938   6.372 -2.0633 -2.9674  1.9941
 1021MOL0     H37793   5.120   0.848   6.286 -0.1597  0.2449  0.7438
 1021MOL0     H37794   5.204   0.740   6.392  0.5327  0.9737  0.7085
 1021MOL0     H37795   5.045   0.798   6.031  1.4052 -1.2714 -1.4025
 1021MOL0     H37796   4.820   0.703   5.964  1.3662 -1.8934 -3.5363
 1021MOL0     H37797   4.550   0.282   5.893 -1.3329 -1.1626 -1.2504
 1021MOL0     H37798   4.333   0.223   5.793 -2.5682  0.7938  0.4875
 1021MOL0     H37799   4.087   0.217   5.773 -0.7019  0.5910 -0.2524
 1021MOL0     H37800   4.072   0.348   5.891 -0.7457  0.9762  0.1529
 1021MOL0     H37801   3.842   0.317   5.811 -1.2913 -0.9288  0.6637
 1021MOL0     H37802   3.903   0.459   5.728 -2.9989 -1.4070  1.1860
 1021MOL0     H37803   3.990   0.305   5.536 -1.3396 -2.8526 -4.2107
 1021MOL0     H37804   3.905   0.184   5.630 -0.3917  1.0634 -0.8262
 1021MOL0     H37805   3.770   0.438   5.532  1.7940 -0.4845 -1.4660
 1021MOL0     H37806   3.695   0.291   5.591  1.2314  1.9429  2.3171
 1021MOL0     H37807   3.756   0.168   5.391  1.0748  0.5855 -3.2083
 1021MOL0     H37808   3.868   0.293   5.344  1.2219 -0.5707  1.4934
 1021MOL0     H37809   3.668   0.296   5.224  0.2376 -1.3211  0.9874
 1021MOL0     H37810   3.577   0.329   5.370  1.8358 -1.6374  3.0381
 1021MOL0     H37811   3.757   0.499   5.202 -0.6292  1.2248  0.1098
 1021MOL0     H37812   3.745   0.562   5.371 -0.5403  0.6287  0.3778
 1021MOL0     H37813   3.490   0.566   5.304  0.9086 -1.6388 -0.6417
 1021MOL0     H37814   3.606   0.684   5.236 -3.6128  0.6613 -0.5298
 1021MOL0     H37815   4.268   0.631   5.702 -1.8089 -0.6169 -0.1578
 1021MOL0     H37816   4.471   0.692   5.825  0.1042  0.5031  2.2021
 1021MOL0     H37817   4.909   0.344   6.176  1.1340 -0.1036 -0.6283
 1021MOL0     H37818   5.123   0.440   6.247  0.6712 -1.3499 -1.1984
 1021MOL0     H37819   6.202   0.651   7.464 -2.3136 -3.2259  1.9313
 1021MOL0     H37820   6.434   0.766   7.543  0.4787  2.3717  2.5535
 1021MOL0     H37821   6.694   0.952   7.774  2.7157 -0.2657  2.6897
 1021MOL0     H37822   6.897   1.058   7.798 -0.8131  0.4302 -2.4403
 1021MOL0     H37823   7.021   1.150   7.950  0.9532 -0.1675 -0.3948
 1021MOL0     H37824   7.106   1.301   7.977  0.1978 -0.2164  0.8924
 1021MOL0     H37825   7.068   1.203   7.692  0.5799 -0.7802  0.2551
 1021MOL0     H37826   7.200   1.146   7.789 -0.6271 -1.5235 -0.4299
 1021MOL0     H37827   7.276   1.335   7.650 -0.9675  3.3607 -1.8716
 1021MOL0     H37828   7.276   1.388   7.821 -2.5228  0.0767  1.0504
 1021MOL0     H37829   7.110   1.471   7.594  3.7158  0.1780 -1.7873
 1021MOL0     H37830   7.075   1.534   7.760  0.5746  0.7528 -0.0241
 1021MOL0     H37831   7.395   1.771   7.654 -1.0016  1.4493  1.5310
 1021MOL0     H37832   6.708   1.430   7.845  0.9584 -0.5159 -1.7320
 1021MOL0     H37833   6.479   1.461   7.811 -1.1789  0.1677  0.4918
 1021MOL0     H37834   6.407   1.360   7.687  0.2091  1.1108 -0.9493
 1021MOL0     H37835   6.375   1.324   7.857  1.3684 -0.8327 -0.1102
 1022MOL0     O37836   7.123   2.241   1.192 -0.1642  0.3621 -0.6632
 1022MOL0     C37837   7.173   2.350   1.170  0.1153 -0.3987 -0.9658
 1022MOL0     O37838   7.151   2.430   1.056  1.3600  0.5122  0.2575
 1022MOL0     C37839   7.117   2.362   0.940 -1.2537 -0.1663  0.3078
 1022MOL0     C37840   7.039   2.442   0.849 -0.7964  0.1179  0.5942
 1022MOL0     C37841   6.992   2.389   0.734  0.2822  0.7196 -0.5598
 1022MOL0     C37842   6.995   2.251   0.714  0.0291  0.2884  0.8003
 1022MOL0     O37843   6.927   2.180   0.618  0.0295  0.5609  0.4115
 1022MOL0     C37844   6.783   2.184   0.642 -0.1521 -0.6630 -1.0804
 1022MOL0     C37845   6.718   2.076   0.560  0.5965  0.0803  0.6134
 1022MOL0     C37846   6.745   2.092   0.410 -0.6169 -0.0733 -0.2063
 1022MOL0     C37847   6.671   2.221   0.349 -0.2957  0.5618  0.4906
 1022MOL0     C37848   6.732   2.273   0.213 -1.0087  0.4925  0.0289
 1022MOL0     C37849   6.679   2.407   0.169  0.8325 -0.2825  0.3294
 1022MOL0     C37850   6.754   2.466   0.046 -0.3504 -0.0092  0.1870
 1022MOL0     C37851   6.778   2.617   0.061 -0.6658  0.2313  0.1470
 1022MOL0     N37852   6.833   2.676  -0.065 -0.5363  0.3925 -0.9676
 1022MOL0     C37853   6.931   2.620  -0.147  1.1152 -1.1736  0.1265
 1022MOL0     C37854   6.909   2.674  -0.275  0.0211 -1.0013 -0.9546
 1022MOL0     C37855   7.003   2.639  -0.385 -0.3687 -0.0743  0.9560
 1022MOL0     C37856   6.954   2.708  -0.511  0.0796  0.1805  0.9946
 1022MOL0     C37857   7.058   2.733  -0.622  0.0558  0.6328 -0.1058
 1022MOL0     C37858   7.105   2.598  -0.683  0.0837  0.7380  0.3402
 1022MOL0     O37859   7.221   2.618  -0.768  0.2907 -0.2399  1.1094
 1022MOL0     C37860   7.213   2.675  -0.896  0.0150  0.0347  0.7051
 1022MOL0     C37861   7.089   2.698  -0.965  0.0305 -0.0876 -0.2710
 1022MOL0     C37862   7.083   2.752  -1.090 -0.2249  0.9090  0.2572
 1022MOL0     C37863   7.201   2.784  -1.161  0.1543 -1.0376  0.1159
 1022MOL0     C37864   7.194   2.842  -1.299  0.3430  0.0967  0.0807
 1022MOL0     O37865   7.069   2.842  -1.367 -0.5304  0.0465 -0.2682
 1022MOL0     C37866   7.096   2.878  -1.503  0.9363  0.0073 -0.2915
 1022MOL0     C37867   7.032   2.782  -1.584 -0.8138  0.1633  0.1635
 1022MOL0     C37868   7.043   2.798  -1.719  0.3188  0.6946 -0.9020
 1022MOL0     C37869   7.105   2.900  -1.781 -0.0621 -0.4825 -0.0544
 1022MOL0     O37870   7.114   2.903  -1.917 -0.0081  0.4746  0.3318
 1022MOL0     C37871   7.253   2.904  -1.962 -0.6956  0.2662  0.0941
 1022MOL0     C37872   7.239   2.925  -2.109 -0.9514 -0.4292 -0.4184
 1022MOL0     C37873   7.373   2.906  -2.182 -0.9146 -0.2427  0.8978
 1022MOL0     C37874   7.378   2.959  -2.324 -0.7098  0.3216  0.1495
 1022MOL0     C37875   7.517   2.983  -2.376  0.1335  0.0626 -0.3102
 1022MOL0     C37876   7.575   3.098  -2.305 -0.2350  0.3211 -0.7545
 1022MOL0     C37877   7.660   3.202  -2.381  0.0091  0.7078  1.0854
 1022MOL0     C37878   7.759   3.265  -2.288  0.3254  0.0225 -0.3778
 1022MOL0    Cl37879   7.886   3.151  -2.240  0.1003 -0.3782  0.2436
 1022MOL0     C37880   7.162   3.005  -1.713  0.8700 -0.0457 -0.6507
 1022MOL0     C37881   7.159   2.991  -1.566  0.6865  0.2608  0.6575
 1022MOL0     O37882   7.301   2.874  -1.345 -0.2681 -0.9010  1.2617
 1022MOL0     C37883   7.328   2.751  -1.099  0.0388 -1.1171  0.6639
 1022MOL0     C37884   7.326   2.712  -0.971  0.6433  0.6242 -0.3381
 1022MOL0     N37885   6.804   2.765  -0.259 -0.2861 -0.3292  0.1875
 1022MOL0     N37886   6.748   2.750  -0.143 -0.6077  0.2860  0.6360
 1022MOL0     C37887   7.080   2.169   0.798  0.0248  0.4932 -0.0152
 1022MOL0     C37888   7.146   2.226   0.910  0.0755  0.7468  0.0938
 1022MOL0     C37889   7.277   2.393   1.268 -0.7270 -0.2420  0.5087
 1022MOL0     C37890   7.365   2.299   1.328 -0.5444 -0.4629  0.3441
 1022MOL0     C37891   7.469   2.333   1.412 -0.6311  0.3199 -0.6234
 1022MOL0     C37892   7.495   2.470   1.445 -0.1398 -0.7002  1.0938
 1022MOL0     O37893   7.602   2.497   1.527  0.0121  0.1449  0.4800
 1022MOL0     C37894   7.605   2.632   1.591  0.0111 -0.0578  0.4236
 1022MOL0     C37895   7.674   2.730   1.500 -0.6026  0.0944 -1.2480
 1022MOL0     C37896   7.820   2.700   1.475  0.7331  0.1369 -0.7597
 1022MOL0     C37897   7.917   2.677   1.593  0.1317 -0.5084 -0.3500
 1022MOL0     C37898   8.051   2.675   1.535  0.0763  0.0173  0.0656
 1022MOL0     C37899   8.169   2.649   1.504 -0.2030  0.3919  0.7298
 1022MOL0     C37900   7.412   2.562   1.387  0.7321 -0.4189  0.0388
 1022MOL0     C37901   7.300   2.538   1.308  0.5606  0.3335  0.0193
 1022MOL0     C37902   7.200   2.635   1.266  0.1780 -0.2909  0.2046
 1022MOL0     H37903   7.020   2.547   0.867  0.6450  0.4610  0.2852
 1022MOL0     H37904   6.947   2.450   0.657  1.0984  2.0948  0.0292
 1022MOL0     H37905   6.753   2.167   0.746 -0.7178 -0.8586 -1.2738
 1022MOL0     H37906   6.729   2.277   0.622 -1.5658 -0.4964  2.7246
 1022MOL0     H37907   6.612   2.080   0.587  0.3711  1.2638 -0.3238
 1022MOL0     H37908   6.760   1.980   0.591 -0.1086  0.1998  2.0022
 1022MOL0     H37909   6.702   2.015   0.345 -0.4493  0.4561 -0.9552
 1022MOL0     H37910   6.853   2.099   0.393 -0.0013  1.3840  3.3046
 1022MOL0     H37911   6.563   2.203   0.339 -0.5393  1.6749  0.9118
 1022MOL0     H37912   6.690   2.305   0.417  2.5051  1.4929 -1.2968
 1022MOL0     H37913   6.837   2.294   0.236 -1.4023  3.6358 -0.5416
 1022MOL0     H37914   6.713   2.193   0.140  2.0694 -1.7076  1.4169
 1022MOL0     H37915   6.574   2.408   0.141  0.5545 -0.8144  1.2959
 1022MOL0     H37916   6.683   2.467   0.260 -0.3237 -2.3229  1.8014
 1022MOL0     H37917   6.687   2.460  -0.040  1.0849 -1.2478 -0.8781
 1022MOL0     H37918   6.844   2.409   0.023  0.0151 -0.3807  2.3090
 1022MOL0     H37919   6.678   2.658   0.075 -1.7461 -1.9471 -0.7342
 1022MOL0     H37920   6.845   2.655   0.139  0.4157 -0.4762 -0.4124
 1022MOL0     H37921   7.014   2.556  -0.119 -0.0005 -1.3351  3.6292
 1022MOL0     H37922   7.108   2.656  -0.357 -0.4995 -0.7520  1.8885
 1022MOL0     H37923   6.998   2.530  -0.386 -1.4715 -0.0404  1.5819
 1022MOL0     H37924   6.869   2.653  -0.552 -0.1070  2.6415 -2.3023
 1022MOL0     H37925   6.916   2.804  -0.475 -1.3728 -0.4102  1.1150
 1022MOL0     H37926   7.147   2.782  -0.580 -0.5427 -0.2092  2.3193
 1022MOL0     H37927   7.020   2.800  -0.699 -1.7374  0.9371  0.9761
 1022MOL0     H37928   7.019   2.557  -0.735  2.5930 -1.0002 -2.8492
 1022MOL0     H37929   7.141   2.543  -0.596 -1.4905  0.0136  0.5612
 1022MOL0     H37930   6.993   2.672  -0.920  1.2340 -0.8515  2.0029
 1022MOL0     H37931   6.989   2.782  -1.135  0.8876  4.2568 -0.1453
 1022MOL0     H37932   6.984   2.694  -1.541  3.4214 -1.3134  2.3840
 1022MOL0     H37933   6.973   2.737  -1.774 -2.4565  1.5947  1.3558
 1022MOL0     H37934   7.308   2.990  -1.923 -0.5267  0.8569 -1.3659
 1022MOL0     H37935   7.315   2.817  -1.940 -0.1066  0.1803 -1.7098
 1022MOL0     H37936   7.180   2.840  -2.142 -0.4439 -1.4567  1.2084
 1022MOL0     H37937   7.194   3.018  -2.146  0.7486 -0.3505 -2.5199
 1022MOL0     H37938   7.455   2.962  -2.134  0.3589 -0.2396 -1.1705
 1022MOL0     H37939   7.386   2.798  -2.182 -0.6891 -0.2710  3.0678
 1022MOL0     H37940   7.324   3.053  -2.334  0.9544  1.1689 -1.3388
 1022MOL0     H37941   7.328   2.886  -2.390  2.3013 -1.8804  0.0886
 1022MOL0     H37942   7.509   3.004  -2.483 -0.4395 -1.9817 -0.7040
 1022MOL0     H37943   7.580   2.894  -2.377 -2.4873 -2.0471  2.6844
 1022MOL0     H37944   7.501   3.154  -2.248  1.9932  0.7834  1.8665
 1022MOL0     H37945   7.634   3.051  -2.225  3.5980 -1.1218 -4.0590
 1022MOL0     H37946   7.587   3.275  -2.416 -0.8221 -0.9017 -0.7789
 1022MOL0     H37947   7.702   3.157  -2.472  0.9227  1.3714  1.1679
 1022MOL0     H37948   7.813   3.352  -2.326 -1.2692  2.1545  1.8889
 1022MOL0     H37949   7.700   3.300  -2.202 -1.6323 -0.0304 -1.6383
 1022MOL0     H37950   7.213   3.085  -1.765  4.0640  0.1189  2.3344
 1022MOL0     H37951   7.214   3.055  -1.498  0.7593  1.4308 -0.4650
 1022MOL0     H37952   7.414   2.774  -1.161 -0.1772 -1.4802  0.2129
 1022MOL0     H37953   7.419   2.681  -0.924  0.7896 -2.4982 -2.3736
 1022MOL0     H37954   7.093   2.067   0.764 -1.5820  0.1819  0.2238
 1022MOL0     H37955   7.224   2.166   0.955 -1.7377 -0.6129  1.5943
 1022MOL0     H37956   7.356   2.194   1.302  1.3506 -0.4582 -0.4977
 1022MOL0     H37957   7.537   2.256   1.446  2.4993  3.2915  0.3463
 1022MOL0     H37958   7.651   2.619   1.689  0.5251 -1.7261  0.0033
 1022MOL0     H37959   7.506   2.673   1.609 -0.5211 -1.0091 -0.2341
 1022MOL0     H37960   7.671   2.829   1.546  3.8358 -0.5112  0.8448
 1022MOL0     H37961   7.629   2.742   1.401  0.5977 -0.4120 -1.8756
 1022MOL0     H37962   7.863   2.784   1.420 -0.8537  0.9163 -0.8805
 1022MOL0     H37963   7.813   2.608   1.418 -1.4004 -0.1622 -0.1102
 1022MOL0     H37964   7.909   2.760   1.665 -1.0734 -0.5202 -0.4501
 1022MOL0     H37965   7.902   2.580   1.641  0.5217  1.0568  3.3432
 1022MOL0     H37966   8.270   2.619   1.481 -1.0005 -3.2217  1.3690
 1022MOL0     H37967   7.417   2.667   1.414  0.3926 -0.7663  1.5062
 1022MOL0     H37968   7.196   2.630   1.156  0.2962  1.2616  0.0994
 1022MOL0     H37969   7.099   2.615   1.303 -0.2473  2.9098  1.0799
 1022MOL0     H37970   7.210   2.741   1.291 -0.1272 -0.5256  1.3550
 1023MOL0     O37971   3.628   4.952   3.496  0.7088  0.9932 -0.3858
 1023MOL0     C37972   3.681   4.911   3.601 -0.1069 -0.4211  0.0766
 1023MOL0     O37973   3.772   4.976   3.681  0.2398 -0.3861  0.3537
 1023MOL0     C37974   3.805   5.102   3.659  0.0433 -0.6813 -0.3702
 1023MOL0     C37975   3.797   5.172   3.538  0.2548 -0.4497 -0.1522
 1023MOL0     C37976   3.855   5.295   3.527 -1.7838  0.6684 -0.1785
 1023MOL0     C37977   3.916   5.365   3.637 -0.6121 -0.7136 -0.5343
 1023MOL0     O37978   3.975   5.490   3.609  0.0209  0.3616 -0.6010
 1023MOL0     C37979   4.036   5.572   3.715 -0.4644  0.0906 -0.5439
 1023MOL0     C37980   4.133   5.669   3.656  0.1586 -0.2377 -0.0998
 1023MOL0     C37981   4.183   5.776   3.767  0.2394  0.0547  1.2781
 1023MOL0     C37982   4.241   5.907   3.709  1.4001  0.0086 -0.1268
 1023MOL0     C37983   4.339   5.906   3.600 -0.2839 -0.0265 -0.3924
 1023MOL0     C37984   4.380   6.038   3.537  0.6408  1.0218  0.6304
 1023MOL0     C37985   4.386   6.155   3.638  1.2172 -0.0245 -0.1146
 1023MOL0     C37986   4.515   6.144   3.721  0.5756  0.2747  0.3123
 1023MOL0     N37987   4.514   6.230   3.840 -0.0116 -1.0322 -0.1131
 1023MOL0     C37988   4.516   6.194   3.977  0.9896 -0.4545  1.1471
 1023MOL0     C37989   4.549   6.309   4.038  1.2935  0.0981 -0.3606
 1023MOL0     C37990   4.557   6.329   4.190 -0.0407 -0.2078  0.5918
 1023MOL0     C37991   4.667   6.237   4.250 -0.0778 -0.2322 -0.3729
 1023MOL0     C37992   4.603   6.108   4.306 -0.1931  0.5622  0.4955
 1023MOL0     C37993   4.465   6.101   4.381  0.3330 -0.1951  0.8284
 1023MOL0     O37994   4.464   5.964   4.427 -0.1565 -0.2937 -0.1759
 1023MOL0     C37995   4.381   5.875   4.364  0.4840  0.2947  0.9562
 1023MOL0     C37996   4.364   5.754   4.428 -0.7446  0.3264 -0.2971
 1023MOL0     C37997   4.287   5.654   4.372 -0.7333 -0.1908  0.5600
 1023MOL0     C37998   4.239   5.671   4.239 -0.2689 -0.7700  0.0170
 1023MOL0     C37999   4.161   5.557   4.176 -0.1313 -0.6498  0.2184
 1023MOL0     O38000   4.134   5.456   4.266  0.3700  0.2462  0.9777
 1023MOL0     C38001   4.069   5.346   4.216  0.9169  0.2692 -0.3279
 1023MOL0     C38002   4.106   5.273   4.111 -0.0022  0.3351  0.6682
 1023MOL0     C38003   4.046   5.154   4.071  0.3122  0.4359  0.0102
 1023MOL0     C38004   3.932   5.106   4.143  0.2418 -0.1610  0.6445
 1023MOL0     O38005   3.882   4.975   4.108  1.1916 -0.4561 -1.0989
 1023MOL0     C38006   3.920   4.883   4.211  0.5926  0.0772 -0.8722
 1023MOL0     C38007   3.965   4.758   4.136 -0.1652 -0.2283  0.2370
 1023MOL0     C38008   3.981   4.634   4.220  0.3781  0.3825  0.0222
 1023MOL0     C38009   3.837   4.594   4.249 -0.0849  0.5331 -0.0677
 1023MOL0     C38010   3.833   4.455   4.323  0.3552  0.2873  0.3145
 1023MOL0     C38011   3.895   4.442   4.473  1.1397  0.8467 -0.4602
 1023MOL0     C38012   3.828   4.538   4.572 -0.6321  0.5746 -0.2210
 1023MOL0     C38013   3.869   4.485   4.709 -0.7457 -0.2128 -1.6784
 1023MOL0    Cl38014   3.802   4.577   4.853  0.0663 -0.6716  0.0454
 1023MOL0     C38015   3.880   5.186   4.248 -0.1247  0.1756  0.0972
 1023MOL0     C38016   3.949   5.301   4.290  0.7770 -0.3246  0.8101
 1023MOL0     O38017   4.117   5.558   4.058  0.0691  0.7500  0.4609
 1023MOL0     C38018   4.256   5.796   4.167 -0.2318 -0.0440 -0.2209
 1023MOL0     C38019   4.327   5.890   4.236  0.5668  0.0212  0.6529
 1023MOL0     N38020   4.541   6.418   3.940 -0.3184  0.1622  0.0156
 1023MOL0     N38021   4.530   6.361   3.831  0.2847 -0.0026  0.5557
 1023MOL0     C38022   3.920   5.299   3.762  0.0985  0.0978 -0.1001
 1023MOL0     C38023   3.872   5.164   3.764  0.3393  0.3990  0.2605
 1023MOL0     C38024   3.637   4.785   3.659  0.3780  0.3543  0.4736
 1023MOL0     C38025   3.624   4.789   3.801 -0.3773  0.3119 -0.7270
 1023MOL0     C38026   3.590   4.672   3.864  0.0115 -0.0755  0.3156
 1023MOL0     C38027   3.569   4.546   3.803  0.1271 -0.0640 -0.0569
 1023MOL0     O38028   3.542   4.432   3.865 -0.0516 -1.0609 -1.1941
 1023MOL0     C38029   3.583   4.401   3.988  0.4336  1.0236 -0.3536
 1023MOL0     C38030   3.524   4.261   4.034  0.4780 -0.5814 -0.5074
 1023MOL0     C38031   3.582   4.220   4.171  0.3852 -0.2897 -0.3899
 1023MOL0     C38032   3.485   4.146   4.279  0.0775 -0.1795 -0.7084
 1023MOL0     C38033   3.548   4.181   4.405  0.5475 -0.2863 -0.2402
 1023MOL0     C38034   3.607   4.221   4.497  0.6853 -0.9106 -0.3479
 1023MOL0     C38035   3.590   4.551   3.669  0.6578 -0.2296 -0.3016
 1023MOL0     C38036   3.611   4.665   3.593 -0.1293 -0.7443 -0.7789
 1023MOL0     C38037   3.616   4.654   3.442  0.2916 -0.5561 -0.7072
 1023MOL0     H38038   3.759   5.135   3.444  1.1580 -0.3364 -0.5690
 1023MOL0     H38039   3.850   5.353   3.436 -1.0069  3.8232  1.6522
 1023MOL0     H38040   3.976   5.626   3.789  2.4084 -0.2884  2.3126
 1023MOL0     H38041   4.102   5.515   3.781 -0.3734  1.7459  0.8798
 1023MOL0     H38042   4.088   5.716   3.568 -1.7590 -0.1776  0.8627
 1023MOL0     H38043   4.218   5.605   3.629 -0.9497 -0.9975 -2.0632
 1023MOL0     H38044   4.248   5.735   3.845 -2.0734 -2.6292  1.9377
 1023MOL0     H38045   4.092   5.799   3.825 -0.8543 -2.3568  0.6489
 1023MOL0     H38046   4.152   5.959   3.671  1.5551  1.0290  0.8707
 1023MOL0     H38047   4.282   5.958   3.796  0.6212  1.2667 -0.4626
 1023MOL0     H38048   4.433   5.855   3.622 -0.1109  0.0814 -0.8672
 1023MOL0     H38049   4.294   5.849   3.518  1.0972 -0.9523 -0.5369
 1023MOL0     H38050   4.478   6.010   3.497 -0.8086 -2.4403 -0.9356
 1023MOL0     H38051   4.302   6.059   3.464 -1.0421  2.1024  2.6347
 1023MOL0     H38052   4.305   6.164   3.711  3.4580  0.7295  2.4092
 1023MOL0     H38053   4.390   6.251   3.584  2.3442  0.7512  1.2934
 1023MOL0     H38054   4.540   6.042   3.752  1.8700 -0.3389 -2.3833
 1023MOL0     H38055   4.586   6.172   3.642  1.6789 -0.7967  0.8863
 1023MOL0     H38056   4.501   6.093   4.013  0.6758 -0.2475  1.6212
 1023MOL0     H38057   4.579   6.436   4.195 -0.4019  0.2762 -4.1148
 1023MOL0     H38058   4.456   6.324   4.233 -2.6043  3.9885 -3.9503
 1023MOL0     H38059   4.750   6.225   4.181  0.8274  0.4785  0.5645
 1023MOL0     H38060   4.716   6.295   4.329  0.7267  0.0859 -1.0889
 1023MOL0     H38061   4.674   6.080   4.385  0.5455 -2.3565 -1.0671
 1023MOL0     H38062   4.603   6.027   4.233  1.1108  1.6197 -0.7216
 1023MOL0     H38063   4.385   6.136   4.314  2.5224  0.4408 -1.6210
 1023MOL0     H38064   4.453   6.164   4.470 -2.5952  1.3819 -0.5072
 1023MOL0     H38065   4.416   5.728   4.520  0.5464 -2.0609 -1.6150
 1023MOL0     H38066   4.273   5.561   4.425  1.9320 -1.3314 -0.5704
 1023MOL0     H38067   4.182   5.306   4.042  0.3383 -2.4577 -0.4294
 1023MOL0     H38068   4.090   5.099   3.989  2.6685  0.3818  1.2282
 1023MOL0     H38069   3.999   4.932   4.268  1.4409 -0.1983 -1.7834
 1023MOL0     H38070   3.831   4.859   4.270 -1.3400  2.1610 -2.7457
 1023MOL0     H38071   3.889   4.752   4.057  0.5779 -0.4457 -0.4857
 1023MOL0     H38072   4.067   4.762   4.096 -0.0894  0.6986  0.4981
 1023MOL0     H38073   4.024   4.553   4.161 -0.1607 -0.4561  0.7426
 1023MOL0     H38074   4.048   4.650   4.304  0.8337 -0.3606 -0.1878
 1023MOL0     H38075   3.770   4.594   4.163 -0.8663  3.0758  0.4699
 1023MOL0     H38076   3.789   4.667   4.314  0.1422  0.4410  0.2068
 1023MOL0     H38077   3.868   4.372   4.261 -0.9076 -0.3692  0.4386
 1023MOL0     H38078   3.725   4.442   4.339 -0.3523  3.0247 -1.5398
 1023MOL0     H38079   3.871   4.340   4.503 -2.1434  1.7592  0.4717
 1023MOL0     H38080   4.004   4.456   4.474  1.4815 -1.0177  2.8165
 1023MOL0     H38081   3.719   4.535   4.576 -0.6489  1.3670  0.0224
 1023MOL0     H38082   3.859   4.642   4.560 -0.7962  0.8193  1.3080
 1023MOL0     H38083   3.846   4.379   4.724  2.4065 -0.8658 -0.7473
 1023MOL0     H38084   3.977   4.493   4.715 -0.7113 -1.5845  1.9335
 1023MOL0     H38085   3.793   5.152   4.304 -0.8463  3.7411  1.4110
 1023MOL0     H38086   3.913   5.358   4.374 -0.8154  3.8760 -2.3335
 1023MOL0     H38087   4.214   5.825   4.071  1.3046 -0.6784 -1.1462
 1023MOL0     H38088   4.343   5.989   4.195  2.1746  1.1056  3.5784
 1023MOL0     H38089   3.958   5.335   3.857 -0.2933  1.6674 -0.5020
 1023MOL0     H38090   3.879   5.100   3.852  0.9282  0.6894  0.4356
 1023MOL0     H38091   3.650   4.873   3.864  2.6618 -1.3368  0.4413
 1023MOL0     H38092   3.583   4.679   3.972  0.9683 -1.0376  0.4595
 1023MOL0     H38093   3.547   4.478   4.057 -1.4092 -0.8600  0.8974
 1023MOL0     H38094   3.691   4.387   4.000 -0.0799 -1.6228  2.6778
 1023MOL0     H38095   3.535   4.183   3.959 -2.9965 -0.3564 -1.4216
 1023MOL0     H38096   3.417   4.281   4.040  0.8758  1.4528  1.3486
 1023MOL0     H38097   3.628   4.304   4.222 -0.9457  1.0754 -1.3531
 1023MOL0     H38098   3.663   4.151   4.145  0.4446 -1.2100  1.9957
 1023MOL0     H38099   3.388   4.196   4.288 -0.1333 -0.8495  1.0278
 1023MOL0     H38100   3.475   4.038   4.266 -3.1357 -0.4931  2.6554
 1023MOL0     H38101   3.672   4.267   4.568  1.4409 -0.9557 -1.0010
 1023MOL0     H38102   3.574   4.459   3.613 -1.5498 -1.8732  2.7116
 1023MOL0     H38103   3.670   4.564   3.410  4.0796  1.6549 -1.2063
 1023MOL0     H38104   3.517   4.637   3.400 -0.2488 -3.2642  1.4077
 1023MOL0     H38105   3.656   4.742   3.391  0.5268  0.6496  1.4141
 1024MOL0     O38106  11.023   8.750  10.744  0.2357 -0.2842 -0.4197
 1024MOL0     C38107  11.055   8.642  10.711 -0.0475 -0.2172  1.1369
 1024MOL0     O38108  11.024   8.531  10.780  0.5397 -0.4276  0.5108
 1024MOL0     C38109  10.926   8.539  10.881  0.5015 -0.5529  0.5825
 1024MOL0     C38110  10.825   8.629  10.888 -0.1278  0.1477  0.7327
 1024MOL0     C38111  10.720   8.633  10.993 -0.1325 -0.3697 -0.2390
 1024MOL0     C38112  10.733   8.536  11.090 -0.2645 -0.3904  0.0319
 1024MOL0     O38113  10.657   8.544  11.209 -0.1693 -0.1690  0.0893
 1024MOL0     C38114  10.745   8.531  11.327 -0.2366 -0.3519 -0.4135
 1024MOL0     C38115  10.673   8.576  11.457  0.9499  0.7085  0.9001
 1024MOL0     C38116  10.755   8.552  11.577 -1.0500  0.2587 -0.5333
 1024MOL0     C38117  10.703   8.625  11.710 -0.3722  0.7381 -0.0620
 1024MOL0     C38118  10.807   8.580  11.816  0.8731 -0.0639  0.3076
 1024MOL0     C38119  10.838   8.703  11.893  0.0821  0.1955 -0.8410
 1024MOL0     C38120  10.959   8.682  11.985  0.8319 -0.0499 -0.2809
 1024MOL0     C38121  10.927   8.582  12.088 -0.7542 -0.4189 -0.3083
 1024MOL0     N38122  11.035   8.606  12.188  0.2386  1.2611  0.2912
 1024MOL0     C38123  11.015   8.612  12.324  0.0055 -0.1450  0.3773
 1024MOL0     C38124  11.140   8.608  12.378  0.7365  0.4314 -0.5339
 1024MOL0     C38125  11.171   8.620  12.518 -0.0493  0.5415  0.5007
 1024MOL0     C38126  11.181   8.761  12.573 -0.1554  1.0891 -0.3289
 1024MOL0     C38127  11.220   8.742  12.719 -0.1296 -0.1162  0.9241
 1024MOL0     C38128  11.176   8.856  12.815 -0.1776  0.4567 -0.2059
 1024MOL0     O38129  11.257   8.975  12.801  0.2657  0.0022  0.1768
 1024MOL0     C38130  11.230   9.079  12.709  0.6084  0.5430 -0.1408
 1024MOL0     C38131  11.116   9.095  12.635  0.4249 -0.5585 -0.6602
 1024MOL0     C38132  11.105   9.197  12.544 -0.3104 -0.3132  0.3782
 1024MOL0     C38133  11.208   9.291  12.519 -0.7322 -0.1897  0.4866
 1024MOL0     C38134  11.177   9.402  12.426 -0.8601  0.0645  0.5448
 1024MOL0     O38135  11.281   9.480  12.410  0.3613 -0.1233 -0.3570
 1024MOL0     C38136  11.293   9.575  12.309 -0.1474  0.5067 -0.4160
 1024MOL0     C38137  11.325   9.698  12.341  0.0309  0.1463  0.2486
 1024MOL0     C38138  11.362   9.788  12.232 -0.5743 -0.2986 -0.3832
 1024MOL0     C38139  11.368   9.747  12.093  0.4357  0.2048 -0.5564
 1024MOL0     O38140  11.394   9.847  12.000 -0.5729  0.2198 -0.9404
 1024MOL0     C38141  11.449   9.805  11.877  0.4028 -0.7987  0.0252
 1024MOL0     C38142  11.447   9.913  11.773 -0.2330  0.1470 -0.0911
 1024MOL0     C38143  11.524  10.044  11.815  0.0065  0.5253  0.8591
 1024MOL0     C38144  11.471  10.175  11.754 -0.9100  0.1001  0.5075
 1024MOL0     C38145  11.558  10.287  11.825 -0.3482 -0.5854 -0.1740
 1024MOL0     C38146  11.713  10.287  11.797 -0.5865 -0.7170  0.1594
 1024MOL0     C38147  11.743  10.267  11.646 -0.5158 -0.0403  0.4985
 1024MOL0     C38148  11.893  10.294  11.609  0.8799  0.0534  0.7543
 1024MOL0    Cl38149  11.992  10.185  11.712 -0.0239 -0.0508 -0.2377
 1024MOL0     C38150  11.328   9.614  12.069  0.2992  0.3707  0.4742
 1024MOL0     C38151  11.291   9.533  12.171 -0.3799 -0.0698 -0.3816
 1024MOL0     O38152  11.077   9.410  12.361 -0.0306  0.6466  0.1171
 1024MOL0     C38153  11.333   9.280  12.590 -0.1833 -0.0259  1.0401
 1024MOL0     C38154  11.337   9.168  12.683 -0.0014 -0.2053  0.1370
 1024MOL0     N38155  11.232   8.596  12.278 -0.9059  0.5448 -0.0096
 1024MOL0     N38156  11.169   8.580  12.160  0.2905 -0.0944 -0.8002
 1024MOL0     C38157  10.830   8.431  11.070 -0.9780  0.4007  0.1639
 1024MOL0     C38158  10.925   8.431  10.968 -0.2281  0.2223 -0.1566
 1024MOL0     C38159  11.125   8.625  10.582 -0.8438  0.4443  0.6046
 1024MOL0     C38160  11.132   8.493  10.523  0.1408 -0.3997  0.5154
 1024MOL0     C38161  11.184   8.474  10.391  0.0048  0.0138  0.2390
 1024MOL0     C38162  11.241   8.577  10.316 -0.3574  0.1723 -0.0455
 1024MOL0     O38163  11.292   8.536  10.191 -0.3506  0.4080  0.0827
 1024MOL0     C38164  11.330   8.644  10.105 -0.8429  1.1615 -0.2978
 1024MOL0     C38165  11.377   8.579   9.976  0.1315 -0.2022 -0.5469
 1024MOL0     C38166  11.494   8.483   9.986  0.6598 -0.8027  0.1887
 1024MOL0     C38167  11.619   8.526  10.054  0.1375 -0.3483 -1.2229
 1024MOL0     C38168  11.694   8.620   9.971  0.0257  0.5858 -0.2712
 1024MOL0     C38169  11.763   8.703   9.910 -0.5464  0.3396 -0.3887
 1024MOL0     C38170  11.249   8.703  10.375  0.6495 -0.2470 -0.0360
 1024MOL0     C38171  11.183   8.730  10.496  0.4297  0.2708 -0.3557
 1024MOL0     C38172  11.206   8.867  10.558  0.8809  0.3448 -0.2489
 1024MOL0     H38173  10.820   8.703  10.808  0.0318  0.5630  1.1046
 1024MOL0     H38174  10.641   8.707  11.003  0.7917  0.7285 -0.7991
 1024MOL0     H38175  10.778   8.428  11.345  2.9569  0.6723  0.3074
 1024MOL0     H38176  10.829   8.598  11.308 -0.2335 -0.8647 -2.3691
 1024MOL0     H38177  10.578   8.522  11.455  1.1400  0.3770 -0.3696
 1024MOL0     H38178  10.653   8.683  11.445  1.8208  1.0907  2.5681
 1024MOL0     H38179  10.855   8.595  11.569 -0.5873 -0.2732  1.6730
 1024MOL0     H38180  10.779   8.446  11.589 -2.9958 -0.1184  0.5327
 1024MOL0     H38181  10.702   8.731  11.682 -0.9700  0.2077 -2.1745
 1024MOL0     H38182  10.601   8.597  11.739 -0.3122 -0.2909 -0.8003
 1024MOL0     H38183  10.767   8.496  11.874  0.7657 -2.0728 -2.4586
 1024MOL0     H38184  10.904   8.551  11.775  0.2223 -0.6174 -0.8991
 1024MOL0     H38185  10.873   8.783  11.827  1.4875 -0.4817 -0.9634
 1024MOL0     H38186  10.760   8.753  11.952  0.1535  1.7290 -1.9835
 1024MOL0     H38187  10.997   8.774  12.029 -1.4403  1.0194 -0.4058
 1024MOL0     H38188  11.043   8.645  11.925 -1.6156 -4.6499 -1.3629
 1024MOL0     H38189  10.831   8.597  12.137 -0.5341 -0.2908  0.0863
 1024MOL0     H38190  10.942   8.477  12.062 -0.5583 -0.0329 -1.8783
 1024MOL0     H38191  10.918   8.613  12.373  0.8684 -0.7517  2.1426
 1024MOL0     H38192  11.089   8.581  12.580  1.5135 -1.2571  1.5401
 1024MOL0     H38193  11.263   8.564  12.534  1.4016  1.2297 -4.0044
 1024MOL0     H38194  11.263   8.812  12.522 -0.3996  1.6040 -0.2111
 1024MOL0     H38195  11.096   8.824  12.549 -1.3378  0.3555  1.6861
 1024MOL0     H38196  11.329   8.732  12.719  0.0536  1.5605  0.1070
 1024MOL0     H38197  11.177   8.653  12.766 -2.4610  1.5659  2.1913
 1024MOL0     H38198  11.211   8.815  12.910  4.3011 -1.0062 -2.1940
 1024MOL0     H38199  11.069   8.872  12.797 -0.2422 -1.6888 -2.2073
 1024MOL0     H38200  11.036   9.027  12.664 -0.1059  0.4705  0.3308
 1024MOL0     H38201  11.020   9.190  12.476  0.7506 -0.0289 -1.0252
 1024MOL0     H38202  11.330   9.728  12.445  1.6414 -0.9452  0.5154
 1024MOL0     H38203  11.394   9.888  12.260  0.5752 -0.3694 -1.3309
 1024MOL0     H38204  11.552   9.774  11.894  0.4506 -1.7046 -1.6736
 1024MOL0     H38205  11.407   9.710  11.842 -0.5792 -0.3219 -0.1548
 1024MOL0     H38206  11.485   9.861  11.684  0.6028 -0.5580  0.6545
 1024MOL0     H38207  11.342   9.931  11.752 -0.8640 -0.6940  2.1340
 1024MOL0     H38208  11.503  10.059  11.921  1.4744 -1.3940  1.4942
 1024MOL0     H38209  11.630  10.023  11.796  0.8684  1.3449  4.2235
 1024MOL0     H38210  11.364  10.194  11.767 -1.1115  0.8341 -1.8428
 1024MOL0     H38211  11.484  10.169  11.645 -1.9463  0.1165  0.3788
 1024MOL0     H38212  11.541  10.286  11.933 -0.2248 -2.2372 -0.1439
 1024MOL0     H38213  11.522  10.384  11.788 -2.6600 -1.5577 -0.6649
 1024MOL0     H38214  11.775  10.367  11.839 -0.3605 -1.8710  2.1190
 1024MOL0     H38215  11.746  10.205  11.861  1.1080  0.9725  1.5754
 1024MOL0     H38216  11.692  10.337  11.579  1.1042  1.4666  0.7504
 1024MOL0     H38217  11.729  10.163  11.616  0.3606  0.3782 -1.5366
 1024MOL0     H38218  11.902  10.277  11.501 -4.6500 -0.6849  0.1093
 1024MOL0     H38219  11.925  10.396  11.631  0.1901  0.8540 -1.6595
 1024MOL0     H38220  11.334   9.573  11.969 -3.4360  2.6245 -0.8872
 1024MOL0     H38221  11.250   9.437  12.140 -0.2666 -0.3897  0.4367
 1024MOL0     H38222  11.410   9.354  12.571 -1.3288  1.0453  0.3411
 1024MOL0     H38223  11.428   9.164  12.743 -1.3920  2.7532  2.7209
 1024MOL0     H38224  10.846   8.350  11.141  1.3260  2.5266  2.2751
 1024MOL0     H38225  10.985   8.342  10.949 -3.2114 -1.4827 -2.5994
 1024MOL0     H38226  11.084   8.408  10.570  4.2542 -1.8014  2.6631
 1024MOL0     H38227  11.184   8.377  10.343 -1.0118 -0.6797  1.5574
 1024MOL0     H38228  11.406   8.713  10.143  0.6068 -0.7747  0.4522
 1024MOL0     H38229  11.238   8.699  10.080 -1.2203  0.0067 -1.5640
 1024MOL0     H38230  11.387   8.655   9.897  0.5252  0.8663  0.5109
 1024MOL0     H38231  11.306   8.509   9.931 -1.2280  1.2424 -0.7062
 1024MOL0     H38232  11.508   8.470   9.878 -3.2403  2.2674 -0.9109
 1024MOL0     H38233  11.466   8.384  10.024 -3.4944 -0.2151 -0.8276
 1024MOL0     H38234  11.587   8.565  10.151  0.6980 -0.9629 -0.7817
 1024MOL0     H38235  11.688   8.441  10.061  0.5049 -0.0087 -0.6036
 1024MOL0     H38236  11.821   8.771   9.851 -0.4710  0.4095 -0.2341
 1024MOL0     H38237  11.285   8.795  10.329 -2.4376  0.5629 -1.1241
 1024MOL0     H38238  11.233   8.879  10.663 -1.5067  1.6179  0.3024
 1024MOL0     H38239  11.284   8.910  10.494 -0.5653 -0.7668 -2.9310
 1024MOL0     H38240  11.116   8.927  10.544  0.2192 -0.6392 -0.2619
  11.49532  11.49532  11.49532
